Title
42773
    1SAPS     N    1   4.005   5.897   7.167 -0.8363 -0.2313  0.2314
    1SAPS   HN1    2   4.050   5.924   7.078  1.2682  1.5456  1.7193
    1SAPS   HN2    3   3.907   5.931   7.176 -0.4087  0.6224  2.4026
    1SAPS   HN3    4   4.057   5.951   7.240  0.9587 -0.2674 -0.9598
    1SAPS   C12    5   4.016   5.758   7.183 -0.1328 -0.7002  0.0088
    1SAPS  H12A    6   3.994   5.727   7.284 -0.6085 -1.6812 -0.3762
    1SAPS   C13    7   3.914   5.678   7.098 -0.0019  0.1797  0.2824
    1SAPS  O13A    8   3.847   5.724   6.998 -0.2797  0.2225 -0.8469
    1SAPS  O13B    9   3.900   5.554   7.128 -0.7398 -0.4682  0.5285
    1SAPS   C11   10   4.168   5.707   7.154  0.0384  0.6549 -0.3743
    1SAPS  H11A   11   4.183   5.735   7.048 -1.9215  2.6188 -0.2169
    1SAPS  H11B   12   4.181   5.598   7.166  0.5730  0.6093 -1.2951
    1SAPS     P   13   4.421   5.754   7.210 -0.1071 -0.3892 -0.4558
    1SAPS   O13   14   4.497   5.872   7.253  0.2088 -0.7062 -0.7130
    1SAPS   O14   15   4.455   5.629   7.283 -0.4000  0.0317  0.1485
    1SAPS   O12   16   4.268   5.774   7.236 -0.3533 -0.0335  0.6538
    1SAPS   O11   17   4.439   5.734   7.051 -0.3639  0.3029 -0.1376
    1SAPS    C1   18   4.452   5.842   6.958 -0.3488 -0.0647  0.3759
    1SAPS    HA   19   4.366   5.910   6.972 -0.8511 -0.8605  1.2877
    1SAPS    HB   20   4.554   5.887   6.963 -0.5582  0.3959  0.5340
    1SAPS    C2   21   4.446   5.787   6.815 -0.8623 -0.3573  0.0806
    1SAPS    HS   22   4.360   5.718   6.824 -0.9448 -0.5418 -1.7236
    1SAPS   O21   23   4.567   5.718   6.772  0.5862 -0.4614 -0.2146
    1SAPS   C21   24   4.546   5.610   6.698  0.6645 -0.3157 -0.6776
    1SAPS   O22   25   4.439   5.550   6.690  0.3594 -0.7798 -0.9410
    1SAPS   C22   26   4.676   5.575   6.627 -0.0134  0.3425 -0.2382
    1SAPS   H2R   27   4.708   5.674   6.586 -0.7435  0.8457  0.3708
    1SAPS   H2S   28   4.748   5.543   6.705  0.3309 -1.5916 -1.2975
    1SAPS    C3   29   4.404   5.896   6.719  0.4226  0.0142  0.5999
    1SAPS    HX   30   4.503   5.937   6.690  1.4119  1.4706  5.1694
    1SAPS    HY   31   4.343   5.982   6.755 -0.6055  0.3307 -1.6994
    1SAPS   O31   32   4.346   5.839   6.600 -0.0855 -0.1600 -0.3476
    1SAPS   C31   33   4.221   5.786   6.613 -0.3036  0.5091 -0.0153
    1SAPS   O32   34   4.153   5.787   6.715 -0.4328 -0.3991  0.2454
    1SAPS   C32   35   4.194   5.705   6.490  0.3844  0.2655  0.2294
    1SAPS   H2X   36   4.270   5.624   6.479 -2.0084 -2.3094  1.4894
    1SAPS   H2Y   37   4.206   5.768   6.399  0.6832  0.7449  0.5928
    1SAPS   C23   38   4.657   5.473   6.519  0.3152 -0.5762 -0.2719
    1SAPS   H3R   39   4.591   5.519   6.443  1.9498 -2.5928 -3.1378
    1SAPS   H3S   40   4.603   5.380   6.547 -1.7635  0.7755  0.4038
    1SAPS   C24   41   4.783   5.439   6.438 -0.4662  0.7087 -0.3637
    1SAPS   H4R   42   4.845   5.531   6.432  0.1905  0.2695 -0.3526
    1SAPS   H4S   43   4.746   5.428   6.333 -1.4597  2.3009 -0.2115
    1SAPS   C25   44   4.859   5.316   6.493 -0.1097  0.0242 -0.4219
    1SAPS   H5R   45   4.872   5.315   6.602  0.6512  1.1928 -0.4838
    1SAPS   C26   46   4.903   5.210   6.420  0.4456  0.3194  0.2914
    1SAPS   H6R   47   4.952   5.129   6.476  0.2576 -1.0496 -1.4263
    1SAPS   C27   48   4.911   5.192   6.274  0.4523 -0.9058  0.3229
    1SAPS   H7R   49   4.840   5.259   6.221  0.2744  0.7048  2.4725
    1SAPS   H7S   50   4.888   5.085   6.252  1.6632 -0.7229 -2.1355
    1SAPS   C28   51   5.056   5.201   6.224 -0.5092 -0.1372 -0.3329
    1SAPS   H8R   52   5.134   5.161   6.291 -1.8766  0.1180  1.4849
    1SAPS   C29   53   5.097   5.239   6.105 -0.0252 -0.3737 -0.1846
    1SAPS   H9R   54   5.206   5.247   6.087 -0.4636  2.1372 -2.2090
    1SAPS  C210   55   5.013   5.263   5.988  0.0538 -0.1267 -0.0101
    1SAPS  H10R   56   4.983   5.370   5.995  0.7945  0.0817  0.0712
    1SAPS  H10S   57   4.926   5.195   5.998 -0.6624  1.0027  2.2084
    1SAPS  C211   58   5.081   5.233   5.857 -0.3176 -0.0786  0.0702
    1SAPS  H11R   59   5.146   5.145   5.861  0.4787  0.4883 -0.2864
    1SAPS  C212   60   5.080   5.313   5.751 -0.3137 -0.9720 -0.3244
    1SAPS  H12R   61   5.130   5.262   5.667  1.9216  0.0846  0.2814
    1SAPS  C213   62   5.026   5.451   5.717  0.2228  0.7117 -0.3434
    1SAPS  H13R   63   4.986   5.504   5.806 -2.2124  0.0657 -0.9789
    1SAPS  H13S   64   4.935   5.438   5.654  0.3027 -1.0301 -0.1348
    1SAPS  C214   65   5.134   5.531   5.647  0.2546 -0.0343 -0.7898
    1SAPS  H14R   66   5.214   5.556   5.718  0.8095 -0.4306 -1.2628
    1SAPS  C215   67   5.140   5.564   5.522 -0.6652 -1.0352  0.1370
    1SAPS  H15R   68   5.232   5.612   5.486 -1.5410  0.4850 -0.1696
    1SAPS  C216   69   5.034   5.536   5.415 -0.4022 -0.0198 -0.1877
    1SAPS  H16R   70   4.946   5.599   5.442  1.0589  0.7914  3.1789
    1SAPS  H16S   71   5.008   5.428   5.411 -2.3179  0.4212 -3.1349
    1SAPS  C217   72   5.084   5.568   5.279  0.3297  0.0886  0.4037
    1SAPS  H17R   73   5.179   5.514   5.261  1.0349  1.2080  0.6500
    1SAPS  H17S   74   5.105   5.677   5.274 -0.2954  0.2055  0.2591
    1SAPS  C218   75   4.987   5.534   5.164  0.6626 -0.3229 -1.0388
    1SAPS  H18R   76   4.889   5.585   5.174 -0.1982 -1.6238 -2.4366
    1SAPS  H18S   77   4.965   5.427   5.184  0.6132 -0.4234 -1.6107
    1SAPS  C219   78   5.050   5.549   5.022  0.3692 -0.2765 -0.2040
    1SAPS  H19R   79   5.027   5.453   4.972 -0.3623 -0.1763 -0.0679
    1SAPS  H19S   80   5.160   5.558   5.020  0.7023 -2.8827  1.4421
    1SAPS  C220   81   4.984   5.649   4.932  0.2853  0.6932  0.0734
    1SAPS  H20R   82   4.990   5.753   4.969 -1.2306  0.9279 -0.2665
    1SAPS  H20S   83   4.879   5.620   4.908  0.1114  1.6906 -0.4021
    1SAPS  H20T   84   5.044   5.656   4.839  0.8680 -2.2851  0.1191
    1SAPS   C33   85   4.054   5.639   6.501 -0.2474 -0.3491 -0.4500
    1SAPS   H3X   86   3.976   5.712   6.533  1.3422  2.1095 -1.8579
    1SAPS   H3Y   87   4.061   5.569   6.586 -0.7482  0.1298 -0.0017
    1SAPS   C34   88   4.006   5.569   6.371 -0.1728  0.7912  0.5804
    1SAPS   H4X   89   4.026   5.632   6.282  0.3623 -2.2486 -1.6246
    1SAPS   H4Y   90   3.895   5.562   6.371 -0.1643 -0.0419 -1.5679
    1SAPS   C35   91   4.072   5.435   6.346  0.7552  0.4593 -0.3876
    1SAPS   H5X   92   4.044   5.370   6.432  1.0286 -2.2767 -2.2527
    1SAPS   H5Y   93   4.182   5.446   6.347  0.9823 -1.4635 -1.2345
    1SAPS   C36   94   4.003   5.363   6.222  0.2275 -0.5587 -0.2580
    1SAPS   H6X   95   3.897   5.393   6.238  0.9228  1.6609  0.6044
    1SAPS   H6Y   96   4.006   5.252   6.224  0.9976 -0.5475  1.1461
    1SAPS   C37   97   4.049   5.424   6.086 -0.0051 -0.8523 -0.1080
    1SAPS   H7X   98   4.050   5.535   6.088 -1.5899 -0.8385  1.6028
    1SAPS   H7Y   99   3.980   5.391   6.005  0.0159 -2.7749  0.6118
    1SAPS   C38  100   4.192   5.370   6.054 -0.2140  0.3802 -0.8204
    1SAPS   H8X  101   4.215   5.275   6.107 -1.7982  0.5335  0.2127
    1SAPS   H8Y  102   4.266   5.447   6.087 -0.6631  0.9868 -1.2266
    1SAPS   C39  103   4.215   5.341   5.910 -0.5525  0.3477 -0.0636
    1SAPS   H9X  104   4.322   5.320   5.887 -1.3744 -1.8578 -2.3814
    1SAPS   H9Y  105   4.197   5.429   5.845 -0.1435 -0.9681 -2.0708
    1SAPS  C310  106   4.144   5.219   5.844  0.4352 -0.3363 -0.5029
    1SAPS  H10X  107   4.039   5.215   5.880  0.0814 -0.7227 -1.5364
    1SAPS  H10Y  108   4.189   5.127   5.886  0.9113  0.3570  0.5431
    1SAPS  C311  109   4.171   5.224   5.696 -0.1498 -0.3774  0.2880
    1SAPS  H11X  110   4.163   5.119   5.660  1.5392 -1.5757  3.0785
    1SAPS  H11Y  111   4.277   5.257   5.686 -0.2452 -0.2620 -0.3948
    1SAPS  C312  112   4.096   5.322   5.623 -0.3538 -0.4987  0.5800
    1SAPS  H12X  113   4.105   5.424   5.665 -0.1949 -0.4380  0.4035
    1SAPS  H12Y  114   3.986   5.306   5.613 -0.2916 -0.8558  0.4322
    1SAPS  C313  115   4.127   5.340   5.470 -0.2444 -0.3544 -0.4739
    1SAPS  H13X  116   4.109   5.244   5.416 -2.3753 -1.6591  2.3224
    1SAPS  H13Y  117   4.234   5.370   5.461  0.0539 -1.6433 -1.5927
    1SAPS  C314  118   4.054   5.443   5.392  0.2314  0.2636  0.2655
    1SAPS  H14X  119   4.118   5.515   5.336 -0.8726  1.3400  0.3251
    1SAPS  H14Y  120   3.988   5.502   5.460 -0.7483  2.5892 -2.4950
    1SAPS  C315  121   3.958   5.385   5.289  0.6101  0.2442  0.2040
    1SAPS  H15X  122   3.880   5.344   5.356  0.8017  0.5323  0.6091
    1SAPS  H15Y  123   4.002   5.300   5.233  0.9841 -0.1363  1.0552
    1SAPS  C316  124   3.901   5.485   5.182  0.5545 -0.7978 -0.1147
    1SAPS  H16X  125   3.983   5.553   5.151 -1.6706  2.8292  1.3821
    1SAPS  H16Y  126   3.821   5.540   5.235  0.6285 -1.4051  0.6534
    1SAPS  C317  127   3.830   5.413   5.074  0.4270 -1.0431 -0.6504
    1SAPS  H17X  128   3.754   5.346   5.121 -0.5224 -1.5533 -2.8053
    1SAPS  H17Y  129   3.903   5.356   5.013  1.4533  1.1898 -1.6098
    1SAPS  C318  130   3.760   5.508   4.981 -0.3238  0.0441 -0.5818
    1SAPS  H18X  131   3.696   5.581   5.035 -2.0100 -0.3242 -1.9619
    1SAPS  H18Y  132   3.692   5.445   4.919 -2.1215  3.5938 -2.6251
    1SAPS  H18Z  133   3.836   5.542   4.907 -0.5897  0.7320 -0.5469
    2SAPS     N  134   6.089   3.030   7.087  0.6160 -0.6969  0.1759
    2SAPS   HN1  135   6.114   2.967   7.166 -0.7899  0.4721  1.6530
    2SAPS   HN2  136   6.077   2.972   7.002 -2.0004  0.3977 -0.3264
    2SAPS   HN3  137   6.168   3.097   7.081  0.1257 -0.2313 -1.4906
    2SAPS   C12  138   5.951   3.093   7.116  0.1021 -0.2952 -1.0991
    2SAPS  H12A  139   5.943   3.174   7.045  0.3069  0.5843 -0.1340
    2SAPS   C13  140   5.830   3.011   7.080  0.5153  0.6970 -0.2024
    2SAPS  O13A  141   5.835   2.912   7.003 -0.2432  0.3075 -0.4716
    2SAPS  O13B  142   5.718   3.061   7.105 -0.1118 -0.1393 -0.1436
    2SAPS   C11  143   5.943   3.138   7.259 -0.1372 -0.1420  0.6639
    2SAPS  H11A  144   5.851   3.200   7.265  0.6297  0.9121  1.9765
    2SAPS  H11B  145   6.025   3.207   7.288  1.0980 -0.5981 -1.5278
    2SAPS     P  146   6.048   2.967   7.432  0.0501  0.0214  0.1962
    2SAPS   O13  147   6.110   3.078   7.508 -0.5961  0.1526 -0.0303
    2SAPS   O14  148   6.000   2.850   7.507 -0.6210  0.0109  0.0166
    2SAPS   O12  149   5.928   3.026   7.351  0.7131  0.4017 -0.2270
    2SAPS   O11  150   6.153   2.932   7.322  0.2351  0.3224  0.4007
    2SAPS    C1  151   6.220   2.800   7.321 -0.5676  0.0270 -0.1028
    2SAPS    HA  152   6.317   2.788   7.374  0.0621 -0.7289 -1.3643
    2SAPS    HB  153   6.154   2.725   7.370 -0.2553 -0.5480 -0.5388
    2SAPS    C2  154   6.237   2.745   7.183  0.4210 -0.0642 -0.5588
    2SAPS    HS  155   6.301   2.654   7.186  1.3548  0.5886 -0.0000
    2SAPS   O21  156   6.289   2.843   7.091 -0.1758  0.0660  0.5921
    2SAPS   C21  157   6.425   2.854   7.090  0.2615 -0.8601 -0.6354
    2SAPS   O22  158   6.502   2.816   7.176 -0.0606 -0.0798  0.4562
    2SAPS   C22  159   6.466   2.944   6.976 -0.3075  0.2296 -0.4644
    2SAPS   H2R  160   6.411   2.907   6.887  0.4701  0.6556 -1.1270
    2SAPS   H2S  161   6.441   3.052   6.991  2.0079  0.7698 -0.2154
    2SAPS    C3  162   6.107   2.679   7.114 -0.6603 -0.3527  0.1932
    2SAPS    HX  163   6.019   2.745   7.112 -3.3498 -3.6800 -0.4953
    2SAPS    HY  164   6.080   2.586   7.169  0.1129  0.6187  2.3493
    2SAPS   O31  165   6.134   2.637   6.980  0.3013  0.2190  0.7025
    2SAPS   C31  166   6.126   2.719   6.880  0.1195  0.1161  0.2337
    2SAPS   O32  167   6.115   2.838   6.880 -0.6800  0.0993  0.4680
    2SAPS   C32  168   6.162   2.644   6.755 -0.2070  0.1872 -0.2187
    2SAPS   H2X  169   6.178   2.539   6.785  1.6127  0.8229  1.1967
    2SAPS   H2Y  170   6.258   2.688   6.721  0.7248  1.3888  3.5497
    2SAPS   C23  171   6.624   2.949   6.956  0.4876 -0.2734  0.4975
    2SAPS   H3R  172   6.666   2.847   6.945 -0.0961 -0.4197 -0.5351
    2SAPS   H3S  173   6.679   2.994   7.041  0.4825  0.6380  0.0295
    2SAPS   C24  174   6.646   3.023   6.816  0.5326  0.3299  0.9185
    2SAPS   H4R  175   6.649   3.133   6.830  0.6381  0.4485  0.0273
    2SAPS   H4S  176   6.562   3.000   6.747  0.4686  1.9374  0.4242
    2SAPS   C25  177   6.780   2.977   6.762 -0.5492 -0.6139 -0.0217
    2SAPS   H5R  178   6.862   3.043   6.791 -1.7362  0.6343  0.6194
    2SAPS   C26  179   6.788   2.863   6.685 -0.2658 -0.1154 -0.0345
    2SAPS   H6R  180   6.890   2.838   6.653  0.0741  1.5013 -0.2870
    2SAPS   C27  181   6.684   2.760   6.642  0.0003 -0.4776  0.3590
    2SAPS   H7R  182   6.592   2.817   6.617  1.4030  2.8352  2.0767
    2SAPS   H7S  183   6.636   2.701   6.723  2.0778 -2.9062 -0.0563
    2SAPS   C28  184   6.744   2.666   6.533 -0.0080  0.3578 -0.0835
    2SAPS   H8R  185   6.848   2.633   6.544  0.3232  0.9587 -1.2197
    2SAPS   C29  186   6.670   2.612   6.429  0.1527 -0.3588 -0.0655
    2SAPS   H9R  187   6.713   2.536   6.362  1.0536 -0.8957  1.0978
    2SAPS  C210  188   6.526   2.653   6.402 -0.6091 -0.0512  0.2319
    2SAPS  H10R  189   6.477   2.661   6.501 -2.9004  1.0722 -0.8945
    2SAPS  H10S  190   6.484   2.566   6.347  1.5779 -0.4954 -0.8048
    2SAPS  C211  191   6.494   2.786   6.336  0.0011  0.1411  0.2264
    2SAPS  H11R  192   6.521   2.867   6.405  1.8282  1.1804 -1.6124
    2SAPS  C212  193   6.464   2.813   6.213 -0.9615 -0.6041 -0.1485
    2SAPS  H12R  194   6.439   2.919   6.197 -0.0766 -0.4060 -0.2717
    2SAPS  C213  195   6.450   2.725   6.097  0.2433  0.0572 -0.4383
    2SAPS  H13R  196   6.370   2.772   6.036 -0.6231  1.4821  1.6499
    2SAPS  H13S  197   6.405   2.625   6.115  1.6611 -0.6460 -0.6136
    2SAPS  C214  198   6.594   2.722   6.034  0.4380 -0.0592  0.5363
    2SAPS  H14R  199   6.676   2.701   6.105  0.3870 -0.0063  0.6119
    2SAPS  C215  200   6.621   2.754   5.904  0.0474 -0.6526  0.1079
    2SAPS  H15R  201   6.727   2.739   5.879 -0.0949 -2.2277  0.3773
    2SAPS  C216  202   6.520   2.774   5.791  0.1115 -0.2828  0.1195
    2SAPS  H16R  203   6.547   2.862   5.728 -1.8957  1.9623  2.1614
    2SAPS  H16S  204   6.418   2.796   5.832  0.2256 -0.2487  0.3924
    2SAPS  C217  205   6.527   2.651   5.698  0.0657  0.6071 -0.1789
    2SAPS  H17R  206   6.485   2.556   5.737  0.3164  0.3340 -0.5713
    2SAPS  H17S  207   6.627   2.633   5.653 -0.1078  2.3925 -1.4005
    2SAPS  C218  208   6.445   2.689   5.576  0.0730 -0.3033 -0.3609
    2SAPS  H18R  209   6.477   2.794   5.558  3.3272 -1.2637 -0.8741
    2SAPS  H18S  210   6.339   2.671   5.603  0.5892 -1.0965  1.2508
    2SAPS  C219  211   6.463   2.596   5.452 -0.1046  0.0404 -1.0935
    2SAPS  H19R  212   6.389   2.637   5.381 -0.5602  0.1541 -0.5623
    2SAPS  H19S  213   6.438   2.488   5.467 -1.1904  0.4071 -0.1272
    2SAPS  C220  214   6.602   2.602   5.384 -0.8163  0.7065 -0.4628
    2SAPS  H20R  215   6.597   2.550   5.286  0.8489 -1.8821  0.7124
    2SAPS  H20S  216   6.680   2.551   5.445 -1.6990  0.2371  0.2931
    2SAPS  H20T  217   6.631   2.704   5.353  0.6481  0.0396 -1.3956
    2SAPS   C33  218   6.073   2.667   6.633  0.4845 -0.4278 -0.8200
    2SAPS   H3X  219   6.099   2.768   6.594  2.1432 -0.4839  0.0583
    2SAPS   H3Y  220   5.964   2.668   6.654  0.6818 -0.5938  0.2433
    2SAPS   C34  221   6.101   2.583   6.515  0.0565  0.0693 -0.3161
    2SAPS   H4X  222   6.070   2.476   6.515 -2.0413  0.5888  2.0219
    2SAPS   H4Y  223   6.210   2.567   6.509 -0.0713 -1.9678  1.4660
    2SAPS   C35  224   6.045   2.641   6.385  0.1539 -0.7899 -1.0154
    2SAPS   H5X  225   6.066   2.750   6.374  2.2307 -1.0827 -0.4663
    2SAPS   H5Y  226   5.936   2.622   6.381  0.1799 -0.8171 -1.7944
    2SAPS   C36  227   6.110   2.573   6.264  0.1805  0.0396  0.1662
    2SAPS   H6X  228   6.086   2.465   6.268  0.1148 -0.0354 -1.4170
    2SAPS   H6Y  229   6.221   2.581   6.271  0.1005 -0.2602  4.3815
    2SAPS   C37  230   6.054   2.628   6.130 -0.6451 -0.4111  0.0088
    2SAPS   H7X  231   6.085   2.734   6.121 -3.4105  0.4433 -0.4958
    2SAPS   H7Y  232   5.943   2.629   6.131 -0.6390  0.2288  1.0154
    2SAPS   C38  233   6.098   2.547   6.008 -0.2710 -0.5430 -0.3037
    2SAPS   H8X  234   6.090   2.437   6.026 -0.9548 -0.7338 -1.6138
    2SAPS   H8Y  235   6.205   2.573   5.996 -0.9736  2.6753 -0.3503
    2SAPS   C39  236   6.026   2.590   5.875 -0.1893  0.1687 -0.3700
    2SAPS   H9X  237   6.049   2.697   5.854 -2.7124  1.1581  1.4812
    2SAPS   H9Y  238   5.916   2.581   5.882 -0.2929  1.3352 -0.2415
    2SAPS  C310  239   6.083   2.504   5.754  0.0116 -1.3186 -0.1595
    2SAPS  H10X  240   6.074   2.396   5.776 -0.1212 -1.0531  1.1620
    2SAPS  H10Y  241   6.192   2.520   5.762  0.1966 -2.3073 -0.5670
    2SAPS  C311  242   6.030   2.547   5.615 -0.1330 -0.8910  0.0208
    2SAPS  H11X  243   6.048   2.656   5.600 -0.5119 -0.7345  0.6707
    2SAPS  H11Y  244   5.923   2.519   5.603 -0.5681  1.6371 -3.6491
    2SAPS  C312  245   6.095   2.474   5.503  0.0273 -0.3156  0.0057
    2SAPS  H12X  246   6.113   2.369   5.532 -1.1711 -0.6536 -0.4106
    2SAPS  H12Y  247   6.193   2.521   5.479  0.1145  1.4699  3.2189
    2SAPS  C313  248   6.000   2.469   5.381  0.0807 -0.1269  0.4474
    2SAPS  H13X  249   5.990   2.578   5.364 -0.5292 -0.5724 -2.6753
    2SAPS  H13Y  250   5.902   2.423   5.406  0.6210 -2.4664 -1.3819
    2SAPS  C314  251   6.062   2.406   5.256 -0.0590  0.8798  0.1339
    2SAPS  H14X  252   5.982   2.399   5.180 -0.4370  0.7176  0.5421
    2SAPS  H14Y  253   6.084   2.302   5.288  1.5931 -0.2993 -4.2274
    2SAPS  C315  254   6.191   2.473   5.208  0.4567  0.9894  0.5286
    2SAPS  H15X  255   6.271   2.477   5.284  0.7509  0.2365  0.2666
    2SAPS  H15Y  256   6.162   2.574   5.174 -2.0056  0.8689  2.0099
    2SAPS  C316  257   6.269   2.402   5.093 -0.6911 -0.1873  1.3033
    2SAPS  H16X  258   6.204   2.414   5.004 -0.5732 -2.5257  0.8497
    2SAPS  H16Y  259   6.265   2.291   5.100  0.0138 -0.4681 -1.5536
    2SAPS  C317  260   6.410   2.449   5.058 -0.0438  0.8095 -0.5293
    2SAPS  H17X  261   6.440   2.397   4.965 -2.0433 -0.1929 -0.6523
    2SAPS  H17Y  262   6.473   2.408   5.140 -1.4821 -1.4372 -0.4577
    2SAPS  C318  263   6.434   2.600   5.028  0.1832  0.6997  0.1953
    2SAPS  H18X  264   6.364   2.634   4.948  0.0808 -0.1918 -0.1040
    2SAPS  H18Y  265   6.536   2.622   4.991 -0.1426 -0.0335 -1.2082
    2SAPS  H18Z  266   6.410   2.666   5.114  0.8251 -0.0401  0.9429
    3SAPS     N  267   6.314   0.934   7.061  0.5292  0.1340 -0.0355
    3SAPS   HN1  268   6.272   1.027   7.085  1.6407  0.3083  1.3408
    3SAPS   HN2  269   6.375   0.953   6.978  1.8595 -0.4971  0.7777
    3SAPS   HN3  270   6.238   0.870   7.031  1.2883 -0.5494 -0.5642
    3SAPS   C12  271   6.388   0.889   7.179  0.3122 -0.1039 -0.9378
    3SAPS  H12A  272   6.449   0.806   7.146 -2.6265 -3.4473  1.3171
    3SAPS   C13  273   6.476   0.997   7.245  0.8971 -0.4769 -0.0709
    3SAPS  O13A  274   6.480   1.111   7.187  0.3094  0.2382 -0.1706
    3SAPS  O13B  275   6.548   0.975   7.341 -0.0827  0.3454 -0.1150
    3SAPS   C11  276   6.289   0.839   7.298  0.7785  0.6824 -0.5616
    3SAPS  H11A  277   6.250   0.931   7.347  1.6931  1.0414 -0.4896
    3SAPS  H11B  278   6.334   0.781   7.382  1.2216  2.8202  0.7580
    3SAPS     P  279   6.035   0.759   7.279  0.2853  0.0760 -0.2550
    3SAPS   O13  280   6.032   0.677   7.400  0.0987 -0.1961 -0.1968
    3SAPS   O14  281   5.972   0.897   7.268 -0.2940 -0.1455 -0.3563
    3SAPS   O12  282   6.184   0.766   7.234  0.0007 -0.0471  0.1730
    3SAPS   O11  283   5.976   0.667   7.166  0.0369  0.0908  0.3099
    3SAPS    C1  284   6.040   0.548   7.123 -0.1225  0.8848  0.5533
    3SAPS    HA  285   6.116   0.513   7.196 -1.8828 -4.6496  0.1914
    3SAPS    HB  286   5.958   0.474   7.112 -0.6263  1.1101  2.5822
    3SAPS    C2  287   6.117   0.562   6.987 -0.1314  0.0722 -0.0637
    3SAPS    HS  288   6.212   0.620   6.986  0.5330 -0.8999 -2.4745
    3SAPS   O21  289   6.021   0.621   6.894 -0.1641 -0.3902  0.5456
    3SAPS   C21  290   6.015   0.754   6.886  0.2507  0.6924 -0.2962
    3SAPS   O22  291   6.088   0.824   6.957  0.2005 -0.5468 -0.0998
    3SAPS   C22  292   5.915   0.805   6.780 -0.9306 -0.0386  0.6155
    3SAPS   H2R  293   5.925   0.734   6.694  2.0277  2.7505 -1.5772
    3SAPS   H2S  294   5.814   0.827   6.819 -1.4744  1.0900 -1.3425
    3SAPS    C3  295   6.154   0.418   6.946  0.1531 -0.2083 -0.6060
    3SAPS    HX  296   6.053   0.373   6.951  0.3869 -0.6985 -0.2143
    3SAPS    HY  297   6.223   0.369   7.017  0.6453  3.1846  1.4831
    3SAPS   O31  298   6.211   0.418   6.816  0.0515 -0.4213 -0.5500
    3SAPS   C31  299   6.171   0.325   6.731 -0.8166 -0.0149 -0.1986
    3SAPS   O32  300   6.090   0.236   6.749  0.9296  0.7510  1.2205
    3SAPS   C32  301   6.263   0.345   6.613  0.7690 -0.3445 -0.0390
    3SAPS   H2X  302   6.334   0.260   6.601  0.5020 -0.5050 -0.5419
    3SAPS   H2Y  303   6.312   0.444   6.618 -0.3701  0.2100  0.7835
    3SAPS   C23  304   5.962   0.929   6.696  0.8124  0.2447  0.0996
    3SAPS   H3R  305   6.046   0.906   6.627  4.0822  4.5285  2.1270
    3SAPS   H3S  306   5.992   1.013   6.762  1.0400  0.0214  0.2849
    3SAPS   C24  307   5.838   0.979   6.620 -0.6462  0.2442  0.4324
    3SAPS   H4R  308   5.797   0.892   6.565  2.5361 -0.3311 -1.2849
    3SAPS   H4S  309   5.870   1.051   6.542 -1.9005  1.2383  0.8010
    3SAPS   C25  310   5.737   1.053   6.710 -0.1348  0.7421 -0.3511
    3SAPS   H5R  311   5.782   1.137   6.765  2.9294 -0.3805 -0.9504
    3SAPS   C26  312   5.606   1.042   6.716 -0.2005  0.3800 -0.0371
    3SAPS   H6R  313   5.552   1.105   6.789 -1.8612 -2.6685  1.5412
    3SAPS   C27  314   5.513   0.949   6.638  0.7117  0.5428  0.2830
    3SAPS   H7R  315   5.468   0.880   6.712  0.6156 -1.2431 -1.3565
    3SAPS   H7S  316   5.577   0.882   6.576 -0.5711  0.1577 -0.6464
    3SAPS   C28  317   5.397   1.010   6.571  0.0869 -0.4210  0.1447
    3SAPS   H8R  318   5.318   1.038   6.642  0.7109 -0.8976  1.0540
    3SAPS   C29  319   5.391   1.030   6.438 -0.2522  0.7918  0.6250
    3SAPS   H9R  320   5.302   1.079   6.396  0.5486  2.2080  0.5354
    3SAPS  C210  321   5.495   0.992   6.328 -0.2171 -0.4654  0.2284
    3SAPS  H10R  322   5.439   0.944   6.245  0.8773 -0.7198 -0.3869
    3SAPS  H10S  323   5.556   0.904   6.357 -0.4146 -0.4640  0.6589
    3SAPS  C211  324   5.573   1.109   6.281 -0.2962  0.1683  0.8816
    3SAPS  H11R  325   5.621   1.176   6.354  0.5674 -1.2836  1.6814
    3SAPS  C212  326   5.605   1.142   6.148 -0.7568  0.7804 -0.1235
    3SAPS  H12R  327   5.661   1.235   6.131  0.9970 -0.0091  0.9742
    3SAPS  C213  328   5.574   1.059   6.028 -0.0155 -0.3823  0.3733
    3SAPS  H13R  329   5.584   0.951   6.051 -0.0864 -0.6422 -0.7666
    3SAPS  H13S  330   5.652   1.073   5.951 -1.5344  1.4393 -0.9251
    3SAPS  C214  331   5.437   1.078   5.964  0.3700  0.3615  0.1120
    3SAPS  H14R  332   5.351   1.112   6.023 -0.2281 -0.2743 -0.3645
    3SAPS  C215  333   5.409   1.052   5.834  0.4736  0.4314  0.5708
    3SAPS  H15R  334   5.308   1.079   5.800  0.7816  1.4793  0.4482
    3SAPS  C216  335   5.499   1.001   5.723 -0.3610 -0.0879 -0.0863
    3SAPS  H16R  336   5.461   0.906   5.680  0.9667 -0.6521 -0.0773
    3SAPS  H16S  337   5.597   0.979   5.770 -0.0678 -0.9831 -1.0843
    3SAPS  C217  338   5.512   1.108   5.605 -0.5128  0.4294 -0.7345
    3SAPS  H17R  339   5.601   1.085   5.544  1.8784 -1.3848  3.0204
    3SAPS  H17S  340   5.525   1.212   5.641  0.8116  0.3443 -0.9309
    3SAPS  C218  341   5.382   1.099   5.520 -0.0050 -0.4172 -0.5825
    3SAPS  H18R  342   5.294   1.127   5.581  2.1137 -1.6282  3.4393
    3SAPS  H18S  343   5.383   0.991   5.495 -0.1083 -0.6860  0.5090
    3SAPS  C219  344   5.374   1.183   5.398  0.2415 -0.4492  0.3130
    3SAPS  H19R  345   5.479   1.199   5.364  0.0810  2.8498  1.0896
    3SAPS  H19S  346   5.319   1.122   5.323  1.8604 -1.2153 -0.3048
    3SAPS  C220  347   5.308   1.320   5.405  0.5658 -0.2165 -0.0340
    3SAPS  H20R  348   5.361   1.370   5.489 -0.0229  0.5144 -0.0974
    3SAPS  H20S  349   5.201   1.308   5.433  0.7313  2.2974  2.0598
    3SAPS  H20T  350   5.334   1.375   5.312  2.0348  0.2726  0.6295
    3SAPS   C33  351   6.173   0.365   6.486 -0.7806  0.3428 -0.4889
    3SAPS   H3X  352   6.106   0.453   6.484 -1.1200  0.0971 -0.1740
    3SAPS   H3Y  353   6.098   0.283   6.495  1.7491 -1.9235  2.2069
    3SAPS   C34  354   6.243   0.336   6.350  1.0849 -0.2469  0.1004
    3SAPS   H4X  355   6.307   0.246   6.367 -1.1538 -1.8677  0.2847
    3SAPS   H4Y  356   6.310   0.420   6.321  2.3075 -1.1945  0.0626
    3SAPS   C35  357   6.142   0.318   6.231 -0.3606  0.0914  0.5282
    3SAPS   H5X  358   6.094   0.218   6.240  1.5513 -0.9834 -0.4724
    3SAPS   H5Y  359   6.078   0.408   6.234 -2.3309 -1.2198 -0.0186
    3SAPS   C36  360   6.216   0.313   6.093 -0.3666  0.2981 -0.3782
    3SAPS   H6X  361   6.263   0.213   6.077  0.9847  0.8032  0.2602
    3SAPS   H6Y  362   6.300   0.385   6.082  2.6114 -2.7950  0.2933
    3SAPS   C37  363   6.117   0.323   5.977  0.0970  0.1528 -0.0492
    3SAPS   H7X  364   6.065   0.418   5.997  1.0226  1.0536 -1.7343
    3SAPS   H7Y  365   6.054   0.232   5.978  0.1592 -0.0338 -3.1516
    3SAPS   C38  366   6.190   0.331   5.848  0.0894 -0.6054 -0.4457
    3SAPS   H8X  367   6.260   0.245   5.853  0.9801  0.1605  0.5101
    3SAPS   H8Y  368   6.247   0.426   5.852 -0.6264 -0.2220  1.3902
    3SAPS   C39  369   6.111   0.319   5.715 -0.8681 -0.3193  0.0312
    3SAPS   H9X  370   6.052   0.413   5.716  0.8622  0.8028 -0.0207
    3SAPS   H9Y  371   6.044   0.231   5.725 -1.0479 -0.3327 -1.1345
    3SAPS  C310  372   6.205   0.304   5.593 -0.0430  0.3872  0.1890
    3SAPS  H10X  373   6.263   0.210   5.607 -1.3907 -0.4608  0.2282
    3SAPS  H10Y  374   6.274   0.390   5.611 -1.0310  1.0151  1.0895
    3SAPS  C311  375   6.132   0.293   5.460 -0.9604 -0.5815 -0.5406
    3SAPS  H11X  376   6.061   0.378   5.464 -0.4958 -0.2323  1.1109
    3SAPS  H11Y  377   6.077   0.197   5.460  0.5507 -1.4909 -1.6797
    3SAPS  C312  378   6.224   0.294   5.339  0.1310  0.0508  0.4929
    3SAPS  H12X  379   6.300   0.214   5.355  2.8248  2.7129  2.1550
    3SAPS  H12Y  380   6.286   0.386   5.333 -1.1304  0.8989  0.2281
    3SAPS  C313  381   6.135   0.280   5.215 -0.2315  0.8821 -0.3235
    3SAPS  H13X  382   6.047   0.342   5.245 -0.3745 -0.0348  1.2674
    3SAPS  H13Y  383   6.097   0.175   5.208  1.5118  0.2933 -1.6050
    3SAPS  C314  384   6.207   0.312   5.082 -0.5640 -0.3611 -0.4054
    3SAPS  H14X  385   6.304   0.261   5.067  0.7628  2.0657 -0.4696
    3SAPS  H14Y  386   6.227   0.421   5.078  1.8799 -0.7581 -0.5304
    3SAPS  C315  387   6.111   0.285   4.974 -0.1412 -0.6556  0.4826
    3SAPS  H15X  388   6.025   0.352   4.993  1.3279  1.1283  1.2366
    3SAPS  H15Y  389   6.075   0.180   4.978  1.7070 -1.3066  2.8765
    3SAPS  C316  390   6.168   0.311   4.829 -0.1509 -0.1788  0.2444
    3SAPS  H16X  391   6.086   0.283   4.760 -0.2492  1.6467 -0.4331
    3SAPS  H16Y  392   6.245   0.236   4.799  0.0685  0.8910 -2.1058
    3SAPS  C317  393   6.194   0.457   4.799 -1.0427  0.7295  0.2214
    3SAPS  H17X  394   6.297   0.475   4.838 -0.7717 -0.8926  0.3270
    3SAPS  H17Y  395   6.121   0.523   4.851 -0.1892  0.4348  1.8874
    3SAPS  C318  396   6.190   0.485   4.650  0.8259  0.2063  0.3282
    3SAPS  H18X  397   6.083   0.495   4.624  0.2669 -2.0723  1.4535
    3SAPS  H18Y  398   6.231   0.404   4.585  1.5030  0.0522  0.9368
    3SAPS  H18Z  399   6.244   0.577   4.620  1.5920 -0.3076  0.0887
    4SAPS     N  400   3.291   3.838   7.168  0.3802 -0.8034  0.5258
    4SAPS   HN1  401   3.207   3.813   7.113 -0.0804 -0.8712  1.2491
    4SAPS   HN2  402   3.361   3.772   7.127  2.2986  0.3211  1.8134
    4SAPS   HN3  403   3.284   3.807   7.267  0.8548  0.6951  1.0563
    4SAPS   C12  404   3.337   3.977   7.151  0.5386  0.1187  0.7583
    4SAPS  H12A  405   3.353   3.994   7.045  0.6231  1.3305  0.9523
    4SAPS   C13  406   3.230   4.071   7.222  0.1643 -0.0276  0.2454
    4SAPS  O13A  407   3.141   4.027   7.299 -0.1163 -0.0575 -0.1663
    4SAPS  O13B  408   3.249   4.192   7.204 -0.0660 -0.5683  0.1164
    4SAPS   C11  409   3.476   3.996   7.220  0.6207  0.6058  0.2060
    4SAPS  H11A  410   3.461   3.961   7.325 -1.0717 -1.8576 -0.7561
    4SAPS  H11B  411   3.509   4.101   7.230  2.0562  0.0696  1.5672
    4SAPS     P  412   3.701   3.877   7.251 -0.3209 -0.4319 -0.0816
    4SAPS   O13  413   3.696   3.959   7.375  0.3516 -0.1605  0.1703
    4SAPS   O14  414   3.725   3.734   7.273 -0.3543 -0.6681 -0.4295
    4SAPS   O12  415   3.569   3.908   7.161 -0.2733 -0.6123 -0.3503
    4SAPS   O11  416   3.822   3.937   7.169  0.0883 -0.0336 -0.3036
    4SAPS    C1  417   3.818   4.054   7.088 -0.2211  0.1739 -0.6063
    4SAPS    HA  418   3.713   4.090   7.078 -0.7294 -0.6073  1.4463
    4SAPS    HB  419   3.880   4.126   7.145 -0.4868 -1.1623  1.4749
    4SAPS    C2  420   3.860   4.024   6.938  0.3006 -0.4511  0.3818
    4SAPS    HS  421   3.866   4.125   6.891  1.0438  0.0275  1.4668
    4SAPS   O21  422   3.778   3.928   6.874  0.2109 -0.3819  0.1719
    4SAPS   C21  423   3.651   3.981   6.842 -0.2305  0.3769 -0.6600
    4SAPS   O22  424   3.623   4.095   6.855 -0.0891  0.0024  0.1532
    4SAPS   C22  425   3.553   3.875   6.806 -0.1449  0.1317  0.2798
    4SAPS   H2R  426   3.559   3.796   6.883 -2.5162 -0.6409 -0.2379
    4SAPS   H2S  427   3.445   3.904   6.806 -0.0590  0.6793  2.5691
    4SAPS    C3  428   4.005   3.965   6.936  0.5376  0.1315  0.5217
    4SAPS    HX  429   4.006   3.870   6.994  0.1110  0.3065  0.8217
    4SAPS    HY  430   4.079   4.024   6.994  1.3847 -1.8819  1.6070
    4SAPS   O31  431   4.054   3.959   6.798 -0.4856 -0.0476 -0.6429
    4SAPS   C31  432   4.064   3.840   6.744  0.0136  0.2027  0.3222
    4SAPS   O32  433   4.032   3.737   6.793  0.6037  0.4521 -0.0731
    4SAPS   C32  434   4.123   3.850   6.607 -0.2713  0.1026 -0.4966
    4SAPS   H2X  435   4.190   3.764   6.586  1.2683  0.3921  2.6535
    4SAPS   H2Y  436   4.188   3.939   6.623  0.5907 -0.6695  0.4537
    4SAPS   C23  437   3.589   3.809   6.671  0.1254 -0.2651 -0.6750
    4SAPS   H3R  438   3.539   3.710   6.675 -0.7178  0.1733 -0.0166
    4SAPS   H3S  439   3.698   3.788   6.665  0.8829  2.4474  1.4727
    4SAPS   C24  440   3.568   3.917   6.556  0.8104  0.0562  0.8626
    4SAPS   H4R  441   3.583   3.872   6.456  0.4892 -1.2170  1.3784
    4SAPS   H4S  442   3.655   3.985   6.570  2.0048 -1.3422  0.4615
    4SAPS   C25  443   3.443   3.998   6.541  0.8764 -0.1778  0.3193
    4SAPS   H5R  444   3.355   3.950   6.586  0.9992  0.7863  1.6560
    4SAPS   C26  445   3.432   4.114   6.470 -0.1967 -0.0519 -0.0445
    4SAPS   H6R  446   3.337   4.159   6.439 -0.0234  0.0306 -0.4656
    4SAPS   C27  447   3.540   4.174   6.390  0.2274  0.2105  0.1036
    4SAPS   H7R  448   3.636   4.119   6.398 -1.5463 -2.8388  4.4835
    4SAPS   H7S  449   3.566   4.277   6.425 -2.0891  1.7524 -2.3069
    4SAPS   C28  450   3.516   4.172   6.241  0.0374  0.3399  0.3550
    4SAPS   H8R  451   3.443   4.095   6.210  0.5072 -1.0730  2.5928
    4SAPS   C29  452   3.574   4.253   6.150  0.0880  0.8115 -0.0783
    4SAPS   H9R  453   3.554   4.247   6.041 -0.5103 -0.5659  0.0868
    4SAPS  C210  454   3.675   4.359   6.189 -0.0141  0.2770  0.0974
    4SAPS  H10R  455   3.771   4.345   6.135 -0.0334 -0.0884  0.1504
    4SAPS  H10S  456   3.712   4.354   6.294  0.8433  1.3907 -0.1352
    4SAPS  C211  457   3.607   4.495   6.179 -0.2866 -0.6157 -1.2123
    4SAPS  H11R  458   3.547   4.520   6.268 -1.2464 -0.4295 -1.9021
    4SAPS  C212  459   3.610   4.579   6.072  0.8627  0.7723 -0.9892
    4SAPS  H12R  460   3.546   4.668   6.081 -1.0027 -0.7176  3.7733
    4SAPS  C213  461   3.687   4.549   5.948  0.1437 -0.0617  0.4477
    4SAPS  H13R  462   3.635   4.467   5.894  0.2416  1.0840 -1.4631
    4SAPS  H13S  463   3.790   4.514   5.973  0.0510 -0.1156  0.7482
    4SAPS  C214  464   3.700   4.677   5.870  0.7398 -0.8107  0.2555
    4SAPS  H14R  465   3.790   4.739   5.886 -0.5193  1.3915 -0.6901
    4SAPS  C215  466   3.619   4.720   5.768 -1.2990 -0.3602  0.6824
    4SAPS  H15R  467   3.643   4.814   5.717 -0.3133 -1.6515 -1.3916
    4SAPS  C216  468   3.498   4.653   5.703 -0.1713 -0.0889  0.6404
    4SAPS  H16R  469   3.445   4.730   5.643 -0.5217 -0.3189  0.6568
    4SAPS  H16S  470   3.432   4.608   5.780  0.7402  1.2398  2.2528
    4SAPS  C217  471   3.552   4.536   5.618  0.2845 -0.6015 -0.1912
    4SAPS  H17R  472   3.597   4.458   5.684  1.3817 -0.2222 -0.4706
    4SAPS  H17S  473   3.631   4.579   5.553 -0.7322  0.3148 -0.8432
    4SAPS  C218  474   3.442   4.473   5.539 -0.3685  0.2813  0.0148
    4SAPS  H18R  475   3.352   4.453   5.601 -0.5177 -0.7964 -0.5242
    4SAPS  H18S  476   3.475   4.369   5.516 -0.6750  0.4259 -1.1741
    4SAPS  C219  477   3.380   4.546   5.413  0.3955  0.4619 -0.3042
    4SAPS  H19R  478   3.346   4.643   5.455  1.0356 -0.7726  3.5372
    4SAPS  H19S  479   3.289   4.495   5.376 -0.6863 -0.4479  3.2096
    4SAPS  C220  480   3.469   4.573   5.293 -0.2864  0.0498  0.5851
    4SAPS  H20R  481   3.540   4.657   5.308  1.5747 -1.3415 -0.0540
    4SAPS  H20S  482   3.408   4.601   5.205  0.4327  0.6192  0.2576
    4SAPS  H20T  483   3.531   4.485   5.265 -0.0927 -0.0074  1.1643
    4SAPS   C33  484   4.025   3.861   6.485 -0.4071 -0.7554  0.0791
    4SAPS   H3X  485   3.949   3.936   6.515 -1.2409 -1.1621 -0.9388
    4SAPS   H3Y  486   3.974   3.763   6.474  1.4334 -1.7730  0.0245
    4SAPS   C34  487   4.101   3.921   6.362  0.4283 -0.5213 -0.3435
    4SAPS   H4X  488   4.177   3.849   6.326  1.3729  0.8995 -1.2779
    4SAPS   H4Y  489   4.152   4.014   6.394  1.0451 -0.2916 -1.9218
    4SAPS   C35  490   4.001   3.958   6.253 -0.1464  0.0935  0.1994
    4SAPS   H5X  491   3.923   4.021   6.301 -1.4385 -0.3659 -1.1983
    4SAPS   H5Y  492   3.947   3.872   6.208  0.3991 -0.3167  0.3253
    4SAPS   C36  493   4.071   4.028   6.132 -0.2098 -0.4851  0.2235
    4SAPS   H6X  494   4.154   3.962   6.098  2.2972  2.5689 -0.0979
    4SAPS   H6Y  495   4.121   4.121   6.166  1.3791 -0.4785 -1.8552
    4SAPS   C37  496   3.964   4.058   6.024  0.6743  0.7464 -0.4175
    4SAPS   H7X  497   3.877   4.112   6.067 -0.0764 -0.0902 -0.8605
    4SAPS   H7Y  498   3.923   3.960   5.992  1.7133  0.0659  0.2811
    4SAPS   C38  499   4.017   4.142   5.905  0.6659  0.3285 -0.1615
    4SAPS   H8X  500   4.067   4.081   5.827 -0.3328 -1.1325  0.2890
    4SAPS   H8Y  501   4.096   4.214   5.934  1.0894 -0.3175  0.3405
    4SAPS   C39  502   3.903   4.218   5.828 -0.7296  0.3401  0.1884
    4SAPS   H9X  503   3.867   4.308   5.882 -1.9068  0.9263 -1.4979
    4SAPS   H9Y  504   3.807   4.161   5.824 -1.7406  1.8736  1.3487
    4SAPS  C310  505   3.934   4.265   5.688  0.3265 -0.3221  0.5374
    4SAPS  H10X  506   4.031   4.318   5.679 -1.4218  3.1412  0.2782
    4SAPS  H10Y  507   3.862   4.348   5.671 -0.3846 -0.5608  2.2459
    4SAPS  C311  508   3.946   4.161   5.580 -1.0718 -0.8650 -0.0077
    4SAPS  H11X  509   3.863   4.087   5.583  0.2903 -2.4468  0.8205
    4SAPS  H11Y  510   4.038   4.104   5.607  0.2016  0.8830 -0.4768
    4SAPS  C312  511   3.975   4.235   5.443  0.3693  0.3526  0.1251
    4SAPS  H12X  512   4.068   4.293   5.458  0.5835 -0.0967  0.5710
    4SAPS  H12Y  513   3.886   4.301   5.435 -0.0953 -0.2622  0.1051
    4SAPS  C313  514   3.972   4.134   5.324  0.0516  0.3453  0.0133
    4SAPS  H13X  515   3.890   4.060   5.337  1.6898 -1.5569 -0.1127
    4SAPS  H13Y  516   4.067   4.080   5.341 -0.5277 -0.7630 -0.1141
    4SAPS  C314  517   3.960   4.201   5.185 -0.4679  0.3329 -0.2068
    4SAPS  H14X  518   4.050   4.265   5.171  0.7408 -1.6223 -1.9900
    4SAPS  H14Y  519   3.870   4.267   5.191 -0.1491  0.8504 -0.9282
    4SAPS  C315  520   3.955   4.089   5.078  0.0072  0.7143 -0.3845
    4SAPS  H15X  521   3.883   4.013   5.114  0.0341  1.7160  1.9489
    4SAPS  H15Y  522   4.060   4.063   5.050  0.2251  3.7795 -2.9417
    4SAPS  C316  523   3.894   4.137   4.943 -0.8407  1.0993  0.0961
    4SAPS  H16X  524   3.959   4.218   4.902 -0.6447 -0.0747 -2.0886
    4SAPS  H16Y  525   3.791   4.178   4.957 -1.7237 -1.2720  1.0647
    4SAPS  C317  526   3.880   4.030   4.831  0.3873  0.6089  0.0526
    4SAPS  H17X  527   3.977   3.986   4.799  0.5864  0.1993  1.1837
    4SAPS  H17Y  528   3.832   4.068   4.738 -2.3318  0.7141  1.4101
    4SAPS  C318  529   3.785   3.914   4.857 -0.5330 -0.6858 -0.1794
    4SAPS  H18X  530   3.731   3.890   4.762  1.4593  0.3853 -1.6528
    4SAPS  H18Y  531   3.706   3.958   4.922 -1.0476 -0.5654 -0.8638
    4SAPS  H18Z  532   3.829   3.823   4.901  0.9720 -0.1686 -0.5706
    5SAPS     N  533   4.727   6.643   7.600 -0.1927 -0.5435 -0.1009
    5SAPS   HN1  534   4.714   6.725   7.662 -0.3819  0.1686 -1.0472
    5SAPS   HN2  535   4.794   6.579   7.647 -0.3771 -0.4914  0.2365
    5SAPS   HN3  536   4.777   6.680   7.517 -2.3255 -0.9477 -1.6522
    5SAPS   C12  537   4.592   6.572   7.564 -0.3052 -0.0607 -0.1949
    5SAPS  H12A  538   4.588   6.491   7.635 -1.1488  1.0956  1.1277
    5SAPS   C13  539   4.465   6.664   7.560 -0.7532 -0.4947 -0.1855
    5SAPS  O13A  540   4.477   6.791   7.577 -0.3929  0.3332 -0.0850
    5SAPS  O13B  541   4.357   6.602   7.572 -0.6703 -0.2226  0.2327
    5SAPS   C11  542   4.605   6.524   7.422  0.3593 -1.2109 -0.1690
    5SAPS  H11A  543   4.640   6.608   7.359  0.0973 -1.5653 -0.7936
    5SAPS  H11B  544   4.505   6.497   7.382  0.0498 -0.1197 -0.1573
    5SAPS     P  545   4.659   6.268   7.380 -0.3235  0.1337  0.7537
    5SAPS   O13  546   4.767   6.174   7.421  0.3507  0.5470 -0.3650
    5SAPS   O14  547   4.534   6.238   7.444 -0.1615 -0.6301  0.0363
    5SAPS   O12  548   4.693   6.414   7.414 -0.2599  0.5336  0.7857
    5SAPS   O11  549   4.644   6.273   7.222 -0.0924  0.1695  0.4960
    5SAPS    C1  550   4.718   6.375   7.148 -0.4917  0.0624 -0.0233
    5SAPS    HA  551   4.651   6.463   7.138 -0.1722  0.2900 -0.1523
    5SAPS    HB  552   4.808   6.407   7.205  0.1787 -3.6115  1.3032
    5SAPS    C2  553   4.771   6.330   7.011  0.6461 -0.1006 -0.3210
    5SAPS    HS  554   4.873   6.368   6.988  0.4323  0.4470 -0.3854
    5SAPS   O21  555   4.676   6.364   6.902  0.4960  0.0625  0.5529
    5SAPS   C21  556   4.712   6.481   6.843 -0.2202  0.7405 -0.7136
    5SAPS   O22  557   4.784   6.560   6.901 -0.1079  0.2419  0.2799
    5SAPS   C22  558   4.633   6.503   6.721 -0.4048  0.1531  0.0822
    5SAPS   H2R  559   4.585   6.410   6.685  0.6419  0.0800 -1.1869
    5SAPS   H2S  560   4.556   6.583   6.724  0.2311  0.8216 -0.9013
    5SAPS    C3  561   4.792   6.176   7.015  0.6853 -0.0009 -0.0205
    5SAPS    HX  562   4.691   6.130   7.008  0.9260 -1.0053  2.2890
    5SAPS    HY  563   4.841   6.148   7.110  0.0756 -1.9133 -0.2067
    5SAPS   O31  564   4.888   6.145   6.911 -0.3343  0.1053 -0.5007
    5SAPS   C31  565   4.865   6.021   6.866 -0.1635  0.3783  0.4924
    5SAPS   O32  566   4.792   5.942   6.925 -0.3533  0.8283 -0.5918
    5SAPS   C32  567   4.922   6.008   6.726  0.2963 -0.2111  0.0752
    5SAPS   H2X  568   4.987   5.918   6.724  0.7700  0.0847  1.3184
    5SAPS   H2Y  569   4.989   6.092   6.697 -0.1080  0.6118  1.4214
    5SAPS   C23  570   4.735   6.541   6.600 -0.0466  0.1936  0.3635
    5SAPS   H3R  571   4.800   6.619   6.644  0.5312 -0.6488  1.0156
    5SAPS   H3S  572   4.681   6.575   6.508  2.3085  1.6204 -0.5940
    5SAPS   C24  573   4.828   6.423   6.566 -0.0548 -0.2913 -0.9139
    5SAPS   H4R  574   4.769   6.357   6.500  0.5406 -0.6768 -1.0664
    5SAPS   H4S  575   4.859   6.366   6.655  0.1555 -1.8704 -1.9636
    5SAPS   C25  576   4.947   6.454   6.476  0.0196  0.3500 -0.6804
    5SAPS   H5R  577   5.013   6.533   6.516  2.4232 -1.6236 -0.5372
    5SAPS   C26  578   4.976   6.398   6.359  0.5211 -0.0083 -0.0483
    5SAPS   H6R  579   5.068   6.426   6.305  0.0937  0.0766 -0.7499
    5SAPS   C27  580   4.899   6.316   6.260  0.0462 -0.3055  0.1822
    5SAPS   H7R  581   4.821   6.249   6.301 -0.4241  0.6564  0.8833
    5SAPS   H7S  582   4.972   6.250   6.207  0.4450  0.3290 -0.0759
    5SAPS   C28  583   4.841   6.414   6.171  0.8164  0.1055  0.4283
    5SAPS   H8R  584   4.772   6.484   6.219 -2.4940 -3.2528  1.0208
    5SAPS   C29  585   4.875   6.426   6.045 -0.6701  0.0030  0.5597
    5SAPS   H9R  586   4.837   6.505   5.979  1.0883 -0.8583 -1.6073
    5SAPS  C210  587   4.975   6.342   5.962  0.0305  0.5856 -0.0246
    5SAPS  H10R  588   4.934   6.244   5.932  1.6728 -0.8509  2.1405
    5SAPS  H10S  589   5.066   6.320   6.021  0.9820  0.8617 -1.3425
    5SAPS  C211  590   5.023   6.425   5.846 -0.0093 -0.3324  0.5212
    5SAPS  H11R  591   5.116   6.483   5.854 -0.8175  1.2850 -1.0727
    5SAPS  C212  592   4.960   6.428   5.728 -0.2414  0.0022 -0.3756
    5SAPS  H12R  593   5.006   6.493   5.652  1.3256  0.5868  1.0071
    5SAPS  C213  594   4.838   6.351   5.683 -0.2159  0.3787 -0.0382
    5SAPS  H13R  595   4.782   6.310   5.769 -1.7352  1.0780 -0.6649
    5SAPS  H13S  596   4.864   6.257   5.628 -0.7005  0.5550 -0.5786
    5SAPS  C214  597   4.741   6.420   5.589 -0.1290 -0.4154  0.1676
    5SAPS  H14R  598   4.655   6.470   5.635 -0.3144  0.0550 -0.6829
    5SAPS  C215  599   4.749   6.420   5.453 -0.1364  0.3534  0.1799
    5SAPS  H15R  600   4.679   6.490   5.404 -1.1279 -1.0973 -0.5597
    5SAPS  C216  601   4.847   6.348   5.363  0.7634 -0.0375  0.0761
    5SAPS  H16R  602   4.798   6.283   5.287 -0.7370  1.2218 -0.0909
    5SAPS  H16S  603   4.909   6.276   5.419 -2.1284 -0.2975  3.2909
    5SAPS  C217  604   4.944   6.452   5.301 -0.2327  0.2446 -0.6817
    5SAPS  H17R  605   4.980   6.523   5.379  0.6822  0.3516 -1.1778
    5SAPS  H17S  606   4.895   6.505   5.217  1.4900  0.2337 -1.7444
    5SAPS  C218  607   5.087   6.401   5.254  0.5941 -0.6374  0.1546
    5SAPS  H18R  608   5.138   6.357   5.343  0.2023 -0.8941  0.2536
    5SAPS  H18S  609   5.142   6.489   5.214 -0.0394  0.1288  0.9250
    5SAPS  C219  610   5.077   6.300   5.137  0.4044 -0.2963 -0.0540
    5SAPS  H19R  611   5.022   6.347   5.052 -0.8971 -2.6128 -0.5882
    5SAPS  H19S  612   5.006   6.215   5.152  1.1631 -1.5904 -2.9031
    5SAPS  C220  613   5.221   6.256   5.091  0.1055  0.0498  0.7685
    5SAPS  H20R  614   5.212   6.195   4.998 -1.3587  2.5775 -0.8822
    5SAPS  H20S  615   5.272   6.209   5.178  1.3209 -0.4991 -0.1984
    5SAPS  H20T  616   5.279   6.347   5.067 -1.1382  1.1059  1.6112
    5SAPS   C33  617   4.810   5.993   6.621  0.7647  0.3110  0.0697
    5SAPS   H3X  618   4.727   6.065   6.637  1.1307  0.5116  1.1574
    5SAPS   H3Y  619   4.762   5.893   6.618  0.4248  0.3880  1.8889
    5SAPS   C34  620   4.854   6.003   6.477 -0.5786 -0.0977  0.7213
    5SAPS   H4X  621   4.928   5.924   6.456 -1.9437 -1.0621 -0.6939
    5SAPS   H4Y  622   4.913   6.094   6.453  1.6040 -1.6092  0.0359
    5SAPS   C35  623   4.746   5.993   6.364 -0.0671  0.5146 -1.1414
    5SAPS   H5X  624   4.804   5.993   6.269  0.6936 -0.8884 -0.7094
    5SAPS   H5Y  625   4.666   6.070   6.373 -2.2268 -1.8425  2.0052
    5SAPS   C36  626   4.660   5.860   6.369 -0.5655 -0.1741 -0.2566
    5SAPS   H6X  627   4.582   5.872   6.448 -1.1578 -1.6355 -0.5811
    5SAPS   H6Y  628   4.719   5.767   6.386 -1.0187 -1.1626 -3.3646
    5SAPS   C37  629   4.581   5.855   6.241  0.5415  0.6488  0.2802
    5SAPS   H7X  630   4.653   5.885   6.162  0.5927  0.0577  0.0936
    5SAPS   H7Y  631   4.497   5.928   6.237  0.9647  1.1105 -0.3617
    5SAPS   C38  632   4.533   5.707   6.217 -0.6767 -0.1392 -0.7236
    5SAPS   H8X  633   4.459   5.671   6.292 -1.1597  2.3335  0.0670
    5SAPS   H8Y  634   4.629   5.651   6.227  0.2720  1.6508  0.7976
    5SAPS   C39  635   4.455   5.684   6.086  0.1981  0.3914  0.6751
    5SAPS   H9X  636   4.445   5.576   6.060 -0.1334  0.7609 -0.8326
    5SAPS   H9Y  637   4.528   5.724   6.012 -0.3285  1.7593  0.8617
    5SAPS  C310  638   4.311   5.748   6.093 -0.2390 -0.3097 -0.1469
    5SAPS  H10X  639   4.332   5.854   6.118  0.4383 -0.9057  2.0064
    5SAPS  H10Y  640   4.249   5.682   6.157  0.6926 -0.2659  0.8249
    5SAPS  C311  641   4.230   5.754   5.966 -0.2929 -0.0189  0.3038
    5SAPS  H11X  642   4.213   5.646   5.944 -0.6833 -0.1521  1.2254
    5SAPS  H11Y  643   4.301   5.787   5.887  1.7615 -2.6008  0.9143
    5SAPS  C312  644   4.102   5.842   5.958 -0.1172  1.3213  0.6794
    5SAPS  H12X  645   4.133   5.939   6.004  1.2201  0.8928  0.7210
    5SAPS  H12Y  646   4.024   5.800   6.025  2.3611 -1.9968  1.7047
    5SAPS  C313  647   4.049   5.865   5.818  0.0145  0.1516  0.1072
    5SAPS  H13X  648   4.129   5.914   5.759 -0.6078  0.2628 -0.6571
    5SAPS  H13Y  649   3.964   5.937   5.822  0.7565  1.0551  0.0110
    5SAPS  C314  650   4.001   5.732   5.746  0.5666  0.1983 -0.6149
    5SAPS  H14X  651   3.917   5.696   5.808  0.4217 -1.1259 -1.5381
    5SAPS  H14Y  652   4.085   5.660   5.744  0.7083  0.3643 -1.1008
    5SAPS  C315  653   3.958   5.755   5.602 -0.1633  0.7820 -0.1061
    5SAPS  H15X  654   3.879   5.832   5.588 -0.0465  0.8979 -0.1285
    5SAPS  H15Y  655   3.904   5.665   5.565  1.8460 -0.6702  0.3401
    5SAPS  C316  656   4.082   5.801   5.515  0.3428  0.2893  0.6263
    5SAPS  H16X  657   4.172   5.736   5.515  1.0370  1.0095 -3.5293
    5SAPS  H16Y  658   4.106   5.902   5.554 -1.2945 -0.9051  5.4713
    5SAPS  C317  659   4.038   5.814   5.368  0.7486  0.2748 -0.6085
    5SAPS  H17X  660   3.979   5.908   5.366  0.2824  0.1478  2.4587
    5SAPS  H17Y  661   3.965   5.736   5.338 -3.1269  3.5692 -0.5348
    5SAPS  C318  662   4.147   5.821   5.264 -0.2654  0.2638  0.1958
    5SAPS  H18X  663   4.209   5.729   5.272  2.4849  2.0356  0.2889
    5SAPS  H18Y  664   4.222   5.897   5.293  1.5988 -1.0209 -1.0542
    5SAPS  H18Z  665   4.106   5.828   5.161  0.5905  0.8215 -0.1130
    6SAPS     N  666   2.958   6.859   7.102  0.1576  0.6785  1.0554
    6SAPS   HN1  667   2.914   6.778   7.053  2.0887 -0.4758  1.1242
    6SAPS   HN2  668   2.891   6.914   7.159  0.6292  0.7299  1.5629
    6SAPS   HN3  669   3.001   6.920   7.030 -1.1861  1.0272  0.5125
    6SAPS   C12  670   3.060   6.798   7.194 -0.1682 -0.2988 -0.0485
    6SAPS  H12A  671   3.092   6.879   7.258  2.6335 -1.0280 -0.4047
    6SAPS   C13  672   3.018   6.684   7.285  0.0717  0.3187 -0.6294
    6SAPS  O13A  673   2.892   6.656   7.291  0.5275  0.5471 -0.2780
    6SAPS  O13B  674   3.106   6.636   7.363 -0.2056 -0.3987 -0.2922
    6SAPS   C11  675   3.178   6.756   7.113  0.0830 -0.2290 -0.0613
    6SAPS  H11A  676   3.152   6.683   7.033 -1.5189  1.4380 -1.1257
    6SAPS  H11B  677   3.255   6.713   7.181  0.7658  0.8988 -0.0923
    6SAPS     P  678   3.391   6.881   7.018 -0.4466 -0.0729  0.1211
    6SAPS   O13  679   3.423   7.021   6.978 -0.3169 -0.0460 -0.4999
    6SAPS   O14  680   3.486   6.839   7.119  0.1287  0.1375 -0.3895
    6SAPS   O12  681   3.241   6.873   7.064 -0.2935  0.2289 -0.1505
    6SAPS   O11  682   3.393   6.783   6.891 -0.5002 -0.2894 -0.3021
    6SAPS    C1  683   3.307   6.832   6.785  0.0541  0.0871  0.4861
    6SAPS    HA  684   3.205   6.860   6.818 -0.3787  1.1545 -1.5814
    6SAPS    HB  685   3.351   6.924   6.739  0.0284 -0.3882 -0.5265
    6SAPS    C2  686   3.302   6.735   6.665  0.1935 -0.1031 -0.0883
    6SAPS    HS  687   3.260   6.643   6.711  1.9732 -0.3383  1.1800
    6SAPS   O21  688   3.443   6.698   6.623 -0.0617  0.4739 -0.6059
    6SAPS   C21  689   3.439   6.591   6.548  0.6833 -0.5200 -0.4287
    6SAPS   O22  690   3.337   6.529   6.518  0.6114 -0.2582 -0.0820
    6SAPS   C22  691   3.581   6.549   6.514  0.2512 -0.1244  0.6408
    6SAPS   H2R  692   3.641   6.640   6.497 -0.9497  0.6072  0.1788
    6SAPS   H2S  693   3.618   6.504   6.609  1.8015  1.4982  0.8368
    6SAPS    C3  694   3.204   6.790   6.552  0.3289 -0.0789 -0.2848
    6SAPS    HX  695   3.110   6.797   6.611  0.1723  0.2482 -0.5748
    6SAPS    HY  696   3.181   6.718   6.471 -2.1555 -1.5338  1.5644
    6SAPS   O31  697   3.244   6.915   6.500 -0.1032 -0.2113 -0.0923
    6SAPS   C31  698   3.155   7.016   6.498 -0.4214  0.4303 -0.0835
    6SAPS   O32  699   3.040   6.999   6.519  0.3196 -0.6617 -0.2890
    6SAPS   C32  700   3.219   7.139   6.438  0.2228  0.0668 -0.8920
    6SAPS   H2X  701   3.277   7.094   6.355  0.3781  1.1135 -1.3589
    6SAPS   H2Y  702   3.289   7.178   6.515 -2.8628  0.2133  2.1103
    6SAPS   C23  703   3.575   6.440   6.404  0.1185  0.1812 -0.1171
    6SAPS   H3R  704   3.489   6.370   6.413 -1.2931  1.7703 -0.4910
    6SAPS   H3S  705   3.669   6.383   6.414  0.4258  0.6977 -0.0085
    6SAPS   C24  706   3.567   6.505   6.264 -0.4770 -0.5330 -0.2939
    6SAPS   H4R  707   3.483   6.574   6.244 -0.4652 -0.5442 -0.3821
    6SAPS   H4S  708   3.558   6.408   6.209 -1.0403 -0.9712  0.5456
    6SAPS   C25  709   3.686   6.574   6.219 -0.1528 -0.1102  0.3271
    6SAPS   H5R  710   3.771   6.577   6.289  1.5396  3.1179 -1.6518
    6SAPS   C26  711   3.724   6.599   6.091  0.2800 -0.2483  0.0942
    6SAPS   H6R  712   3.817   6.653   6.068  0.8276 -0.5876  1.3892
    6SAPS   C27  713   3.646   6.580   5.960  0.4905 -0.0220 -0.7134
    6SAPS   H7R  714   3.537   6.580   5.979 -0.1484  1.9554 -3.6353
    6SAPS   H7S  715   3.666   6.483   5.909 -0.5965 -0.1098 -0.9897
    6SAPS   C28  716   3.659   6.685   5.859 -0.4861 -0.6215  0.1300
    6SAPS   H8R  717   3.739   6.760   5.868  0.6141 -1.4986 -1.6661
    6SAPS   C29  718   3.590   6.688   5.741  0.1354  0.2772  0.1634
    6SAPS   H9R  719   3.621   6.759   5.663 -0.7822 -0.5087 -0.9338
    6SAPS  C210  720   3.478   6.595   5.710  0.4326 -0.3422 -0.0646
    6SAPS  H10R  721   3.381   6.648   5.705  0.2919 -0.6131 -0.2514
    6SAPS  H10S  722   3.449   6.527   5.793  0.4975  0.2028  0.4104
    6SAPS  C211  723   3.516   6.507   5.590 -0.3670  0.5708  0.1944
    6SAPS  H11R  724   3.619   6.470   5.586 -0.8901 -0.8212 -1.3609
    6SAPS  C212  725   3.442   6.478   5.486 -0.6608 -0.1939  0.9907
    6SAPS  H12R  726   3.491   6.434   5.397  1.4109  3.5882  0.0333
    6SAPS  C213  727   3.298   6.498   5.455 -0.2182  0.1618 -0.2625
    6SAPS  H13R  728   3.297   6.607   5.436 -0.4740  0.5978  1.9439
    6SAPS  H13S  729   3.236   6.478   5.545  0.9536  1.0649  0.7782
    6SAPS  C214  730   3.243   6.424   5.330 -0.5682  0.8610  0.2872
    6SAPS  H14R  731   3.193   6.329   5.352  0.0265  1.1639  3.4983
    6SAPS  C215  732   3.261   6.456   5.200  0.1464 -0.5971 -0.3606
    6SAPS  H15R  733   3.224   6.389   5.121  1.4557 -1.0416 -0.6190
    6SAPS  C216  734   3.345   6.576   5.152 -1.0022  0.2190 -0.2124
    6SAPS  H16R  735   3.351   6.665   5.218  1.6383 -0.8112  1.0575
    6SAPS  H16S  736   3.295   6.617   5.062 -1.4673 -1.4392 -0.7431
    6SAPS  C217  737   3.493   6.548   5.093 -0.3140  0.3121 -0.6297
    6SAPS  H17R  738   3.550   6.486   5.166 -1.4371  0.1716  0.1641
    6SAPS  H17S  739   3.546   6.645   5.086  0.5276 -0.1821 -1.2524
    6SAPS  C218  740   3.494   6.485   4.954 -0.1086  0.0828 -0.3279
    6SAPS  H18R  741   3.409   6.413   4.962  0.2662 -0.1557  1.9294
    6SAPS  H18S  742   3.593   6.437   4.939  0.1772  0.5062  0.1816
    6SAPS  C219  743   3.467   6.581   4.836 -0.4835 -0.5590 -0.2313
    6SAPS  H19R  744   3.544   6.660   4.853 -1.1387 -0.2759  1.5499
    6SAPS  H19S  745   3.366   6.622   4.857  0.4124  0.7272  1.9734
    6SAPS  C220  746   3.482   6.510   4.701  0.2305  0.4285  0.4882
    6SAPS  H20R  747   3.578   6.457   4.683 -0.6218 -1.2106  0.5567
    6SAPS  H20S  748   3.475   6.597   4.632 -2.9902  1.0435  1.4048
    6SAPS  H20T  749   3.403   6.432   4.691  1.8245 -1.4969  2.0932
    6SAPS   C33  750   3.111   7.246   6.385 -0.1967  0.2742  0.3639
    6SAPS   H3X  751   3.157   7.346   6.369 -2.9204  1.4549 -0.7626
    6SAPS   H3Y  752   3.047   7.263   6.475  1.1646 -0.1750  1.4489
    6SAPS   C34  753   3.028   7.210   6.258 -0.0559 -0.5679 -0.6413
    6SAPS   H4X  754   2.921   7.238   6.263 -0.7682 -3.2250  0.4706
    6SAPS   H4Y  755   3.037   7.105   6.223 -2.9555 -0.3562 -2.2701
    6SAPS   C35  756   3.095   7.283   6.142  0.4666  0.1094 -0.3083
    6SAPS   H5X  757   3.198   7.242   6.141  0.6157  0.4551  0.2312
    6SAPS   H5Y  758   3.111   7.392   6.157 -1.7401  0.8533 -2.6156
    6SAPS   C36  759   3.026   7.253   6.008  0.1132 -0.5556  0.1954
    6SAPS   H6X  760   2.928   7.302   6.021  0.8576  1.6998 -1.8895
    6SAPS   H6Y  761   3.008   7.144   5.992 -1.4574 -0.1738 -0.9359
    6SAPS   C37  762   3.099   7.314   5.888 -0.8145  0.3009 -0.8059
    6SAPS   H7X  763   3.207   7.289   5.901 -1.0919 -0.5397  0.0038
    6SAPS   H7Y  764   3.106   7.424   5.900  0.7479  0.3649 -1.9651
    6SAPS   C38  765   3.036   7.275   5.748  0.0421  0.1919  0.3655
    6SAPS   H8X  766   2.938   7.324   5.731  0.8051  0.8674 -2.4844
    6SAPS   H8Y  767   3.018   7.165   5.751  0.8470 -0.0111 -1.3837
    6SAPS   C39  768   3.131   7.312   5.634 -0.1499 -0.5129  1.1910
    6SAPS   H9X  769   3.233   7.270   5.651 -0.3093 -2.0638 -1.1840
    6SAPS   H9Y  770   3.142   7.422   5.630  1.5662 -0.6951 -0.6589
    6SAPS  C310  771   3.073   7.287   5.493  0.0113  0.4123  0.2225
    6SAPS  H10X  772   2.964   7.304   5.478 -0.5812 -0.4672  2.8986
    6SAPS  H10Y  773   3.090   7.179   5.474  3.8071  1.0293 -0.5959
    6SAPS  C311  774   3.146   7.367   5.383 -0.4191  0.2673 -0.1858
    6SAPS  H11X  775   3.253   7.387   5.405 -0.4044 -0.6045  0.5734
    6SAPS  H11Y  776   3.102   7.469   5.387 -2.3816 -0.2620 -3.9197
    6SAPS  C312  777   3.104   7.317   5.237 -0.0565 -0.2889 -0.5318
    6SAPS  H12X  778   2.998   7.347   5.228  0.3169  0.7562 -1.7683
    6SAPS  H12Y  779   3.137   7.217   5.201 -2.3514 -0.5333 -2.2010
    6SAPS  C313  780   3.169   7.405   5.124  0.4148  0.7467  0.3083
    6SAPS  H13X  781   3.272   7.364   5.121  0.2465 -0.0108  2.8163
    6SAPS  H13Y  782   3.170   7.515   5.138  1.1249  0.7586  0.2073
    6SAPS  C314  783   3.121   7.361   4.974 -0.2355  0.0337  0.0896
    6SAPS  H14X  784   3.018   7.402   4.964 -0.0741  0.8007  1.2955
    6SAPS  H14Y  785   3.122   7.250   4.971 -0.9518 -0.0252  1.2611
    6SAPS  C315  786   3.210   7.430   4.868 -0.2324  0.7395  0.2110
    6SAPS  H15X  787   3.171   7.408   4.766  1.4365  1.6977 -0.6950
    6SAPS  H15Y  788   3.308   7.378   4.867 -0.8665 -0.7368  3.2216
    6SAPS  C316  789   3.229   7.581   4.862  0.4176  0.1201 -0.2928
    6SAPS  H16X  790   3.287   7.615   4.951  1.2308  0.7944 -1.0592
    6SAPS  H16Y  791   3.126   7.622   4.866  0.5552  0.4074  0.6375
    6SAPS  C317  792   3.295   7.621   4.731  0.4982  0.3654  0.4351
    6SAPS  H17X  793   3.355   7.544   4.679  2.0061  2.1183 -0.5628
    6SAPS  H17Y  794   3.360   7.705   4.763  1.0804 -0.4419  1.3941
    6SAPS  C318  795   3.186   7.677   4.636  0.1634  0.8582 -0.1801
    6SAPS  H18X  796   3.229   7.687   4.534 -1.5448 -1.4050 -1.1933
    6SAPS  H18Y  797   3.146   7.773   4.674 -0.4280  0.8037 -0.6573
    6SAPS  H18Z  798   3.107   7.605   4.606  0.0186  1.3433 -0.9984
    7SAPS     N  799   3.494   2.686   7.405 -0.2587 -0.7625 -0.2753
    7SAPS   HN1  800   3.582   2.671   7.351 -0.2735 -1.0220 -0.2309
    7SAPS   HN2  801   3.428   2.743   7.349 -0.2251 -3.2912 -3.1299
    7SAPS   HN3  802   3.519   2.726   7.498 -0.7985  1.3561 -0.9936
    7SAPS   C12  803   3.442   2.552   7.428  0.5844 -0.3282 -0.6972
    7SAPS  H12A  804   3.510   2.509   7.499 -1.4881  0.2945  1.7990
    7SAPS   C13  805   3.306   2.548   7.499 -0.1052  0.5542 -0.5197
    7SAPS  O13A  806   3.266   2.652   7.560  0.1157 -0.2502 -0.1541
    7SAPS  O13B  807   3.263   2.432   7.535  0.7182 -0.0024 -0.1215
    7SAPS   C11  808   3.432   2.471   7.296  0.1392 -0.2376  0.4277
    7SAPS  H11A  809   3.353   2.506   7.226 -0.8651  1.4815  2.3333
    7SAPS  H11B  810   3.407   2.365   7.319 -0.3146 -0.2575 -0.1380
    7SAPS     P  811   3.651   2.358   7.184  0.0281  0.1603 -0.1677
    7SAPS   O13  812   3.788   2.412   7.187 -0.3010 -0.4034 -0.6730
    7SAPS   O14  813   3.627   2.229   7.250  0.0843  0.2139  0.1084
    7SAPS   O12  814   3.558   2.477   7.233  0.0418  0.1819  0.7406
    7SAPS   O11  815   3.602   2.351   7.033  0.4199 -0.6785  0.0948
    7SAPS    C1  816   3.484   2.295   6.988  0.7171 -0.3921 -0.0597
    7SAPS    HA  817   3.507   2.194   6.949  3.1597  0.2852 -0.5371
    7SAPS    HB  818   3.402   2.293   7.063 -0.7800  0.3676 -1.5981
    7SAPS    C2  819   3.416   2.380   6.877  0.2657  0.5339  0.5921
    7SAPS    HS  820   3.323   2.336   6.834  0.9308 -0.7428  0.4230
    7SAPS   O21  821   3.512   2.422   6.779 -0.6209 -0.2415  0.3856
    7SAPS   C21  822   3.542   2.323   6.694 -0.0353 -0.1021  0.2300
    7SAPS   O22  823   3.489   2.216   6.684 -0.5534  0.3367 -0.2298
    7SAPS   C22  824   3.639   2.383   6.592 -0.2676  0.3724 -0.5991
    7SAPS   H2R  825   3.575   2.445   6.526 -1.3519  2.3669  2.1478
    7SAPS   H2S  826   3.714   2.453   6.634 -0.2390  0.1540 -0.2828
    7SAPS    C3  827   3.352   2.508   6.936 -0.3678  0.4887 -0.0929
    7SAPS    HX  828   3.430   2.569   6.985  0.6616 -1.0482  0.2787
    7SAPS    HY  829   3.295   2.478   7.026  0.8305 -0.0095  0.5220
    7SAPS   O31  830   3.265   2.573   6.848 -0.2198  0.0625  0.3850
    7SAPS   C31  831   3.316   2.653   6.764 -0.3710  0.0494 -0.2631
    7SAPS   O32  832   3.429   2.700   6.773  0.0376  0.3793 -0.5122
    7SAPS   C32  833   3.207   2.678   6.657  0.1824 -0.1110  0.0853
    7SAPS   H2X  834   3.192   2.789   6.654  1.7311  0.1069 -0.0586
    7SAPS   H2Y  835   3.109   2.633   6.683  0.3959 -1.4455 -1.2836
    7SAPS   C23  836   3.733   2.278   6.518 -0.3943 -0.3585  0.0383
    7SAPS   H3R  837   3.690   2.190   6.467  0.6633 -1.1299  0.4350
    7SAPS   H3S  838   3.801   2.242   6.599  0.4308 -0.7084 -0.7891
    7SAPS   C24  839   3.827   2.343   6.419 -0.0299 -0.0728 -0.4020
    7SAPS   H4R  840   3.910   2.271   6.402  0.0461  0.1714 -1.1135
    7SAPS   H4S  841   3.875   2.432   6.465 -0.5557 -0.9561  2.0226
    7SAPS   C25  842   3.771   2.361   6.283 -0.0887 -0.3779  0.2985
    7SAPS   H5R  843   3.761   2.464   6.247  0.6849 -1.1164 -2.2401
    7SAPS   C26  844   3.760   2.265   6.189  0.2414 -0.0142  0.8648
    7SAPS   H6R  845   3.717   2.286   6.089 -1.0877  1.3531  1.6750
    7SAPS   C27  846   3.778   2.114   6.204  0.3981  0.2404  0.1223
    7SAPS   H7R  847   3.697   2.063   6.147  1.4492  0.2504 -1.4309
    7SAPS   H7S  848   3.774   2.095   6.313 -1.6639  4.3295  0.9630
    7SAPS   C28  849   3.905   2.060   6.138  0.2963 -0.5872  0.5799
    7SAPS   H8R  850   3.984   2.025   6.206  0.3078 -0.4261  0.6491
    7SAPS   C29  851   3.924   2.033   6.010  0.5591  0.4325 -0.4865
    7SAPS   H9R  852   4.016   1.979   5.986  0.5966  0.5511 -0.6072
    7SAPS  C210  853   3.822   2.054   5.903  0.0181  0.4627 -0.1495
    7SAPS  H10R  854   3.752   2.136   5.928  0.5583  0.5198  1.2702
    7SAPS  H10S  855   3.757   1.964   5.906  0.6430  0.0243  2.3402
    7SAPS  C211  856   3.893   2.076   5.768 -0.1462 -0.1259  0.4066
    7SAPS  H11R  857   3.967   2.157   5.762 -0.3912  0.0024 -1.1130
    7SAPS  C212  858   3.847   2.026   5.654 -0.0287  0.0966 -0.0734
    7SAPS  H12R  859   3.913   2.030   5.566  2.6536  0.2759  1.8497
    7SAPS  C213  860   3.732   1.935   5.623 -0.5156 -0.0180 -0.1881
    7SAPS  H13R  861   3.675   1.931   5.718  1.5269  1.6105  1.1881
    7SAPS  H13S  862   3.768   1.834   5.594 -0.4138 -0.3267  0.9765
    7SAPS  C214  863   3.634   1.999   5.523  0.2590  0.0002  0.3319
    7SAPS  H14R  864   3.589   2.093   5.556  0.2324  0.4474 -0.9446
    7SAPS  C215  865   3.590   1.952   5.402 -0.1492 -0.1797  0.3577
    7SAPS  H15R  866   3.520   2.020   5.350 -1.1652  0.2366  2.1641
    7SAPS  C216  867   3.635   1.829   5.327 -0.3598 -0.0839  0.6866
    7SAPS  H16R  868   3.551   1.755   5.321 -1.3284  1.0150  0.2890
    7SAPS  H16S  869   3.716   1.774   5.379 -0.7451 -3.7031 -2.1115
    7SAPS  C217  870   3.682   1.854   5.179 -0.6809  0.6500  0.0520
    7SAPS  H17R  871   3.776   1.913   5.186 -1.0593  1.1012  2.0735
    7SAPS  H17S  872   3.607   1.915   5.125 -1.9165 -1.6636 -1.0015
    7SAPS  C218  873   3.704   1.723   5.101 -0.1654  0.2649 -0.4467
    7SAPS  H18R  874   3.610   1.663   5.105 -0.3433  0.5941  0.7848
    7SAPS  H18S  875   3.768   1.652   5.158 -1.7632 -0.1792  0.9100
    7SAPS  C219  876   3.758   1.753   4.956 -0.1718  0.1857  0.0140
    7SAPS  H19R  877   3.866   1.778   4.969 -0.1127 -0.9042  2.1748
    7SAPS  H19S  878   3.708   1.842   4.912 -0.1831  0.1624 -0.0194
    7SAPS  C220  879   3.741   1.632   4.863  0.2351 -0.2637 -0.0545
    7SAPS  H20R  880   3.635   1.628   4.830  0.1412  0.0411  0.2062
    7SAPS  H20S  881   3.761   1.535   4.914 -0.6908 -0.4028  0.0604
    7SAPS  H20T  882   3.804   1.637   4.771  0.8510 -1.2374  0.2962
    7SAPS   C33  883   3.246   2.637   6.516 -0.3154 -0.4650 -0.1358
    7SAPS   H3X  884   3.169   2.680   6.447  0.9852 -1.1159 -2.0633
    7SAPS   H3Y  885   3.230   2.528   6.504  0.5484 -1.2930  4.5021
    7SAPS   C34  886   3.386   2.680   6.467  0.1746 -0.1048 -0.3359
    7SAPS   H4X  887   3.456   2.632   6.538 -0.9479 -0.3556  0.6438
    7SAPS   H4Y  888   3.399   2.790   6.470  0.4742 -0.0863 -1.8092
    7SAPS   C35  889   3.413   2.628   6.321  0.1433 -0.2748 -0.2848
    7SAPS   H5X  890   3.385   2.521   6.309 -1.6095  0.3052 -1.8835
    7SAPS   H5Y  891   3.521   2.628   6.297  0.2607 -1.8940  0.1322
    7SAPS   C36  892   3.348   2.720   6.225  0.5600 -0.4536 -0.6613
    7SAPS   H6X  893   3.368   2.826   6.253 -1.5174 -0.3586  0.6648
    7SAPS   H6Y  894   3.241   2.692   6.233  1.0311 -2.3008 -0.4415
    7SAPS   C37  895   3.392   2.699   6.084  0.6404  0.1208 -0.5917
    7SAPS   H7X  896   3.348   2.604   6.049 -0.5200  1.0944 -1.8796
    7SAPS   H7Y  897   3.503   2.696   6.088  0.6217 -0.9033 -0.5011
    7SAPS   C38  898   3.356   2.805   5.978  0.1534 -0.4429 -0.4475
    7SAPS   H8X  899   3.418   2.896   5.989  0.8613 -0.9292 -0.3283
    7SAPS   H8Y  900   3.248   2.829   5.980 -0.1262 -1.6364 -0.4832
    7SAPS   C39  901   3.383   2.760   5.833 -0.1272 -0.3282 -0.3905
    7SAPS   H9X  902   3.341   2.663   5.799 -0.1413  1.0925 -5.1453
    7SAPS   H9Y  903   3.493   2.740   5.836 -0.0685  0.0365  0.0888
    7SAPS  C310  904   3.358   2.866   5.727 -0.3695 -0.4170 -0.8747
    7SAPS  H10X  905   3.422   2.955   5.747 -1.0226  0.3588 -2.1098
    7SAPS  H10Y  906   3.255   2.903   5.743 -0.2863  0.0779 -1.4335
    7SAPS  C311  907   3.386   2.799   5.586 -0.9492  0.3786 -0.5102
    7SAPS  H11X  908   3.311   2.720   5.564 -0.5602 -0.3522  0.7196
    7SAPS  H11Y  909   3.475   2.733   5.595 -2.5220 -1.5250  2.4585
    7SAPS  C312  910   3.394   2.893   5.469  0.0993 -0.0751 -0.8515
    7SAPS  H12X  911   3.460   2.979   5.489  1.0016  0.3048 -4.7023
    7SAPS  H12Y  912   3.291   2.929   5.446  0.8513  1.8773 -1.2585
    7SAPS  C313  913   3.429   2.828   5.334 -0.4212  0.1602 -0.3797
    7SAPS  H13X  914   3.344   2.761   5.309 -2.1402  1.6853  1.0862
    7SAPS  H13Y  915   3.526   2.774   5.337  0.5607  1.8753  0.8943
    7SAPS  C314  916   3.433   2.936   5.227 -0.1054 -0.8309 -0.3741
    7SAPS  H14X  917   3.517   3.006   5.248 -1.3367  0.6622 -0.2009
    7SAPS  H14Y  918   3.346   3.004   5.244 -0.5806 -1.8615  1.7205
    7SAPS  C315  919   3.433   2.884   5.085  0.0783  1.1837 -0.2252
    7SAPS  H15X  920   3.357   2.803   5.080  1.6128 -0.4276  0.9849
    7SAPS  H15Y  921   3.527   2.830   5.062 -1.7769 -2.5286  0.1031
    7SAPS  C316  922   3.383   2.990   4.992  0.2231  0.3327 -0.1651
    7SAPS  H16X  923   3.455   3.073   5.007 -0.5594  1.6068 -2.9041
    7SAPS  H16Y  924   3.282   3.022   5.027  0.1240  0.5984 -0.6883
    7SAPS  C317  925   3.390   2.944   4.844 -0.1923  0.2030 -0.3311
    7SAPS  H17X  926   3.342   2.845   4.839 -0.0745  0.0015  1.6991
    7SAPS  H17Y  927   3.492   2.923   4.806 -0.1447 -1.1620  0.5063
    7SAPS  C318  928   3.326   3.042   4.740 -0.0319 -0.0897  0.7872
    7SAPS  H18X  929   3.358   3.004   4.641 -1.6086 -1.4560  0.7660
    7SAPS  H18Y  930   3.359   3.146   4.760 -1.9178  0.8995 -0.9633
    7SAPS  H18Z  931   3.217   3.028   4.754 -0.4724  0.7858 -1.4678
    8SAPS     N  932   2.359   2.170   7.012  0.6965 -1.1553  0.3847
    8SAPS   HN1  933   2.439   2.236   7.003 -1.8955  2.1621 -0.3891
    8SAPS   HN2  934   2.355   2.102   6.934 -0.9083 -2.3783  1.4678
    8SAPS   HN3  935   2.284   2.241   6.999  0.9964 -0.8687  0.1888
    8SAPS   C12  936   2.356   2.104   7.144  0.1394 -0.5070  0.1752
    8SAPS  H12A  937   2.328   2.180   7.215  1.9840  1.6079 -1.2145
    8SAPS   C13  938   2.261   1.983   7.156  0.7908  0.2329 -0.1368
    8SAPS  O13A  939   2.197   1.940   7.058  0.0916 -0.6759 -0.3524
    8SAPS  O13B  940   2.232   1.963   7.277  0.3188 -0.0085  0.2733
    8SAPS   C11  941   2.495   2.057   7.193 -0.6535 -0.1752  0.0040
    8SAPS  H11A  942   2.475   2.017   7.295  1.9795 -2.6007 -0.3260
    8SAPS  H11B  943   2.564   2.143   7.208 -1.5723  0.7356 -0.7951
    8SAPS     P  944   2.694   1.903   7.117 -0.2457  0.7364  0.4276
    8SAPS   O13  945   2.781   2.012   7.071  0.0564 -0.2330 -0.8767
    8SAPS   O14  946   2.733   1.849   7.248  0.4748 -0.0388 -0.3362
    8SAPS   O12  947   2.549   1.955   7.116 -0.0658  0.0206 -0.6078
    8SAPS   O11  948   2.681   1.783   7.017 -0.3621  0.2268  0.3650
    8SAPS    C1  949   2.580   1.781   6.921 -1.0241 -0.0160  0.2998
    8SAPS    HA  950   2.572   1.676   6.886 -1.6609  0.2147 -0.2672
    8SAPS    HB  951   2.483   1.818   6.960 -1.5987 -0.8937 -0.2496
    8SAPS    C2  952   2.629   1.871   6.800  0.0189 -0.2416 -0.8687
    8SAPS    HS  953   2.630   1.976   6.835 -1.8697  0.4435 -2.6763
    8SAPS   O21  954   2.544   1.850   6.682  0.9865 -0.0416  0.2460
    8SAPS   C21  955   2.429   1.915   6.690 -0.4677 -0.2707  0.1563
    8SAPS   O22  956   2.387   1.980   6.785  0.4817  0.2434  0.1740
    8SAPS   C22  957   2.376   1.917   6.543 -0.0960  1.3837 -0.5241
    8SAPS   H2R  958   2.315   2.010   6.541 -0.4235  1.1671 -1.1366
    8SAPS   H2S  959   2.466   1.923   6.479  0.0295  1.6076 -0.3265
    8SAPS    C3  960   2.778   1.843   6.762 -0.6928 -0.5482  0.5537
    8SAPS    HX  961   2.800   1.736   6.743  2.1404 -0.4503  2.6067
    8SAPS    HY  962   2.835   1.883   6.849 -2.5634  1.5047  0.9221
    8SAPS   O31  963   2.808   1.933   6.647 -0.1914 -0.0568 -0.1559
    8SAPS   C31  964   2.935   1.958   6.624  0.1904 -0.2240 -0.6312
    8SAPS   O32  965   3.030   1.897   6.683  0.5702 -0.2308  0.0441
    8SAPS   C32  966   2.952   2.040   6.500 -0.2714  0.5270 -0.4385
    8SAPS   H2X  967   2.910   2.138   6.530 -0.2963 -0.1645  2.0129
    8SAPS   H2Y  968   2.892   1.994   6.419 -0.3046 -1.2466  0.5482
    8SAPS   C23  969   2.302   1.780   6.512  0.5653  0.0834  0.2959
    8SAPS   H3R  970   2.212   1.762   6.575  0.8752 -0.0532  0.7061
    8SAPS   H3S  971   2.378   1.700   6.527  0.3737 -0.7573 -2.6706
    8SAPS   C24  972   2.262   1.769   6.360  0.2844 -0.0353 -0.6465
    8SAPS   H4R  973   2.345   1.807   6.297  1.5302  0.1862  1.0800
    8SAPS   H4S  974   2.183   1.847   6.348 -0.4960 -0.5932  0.6184
    8SAPS   C25  975   2.217   1.628   6.325  0.4766 -0.7851 -0.1366
    8SAPS   H5R  976   2.128   1.595   6.381 -0.3107 -0.1914 -1.0175
    8SAPS   C26  977   2.246   1.560   6.211 -0.5593  0.3909  0.2666
    8SAPS   H6R  978   2.188   1.471   6.183  2.6304 -1.3918 -1.2772
    8SAPS   C27  979   2.357   1.597   6.111 -0.2025  0.3174 -0.5138
    8SAPS   H7R  980   2.359   1.707   6.095 -1.0629  0.4040 -0.0735
    8SAPS   H7S  981   2.329   1.553   6.013 -0.2856 -0.2272 -0.2530
    8SAPS   C28  982   2.494   1.551   6.153 -0.4084  0.5456  0.1607
    8SAPS   H8R  983   2.511   1.493   6.245  0.0446  1.5194  0.6925
    8SAPS   C29  984   2.608   1.560   6.079  0.0761  0.5929  0.1269
    8SAPS   H9R  985   2.692   1.518   6.135 -1.2288 -0.8340  1.1192
    8SAPS  C210  986   2.622   1.629   5.948 -0.2640  1.1738  0.1932
    8SAPS  H10R  987   2.721   1.678   5.956  1.1526 -1.6055  0.6927
    8SAPS  H10S  988   2.546   1.707   5.925  1.3869  2.6721 -0.4572
    8SAPS  C211  989   2.628   1.534   5.827 -0.2398  0.1218 -0.2012
    8SAPS  H11R  990   2.572   1.440   5.836 -2.4030  1.3493 -0.1261
    8SAPS  C212  991   2.671   1.562   5.699  0.1816  0.4750  0.3112
    8SAPS  H12R  992   2.673   1.491   5.616  2.6928  1.5317 -0.6230
    8SAPS  C213  993   2.746   1.687   5.657 -0.4215  0.0534 -0.8484
    8SAPS  H13R  994   2.851   1.664   5.627  0.8900  2.9812  0.9273
    8SAPS  H13S  995   2.765   1.738   5.754  0.2472 -1.8476  0.0518
    8SAPS  C214  996   2.671   1.775   5.568  0.5492 -0.0331  0.0612
    8SAPS  H14R  997   2.568   1.744   5.546  1.2689 -1.0168 -2.3099
    8SAPS  C215  998   2.705   1.905   5.548 -0.1765 -0.7566  0.0562
    8SAPS  H15R  999   2.649   1.980   5.490  0.0981 -0.4567  0.1767
    8SAPS  C216 1000   2.834   1.959   5.609  0.3590 -0.2020 -0.2217
    8SAPS  H16R 1001   2.884   2.027   5.537  0.7467  0.0334  0.2641
    8SAPS  H16S 1002   2.911   1.878   5.613  1.7771  1.0929 -0.4339
    8SAPS  C217 1003   2.808   2.048   5.729  0.1448  0.3074 -0.5397
    8SAPS  H17R 1004   2.739   1.997   5.799 -0.4679 -0.5518 -1.7330
    8SAPS  H17S 1005   2.758   2.141   5.693 -0.4281  0.8324  1.5000
    8SAPS  C218 1006   2.935   2.080   5.805  0.2564 -0.3295 -0.8648
    8SAPS  H18R 1007   2.919   2.171   5.867  4.1455  0.6107 -0.9876
    8SAPS  H18S 1008   3.016   2.109   5.735  0.2898  0.0628 -0.6690
    8SAPS  C219 1009   2.984   1.959   5.886  0.2919  0.2964  0.3802
    8SAPS  H19R 1010   3.094   1.966   5.892  0.4360 -0.5214 -0.8610
    8SAPS  H19S 1011   2.960   1.862   5.837 -0.7366  0.9263 -0.3945
    8SAPS  C220 1012   2.927   1.950   6.032 -0.0544 -0.1546 -0.0104
    8SAPS  H20R 1013   2.951   2.046   6.083 -0.0036 -0.7210  1.0610
    8SAPS  H20S 1014   2.972   1.871   6.096 -1.7877  0.6476  2.3500
    8SAPS  H20T 1015   2.817   1.942   6.043 -0.6513  1.5640 -3.3636
    8SAPS   C33 1016   3.105   2.050   6.461 -0.3883  0.1271 -0.2346
    8SAPS   H3X 1017   3.148   1.952   6.434  2.0741  0.9366  0.4931
    8SAPS   H3Y 1018   3.168   2.082   6.547 -1.7509 -0.7888  1.1608
    8SAPS   C34 1019   3.123   2.134   6.341  0.4816  0.2560  0.0852
    8SAPS   H4X 1020   3.058   2.222   6.362  1.1079  0.9456 -0.7937
    8SAPS   H4Y 1021   3.083   2.080   6.253 -0.5654 -1.8962  1.7717
    8SAPS   C35 1022   3.272   2.171   6.324  0.0037  0.3390  0.0607
    8SAPS   H5X 1023   3.335   2.079   6.331 -1.0706 -0.3131  1.7669
    8SAPS   H5Y 1024   3.303   2.223   6.417  1.8638  1.1114 -0.9422
    8SAPS   C36 1025   3.310   2.260   6.208 -0.3993  0.6172 -0.8374
    8SAPS   H6X 1026   3.420   2.267   6.192  0.0787 -2.5732  0.4079
    8SAPS   H6Y 1027   3.270   2.360   6.238 -0.7562  0.5206 -0.9958
    8SAPS   C37 1028   3.261   2.215   6.069 -0.0613 -0.4912 -0.1606
    8SAPS   H7X 1029   3.150   2.222   6.069  0.0479  1.9790  0.4741
    8SAPS   H7Y 1030   3.282   2.106   6.067 -1.2815 -0.9307  3.6240
    8SAPS   C38 1031   3.332   2.284   5.946  0.0099  0.0299  0.2040
    8SAPS   H8X 1032   3.440   2.265   5.965 -0.0591  0.1105  0.6849
    8SAPS   H8Y 1033   3.323   2.393   5.967 -1.1789 -0.2156  1.0759
    8SAPS   C39 1034   3.287   2.242   5.805 -0.1913  0.3210  0.2040
    8SAPS   H9X 1035   3.178   2.239   5.781  0.1031  0.8708 -1.3093
    8SAPS   H9Y 1036   3.328   2.141   5.784  1.4969  0.8512  0.7544
    8SAPS  C310 1037   3.350   2.331   5.695  0.0756  0.2391  0.3820
    8SAPS  H10X 1038   3.461   2.333   5.698  0.1374 -1.1536 -0.1730
    8SAPS  H10Y 1039   3.321   2.438   5.701  3.2413  1.3573 -1.6517
    8SAPS  C311 1040   3.310   2.277   5.558 -0.1061  0.4761  0.1010
    8SAPS  H11X 1041   3.199   2.283   5.549 -0.0941 -0.5264 -0.9246
    8SAPS  H11Y 1042   3.347   2.173   5.545  0.9123  0.9830 -1.2146
    8SAPS  C312 1043   3.377   2.367   5.457  0.1189  0.4563  0.0329
    8SAPS  H12X 1044   3.479   2.396   5.491 -0.0269 -0.9443  1.8141
    8SAPS  H12Y 1045   3.327   2.466   5.466 -0.6115  0.0814  0.2311
    8SAPS  C313 1046   3.371   2.336   5.305 -0.4076 -0.0381 -0.3195
    8SAPS  H13X 1047   3.275   2.284   5.284  0.0621 -0.1009 -2.6172
    8SAPS  H13Y 1048   3.453   2.265   5.281  0.1675  0.3722  0.3854
    8SAPS  C314 1049   3.374   2.457   5.210 -0.3870 -0.2035 -0.2958
    8SAPS  H14X 1050   3.451   2.525   5.253 -0.8431  1.0033 -1.3151
    8SAPS  H14Y 1051   3.284   2.522   5.215  0.2337  0.6525 -0.0134
    8SAPS  C315 1052   3.421   2.435   5.064 -0.7526  0.4852 -0.7608
    8SAPS  H15X 1053   3.502   2.358   5.064  0.1002  1.3300  0.8895
    8SAPS  H15Y 1054   3.468   2.516   5.004 -0.7977  0.3384 -0.9968
    8SAPS  C316 1055   3.306   2.369   4.988  0.3440  0.4054  0.0024
    8SAPS  H16X 1056   3.262   2.292   5.055 -0.8763  1.2439  0.1979
    8SAPS  H16Y 1057   3.344   2.328   4.892  0.6903 -2.0554  1.1222
    8SAPS  C317 1058   3.199   2.466   4.941 -0.0982  0.0215 -0.3593
    8SAPS  H17X 1059   3.149   2.504   5.033  1.5973 -0.4715  0.8102
    8SAPS  H17Y 1060   3.128   2.411   4.876  0.6361 -0.3471 -0.8507
    8SAPS  C318 1061   3.250   2.584   4.854  1.2697 -0.0945  0.0835
    8SAPS  H18X 1062   3.263   2.561   4.746 -1.1579  1.9631 -0.7516
    8SAPS  H18Y 1063   3.342   2.629   4.897  1.1318 -0.0413  0.3270
    8SAPS  H18Z 1064   3.174   2.664   4.852 -0.1426 -1.3688  0.5166
    9SAPS     N 1065   3.782   0.508   7.095  0.2622  0.4538  0.0535
    9SAPS   HN1 1066   3.795   0.483   7.195 -1.8062 -2.4347 -0.2805
    9SAPS   HN2 1067   3.681   0.494   7.077  0.0868 -0.3374  1.5043
    9SAPS   HN3 1068   3.834   0.430   7.050 -1.7433 -1.2348  0.5176
    9SAPS   C12 1069   3.850   0.642   7.067 -0.5629 -0.0412 -0.3728
    9SAPS  H12A 1070   3.798   0.715   7.127  0.4161  1.2110 -0.9981
    9SAPS   C13 1071   3.993   0.645   7.115  0.4212 -0.3258  0.0292
    9SAPS  O13A 1072   4.039   0.550   7.193 -0.0911 -0.0816  0.7153
    9SAPS  O13B 1073   4.058   0.754   7.101  0.1257  0.2378  0.5938
    9SAPS   C11 1074   3.836   0.669   6.917 -0.0929  0.0338 -0.5456
    9SAPS  H11A 1075   3.885   0.581   6.868  1.2894  1.7711 -2.4567
    9SAPS  H11B 1076   3.891   0.756   6.875 -3.0936  2.0449 -0.5516
    9SAPS     P 1077   3.623   0.819   6.860 -0.0690 -0.1551  0.2846
    9SAPS   O13 1078   3.481   0.804   6.901 -0.7337  0.2340 -0.0421
    9SAPS   O14 1079   3.706   0.918   6.933  0.5122 -0.1530  0.7595
    9SAPS   O12 1080   3.697   0.668   6.876 -0.1700 -0.4101  0.2569
    9SAPS   O11 1081   3.634   0.856   6.703 -0.2731  0.0057 -0.2808
    9SAPS    C1 1082   3.520   0.843   6.613 -0.3729  0.4563 -0.8088
    9SAPS    HA 1083   3.428   0.891   6.653 -0.7174 -0.5551 -0.3615
    9SAPS    HB 1084   3.548   0.900   6.522  1.0082 -0.3529 -0.9280
    9SAPS    C2 1085   3.486   0.689   6.592 -0.1665 -0.2026 -0.3052
    9SAPS    HS 1086   3.462   0.648   6.692  1.6280  0.0009  0.2522
    9SAPS   O21 1087   3.609   0.625   6.544 -0.1222 -0.0607  0.8945
    9SAPS   C21 1088   3.613   0.498   6.552  0.8928  0.0333 -1.0351
    9SAPS   O22 1089   3.533   0.423   6.600 -0.2909 -0.1056 -0.1486
    9SAPS   C22 1090   3.741   0.445   6.485 -0.5687 -0.4448  0.0188
    9SAPS   H2R 1091   3.792   0.530   6.436 -1.4199  0.7350  1.1054
    9SAPS   H2S 1092   3.794   0.400   6.572 -0.5689  3.0766  2.0403
    9SAPS    C3 1093   3.364   0.670   6.501  0.4716 -0.0724  0.0587
    9SAPS    HX 1094   3.274   0.717   6.545  1.5735  2.6158 -0.3865
    9SAPS    HY 1095   3.334   0.563   6.496 -0.5225  0.2286 -0.7380
    9SAPS   O31 1096   3.388   0.727   6.369  0.3137 -0.1748 -0.3603
    9SAPS   C31 1097   3.411   0.638   6.270  0.0287 -0.0359  0.3356
    9SAPS   O32 1098   3.398   0.518   6.279 -0.2402 -0.3737  0.4132
    9SAPS   C32 1099   3.467   0.710   6.147 -0.6826  0.2019  0.3905
    9SAPS   H2X 1100   3.576   0.722   6.134  0.3652 -0.3598  5.9352
    9SAPS   H2Y 1101   3.437   0.817   6.157  0.1269  0.3795  0.9757
    9SAPS   C23 1102   3.722   0.327   6.385  0.0480  0.5170  0.7782
    9SAPS   H3R 1103   3.686   0.366   6.288 -1.3790 -0.2004  0.9913
    9SAPS   H3S 1104   3.653   0.255   6.434  0.6437 -0.4316  0.2509
    9SAPS   C24 1105   3.859   0.264   6.355 -0.2855 -0.6391  0.2941
    9SAPS   H4R 1106   3.906   0.240   6.452 -0.3013 -3.0524 -0.2373
    9SAPS   H4S 1107   3.928   0.328   6.295 -1.7492 -0.2068 -1.0255
    9SAPS   C25 1108   3.844   0.131   6.281 -0.5983 -0.0832  0.2606
    9SAPS   H5R 1109   3.827   0.046   6.349  0.8026 -1.1882 -0.6971
    9SAPS   C26 1110   3.804   0.123   6.150  0.2170  0.6259 -0.4119
    9SAPS   H6R 1111   3.804   0.017   6.120  1.8231  0.4179  0.1990
    9SAPS   C27 1112   3.784   0.248   6.060 -0.5642  0.4615 -0.1865
    9SAPS   H7R 1113   3.877   0.307   6.067 -0.8989  0.9377  0.3472
    9SAPS   H7S 1114   3.703   0.316   6.094 -0.8647  1.0472 -2.0014
    9SAPS   C28 1115   3.755   0.218   5.913  0.8068 -0.1753  0.6234
    9SAPS   H8R 1116   3.657   0.245   5.869  0.9328 -1.3444 -0.4187
    9SAPS   C29 1117   3.855   0.182   5.829 -0.2891 -0.1413  0.1034
    9SAPS   H9R 1118   3.839   0.178   5.720  0.6532  0.1012 -0.0530
    9SAPS  C210 1119   4.006   0.156   5.872 -0.3808  0.6546  0.1133
    9SAPS  H10R 1120   4.021   0.173   5.981 -0.2119 -2.9669  0.7642
    9SAPS  H10S 1121   4.080   0.222   5.822  2.5494  0.3754  3.6566
    9SAPS  C211 1122   4.059   0.010   5.859  0.8268 -0.9092  0.2827
    9SAPS  H11R 1123   4.064  -0.049   5.951 -1.5673 -1.9201 -0.1536
    9SAPS  C212 1124   4.108  -0.040   5.748 -0.3720  0.5313  0.5973
    9SAPS  H12R 1125   4.149  -0.142   5.756  0.4337  0.4175 -3.1611
    9SAPS  C213 1126   4.103   0.023   5.615  0.3203  0.0542 -0.0030
    9SAPS  H13R 1127   4.154  -0.044   5.543 -1.7118  2.2421 -3.7897
    9SAPS  H13S 1128   4.167   0.114   5.615  1.4822 -0.6841  2.4617
    9SAPS  C214 1129   3.970   0.032   5.547 -0.2966  0.4167 -0.6148
    9SAPS  H14R 1130   3.890  -0.023   5.599  1.3374 -1.3753  0.1376
    9SAPS  C215 1131   3.954   0.080   5.427 -0.1085  0.0423  0.2052
    9SAPS  H15R 1132   3.850   0.092   5.392  0.0907 -2.4921 -1.5564
    9SAPS  C216 1133   4.055   0.133   5.325  0.4650 -0.2292  0.2495
    9SAPS  H16R 1134   4.157   0.148   5.365  0.5453 -0.2919  0.0715
    9SAPS  H16S 1135   4.033   0.240   5.305  0.1020 -0.2878  0.3302
    9SAPS  C217 1136   4.057   0.067   5.181  0.0518  0.4650 -0.0991
    9SAPS  H17R 1137   3.955   0.029   5.160  0.4703 -0.5475 -0.3573
    9SAPS  H17S 1138   4.129  -0.017   5.176 -0.3693  0.1016 -0.0952
    9SAPS  C218 1139   4.092   0.165   5.062  0.2039  0.2848 -0.6344
    9SAPS  H18R 1140   4.197   0.198   5.075 -0.0701  1.1100 -0.4880
    9SAPS  H18S 1141   4.021   0.250   5.064  1.2959  1.2197 -0.1408
    9SAPS  C219 1142   4.085   0.071   4.937 -0.2987 -0.2230  0.0038
    9SAPS  H19R 1143   3.987   0.019   4.943 -0.8608  0.7243 -0.6355
    9SAPS  H19S 1144   4.159  -0.012   4.945  0.2346  0.4589  3.2857
    9SAPS  C220 1145   4.110   0.139   4.802  0.2701 -0.1013  0.0246
    9SAPS  H20R 1146   4.047   0.231   4.802  0.8490  0.3071 -0.0632
    9SAPS  H20S 1147   4.088   0.080   4.711  1.6528 -0.1906 -0.2722
    9SAPS  H20T 1148   4.214   0.178   4.798  1.2036 -2.5283 -0.8770
    9SAPS   C33 1149   3.413   0.646   6.015  0.2549  0.1245 -0.3645
    9SAPS   H3X 1150   3.304   0.624   6.015  0.2995 -0.1163 -0.9039
    9SAPS   H3Y 1151   3.472   0.554   5.995  2.4154  1.0807  1.2423
    9SAPS   C34 1152   3.435   0.738   5.901  0.3075  0.6869  0.5756
    9SAPS   H4X 1153   3.544   0.759   5.898  0.2991  0.6701 -2.2258
    9SAPS   H4Y 1154   3.375   0.831   5.906  0.4531  0.7225  3.4091
    9SAPS   C35 1155   3.412   0.664   5.760  0.0981 -0.4972 -0.8661
    9SAPS   H5X 1156   3.305   0.637   5.741 -0.5662  1.5352 -0.2501
    9SAPS   H5Y 1157   3.474   0.572   5.751  0.0482 -0.6920  0.6360
    9SAPS   C36 1158   3.447   0.773   5.658 -0.0565  0.2703 -0.1270
    9SAPS   H6X 1159   3.554   0.801   5.675 -0.0124 -0.6033  1.2460
    9SAPS   H6Y 1160   3.377   0.858   5.668 -0.3266  0.1890 -1.2719
    9SAPS   C37 1161   3.452   0.721   5.516 -0.6035 -0.1873 -0.5138
    9SAPS   H7X 1162   3.349   0.704   5.480 -0.6107 -2.1600  0.3397
    9SAPS   H7Y 1163   3.511   0.627   5.514  0.1883  0.2479  0.8033
    9SAPS   C38 1164   3.495   0.834   5.411  0.4970  0.1097 -1.2324
    9SAPS   H8X 1165   3.594   0.872   5.442 -0.7006  1.8492  0.7731
    9SAPS   H8Y 1166   3.410   0.906   5.411 -0.0717 -0.5188 -0.0602
    9SAPS   C39 1167   3.506   0.764   5.274  0.3441 -0.2241 -0.0485
    9SAPS   H9X 1168   3.405   0.723   5.253  0.4220 -0.1710 -0.5361
    9SAPS   H9Y 1169   3.581   0.683   5.285  0.6427 -0.0189 -0.5423
    9SAPS  C310 1170   3.567   0.855   5.166 -0.2174  0.1430  0.1588
    9SAPS  H10X 1171   3.658   0.902   5.208 -1.5370  2.4898  0.5716
    9SAPS  H10Y 1172   3.488   0.932   5.149 -0.5159  0.5462  2.9323
    9SAPS  C311 1173   3.592   0.771   5.038 -0.0216  0.1830  0.4957
    9SAPS  H11X 1174   3.497   0.719   5.014 -0.6151  2.3033 -2.2861
    9SAPS  H11Y 1175   3.678   0.704   5.057 -2.2865 -2.5783  1.7277
    9SAPS  C312 1176   3.633   0.852   4.919 -0.4236 -0.4388 -0.7497
    9SAPS  H12X 1177   3.721   0.917   4.940 -0.6831  0.1392 -1.3954
    9SAPS  H12Y 1178   3.551   0.921   4.891  1.0799  1.2392 -1.2810
    9SAPS  C313 1179   3.663   0.765   4.795 -0.1678  0.1565  0.2585
    9SAPS  H13X 1180   3.574   0.707   4.763  0.4637 -0.2290 -0.8581
    9SAPS  H13Y 1181   3.743   0.695   4.828 -1.1964 -2.3566 -2.2003
    9SAPS  C314 1182   3.691   0.850   4.671 -0.6669  0.8330 -0.0058
    9SAPS  H14X 1183   3.786   0.906   4.683 -0.9419  1.1622  0.6845
    9SAPS  H14Y 1184   3.611   0.927   4.670  0.1619  1.7123 -0.9954
    9SAPS  C315 1185   3.683   0.775   4.542  0.5735  0.9114  0.2430
    9SAPS  H15X 1186   3.596   0.707   4.550 -0.0108  1.4545 -1.1525
    9SAPS  H15Y 1187   3.777   0.718   4.532  0.6812  0.7177  2.0075
    9SAPS  C316 1188   3.652   0.861   4.423  0.4536 -0.3914 -0.1843
    9SAPS  H16X 1189   3.557   0.915   4.442  1.2878  1.5801 -1.2798
    9SAPS  H16Y 1190   3.648   0.811   4.324  2.0972  1.6323 -1.3575
    9SAPS  C317 1191   3.770   0.955   4.395  0.3174  0.2387  0.0779
    9SAPS  H17X 1192   3.854   0.882   4.385  0.1874  0.2794 -1.5853
    9SAPS  H17Y 1193   3.786   1.026   4.479 -2.5304  1.2930 -0.1809
    9SAPS  C318 1194   3.765   1.029   4.265  0.2059  0.0303 -0.0545
    9SAPS  H18X 1195   3.739   0.964   4.179  0.4849  1.5389 -1.3152
    9SAPS  H18Y 1196   3.865   1.067   4.236  1.2332 -1.8671  0.8663
    9SAPS  H18Z 1197   3.696   1.116   4.277  0.1240 -0.2048  1.3992
   10SAPS     N 1198   2.721   6.517   7.128  0.2226  0.5335  0.4715
   10SAPS   HN1 1199   2.690   6.467   7.214  3.8495 -0.1876  1.4979
   10SAPS   HN2 1200   2.780   6.453   7.071 -0.2016 -0.4962  1.1573
   10SAPS   HN3 1201   2.778   6.597   7.162 -0.8598  1.1455  0.9122
   10SAPS   C12 1202   2.606   6.556   7.054  0.1236 -0.7945 -0.0757
   10SAPS  H12A 1203   2.643   6.577   6.955 -0.8398  3.5771  0.3036
   10SAPS   C13 1204   2.494   6.443   7.059 -0.3003  1.1084  0.5147
   10SAPS  O13A 1205   2.515   6.340   7.128  0.1323  1.0088 -0.3006
   10SAPS  O13B 1206   2.406   6.452   6.973  0.1155  0.7640 -0.4016
   10SAPS   C11 1207   2.555   6.693   7.112  0.1523  0.1990  0.2088
   10SAPS  H11A 1208   2.518   6.676   7.215  0.5129  1.3781  0.5517
   10SAPS  H11B 1209   2.481   6.743   7.044 -0.1566 -0.3533  0.1344
   10SAPS     P 1210   2.628   6.932   7.189  0.3448 -0.3355  0.2192
   10SAPS   O13 1211   2.526   6.913   7.300 -0.4615 -0.0558  0.2338
   10SAPS   O14 1212   2.751   7.004   7.222 -0.3012 -0.4947  0.4262
   10SAPS   O12 1213   2.666   6.783   7.117  0.3818  0.1294 -0.3758
   10SAPS   O11 1214   2.559   7.020   7.078 -0.0226 -0.1954 -0.4959
   10SAPS    C1 1215   2.632   7.039   6.956  0.1060 -0.5488 -0.5334
   10SAPS    HA 1216   2.728   7.090   6.978 -0.5795  0.6974 -0.3213
   10SAPS    HB 1217   2.638   6.937   6.913  0.5430 -1.5926  1.8775
   10SAPS    C2 1218   2.545   7.123   6.862 -0.1428  0.1695  0.6612
   10SAPS    HS 1219   2.502   7.208   6.919 -1.5997  0.4323 -0.7307
   10SAPS   O21 1220   2.433   7.039   6.818  0.8240 -0.0676  0.0288
   10SAPS   C21 1221   2.319   7.116   6.794  0.4617  1.2458 -0.6406
   10SAPS   O22 1222   2.306   7.236   6.805  0.3762  0.2500 -0.6647
   10SAPS   C22 1223   2.210   7.024   6.747  0.0078 -0.9095 -0.4907
   10SAPS   H2R 1224   2.213   6.918   6.780 -0.2466 -1.1245 -1.1258
   10SAPS   H2S 1225   2.117   7.061   6.795  2.4701 -1.5291  5.6443
   10SAPS    C3 1226   2.625   7.178   6.739  0.3780 -0.4771  1.2332
   10SAPS    HX 1227   2.648   7.093   6.672 -1.7036  0.8990 -1.4404
   10SAPS    HY 1228   2.721   7.216   6.780  0.7532  0.7133 -0.6452
   10SAPS   O31 1229   2.556   7.286   6.666  0.0006 -0.2597 -0.2001
   10SAPS   C31 1230   2.630   7.353   6.576 -0.3437  0.0702  0.3752
   10SAPS   O32 1231   2.750   7.336   6.560 -0.4533 -0.2526  0.5085
   10SAPS   C32 1232   2.531   7.438   6.501 -0.7364  0.1096 -0.2472
   10SAPS   H2X 1233   2.522   7.524   6.571  0.9457  0.9126 -0.9692
   10SAPS   H2Y 1234   2.437   7.381   6.487 -1.0512  0.4539  0.4563
   10SAPS   C23 1235   2.189   7.048   6.599  0.3527  0.5689  0.3771
   10SAPS   H3R 1236   2.213   7.153   6.570 -1.1225  1.0766  0.8722
   10SAPS   H3S 1237   2.082   7.047   6.568  1.1762 -1.2675 -2.8407
   10SAPS   C24 1238   2.262   6.943   6.505  0.3171  0.2164  0.1744
   10SAPS   H4R 1239   2.198   6.920   6.417  0.3907 -0.0126  0.1793
   10SAPS   H4S 1240   2.266   6.850   6.566 -1.6269  0.7605  1.2066
   10SAPS   C25 1241   2.394   7.003   6.463 -0.3395 -0.6489 -0.1764
   10SAPS   H5R 1242   2.451   7.033   6.552 -0.2743 -0.1735 -0.3758
   10SAPS   C26 1243   2.446   7.016   6.336  0.0581 -0.5035 -1.0469
   10SAPS   H6R 1244   2.540   7.072   6.322 -1.4004  2.2796 -0.5186
   10SAPS   C27 1245   2.374   6.979   6.212  0.4898  0.5451 -0.0837
   10SAPS   H7R 1246   2.391   7.051   6.129 -0.0422 -0.2761 -0.9237
   10SAPS   H7S 1247   2.266   6.980   6.241  0.8936  0.2064  1.5237
   10SAPS   C28 1248   2.415   6.842   6.171 -0.0650 -0.4642 -0.0266
   10SAPS   H8R 1249   2.409   6.767   6.252  2.2419 -1.0825 -0.3525
   10SAPS   C29 1250   2.452   6.809   6.045 -0.0310  0.1226 -0.4104
   10SAPS   H9R 1251   2.492   6.708   6.027  1.4158  0.7035 -0.5811
   10SAPS  C210 1252   2.476   6.895   5.925 -0.0590 -0.7173 -0.5232
   10SAPS  H10R 1253   2.388   6.959   5.905  0.1368 -0.2172  0.1842
   10SAPS  H10S 1254   2.494   6.833   5.834  0.8338 -1.3036  0.0338
   10SAPS  C211 1255   2.599   6.986   5.949 -0.9077 -0.0589 -0.0504
   10SAPS  H11R 1256   2.619   6.997   6.057 -0.9120 -2.0691  0.2076
   10SAPS  C212 1257   2.688   7.033   5.858  0.0875 -0.2327  0.7676
   10SAPS  H12R 1258   2.770   7.093   5.900 -0.2394  1.2954 -0.6595
   10SAPS  C213 1259   2.690   7.007   5.709  0.2623 -0.5019 -0.1317
   10SAPS  H13R 1260   2.742   6.911   5.691  0.3717 -0.5929  0.6364
   10SAPS  H13S 1261   2.753   7.090   5.670  0.1929 -0.9991 -1.3382
   10SAPS  C214 1262   2.564   7.013   5.629 -0.1169 -0.6553 -0.0052
   10SAPS  H14R 1263   2.476   7.007   5.695 -0.1410  0.4919  0.0918
   10SAPS  C215 1264   2.550   7.031   5.495  0.5903  0.0999  0.2086
   10SAPS  H15R 1265   2.454   7.016   5.444  0.6376  0.5569 -0.0220
   10SAPS  C216 1266   2.663   7.062   5.402 -0.0317 -0.2322 -0.2819
   10SAPS  H16R 1267   2.764   7.034   5.440 -0.5271  1.9294  3.0354
   10SAPS  H16S 1268   2.668   7.173   5.398 -0.2749 -0.2365 -0.7806
   10SAPS  C217 1269   2.622   6.995   5.268  0.3411 -0.4096  0.2483
   10SAPS  H17R 1270   2.533   7.044   5.224  1.1454  0.0743 -0.8815
   10SAPS  H17S 1271   2.616   6.885   5.286  0.5949 -0.6632 -1.1167
   10SAPS  C218 1272   2.737   6.997   5.164 -0.3811 -0.3117  0.4202
   10SAPS  H18R 1273   2.788   7.096   5.166  0.3606 -0.6902  0.6038
   10SAPS  H18S 1274   2.697   6.988   5.061 -0.9460  2.0386  0.3903
   10SAPS  C219 1275   2.843   6.887   5.197  0.6900  0.2335  0.2416
   10SAPS  H19R 1276   2.785   6.795   5.174 -2.0886  2.2233 -1.5018
   10SAPS  H19S 1277   2.851   6.883   5.307 -2.2375 -0.6544  0.5222
   10SAPS  C220 1278   2.972   6.904   5.117 -0.7452 -0.0351 -0.4653
   10SAPS  H20R 1279   3.034   6.815   5.138  0.0611  0.2139 -1.6483
   10SAPS  H20S 1280   3.030   6.997   5.135 -1.5147  0.4356 -0.3898
   10SAPS  H20T 1281   2.943   6.904   5.010  2.0201 -0.1532 -1.3024
   10SAPS   C33 1282   2.582   7.478   6.359 -0.4136 -0.0876  0.7476
   10SAPS   H3X 1283   2.685   7.518   6.366 -0.7170  1.7801 -3.0215
   10SAPS   H3Y 1284   2.522   7.560   6.313  0.1272 -1.0191 -1.7786
   10SAPS   C34 1285   2.589   7.358   6.259  0.1976  0.7480 -0.6315
   10SAPS   H4X 1286   2.505   7.285   6.265  2.1800 -1.5608  1.3255
   10SAPS   H4Y 1287   2.677   7.293   6.277  0.5008  1.6206  1.1956
   10SAPS   C35 1288   2.605   7.400   6.110 -0.2994  0.5016 -1.1921
   10SAPS   H5X 1289   2.633   7.304   6.063  1.7407 -0.0012  0.8574
   10SAPS   H5Y 1290   2.688   7.474   6.115 -0.8094  0.9833  1.7191
   10SAPS   C36 1291   2.481   7.459   6.052  0.3037  0.1722  0.2908
   10SAPS   H6X 1292   2.445   7.555   6.095 -2.5276  0.0244 -1.4778
   10SAPS   H6Y 1293   2.393   7.400   6.084 -0.3417  1.4296  0.9399
   10SAPS   C37 1294   2.481   7.470   5.899  0.2311 -0.1062  0.3879
   10SAPS   H7X 1295   2.395   7.531   5.866 -0.8809 -1.7150  0.1975
   10SAPS   H7Y 1296   2.468   7.369   5.855  1.3522 -0.1070  0.0308
   10SAPS   C38 1297   2.616   7.517   5.833  0.7818  0.4736  0.5059
   10SAPS   H8X 1298   2.709   7.473   5.875  0.6920 -0.2428 -0.0329
   10SAPS   H8Y 1299   2.630   7.626   5.852 -0.9510  0.6654  0.8003
   10SAPS   C39 1300   2.619   7.487   5.677  0.2566  0.0769  0.5881
   10SAPS   H9X 1301   2.601   7.378   5.670  2.3132 -0.4276  2.2288
   10SAPS   H9Y 1302   2.724   7.503   5.643 -0.0124 -0.0193 -0.2979
   10SAPS  C310 1303   2.520   7.577   5.598 -0.3938  0.3791  0.8557
   10SAPS  H10X 1304   2.551   7.682   5.618  2.0444  0.1885 -1.3022
   10SAPS  H10Y 1305   2.419   7.547   5.633 -1.1512 -0.2142 -1.6326
   10SAPS  C311 1306   2.519   7.560   5.448  0.1846  0.3155 -0.2044
   10SAPS  H11X 1307   2.418   7.562   5.403  0.4526 -0.6715 -0.8878
   10SAPS  H11Y 1308   2.534   7.453   5.423  0.5849  0.2243  0.3788
   10SAPS  C312 1309   2.599   7.665   5.359  0.4513  0.6616  0.0881
   10SAPS  H12X 1310   2.701   7.683   5.398  0.0139  2.1843  0.5899
   10SAPS  H12Y 1311   2.533   7.754   5.354 -2.3502 -1.1840  1.6368
   10SAPS  C313 1312   2.597   7.618   5.209 -0.5559  0.0176 -0.0198
   10SAPS  H13X 1313   2.493   7.624   5.169 -0.3488  0.4626 -0.5026
   10SAPS  H13Y 1314   2.634   7.513   5.203 -2.0075 -0.5683  0.7949
   10SAPS  C314 1315   2.687   7.706   5.116  0.1636  0.3179 -0.1119
   10SAPS  H14X 1316   2.791   7.703   5.155  0.0040  0.7512  0.3705
   10SAPS  H14Y 1317   2.647   7.809   5.130  0.3820  0.4529 -0.4688
   10SAPS  C315 1318   2.684   7.671   4.966 -0.2334 -0.2052 -0.3990
   10SAPS  H15X 1319   2.724   7.762   4.916  1.4892 -1.3504 -1.2099
   10SAPS  H15Y 1320   2.576   7.674   4.940 -0.6683  3.9465  1.1317
   10SAPS  C316 1321   2.769   7.557   4.922  0.5190  0.3751 -0.7455
   10SAPS  H16X 1322   2.756   7.463   4.980 -1.8982  0.7910 -0.4830
   10SAPS  H16Y 1323   2.872   7.595   4.934 -0.1305  1.6566  1.4480
   10SAPS  C317 1324   2.747   7.513   4.778 -0.1381  0.1262 -0.0534
   10SAPS  H17X 1325   2.832   7.447   4.752  0.4231 -0.5848  3.1565
   10SAPS  H17Y 1326   2.761   7.605   4.716  0.9061 -0.2127 -0.3477
   10SAPS  C318 1327   2.613   7.445   4.758  0.2931 -0.2824 -0.3477
   10SAPS  H18X 1328   2.534   7.517   4.788  1.0640 -0.8424  3.5925
   10SAPS  H18Y 1329   2.613   7.358   4.827  0.8401 -0.1312 -0.1508
   10SAPS  H18Z 1330   2.596   7.423   4.651  0.0857 -1.4688 -0.0824
   11SAPS     N 1331   5.870   5.854   2.679 -0.1477 -0.0340  0.0060
   11SAPS   HN1 1332   5.957   5.906   2.702 -0.6624 -0.2677  2.8916
   11SAPS   HN2 1333   5.824   5.822   2.766 -0.4838 -2.8829 -1.1255
   11SAPS   HN3 1334   5.888   5.773   2.616 -2.1162 -0.9544  0.5453
   11SAPS   C12 1335   5.766   5.940   2.611  0.3281  0.2932  0.3028
   11SAPS  H12A 1336   5.749   6.022   2.679  1.1502  0.6942  0.0367
   11SAPS   C13 1337   5.820   6.012   2.480  0.1228 -0.0799 -0.1989
   11SAPS  O13A 1338   5.943   5.994   2.447 -0.3686  1.0954 -0.9800
   11SAPS  O13B 1339   5.740   6.074   2.406 -0.3570  0.2168  0.7035
   11SAPS   C11 1340   5.636   5.855   2.579 -0.3687 -0.6249  0.4205
   11SAPS  H11A 1341   5.663   5.754   2.541  0.4051  0.4551 -2.1865
   11SAPS  H11B 1342   5.573   5.896   2.497  2.4067 -0.3549 -1.7257
   11SAPS     P 1343   5.416   5.776   2.696 -0.2215 -0.3505  0.2386
   11SAPS   O13 1344   5.338   5.827   2.809 -0.2579 -0.3505  1.0174
   11SAPS   O14 1345   5.351   5.786   2.564 -0.5187  0.8087 -0.0731
   11SAPS   O12 1346   5.559   5.852   2.704  0.8517 -0.0380 -0.5901
   11SAPS   O11 1347   5.457   5.622   2.718 -0.0300 -0.0269  0.3452
   11SAPS    C1 1348   5.541   5.577   2.825 -0.4777 -1.0125 -0.0901
   11SAPS    HA 1349   5.579   5.473   2.811 -0.2387 -0.6391 -2.8622
   11SAPS    HB 1350   5.625   5.650   2.834 -2.2461  1.3510 -1.7331
   11SAPS    C2 1351   5.458   5.571   2.950  0.0858  0.5934  0.1373
   11SAPS    HS 1352   5.421   5.672   2.980 -2.1648  0.1568 -0.9710
   11SAPS   O21 1353   5.537   5.508   3.052 -0.1470 -0.1355  0.0489
   11SAPS   C21 1354   5.593   5.593   3.136 -0.2026 -0.1989 -0.0484
   11SAPS   O22 1355   5.591   5.714   3.141 -0.2556 -0.7278  0.3605
   11SAPS   C22 1356   5.689   5.517   3.224 -0.2966 -0.6358 -0.2265
   11SAPS   H2R 1357   5.635   5.438   3.280  2.3146 -1.4334  1.3362
   11SAPS   H2S 1358   5.775   5.460   3.182  0.6143 -1.2443  2.2738
   11SAPS    C3 1359   5.331   5.483   2.916 -0.2162  0.1691  0.2539
   11SAPS    HX 1360   5.370   5.389   2.870  1.2802  0.4499  0.8876
   11SAPS    HY 1361   5.274   5.524   2.831  0.5626 -0.5748 -0.6560
   11SAPS   O31 1362   5.245   5.473   3.034 -0.1734 -0.3925  0.2970
   11SAPS   C31 1363   5.217   5.354   3.070  0.3382 -0.6431 -0.7341
   11SAPS   O32 1364   5.257   5.252   3.020  0.2867 -0.3065 -0.0972
   11SAPS   C32 1365   5.129   5.347   3.195 -0.0281  0.2004 -0.8757
   11SAPS   H2X 1366   5.040   5.300   3.147 -0.5532 -0.3174  0.5337
   11SAPS   H2Y 1367   5.086   5.445   3.226 -2.0532 -0.9403  0.1423
   11SAPS   C23 1368   5.760   5.610   3.322 -0.1625  0.3837  0.4903
   11SAPS   H3R 1369   5.684   5.661   3.385  0.4036  0.1619  1.3624
   11SAPS   H3S 1370   5.819   5.688   3.268  2.1172 -0.2418  1.9558
   11SAPS   C24 1371   5.867   5.539   3.397 -0.0008 -0.1102  0.3915
   11SAPS   H4R 1372   5.948   5.524   3.323  0.9315 -2.1966  1.7560
   11SAPS   H4S 1373   5.828   5.445   3.440 -0.4864  0.0190  0.2436
   11SAPS   C25 1374   5.909   5.634   3.503  0.0679  0.0048  0.3085
   11SAPS   H5R 1375   5.887   5.740   3.482 -0.6149  0.0674  1.2822
   11SAPS   C26 1376   5.957   5.588   3.624  0.2338  0.4025  0.4510
   11SAPS   H6R 1377   5.990   5.666   3.694 -1.5729  0.0849  1.7166
   11SAPS   C27 1378   5.992   5.447   3.671  0.2878  0.1009  0.3022
   11SAPS   H7R 1379   5.958   5.365   3.604  0.5020  0.4697 -0.2636
   11SAPS   H7S 1380   5.922   5.418   3.752 -0.7301  1.2704 -0.1182
   11SAPS   C28 1381   6.134   5.432   3.692 -0.3737  0.0350 -0.0905
   11SAPS   H8R 1382   6.190   5.455   3.599 -2.3279  1.8848 -0.8831
   11SAPS   C29 1383   6.201   5.404   3.804 -0.5282  0.0394  0.8492
   11SAPS   H9R 1384   6.309   5.385   3.796 -0.5437  0.6503 -1.4372
   11SAPS  C210 1385   6.141   5.379   3.940  0.6459  1.0316  0.9022
   11SAPS  H10R 1386   6.145   5.271   3.964  1.3499  0.5432 -1.2141
   11SAPS  H10S 1387   6.032   5.398   3.927  0.3777 -1.2355 -0.8803
   11SAPS  C211 1388   6.198   5.457   4.055  0.7830  0.9020  0.2387
   11SAPS  H11R 1389   6.224   5.563   4.039  0.4648  0.6483 -2.3676
   11SAPS  C212 1390   6.225   5.398   4.177 -0.3494 -0.1457 -0.8108
   11SAPS  H12R 1391   6.245   5.466   4.262 -1.7385  0.0489 -0.6207
   11SAPS  C213 1392   6.204   5.256   4.220 -0.9532 -0.1979  0.1508
   11SAPS  H13R 1393   6.121   5.216   4.157 -0.2580 -1.6275  0.1037
   11SAPS  H13S 1394   6.154   5.250   4.319  0.6264 -1.4427  0.9117
   11SAPS  C214 1395   6.330   5.171   4.213 -0.2878 -1.0552 -0.4127
   11SAPS  H14R 1396   6.397   5.170   4.126  2.5584  1.2825  1.5529
   11SAPS  C215 1397   6.373   5.105   4.313  0.3341  0.3542 -0.7002
   11SAPS  H15R 1398   6.465   5.046   4.302  1.8100  2.8416 -2.5907
   11SAPS  C216 1399   6.305   5.088   4.444 -0.1486 -0.5841  0.1275
   11SAPS  H16R 1400   6.312   4.979   4.467  1.3786 -0.8451 -1.3644
   11SAPS  H16S 1401   6.199   5.120   4.441 -0.4463 -1.5741 -0.4275
   11SAPS  C217 1402   6.369   5.187   4.550 -0.2726  0.1557  0.3005
   11SAPS  H17R 1403   6.332   5.291   4.538  2.3042  1.0379 -0.5308
   11SAPS  H17S 1404   6.480   5.185   4.545 -0.2173  1.4696  0.6288
   11SAPS  C218 1405   6.323   5.165   4.695 -0.3828 -0.4539  0.0254
   11SAPS  H18R 1406   6.326   5.057   4.721  0.5910 -0.3496  0.3953
   11SAPS  H18S 1407   6.218   5.199   4.709 -0.1988 -0.6470  2.2679
   11SAPS  C219 1408   6.408   5.248   4.790 -0.7243 -0.2598 -0.4937
   11SAPS  H19R 1409   6.429   5.349   4.749  0.9507 -0.7327 -0.9022
   11SAPS  H19S 1410   6.511   5.210   4.776 -0.7818 -0.1580 -1.2588
   11SAPS  C220 1411   6.367   5.252   4.935 -0.0861 -0.2452  0.8833
   11SAPS  H20R 1412   6.426   5.330   4.988 -0.6815  0.5584  0.3930
   11SAPS  H20S 1413   6.382   5.153   4.981  2.1392  1.1076  3.3410
   11SAPS  H20T 1414   6.258   5.275   4.943 -0.8189 -3.3139  0.8429
   11SAPS   C33 1415   5.180   5.262   3.316 -0.7255 -0.4421  0.0501
   11SAPS   H3X 1416   5.208   5.164   3.271 -0.1213 -0.4593  0.4510
   11SAPS   H3Y 1417   5.096   5.247   3.386 -1.2072 -1.2764 -0.6818
   11SAPS   C34 1418   5.308   5.312   3.394 -0.0591 -0.8918  0.3496
   11SAPS   H4X 1419   5.378   5.353   3.318 -0.7019 -0.2553  0.0907
   11SAPS   H4Y 1420   5.350   5.225   3.448 -0.4663 -0.4480  1.4099
   11SAPS   C35 1421   5.281   5.424   3.492  0.9068 -0.1805 -0.2199
   11SAPS   H5X 1422   5.230   5.375   3.578  2.1616  0.2799  0.8234
   11SAPS   H5Y 1423   5.218   5.509   3.459  1.8772  0.2807 -0.9278
   11SAPS   C36 1424   5.399   5.492   3.553 -1.2954 -0.2632  0.3519
   11SAPS   H6X 1425   5.364   5.562   3.632  0.1568 -0.7593  1.4788
   11SAPS   H6Y 1426   5.449   5.552   3.475  0.0087  0.5829  1.7838
   11SAPS   C37 1427   5.523   5.413   3.610  0.5359  0.2365  0.0969
   11SAPS   H7X 1428   5.574   5.487   3.676 -1.1023  1.0407  0.5045
   11SAPS   H7Y 1429   5.586   5.372   3.527  1.2597 -1.2562  1.3387
   11SAPS   C38 1430   5.488   5.286   3.695  0.5740 -0.5765  0.3695
   11SAPS   H8X 1431   5.474   5.194   3.635  0.2818 -0.6074  0.4842
   11SAPS   H8Y 1432   5.402   5.301   3.764  1.5643 -0.9744  1.7553
   11SAPS   C39 1433   5.595   5.262   3.803 -0.5403 -0.2505 -0.4392
   11SAPS   H9X 1434   5.691   5.238   3.752 -1.5882 -1.5415 -1.8976
   11SAPS   H9Y 1435   5.568   5.178   3.870  0.9642  1.4627  2.5398
   11SAPS  C310 1436   5.617   5.382   3.907 -0.1096  0.3353  0.5423
   11SAPS  H10X 1437   5.523   5.426   3.948  0.7280  1.6621  1.1247
   11SAPS  H10Y 1438   5.679   5.461   3.859 -1.0127  0.5176 -0.3449
   11SAPS  C311 1439   5.683   5.345   4.036 -1.0549 -1.1908  0.0193
   11SAPS  H11X 1440   5.779   5.292   4.021 -1.4454 -1.7864 -0.4373
   11SAPS  H11Y 1441   5.625   5.270   4.094 -0.9287 -1.2623  0.0526
   11SAPS  C312 1442   5.705   5.465   4.137 -0.2635 -0.4554 -0.2068
   11SAPS  H12X 1443   5.610   5.524   4.134 -0.4549 -0.7965 -1.6106
   11SAPS  H12Y 1444   5.778   5.534   4.090  0.6134 -1.5075 -0.4162
   11SAPS  C313 1445   5.755   5.407   4.270  0.4377  0.8682  0.2254
   11SAPS  H13X 1446   5.830   5.327   4.254 -0.2287 -0.3240  2.6143
   11SAPS  H13Y 1447   5.674   5.353   4.324 -0.9778  0.0914 -2.5341
   11SAPS  C314 1448   5.822   5.515   4.356 -0.3606 -0.3858 -0.6575
   11SAPS  H14X 1449   5.756   5.601   4.378 -0.0025 -0.3502  0.3276
   11SAPS  H14Y 1450   5.894   5.565   4.288  0.6728  0.6903  1.1757
   11SAPS  C315 1451   5.886   5.454   4.477 -0.3609  0.2741  0.1542
   11SAPS  H15X 1452   5.970   5.523   4.497 -0.5585  1.2346 -1.9577
   11SAPS  H15Y 1453   5.940   5.364   4.441  0.1310 -0.0201  1.5816
   11SAPS  C316 1454   5.789   5.421   4.587  0.4039 -1.1850 -0.5279
   11SAPS  H16X 1455   5.711   5.367   4.528  0.0524  0.3702 -1.5351
   11SAPS  H16Y 1456   5.758   5.523   4.618 -0.4314 -0.8266 -2.4147
   11SAPS  C317 1457   5.862   5.331   4.685 -0.4706  0.3583  0.1585
   11SAPS  H17X 1458   5.897   5.239   4.634 -1.0380  0.5053 -0.5131
   11SAPS  H17Y 1459   5.795   5.314   4.772  1.3882  1.8303  2.0065
   11SAPS  C318 1460   5.995   5.382   4.728 -0.8381  0.2094 -0.2593
   11SAPS  H18X 1461   6.077   5.362   4.656  0.3316  0.6680  0.9171
   11SAPS  H18Y 1462   6.030   5.339   4.824  1.5809  1.1094 -0.6727
   11SAPS  H18Z 1463   5.993   5.492   4.743  0.0090  0.5548 -2.4197
   12SAPS     N 1464   4.802   3.397   2.319  0.4737  0.8109 -0.5869
   12SAPS   HN1 1465   4.853   3.351   2.242  1.9387  0.2665  0.6461
   12SAPS   HN2 1466   4.875   3.442   2.378 -0.9577  2.5069 -0.0125
   12SAPS   HN3 1467   4.751   3.325   2.374 -2.8069  2.5441 -1.0786
   12SAPS   C12 1468   4.704   3.506   2.291 -0.6175  0.2021  0.0895
   12SAPS  H12A 1469   4.760   3.593   2.261 -1.2340  0.0644 -1.5675
   12SAPS   C13 1470   4.610   3.477   2.175  0.2887 -0.4076  0.4253
   12SAPS  O13A 1471   4.610   3.371   2.107 -0.5202 -0.0206  0.2315
   12SAPS  O13B 1472   4.523   3.567   2.151 -0.1803 -0.0733 -0.0896
   12SAPS   C11 1473   4.627   3.537   2.421 -0.0485 -0.0679 -0.1540
   12SAPS  H11A 1474   4.577   3.445   2.457  0.5163  0.3084  1.6731
   12SAPS  H11B 1475   4.542   3.608   2.413  0.8663  1.3341  1.7972
   12SAPS     P 1476   4.745   3.753   2.525 -0.0508 -0.3209  0.2003
   12SAPS   O13 1477   4.884   3.783   2.489 -0.4467 -0.3576  0.0843
   12SAPS   O14 1478   4.634   3.827   2.451 -0.3615  0.1533  0.6993
   12SAPS   O12 1479   4.714   3.598   2.519 -0.0225 -0.3025 -0.3014
   12SAPS   O11 1480   4.724   3.776   2.678  0.1417 -0.0799  0.0949
   12SAPS    C1 1481   4.788   3.693   2.770  0.4115  0.1184 -0.5998
   12SAPS    HA 1482   4.716   3.632   2.829 -0.2368  2.5707  1.3218
   12SAPS    HB 1483   4.865   3.622   2.733 -0.1568 -0.7187 -0.2176
   12SAPS    C2 1484   4.854   3.773   2.890  0.1379  0.1532 -0.3682
   12SAPS    HS 1485   4.889   3.695   2.960  1.0615  2.0008  1.3257
   12SAPS   O21 1486   4.755   3.863   2.947  0.5017  0.4636 -0.2015
   12SAPS   C21 1487   4.757   3.870   3.081 -0.7869 -0.0039 -0.1210
   12SAPS   O22 1488   4.816   3.794   3.156  0.6179 -0.3037  0.1800
   12SAPS   C22 1489   4.670   3.992   3.123 -0.9900 -0.1250 -0.0474
   12SAPS   H2R 1490   4.753   4.053   3.167 -0.5807  1.2267 -2.4987
   12SAPS   H2S 1491   4.623   4.049   3.040  1.8648  2.0815 -0.3368
   12SAPS    C3 1492   4.970   3.852   2.835 -0.0003  0.0301 -0.2493
   12SAPS    HX 1493   4.926   3.935   2.776  2.2581 -0.5609 -2.9535
   12SAPS    HY 1494   5.025   3.797   2.756  1.2585  1.5474 -0.4846
   12SAPS   O31 1495   5.067   3.885   2.938  0.0594  0.2511 -0.1162
   12SAPS   C31 1496   5.082   4.015   2.974  0.1190  0.2286 -0.8192
   12SAPS   O32 1497   5.002   4.096   2.950 -0.1535  0.1916 -0.1318
   12SAPS   C32 1498   5.207   4.050   3.044  0.0481  0.2073  0.2467
   12SAPS   H2X 1499   5.251   4.133   2.985  0.8191  0.1944  0.7811
   12SAPS   H2Y 1500   5.278   3.964   3.041 -0.9568 -0.6241 -0.4352
   12SAPS   C23 1501   4.571   3.949   3.231  0.6877  0.3054  0.6003
   12SAPS   H3R 1502   4.519   3.854   3.206  2.1911  0.0853 -2.0698
   12SAPS   H3S 1503   4.491   4.025   3.236 -0.5166 -0.8110 -0.9424
   12SAPS   C24 1504   4.634   3.964   3.372  0.1510 -0.1523 -0.5512
   12SAPS   H4R 1505   4.725   3.903   3.386  1.8575  2.2985 -0.4321
   12SAPS   H4S 1506   4.553   3.938   3.444 -1.0576  1.1241 -1.4073
   12SAPS   C25 1507   4.688   4.095   3.414  0.0316  0.2097  0.5634
   12SAPS   H5R 1508   4.683   4.169   3.332 -4.3258 -0.4795 -0.0563
   12SAPS   C26 1509   4.739   4.119   3.535  0.4947 -0.0708 -0.7601
   12SAPS   H6R 1510   4.782   4.218   3.554  1.9037 -0.7586 -0.1832
   12SAPS   C27 1511   4.739   4.022   3.652 -0.3598 -0.0389  0.8547
   12SAPS   H7R 1512   4.654   3.954   3.630 -2.3648  2.4911  0.2300
   12SAPS   H7S 1513   4.704   4.079   3.741  1.9521 -1.3718  2.7101
   12SAPS   C28 1514   4.869   3.948   3.673 -0.6005 -1.0292 -0.3289
   12SAPS   H8R 1515   4.914   3.919   3.577 -0.6177 -0.4144 -0.5257
   12SAPS   C29 1516   4.919   3.895   3.790 -0.9512  0.0097 -0.2602
   12SAPS   H9R 1517   4.999   3.819   3.784 -3.4651 -2.7071 -3.6925
   12SAPS  C210 1518   4.861   3.916   3.927  0.1957  0.3659  0.5487
   12SAPS  H10R 1519   4.896   3.838   3.999  1.1586 -0.7187 -1.0395
   12SAPS  H10S 1520   4.752   3.898   3.913  0.3914  0.1612 -0.7956
   12SAPS  C211 1521   4.862   4.054   3.976 -0.3041  0.2222 -0.3393
   12SAPS  H11R 1522   4.885   4.130   3.900 -2.3439  0.8949 -0.3521
   12SAPS  C212 1523   4.849   4.100   4.099 -0.5604 -0.3384 -0.3461
   12SAPS  H12R 1524   4.844   4.207   4.122  1.7346 -0.3253  0.3949
   12SAPS  C213 1525   4.809   4.011   4.214  0.5751 -0.6899  0.2511
   12SAPS  H13R 1526   4.726   3.947   4.177  0.5903 -1.4390  1.4422
   12SAPS  H13S 1527   4.766   4.074   4.294  0.7368  0.3858 -0.4864
   12SAPS  C214 1528   4.911   3.916   4.276 -0.0663 -0.3955  0.0741
   12SAPS  H14R 1529   5.009   3.927   4.228 -0.5936 -2.7952 -1.7058
   12SAPS  C215 1530   4.895   3.827   4.367 -0.0213 -0.4102  0.8657
   12SAPS  H15R 1531   4.990   3.782   4.399  1.1571  1.0069 -0.4926
   12SAPS  C216 1532   4.771   3.801   4.444  0.4299  0.7402 -0.7324
   12SAPS  H16R 1533   4.743   3.697   4.416 -0.5224  1.0191 -0.8522
   12SAPS  H16S 1534   4.685   3.863   4.411 -0.5269  0.3057  0.8283
   12SAPS  C217 1535   4.790   3.825   4.597  0.2110  0.6909  0.2181
   12SAPS  H17R 1536   4.869   3.901   4.616  0.9019  0.3274 -1.1157
   12SAPS  H17S 1537   4.831   3.727   4.628 -1.2118  0.4261  1.3672
   12SAPS  C218 1538   4.655   3.843   4.667 -0.2452  0.3767  0.3337
   12SAPS  H18R 1539   4.574   3.788   4.614 -0.5048 -0.0196  1.1338
   12SAPS  H18S 1540   4.631   3.952   4.667 -0.9749  0.2237 -0.0488
   12SAPS  C219 1541   4.648   3.795   4.820  0.8608  0.2688  0.5558
   12SAPS  H19R 1542   4.685   3.691   4.835 -2.1714 -1.1504 -0.9668
   12SAPS  H19S 1543   4.538   3.797   4.836  0.3111 -2.2501 -2.0883
   12SAPS  C220 1544   4.707   3.896   4.926  0.1906  0.4318 -0.1898
   12SAPS  H20R 1545   4.660   3.879   5.026 -0.6396  0.0066 -0.6408
   12SAPS  H20S 1546   4.668   3.998   4.906  1.0625  1.0255  1.0211
   12SAPS  H20T 1547   4.818   3.894   4.920  0.2685  0.4050  0.9638
   12SAPS   C33 1548   5.188   4.095   3.186  0.3327  0.0276  0.0259
   12SAPS   H3X 1549   5.108   4.173   3.185  0.4409  0.2699  2.6471
   12SAPS   H3Y 1550   5.280   4.146   3.223  1.1294 -0.8938 -0.6687
   12SAPS   C34 1551   5.160   3.974   3.276  0.9381 -0.2547 -0.1056
   12SAPS   H4X 1552   5.252   3.912   3.291  1.4410  0.8660  1.7331
   12SAPS   H4Y 1553   5.087   3.903   3.232  1.1221 -0.3208 -0.3089
   12SAPS   C35 1554   5.120   4.002   3.421 -0.3945 -0.1812  0.2625
   12SAPS   H5X 1555   5.115   3.913   3.487 -0.2739 -0.8148 -0.5731
   12SAPS   H5Y 1556   5.018   4.044   3.407 -0.2122 -0.1558 -1.1046
   12SAPS   C36 1557   5.217   4.108   3.481 -0.6210 -0.6089 -0.1321
   12SAPS   H6X 1558   5.205   4.209   3.436 -2.5754  0.8801  3.3459
   12SAPS   H6Y 1559   5.319   4.080   3.449 -0.0132  3.1044 -2.0180
   12SAPS   C37 1560   5.201   4.109   3.629 -0.3204  0.3611 -0.2896
   12SAPS   H7X 1561   5.203   4.007   3.672  3.9835  1.2305  2.2039
   12SAPS   H7Y 1562   5.106   4.156   3.661  0.5062  1.0080  1.3360
   12SAPS   C38 1563   5.322   4.179   3.700 -0.5278  0.0537 -0.6486
   12SAPS   H8X 1564   5.320   4.289   3.686 -4.1684  0.4162  1.3237
   12SAPS   H8Y 1565   5.420   4.141   3.665 -0.7060 -0.3380 -0.7262
   12SAPS   C39 1566   5.321   4.153   3.857 -0.0822  0.0464  0.4314
   12SAPS   H9X 1567   5.221   4.169   3.902 -0.0667 -0.6217  0.7098
   12SAPS   H9Y 1568   5.401   4.217   3.900 -1.2746  1.0330  1.2634
   12SAPS  C310 1569   5.377   4.016   3.895 -0.5384 -0.3323 -0.9907
   12SAPS  H10X 1570   5.450   3.989   3.816  1.4078  0.9090  0.2897
   12SAPS  H10Y 1571   5.297   3.940   3.909 -0.2372 -0.1459  3.1430
   12SAPS  C311 1572   5.450   4.029   4.028  0.3526  0.5669 -0.4819
   12SAPS  H11X 1573   5.535   4.101   4.027 -0.1000  1.1304 -2.4182
   12SAPS  H11Y 1574   5.501   3.932   4.047  2.1524  1.7154  0.8910
   12SAPS  C312 1575   5.356   4.046   4.144  0.4067  0.0571 -0.6030
   12SAPS  H12X 1576   5.287   3.959   4.146 -2.7563  2.3713  2.2228
   12SAPS  H12Y 1577   5.294   4.134   4.117  0.4776  0.0492 -0.7954
   12SAPS  C313 1578   5.413   4.057   4.282  0.0949  0.8567 -0.0077
   12SAPS  H13X 1579   5.484   4.143   4.291  0.1574  0.7924  0.1142
   12SAPS  H13Y 1580   5.473   3.965   4.300  2.5630  2.2105 -0.7864
   12SAPS  C314 1581   5.309   4.062   4.397 -0.1285 -1.0443  0.0955
   12SAPS  H14X 1582   5.218   4.002   4.376 -1.9137  1.5292  0.1035
   12SAPS  H14Y 1583   5.283   4.166   4.426  1.2888 -0.3658 -0.9588
   12SAPS  C315 1584   5.375   3.999   4.527 -0.3286 -0.0815  0.1924
   12SAPS  H15X 1585   5.350   3.891   4.530  3.1662 -0.9824  2.1663
   12SAPS  H15Y 1586   5.306   4.037   4.606  0.4170  2.7329 -0.3915
   12SAPS  C316 1587   5.518   4.040   4.560 -0.6160  0.3911  0.9380
   12SAPS  H16X 1588   5.514   4.150   4.579 -0.1054  0.3839  1.1073
   12SAPS  H16Y 1589   5.587   4.036   4.473 -3.2203  2.0796 -1.3805
   12SAPS  C317 1590   5.585   3.953   4.668 -0.5492 -0.0015  0.0396
   12SAPS  H17X 1591   5.691   3.985   4.679 -0.6827 -0.1116  1.8934
   12SAPS  H17Y 1592   5.590   3.845   4.640 -0.3604 -0.1871  0.7696
   12SAPS  C318 1593   5.529   3.961   4.805  0.4141 -0.0828 -0.3914
   12SAPS  H18X 1594   5.565   3.883   4.875 -1.0751 -1.3822 -0.9936
   12SAPS  H18Y 1595   5.418   3.961   4.810  0.3134  0.7481 -1.9215
   12SAPS  H18Z 1596   5.548   4.061   4.849  2.9523  0.0952 -1.7022
   13SAPS     N 1597   2.481   3.266   2.764 -0.2410 -0.1652 -0.0006
   13SAPS   HN1 1598   2.444   3.363   2.772  0.3192 -0.0762  3.0521
   13SAPS   HN2 1599   2.499   3.227   2.859 -0.8162  0.9692  0.6018
   13SAPS   HN3 1600   2.572   3.272   2.714 -0.0575 -2.0087  0.0498
   13SAPS   C12 1601   2.395   3.182   2.685 -0.6714 -0.2803 -0.0658
   13SAPS  H12A 1602   2.314   3.153   2.750  0.6500  1.3425  2.4570
   13SAPS   C13 1603   2.347   3.251   2.558  0.3198  0.2525 -0.3449
   13SAPS  O13A 1604   2.390   3.363   2.523 -0.1774  0.0961  0.1271
   13SAPS  O13B 1605   2.259   3.191   2.494 -0.1265  0.6752 -0.2826
   13SAPS   C11 1606   2.468   3.047   2.646 -0.8738  0.4282  0.7153
   13SAPS  H11A 1607   2.565   3.073   2.600 -0.9193  2.5658  1.7380
   13SAPS  H11B 1608   2.404   2.996   2.570  0.8191  0.1560 -0.5831
   13SAPS     P 1609   2.587   2.845   2.746  0.1905 -0.0245  0.2494
   13SAPS   O13 1610   2.513   2.719   2.732 -0.3059 -0.0256 -0.1343
   13SAPS   O14 1611   2.684   2.876   2.638 -0.2738  0.1151  0.1221
   13SAPS   O12 1612   2.483   2.965   2.762 -0.4327  0.0717 -0.6033
   13SAPS   O11 1613   2.671   2.836   2.880  0.3912 -0.0979  0.3261
   13SAPS    C1 1614   2.737   2.954   2.938 -0.0189 -0.5900  0.6978
   13SAPS    HA 1615   2.845   2.932   2.946  0.1803  0.9226  3.2597
   13SAPS    HB 1616   2.722   3.045   2.876  0.2342 -0.2717  1.1038
   13SAPS    C2 1617   2.680   2.969   3.078 -0.1960  0.1743 -0.1082
   13SAPS    HS 1618   2.569   2.961   3.079 -0.2610  0.5284 -1.7874
   13SAPS   O21 1619   2.725   3.090   3.139  0.1355 -0.2561 -0.2706
   13SAPS   C21 1620   2.675   3.200   3.086  0.8336  0.2781 -0.2323
   13SAPS   O22 1621   2.580   3.207   3.010  0.5668  0.3889  0.1540
   13SAPS   C22 1622   2.733   3.327   3.161  0.2945  0.1803  0.4253
   13SAPS   H2R 1623   2.659   3.353   3.239 -2.0469 -0.9289 -1.3066
   13SAPS   H2S 1624   2.830   3.297   3.207  0.7263 -1.0902 -1.1962
   13SAPS    C3 1625   2.737   2.857   3.166  0.5160  0.1426  0.6304
   13SAPS    HX 1626   2.845   2.831   3.153  0.5772 -0.8614  2.6862
   13SAPS    HY 1627   2.679   2.768   3.134 -1.3208  0.1526  3.5859
   13SAPS   O31 1628   2.698   2.875   3.300  0.8135 -0.0789  0.0094
   13SAPS   C31 1629   2.786   2.923   3.373 -0.7080  0.0633 -0.3287
   13SAPS   O32 1630   2.905   2.938   3.340 -0.0107 -0.6824 -0.1489
   13SAPS   C32 1631   2.724   2.954   3.509 -0.6126  0.3431 -0.5502
   13SAPS   H2X 1632   2.685   2.858   3.549 -2.3779  0.6839 -1.3633
   13SAPS   H2Y 1633   2.639   3.023   3.489 -1.4700 -0.4889  0.1161
   13SAPS   C23 1634   2.744   3.438   3.046  0.1325  0.1568  0.4071
   13SAPS   H3R 1635   2.642   3.453   3.006 -0.6827 -0.1023  2.3133
   13SAPS   H3S 1636   2.808   3.395   2.966 -0.2048 -0.9655  0.7355
   13SAPS   C24 1637   2.804   3.573   3.090  0.2131 -0.4520  0.1059
   13SAPS   H4R 1638   2.819   3.639   3.001 -1.4874 -1.1716 -0.7641
   13SAPS   H4S 1639   2.906   3.553   3.128  0.7710 -0.4497 -1.3261
   13SAPS   C25 1640   2.726   3.651   3.200  0.4784 -0.6470 -0.4307
   13SAPS   H5R 1641   2.617   3.667   3.196  0.2933  0.9777  4.2891
   13SAPS   C26 1642   2.792   3.723   3.291  0.5598 -0.0812 -0.3021
   13SAPS   H6R 1643   2.731   3.751   3.378 -0.8264 -0.1057 -1.2151
   13SAPS   C27 1644   2.935   3.732   3.316 -0.4163  0.2274 -0.0189
   13SAPS   H7R 1645   2.958   3.831   3.360  2.4323 -1.1681  1.9582
   13SAPS   H7S 1646   3.003   3.721   3.228 -0.3970 -2.5727  0.2449
   13SAPS   C28 1647   2.982   3.634   3.417 -0.3731 -0.2177 -0.7912
   13SAPS   H8R 1648   3.010   3.537   3.374  0.2556 -0.1738 -0.5002
   13SAPS   C29 1649   2.990   3.645   3.554  0.6102 -0.4494 -0.0121
   13SAPS   H9R 1650   3.010   3.554   3.613 -2.3949 -0.8878  0.4835
   13SAPS  C210 1651   2.957   3.774   3.628  0.4971  0.3210 -0.2845
   13SAPS  H10R 1652   2.972   3.857   3.556 -3.2019  1.6958  0.3189
   13SAPS  H10S 1653   3.037   3.789   3.703 -0.2487  0.4137  0.5033
   13SAPS  C211 1654   2.814   3.780   3.682 -1.3213 -1.0573  1.0986
   13SAPS  H11R 1655   2.740   3.784   3.601 -0.8975 -0.9424  0.7142
   13SAPS  C212 1656   2.777   3.769   3.808  0.5086  0.4275  0.3485
   13SAPS  H12R 1657   2.668   3.751   3.816  0.7016 -0.9031  0.2622
   13SAPS  C213 1658   2.857   3.756   3.934 -0.3655  0.6936  0.3903
   13SAPS  H13R 1659   2.951   3.697   3.928 -0.0911  1.1526  0.1472
   13SAPS  H13S 1660   2.800   3.685   3.998  1.2610 -0.7262  0.3368
   13SAPS  C214 1661   2.907   3.880   4.006 -0.6882  0.1901 -0.3874
   13SAPS  H14R 1662   2.966   3.944   3.938  1.1728 -1.7576 -0.6990
   13SAPS  C215 1663   2.881   3.923   4.131 -0.3411  0.6199  0.5848
   13SAPS  H15R 1664   2.935   4.010   4.172 -0.4912  0.3696  1.3246
   13SAPS  C216 1665   2.799   3.850   4.232 -0.4951 -0.5580 -0.2697
   13SAPS  H16R 1666   2.718   3.793   4.182  0.7142 -0.6750 -2.1528
   13SAPS  H16S 1667   2.755   3.929   4.298  0.0467 -0.8292  0.4286
   13SAPS  C217 1668   2.881   3.763   4.329  0.1988 -0.1880  0.1437
   13SAPS  H17R 1669   2.824   3.723   4.416  0.6593 -0.4181  0.3419
   13SAPS  H17S 1670   2.956   3.834   4.371 -0.6546  0.0129  1.3734
   13SAPS  C218 1671   2.956   3.647   4.264 -0.1510  0.3485  0.1917
   13SAPS  H18R 1672   3.009   3.682   4.173  1.2510  0.0237  0.8492
   13SAPS  H18S 1673   2.878   3.574   4.232 -0.2895  0.2996  0.6359
   13SAPS  C219 1674   3.043   3.572   4.365  0.2237 -0.0367  0.5754
   13SAPS  H19R 1675   2.986   3.543   4.456  0.0487  0.5491  0.6534
   13SAPS  H19S 1676   3.116   3.651   4.391  0.1877 -0.5205  2.2396
   13SAPS  C220 1677   3.112   3.452   4.295 -0.3711 -0.6509 -0.0647
   13SAPS  H20R 1678   3.042   3.367   4.287 -3.9913  1.8252  2.3550
   13SAPS  H20S 1679   3.184   3.420   4.373  0.9236  1.3302 -0.3734
   13SAPS  H20T 1680   3.175   3.476   4.207 -0.4083 -0.4605 -0.0395
   13SAPS   C33 1681   2.817   3.014   3.622  0.4487 -0.0332 -0.0495
   13SAPS   H3X 1682   2.916   2.966   3.608  0.7573  0.7676 -0.6132
   13SAPS   H3Y 1683   2.780   2.986   3.724 -0.0796 -1.0308 -0.4975
   13SAPS   C34 1684   2.837   3.165   3.597  0.5054 -0.2856 -0.0498
   13SAPS   H4X 1685   2.735   3.196   3.630  1.1705  1.0998  0.7705
   13SAPS   H4Y 1686   2.863   3.182   3.490 -1.2051  0.5939 -0.3644
   13SAPS   C35 1687   2.938   3.237   3.689 -0.2063  0.5063  0.1292
   13SAPS   H5X 1688   2.932   3.345   3.667 -0.0421  0.3792 -0.5624
   13SAPS   H5Y 1689   3.041   3.199   3.673  0.0804  0.7673  1.2298
   13SAPS   C36 1690   2.919   3.215   3.836  0.4506 -0.4137  0.1843
   13SAPS   H6X 1691   3.003   3.253   3.898  1.4222  0.2327 -1.4671
   13SAPS   H6Y 1692   2.904   3.109   3.867 -0.6920 -0.7644 -1.4619
   13SAPS   C37 1693   2.786   3.287   3.891 -0.4699 -0.2347 -0.3569
   13SAPS   H7X 1694   2.701   3.230   3.849 -0.2980  0.9386 -2.4795
   13SAPS   H7Y 1695   2.780   3.393   3.856  2.0131 -0.2648 -1.1045
   13SAPS   C38 1696   2.781   3.293   4.044  0.2023 -0.5037 -0.1063
   13SAPS   H8X 1697   2.858   3.360   4.089 -0.0436 -0.1313 -0.2446
   13SAPS   H8Y 1698   2.782   3.189   4.084  0.0701 -0.2060  0.7017
   13SAPS   C39 1699   2.650   3.348   4.099  0.0580  0.2391  0.1250
   13SAPS   H9X 1700   2.562   3.288   4.068  0.7439 -0.5812 -0.2911
   13SAPS   H9Y 1701   2.635   3.454   4.068  0.3121  0.9332  2.2474
   13SAPS  C310 1702   2.641   3.361   4.251 -0.2648  0.5175  0.1265
   13SAPS  H10X 1703   2.738   3.409   4.274 -0.3520  1.0069 -0.4992
   13SAPS  H10Y 1704   2.655   3.260   4.296  3.2475  0.4509 -0.8310
   13SAPS  C311 1705   2.521   3.442   4.306  0.1611 -0.2951 -0.1039
   13SAPS  H11X 1706   2.428   3.410   4.255 -0.9175 -0.5228  1.9241
   13SAPS  H11Y 1707   2.540   3.549   4.284  1.7058 -0.4649  0.2669
   13SAPS  C312 1708   2.515   3.428   4.459 -0.3439  0.6628 -1.0591
   13SAPS  H12X 1709   2.530   3.323   4.494 -0.9094  1.3166  1.3902
   13SAPS  H12Y 1710   2.414   3.455   4.496 -0.0949  0.5373 -0.2652
   13SAPS  C313 1711   2.623   3.509   4.532  0.2920  1.5874  0.0638
   13SAPS  H13X 1712   2.570   3.552   4.619 -2.1259  1.9362 -1.5009
   13SAPS  H13Y 1713   2.659   3.597   4.475 -0.3559  2.5962  1.1798
   13SAPS  C314 1714   2.737   3.416   4.581  0.2461  0.2274  0.8027
   13SAPS  H14X 1715   2.793   3.381   4.492 -0.7554 -0.1393  0.2961
   13SAPS  H14Y 1716   2.708   3.320   4.631 -0.5016  0.6347  1.1749
   13SAPS  C315 1717   2.836   3.482   4.672  0.0375  0.2666  0.5138
   13SAPS  H15X 1718   2.785   3.527   4.760 -0.9162 -0.3455  0.2962
   13SAPS  H15Y 1719   2.874   3.571   4.618  0.3645 -0.3228 -0.2464
   13SAPS  C316 1720   2.952   3.398   4.717 -0.4985 -0.2163 -0.2751
   13SAPS  H16X 1721   3.006   3.336   4.642 -2.1634 -1.6721 -0.3405
   13SAPS  H16Y 1722   2.919   3.325   4.794  0.5471  0.1699  0.5675
   13SAPS  C317 1723   3.066   3.483   4.790  0.4639 -0.3073  0.3444
   13SAPS  H17X 1724   3.010   3.518   4.880 -0.2948 -0.1363 -0.1912
   13SAPS  H17Y 1725   3.101   3.565   4.725 -2.1467 -1.2736 -2.5160
   13SAPS  C318 1726   3.193   3.404   4.825  0.5084  0.1828 -0.4788
   13SAPS  H18X 1727   3.157   3.316   4.882 -1.0266  0.9293 -0.2411
   13SAPS  H18Y 1728   3.273   3.455   4.882 -0.5815  0.1912  1.1187
   13SAPS  H18Z 1729   3.236   3.353   4.736 -1.4363 -2.1459 -0.1793
   14SAPS     N 1730   0.166   0.237   2.490  0.8883  0.5333  0.0533
   14SAPS   HN1 1731   0.103   0.176   2.434 -0.6961  1.4861  0.7410
   14SAPS   HN2 1732   0.118   0.262   2.579 -3.8526  0.8335 -2.2441
   14SAPS   HN3 1733   0.190   0.320   2.432 -1.4525  1.4141  0.2400
   14SAPS   C12 1734   0.292   0.154   2.518  0.0180 -0.4518 -0.1076
   14SAPS  H12A 1735   0.328   0.118   2.423 -0.8038 -0.2474 -0.4987
   14SAPS   C13 1736   0.403   0.235   2.584 -0.1927  0.1501 -0.6036
   14SAPS  O13A 1737   0.375   0.355   2.611  0.4645 -0.1512 -0.3592
   14SAPS  O13B 1738   0.515   0.190   2.606 -0.5995 -0.4914  0.4421
   14SAPS   C11 1739   0.259   0.041   2.608  0.3897 -0.3205 -0.8726
   14SAPS  H11A 1740   0.221   0.074   2.707  0.2152 -0.2370 -0.9681
   14SAPS  H11B 1741   0.348  -0.012   2.649 -0.4523  0.1196  1.7084
   14SAPS     P 1742   0.142  -0.198   2.597 -0.1158 -0.1369 -0.0659
   14SAPS   O13 1743   0.007  -0.242   2.563 -0.2676  0.4305 -0.0973
   14SAPS   O14 1744   0.258  -0.273   2.542 -0.4530 -0.3825  0.4510
   14SAPS   O12 1745   0.152  -0.044   2.564 -0.7118  0.2033  0.4157
   14SAPS   O11 1746   0.157  -0.210   2.756  0.0071 -0.1892 -0.2526
   14SAPS    C1 1747   0.065  -0.125   2.837 -0.4682 -0.2644  0.0864
   14SAPS    HA 1748   0.110  -0.026   2.858 -3.5241  1.4505 -0.8618
   14SAPS    HB 1749  -0.028  -0.099   2.782 -0.4063 -0.2135  0.0057
   14SAPS    C2 1750   0.023  -0.205   2.968 -0.5534 -0.4571  1.0744
   14SAPS    HS 1751  -0.052  -0.139   3.016 -0.1175  1.8908 -1.2375
   14SAPS   O21 1752   0.137  -0.239   3.044  0.7945 -0.0790 -0.1353
   14SAPS   C21 1753   0.207  -0.144   3.096  0.3134  0.0412  0.3012
   14SAPS   O22 1754   0.189  -0.026   3.094  0.6613 -0.1429  0.2016
   14SAPS   C22 1755   0.339  -0.206   3.144 -0.1434 -0.0735 -0.5611
   14SAPS   H2R 1756   0.318  -0.275   3.228 -1.7181 -0.5633 -1.3306
   14SAPS   H2S 1757   0.373  -0.265   3.057 -2.6992 -1.1410 -0.9225
   14SAPS    C3 1758  -0.052  -0.335   2.933 -0.0717  0.2779 -0.1619
   14SAPS    HX 1759   0.027  -0.404   2.896  0.0676  0.4614 -0.2053
   14SAPS    HY 1760  -0.107  -0.339   2.837 -0.7645  2.9499  0.0520
   14SAPS   O31 1761  -0.128  -0.382   3.051  0.1760  0.5930  0.1968
   14SAPS   C31 1762  -0.173  -0.504   3.042 -0.0486  0.0065  0.6596
   14SAPS   O32 1763  -0.163  -0.579   2.942 -0.2124  0.1239 -0.1776
   14SAPS   C32 1764  -0.235  -0.553   3.172  0.3822 -0.6851 -0.2673
   14SAPS   H2X 1765  -0.182  -0.646   3.202 -0.9195 -0.5542  2.7635
   14SAPS   H2Y 1766  -0.341  -0.580   3.157 -0.2070  1.3406 -0.0848
   14SAPS   C23 1767   0.439  -0.101   3.200 -0.4470 -0.2989  0.0433
   14SAPS   H3R 1768   0.426  -0.015   3.131 -0.1193 -2.1283 -2.4040
   14SAPS   H3S 1769   0.536  -0.153   3.214 -0.3059  0.0972  0.5902
   14SAPS   C24 1770   0.417  -0.041   3.345  0.2998  0.0975  0.4246
   14SAPS   H4R 1771   0.405  -0.133   3.406  1.0792  0.3245  0.9273
   14SAPS   H4S 1772   0.315   0.003   3.355 -2.5168 -5.7998  3.9795
   14SAPS   C25 1773   0.529   0.041   3.404 -0.0482  0.6692  0.0937
   14SAPS   H5R 1774   0.619   0.042   3.341 -0.4056 -1.9945 -0.5978
   14SAPS   C26 1775   0.527   0.112   3.516  0.1154  0.0233 -0.6455
   14SAPS   H6R 1776   0.617   0.171   3.538 -0.3974  1.1891 -1.5266
   14SAPS   C27 1777   0.415   0.112   3.621  0.6238 -0.0428 -0.0678
   14SAPS   H7R 1778   0.333   0.047   3.583  1.8699 -0.7619 -1.6271
   14SAPS   H7S 1779   0.376   0.216   3.626  2.2458  0.6101 -0.4519
   14SAPS   C28 1780   0.449   0.051   3.758  0.6608  0.2117  0.2891
   14SAPS   H8R 1781   0.441  -0.058   3.763 -0.7181  0.2001 -1.1996
   14SAPS   C29 1782   0.470   0.117   3.873 -0.1410 -0.4214  0.1451
   14SAPS   H9R 1783   0.521   0.061   3.952  3.7111  0.1201 -1.6926
   14SAPS  C210 1784   0.482   0.263   3.889  0.4551 -0.3885  0.3509
   14SAPS  H10R 1785   0.500   0.308   3.789  2.0007 -1.3756  0.1550
   14SAPS  H10S 1786   0.574   0.279   3.950 -0.2140 -0.2056  1.3464
   14SAPS  C211 1787   0.357   0.325   3.956 -0.1190  0.3542 -0.0117
   14SAPS  H11R 1788   0.270   0.322   3.888  0.0647  0.5603 -0.2577
   14SAPS  C212 1789   0.356   0.388   4.073  0.1327  0.7186  0.2789
   14SAPS  H12R 1790   0.256   0.418   4.108 -0.4083  1.0801 -1.4598
   14SAPS  C213 1791   0.478   0.398   4.162  0.9200  0.1904  0.2253
   14SAPS  H13R 1792   0.453   0.470   4.243 -0.5391 -1.1676  1.0606
   14SAPS  H13S 1793   0.554   0.451   4.101  0.3804  0.3330 -0.3316
   14SAPS  C214 1794   0.530   0.275   4.222  0.5595  0.4123  0.4814
   14SAPS  H14R 1795   0.616   0.236   4.166  0.9274  1.4916  0.2717
   14SAPS  C215 1796   0.472   0.193   4.317  0.5183 -0.3902  0.3637
   14SAPS  H15R 1797   0.523   0.106   4.360  0.2462 -2.3054 -2.8319
   14SAPS  C216 1798   0.343   0.210   4.396  0.0943  0.1002  0.1049
   14SAPS  H16R 1799   0.276   0.294   4.367 -1.3991 -1.1290 -0.2008
   14SAPS  H16S 1800   0.370   0.208   4.504 -0.8012 -4.3267  0.4560
   14SAPS  C217 1801   0.242   0.093   4.365 -0.0241  0.1446  0.6597
   14SAPS  H17R 1802   0.175   0.113   4.452  2.4250  0.8211  2.4826
   14SAPS  H17S 1803   0.291  -0.002   4.396 -1.1521  0.1240  2.5762
   14SAPS  C218 1804   0.179   0.090   4.220  0.2932  0.0758 -0.2446
   14SAPS  H18R 1805   0.255   0.082   4.139 -0.0045  2.7096 -0.8873
   14SAPS  H18S 1806   0.120   0.182   4.202  1.5145  1.3569  1.7608
   14SAPS  C219 1807   0.075  -0.021   4.206 -0.1130 -0.1502 -0.7704
   14SAPS  H19R 1808  -0.006   0.015   4.139 -0.5691  2.6550  1.0973
   14SAPS  H19S 1809   0.036  -0.030   4.310  1.8926  2.4056  0.3254
   14SAPS  C220 1810   0.136  -0.142   4.151 -0.2675  0.6830 -0.1032
   14SAPS  H20R 1811   0.184  -0.130   4.052  1.2693  0.3905  0.5863
   14SAPS  H20S 1812   0.049  -0.211   4.142 -0.7511  0.9878  1.7327
   14SAPS  H20T 1813   0.209  -0.184   4.223 -0.1532 -0.3341 -0.7852
   14SAPS   C33 1814  -0.230  -0.438   3.286 -0.2291  0.8278 -0.4105
   14SAPS   H3X 1815  -0.299  -0.357   3.254 -0.0379  1.0922 -0.1647
   14SAPS   H3Y 1816  -0.127  -0.399   3.302 -0.1481  0.7819 -0.8228
   14SAPS   C34 1817  -0.276  -0.500   3.423  0.1173  0.2165  0.1461
   14SAPS   H4X 1818  -0.223  -0.454   3.509  1.3440 -2.4692  0.9324
   14SAPS   H4Y 1819  -0.249  -0.608   3.429  0.1018 -0.0005 -2.4925
   14SAPS   C35 1820  -0.426  -0.481   3.450  0.2885  0.2665  0.5976
   14SAPS   H5X 1821  -0.500  -0.543   3.394  0.3747  1.2820 -0.7104
   14SAPS   H5Y 1822  -0.455  -0.379   3.415  1.5215 -0.2013 -2.0371
   14SAPS   C36 1823  -0.465  -0.506   3.604  1.0327 -0.1778 -0.4229
   14SAPS   H6X 1824  -0.380  -0.470   3.667 -1.3661  0.8357  2.4344
   14SAPS   H6Y 1825  -0.479  -0.614   3.627 -0.3040 -0.2256 -1.3675
   14SAPS   C37 1826  -0.592  -0.431   3.635  0.2526  0.2959  0.1317
   14SAPS   H7X 1827  -0.671  -0.448   3.558 -0.7788  0.7391  1.0584
   14SAPS   H7Y 1828  -0.564  -0.323   3.632  1.7907 -0.1005 -1.6194
   14SAPS   C38 1829  -0.662  -0.480   3.764  0.3357 -0.3863  0.0965
   14SAPS   H8X 1830  -0.697  -0.583   3.741  0.4661 -0.0123 -1.9149
   14SAPS   H8Y 1831  -0.745  -0.411   3.792  2.1446  0.9674  2.5114
   14SAPS   C39 1832  -0.577  -0.474   3.889 -0.7090 -0.4061 -0.3686
   14SAPS   H9X 1833  -0.534  -0.376   3.919  2.3130 -2.2212  1.8339
   14SAPS   H9Y 1834  -0.497  -0.551   3.885 -1.3286 -1.1079  0.2884
   14SAPS  C310 1835  -0.656  -0.512   4.018 -0.1949  0.2643  0.7076
   14SAPS  H10X 1836  -0.702  -0.611   3.995  1.4271 -0.0715 -1.4716
   14SAPS  H10Y 1837  -0.736  -0.436   4.022 -0.4462  0.0279  0.3444
   14SAPS  C311 1838  -0.571  -0.516   4.152 -0.5595 -0.3210 -0.0930
   14SAPS  H11X 1839  -0.531  -0.413   4.163  0.8276 -0.7499 -0.9924
   14SAPS  H11Y 1840  -0.486  -0.587   4.149  0.3810  0.8128 -1.1204
   14SAPS  C312 1841  -0.664  -0.546   4.270  0.1981 -0.2471  0.0178
   14SAPS  H12X 1842  -0.699  -0.651   4.259 -2.5110  0.7543 -2.3145
   14SAPS  H12Y 1843  -0.751  -0.477   4.271 -0.0920 -0.5919  2.0025
   14SAPS  C313 1844  -0.597  -0.532   4.414  0.1176  0.2951  0.1075
   14SAPS  H13X 1845  -0.512  -0.601   4.433 -0.1452 -0.0425  0.0633
   14SAPS  H13Y 1846  -0.678  -0.570   4.479 -0.6088 -0.8757 -1.4019
   14SAPS  C314 1847  -0.552  -0.390   4.449  0.1626 -0.3416 -0.1799
   14SAPS  H14X 1848  -0.646  -0.332   4.456  0.7313  0.4330  1.8964
   14SAPS  H14Y 1849  -0.495  -0.344   4.365 -0.3574  1.0799  0.2164
   14SAPS  C315 1850  -0.476  -0.377   4.576 -0.6594  0.4566 -0.0487
   14SAPS  H15X 1851  -0.392  -0.449   4.579 -0.9015  0.1519 -0.5500
   14SAPS  H15Y 1852  -0.538  -0.419   4.659  1.8168 -0.3426  1.5113
   14SAPS  C316 1853  -0.437  -0.234   4.614 -0.1976 -0.0172 -0.2997
   14SAPS  H16X 1854  -0.531  -0.178   4.631  1.0527  1.5766  1.9345
   14SAPS  H16Y 1855  -0.396  -0.198   4.518 -1.2702 -1.6331 -1.4096
   14SAPS  C317 1856  -0.344  -0.233   4.737 -0.0452 -0.4852 -0.1314
   14SAPS  H17X 1857  -0.400  -0.289   4.816 -0.1651 -0.8948 -0.5071
   14SAPS  H17Y 1858  -0.330  -0.128   4.772  1.5192 -1.3755  2.1403
   14SAPS  C318 1859  -0.208  -0.296   4.703 -0.4988  0.3386  0.0575
   14SAPS  H18X 1860  -0.156  -0.239   4.624  0.3870 -1.7589 -0.9340
   14SAPS  H18Y 1861  -0.212  -0.405   4.680  0.1731 -0.1025  1.8445
   14SAPS  H18Z 1862  -0.150  -0.292   4.798  1.9455 -0.7471 -1.2961
   15SAPS     N 1863   0.308   6.354   2.362  1.0163  0.3740  0.2825
   15SAPS   HN1 1864   0.302   6.447   2.315  1.5221  0.3840  0.2370
   15SAPS   HN2 1865   0.242   6.346   2.442  1.1288 -1.6611  0.2067
   15SAPS   HN3 1866   0.402   6.346   2.405  1.3660  0.5570 -0.4314
   15SAPS   C12 1867   0.287   6.252   2.261  0.1530  0.1407 -0.2657
   15SAPS  H12A 1868   0.213   6.295   2.194  1.7038 -0.7786 -2.6834
   15SAPS   C13 1869   0.416   6.209   2.182 -0.6641 -0.0247 -0.6389
   15SAPS  O13A 1870   0.530   6.254   2.214 -0.1261  0.8042 -0.1308
   15SAPS  O13B 1871   0.402   6.151   2.075  0.5759 -0.5308  0.2096
   15SAPS   C11 1872   0.222   6.125   2.332  0.3811 -0.5456  0.0130
   15SAPS  H11A 1873   0.211   6.044   2.257 -2.9282  0.6346 -0.9684
   15SAPS  H11B 1874   0.126   6.165   2.373  0.4836 -1.6332  1.4100
   15SAPS     P 1875   0.315   5.934   2.501  0.1996  0.4044  0.4237
   15SAPS   O13 1876   0.343   5.835   2.396  0.0925  0.5988  0.7058
   15SAPS   O14 1877   0.416   5.939   2.612 -0.1483 -0.3682  0.3549
   15SAPS   O12 1878   0.301   6.081   2.440  0.3086 -0.2553  0.4762
   15SAPS   O11 1879   0.169   5.899   2.543 -0.3039  0.4577 -0.0112
   15SAPS    C1 1880   0.098   5.999   2.622  0.0881  0.0629  0.3873
   15SAPS    HA 1881   0.100   6.101   2.577 -2.3017  0.1373  0.3275
   15SAPS    HB 1882  -0.010   5.973   2.624 -0.6966  2.9182  2.3349
   15SAPS    C2 1883   0.130   5.990   2.778 -0.0202 -1.0519 -0.1016
   15SAPS    HS 1884   0.230   6.037   2.788  0.6356 -1.9793 -1.8174
   15SAPS   O21 1885   0.128   5.850   2.810 -0.2780  0.8451  0.0178
   15SAPS   C21 1886   0.229   5.814   2.892  0.1910  0.4572 -0.1182
   15SAPS   O22 1887   0.316   5.889   2.936  0.6725  0.3311  0.4863
   15SAPS   C22 1888   0.191   5.672   2.949  0.2935 -0.7781  0.4265
   15SAPS   H2R 1889   0.082   5.669   2.969  0.1495 -1.1383 -0.3903
   15SAPS   H2S 1890   0.198   5.604   2.862 -0.5512  1.4120 -1.4468
   15SAPS    C3 1891   0.033   6.070   2.867  0.1031  0.4449  0.2527
   15SAPS    HX 1892  -0.071   6.032   2.865  0.9826 -2.1992 -0.2859
   15SAPS    HY 1893   0.026   6.172   2.823 -2.4200 -0.1824 -1.0234
   15SAPS   O31 1894   0.081   6.073   3.009 -0.9119 -0.0638 -0.7059
   15SAPS   C31 1895   0.183   6.165   3.019  0.3061 -0.1652  0.4557
   15SAPS   O32 1896   0.223   6.242   2.935 -0.7402  0.0365 -0.0548
   15SAPS   C32 1897   0.242   6.164   3.161 -0.5152 -0.2871 -0.2958
   15SAPS   H2X 1898   0.284   6.266   3.171  1.1486 -0.7929 -1.6685
   15SAPS   H2Y 1899   0.330   6.095   3.156 -0.4965 -0.2179 -4.4345
   15SAPS   C23 1900   0.271   5.628   3.074 -0.4902 -0.0038 -0.3067
   15SAPS   H3R 1901   0.378   5.655   3.060 -0.6487  1.9215  1.7118
   15SAPS   H3S 1902   0.264   5.517   3.080 -1.9094  0.0784 -0.1647
   15SAPS   C24 1903   0.226   5.673   3.212 -0.0418 -0.7152 -0.1658
   15SAPS   H4R 1904   0.249   5.603   3.295  1.3047 -0.1429 -0.0315
   15SAPS   H4S 1905   0.115   5.669   3.213 -0.0296 -1.1206 -0.2130
   15SAPS   C25 1906   0.277   5.811   3.258 -0.0038 -0.3034  0.0307
   15SAPS   H5R 1907   0.281   5.885   3.177 -0.1354 -1.5282 -1.1121
   15SAPS   C26 1908   0.325   5.853   3.375 -0.0483  0.3134 -0.2778
   15SAPS   H6R 1909   0.356   5.958   3.371  1.2095 -0.0395 -0.2775
   15SAPS   C27 1910   0.335   5.776   3.507  0.1238  0.0193  0.6185
   15SAPS   H7R 1911   0.424   5.803   3.568  0.6244 -0.4638  0.1073
   15SAPS   H7S 1912   0.360   5.670   3.483  0.3600  0.0300  0.8049
   15SAPS   C28 1913   0.214   5.792   3.598  0.0255 -0.2763  0.0519
   15SAPS   H8R 1914   0.125   5.734   3.567 -1.2238  0.7646  1.5098
   15SAPS   C29 1915   0.200   5.850   3.721 -0.4455 -0.1291 -0.1588
   15SAPS   H9R 1916   0.104   5.839   3.772 -0.3211  0.0744  0.1178
   15SAPS  C210 1917   0.304   5.929   3.792 -0.3568  0.5807 -0.4628
   15SAPS  H10R 1918   0.387   5.962   3.726 -0.7525  0.5972 -0.9604
   15SAPS  H10S 1919   0.346   5.852   3.861 -0.6771 -1.8305 -2.8204
   15SAPS  C211 1920   0.250   6.033   3.875 -0.3207  0.0724 -1.0377
   15SAPS  H11R 1921   0.165   6.088   3.830 -2.0248 -1.7441 -0.1697
   15SAPS  C212 1922   0.310   6.078   3.986  0.0690  0.1326 -0.2026
   15SAPS  H12R 1923   0.277   6.174   4.028  0.5124 -0.0797  0.6575
   15SAPS  C213 1924   0.434   6.025   4.049 -0.0226  0.2841 -0.1880
   15SAPS  H13R 1925   0.502   6.014   3.961  0.4124  2.5320 -0.1806
   15SAPS  H13S 1926   0.432   5.920   4.084 -1.5512  0.6771  1.0126
   15SAPS  C214 1927   0.505   6.116   4.149 -0.2254 -0.1351 -0.4082
   15SAPS  H14R 1928   0.590   6.170   4.104  0.2758  0.1354  0.8036
   15SAPS  C215 1929   0.473   6.143   4.278  0.0855  0.3065  0.1572
   15SAPS  H15R 1930   0.537   6.215   4.332 -1.2531  0.1830  2.0075
   15SAPS  C216 1931   0.351   6.085   4.348  0.2420  1.1580 -0.2895
   15SAPS  H16R 1932   0.330   5.981   4.313 -1.6042  0.3990  2.6870
   15SAPS  H16S 1933   0.260   6.146   4.328 -1.2596 -0.7390  0.3513
   15SAPS  C217 1934   0.374   6.070   4.499 -0.2120 -0.0473  0.1926
   15SAPS  H17R 1935   0.408   6.168   4.539 -1.2256 -0.4528  2.1723
   15SAPS  H17S 1936   0.455   6.001   4.529  0.2992  0.9491  1.2075
   15SAPS  C218 1937   0.246   6.035   4.583  0.1030 -0.0884  0.5532
   15SAPS  H18R 1938   0.183   6.123   4.605 -1.1204 -0.1893 -2.1540
   15SAPS  H18S 1939   0.275   6.002   4.685 -1.8577 -1.9816  0.5745
   15SAPS  C219 1940   0.170   5.907   4.538  0.1308  1.1185 -0.2871
   15SAPS  H19R 1941   0.236   5.833   4.489 -0.1734  1.8050 -1.8005
   15SAPS  H19S 1942   0.112   5.954   4.455 -0.0245  0.3678 -0.6060
   15SAPS  C220 1943   0.079   5.831   4.635 -0.4391 -0.3051  0.3790
   15SAPS  H20R 1944   0.035   5.736   4.597 -2.0716  0.0834  1.2137
   15SAPS  H20S 1945  -0.013   5.886   4.664  1.1947  1.9590  1.5552
   15SAPS  H20T 1946   0.135   5.808   4.728  1.9810  2.6538 -0.2044
   15SAPS   C33 1947   0.131   6.141   3.265  0.4091 -0.8765 -0.1296
   15SAPS   H3X 1948   0.110   6.032   3.267 -1.1828 -0.6196 -0.9256
   15SAPS   H3Y 1949   0.030   6.179   3.237 -1.0764 -2.3203  2.7060
   15SAPS   C34 1950   0.165   6.201   3.401 -0.5164  0.1935 -0.6572
   15SAPS   H4X 1951   0.263   6.167   3.443 -0.0961  1.2581 -0.7485
   15SAPS   H4Y 1952   0.084   6.160   3.464 -0.9804 -0.6678 -1.7680
   15SAPS   C35 1953   0.176   6.346   3.398  0.2657 -0.3856  0.3376
   15SAPS   H5X 1954   0.073   6.386   3.389  0.1073 -0.1010  2.7280
   15SAPS   H5Y 1955   0.235   6.395   3.318  0.0713  1.7629  1.4537
   15SAPS   C36 1956   0.226   6.398   3.534  0.2046 -0.5909 -1.0918
   15SAPS   H6X 1957   0.201   6.506   3.527 -0.2323 -0.4396  1.6562
   15SAPS   H6Y 1958   0.336   6.383   3.535  0.3618  0.4009  0.2896
   15SAPS   C37 1959   0.147   6.335   3.653 -0.0065  0.1850 -0.2038
   15SAPS   H7X 1960   0.178   6.230   3.670  0.0482  0.3349  0.7068
   15SAPS   H7Y 1961   0.039   6.335   3.626  0.4843  1.8259 -2.4737
   15SAPS   C38 1962   0.164   6.418   3.781 -0.4798  0.5472 -0.3045
   15SAPS   H8X 1963   0.117   6.365   3.866 -0.0097 -0.8717 -0.8946
   15SAPS   H8Y 1964   0.125   6.521   3.767 -1.3239  0.1034 -1.4355
   15SAPS   C39 1965   0.308   6.429   3.836  0.6839 -0.6278  0.0694
   15SAPS   H9X 1966   0.376   6.462   3.754  1.4166 -1.1478  0.4629
   15SAPS   H9Y 1967   0.348   6.326   3.844  1.5367 -0.2989  0.0916
   15SAPS  C310 1968   0.320   6.491   3.974  0.0767 -0.0728  0.1551
   15SAPS  H10X 1969   0.236   6.458   4.039  1.0681  1.3345  2.2699
   15SAPS  H10Y 1970   0.313   6.601   3.958 -3.8270 -0.3326 -1.1543
   15SAPS  C311 1971   0.461   6.462   4.027  0.3196 -0.5092  0.0739
   15SAPS  H11X 1972   0.534   6.483   3.945 -2.9036 -0.8064 -3.1539
   15SAPS  H11Y 1973   0.462   6.354   4.049 -1.7870 -0.4254  0.7742
   15SAPS  C312 1974   0.491   6.540   4.149 -0.0494  0.8791 -0.1206
   15SAPS  H12X 1975   0.425   6.496   4.227 -0.6618  2.1496  0.1074
   15SAPS  H12Y 1976   0.471   6.650   4.141 -2.9231  0.5383  0.9519
   15SAPS  C313 1977   0.639   6.522   4.188 -0.4616  0.5321 -0.6567
   15SAPS  H13X 1978   0.699   6.602   4.140 -0.0543  0.2024 -0.7061
   15SAPS  H13Y 1979   0.679   6.430   4.140  0.6162  0.8782 -0.4504
   15SAPS  C314 1980   0.648   6.523   4.338 -0.2656  0.1955  0.4564
   15SAPS  H14X 1981   0.605   6.436   4.393 -0.3249  0.1200  0.2931
   15SAPS  H14Y 1982   0.601   6.617   4.374  1.9572  1.1780  0.9041
   15SAPS  C315 1983   0.787   6.541   4.392  0.8977  0.0643 -0.2981
   15SAPS  H15X 1984   0.819   6.640   4.352 -0.9047  0.4160 -0.9795
   15SAPS  H15Y 1985   0.861   6.470   4.350  2.6355  1.8702 -0.4210
   15SAPS  C316 1986   0.811   6.555   4.544  0.3424  0.1978 -0.1638
   15SAPS  H16X 1987   0.788   6.460   4.597  2.0162 -0.5942 -0.7585
   15SAPS  H16Y 1988   0.758   6.638   4.594 -0.0997 -1.0465  1.5003
   15SAPS  C317 1989   0.962   6.580   4.576 -0.5530  0.5123 -0.1128
   15SAPS  H17X 1990   1.001   6.653   4.502 -1.3157  0.6730 -0.3689
   15SAPS  H17Y 1991   1.020   6.491   4.545  1.4883  1.0079  1.9769
   15SAPS  C318 1992   1.002   6.603   4.721 -0.3936  0.3768  0.0549
   15SAPS  H18X 1993   1.010   6.710   4.751  0.4368  0.6303 -1.0074
   15SAPS  H18Y 1994   1.108   6.573   4.739  0.2076  0.5191 -2.8081
   15SAPS  H18Z 1995   0.939   6.542   4.789  0.0238 -1.6035 -1.2574
   16SAPS     N 1996   0.345   0.637   2.571 -0.1151 -0.3329  0.0310
   16SAPS   HN1 1997   0.432   0.672   2.525  0.6660  2.0320  2.9842
   16SAPS   HN2 1998   0.340   0.695   2.657 -0.3738  2.9369 -2.0490
   16SAPS   HN3 1999   0.338   0.533   2.583 -0.5841 -0.2036  0.9361
   16SAPS   C12 2000   0.218   0.667   2.502 -0.5459  0.1210 -0.8027
   16SAPS  H12A 2001   0.224   0.769   2.465  0.2492  0.8595  1.1821
   16SAPS   C13 2002   0.178   0.587   2.380  0.0179 -0.0868  0.7930
   16SAPS  O13A 2003   0.255   0.486   2.350 -0.2715  0.9253 -0.4968
   16SAPS  O13B 2004   0.086   0.627   2.302 -0.5020 -0.4820  0.2466
   16SAPS   C11 2005   0.109   0.651   2.612  0.6512  0.3316 -0.4687
   16SAPS  H11A 2006   0.110   0.545   2.647 -1.7511 -0.7172 -3.2365
   16SAPS  H11B 2007   0.008   0.657   2.566  0.4632 -0.6308 -0.2068
   16SAPS     P 2008   0.065   0.886   2.730  0.2945 -0.6530 -0.1842
   16SAPS   O13 2009   0.153   0.990   2.664 -0.2504  0.5344 -0.0865
   16SAPS   O14 2010  -0.079   0.890   2.706 -0.7558 -0.1243 -0.0820
   16SAPS   O12 2011   0.125   0.741   2.722  0.4079 -0.4502 -0.0817
   16SAPS   O11 2012   0.074   0.922   2.884 -0.0878 -0.7008  0.6718
   16SAPS    C1 2013   0.086   1.069   2.916  0.7929 -0.1667  0.1962
   16SAPS    HA 2014   0.169   1.117   2.860 -0.0826  1.7417  0.4776
   16SAPS    HB 2015  -0.011   1.120   2.898  0.1476 -0.2792  2.9817
   16SAPS    C2 2016   0.109   1.086   3.071  0.0139 -0.7174  0.0265
   16SAPS    HS 2017   0.148   1.185   3.102  1.6487 -0.4259 -2.6668
   16SAPS   O21 2018   0.200   0.985   3.116 -0.4680 -0.1881  0.3562
   16SAPS   C21 2019   0.322   0.997   3.078 -0.3508 -0.5825  0.0370
   16SAPS   O22 2020   0.371   1.091   3.014  0.3451 -0.1400  0.3107
   16SAPS   C22 2021   0.403   0.880   3.127  0.4415 -0.2952 -0.5439
   16SAPS   H2R 2022   0.384   0.858   3.235  0.4648 -0.3788 -0.5566
   16SAPS   H2S 2023   0.358   0.792   3.077  0.5640 -0.8356  0.2620
   16SAPS    C3 2024  -0.021   1.056   3.152  0.7798 -0.2645 -1.0089
   16SAPS    HX 2025  -0.065   0.961   3.116 -0.2465 -0.0875 -0.2670
   16SAPS    HY 2026  -0.095   1.138   3.143  0.8036  0.1921  1.9596
   16SAPS   O31 2027   0.010   1.066   3.292  0.4137  0.1333  0.5241
   16SAPS   C31 2028   0.030   0.955   3.359  0.3314 -0.0109 -0.2552
   16SAPS   O32 2029   0.031   0.844   3.307  0.4912 -0.1353  0.6708
   16SAPS   C32 2030   0.059   0.992   3.503 -0.0654  0.2609  0.1916
   16SAPS   H2X 2031   0.031   1.098   3.516  0.9966  0.7841 -1.5069
   16SAPS   H2Y 2032   0.169   0.988   3.522  0.0915  3.9969  0.7426
   16SAPS   C23 2033   0.550   0.904   3.113 -0.3083  0.6196 -0.6183
   16SAPS   H3R 2034   0.567   0.906   3.003 -0.0117 -1.5651 -0.6466
   16SAPS   H3S 2035   0.617   0.820   3.141  0.4135 -0.1308 -4.1117
   16SAPS   C24 2036   0.598   1.032   3.181  0.1113 -0.2679 -0.0010
   16SAPS   H4R 2037   0.541   1.123   3.153 -1.9715  0.0774  4.3863
   16SAPS   H4S 2038   0.704   1.053   3.157  0.0496 -0.2835 -0.2931
   16SAPS   C25 2039   0.570   1.032   3.337  0.8184  0.2196  0.4716
   16SAPS   H5R 2040   0.467   1.058   3.367 -0.1053 -0.5941 -1.7453
   16SAPS   C26 2041   0.656   1.009   3.432  0.3929  0.1142 -0.3007
   16SAPS   H6R 2042   0.620   0.996   3.535 -0.6034  1.4859 -0.4461
   16SAPS   C27 2043   0.802   0.978   3.423 -0.3610  0.1486 -0.4202
   16SAPS   H7R 2044   0.846   1.057   3.487 -1.9722 -0.0132  0.9719
   16SAPS   H7S 2045   0.840   0.982   3.319 -0.4184 -2.3367 -0.5929
   16SAPS   C28 2046   0.844   0.846   3.477  0.5520  0.7756  0.0032
   16SAPS   H8R 2047   0.815   0.758   3.417  0.0513  0.1074  1.1884
   16SAPS   C29 2048   0.923   0.820   3.588 -0.1370  0.6943 -0.3087
   16SAPS   H9R 2049   0.937   0.714   3.611 -4.8679  0.1962  1.5357
   16SAPS  C210 2050   0.977   0.920   3.692 -0.0114  0.1179 -0.5692
   16SAPS  H10R 2051   0.922   0.909   3.788  0.0577  1.2081 -0.3923
   16SAPS  H10S 2052   0.972   1.023   3.650  2.9332  0.2318 -0.8069
   16SAPS  C211 2053   1.130   0.899   3.707 -0.7614 -0.0467  0.5597
   16SAPS  H11R 2054   1.178   0.989   3.666  4.2606 -0.6881  4.0849
   16SAPS  C212 2055   1.207   0.795   3.752  0.0432  0.2860  0.9687
   16SAPS  H12R 2056   1.317   0.805   3.757 -0.1408  4.7934  0.5485
   16SAPS  C213 2057   1.154   0.668   3.808  0.0439  0.7682  0.4524
   16SAPS  H13R 2058   1.163   0.579   3.742 -0.6820 -0.9957  2.6161
   16SAPS  H13S 2059   1.044   0.666   3.820 -0.1910  0.2997 -1.4366
   16SAPS  C214 2060   1.197   0.642   3.946  0.5233  0.1165 -0.6614
   16SAPS  H14R 2061   1.275   0.564   3.946  0.3815 -0.1299  2.2562
   16SAPS  C215 2062   1.160   0.714   4.053 -0.3537  0.2566  0.6090
   16SAPS  H15R 2063   1.207   0.696   4.151  1.6390 -1.5018 -0.5608
   16SAPS  C216 2064   1.058   0.825   4.050  0.6998 -0.4930 -0.3037
   16SAPS  H16R 2065   0.983   0.814   4.131  2.1865  0.8866  1.3675
   16SAPS  H16S 2066   1.005   0.830   3.953 -1.0742 -0.2245  0.6370
   16SAPS  C217 2067   1.112   0.969   4.087 -0.0366  0.7740 -0.0196
   16SAPS  H17R 2068   1.023   1.035   4.088 -0.2736  0.4652 -0.4790
   16SAPS  H17S 2069   1.181   1.018   4.015 -0.1031  0.2088 -0.4703
   16SAPS  C218 2070   1.163   0.981   4.238  0.6103  0.4919 -0.3963
   16SAPS  H18R 2071   1.248   0.910   4.252  0.0098  0.0176  1.0796
   16SAPS  H18S 2072   1.083   0.943   4.304  1.7861 -1.7313 -0.1302
   16SAPS  C219 2073   1.189   1.120   4.292  0.6489  0.1485  0.6971
   16SAPS  H19R 2074   1.120   1.196   4.249  2.0014  0.7749 -0.4698
   16SAPS  H19S 2075   1.293   1.137   4.255 -0.2065  0.5417 -1.6939
   16SAPS  C220 2076   1.187   1.126   4.444 -0.3075 -0.5025 -0.0109
   16SAPS  H20R 2077   1.202   1.229   4.483 -1.1213  0.1020 -1.2220
   16SAPS  H20S 2078   1.268   1.061   4.485 -1.3367 -1.7235  0.1453
   16SAPS  H20T 2079   1.094   1.093   4.496  0.2411 -0.3896  1.0658
   16SAPS   C33 2080  -0.001   0.897   3.601  0.2145 -0.2829 -0.1412
   16SAPS   H3X 2081   0.007   0.794   3.559 -1.8145 -0.5104 -0.0973
   16SAPS   H3Y 2082  -0.111   0.912   3.611  0.4515  0.0975  2.8523
   16SAPS   C34 2083   0.055   0.916   3.742  0.6637  0.6093  0.2707
   16SAPS   H4X 2084   0.050   1.023   3.769 -2.1470  0.1397  2.0901
   16SAPS   H4Y 2085   0.163   0.890   3.741  0.2191 -1.4797  0.3260
   16SAPS   C35 2086  -0.017   0.843   3.851 -0.7083  0.3121 -0.2594
   16SAPS   H5X 2087  -0.060   0.743   3.829 -2.5746  0.4149  2.4306
   16SAPS   H5Y 2088  -0.095   0.907   3.898  1.2236  1.2658  1.8327
   16SAPS   C36 2089   0.094   0.823   3.962  0.8642 -0.8103 -0.2279
   16SAPS   H6X 2090   0.104   0.923   4.010 -0.3268  0.8297 -3.1390
   16SAPS   H6Y 2091   0.188   0.796   3.910  1.3282  2.3627 -1.2464
   16SAPS   C37 2092   0.063   0.718   4.068  0.4749  0.0531  0.1707
   16SAPS   H7X 2093   0.071   0.622   4.012 -0.9166 -0.3186  0.5748
   16SAPS   H7Y 2094  -0.043   0.731   4.099  1.0468  2.0042  1.5115
   16SAPS   C38 2095   0.167   0.710   4.184  0.7382  1.0800 -0.5891
   16SAPS   H8X 2096   0.268   0.738   4.147  0.8682 -1.0050 -1.9613
   16SAPS   H8Y 2097   0.173   0.603   4.213  1.1669  0.9810 -1.0325
   16SAPS   C39 2098   0.125   0.796   4.301 -0.5746 -0.6661 -0.8992
   16SAPS   H9X 2099   0.017   0.779   4.317 -0.2941 -1.4925  0.2713
   16SAPS   H9Y 2100   0.151   0.897   4.263  3.5609 -2.0290 -2.2925
   16SAPS  C310 2101   0.197   0.759   4.424 -0.1812 -0.7063  0.2570
   16SAPS  H10X 2102   0.308   0.763   4.419 -0.2028  1.5066  0.7814
   16SAPS  H10Y 2103   0.174   0.655   4.458 -4.7241  0.4485  1.3952
   16SAPS  C311 2104   0.154   0.847   4.538  0.1301 -0.1451 -0.4437
   16SAPS  H11X 2105   0.044   0.829   4.543 -0.1135  0.4874 -2.5413
   16SAPS  H11Y 2106   0.148   0.955   4.510 -1.4570  0.4528  1.8877
   16SAPS  C312 2107   0.227   0.822   4.677  0.4230 -0.8918  0.0612
   16SAPS  H12X 2108   0.333   0.852   4.661 -0.1522  1.0061 -0.5633
   16SAPS  H12Y 2109   0.228   0.720   4.720  2.0208 -0.5593  0.8666
   16SAPS  C313 2110   0.168   0.913   4.790 -0.1289 -0.7838  0.1148
   16SAPS  H13X 2111   0.147   1.015   4.752  0.2449 -1.0461 -0.8264
   16SAPS  H13Y 2112   0.242   0.931   4.871 -1.5480  1.1892  1.0604
   16SAPS  C314 2113   0.039   0.847   4.845 -0.3784  0.2674  0.0945
   16SAPS  H14X 2114   0.042   0.739   4.872 -2.3440 -0.1663 -1.1884
   16SAPS  H14Y 2115  -0.029   0.854   4.757 -0.2427 -0.5140 -0.0817
   16SAPS  C315 2116  -0.021   0.920   4.968 -0.4244  0.2749  0.4911
   16SAPS  H15X 2117  -0.124   0.881   4.950  0.4708 -0.7397 -3.4744
   16SAPS  H15Y 2118  -0.027   1.031   4.961  0.9442  0.3478  0.2794
   16SAPS  C316 2119   0.058   0.904   5.094  0.3541  0.6968  0.5506
   16SAPS  H16X 2120   0.011   0.974   5.166 -2.3053 -1.5987  1.2092
   16SAPS  H16Y 2121   0.163   0.936   5.079  0.3171  0.6133  0.0891
   16SAPS  C317 2122   0.049   0.763   5.152  0.1454 -0.4966  0.3667
   16SAPS  H17X 2123   0.099   0.760   5.251 -2.0660 -2.5083  1.5312
   16SAPS  H17Y 2124   0.107   0.688   5.093 -1.6325 -1.3302 -0.3953
   16SAPS  C318 2125  -0.097   0.717   5.169  0.0839 -0.1107  0.2405
   16SAPS  H18X 2126  -0.149   0.706   5.071  0.0776 -1.0541  0.3437
   16SAPS  H18Y 2127  -0.159   0.793   5.220  1.1412  1.5198 -0.7790
   16SAPS  H18Z 2128  -0.102   0.626   5.232 -2.4791 -0.4592 -0.3811
   17SAPS     N 2129   4.245   0.060   2.498 -0.2698 -0.9785  0.1204
   17SAPS   HN1 2130   4.287   0.036   2.590 -0.3482  1.2629  0.7837
   17SAPS   HN2 2131   4.287   0.002   2.423 -1.1872 -1.9999  0.3662
   17SAPS   HN3 2132   4.271   0.157   2.472  2.6634 -1.6224  0.3254
   17SAPS   C12 2133   4.096   0.034   2.505 -0.4048  0.5753  0.1973
   17SAPS  H12A 2134   4.064   0.086   2.594  0.3782  1.4754 -0.0307
   17SAPS   C13 2135   4.019   0.090   2.375 -0.7611  0.2102 -0.3464
   17SAPS  O13A 2136   4.086   0.112   2.267  0.2335  0.4554 -0.1280
   17SAPS  O13B 2137   3.895   0.071   2.369  0.2347 -0.5862 -0.6197
   17SAPS   C11 2138   4.069  -0.116   2.515  0.0910  0.1403  0.2217
   17SAPS  H11A 2139   4.107  -0.165   2.423 -0.6632 -2.7319  1.3086
   17SAPS  H11B 2140   3.960  -0.134   2.502  0.2523 -1.0343  0.3479
   17SAPS     P 2141   4.033  -0.166   2.767  0.0786 -0.0286 -0.1562
   17SAPS   O13 2142   4.061  -0.033   2.815  0.0354 -0.3834  0.1973
   17SAPS   O14 2143   3.890  -0.197   2.740 -0.1728 -0.4102  0.0277
   17SAPS   O12 2144   4.114  -0.178   2.634 -0.7163  0.0784  0.5134
   17SAPS   O11 2145   4.089  -0.286   2.857  0.1808 -0.1552  0.7773
   17SAPS    C1 2146   4.222  -0.289   2.907  0.4550 -0.2298  0.5115
   17SAPS    HA 2147   4.289  -0.346   2.839  0.5937 -0.6693  1.0086
   17SAPS    HB 2148   4.264  -0.187   2.918 -0.8102  0.3755 -0.0569
   17SAPS    C2 2149   4.234  -0.362   3.050  0.2737  0.4545 -0.6917
   17SAPS    HS 2150   4.155  -0.440   3.050 -2.4197  2.9296 -3.1117
   17SAPS   O21 2151   4.196  -0.275   3.158 -0.3088 -0.3464  0.0132
   17SAPS   C21 2152   4.279  -0.186   3.205  0.3482 -0.5277 -0.5816
   17SAPS   O22 2153   4.382  -0.151   3.153 -0.2855 -0.3555 -0.1641
   17SAPS   C22 2154   4.208  -0.110   3.315  0.6338  0.1444 -0.5408
   17SAPS   H2R 2155   4.246  -0.005   3.310  3.2434 -0.7017 -0.1134
   17SAPS   H2S 2156   4.099  -0.108   3.293  0.2242 -1.5892  1.1194
   17SAPS    C3 2157   4.374  -0.435   3.066 -0.3148 -0.1673 -0.4207
   17SAPS    HX 2158   4.462  -0.378   3.030  0.0485 -1.2152 -1.2460
   17SAPS    HY 2159   4.364  -0.535   3.020 -0.4151 -0.2215 -0.2798
   17SAPS   O31 2160   4.400  -0.461   3.213  0.6151 -0.0848 -0.0358
   17SAPS   C31 2161   4.452  -0.577   3.246 -0.6841  1.2179 -0.0992
   17SAPS   O32 2162   4.455  -0.676   3.171  0.4570 -0.1393 -0.3836
   17SAPS   C32 2163   4.504  -0.565   3.392 -0.4922  0.1822  0.3537
   17SAPS   H2X 2164   4.428  -0.518   3.457 -1.2298  1.4787 -1.3643
   17SAPS   H2Y 2165   4.591  -0.498   3.374  0.9517 -2.1022 -1.8146
   17SAPS   C23 2166   4.226  -0.167   3.461 -0.0920 -1.3557 -0.2885
   17SAPS   H3R 2167   4.191  -0.089   3.533  0.4204 -0.7083 -0.7302
   17SAPS   H3S 2168   4.334  -0.184   3.480  0.6026  0.8091 -1.8763
   17SAPS   C24 2169   4.154  -0.291   3.502  0.2396  0.3304  0.0605
   17SAPS   H4R 2170   4.162  -0.302   3.612  2.9792 -0.8323 -0.1963
   17SAPS   H4S 2171   4.211  -0.372   3.452 -0.8483  1.1003 -2.6099
   17SAPS   C25 2172   4.022  -0.300   3.440 -0.3316  0.3307 -0.6452
   17SAPS   H5R 2173   4.032  -0.349   3.342  3.0221 -2.5886  0.9400
   17SAPS   C26 2174   3.898  -0.278   3.491  0.4319  0.3161 -0.1421
   17SAPS   H6R 2175   3.807  -0.293   3.431  0.3052 -1.3752  0.4402
   17SAPS   C27 2176   3.859  -0.224   3.626 -0.0357  0.2163  0.4082
   17SAPS   H7R 2177   3.857  -0.113   3.633 -1.9654  0.1596  1.2655
   17SAPS   H7S 2178   3.933  -0.255   3.704  0.3642  3.4635  1.4586
   17SAPS   C28 2179   3.722  -0.265   3.668  0.0124 -0.0779 -0.0606
   17SAPS   H8R 2180   3.658  -0.314   3.593  1.4118 -2.6519  0.3461
   17SAPS   C29 2181   3.662  -0.241   3.790 -0.2324  0.5192  0.5775
   17SAPS   H9R 2182   3.561  -0.282   3.805 -0.3053 -0.1233 -1.3684
   17SAPS  C210 2183   3.726  -0.179   3.909  0.4771 -0.0417 -0.0233
   17SAPS  H10R 2184   3.658  -0.102   3.952 -1.1838 -1.8359  0.7138
   17SAPS  H10S 2185   3.820  -0.125   3.883  1.4304 -0.9337  1.3812
   17SAPS  C211 2186   3.756  -0.282   4.016  0.1236 -0.0213  0.1732
   17SAPS  H11R 2187   3.862  -0.313   4.010  0.0495 -0.1605 -0.4715
   17SAPS  C212 2188   3.669  -0.316   4.109  0.7330  0.7198  0.2145
   17SAPS  H12R 2189   3.684  -0.394   4.186  0.6070 -0.2200 -0.6931
   17SAPS  C213 2190   3.521  -0.267   4.099 -0.3104 -0.8038  0.2565
   17SAPS  H13R 2191   3.466  -0.324   4.020 -0.4062 -1.6002  0.8896
   17SAPS  H13S 2192   3.515  -0.160   4.067  1.0453 -0.5764  0.7076
   17SAPS  C214 2193   3.453  -0.275   4.236 -0.5616 -0.6232  0.0020
   17SAPS  H14R 2194   3.392  -0.363   4.262  0.9889 -0.9503  2.9451
   17SAPS  C215 2195   3.471  -0.180   4.331  0.4345  0.8018  0.0575
   17SAPS  H15R 2196   3.407  -0.186   4.420 -0.6265  0.0794 -0.7104
   17SAPS  C216 2197   3.557  -0.065   4.319 -0.4831 -0.4381 -0.6270
   17SAPS  H16R 2198   3.498   0.029   4.328 -0.4458 -0.5178  0.6634
   17SAPS  H16S 2199   3.617  -0.063   4.225  0.5769 -0.3878  0.0311
   17SAPS  C217 2200   3.665  -0.059   4.433  0.2709  0.5668 -0.5378
   17SAPS  H17R 2201   3.741  -0.139   4.421  1.3680  1.7791 -2.3033
   17SAPS  H17S 2202   3.609  -0.067   4.528 -0.1214 -1.3401 -0.8833
   17SAPS  C218 2203   3.734   0.075   4.425  0.1217 -0.2775  0.9097
   17SAPS  H18R 2204   3.676   0.164   4.457  0.5973  0.2327  0.3929
   17SAPS  H18S 2205   3.752   0.083   4.315  1.2104 -2.9111  0.8083
   17SAPS  C219 2206   3.876   0.089   4.491  0.1237 -0.5878  0.3408
   17SAPS  H19R 2207   3.946   0.014   4.449  2.5642  2.3668 -1.3146
   17SAPS  H19S 2208   3.867   0.087   4.601 -0.1744 -1.9218  0.3134
   17SAPS  C220 2209   3.952   0.216   4.449  0.6153  0.4137  0.2097
   17SAPS  H20R 2210   4.058   0.220   4.483  1.3328  0.0693 -1.8619
   17SAPS  H20S 2211   3.886   0.303   4.471 -1.4389 -0.7592 -0.9725
   17SAPS  H20T 2212   3.949   0.213   4.338 -1.4486  0.0348  0.2361
   17SAPS   C33 2213   4.550  -0.703   3.451  0.0836 -0.4959  0.7906
   17SAPS   H3X 2214   4.639  -0.754   3.410  0.0907 -0.6089  0.9439
   17SAPS   H3Y 2215   4.467  -0.775   3.431  0.7479 -1.0985  0.1535
   17SAPS   C34 2216   4.555  -0.704   3.609  0.7048 -0.7995  0.3735
   17SAPS   H4X 2217   4.629  -0.623   3.631  1.6780 -1.5634 -0.0081
   17SAPS   H4Y 2218   4.609  -0.790   3.653  2.2914 -0.4520 -0.7737
   17SAPS   C35 2219   4.417  -0.686   3.671 -1.0754 -0.5651 -0.0099
   17SAPS   H5X 2220   4.346  -0.762   3.631 -0.3368 -0.7106 -1.0620
   17SAPS   H5Y 2221   4.367  -0.590   3.645  1.0020  1.0040  1.4674
   17SAPS   C36 2222   4.429  -0.688   3.826  0.1270  0.0792  0.0461
   17SAPS   H6X 2223   4.509  -0.616   3.854  0.4333 -0.1314 -0.2735
   17SAPS   H6Y 2224   4.453  -0.792   3.854  0.7335  0.5245  1.2358
   17SAPS   C37 2225   4.291  -0.653   3.889  0.4450 -0.1226  0.5105
   17SAPS   H7X 2226   4.215  -0.733   3.871  1.3945 -1.0098  0.2904
   17SAPS   H7Y 2227   4.245  -0.571   3.830  1.1434 -0.4528 -0.5187
   17SAPS   C38 2228   4.295  -0.605   4.028  0.8113 -0.4006  0.9403
   17SAPS   H8X 2229   4.197  -0.554   4.043  0.5174  0.1381 -2.1321
   17SAPS   H8Y 2230   4.373  -0.527   4.028 -1.3069  1.8493 -0.0427
   17SAPS   C39 2231   4.317  -0.711   4.134  0.5019  0.7793 -0.9204
   17SAPS   H9X 2232   4.411  -0.765   4.107 -0.6772 -1.0424 -1.5222
   17SAPS   H9Y 2233   4.229  -0.777   4.120  1.1811 -0.2482 -0.4914
   17SAPS  C310 2234   4.339  -0.648   4.271 -0.1774  1.6181 -0.1332
   17SAPS  H10X 2235   4.248  -0.587   4.291 -1.4108  0.2964 -1.4019
   17SAPS  H10Y 2236   4.433  -0.590   4.263  0.2702  0.7576 -1.6875
   17SAPS  C311 2237   4.363  -0.751   4.378  0.1313  0.0662 -0.4514
   17SAPS  H11X 2238   4.467  -0.788   4.383 -0.9983 -3.5029 -0.4580
   17SAPS  H11Y 2239   4.295  -0.834   4.351  0.8042 -0.2467 -1.2126
   17SAPS  C312 2240   4.311  -0.718   4.522  0.4608 -0.5071  0.1030
   17SAPS  H12X 2241   4.263  -0.806   4.570  0.1365  0.4228  1.5611
   17SAPS  H12Y 2242   4.226  -0.647   4.527  0.2388 -0.6136 -1.6154
   17SAPS  C313 2243   4.430  -0.680   4.605 -0.0861 -0.3808 -0.0812
   17SAPS  H13X 2244   4.483  -0.597   4.555 -0.5439  0.2241  0.4192
   17SAPS  H13Y 2245   4.498  -0.767   4.616 -1.7042 -1.5126  1.8661
   17SAPS  C314 2246   4.399  -0.617   4.737 -0.3829  1.2132  0.8603
   17SAPS  H14X 2247   4.324  -0.538   4.711 -0.2605  1.6347  1.7630
   17SAPS  H14Y 2248   4.482  -0.554   4.774 -0.3344  2.8474 -1.7308
   17SAPS  C315 2249   4.346  -0.727   4.823 -0.0897 -0.6417  0.5143
   17SAPS  H15X 2250   4.429  -0.783   4.870 -0.6630 -0.5223  1.7046
   17SAPS  H15Y 2251   4.285  -0.799   4.764  0.2723  1.3136 -2.4399
   17SAPS  C316 2252   4.256  -0.669   4.928 -0.0090 -0.1329 -0.1070
   17SAPS  H16X 2253   4.180  -0.609   4.875  1.2702  1.7861  0.1343
   17SAPS  H16Y 2254   4.315  -0.603   4.994 -0.7996  2.2123 -1.5999
   17SAPS  C317 2255   4.189  -0.777   5.017 -0.9993  0.1921  0.3080
   17SAPS  H17X 2256   4.269  -0.838   5.064  0.5181 -1.2881 -3.7088
   17SAPS  H17Y 2257   4.141  -0.846   4.944  1.7224 -0.5058 -0.9645
   17SAPS  C318 2258   4.087  -0.733   5.122  0.2395 -0.3371 -0.0926
   17SAPS  H18X 2259   4.021  -0.820   5.143 -1.0403  0.2756 -1.3694
   17SAPS  H18Y 2260   4.014  -0.670   5.066  0.6940  0.0118 -0.2908
   17SAPS  H18Z 2261   4.128  -0.676   5.208  0.8681  0.7527 -1.0919
   18SAPS     N 2262   1.362   3.625   2.836  0.0679  0.0839 -0.1263
   18SAPS   HN1 2263   1.461   3.610   2.865  1.3516  2.6446 -2.6520
   18SAPS   HN2 2264   1.363   3.636   2.733 -3.6580 -1.4515 -0.4783
   18SAPS   HN3 2265   1.343   3.719   2.877 -0.8169 -0.3793  0.5631
   18SAPS   C12 2266   1.286   3.511   2.882 -0.4253 -0.6257 -0.4957
   18SAPS  H12A 2267   1.292   3.505   2.990  1.6238  1.4133 -0.4204
   18SAPS   C13 2268   1.139   3.508   2.843 -0.0930 -0.5600  0.0277
   18SAPS  O13A 2269   1.088   3.607   2.783  0.0928 -0.0590 -0.0197
   18SAPS  O13B 2270   1.064   3.417   2.894 -0.3175  0.2392  0.3620
   18SAPS   C11 2271   1.363   3.384   2.835  0.1075 -0.0692  0.2076
   18SAPS  H11A 2272   1.344   3.360   2.728 -1.7866 -1.9678  0.9086
   18SAPS  H11B 2273   1.318   3.298   2.889 -0.6682 -0.1579 -0.5733
   18SAPS     P 2274   1.623   3.396   2.770  0.2313  0.1395  0.5121
   18SAPS   O13 2275   1.572   3.435   2.637 -0.1946 -0.4600 -0.1969
   18SAPS   O14 2276   1.735   3.476   2.818 -0.4900  0.3152 -0.2246
   18SAPS   O12 2277   1.501   3.400   2.862 -0.8202 -0.1030  0.0874
   18SAPS   O11 2278   1.657   3.239   2.762  0.0999  0.1030  0.0375
   18SAPS    C1 2279   1.620   3.142   2.865  0.1846 -0.6324  0.1912
   18SAPS    HA 2280   1.516   3.156   2.900  0.4601 -0.5462  0.9854
   18SAPS    HB 2281   1.631   3.038   2.826  0.5058  0.1781 -2.0412
   18SAPS    C2 2282   1.725   3.140   2.981  0.4428  0.0456  0.4319
   18SAPS    HS 2283   1.722   3.037   3.024  2.9618 -0.2799 -0.0147
   18SAPS   O21 2284   1.703   3.246   3.073 -0.0813  0.2713  0.2706
   18SAPS   C21 2285   1.585   3.239   3.133 -0.5436  0.7317  0.1239
   18SAPS   O22 2286   1.514   3.141   3.128  0.3545 -0.1435 -0.3937
   18SAPS   C22 2287   1.565   3.372   3.214 -0.0047  0.3377  0.7538
   18SAPS   H2R 2288   1.664   3.390   3.259  1.8614  0.0054 -2.8063
   18SAPS   H2S 2289   1.552   3.448   3.134  0.4795 -1.6065 -1.2789
   18SAPS    C3 2290   1.865   3.170   2.928  0.2361 -0.1624 -0.8893
   18SAPS    HX 2291   1.864   3.277   2.899 -1.0943  0.1004  0.0074
   18SAPS    HY 2292   1.880   3.096   2.847 -2.4054 -1.3660 -0.3936
   18SAPS   O31 2293   1.970   3.154   3.028 -0.3022 -0.4501 -0.3708
   18SAPS   C31 2294   2.095   3.193   2.991 -0.4821  0.3202  0.2452
   18SAPS   O32 2295   2.124   3.229   2.881  0.4401  0.4339  0.8892
   18SAPS   C32 2296   2.193   3.174   3.113 -0.3595  0.1340 -0.1335
   18SAPS   H2X 2297   2.273   3.114   3.065 -0.2957  2.0077 -2.6361
   18SAPS   H2Y 2298   2.142   3.116   3.192 -0.8479  0.8121  0.0596
   18SAPS   C23 2299   1.439   3.367   3.301 -0.2599 -0.3061 -0.1505
   18SAPS   H3R 2300   1.351   3.335   3.241 -0.4183  0.5556 -0.3963
   18SAPS   H3S 2301   1.413   3.469   3.335  0.8682  0.2698 -0.9407
   18SAPS   C24 2302   1.450   3.256   3.410  0.4860  0.1805  0.4504
   18SAPS   H4R 2303   1.503   3.166   3.374  1.6287  0.7449  0.6502
   18SAPS   H4S 2304   1.345   3.223   3.422 -0.0143  1.2878 -0.5707
   18SAPS   C25 2305   1.535   3.312   3.522 -0.6057 -0.5059  0.3762
   18SAPS   H5R 2306   1.641   3.295   3.501 -1.1033 -2.3318 -0.9723
   18SAPS   C26 2307   1.493   3.369   3.631 -0.0182 -0.4591  0.3080
   18SAPS   H6R 2308   1.568   3.391   3.709  0.5450  0.0807 -0.3707
   18SAPS   C27 2309   1.349   3.397   3.666 -0.0305  0.0112  0.3948
   18SAPS   H7R 2310   1.325   3.294   3.703  1.7153 -0.6279 -0.1692
   18SAPS   H7S 2311   1.292   3.411   3.572 -0.0781 -0.1670  0.3964
   18SAPS   C28 2312   1.321   3.501   3.774  0.0608 -0.1024  0.0600
   18SAPS   H8R 2313   1.370   3.598   3.759 -1.0183  0.3874 -0.4182
   18SAPS   C29 2314   1.240   3.483   3.879 -0.4923 -0.3045 -0.0241
   18SAPS   H9R 2315   1.237   3.561   3.957 -1.7628  0.9895 -1.2940
   18SAPS  C210 2316   1.157   3.365   3.911 -0.9190  0.1505  0.3886
   18SAPS  H10R 2317   1.212   3.285   3.965 -1.9697  0.0044  1.2888
   18SAPS  H10S 2318   1.112   3.320   3.820 -0.8488  0.0000  0.4278
   18SAPS  C211 2319   1.033   3.407   3.991  0.1803  0.5782 -0.2025
   18SAPS  H11R 2320   0.977   3.485   3.938 -1.5814  1.0791  2.2315
   18SAPS  C212 2321   1.019   3.373   4.120  0.5393 -0.1239 -0.5088
   18SAPS  H12R 2322   0.934   3.412   4.177  1.3520 -1.7218  1.9255
   18SAPS  C213 2323   1.108   3.275   4.199  0.5489  0.0601 -0.4197
   18SAPS  H13R 2324   1.208   3.324   4.212  0.7383 -0.9873  2.8538
   18SAPS  H13S 2325   1.127   3.178   4.148 -1.4031  0.7636 -2.6766
   18SAPS  C214 2326   1.057   3.251   4.336 -0.0204  0.6671 -0.8585
   18SAPS  H14R 2327   0.957   3.206   4.345  0.3641 -0.2105 -0.8875
   18SAPS  C215 2328   1.119   3.278   4.452  0.4395  0.7276  1.2947
   18SAPS  H15R 2329   1.060   3.256   4.543 -2.1503 -1.4805 -0.7759
   18SAPS  C216 2330   1.255   3.344   4.480  1.6916  0.4940  0.9190
   18SAPS  H16R 2331   1.238   3.453   4.486  1.5848  0.5628 -0.3504
   18SAPS  H16S 2332   1.334   3.322   4.405  1.3915  1.5797  0.2599
   18SAPS  C217 2333   1.308   3.298   4.613 -0.4843 -0.1737 -0.1024
   18SAPS  H17R 2334   1.362   3.201   4.599  2.1008  0.7275  2.5291
   18SAPS  H17S 2335   1.232   3.299   4.694  0.0338  2.0217  0.4141
   18SAPS  C218 2336   1.410   3.394   4.677 -0.1270 -0.1896  0.2234
   18SAPS  H18R 2337   1.414   3.362   4.783 -0.9001  0.1591  0.3695
   18SAPS  H18S 2338   1.366   3.496   4.675  2.3702  0.9330 -0.3611
   18SAPS  C219 2339   1.548   3.385   4.614  0.3416 -0.1623  0.5927
   18SAPS  H19R 2340   1.540   3.408   4.505 -0.9458 -0.7790  0.5495
   18SAPS  H19S 2341   1.582   3.280   4.629  2.8777  0.2400 -1.5341
   18SAPS  C220 2342   1.643   3.475   4.678  0.5083  0.5977  0.8213
   18SAPS  H20R 2343   1.747   3.458   4.641  0.5856  0.5605  1.0549
   18SAPS  H20S 2344   1.638   3.461   4.788 -1.9543  2.1764  0.9764
   18SAPS  H20T 2345   1.613   3.581   4.662 -2.3016 -0.2670 -0.1051
   18SAPS   C33 2346   2.245   3.304   3.171  0.6146 -0.1758  0.1155
   18SAPS   H3X 2347   2.154   3.366   3.186 -0.1809 -0.9068 -1.4395
   18SAPS   H3Y 2348   2.308   3.354   3.094 -0.1228  1.7896  0.7126
   18SAPS   C34 2349   2.331   3.289   3.294  0.4149  0.1969 -0.7339
   18SAPS   H4X 2350   2.421   3.226   3.274  1.9055  2.1446 -0.4068
   18SAPS   H4Y 2351   2.279   3.226   3.369  0.7168 -0.4402 -1.0472
   18SAPS   C35 2352   2.386   3.415   3.363 -0.6911  0.0725  0.0388
   18SAPS   H5X 2353   2.425   3.472   3.276 -2.4008  2.3726  0.6889
   18SAPS   H5Y 2354   2.473   3.384   3.425 -0.2449 -0.3318 -0.7656
   18SAPS   C36 2355   2.298   3.493   3.452 -0.5970  0.0733 -0.7269
   18SAPS   H6X 2356   2.259   3.425   3.532  0.7422  1.0442  0.8147
   18SAPS   H6Y 2357   2.208   3.527   3.396 -2.4314  0.5955  2.2711
   18SAPS   C37 2358   2.366   3.622   3.511  0.1926 -0.0781  0.7405
   18SAPS   H7X 2359   2.285   3.684   3.554 -1.3185 -0.6902 -1.0803
   18SAPS   H7Y 2360   2.396   3.686   3.425  4.1332  2.1231  3.4654
   18SAPS   C38 2361   2.484   3.587   3.612  0.2283 -0.7280  0.3366
   18SAPS   H8X 2362   2.527   3.687   3.636 -0.3232 -0.0119 -1.4894
   18SAPS   H8Y 2363   2.562   3.525   3.562  1.3565  0.6985  0.2488
   18SAPS   C39 2364   2.431   3.527   3.742 -0.4722 -0.6590 -0.0986
   18SAPS   H9X 2365   2.518   3.502   3.807 -0.1761 -1.5871 -0.8231
   18SAPS   H9Y 2366   2.392   3.427   3.712  1.8529 -1.8874  0.7115
   18SAPS  C310 2367   2.344   3.613   3.820  0.3221 -0.8584 -0.0688
   18SAPS  H10X 2368   2.251   3.624   3.760  0.5460 -1.3122 -0.5031
   18SAPS  H10Y 2369   2.388   3.714   3.830  1.2838 -1.3943  1.5872
   18SAPS  C311 2370   2.300   3.565   3.958  0.2526 -0.7153  0.0353
   18SAPS  H11X 2371   2.266   3.650   4.020 -0.5802 -1.0168  0.0053
   18SAPS  H11Y 2372   2.384   3.525   4.019  0.5959  0.9797  0.7443
   18SAPS  C312 2373   2.195   3.454   3.949 -0.0519  0.7476  0.2946
   18SAPS  H12X 2374   2.196   3.398   4.045 -0.1919 -0.0522 -0.1617
   18SAPS  H12Y 2375   2.225   3.389   3.863 -1.1352  2.0542 -1.1090
   18SAPS  C313 2376   2.051   3.514   3.939 -0.2768 -0.1163  0.2492
   18SAPS  H13X 2377   2.049   3.598   3.866 -0.3015 -0.0085  0.3733
   18SAPS  H13Y 2378   2.022   3.563   4.034  1.8418  1.7495  0.0006
   18SAPS  C314 2379   1.936   3.408   3.911  0.5733 -0.0482 -0.0907
   18SAPS  H14X 2380   1.842   3.462   3.930  1.1959  0.6502  1.1024
   18SAPS  H14Y 2381   1.944   3.339   3.998 -1.3605 -0.1432  0.0425
   18SAPS  C315 2382   1.942   3.330   3.779  0.5374  0.1358  0.0793
   18SAPS  H15X 2383   1.864   3.252   3.778 -0.1607  0.8172 -1.3015
   18SAPS  H15Y 2384   2.046   3.291   3.768  0.8031  1.3886 -3.3547
   18SAPS  C316 2385   1.927   3.421   3.659  0.2824 -0.6495 -0.5043
   18SAPS  H16X 2386   2.010   3.493   3.651  0.4666 -0.7181  0.6617
   18SAPS  H16Y 2387   1.834   3.482   3.662  0.8388  0.1986 -0.0270
   18SAPS  C317 2388   1.934   3.348   3.527  0.1081 -0.0250 -0.1144
   18SAPS  H17X 2389   1.859   3.266   3.531  0.2021 -0.1155 -0.1777
   18SAPS  H17Y 2390   2.030   3.291   3.529 -0.2531 -0.7026 -1.0977
   18SAPS  C318 2391   1.910   3.437   3.404 -0.0460 -0.3706 -0.1108
   18SAPS  H18X 2392   2.014   3.469   3.380  0.2287 -0.6192  0.6997
   18SAPS  H18Y 2393   1.855   3.523   3.446 -0.4157 -0.5752 -0.1761
   18SAPS  H18Z 2394   1.855   3.391   3.319  1.2513 -0.2247 -1.0654
   19SAPS     N 2395   0.683   0.372   2.552 -1.1149 -0.6399  0.0643
   19SAPS   HN1 2396   0.622   0.411   2.478 -2.6887 -1.0167  1.1228
   19SAPS   HN2 2397   0.653   0.275   2.577  0.3106 -0.8871  0.9202
   19SAPS   HN3 2398   0.673   0.437   2.632  0.2230  3.4750 -2.7447
   19SAPS   C12 2399   0.835   0.388   2.525  0.6635 -0.0900  0.5554
   19SAPS  H12A 2400   0.881   0.374   2.622  0.9221 -1.5259  0.2552
   19SAPS   C13 2401   0.877   0.275   2.431  0.1862  0.1314  0.3581
   19SAPS  O13A 2402   0.814   0.167   2.421  0.0371 -0.1304 -0.0386
   19SAPS  O13B 2403   0.996   0.283   2.385 -0.2613  0.3977 -0.0074
   19SAPS   C11 2404   0.873   0.528   2.475  0.3581  0.5231  0.3747
   19SAPS  H11A 2405   0.827   0.551   2.376 -1.5340  1.5090  1.4224
   19SAPS  H11B 2406   0.981   0.529   2.452  0.8602  0.4319  2.5173
   19SAPS     P 2407   0.723   0.728   2.553 -0.3459 -0.0666 -0.4650
   19SAPS   O13 2408   0.758   0.856   2.484  0.3766 -0.0294  0.0399
   19SAPS   O14 2409   0.608   0.653   2.499 -0.0917  0.2702  0.2101
   19SAPS   O12 2410   0.852   0.633   2.565  1.0786 -0.3144 -0.2030
   19SAPS   O11 2411   0.686   0.760   2.706 -0.0306 -0.1945 -0.1243
   19SAPS    C1 2412   0.777   0.820   2.797 -0.0846 -0.4560 -0.2690
   19SAPS    HA 2413   0.864   0.859   2.739 -0.0650  0.4328  0.3336
   19SAPS    HB 2414   0.734   0.903   2.857  2.1552 -0.3888  1.3933
   19SAPS    C2 2415   0.831   0.718   2.903 -0.0653 -0.0410 -0.9504
   19SAPS    HS 2416   0.882   0.637   2.847 -0.0890 -0.6794 -0.0758
   19SAPS   O21 2417   0.715   0.671   2.973 -0.1347  0.4401  0.8137
   19SAPS   C21 2418   0.743   0.566   3.046 -0.3914 -0.6359 -0.3004
   19SAPS   O22 2419   0.850   0.512   3.053 -0.1169  0.3974  0.3450
   19SAPS   C22 2420   0.632   0.520   3.142 -0.2370 -0.2903 -0.1701
   19SAPS   H2R 2421   0.542   0.577   3.113 -1.7526 -2.4150  0.1119
   19SAPS   H2S 2422   0.616   0.412   3.122 -1.3466 -0.6619  2.4123
   19SAPS    C3 2423   0.932   0.796   2.995 -0.3219  0.7285 -0.0147
   19SAPS    HX 2424   0.876   0.862   3.064 -3.3894 -1.7795  0.0958
   19SAPS    HY 2425   0.981   0.877   2.936 -1.3018  2.5169  1.5105
   19SAPS   O31 2426   1.028   0.715   3.069  0.6410  0.5586  0.5800
   19SAPS   C31 2427   1.160   0.733   3.054  0.0903 -0.1948  0.4160
   19SAPS   O32 2428   1.212   0.805   2.972  0.5286  0.0809  0.2031
   19SAPS   C32 2429   1.239   0.651   3.157 -0.2574 -0.0279  0.2771
   19SAPS   H2X 2430   1.258   0.728   3.235  0.2663 -1.3907  1.5199
   19SAPS   H2Y 2431   1.341   0.627   3.121 -0.5133 -0.3628 -0.2521
   19SAPS   C23 2432   0.666   0.540   3.290 -0.5929  1.1034 -0.1715
   19SAPS   H3R 2433   0.660   0.648   3.315  2.3819  1.9264 -2.3641
   19SAPS   H3S 2434   0.767   0.499   3.315 -1.4123 -0.3427  0.9991
   19SAPS   C24 2435   0.561   0.468   3.377  0.3979  0.5598 -0.2548
   19SAPS   H4R 2436   0.598   0.456   3.481 -0.1787  1.1946  0.0311
   19SAPS   H4S 2437   0.556   0.363   3.343 -0.3953  1.1465 -2.0640
   19SAPS   C25 2438   0.416   0.527   3.367  0.0335  0.1804 -0.1005
   19SAPS   H5R 2439   0.367   0.478   3.282  0.1131  0.0798 -0.0894
   19SAPS   C26 2440   0.351   0.617   3.449 -0.1006 -0.0621 -0.1467
   19SAPS   H6R 2441   0.247   0.646   3.427  0.1182  0.9982  0.1400
   19SAPS   C27 2442   0.411   0.686   3.571 -0.2829 -0.2066 -0.7774
   19SAPS   H7R 2443   0.334   0.756   3.610 -0.3872 -0.1849 -1.0184
   19SAPS   H7S 2444   0.507   0.732   3.539  0.3434 -0.2811  0.8896
   19SAPS   C28 2445   0.438   0.590   3.687 -0.1887  0.4101 -0.4959
   19SAPS   H8R 2446   0.416   0.485   3.663 -0.1448 -0.2488  2.1302
   19SAPS   C29 2447   0.490   0.616   3.809 -0.0799  0.0446 -0.6141
   19SAPS   H9R 2448   0.521   0.529   3.869  0.5306 -0.3623 -1.5128
   19SAPS  C210 2449   0.536   0.751   3.855 -0.1276  0.0122 -0.2495
   19SAPS  H10R 2450   0.533   0.823   3.771  0.5191 -1.2920 -1.4207
   19SAPS  H10S 2451   0.647   0.744   3.868 -0.1227 -3.6512 -1.1881
   19SAPS  C211 2452   0.477   0.810   3.978 -0.0452 -0.1710  0.4523
   19SAPS  H11R 2453   0.368   0.801   3.988  0.0783 -1.1508  1.1009
   19SAPS  C212 2454   0.540   0.882   4.073 -0.4391 -0.6463  0.4073
   19SAPS  H12R 2455   0.482   0.907   4.163 -1.1485 -1.2367  0.1336
   19SAPS  C213 2456   0.692   0.912   4.078  0.3271 -0.6467  0.1351
   19SAPS  H13R 2457   0.728   0.964   3.986  1.0722 -0.3801  0.5730
   19SAPS  H13S 2458   0.744   0.814   4.078 -1.6434 -1.7752  2.0920
   19SAPS  C214 2459   0.732   0.987   4.200 -0.4160 -0.3438  0.3789
   19SAPS  H14R 2460   0.714   1.095   4.190 -1.3831 -0.6274 -1.3194
   19SAPS  C215 2461   0.777   0.938   4.313 -0.5933 -0.5463 -0.3594
   19SAPS  H15R 2462   0.812   1.018   4.381  1.4495 -2.0457  0.4573
   19SAPS  C216 2463   0.781   0.785   4.348 -0.6391 -0.1876  0.0947
   19SAPS  H16R 2464   0.888   0.756   4.363 -0.1385  1.3577 -0.3654
   19SAPS  H16S 2465   0.753   0.731   4.255 -0.9933  1.6678 -0.9192
   19SAPS  C217 2466   0.709   0.742   4.468  0.2681  0.4391 -0.2462
   19SAPS  H17R 2467   0.607   0.784   4.479 -0.0027  0.1311 -1.4148
   19SAPS  H17S 2468   0.753   0.798   4.553 -0.6075 -0.1371  0.6117
   19SAPS  C218 2469   0.708   0.589   4.498  0.2530  0.0147 -0.5713
   19SAPS  H18R 2470   0.812   0.557   4.522  0.4505  1.2409  0.3002
   19SAPS  H18S 2471   0.667   0.529   4.414 -3.2285 -2.1742  2.3765
   19SAPS  C219 2472   0.628   0.566   4.630  0.5986 -0.3466 -0.3240
   19SAPS  H19R 2473   0.545   0.640   4.640  0.1717 -0.9838  1.0454
   19SAPS  H19S 2474   0.704   0.602   4.703  1.0010  0.8175 -1.2727
   19SAPS  C220 2475   0.575   0.426   4.664  0.1999  0.6348 -0.0155
   19SAPS  H20R 2476   0.500   0.389   4.591  0.5144  0.8057 -0.4317
   19SAPS  H20S 2477   0.524   0.432   4.762  0.3390  1.9284  0.0068
   19SAPS  H20T 2478   0.666   0.362   4.659 -0.8880 -1.0037  0.6074
   19SAPS   C33 2479   1.179   0.520   3.215 -0.2980  0.1253 -0.1218
   19SAPS   H3X 2480   1.258   0.446   3.235 -4.0523 -3.4800  3.2429
   19SAPS   H3Y 2481   1.109   0.473   3.142 -0.1999  0.0421 -0.1614
   19SAPS   C34 2482   1.111   0.543   3.353  0.0159  0.4051  0.7064
   19SAPS   H4X 2483   1.033   0.617   3.324 -1.0047  0.3682  3.0907
   19SAPS   H4Y 2484   1.183   0.590   3.423  0.1171  0.1132  0.8015
   19SAPS   C35 2485   1.055   0.416   3.413 -0.3408  0.3580 -0.2367
   19SAPS   H5X 2486   1.128   0.344   3.455 -0.9846  1.5478  3.2406
   19SAPS   H5Y 2487   1.002   0.366   3.330  0.7589 -0.3636 -0.5278
   19SAPS   C36 2488   0.962   0.446   3.531 -0.4576  0.3934  0.2959
   19SAPS   H6X 2489   0.893   0.530   3.510 -1.0717  0.4385  2.3071
   19SAPS   H6Y 2490   1.035   0.479   3.608  0.2259  0.4194 -0.3411
   19SAPS   C37 2491   0.879   0.321   3.570 -0.8512 -0.3509 -0.7072
   19SAPS   H7X 2492   0.950   0.236   3.576  1.3781  1.3279 -1.9469
   19SAPS   H7Y 2493   0.803   0.291   3.494  1.2040 -1.2565 -2.5126
   19SAPS   C38 2494   0.818   0.333   3.716  0.0194 -0.1382  0.6310
   19SAPS   H8X 2495   0.748   0.247   3.724 -0.2308 -0.4765 -3.2727
   19SAPS   H8Y 2496   0.766   0.430   3.729  2.7262  1.6158 -0.5248
   19SAPS   C39 2497   0.924   0.316   3.824 -0.5740 -0.5752  0.7779
   19SAPS   H9X 2498   0.998   0.399   3.829 -0.1574 -0.9650  1.2389
   19SAPS   H9Y 2499   0.980   0.221   3.812  2.1115  1.0873 -0.7916
   19SAPS  C310 2500   0.868   0.317   3.964 -0.0401  0.8304 -0.2392
   19SAPS  H10X 2501   0.821   0.218   3.982 -0.1098  0.8578 -0.2688
   19SAPS  H10Y 2502   0.791   0.397   3.971  0.2065  1.1584 -1.1514
   19SAPS  C311 2503   0.986   0.323   4.071 -0.2909  0.0100  0.0850
   19SAPS  H11X 2504   1.034   0.422   4.057  1.4692 -1.1135 -2.4475
   19SAPS  H11Y 2505   1.062   0.247   4.045 -0.8140 -0.2478 -0.7534
   19SAPS  C312 2506   0.921   0.304   4.201  0.1845 -0.5656 -0.4970
   19SAPS  H12X 2507   0.886   0.198   4.200  0.2966 -0.7125 -4.4307
   19SAPS  H12Y 2508   0.839   0.376   4.217  0.5172 -0.2444 -0.2401
   19SAPS  C313 2509   1.036   0.310   4.311  0.2184  0.1069 -0.2055
   19SAPS  H13X 2510   1.105   0.231   4.275 -0.4167 -0.4994 -0.1014
   19SAPS  H13Y 2511   1.000   0.286   4.413  1.2958  0.9437  0.3921
   19SAPS  C314 2512   1.121   0.435   4.327  0.1156 -0.1162  0.0868
   19SAPS  H14X 2513   1.055   0.513   4.369 -1.5770 -1.3201 -0.2577
   19SAPS  H14Y 2514   1.153   0.459   4.223 -2.1734  0.0045 -0.6376
   19SAPS  C315 2515   1.238   0.419   4.432  0.5599 -0.0330 -0.1747
   19SAPS  H15X 2516   1.312   0.346   4.394  0.0988  0.8611 -3.0467
   19SAPS  H15Y 2517   1.187   0.390   4.526  0.0789  0.2005 -0.3557
   19SAPS  C316 2518   1.319   0.552   4.464  0.1276  0.6689  0.4590
   19SAPS  H16X 2519   1.238   0.628   4.478  0.7081  0.9445  2.6279
   19SAPS  H16Y 2520   1.379   0.590   4.378  0.1795  1.3568  0.7935
   19SAPS  C317 2521   1.395   0.546   4.593  0.7254 -0.3547 -0.0781
   19SAPS  H17X 2522   1.451   0.641   4.602  0.5002 -0.0113 -1.9485
   19SAPS  H17Y 2523   1.468   0.465   4.571  1.8991  1.5733 -4.3032
   19SAPS  C318 2524   1.322   0.513   4.721 -0.0886  0.2021 -1.2195
   19SAPS  H18X 2525   1.389   0.527   4.808 -1.5875  0.0250  0.0219
   19SAPS  H18Y 2526   1.266   0.417   4.729  0.1574  0.0575 -1.2206
   19SAPS  H18Z 2527   1.245   0.593   4.731  0.1689  0.1952  2.4839
   20SAPS     N 2528   0.286   2.315   2.476  0.2985 -0.5663 -0.0342
   20SAPS   HN1 2529   0.242   2.237   2.530 -0.3809  0.7571  1.4118
   20SAPS   HN2 2530   0.316   2.398   2.530 -1.4342 -0.4527  0.8292
   20SAPS   HN3 2531   0.207   2.344   2.414 -0.9579 -2.2666  0.6707
   20SAPS   C12 2532   0.405   2.249   2.410  0.0812 -0.5569  0.1672
   20SAPS  H12A 2533   0.451   2.177   2.476  1.4063 -0.0876 -0.2099
   20SAPS   C13 2534   0.365   2.176   2.280 -0.7854 -0.4453  0.4346
   20SAPS  O13A 2535   0.246   2.198   2.242 -0.0746  0.3019  0.3958
   20SAPS  O13B 2536   0.446   2.120   2.213  0.0477  0.5589  1.0805
   20SAPS   C11 2537   0.515   2.351   2.373  0.6869  0.3384 -0.7035
   20SAPS  H11A 2538   0.490   2.407   2.280 -1.9095 -2.5543 -1.9303
   20SAPS  H11B 2539   0.608   2.293   2.354  0.3874 -1.0450  1.6838
   20SAPS     P 2540   0.588   2.420   2.621 -0.2150 -0.3867  0.0155
   20SAPS   O13 2541   0.681   2.533   2.660  0.3593  0.5757 -0.3198
   20SAPS   O14 2542   0.469   2.394   2.710 -0.2430  0.0866 -0.4488
   20SAPS   O12 2543   0.541   2.451   2.472 -0.6062  0.5489 -0.0590
   20SAPS   O11 2544   0.664   2.282   2.596 -0.1176 -0.8299 -0.2576
   20SAPS    C1 2545   0.801   2.281   2.570 -0.7289 -0.1205 -0.1397
   20SAPS    HA 2546   0.816   2.239   2.469 -3.1228 -1.0024 -0.1833
   20SAPS    HB 2547   0.857   2.377   2.574  1.3631 -1.2502 -0.4243
   20SAPS    C2 2548   0.889   2.196   2.662  0.2068  0.6236  0.6225
   20SAPS    HS 2549   0.867   2.091   2.631  1.2120  0.8166 -0.8168
   20SAPS   O21 2550   0.868   2.204   2.799 -0.5407 -0.5856 -0.3165
   20SAPS   C21 2551   0.778   2.121   2.848  0.4486 -0.3834  0.5616
   20SAPS   O22 2552   0.705   2.046   2.784  0.3195 -0.1940  0.0880
   20SAPS   C22 2553   0.781   2.130   3.011  0.7922 -0.2315  0.5170
   20SAPS   H2R 2554   0.826   2.222   3.052  0.5851 -0.1400  0.5408
   20SAPS   H2S 2555   0.673   2.109   3.030  0.4468  0.8350 -0.1638
   20SAPS    C3 2556   1.041   2.199   2.631 -0.2898 -0.1449  0.1017
   20SAPS    HX 2557   1.062   2.196   2.522  0.1611 -0.8100  0.2001
   20SAPS    HY 2558   1.068   2.100   2.674 -0.2674 -0.1728  0.0238
   20SAPS   O31 2559   1.111   2.313   2.689 -0.0358  0.0605 -0.2033
   20SAPS   C31 2560   1.155   2.307   2.817 -0.3896 -0.1367  0.7051
   20SAPS   O32 2561   1.145   2.212   2.895  0.1012  0.6687  0.3362
   20SAPS   C32 2562   1.223   2.441   2.852  0.5577 -0.2146  0.4387
   20SAPS   H2X 2563   1.206   2.510   2.767  0.3655  0.3019  0.8874
   20SAPS   H2Y 2564   1.332   2.437   2.872  0.6505  0.7541  0.1427
   20SAPS   C23 2565   0.861   2.010   3.068  0.4639  0.0610 -0.2487
   20SAPS   H3R 2566   0.971   2.023   3.058  0.5715 -1.6659 -1.6444
   20SAPS   H3S 2567   0.843   1.924   3.001  1.5204 -0.6902  0.4109
   20SAPS   C24 2568   0.825   1.986   3.215 -0.1882 -0.1089 -0.1090
   20SAPS   H4R 2569   0.875   1.892   3.250 -0.7191  0.1504  1.4356
   20SAPS   H4S 2570   0.716   1.982   3.236  0.0937  0.0234  1.5005
   20SAPS   C25 2571   0.866   2.089   3.319 -0.0673  0.4015  0.1814
   20SAPS   H5R 2572   0.796   2.174   3.314  0.2728  0.5937 -2.4386
   20SAPS   C26 2573   0.963   2.081   3.410 -0.6176 -0.4541 -0.3547
   20SAPS   H6R 2574   0.981   2.163   3.480  1.7106 -0.3570 -0.9916
   20SAPS   C27 2575   1.064   1.973   3.434  0.0806 -0.6275  0.2308
   20SAPS   H7R 2576   1.035   1.880   3.380  0.5861 -0.5241 -0.2235
   20SAPS   H7S 2577   1.058   1.943   3.541 -0.3806  0.9032  0.6634
   20SAPS   C28 2578   1.204   2.012   3.396  0.3275  0.2609 -1.2038
   20SAPS   H8R 2579   1.227   2.003   3.289  0.4825  1.0102 -1.2359
   20SAPS   C29 2580   1.296   2.053   3.494 -0.5842  0.2183  0.0254
   20SAPS   H9R 2581   1.395   2.076   3.452 -0.9675 -0.5402 -1.3412
   20SAPS  C210 2582   1.274   2.080   3.644  0.0523 -0.2953 -0.4106
   20SAPS  H10R 2583   1.378   2.101   3.676  0.0948  0.0332 -0.7570
   20SAPS  H10S 2584   1.248   1.983   3.691  0.2667 -0.3403 -0.3835
   20SAPS  C211 2585   1.194   2.198   3.688  0.4019 -0.3099  0.1716
   20SAPS  H11R 2586   1.203   2.286   3.623 -0.4919  0.3349  0.8977
   20SAPS  C212 2587   1.133   2.213   3.809 -0.7891  0.2248  0.6623
   20SAPS  H12R 2588   1.088   2.312   3.822  0.1817  0.8208 -0.3313
   20SAPS  C213 2589   1.112   2.107   3.912 -0.3442  0.2572  0.7451
   20SAPS  H13R 2590   1.138   2.006   3.872 -2.0183  1.0217 -2.6056
   20SAPS  H13S 2591   1.005   2.093   3.939  0.4650 -4.3168  2.5204
   20SAPS  C214 2592   1.198   2.136   4.031 -0.1599 -0.0662  0.2351
   20SAPS  H14R 2593   1.290   2.195   4.014 -0.9336  1.3502  0.7458
   20SAPS  C215 2594   1.166   2.116   4.160  0.7345 -0.0286 -0.3585
   20SAPS  H15R 2595   1.238   2.146   4.237  0.7922 -0.3002 -0.3053
   20SAPS  C216 2596   1.036   2.052   4.206 -0.4330 -0.1292 -0.3356
   20SAPS  H16R 2597   1.065   1.971   4.275  0.5215  0.8109  0.3983
   20SAPS  H16S 2598   0.985   2.007   4.118  0.6984 -1.3439 -0.3960
   20SAPS  C217 2599   0.942   2.157   4.274  0.3205  0.3577 -0.9482
   20SAPS  H17R 2600   0.859   2.086   4.296  1.4411 -0.6092  0.3233
   20SAPS  H17S 2601   0.906   2.233   4.201  3.5205 -0.2447 -3.3876
   20SAPS  C218 2602   0.985   2.213   4.411 -0.6830  0.2729 -0.7936
   20SAPS  H18R 2603   0.942   2.313   4.435 -1.2981 -0.0723 -0.4339
   20SAPS  H18S 2604   1.092   2.242   4.413 -0.6822  0.2436  0.1113
   20SAPS  C219 2605   0.965   2.115   4.532 -0.7431 -0.3644  0.2518
   20SAPS  H19R 2606   1.004   2.019   4.491 -1.2739 -0.0850 -0.9432
   20SAPS  H19S 2607   0.856   2.105   4.548 -0.8568 -0.9920 -0.8203
   20SAPS  C220 2608   1.024   2.156   4.667 -0.3657  0.7489 -0.2748
   20SAPS  H20R 2609   0.968   2.243   4.709 -0.1047 -0.8991  3.9249
   20SAPS  H20S 2610   1.131   2.180   4.648  0.1656 -1.6999 -0.6738
   20SAPS  H20T 2611   1.026   2.076   4.744 -0.3165 -0.2650 -1.3114
   20SAPS   C33 2612   1.160   2.515   2.971 -0.4337  0.5374  0.7514
   20SAPS   H3X 2613   1.051   2.528   2.950 -0.0335 -1.0427 -3.0428
   20SAPS   H3Y 2614   1.207   2.616   2.972  1.1095 -0.1512  1.8288
   20SAPS   C34 2615   1.177   2.457   3.112  0.5851  0.4103 -0.1626
   20SAPS   H4X 2616   1.134   2.355   3.109  0.3464  0.5149 -0.4675
   20SAPS   H4Y 2617   1.113   2.522   3.176  1.0963 -0.3351  1.1397
   20SAPS   C35 2618   1.324   2.463   3.162 -0.1584  0.6667  0.2884
   20SAPS   H5X 2619   1.372   2.555   3.122  0.5236  0.3196  0.2911
   20SAPS   H5Y 2620   1.385   2.384   3.113 -0.0171  1.1210 -0.2801
   20SAPS   C36 2621   1.338   2.439   3.319  0.1222 -0.4023  0.3140
   20SAPS   H6X 2622   1.306   2.336   3.347 -3.5337  0.5830  0.2062
   20SAPS   H6Y 2623   1.256   2.502   3.358 -0.9662 -1.4895 -0.1568
   20SAPS   C37 2624   1.470   2.477   3.387  0.1429  0.1353  0.2947
   20SAPS   H7X 2625   1.491   2.584   3.365  1.0114 -0.1026 -0.0731
   20SAPS   H7Y 2626   1.566   2.422   3.376  0.5413  0.6964  0.9144
   20SAPS   C38 2627   1.449   2.472   3.542  0.5045  0.1119  0.0158
   20SAPS   H8X 2628   1.546   2.485   3.594 -0.0839 -2.0274  1.7905
   20SAPS   H8Y 2629   1.425   2.372   3.584  2.5654  0.2236  1.6041
   20SAPS   C39 2630   1.343   2.574   3.586 -0.0455  0.4959 -0.7165
   20SAPS   H9X 2631   1.247   2.518   3.586 -0.4635  1.0990  1.8141
   20SAPS   H9Y 2632   1.345   2.667   3.525  1.8748  1.8441  1.2261
   20SAPS  C310 2633   1.368   2.618   3.730  0.0113  0.2953  0.5623
   20SAPS  H10X 2634   1.304   2.706   3.751  0.0855  1.1723 -2.4518
   20SAPS  H10Y 2635   1.474   2.644   3.748  0.6517 -1.3246 -0.6277
   20SAPS  C311 2636   1.336   2.512   3.833  0.4789 -0.3863 -0.4851
   20SAPS  H11X 2637   1.398   2.425   3.803 -0.5132 -0.7552 -1.5303
   20SAPS  H11Y 2638   1.228   2.486   3.829 -0.0021  1.3938 -0.1124
   20SAPS  C312 2639   1.377   2.575   3.975  0.4499  0.7526  0.5439
   20SAPS  H12X 2640   1.304   2.658   3.982 -0.0673  0.6184 -2.2650
   20SAPS  H12Y 2641   1.481   2.613   3.972  0.1195  1.7262  0.9365
   20SAPS  C313 2642   1.360   2.466   4.089  0.1892 -0.1168  0.7126
   20SAPS  H13X 2643   1.420   2.376   4.063  0.3351 -0.1088  1.0256
   20SAPS  H13Y 2644   1.255   2.429   4.086  0.6734 -1.4991 -1.1028
   20SAPS  C314 2645   1.407   2.513   4.230 -0.3442  0.0821  0.0742
   20SAPS  H14X 2646   1.352   2.609   4.243 -1.6273 -0.5851 -0.3294
   20SAPS  H14Y 2647   1.515   2.538   4.224  0.0433 -1.6536 -0.8424
   20SAPS  C315 2648   1.365   2.416   4.344  0.3035 -0.3600 -0.1945
   20SAPS  H15X 2649   1.412   2.315   4.333  0.2335 -0.1627 -2.7545
   20SAPS  H15Y 2650   1.257   2.394   4.332  0.1764 -0.4594  0.9577
   20SAPS  C316 2651   1.406   2.468   4.479 -0.0588 -0.1198 -0.3256
   20SAPS  H16X 2652   1.371   2.574   4.479 -0.9039 -0.3843  1.0323
   20SAPS  H16Y 2653   1.517   2.467   4.477  0.0044 -2.4707 -2.9668
   20SAPS  C317 2654   1.341   2.388   4.592  0.3342  0.4397  0.0765
   20SAPS  H17X 2655   1.378   2.285   4.572  0.7698  0.9610 -1.9787
   20SAPS  H17Y 2656   1.233   2.375   4.570  0.6210 -1.1128 -0.5642
   20SAPS  C318 2657   1.363   2.435   4.727  0.5745  0.6203  0.1003
   20SAPS  H18X 2658   1.326   2.539   4.737 -0.4113  0.3004 -0.1050
   20SAPS  H18Y 2659   1.468   2.425   4.761  0.0739  1.3153  1.9925
   20SAPS  H18Z 2660   1.309   2.362   4.791  1.4121 -0.0078  0.1086
   21CHL1    C3 2661   3.013   6.051   6.501  0.1902 -0.6172  0.2178
   21CHL1    H3 2662   3.120   6.061   6.531  0.7125 -0.2010 -1.6255
   21CHL1    O3 2663   2.937   6.046   6.620  0.3683  0.0968 -0.2117
   21CHL1   H3' 2664   2.860   5.992   6.602 -0.4418  1.1326  0.0019
   21CHL1    C4 2665   2.985   6.179   6.421 -0.0447  0.2383 -0.4757
   21CHL1   H4A 2666   2.880   6.188   6.387 -0.2776  3.3574  0.7491
   21CHL1   H4B 2667   3.006   6.257   6.497 -1.1750 -0.6891  0.8322
   21CHL1    C5 2668   3.078   6.171   6.303 -0.6318  0.4249  0.0852
   21CHL1    C6 2669   3.173   6.261   6.292 -0.2952 -0.2892  0.0058
   21CHL1    H6 2670   3.180   6.335   6.373 -0.0672  0.1987 -0.4428
   21CHL1    C7 2671   3.274   6.266   6.175 -0.0068  0.4452 -0.4857
   21CHL1   H7A 2672   3.286   6.366   6.128 -0.9527  1.6174  1.6049
   21CHL1   H7B 2673   3.374   6.234   6.213 -0.7325  1.4022  2.4625
   21CHL1    C8 2674   3.237   6.176   6.062 -0.0178 -0.4099 -0.2069
   21CHL1    H8 2675   3.165   6.240   6.007  0.4794  0.1588 -0.2114
   21CHL1   C14 2676   3.355   6.150   5.974  0.0786 -0.0961  0.2789
   21CHL1   H14 2677   3.418   6.081   6.034 -0.8313 -1.6072 -0.4408
   21CHL1   C15 2678   3.450   6.266   5.932  0.4198 -0.2583  0.9408
   21CHL1  H15A 2679   3.396   6.360   5.911  1.1346  0.1095  0.7269
   21CHL1  H15B 2680   3.519   6.290   6.016 -0.5713  0.7819  1.4822
   21CHL1   C16 2681   3.530   6.216   5.807  0.4174  0.0489  0.3520
   21CHL1  H16A 2682   3.505   6.295   5.733 -3.3228  0.6247  1.9870
   21CHL1  H16B 2683   3.639   6.210   5.823  0.3259  0.2931  1.0835
   21CHL1   C17 2684   3.474   6.071   5.788  0.6582  0.3451 -0.6612
   21CHL1   H17 2685   3.537   6.020   5.863 -0.4136 -0.4936 -0.3037
   21CHL1   C13 2686   3.326   6.068   5.848 -0.0290 -0.3997 -0.2322
   21CHL1   C18 2687   3.234   6.148   5.751  0.0580 -0.2720  0.9621
   21CHL1  H18A 2688   3.278   6.237   5.701 -0.7254  0.0668  0.8622
   21CHL1  H18B 2689   3.213   6.093   5.657  0.6896  2.1402 -0.7051
   21CHL1  H18C 2690   3.140   6.185   5.796  0.4655  0.6350  1.0958
   21CHL1   C12 2691   3.265   5.937   5.890 -0.1173 -0.2304  0.7315
   21CHL1  H12A 2692   3.241   5.874   5.802  0.5868 -0.4492  0.6870
   21CHL1  H12B 2693   3.338   5.879   5.951 -0.0568 -0.5298  0.3809
   21CHL1   C11 2694   3.143   5.956   5.981 -1.0606  0.0751  1.1786
   21CHL1  H11A 2695   3.054   5.993   5.925  0.0258  0.8232 -0.1144
   21CHL1  H11B 2696   3.118   5.855   6.019 -0.6649 -0.5214 -0.0681
   21CHL1    C9 2697   3.182   6.045   6.108 -0.1436 -0.0678 -0.2140
   21CHL1    H9 2698   3.262   5.993   6.166 -0.6046 -0.0838  0.4248
   21CHL1   C10 2699   3.069   6.050   6.212 -0.3246 -0.7648 -0.0082
   21CHL1   C19 2700   2.936   6.068   6.128  0.0744 -0.3976  0.5406
   21CHL1  H19A 2701   2.946   6.142   6.046 -0.7180 -0.4054  0.4358
   21CHL1  H19B 2702   2.924   5.970   6.077 -0.6943  0.8711 -1.8676
   21CHL1  H19C 2703   2.859   6.090   6.205  0.6642  0.0741  1.0102
   21CHL1    C1 2704   3.068   5.919   6.294 -0.0468 -0.6390 -0.1737
   21CHL1   H1A 2705   3.030   5.843   6.223  0.3663 -2.3647  1.3681
   21CHL1   H1B 2706   3.169   5.883   6.324  0.4977  0.4485 -0.6546
   21CHL1    C2 2707   2.977   5.930   6.417  0.1738  0.4442  0.0819
   21CHL1   H2A 2708   2.990   5.841   6.482  0.4900  1.1006  0.9244
   21CHL1   H2B 2709   2.870   5.931   6.388  0.4661 -1.1767 -1.2349
   21CHL1   C20 2710   3.493   6.007   5.650 -0.7186  0.4573 -0.5224
   21CHL1   H20 2711   3.408   5.936   5.645 -1.4609  1.2485  0.4159
   21CHL1   C21 2712   3.624   5.923   5.676 -0.2627  0.4389  0.0050
   21CHL1  H21A 2713   3.713   5.984   5.699 -1.4577  1.4143  2.3267
   21CHL1  H21B 2714   3.640   5.869   5.579 -1.4224 -1.6081  0.8824
   21CHL1  H21C 2715   3.606   5.847   5.755 -0.7501  0.2411 -0.2843
   21CHL1   C22 2716   3.513   6.095   5.529  0.3100 -0.1836 -0.7106
   21CHL1  H22A 2717   3.438   6.175   5.516  0.4686  0.0964  0.0674
   21CHL1  H22B 2718   3.614   6.139   5.548 -1.2037  3.0553  0.4644
   21CHL1   C23 2719   3.507   6.016   5.396 -0.0609 -0.8689  0.2679
   21CHL1  H23A 2720   3.560   5.918   5.402  3.6042  1.0162  2.1407
   21CHL1  H23B 2721   3.399   5.995   5.382 -0.0476 -1.5955  1.1829
   21CHL1   C24 2722   3.572   6.098   5.287 -0.6276  0.2809  0.0054
   21CHL1  H24A 2723   3.496   6.174   5.260 -0.5493  0.4438  0.2376
   21CHL1  H24B 2724   3.657   6.159   5.325 -1.3890 -0.1283  2.5903
   21CHL1   C25 2725   3.599   6.035   5.149  0.4958 -0.3615  0.1746
   21CHL1   H25 2726   3.518   5.965   5.119  0.9992 -1.3911  1.1640
   21CHL1   C26 2727   3.624   6.140   5.038  0.5598  0.4266  0.4908
   21CHL1  H26A 2728   3.523   6.185   5.030 -0.1597 -0.9440  1.4059
   21CHL1  H26B 2729   3.699   6.215   5.071  0.0846  0.2315  2.0679
   21CHL1  H26C 2730   3.669   6.106   4.942  1.7451  2.5354  0.2266
   21CHL1   C27 2731   3.721   5.944   5.160 -0.6384  0.3235  1.1354
   21CHL1  H27A 2732   3.701   5.861   5.231 -2.0115 -0.5943 -0.2734
   21CHL1  H27B 2733   3.752   5.890   5.068  0.9478  0.8199  1.3473
   21CHL1  H27C 2734   3.820   5.989   5.180 -0.5192  0.8937 -0.6074
   22CHL1    C3 2735   5.385   6.797   6.462 -0.4417  0.7273 -0.1614
   22CHL1    H3 2736   5.492   6.826   6.457 -0.2827  0.1060 -0.3901
   22CHL1    O3 2737   5.353   6.767   6.596 -0.3339 -0.3684  0.3911
   22CHL1   H3' 2738   5.261   6.740   6.597 -0.7966  1.1293  0.0323
   22CHL1    C4 2739   5.270   6.890   6.410 -1.2553 -0.5229  0.3467
   22CHL1   H4A 2740   5.172   6.849   6.442 -1.5954  0.0523  0.0607
   22CHL1   H4B 2741   5.290   6.988   6.459 -1.9226  0.3326 -1.0322
   22CHL1    C5 2742   5.282   6.919   6.265 -0.3398  0.6494  0.3950
   22CHL1    C6 2743   5.279   7.045   6.215 -0.3732 -0.7936 -0.6461
   22CHL1    H6 2744   5.281   7.132   6.282 -0.5076 -0.4931 -1.0327
   22CHL1    C7 2745   5.277   7.070   6.063  1.1523 -0.3575 -0.8417
   22CHL1   H7A 2746   5.215   7.159   6.037  1.7307  0.0443 -0.8706
   22CHL1   H7B 2747   5.381   7.105   6.042  0.7886  0.6027 -1.0902
   22CHL1    C8 2748   5.240   6.939   5.983  0.3413 -0.6053 -0.0261
   22CHL1    H8 2749   5.131   6.921   5.993  0.2682  0.4180  1.3063
   22CHL1   C14 2750   5.282   6.970   5.833 -0.6594  0.3461  0.3687
   22CHL1   H14 2751   5.392   6.981   5.842 -0.6527  0.9615 -0.3021
   22CHL1   C15 2752   5.211   7.082   5.757 -0.7734 -0.3157  0.2521
   22CHL1  H15A 2753   5.101   7.083   5.767 -0.9133 -0.8391 -1.0340
   22CHL1  H15B 2754   5.252   7.174   5.803 -0.5569  0.4965 -1.5086
   22CHL1   C16 2755   5.246   7.061   5.609  0.8480  0.2236 -0.9080
   22CHL1  H16A 2756   5.152   7.064   5.551 -1.0655 -1.7428  1.8167
   22CHL1  H16B 2757   5.308   7.145   5.572 -0.1787  0.3383 -2.4854
   22CHL1   C17 2758   5.309   6.923   5.609  0.1211  0.6344  0.5095
   22CHL1   H17 2759   5.420   6.930   5.615  0.3139 -1.5769  0.2131
   22CHL1   C13 2760   5.267   6.851   5.738 -0.3839 -0.0373 -0.5188
   22CHL1   C18 2761   5.112   6.814   5.725 -0.0836  0.3363  0.2975
   22CHL1  H18A 2762   5.107   6.722   5.662 -0.9180 -1.9843  3.4800
   22CHL1  H18B 2763   5.072   6.791   5.826 -0.9415 -0.6071 -0.2476
   22CHL1  H18C 2764   5.051   6.893   5.678 -0.3062  0.1014  0.1932
   22CHL1   C12 2765   5.348   6.731   5.789 -0.6274  0.8697 -0.0265
   22CHL1  H12A 2766   5.331   6.641   5.727  0.3804  0.6105  0.0570
   22CHL1  H12B 2767   5.456   6.754   5.776  0.1873 -2.2612  0.3887
   22CHL1   C11 2768   5.311   6.701   5.936 -0.5593  0.0483 -0.5239
   22CHL1  H11A 2769   5.206   6.666   5.930 -0.7576  0.6636 -0.7864
   22CHL1  H11B 2770   5.375   6.623   5.981 -0.3060  1.3962  1.5811
   22CHL1    C9 2771   5.316   6.820   6.039  0.3009  0.0165  0.5440
   22CHL1    H9 2772   5.424   6.847   6.036  0.7058 -1.5468  0.3589
   22CHL1   C10 2773   5.278   6.787   6.182  0.4507  0.1067  0.0912
   22CHL1   C19 2774   5.134   6.723   6.187  0.0740 -0.0150 -0.0181
   22CHL1  H19A 2775   5.066   6.791   6.131  1.3655  0.5777 -0.9203
   22CHL1  H19B 2776   5.144   6.624   6.137 -0.1206 -0.0549  0.0216
   22CHL1  H19C 2777   5.100   6.712   6.292 -0.7809  0.5431 -0.2262
   22CHL1    C1 2778   5.383   6.682   6.232  0.1165 -0.2918  0.6496
   22CHL1   H1A 2779   5.363   6.583   6.184  0.8648 -1.2220  2.1531
   22CHL1   H1B 2780   5.487   6.716   6.214  0.7135 -2.4063 -0.2495
   22CHL1    C2 2781   5.383   6.662   6.381  0.1580  0.2992 -0.7849
   22CHL1   H2A 2782   5.467   6.598   6.413 -0.6660  0.9044  3.0222
   22CHL1   H2B 2783   5.293   6.605   6.413  3.0319 -2.6939  2.9161
   22CHL1   C20 2784   5.284   6.842   5.472  0.2523 -0.1717 -0.4000
   22CHL1   H20 2785   5.188   6.786   5.478  0.2159 -0.1021 -0.3247
   22CHL1   C21 2786   5.394   6.738   5.465  0.0828 -0.2841  1.1231
   22CHL1  H21A 2787   5.384   6.676   5.373  2.4819  1.2557 -0.2832
   22CHL1  H21B 2788   5.400   6.673   5.555 -0.9814  1.5557  2.5852
   22CHL1  H21C 2789   5.497   6.781   5.470 -0.9655  2.3573  1.2738
   22CHL1   C22 2790   5.280   6.933   5.348  0.0180 -0.1047 -0.5232
   22CHL1  H22A 2791   5.218   7.023   5.367 -1.1502 -1.2000  1.1740
   22CHL1  H22B 2792   5.376   6.981   5.321 -0.5585  2.0160  0.9307
   22CHL1   C23 2793   5.217   6.862   5.227 -0.4163 -0.2062  0.0456
   22CHL1  H23A 2794   5.285   6.775   5.213 -0.5945 -0.1935 -0.9482
   22CHL1  H23B 2795   5.117   6.820   5.252 -0.5550 -0.1323 -0.3773
   22CHL1   C24 2796   5.224   6.941   5.101  0.3039 -0.7527 -0.5729
   22CHL1  H24A 2797   5.166   7.035   5.111  0.9647 -0.3001 -0.8922
   22CHL1  H24B 2798   5.328   6.978   5.088 -0.0407 -0.0660 -1.4777
   22CHL1   C25 2799   5.190   6.861   4.971 -0.2402 -0.2037 -0.2021
   22CHL1   H25 2800   5.213   6.929   4.886  0.9636 -2.3192 -1.6749
   22CHL1   C26 2801   5.275   6.732   4.947 -0.5040 -0.6627  0.7073
   22CHL1  H26A 2802   5.249   6.659   5.027 -3.8104  0.5409  0.9153
   22CHL1  H26B 2803   5.226   6.695   4.855 -3.2367  0.0704  1.7626
   22CHL1  H26C 2804   5.385   6.742   4.939 -0.2590 -1.1422  2.8298
   22CHL1   C27 2805   5.042   6.825   4.952 -0.9123 -0.4004  0.2002
   22CHL1  H27A 2806   5.024   6.758   4.866  0.3114 -1.9972  1.1113
   22CHL1  H27B 2807   5.014   6.768   5.044  1.2682 -0.2072  1.0464
   22CHL1  H27C 2808   4.983   6.918   4.950  0.9046  0.8174 -2.4629
   23CHL1    C3 2809   2.417   6.026   6.519 -0.1727  0.1360 -0.0906
   23CHL1    H3 2810   2.329   6.091   6.536 -0.0080 -0.1641  2.1212
   23CHL1    O3 2811   2.463   6.005   6.651  0.4600 -0.1608  0.2799
   23CHL1   H3' 2812   2.386   5.994   6.708  0.5865  0.0181  0.4818
   23CHL1    C4 2813   2.363   5.889   6.461  0.1868 -0.7892 -0.4185
   23CHL1   H4A 2814   2.447   5.818   6.476  1.7772  1.2938  1.2767
   23CHL1   H4B 2815   2.279   5.862   6.530  0.1946  2.5485  1.0838
   23CHL1    C5 2816   2.326   5.902   6.309 -0.6127 -0.0825 -0.6460
   23CHL1    C6 2817   2.201   5.863   6.268  0.6600  0.2998 -0.8400
   23CHL1    H6 2818   2.133   5.823   6.345 -0.7924  2.2654 -1.0188
   23CHL1    C7 2819   2.152   5.861   6.125  0.0643  0.3365  0.4690
   23CHL1   H7A 2820   2.106   5.763   6.100 -0.6839  0.4725  1.2491
   23CHL1   H7B 2821   2.065   5.927   6.107  0.9010  1.0235 -1.2480
   23CHL1    C8 2822   2.272   5.888   6.028  0.5337  0.6735  0.5590
   23CHL1    H8 2823   2.323   5.791   6.011  0.7538  0.5760  1.6996
   23CHL1   C14 2824   2.218   5.930   5.893 -0.2551 -0.2175 -0.3824
   23CHL1   H14 2825   2.177   6.032   5.907  0.6441  0.6147 -3.1280
   23CHL1   C15 2826   2.110   5.843   5.824  0.7076 -0.0110  1.1297
   23CHL1  H15A 2827   2.124   5.734   5.838 -3.4060 -0.7996  0.3859
   23CHL1  H15B 2828   2.010   5.863   5.867 -1.0577 -0.5709 -2.3127
   23CHL1   C16 2829   2.123   5.885   5.678 -0.1674  0.0635  0.1829
   23CHL1  H16A 2830   2.142   5.788   5.626  1.3956 -0.2726  1.3193
   23CHL1  H16B 2831   2.024   5.925   5.648  0.9971  1.8235 -1.5882
   23CHL1   C17 2832   2.240   5.992   5.671 -0.1573  0.3848  0.9678
   23CHL1   H17 2833   2.189   6.090   5.689 -2.6060 -0.8103  0.8909
   23CHL1   C13 2834   2.327   5.958   5.789 -0.0752 -0.4593  0.8342
   23CHL1   C18 2835   2.407   5.825   5.769 -0.0134 -0.1798 -0.2010
   23CHL1  H18A 2836   2.336   5.741   5.754  1.4766 -1.3867 -0.7047
   23CHL1  H18B 2837   2.470   5.822   5.677 -0.5933 -1.1937 -0.5872
   23CHL1  H18C 2838   2.469   5.784   5.851 -1.2005 -2.8849 -0.5368
   23CHL1   C12 2839   2.413   6.070   5.837  0.7147 -0.0191  0.0525
   23CHL1  H12A 2840   2.503   6.101   5.778  0.8243 -0.8612 -0.2332
   23CHL1  H12B 2841   2.348   6.160   5.846 -1.8756 -1.9229  1.3625
   23CHL1   C11 2842   2.472   6.035   5.971  0.0031 -0.4423 -0.3887
   23CHL1  H11A 2843   2.548   5.956   5.955 -1.4256 -2.4577  1.9280
   23CHL1  H11B 2844   2.520   6.128   6.008 -1.9997  0.7086 -0.4961
   23CHL1    C9 2845   2.371   5.990   6.082  0.1276 -0.4866  0.9936
   23CHL1    H9 2846   2.295   6.069   6.099 -0.7040 -1.2030  0.6748
   23CHL1   C10 2847   2.435   5.955   6.215  0.8649 -0.4781 -0.4990
   23CHL1   C19 2848   2.544   5.842   6.197 -0.3436  0.0928 -0.4269
   23CHL1  H19A 2849   2.631   5.897   6.155 -0.4323 -0.4811 -1.3968
   23CHL1  H19B 2850   2.577   5.806   6.296  2.2564  1.0175 -0.8676
   23CHL1  H19C 2851   2.505   5.754   6.141  1.2423 -2.4427  2.1937
   23CHL1    C1 2852   2.504   6.084   6.270  0.1236  0.6134 -0.0745
   23CHL1   H1A 2853   2.604   6.101   6.225  0.1244  2.3954  0.5057
   23CHL1   H1B 2854   2.443   6.173   6.241  0.2276 -0.5021 -4.4251
   23CHL1    C2 2855   2.529   6.073   6.427  0.3195 -0.2565  0.0255
   23CHL1   H2A 2856   2.567   6.168   6.470  0.5552  0.5040 -1.7534
   23CHL1   H2B 2857   2.616   6.005   6.442  0.2983 -0.8370 -2.1192
   23CHL1   C20 2858   2.306   5.989   5.529  0.3458  0.3547  0.1827
   23CHL1   H20 2859   2.368   5.897   5.522 -0.8646 -0.4001 -1.2863
   23CHL1   C21 2860   2.403   6.099   5.518 -0.1614  0.0899  0.7011
   23CHL1  H21A 2861   2.496   6.054   5.559  0.3378 -0.6597 -1.1652
   23CHL1  H21B 2862   2.372   6.189   5.576 -0.3689 -0.5541  1.6191
   23CHL1  H21C 2863   2.428   6.128   5.414  0.4223  0.6076  0.9741
   23CHL1   C22 2864   2.205   5.987   5.412  0.8566 -0.3108 -0.5301
   23CHL1  H22A 2865   2.257   5.967   5.315  1.8273  2.7902 -0.7656
   23CHL1  H22B 2866   2.129   5.907   5.425 -0.1469  0.8032  0.7349
   23CHL1   C23 2867   2.118   6.109   5.414 -0.0821 -0.4416 -0.1939
   23CHL1  H23A 2868   2.093   6.139   5.518 -0.1138  0.1266 -0.3602
   23CHL1  H23B 2869   2.170   6.200   5.376 -0.5585 -0.1445 -0.1397
   23CHL1   C24 2870   1.984   6.109   5.331 -0.0990 -0.0271  0.3318
   23CHL1  H24A 2871   2.009   6.101   5.223  1.2203  1.0155  0.5368
   23CHL1  H24B 2872   1.918   6.027   5.367  0.6612 -1.3794 -1.2697
   23CHL1   C25 2873   1.887   6.231   5.342  0.6263 -1.2746  0.6844
   23CHL1   H25 2874   1.850   6.242   5.446 -0.2703 -0.6784  0.3203
   23CHL1   C26 2875   1.953   6.371   5.317 -0.5339  0.0183  0.8259
   23CHL1  H26A 2876   2.050   6.378   5.370  1.4168 -1.1825 -2.3272
   23CHL1  H26B 2877   1.978   6.386   5.210  0.7049 -0.4844  1.0256
   23CHL1  H26C 2878   1.885   6.450   5.353 -1.2394 -0.8247  1.3973
   23CHL1   C27 2879   1.772   6.217   5.244  0.4245 -1.0452  0.3420
   23CHL1  H27A 2880   1.716   6.124   5.270 -0.2842 -0.2567  1.7581
   23CHL1  H27B 2881   1.700   6.298   5.267  1.6142 -0.6199  3.0361
   23CHL1  H27C 2882   1.806   6.215   5.138 -0.4634 -2.1755  0.0587
   24CHL1    C3 2883   3.146   5.596   6.744  0.5466  0.0186  0.5893
   24CHL1    H3 2884   3.131   5.705   6.730  2.2108  0.0203 -1.8897
   24CHL1    O3 2885   3.176   5.578   6.880 -0.3130  0.0156  0.3648
   24CHL1   H3' 2886   3.142   5.652   6.931  0.7022  0.4229  0.4811
   24CHL1    C4 2887   3.019   5.518   6.704 -0.1274  0.2941 -0.7596
   24CHL1   H4A 2888   3.040   5.411   6.729 -0.8413  0.3863  0.3137
   24CHL1   H4B 2889   2.942   5.543   6.780  1.2376 -0.2536  0.8896
   24CHL1    C5 2890   2.976   5.522   6.561  0.6963  0.5241  1.0024
   24CHL1    C6 2891   2.850   5.561   6.521 -0.9130  0.2147 -1.1090
   24CHL1    H6 2892   2.773   5.600   6.589 -1.5835 -0.5827 -1.3957
   24CHL1    C7 2893   2.812   5.559   6.382  0.2433  0.1188 -0.2034
   24CHL1   H7A 2894   2.725   5.490   6.373 -0.3538  0.9485 -0.9410
   24CHL1   H7B 2895   2.774   5.659   6.350  0.3380 -0.3112 -1.7391
   24CHL1    C8 2896   2.914   5.492   6.285 -0.0310 -0.2064 -0.2551
   24CHL1    H8 2897   2.902   5.382   6.300 -1.1286  0.1495  2.0338
   24CHL1   C14 2898   2.879   5.544   6.146 -0.2227 -0.5536 -0.3030
   24CHL1   H14 2899   2.890   5.655   6.142 -1.9383 -0.3660 -0.9417
   24CHL1   C15 2900   2.736   5.533   6.087  0.6847  0.0645  0.3239
   24CHL1  H15A 2901   2.693   5.431   6.104 -1.5685  0.3129 -2.8906
   24CHL1  H15B 2902   2.675   5.610   6.138  1.2062  1.6430 -1.3589
   24CHL1   C16 2903   2.750   5.555   5.938  0.2671 -0.5583 -0.3619
   24CHL1  H16A 2904   2.702   5.467   5.892 -0.9999 -1.2745  2.2230
   24CHL1  H16B 2905   2.698   5.644   5.896 -2.1688 -1.2028  1.1352
   24CHL1   C17 2906   2.903   5.553   5.907  0.0323  0.1947 -0.0831
   24CHL1   H17 2907   2.933   5.659   5.897 -0.5791  0.3394 -0.4303
   24CHL1   C13 2908   2.968   5.493   6.033 -0.4745  0.1872 -0.6481
   24CHL1   C18 2909   2.961   5.343   6.020 -0.8941 -0.1998 -0.4240
   24CHL1  H18A 2910   3.017   5.306   5.931 -1.7887 -2.4046 -0.1332
   24CHL1  H18B 2911   3.009   5.289   6.105  1.8873  2.6317 -0.0117
   24CHL1  H18C 2912   2.857   5.304   6.011 -0.6161 -0.5791 -2.5507
   24CHL1   C12 2913   3.118   5.531   6.061  0.2138 -0.6681  0.1860
   24CHL1  H12A 2914   3.189   5.488   5.987 -0.9985  0.7588 -1.8773
   24CHL1  H12B 2915   3.125   5.640   6.047 -0.5480 -0.8276 -1.6312
   24CHL1   C11 2916   3.157   5.481   6.205 -0.0130  0.1309 -0.0328
   24CHL1  H11A 2917   3.172   5.372   6.193 -1.6378  0.0391 -1.8239
   24CHL1  H11B 2918   3.251   5.534   6.232 -0.4224 -0.3697  2.5555
   24CHL1    C9 2919   3.053   5.532   6.317 -0.0732  0.5450  0.2823
   24CHL1    H9 2920   3.055   5.642   6.304  0.7594  0.2966 -2.3598
   24CHL1   C10 2921   3.086   5.488   6.460  0.9864  0.3294 -0.1281
   24CHL1   C19 2922   3.119   5.342   6.469  0.3240  0.5934  0.7629
   24CHL1  H19A 2923   3.199   5.314   6.397  1.1319  1.9042  1.1142
   24CHL1  H19B 2924   3.149   5.302   6.568 -1.1395 -2.0225  0.2442
   24CHL1  H19C 2925   3.034   5.279   6.435  0.6533 -0.8371  2.4770
   24CHL1    C1 2926   3.214   5.560   6.504  0.1309 -0.2790  0.0982
   24CHL1   H1A 2927   3.302   5.530   6.444  0.6168  1.2418  0.0064
   24CHL1   H1B 2928   3.199   5.665   6.470  1.0515 -0.1158  0.1771
   24CHL1    C2 2929   3.249   5.548   6.656 -0.3480  0.2462  0.1501
   24CHL1   H2A 2930   3.336   5.616   6.667  1.4038 -0.8046 -4.7954
   24CHL1   H2B 2931   3.284   5.449   6.691  0.6311  1.0698  1.6689
   24CHL1   C20 2932   2.941   5.505   5.767 -0.6077  0.3117 -0.4325
   24CHL1   H20 2933   2.923   5.396   5.751  0.5911  0.1937 -1.1038
   24CHL1   C21 2934   3.090   5.519   5.739  0.6184  0.8848  0.2318
   24CHL1  H21A 2935   3.097   5.488   5.632 -2.6002 -0.3879  0.2430
   24CHL1  H21B 2936   3.134   5.436   5.799 -0.6016  0.0543  0.0306
   24CHL1  H21C 2937   3.127   5.621   5.762  0.1437  1.1643 -0.2016
   24CHL1   C22 2938   2.858   5.581   5.661 -0.1631  0.4483 -0.5179
   24CHL1  H22A 2939   2.873   5.532   5.563  0.1126 -0.1517 -0.1815
   24CHL1  H22B 2940   2.750   5.563   5.679  0.1828  0.7950  2.6112
   24CHL1   C23 2941   2.893   5.733   5.645  0.4078  0.2041 -0.4558
   24CHL1  H23A 2942   2.858   5.788   5.735 -0.4504  0.3490 -0.8699
   24CHL1  H23B 2943   3.004   5.744   5.639  0.3169  0.6184 -1.6479
   24CHL1   C24 2944   2.825   5.808   5.529 -0.2016  0.3455  1.1064
   24CHL1  H24A 2945   2.841   5.744   5.440  1.4741  0.5357  1.2432
   24CHL1  H24B 2946   2.717   5.825   5.551 -0.2714 -0.1860  1.1715
   24CHL1   C25 2947   2.886   5.940   5.509 -0.3089 -0.2583 -0.5588
   24CHL1   H25 2948   2.995   5.917   5.505 -0.8019 -2.7220 -0.8301
   24CHL1   C26 2949   2.847   6.007   5.372  0.0782 -0.2124  0.5009
   24CHL1  H26A 2950   2.876   5.947   5.283  1.6942 -0.3076  1.0555
   24CHL1  H26B 2951   2.740   6.035   5.369  0.0721 -0.2521 -1.6491
   24CHL1  H26C 2952   2.917   6.092   5.354  0.4753 -1.0181 -2.1904
   24CHL1   C27 2953   2.862   6.030   5.626  0.1736 -0.4674 -0.4442
   24CHL1  H27A 2954   2.890   5.993   5.727  0.4593 -0.8630 -0.6664
   24CHL1  H27B 2955   2.927   6.120   5.618  0.5559 -0.8990 -2.9508
   24CHL1  H27C 2956   2.753   6.047   5.627  0.1715 -0.4791  0.1847
   25CHL1    C3 2957   6.197   1.799   6.464 -0.4549 -0.1881 -0.9020
   25CHL1    H3 2958   6.144   1.895   6.484 -0.7054 -0.3846 -0.6033
   25CHL1    O3 2959   6.246   1.754   6.592 -0.0016  0.1748  0.0018
   25CHL1   H3' 2960   6.291   1.831   6.625  0.7159  1.7242 -4.0273
   25CHL1    C4 2961   6.110   1.684   6.411  0.3347  0.3580  0.0160
   25CHL1   H4A 2962   6.185   1.603   6.399  0.1178  0.4384 -2.3447
   25CHL1   H4B 2963   6.048   1.643   6.494 -0.8583  1.3178 -0.3644
   25CHL1    C5 2964   6.049   1.703   6.275  0.2251 -0.1730 -0.6065
   25CHL1    C6 2965   5.915   1.682   6.254  0.1266 -0.3565 -0.7374
   25CHL1    H6 2966   5.859   1.656   6.345  1.8452  0.8075  0.7388
   25CHL1    C7 2967   5.851   1.692   6.115  0.0967  0.3570  0.1922
   25CHL1   H7A 2968   5.785   1.607   6.087  1.2583 -0.0614 -1.3906
   25CHL1   H7B 2969   5.792   1.784   6.131 -1.8457 -1.0043  1.2516
   25CHL1    C8 2970   5.953   1.720   5.999  0.2470  0.9143  0.2013
   25CHL1    H8 2971   5.993   1.619   5.976 -1.7266  0.0066  0.4965
   25CHL1   C14 2972   5.888   1.787   5.877 -0.8149 -0.2261  0.1100
   25CHL1   H14 2973   5.861   1.891   5.905 -0.1340 -0.0342  0.0590
   25CHL1   C15 2974   5.760   1.732   5.809  0.0697 -0.5934 -0.4892
   25CHL1  H15A 2975   5.778   1.623   5.799  1.9131 -0.2391 -1.5036
   25CHL1  H15B 2976   5.671   1.753   5.872  0.1635  0.6161 -0.7449
   25CHL1   C16 2977   5.761   1.799   5.669 -0.0455 -0.1123 -0.5439
   25CHL1  H16A 2978   5.753   1.722   5.589  1.4876 -0.0791 -0.7525
   25CHL1  H16B 2979   5.670   1.863   5.670 -0.9578 -1.3172 -1.8052
   25CHL1   C17 2980   5.890   1.876   5.656  0.0298 -0.0432  0.6361
   25CHL1   H17 2981   5.868   1.980   5.688  0.2627  1.1665 -2.7300
   25CHL1   C13 2982   5.988   1.811   5.763 -0.4751 -0.3506  0.0001
   25CHL1   C18 2983   6.032   1.678   5.710 -0.2841  0.2420 -0.3249
   25CHL1  H18A 2984   6.106   1.680   5.628  1.0489 -0.0278  0.8295
   25CHL1  H18B 2985   6.102   1.635   5.785  0.0310 -1.5477 -1.6026
   25CHL1  H18C 2986   5.960   1.596   5.690 -0.8833  0.0906  2.1259
   25CHL1   C12 2987   6.099   1.910   5.803  0.7253 -0.0252  0.7204
   25CHL1  H12A 2988   6.171   1.927   5.720 -1.7078  1.9660 -1.1569
   25CHL1  H12B 2989   6.054   2.010   5.822  0.8212 -0.3850  3.0951
   25CHL1   C11 2990   6.168   1.860   5.927 -0.3103 -0.0823  0.0969
   25CHL1  H11A 2991   6.240   1.782   5.894  0.7537  0.6455  0.6043
   25CHL1  H11B 2992   6.223   1.948   5.968 -2.4905  1.3014  0.1971
   25CHL1    C9 2993   6.076   1.799   6.045  0.4499  0.3501  0.7386
   25CHL1    H9 2994   6.037   1.894   6.087  0.1941 -0.5257  2.5859
   25CHL1   C10 2995   6.158   1.742   6.170  0.3539 -0.1307  0.6698
   25CHL1   C19 2996   6.232   1.609   6.129  0.4830 -0.3674  0.0176
   25CHL1  H19A 2997   6.274   1.561   6.220  0.5726 -4.0151 -1.7920
   25CHL1  H19B 2998   6.158   1.538   6.088 -1.9879  0.0297  3.3360
   25CHL1  H19C 2999   6.320   1.620   6.063  1.6544  0.9260  1.6825
   25CHL1    C1 3000   6.258   1.849   6.220 -0.3584  0.9934 -0.1338
   25CHL1   H1A 3001   6.342   1.854   6.148  2.0887 -1.4525  2.2979
   25CHL1   H1B 3002   6.197   1.942   6.222 -1.8010  0.0696  1.4384
   25CHL1    C2 3003   6.319   1.812   6.362 -0.8612 -0.1417  0.1039
   25CHL1   H2A 3004   6.400   1.881   6.394 -0.6849 -0.2518 -0.1051
   25CHL1   H2B 3005   6.373   1.716   6.351  0.9760  1.0462 -2.1277
   25CHL1   C20 3006   5.930   1.898   5.505 -0.0998  0.3056 -0.4002
   25CHL1   H20 3007   6.035   1.934   5.514  0.1352 -0.4009 -0.2244
   25CHL1   C21 3008   5.863   2.030   5.461 -0.2252 -0.3525  0.1435
   25CHL1  H21A 3009   5.753   2.023   5.473 -0.2935  0.5324  0.0915
   25CHL1  H21B 3010   5.872   2.064   5.356 -0.4419  0.7910  0.4896
   25CHL1  H21C 3011   5.899   2.115   5.523  0.5859  0.1452 -0.9863
   25CHL1   C22 3012   5.913   1.780   5.410 -0.5174  1.2836 -0.2875
   25CHL1  H22A 3013   5.937   1.687   5.466  1.1021  1.9823  0.2559
   25CHL1  H22B 3014   5.808   1.766   5.377 -0.3941 -1.4610  0.2608
   25CHL1   C23 3015   6.014   1.783   5.290  0.2098 -0.1509  0.5896
   25CHL1  H23A 3016   5.978   1.849   5.208 -0.7384 -0.6904  0.5512
   25CHL1  H23B 3017   6.104   1.830   5.335 -1.4289  2.6219  1.2257
   25CHL1   C24 3018   6.041   1.644   5.223  0.0611  0.6457  0.2164
   25CHL1  H24A 3019   6.084   1.570   5.294  2.4442 -0.7311 -2.4349
   25CHL1  H24B 3020   5.940   1.606   5.195  1.0208 -1.6679 -0.3542
   25CHL1   C25 3021   6.125   1.664   5.091 -0.4730  0.0040 -0.5981
   25CHL1   H25 3022   6.077   1.737   5.024 -0.2377  0.4020 -0.3364
   25CHL1   C26 3023   6.270   1.715   5.123 -0.1057 -0.2712 -0.1218
   25CHL1  H26A 3024   6.277   1.823   5.148  0.7425 -0.7421  1.8916
   25CHL1  H26B 3025   6.326   1.661   5.203 -0.0593  1.2052  0.8728
   25CHL1  H26C 3026   6.320   1.709   5.024 -2.5927 -1.5698 -1.3730
   25CHL1   C27 3027   6.139   1.530   5.019 -0.2525 -0.3069  0.0063
   25CHL1  H27A 3028   6.220   1.537   4.943  0.0858  0.6578  0.4377
   25CHL1  H27B 3029   6.170   1.453   5.093 -0.1105 -0.7207 -0.4814
   25CHL1  H27C 3030   6.053   1.513   4.951  1.4230 -2.1850 -1.7684
   26CHL1    C3 3031   4.988   4.614   6.681  0.3465 -0.0845 -0.2076
   26CHL1    H3 3032   5.003   4.504   6.680 -4.2173 -0.9306  0.1047
   26CHL1    O3 3033   4.945   4.645   6.813  0.6017  0.4650 -0.3251
   26CHL1   H3' 3034   4.900   4.730   6.806 -1.7835 -0.8122 -2.0936
   26CHL1    C4 3035   5.113   4.688   6.653 -0.2695  0.6388  0.1999
   26CHL1   H4A 3036   5.092   4.795   6.672 -0.2269  0.1369  3.8651
   26CHL1   H4B 3037   5.193   4.651   6.722 -0.9193  0.1562  0.7007
   26CHL1    C5 3038   5.163   4.667   6.502 -0.0072 -0.9819 -0.4726
   26CHL1    C6 3039   5.277   4.610   6.456  0.8503 -0.4482  0.1088
   26CHL1    H6 3040   5.353   4.586   6.532  0.1216  1.9645  1.7042
   26CHL1    C7 3041   5.321   4.611   6.309 -0.3432  0.1157 -0.7215
   26CHL1   H7A 3042   5.428   4.636   6.292 -0.2409  0.8296  0.8390
   26CHL1   H7B 3043   5.311   4.507   6.271  1.2485 -0.8182  1.2575
   26CHL1    C8 3044   5.235   4.694   6.222 -0.6198  0.2846 -0.6738
   26CHL1    H8 3045   5.266   4.799   6.241  1.8788 -0.4871 -0.1649
   26CHL1   C14 3046   5.259   4.661   6.075 -0.5230  0.1975  0.1814
   26CHL1   H14 3047   5.231   4.554   6.065 -2.1543  0.5361  0.8355
   26CHL1   C15 3048   5.398   4.670   6.015 -0.4354  0.4935 -0.3081
   26CHL1  H15A 3049   5.446   4.760   6.058  0.3423 -1.0711  2.2720
   26CHL1  H15B 3050   5.454   4.579   6.044 -0.4331  0.6534  0.1892
   26CHL1   C16 3051   5.382   4.666   5.865 -0.1872 -0.5569  0.4197
   26CHL1  H16A 3052   5.455   4.727   5.808 -0.7212 -1.2144 -1.0353
   26CHL1  H16B 3053   5.406   4.562   5.833  0.9627 -0.1580 -0.0767
   26CHL1   C17 3054   5.225   4.691   5.836 -0.0708 -0.1222  0.0153
   26CHL1   H17 3055   5.177   4.591   5.826  0.8373 -0.5407 -0.3558
   26CHL1   C13 3056   5.172   4.743   5.976 -0.5377  0.9943 -0.2364
   26CHL1   C18 3057   5.209   4.893   5.977 -0.0265 -0.4275  0.0807
   26CHL1  H18A 3058   5.144   4.946   5.904  0.7186  0.8087  0.2817
   26CHL1  H18B 3059   5.188   4.941   6.076 -0.8040  0.7141 -0.6067
   26CHL1  H18C 3060   5.318   4.905   5.958 -0.4970  0.9901 -2.1626
   26CHL1   C12 3061   5.027   4.708   6.016 -0.3917 -0.1014 -0.3528
   26CHL1  H12A 3062   4.956   4.754   5.944 -0.0981  3.1127  1.2348
   26CHL1  H12B 3063   5.019   4.598   6.001 -2.9002  0.0589 -0.5402
   26CHL1   C11 3064   4.992   4.750   6.158  0.2565  0.1851  0.5639
   26CHL1  H11A 3065   4.997   4.859   6.178 -2.6421 -0.0676  3.4625
   26CHL1  H11B 3066   4.889   4.715   6.180  0.0013  0.7630  0.3167
   26CHL1    C9 3067   5.088   4.684   6.257  0.4907  0.0951 -0.1593
   26CHL1    H9 3068   5.061   4.577   6.244 -1.5508  0.3785  1.2106
   26CHL1   C10 3069   5.052   4.717   6.406 -0.4500 -0.2095  0.2933
   26CHL1   C19 3070   5.038   4.872   6.421  0.1250  0.4832  0.3599
   26CHL1  H19A 3071   4.958   4.908   6.353 -0.9125 -1.6034  0.4081
   26CHL1  H19B 3072   5.011   4.900   6.525 -1.3127  0.4481  0.0135
   26CHL1  H19C 3073   5.133   4.927   6.406 -0.5307  1.7917  0.8069
   26CHL1    C1 3074   4.919   4.644   6.443  0.3958 -0.0402  0.3073
   26CHL1   H1A 3075   4.835   4.676   6.378 -0.0176 -2.5037 -0.4708
   26CHL1   H1B 3076   4.929   4.535   6.422 -1.1476 -0.1153 -0.1825
   26CHL1    C2 3077   4.873   4.664   6.586  0.1182 -0.0469 -0.0039
   26CHL1   H2A 3078   4.780   4.607   6.609  0.1798 -0.9176 -1.7450
   26CHL1   H2B 3079   4.846   4.768   6.614 -0.8794 -0.3118  0.0472
   26CHL1   C20 3080   5.208   4.770   5.703 -0.3200  0.1273 -0.1001
   26CHL1   H20 3081   5.257   4.867   5.726  0.7609 -1.1373  3.6215
   26CHL1   C21 3082   5.060   4.775   5.671  0.6401  0.0154  0.6259
   26CHL1  H21A 3083   5.019   4.673   5.653  0.9445 -0.2458  1.3470
   26CHL1  H21B 3084   5.053   4.810   5.566 -2.1299 -2.7743 -0.2756
   26CHL1  H21C 3085   4.993   4.829   5.741  1.1552 -0.4099  1.4622
   26CHL1   C22 3086   5.278   4.706   5.575 -0.1636  0.1234  0.4111
   26CHL1  H22A 3087   5.373   4.660   5.610  0.1305  3.3027  4.6049
   26CHL1  H22B 3088   5.213   4.629   5.529  1.2901 -2.1179  1.9120
   26CHL1   C23 3089   5.303   4.815   5.473  0.0084  0.0685 -0.4435
   26CHL1  H23A 3090   5.216   4.882   5.455  2.4241  3.2318 -1.2984
   26CHL1  H23B 3091   5.378   4.889   5.508 -0.1354  0.2961 -0.6093
   26CHL1   C24 3092   5.347   4.748   5.339 -0.2641  0.5128  0.3271
   26CHL1  H24A 3093   5.392   4.652   5.372  1.5035  1.0140 -0.4814
   26CHL1  H24B 3094   5.252   4.713   5.292  0.6041 -2.1836  0.4106
   26CHL1   C25 3095   5.429   4.834   5.243 -0.1105 -0.2788  0.1897
   26CHL1   H25 3096   5.519   4.878   5.291  0.4537 -2.5762  1.3879
   26CHL1   C26 3097   5.486   4.747   5.126  0.8756 -0.5457 -0.9138
   26CHL1  H26A 3098   5.530   4.651   5.161 -0.3119 -0.1961  1.7900
   26CHL1  H26B 3099   5.402   4.728   5.057  0.1880  1.1766 -0.5986
   26CHL1  H26C 3100   5.569   4.803   5.078  0.2488  0.5953 -0.7131
   26CHL1   C27 3101   5.345   4.955   5.191  0.3957  0.0234  0.0769
   26CHL1  H27A 3102   5.266   4.903   5.134  2.8560 -2.3610 -1.3975
   26CHL1  H27B 3103   5.297   5.000   5.281 -2.5954  0.5629 -1.6664
   26CHL1  H27C 3104   5.403   5.029   5.131  0.4209 -0.2177 -0.1993
   27CHL1    C3 3105   2.648   6.602   6.544 -0.0020  0.2155 -0.2497
   27CHL1    H3 3106   2.544   6.603   6.506  0.4295 -2.1420 -1.7325
   27CHL1    O3 3107   2.624   6.596   6.684  0.2473  0.1608  0.2862
   27CHL1   H3' 3108   2.697   6.553   6.728  0.0531  0.1604  0.6172
   27CHL1    C4 3109   2.724   6.477   6.485 -0.4554  0.0055 -0.1526
   27CHL1   H4A 3110   2.825   6.472   6.531 -0.2892  0.2837 -0.4891
   27CHL1   H4B 3111   2.662   6.390   6.518 -1.0568  0.4340 -0.1375
   27CHL1    C5 3112   2.736   6.478   6.339 -0.4718 -0.4506 -0.4725
   27CHL1    C6 3113   2.683   6.378   6.265  0.9798  0.0069 -0.4519
   27CHL1    H6 3114   2.646   6.290   6.320  1.5979 -1.1772 -1.8560
   27CHL1    C7 3115   2.678   6.379   6.114 -0.5256  0.3308 -0.1300
   27CHL1   H7A 3116   2.696   6.274   6.081 -1.1395  0.4044 -0.7138
   27CHL1   H7B 3117   2.580   6.419   6.080 -1.8403 -2.0840  0.5608
   27CHL1    C8 3118   2.788   6.474   6.050 -0.3718  0.1706 -0.4588
   27CHL1    H8 3119   2.885   6.427   6.078 -1.6417 -1.4983  1.4266
   27CHL1   C14 3120   2.765   6.474   5.901  0.3756  0.0775 -0.0681
   27CHL1   H14 3121   2.666   6.525   5.895 -0.2555 -1.0660  0.3996
   27CHL1   C15 3122   2.771   6.346   5.818  1.1009 -0.0002 -0.5113
   27CHL1  H15A 3123   2.863   6.295   5.854  1.3403  0.7370 -0.0589
   27CHL1  H15B 3124   2.680   6.283   5.828  0.2258  1.3664  0.3205
   27CHL1   C16 3125   2.796   6.394   5.674  0.0361  0.1483  0.4052
   27CHL1  H16A 3126   2.881   6.337   5.631  0.7676  1.9855 -0.7004
   27CHL1  H16B 3127   2.708   6.386   5.607  0.5914  1.3898 -0.5156
   27CHL1   C17 3128   2.841   6.542   5.684  0.3542 -0.0441 -0.6051
   27CHL1   H17 3129   2.750   6.603   5.666  0.7254  0.9398  0.7176
   27CHL1   C13 3130   2.874   6.560   5.835  0.0125  0.2843 -0.1998
   27CHL1   C18 3131   3.020   6.523   5.856  0.1078 -0.7010  0.1240
   27CHL1  H18A 3132   3.078   6.609   5.817  0.5128 -2.1091 -2.6674
   27CHL1  H18B 3133   3.044   6.495   5.961  1.0708 -1.1381 -0.1982
   27CHL1  H18C 3134   3.044   6.426   5.807 -0.7774 -1.6840  1.5626
   27CHL1   C12 3135   2.853   6.710   5.893 -0.2151  0.2367 -0.0817
   27CHL1  H12A 3136   2.917   6.780   5.835 -0.2346 -0.9566 -1.5872
   27CHL1  H12B 3137   2.747   6.733   5.868  0.3685  0.8900 -2.0633
   27CHL1   C11 3138   2.872   6.715   6.047  0.0086  0.4973  0.2007
   27CHL1  H11A 3139   2.979   6.694   6.064  0.0006  0.8218  0.6754
   27CHL1  H11B 3140   2.859   6.816   6.091  1.9618  0.1955  1.5884
   27CHL1    C9 3141   2.782   6.612   6.121 -0.4683 -0.1615 -0.4391
   27CHL1    H9 3142   2.677   6.645   6.106 -0.4392  0.9388  1.4936
   27CHL1   C10 3143   2.801   6.606   6.276 -0.8714 -0.1708  0.5479
   27CHL1   C19 3144   2.958   6.579   6.305 -0.2780 -0.9031  0.0394
   27CHL1  H19A 3145   3.012   6.507   6.240  1.5372  0.8219 -0.4749
   27CHL1  H19B 3146   3.007   6.677   6.288 -0.4173 -0.8887 -0.2984
   27CHL1  H19C 3147   2.980   6.548   6.409 -2.6670 -2.3903  0.1758
   27CHL1    C1 3148   2.738   6.729   6.342  0.1582 -0.1365 -0.5856
   27CHL1   H1A 3149   2.790   6.819   6.304  1.8455 -0.5465  0.6381
   27CHL1   H1B 3150   2.638   6.731   6.295  0.3781 -0.0447 -1.0527
   27CHL1    C2 3151   2.729   6.719   6.498  0.4072 -0.4497 -0.1851
   27CHL1   H2A 3152   2.673   6.808   6.533  1.0657 -0.0896 -0.0506
   27CHL1   H2B 3153   2.824   6.714   6.555  0.1701  0.2878  0.2794
   27CHL1   C20 3154   2.931   6.573   5.566  0.0073  0.4981 -0.2831
   27CHL1   H20 3155   3.019   6.509   5.588 -1.5261 -1.5356  0.2539
   27CHL1   C21 3156   2.973   6.720   5.564 -0.1350 -0.1463 -1.2142
   27CHL1  H21A 3157   2.905   6.797   5.522  0.2370 -0.0975 -1.7499
   27CHL1  H21B 3158   3.054   6.709   5.488  1.5575  0.5223  0.4300
   27CHL1  H21C 3159   3.021   6.762   5.655 -0.5456  0.2494 -1.1786
   27CHL1   C22 3160   2.873   6.532   5.424  0.0938  0.2224 -0.2528
   27CHL1  H22A 3161   2.768   6.565   5.408  0.9133  2.7107 -0.8371
   27CHL1  H22B 3162   2.936   6.585   5.349  0.3653  0.4016  0.1033
   27CHL1   C23 3163   2.882   6.386   5.376 -0.1005 -0.0704 -0.4346
   27CHL1  H23A 3164   2.990   6.367   5.394  0.1370  1.2028 -0.3926
   27CHL1  H23B 3165   2.815   6.313   5.426 -0.1487 -1.0702 -1.8996
   27CHL1   C24 3166   2.859   6.366   5.224  0.5159 -0.5227 -0.0279
   27CHL1  H24A 3167   2.924   6.430   5.161  0.8762 -1.1263 -0.2748
   27CHL1  H24B 3168   2.876   6.261   5.192 -2.6579 -0.7918 -1.2462
   27CHL1   C25 3169   2.715   6.401   5.178 -0.0672 -0.7361 -0.5961
   27CHL1   H25 3170   2.697   6.509   5.199  0.5303 -0.9507  1.1641
   27CHL1   C26 3171   2.711   6.377   5.025 -0.3558  0.3520 -0.7795
   27CHL1  H26A 3172   2.778   6.455   4.983  0.2417  0.5440  0.4969
   27CHL1  H26B 3173   2.729   6.270   5.001 -1.0447  0.0671 -0.0638
   27CHL1  H26C 3174   2.616   6.407   4.977 -2.3978 -2.8915  0.9098
   27CHL1   C27 3175   2.610   6.310   5.244  0.1646  0.2123  0.0802
   27CHL1  H27A 3176   2.618   6.340   5.351 -0.6362 -0.6571  0.4030
   27CHL1  H27B 3177   2.644   6.204   5.239 -1.1305 -0.1748 -0.9404
   27CHL1  H27C 3178   2.513   6.330   5.196  0.8483 -0.0417 -1.4575
   28CHL1    C3 3179   0.976   4.646   6.315  0.3289  0.0736 -0.0793
   28CHL1    H3 3180   1.074   4.609   6.278  0.3189  0.4468 -0.4844
   28CHL1    O3 3181   0.970   4.688   6.450  0.0023  0.0457  0.5057
   28CHL1   H3' 3182   0.888   4.737   6.448 -0.3571 -0.5364  0.5719
   28CHL1    C4 3183   0.933   4.766   6.237  0.4438  0.0589  0.3364
   28CHL1   H4A 3184   0.836   4.799   6.278  1.0211  1.7641  0.4008
   28CHL1   H4B 3185   1.010   4.843   6.260  0.5164 -0.0091  0.3228
   28CHL1    C5 3186   0.923   4.738   6.092 -0.0842 -0.1097 -0.0044
   28CHL1    C6 3187   0.996   4.815   6.005 -0.5460  0.1728  0.2885
   28CHL1    H6 3188   1.047   4.906   6.040 -0.9087  0.7629 -0.6839
   28CHL1    C7 3189   0.989   4.802   5.857  0.2202  0.0063  0.7062
   28CHL1   H7A 3190   0.947   4.890   5.804  0.0417 -1.3490 -1.5423
   28CHL1   H7B 3191   1.092   4.786   5.818  0.5823  2.7957  0.2998
   28CHL1    C8 3192   0.893   4.691   5.800  0.4618 -0.8262 -0.5435
   28CHL1    H8 3193   0.791   4.731   5.783 -0.1445 -1.7612  0.7349
   28CHL1   C14 3194   0.945   4.647   5.656  0.0907  0.3640  0.2866
   28CHL1   H14 3195   1.041   4.598   5.683 -0.1583  0.9296  2.3245
   28CHL1   C15 3196   0.976   4.748   5.544 -0.1320  0.3716 -0.0988
   28CHL1  H15A 3197   0.894   4.822   5.536 -1.1187 -0.6670  0.1107
   28CHL1  H15B 3198   1.069   4.802   5.570  0.6510 -1.0854  0.2690
   28CHL1   C16 3199   0.997   4.665   5.417  0.1991 -0.2562  0.4437
   28CHL1  H16A 3200   0.921   4.690   5.340  0.2140  0.1152  0.5454
   28CHL1  H16B 3201   1.095   4.688   5.370 -0.0968  1.0188  0.3996
   28CHL1   C17 3202   0.965   4.512   5.461 -0.5244  0.4677  0.1760
   28CHL1   H17 3203   1.063   4.475   5.499 -0.8008  0.3256  0.7603
   28CHL1   C13 3204   0.877   4.527   5.585 -0.7044 -0.3344 -0.0427
   28CHL1   C18 3205   0.740   4.567   5.538 -0.4560 -0.4153 -0.2202
   28CHL1  H18A 3206   0.666   4.484   5.535  0.2560 -1.0604 -0.2693
   28CHL1  H18B 3207   0.694   4.645   5.603 -0.1736  1.1893 -1.8684
   28CHL1  H18C 3208   0.743   4.611   5.436 -0.4202 -0.6968 -0.3399
   28CHL1   C12 3209   0.872   4.409   5.687  0.0193  0.4454  0.2741
   28CHL1  H12A 3210   0.812   4.328   5.640 -0.4706  1.3463 -0.6898
   28CHL1  H12B 3211   0.977   4.374   5.694  0.3063  0.4262 -2.9607
   28CHL1   C11 3212   0.817   4.449   5.827 -0.4537 -0.3317 -0.3262
   28CHL1  H11A 3213   0.707   4.460   5.815 -0.4433  1.4329  0.8022
   28CHL1  H11B 3214   0.837   4.362   5.893  0.5888 -0.4261 -0.7415
   28CHL1    C9 3215   0.889   4.572   5.890  0.1900 -0.8610  0.5171
   28CHL1    H9 3216   0.996   4.545   5.891  0.6737  0.8257  2.2925
   28CHL1   C10 3217   0.841   4.614   6.035 -0.0323  0.0935  0.7994
   28CHL1   C19 3218   0.694   4.639   6.048  0.0723  0.7295 -0.3515
   28CHL1  H19A 3219   0.666   4.715   5.972  0.4741  2.8962  1.5698
   28CHL1  H19B 3220   0.633   4.547   6.038 -0.0927  0.7996 -0.0041
   28CHL1  H19C 3221   0.663   4.680   6.146  1.8074 -3.4522  2.2188
   28CHL1    C1 3222   0.870   4.494   6.131 -0.2465  0.0001 -0.4435
   28CHL1   H1A 3223   0.800   4.410   6.114  0.8298 -1.2402  0.8625
   28CHL1   H1B 3224   0.970   4.453   6.103  0.2326  0.8156  0.0228
   28CHL1    C2 3225   0.878   4.534   6.282  0.2352  0.2991 -0.5073
   28CHL1   H2A 3226   0.908   4.437   6.326 -3.1547 -0.2716  0.8584
   28CHL1   H2B 3227   0.780   4.569   6.323 -0.2018  0.5694 -1.7280
   28CHL1   C20 3228   0.917   4.424   5.340  0.1754 -0.2020 -0.0178
   28CHL1   H20 3229   0.820   4.464   5.304  1.0899 -0.2359 -2.7675
   28CHL1   C21 3230   0.893   4.274   5.380  0.0972 -0.0781  0.3626
   28CHL1  H21A 3231   0.817   4.270   5.462  0.0173  1.4559  0.3777
   28CHL1  H21B 3232   0.984   4.224   5.420  1.0402  1.2144 -0.0993
   28CHL1  H21C 3233   0.849   4.226   5.290  1.8563  0.6287 -0.9211
   28CHL1   C22 3234   1.001   4.410   5.216 -0.0214  0.4907 -0.2464
   28CHL1  H22A 3235   1.057   4.504   5.197  0.7521  0.1615  0.3630
   28CHL1  H22B 3236   1.089   4.347   5.240 -0.8632 -0.3119  0.8404
   28CHL1   C23 3237   0.929   4.349   5.087  0.4425 -0.6098 -0.5797
   28CHL1  H23A 3238   0.906   4.241   5.105 -0.0772 -0.4367 -0.1965
   28CHL1  H23B 3239   0.843   4.417   5.070  0.0686 -1.3592 -1.7992
   28CHL1   C24 3240   1.022   4.353   4.968 -0.6694 -0.4955  0.1767
   28CHL1  H24A 3241   1.063   4.457   4.962 -1.0364 -0.3231  0.5572
   28CHL1  H24B 3242   1.112   4.289   4.984  0.2303  0.0505 -2.2230
   28CHL1   C25 3243   0.965   4.327   4.826 -0.2093 -0.5641  0.0009
   28CHL1   H25 3244   1.054   4.317   4.761 -1.3231  1.3081 -1.9449
   28CHL1   C26 3245   0.892   4.192   4.842  0.0610  0.3190 -0.2571
   28CHL1  H26A 3246   0.883   4.156   4.737  0.5564 -0.6805  0.0329
   28CHL1  H26B 3247   0.953   4.114   4.892  1.6659  0.0670 -2.4682
   28CHL1  H26C 3248   0.797   4.208   4.899  0.4543  0.5869  0.3324
   28CHL1   C27 3249   0.865   4.435   4.776 -0.6394 -0.1880 -0.2619
   28CHL1  H27A 3250   0.904   4.539   4.761  0.2731 -0.5642 -0.5796
   28CHL1  H27B 3251   0.826   4.414   4.674  0.5071  0.6423 -0.9027
   28CHL1  H27C 3252   0.779   4.442   4.846 -0.1224 -1.2441  0.5058
   29CHL1    C3 3253   2.150   6.550   6.446 -1.1170  0.3573  0.1081
   29CHL1    H3 3254   2.178   6.657   6.445 -0.7711  0.2649 -0.2446
   29CHL1    O3 3255   2.121   6.520   6.584 -0.1013  0.0925 -1.3651
   29CHL1   H3' 3256   2.188   6.555   6.642 -0.8588 -0.9581  0.2153
   29CHL1    C4 3257   2.022   6.540   6.366  0.4739 -0.1456  0.2356
   29CHL1   H4A 3258   1.994   6.433   6.378 -3.3328  0.7387  0.4862
   29CHL1   H4B 3259   1.936   6.598   6.406 -0.1154  0.5713 -1.9377
   29CHL1    C5 3260   2.041   6.573   6.214 -0.1622 -0.3382  0.2432
   29CHL1    C6 3261   1.965   6.667   6.149  0.0461 -0.2365 -0.1744
   29CHL1    H6 3262   1.884   6.718   6.204  0.6636 -0.9408  1.4248
   29CHL1    C7 3263   1.998   6.715   6.010  0.7253 -0.3137  0.2789
   29CHL1   H7A 3264   1.911   6.743   5.947  0.3141 -0.6780  0.6790
   29CHL1   H7B 3265   2.069   6.798   6.027 -1.4399  1.3090  2.0376
   29CHL1    C8 3266   2.073   6.599   5.930 -0.0787  0.3531 -0.3850
   29CHL1    H8 3267   2.000   6.520   5.903  0.3532 -0.4789  0.8168
   29CHL1   C14 3268   2.127   6.662   5.802  0.1567 -0.2303 -0.4339
   29CHL1   H14 3269   2.194   6.742   5.840 -0.8376  1.0954 -1.3731
   29CHL1   C15 3270   2.020   6.742   5.721 -0.1995 -0.3176  0.1677
   29CHL1  H15A 3271   1.921   6.694   5.732  0.1753 -1.0280  0.5474
   29CHL1  H15B 3272   2.017   6.846   5.760 -0.5820 -0.0101 -0.6687
   29CHL1   C16 3273   2.074   6.733   5.579  0.0292 -0.3251 -0.2483
   29CHL1  H16A 3274   2.017   6.663   5.516 -0.5011  0.3868 -0.5714
   29CHL1  H16B 3275   2.066   6.827   5.520 -2.0982 -0.4225 -0.1686
   29CHL1   C17 3276   2.219   6.668   5.599 -0.2839 -0.3979 -0.2828
   29CHL1   H17 3277   2.285   6.752   5.630 -0.3605 -0.1366 -0.8335
   29CHL1   C13 3278   2.205   6.565   5.715  0.2791 -0.0877 -0.2284
   29CHL1   C18 3279   2.117   6.451   5.668  0.4440  0.3001 -0.2898
   29CHL1  H18A 3280   2.062   6.398   5.749  0.1562  0.1511 -0.5783
   29CHL1  H18B 3281   2.043   6.472   5.587  1.2489  0.7483 -0.9273
   29CHL1  H18C 3282   2.184   6.377   5.620 -1.0956  0.0734 -2.2693
   29CHL1   C12 3283   2.327   6.513   5.789  0.1895 -0.7069  0.0776
   29CHL1  H12A 3284   2.373   6.427   5.736  0.4616 -0.2313 -0.4624
   29CHL1  H12B 3285   2.401   6.593   5.811 -1.3318  1.0014 -0.7728
   29CHL1   C11 3286   2.286   6.449   5.925 -0.6398  0.0406  0.7825
   29CHL1  H11A 3287   2.219   6.364   5.901 -0.2566 -0.4984  1.5581
   29CHL1  H11B 3288   2.382   6.414   5.970 -1.1733 -1.2545  0.9421
   29CHL1    C9 3289   2.190   6.540   6.010 -0.9019 -0.0140  0.7072
   29CHL1    H9 3290   2.250   6.631   6.033  0.1168 -0.6605  0.6862
   29CHL1   C10 3291   2.154   6.485   6.149 -0.6128 -0.2486 -0.0760
   29CHL1   C19 3292   2.106   6.334   6.132  0.8453  0.7853 -0.3897
   29CHL1  H19A 3293   2.085   6.286   6.230 -4.3866  0.1364 -1.5348
   29CHL1  H19B 3294   2.013   6.325   6.072 -0.8159 -1.9942  2.2890
   29CHL1  H19C 3295   2.189   6.272   6.090 -0.7557 -0.3638 -2.0028
   29CHL1    C1 3296   2.281   6.491   6.240 -0.7546 -0.2755 -0.3470
   29CHL1   H1A 3297   2.348   6.411   6.203  0.8039  0.1569  1.3916
   29CHL1   H1B 3298   2.333   6.589   6.229  0.2639 -0.7000  0.5155
   29CHL1    C2 3299   2.256   6.459   6.390  0.4844  0.5253  1.2089
   29CHL1   H2A 3300   2.347   6.468   6.455  2.2001  0.3085 -1.0409
   29CHL1   H2B 3301   2.229   6.352   6.394 -0.5948  0.7662  0.7628
   29CHL1   C20 3302   2.287   6.612   5.475 -0.1862 -0.2319  0.2004
   29CHL1   H20 3303   2.244   6.512   5.455  0.2784 -0.4521  0.2881
   29CHL1   C21 3304   2.444   6.597   5.494 -0.3837  0.2523  0.2347
   29CHL1  H21A 3305   2.487   6.698   5.511 -0.6113 -0.0492  3.0053
   29CHL1  H21B 3306   2.489   6.550   5.404  0.6593  1.1358  0.2772
   29CHL1  H21C 3307   2.472   6.539   5.584 -2.4042 -0.6967  0.3134
   29CHL1   C22 3308   2.263   6.700   5.355 -0.0600  0.1771  0.1705
   29CHL1  H22A 3309   2.159   6.730   5.332  0.4136  3.9059  2.0865
   29CHL1  H22B 3310   2.309   6.796   5.387 -1.1147  0.0425  2.2000
   29CHL1   C23 3311   2.309   6.643   5.219  0.0312 -0.0153  0.6441
   29CHL1  H23A 3312   2.294   6.730   5.151  1.9168  1.2503  1.7241
   29CHL1  H23B 3313   2.420   6.630   5.222  0.2163  1.4387  0.9855
   29CHL1   C24 3314   2.233   6.514   5.174 -0.6041  0.6083  0.3556
   29CHL1  H24A 3315   2.269   6.433   5.241  1.6874  0.4208 -0.9831
   29CHL1  H24B 3316   2.124   6.520   5.196 -0.8621  0.4547 -0.7885
   29CHL1   C25 3317   2.262   6.479   5.025  0.2808  0.4844 -0.3521
   29CHL1   H25 3318   2.369   6.489   4.998 -0.1691  2.1418 -1.6363
   29CHL1   C26 3319   2.233   6.330   5.005  0.0524  0.2178 -0.5946
   29CHL1  H26A 3320   2.318   6.274   5.050  0.0400  0.3290 -0.4302
   29CHL1  H26B 3321   2.137   6.309   5.057 -1.0872  2.5793 -1.5996
   29CHL1  H26C 3322   2.222   6.310   4.896  1.0720 -1.4416 -0.4279
   29CHL1   C27 3323   2.191   6.568   4.922  0.4478  0.5076 -0.2410
   29CHL1  H27A 3324   2.220   6.542   4.818 -0.6816  2.2747 -1.0401
   29CHL1  H27B 3325   2.081   6.552   4.930  0.4661  0.8549  1.0102
   29CHL1  H27C 3326   2.212   6.676   4.936  1.0183  0.3984 -0.2679
   30CHL1    C3 3327   4.534   5.091   6.415  0.4562 -0.4612 -0.0639
   30CHL1    H3 3328   4.633   5.142   6.417  0.5804 -0.6397 -0.9533
   30CHL1    O3 3329   4.467   5.086   6.537  0.4859  0.1906 -0.4025
   30CHL1   H3' 3330   4.513   5.018   6.585  0.4503 -1.5709 -2.6901
   30CHL1    C4 3331   4.445   5.156   6.309 -0.3202 -0.2518  0.0494
   30CHL1   H4A 3332   4.344   5.110   6.313 -2.5922  4.2384  1.3646
   30CHL1   H4B 3333   4.429   5.260   6.347 -1.6694 -0.0267 -1.0425
   30CHL1    C5 3334   4.502   5.162   6.175  0.0827 -0.2567  0.0166
   30CHL1    C6 3335   4.530   5.284   6.117  0.1683  0.2109  0.0941
   30CHL1    H6 3336   4.505   5.375   6.173 -1.6225  0.1377 -0.5153
   30CHL1    C7 3337   4.587   5.304   5.981 -0.4447  0.1223  0.3358
   30CHL1   H7A 3338   4.544   5.391   5.927  1.5769  0.1632 -1.2983
   30CHL1   H7B 3339   4.696   5.319   5.995 -0.1660  0.1523 -1.6608
   30CHL1    C8 3340   4.573   5.170   5.899 -0.4722  0.1359 -0.1690
   30CHL1    H8 3341   4.466   5.159   5.869 -1.1027  1.9591  1.2830
   30CHL1   C14 3342   4.668   5.182   5.774 -0.1824 -0.4553 -0.2607
   30CHL1   H14 3343   4.771   5.190   5.815  0.0479 -1.3732 -0.6329
   30CHL1   C15 3344   4.645   5.302   5.684 -0.3736  0.5118 -0.0273
   30CHL1  H15A 3345   4.538   5.318   5.661 -0.4405  0.1382  0.0235
   30CHL1  H15B 3346   4.698   5.388   5.730 -0.9171  1.9731 -1.9803
   30CHL1   C16 3347   4.710   5.253   5.551 -0.5786 -0.7640 -0.0173
   30CHL1  H16A 3348   4.634   5.257   5.471 -0.1573  0.3281 -0.3804
   30CHL1  H16B 3349   4.798   5.308   5.513 -0.8997 -0.9575 -1.0753
   30CHL1   C17 3350   4.754   5.105   5.574  0.1227 -0.0449  0.8515
   30CHL1   H17 3351   4.852   5.102   5.627 -0.0032  0.3759  1.1034
   30CHL1   C13 3352   4.667   5.053   5.682  0.0098  0.7358 -0.0487
   30CHL1   C18 3353   4.527   5.033   5.624  0.3055  0.9009 -0.2480
   30CHL1  H18A 3354   4.486   5.119   5.565 -2.9387 -0.0139  0.4769
   30CHL1  H18B 3355   4.518   4.946   5.555 -1.5794 -1.0558  2.2641
   30CHL1  H18C 3356   4.459   5.021   5.711  1.7959 -0.1249  0.8323
   30CHL1   C12 3357   4.721   4.937   5.766  0.1496  0.2673 -0.6354
   30CHL1  H12A 3358   4.719   4.849   5.698  1.1562  0.1976 -0.5865
   30CHL1  H12B 3359   4.829   4.952   5.788  0.1090  2.6787 -1.8148
   30CHL1   C11 3360   4.634   4.911   5.889 -0.6010 -0.5709 -0.3792
   30CHL1  H11A 3361   4.533   4.878   5.855 -2.6497  2.0888  2.5869
   30CHL1  H11B 3362   4.675   4.828   5.950  1.0417  0.2214 -0.3638
   30CHL1    C9 3363   4.620   5.044   5.977 -0.1784 -0.2233  0.2584
   30CHL1    H9 3364   4.721   5.070   6.017 -1.5911  2.8108  2.2059
   30CHL1   C10 3365   4.539   5.026   6.113  0.4483  0.4241 -0.2255
   30CHL1   C19 3366   4.412   4.951   6.075  0.3665  0.0127 -0.4293
   30CHL1  H19A 3367   4.420   4.843   6.050 -3.7438 -0.3132 -1.0243
   30CHL1  H19B 3368   4.329   4.946   6.148  1.3426  0.0354  0.7059
   30CHL1  H19C 3369   4.368   5.014   5.994  1.3298  0.2151 -0.8080
   30CHL1    C1 3370   4.616   4.952   6.217  1.2422  0.7998  0.0278
   30CHL1   H1A 3371   4.617   4.846   6.183  1.1040  1.2662 -1.4701
   30CHL1   H1B 3372   4.718   4.995   6.225  0.3057  3.1234  0.0039
   30CHL1    C2 3373   4.567   4.947   6.363 -0.1230 -0.4888 -0.1059
   30CHL1   H2A 3374   4.650   4.907   6.425 -1.3220 -1.2811  1.0617
   30CHL1   H2B 3375   4.479   4.883   6.386 -0.0324 -0.5132  0.1790
   30CHL1   C20 3376   4.786   5.021   5.447 -0.0829 -0.2328  0.4695
   30CHL1   H20 3377   4.780   4.912   5.470 -0.9096 -0.6605 -1.6066
   30CHL1   C21 3378   4.938   5.057   5.402 -0.3521 -0.4366  0.0434
   30CHL1  H21A 3379   5.002   5.039   5.491 -0.8313 -0.2919  0.4203
   30CHL1  H21B 3380   4.941   5.156   5.353  2.1207 -0.5916 -0.2244
   30CHL1  H21C 3381   4.982   4.987   5.328 -0.5035  0.3787 -0.8420
   30CHL1   C22 3382   4.692   5.038   5.326 -0.2361  0.3479  0.7622
   30CHL1  H22A 3383   4.588   5.011   5.354  0.0892 -2.0422 -0.1031
   30CHL1  H22B 3384   4.688   5.147   5.301 -1.2492  0.0354 -0.5899
   30CHL1   C23 3385   4.725   4.966   5.189 -0.4862  0.3638 -0.0953
   30CHL1  H23A 3386   4.647   4.995   5.115  1.4305  0.2489 -2.2693
   30CHL1  H23B 3387   4.818   5.006   5.145 -0.3147 -0.2297 -0.2840
   30CHL1   C24 3388   4.728   4.818   5.204 -0.0223  0.4846 -0.7009
   30CHL1  H24A 3389   4.810   4.785   5.270 -0.0129 -0.4184 -1.1439
   30CHL1  H24B 3390   4.642   4.781   5.264  0.6242 -0.0718 -0.1022
   30CHL1   C25 3391   4.721   4.741   5.073 -0.2846 -0.1809  0.1951
   30CHL1   H25 3392   4.630   4.771   5.016 -0.9710  0.5669  1.6070
   30CHL1   C26 3393   4.831   4.777   4.981  0.3252 -0.1074  0.6569
   30CHL1  H26A 3394   4.923   4.737   5.030  1.0283  1.0443  0.3059
   30CHL1  H26B 3395   4.803   4.729   4.885 -0.3206  1.4343  0.0403
   30CHL1  H26C 3396   4.832   4.888   4.974  1.5390 -0.1246  0.2777
   30CHL1   C27 3397   4.710   4.587   5.093 -0.4495 -0.4033 -0.3083
   30CHL1  H27A 3398   4.813   4.559   5.123 -0.6195 -1.2166 -0.4632
   30CHL1  H27B 3399   4.648   4.557   5.181  1.2792  0.5791  1.3194
   30CHL1  H27C 3400   4.698   4.529   5.000  1.1209 -0.0291 -0.7691
   31CHL1    C3 3401   1.848   6.146   6.586 -0.0863 -0.3701 -0.7931
   31CHL1    H3 3402   1.808   6.246   6.560  2.8895  0.6153 -2.0027
   31CHL1    O3 3403   1.905   6.149   6.717  0.0120 -0.6539  0.1292
   31CHL1   H3' 3404   1.842   6.205   6.763  0.9018  1.1345 -0.7006
   31CHL1    C4 3405   1.729   6.049   6.581  0.0919  0.4480  1.0711
   31CHL1   H4A 3406   1.779   5.952   6.599  0.1553  0.3237  0.2612
   31CHL1   H4B 3407   1.657   6.072   6.662 -0.6785  0.1000  0.4942
   31CHL1    C5 3408   1.678   6.052   6.438  0.1142 -0.1078 -0.4919
   31CHL1    C6 3409   1.547   6.085   6.418 -0.5939  0.4704  0.3510
   31CHL1    H6 3410   1.468   6.104   6.493 -1.1826 -0.5694  0.0174
   31CHL1    C7 3411   1.474   6.075   6.281  0.3162  0.2064 -0.2945
   31CHL1   H7A 3412   1.383   6.011   6.273 -0.3660  1.0618  0.5152
   31CHL1   H7B 3413   1.439   6.177   6.255  1.2702  0.2812 -1.3505
   31CHL1    C8 3414   1.568   6.019   6.169 -0.3095 -0.5118  0.4826
   31CHL1    H8 3415   1.571   5.908   6.174  0.3240 -0.5385 -0.3244
   31CHL1   C14 3416   1.508   6.057   6.032  0.9030  0.2078 -0.7563
   31CHL1   H14 3417   1.510   6.169   6.029  0.0186  0.3228  1.2533
   31CHL1   C15 3418   1.359   6.017   5.997  0.1245  0.1057 -0.3967
   31CHL1  H15A 3419   1.342   5.909   6.019 -1.7492  0.1945 -1.2158
   31CHL1  H15B 3420   1.294   6.084   6.057  0.3951 -0.6708  0.7980
   31CHL1   C16 3421   1.351   6.043   5.848 -0.2384 -0.1290  0.4429
   31CHL1  H16A 3422   1.300   5.954   5.806 -1.1911 -0.5081  2.3196
   31CHL1  H16B 3423   1.291   6.134   5.827 -0.5932 -0.8989 -2.2924
   31CHL1   C17 3424   1.497   6.070   5.792 -0.2300  0.2465  0.0124
   31CHL1   H17 3425   1.522   6.178   5.792 -2.7036  0.8871  1.3644
   31CHL1   C13 3426   1.593   6.017   5.908 -0.0973  0.0833 -0.5925
   31CHL1   C18 3427   1.600   5.865   5.900  0.3309 -0.2531 -0.4220
   31CHL1  H18A 3428   1.507   5.814   5.867 -1.2319  1.5575  0.9731
   31CHL1  H18B 3429   1.682   5.847   5.826  2.1895 -3.0896  2.0858
   31CHL1  H18C 3430   1.638   5.824   5.996  1.0704  1.4968  0.0699
   31CHL1   C12 3431   1.733   6.079   5.920 -0.2269 -0.1934 -0.5132
   31CHL1  H12A 3432   1.805   6.040   5.845 -0.9600 -0.8819 -0.8721
   31CHL1  H12B 3433   1.722   6.190   5.915 -0.8091 -0.2741 -1.1065
   31CHL1   C11 3434   1.793   6.036   6.049  0.1691  0.0510  0.2656
   31CHL1  H11A 3435   1.820   5.928   6.054 -1.5900 -0.4144  0.4401
   31CHL1  H11B 3436   1.889   6.091   6.063 -0.1296  0.3272  1.3687
   31CHL1    C9 3437   1.711   6.075   6.180 -0.1728  0.3421 -0.1134
   31CHL1    H9 3438   1.712   6.186   6.183  0.3462  0.3470 -0.3854
   31CHL1   C10 3439   1.778   6.031   6.321  0.3115 -0.1238 -0.8487
   31CHL1   C19 3440   1.829   5.880   6.319  0.4948 -0.6588  0.0091
   31CHL1  H19A 3441   1.863   5.852   6.421 -1.4150  2.1280  1.5467
   31CHL1  H19B 3442   1.739   5.820   6.292 -1.5129  2.4237 -0.6646
   31CHL1  H19C 3443   1.917   5.857   6.256  1.9906  0.0079  1.7762
   31CHL1    C1 3444   1.903   6.120   6.344  0.5598  0.0825  0.4184
   31CHL1   H1A 3445   1.975   6.088   6.266 -0.2285 -3.0031  0.8022
   31CHL1   H1B 3446   1.871   6.224   6.326  2.3481  0.5525 -0.2454
   31CHL1    C2 3447   1.956   6.119   6.487  0.1520  0.1910  0.4259
   31CHL1   H2A 3448   2.036   6.196   6.489  0.2158  0.3102 -2.5060
   31CHL1   H2B 3449   2.005   6.022   6.510 -1.0646 -0.2570  1.2073
   31CHL1   C20 3450   1.511   6.021   5.654  0.0881 -0.1728 -0.4967
   31CHL1   H20 3451   1.495   5.911   5.655 -0.5191 -0.0861 -0.1629
   31CHL1   C21 3452   1.653   6.056   5.605 -0.9893  0.8208 -0.0984
   31CHL1  H21A 3453   1.727   5.996   5.662 -0.6977  0.2960 -1.0112
   31CHL1  H21B 3454   1.679   6.164   5.602  2.5446  0.1231  0.5379
   31CHL1  H21C 3455   1.662   6.016   5.502 -2.9192 -1.7249  0.6289
   31CHL1   C22 3456   1.411   6.075   5.552 -0.2749 -0.1093  0.5923
   31CHL1  H22A 3457   1.306   6.073   5.588 -0.5617  1.9258 -0.0125
   31CHL1  H22B 3458   1.437   6.180   5.525  1.0968 -0.3331  0.9474
   31CHL1   C23 3459   1.410   6.000   5.418 -0.4623 -0.5391  0.1205
   31CHL1  H23A 3460   1.334   6.051   5.354 -0.0384 -1.1217 -0.8732
   31CHL1  H23B 3461   1.511   6.001   5.370  0.0950  3.1457  1.0562
   31CHL1   C24 3462   1.364   5.856   5.434 -0.3982  0.0271  1.0030
   31CHL1  H24A 3463   1.454   5.800   5.469  0.6306  0.2979 -1.0441
   31CHL1  H24B 3464   1.280   5.852   5.507 -0.9252  0.1032  0.4066
   31CHL1   C25 3465   1.309   5.794   5.299 -0.7443  0.4622 -1.4616
   31CHL1   H25 3466   1.393   5.814   5.229  0.3069 -0.8459 -0.6333
   31CHL1   C26 3467   1.301   5.639   5.308 -0.0097 -0.8715 -0.7649
   31CHL1  H26A 3468   1.325   5.606   5.205  2.6555 -1.1121 -0.1509
   31CHL1  H26B 3469   1.380   5.593   5.372  0.0962  2.4582  1.7878
   31CHL1  H26C 3470   1.199   5.620   5.347 -0.3177  0.1479 -1.0448
   31CHL1   C27 3471   1.180   5.861   5.251 -0.4082 -0.8998  0.0596
   31CHL1  H27A 3472   1.196   5.971   5.252  0.3797 -0.9912  1.7023
   31CHL1  H27B 3473   1.155   5.829   5.148 -0.2672  1.3363 -0.7288
   31CHL1  H27C 3474   1.101   5.837   5.326  0.5774  1.0830  1.8469
   32CHL1    C3 3475   4.011   2.764   6.793 -0.0690  0.4102 -0.2609
   32CHL1    H3 3476   4.116   2.770   6.757  0.0421  0.7320  0.1052
   32CHL1    O3 3477   4.016   2.737   6.930  0.7969 -0.4961  0.1074
   32CHL1   H3' 3478   4.049   2.818   6.969  2.5786 -0.3067 -1.6608
   32CHL1    C4 3479   3.939   2.900   6.778  0.0116 -0.5181  0.8017
   32CHL1   H4A 3480   3.836   2.900   6.821 -0.8475  3.2184 -0.8428
   32CHL1   H4B 3481   3.994   2.978   6.835 -0.0483  0.2962 -0.2261
   32CHL1    C5 3482   3.917   2.944   6.633  0.4278 -0.0409 -0.0977
   32CHL1    C6 3483   3.962   3.059   6.588 -0.0005 -0.6462 -0.0330
   32CHL1    H6 3484   4.007   3.133   6.656 -0.2298  0.5164 -1.1203
   32CHL1    C7 3485   3.959   3.105   6.445  0.5543  0.3209  0.7344
   32CHL1   H7A 3486   3.900   3.199   6.438 -0.4413 -0.3401 -0.0226
   32CHL1   H7B 3487   4.059   3.129   6.404 -0.0774  1.7402 -0.0495
   32CHL1    C8 3488   3.868   3.019   6.353 -0.0272  0.1791  0.4534
   32CHL1    H8 3489   3.764   3.056   6.362  0.4402  2.0585 -1.2910
   32CHL1   C14 3490   3.911   3.041   6.209 -1.1062 -0.6823 -0.4148
   32CHL1   H14 3491   4.017   3.008   6.198 -0.9365  0.2373 -1.8415
   32CHL1   C15 3492   3.910   3.184   6.151  0.3394 -0.4241 -0.3606
   32CHL1  H15A 3493   3.821   3.240   6.188 -1.4391 -1.0235 -3.3867
   32CHL1  H15B 3494   3.998   3.246   6.178  0.3175  0.5011 -2.2202
   32CHL1   C16 3495   3.895   3.163   6.002  1.1026 -1.0098  0.3801
   32CHL1  H16A 3496   3.802   3.208   5.961  0.0915 -2.6588  0.7581
   32CHL1  H16B 3497   3.985   3.200   5.948  2.8411  0.5328  4.0530
   32CHL1   C17 3498   3.881   3.014   5.975 -0.2062  0.3163  0.0375
   32CHL1   H17 3499   3.978   2.967   5.946  0.2284  1.2521 -0.0663
   32CHL1   C13 3500   3.830   2.961   6.111  0.1542  0.1948 -0.0224
   32CHL1   C18 3501   3.682   2.995   6.119 -0.0709  0.2973  0.5228
   32CHL1  H18A 3502   3.621   2.950   6.038  0.0948  3.3618 -1.4453
   32CHL1  H18B 3503   3.646   2.965   6.220  0.2817 -0.2367  0.4960
   32CHL1  H18C 3504   3.651   3.101   6.120  0.7111  0.5314  0.5793
   32CHL1   C12 3505   3.844   2.807   6.141 -0.1154  0.1136  0.1008
   32CHL1  H12A 3506   3.786   2.738   6.077 -2.4803  2.2803 -0.2599
   32CHL1  H12B 3507   3.954   2.789   6.136  0.5942  3.8134 -0.4663
   32CHL1   C11 3508   3.811   2.771   6.288 -0.1931  0.8141 -0.1221
   32CHL1  H11A 3509   3.702   2.771   6.305  0.3070  1.6450  4.2719
   32CHL1  H11B 3510   3.845   2.665   6.288  0.6284  1.0642 -0.6898
   32CHL1    C9 3511   3.882   2.864   6.387  0.4688 -0.3702  0.3496
   32CHL1    H9 3512   3.990   2.848   6.366  0.1927  0.6392 -2.2475
   32CHL1   C10 3513   3.858   2.829   6.539 -0.1647 -0.8487  0.1939
   32CHL1   C19 3514   3.706   2.821   6.566 -0.6897 -0.4985  0.0888
   32CHL1  H19A 3515   3.667   2.737   6.505 -2.1336  0.6919 -0.7130
   32CHL1  H19B 3516   3.693   2.805   6.675  0.5592  1.7671  0.6367
   32CHL1  H19C 3517   3.651   2.911   6.530  0.8829  0.5626  0.2604
   32CHL1    C1 3518   3.928   2.694   6.565 -0.0794 -0.5888 -0.4833
   32CHL1   H1A 3519   3.877   2.617   6.504  1.5140  0.0313 -2.7291
   32CHL1   H1B 3520   4.029   2.711   6.521 -0.3092  0.1428 -0.7345
   32CHL1    C2 3521   3.940   2.649   6.713 -0.6501  0.5486 -0.3870
   32CHL1   H2A 3522   4.011   2.564   6.714 -2.0344 -0.7039 -1.6411
   32CHL1   H2B 3523   3.847   2.632   6.771  0.4541  2.5649  2.1914
   32CHL1   C20 3524   3.804   2.974   5.850 -0.6504  0.3543 -0.8069
   32CHL1   H20 3525   3.706   3.023   5.866 -0.7644 -0.0497 -0.2748
   32CHL1   C21 3526   3.790   2.827   5.830 -0.5092 -0.3438  0.4370
   32CHL1  H21A 3527   3.733   2.819   5.735  1.3374  1.8719 -0.9695
   32CHL1  H21B 3528   3.723   2.778   5.904  2.1492 -0.2420  3.0793
   32CHL1  H21C 3529   3.882   2.765   5.833  1.7751  2.6318 -2.0842
   32CHL1   C22 3530   3.870   3.050   5.726  0.4258  0.1066 -0.2276
   32CHL1  H22A 3531   3.857   3.157   5.753  0.8859  0.1379 -0.1193
   32CHL1  H22B 3532   3.980   3.036   5.716  0.7801  2.8965 -0.9474
   32CHL1   C23 3533   3.795   3.021   5.599  0.3767 -0.0612  0.1989
   32CHL1  H23A 3534   3.798   2.913   5.573  2.6011  0.3050 -1.3096
   32CHL1  H23B 3535   3.696   3.070   5.603  1.1952  1.9788 -2.2535
   32CHL1   C24 3536   3.853   3.085   5.471 -0.3453  0.1260 -0.1528
   32CHL1  H24A 3537   3.871   3.194   5.470 -1.9686  0.4221 -1.1621
   32CHL1  H24B 3538   3.949   3.030   5.458 -2.0985 -3.0503 -0.8725
   32CHL1   C25 3539   3.763   3.055   5.350  0.1371 -0.3715  0.3029
   32CHL1   H25 3540   3.664   3.083   5.392 -0.7543 -2.4484 -0.2456
   32CHL1   C26 3541   3.802   3.152   5.241  0.2130  0.6022 -0.8631
   32CHL1  H26A 3542   3.890   3.110   5.186  1.7037  1.1522  0.9987
   32CHL1  H26B 3543   3.719   3.164   5.168 -0.5760  0.8573  0.0585
   32CHL1  H26C 3544   3.825   3.248   5.291 -0.9542 -0.7179  2.5330
   32CHL1   C27 3545   3.768   2.904   5.301  0.1103 -0.1223  0.4733
   32CHL1  H27A 3546   3.866   2.888   5.253 -0.3841  0.2707 -0.7008
   32CHL1  H27B 3547   3.745   2.830   5.380  2.3606  3.0266  4.5027
   32CHL1  H27C 3548   3.694   2.888   5.219 -2.3006  0.1413  2.4620
   33CHL1    C3 3549   1.856   5.249   6.249 -0.1813  0.1033  0.0663
   33CHL1    H3 3550   1.960   5.287   6.241 -0.5340  1.3077  0.8826
   33CHL1    O3 3551   1.822   5.203   6.376 -0.5640 -0.2299  0.0128
   33CHL1   H3' 3552   1.867   5.264   6.435  2.6251 -1.2866 -1.1121
   33CHL1    C4 3553   1.760   5.364   6.211  1.0623  0.0157 -0.1244
   33CHL1   H4A 3554   1.655   5.328   6.223  0.8878  0.7186  0.5943
   33CHL1   H4B 3555   1.766   5.452   6.279  1.4721 -0.1733  0.0905
   33CHL1    C5 3556   1.793   5.416   6.070  0.2592  0.1082  0.0233
   33CHL1    C6 3557   1.841   5.542   6.053 -0.1168  0.5435  0.0753
   33CHL1    H6 3558   1.856   5.614   6.135 -2.0982  2.7201 -1.3399
   33CHL1    C7 3559   1.869   5.593   5.922  0.5573 -0.2778  0.9197
   33CHL1   H7A 3560   1.842   5.700   5.908 -2.7417 -1.0399  0.6990
   33CHL1   H7B 3561   1.979   5.598   5.910  0.5036  0.3444  0.6602
   33CHL1    C8 3562   1.803   5.507   5.806 -0.3693 -0.5220 -0.3591
   33CHL1    H8 3563   1.693   5.515   5.822 -0.0769 -0.6714  2.1132
   33CHL1   C14 3564   1.839   5.556   5.668 -0.4075  0.1720  0.3475
   33CHL1   H14 3565   1.950   5.552   5.671 -0.3771  0.1776 -0.6329
   33CHL1   C15 3566   1.813   5.705   5.631  0.2886 -0.7839 -0.4787
   33CHL1  H15A 3567   1.706   5.723   5.653  0.4148 -0.1802 -0.3402
   33CHL1  H15B 3568   1.874   5.771   5.696  1.0177  0.4100 -2.2964
   33CHL1   C16 3569   1.833   5.705   5.482 -0.0056 -0.4194  1.0641
   33CHL1  H16A 3570   1.737   5.741   5.439  0.7422 -2.1776 -2.5518
   33CHL1  H16B 3571   1.915   5.774   5.454  0.1338 -1.3727 -1.1567
   33CHL1   C17 3572   1.844   5.561   5.436 -0.0800  0.3218 -0.0713
   33CHL1   H17 3573   1.951   5.532   5.436  0.0768  0.8442  1.2332
   33CHL1   C13 3574   1.786   5.478   5.552 -0.3937 -0.2444  0.6806
   33CHL1   C18 3575   1.625   5.491   5.535 -0.1845  0.0213  0.7130
   33CHL1  H18A 3576   1.590   5.405   5.473  1.9746 -0.3534 -0.0923
   33CHL1  H18B 3577   1.584   5.473   5.637 -0.8654 -0.4408  0.3688
   33CHL1  H18C 3578   1.590   5.585   5.487 -0.8462 -0.1623  0.8294
   33CHL1   C12 3579   1.826   5.332   5.562 -0.0494 -0.0340 -0.6477
   33CHL1  H12A 3580   1.776   5.274   5.481  0.1716 -2.4169  0.8042
   33CHL1  H12B 3581   1.935   5.313   5.568  0.1011  1.0114  0.2783
   33CHL1   C11 3582   1.779   5.279   5.703 -0.5573 -0.3979  0.0954
   33CHL1  H11A 3583   1.668   5.283   5.708 -0.5270 -0.1364  0.6042
   33CHL1  H11B 3584   1.813   5.173   5.704  0.5829 -0.0501 -0.2993
   33CHL1    C9 3585   1.827   5.357   5.828 -0.3505  0.6704  0.0421
   33CHL1    H9 3586   1.938   5.349   5.824 -0.4498 -2.9620  1.1007
   33CHL1   C10 3587   1.784   5.303   5.967  0.8297  0.1384 -0.1644
   33CHL1   C19 3588   1.633   5.258   5.957 -0.5508  0.1333  0.0835
   33CHL1  H19A 3589   1.634   5.167   5.893 -1.2267 -1.1913  1.8745
   33CHL1  H19B 3590   1.585   5.229   6.053 -1.4873  1.0682 -0.0722
   33CHL1  H19C 3591   1.573   5.339   5.909 -0.4774  0.7456  0.9935
   33CHL1    C1 3592   1.868   5.189   6.010  0.1986 -0.0927  0.0047
   33CHL1   H1A 3593   1.868   5.100   5.943  0.8821 -0.6072  0.6552
   33CHL1   H1B 3594   1.973   5.222   6.026  0.7922 -1.1056 -1.5681
   33CHL1    C2 3595   1.837   5.137   6.151  0.6497  0.0865 -0.0996
   33CHL1   H2A 3596   1.882   5.037   6.169 -1.8011 -0.9864  0.5265
   33CHL1   H2B 3597   1.729   5.110   6.151  1.0085 -1.4616  0.0777
   33CHL1   C20 3598   1.787   5.546   5.289 -0.0950 -0.2725  0.3411
   33CHL1   H20 3599   1.676   5.553   5.285  0.0051  1.6856 -0.7035
   33CHL1   C21 3600   1.815   5.404   5.248  0.5836 -0.3637  0.0252
   33CHL1  H21A 3601   1.919   5.380   5.277  0.9651  1.3690  0.2317
   33CHL1  H21B 3602   1.813   5.397   5.137  1.8183  1.1045 -0.1196
   33CHL1  H21C 3603   1.738   5.333   5.285  0.5440 -2.5129 -3.6345
   33CHL1   C22 3604   1.840   5.641   5.186 -0.0802  0.7148  0.2154
   33CHL1  H22A 3605   1.811   5.605   5.085  0.5640  0.2906  0.1711
   33CHL1  H22B 3606   1.805   5.746   5.199  0.2596  1.0272 -1.1305
   33CHL1   C23 3607   1.994   5.645   5.178  0.2512  0.7376 -0.5339
   33CHL1  H23A 3608   2.051   5.656   5.273  1.2991  0.3123 -1.0987
   33CHL1  H23B 3609   2.040   5.564   5.118 -1.4107 -0.5016 -0.2387
   33CHL1   C24 3610   2.031   5.778   5.109  0.2305  0.0107 -0.0428
   33CHL1  H24A 3611   1.973   5.782   5.015 -0.1108 -0.3582  0.1473
   33CHL1  H24B 3612   1.994   5.855   5.181  1.1699 -0.4734  1.0033
   33CHL1   C25 3613   2.174   5.804   5.071 -0.3349 -0.8638 -0.4547
   33CHL1   H25 3614   2.240   5.793   5.160 -2.4217 -1.7631  1.0604
   33CHL1   C26 3615   2.234   5.712   4.958  0.5037 -0.0623  0.4706
   33CHL1  H26A 3616   2.197   5.734   4.856 -0.7497 -1.9914  0.4533
   33CHL1  H26B 3617   2.344   5.730   4.960  0.4638  0.5217 -1.2462
   33CHL1  H26C 3618   2.227   5.603   4.979  0.8385 -0.4590 -1.3343
   33CHL1   C27 3619   2.185   5.953   5.036 -1.2692 -0.3376  0.8836
   33CHL1  H27A 3620   2.169   6.027   5.117  3.7809  1.5897  0.5217
   33CHL1  H27B 3621   2.293   5.968   5.011 -0.7498 -2.3164  1.6979
   33CHL1  H27C 3622   2.129   5.979   4.944 -1.3840 -1.5353  0.6042
   34CHL1    C3 3623   3.548   1.138   6.072  1.0673 -0.5106  0.0938
   34CHL1    H3 3624   3.522   1.033   6.046  0.3711 -0.2627 -0.2447
   34CHL1    O3 3625   3.551   1.150   6.214  0.3634  0.2305  0.2116
   34CHL1   H3' 3626   3.491   1.224   6.223  1.3581  1.5838 -2.9316
   34CHL1    C4 3627   3.690   1.168   6.019  0.5488  0.9442  0.3511
   34CHL1   H4A 3628   3.729   1.264   6.059  3.2514 -0.7663  2.1504
   34CHL1   H4B 3629   3.759   1.097   6.069 -0.9237 -2.2883 -1.8468
   34CHL1    C5 3630   3.675   1.160   5.867  0.2488  0.2229  0.2803
   34CHL1    C6 3631   3.755   1.083   5.798 -1.2707  0.0652 -0.4359
   34CHL1    H6 3632   3.838   1.027   5.842 -1.7501  0.0974  0.5299
   34CHL1    C7 3633   3.763   1.083   5.652  0.5460  0.1977 -0.0344
   34CHL1   H7A 3634   3.866   1.092   5.611  0.5244  2.5764  0.2915
   34CHL1   H7B 3635   3.719   0.987   5.619  0.2295  0.1249  0.5757
   34CHL1    C8 3636   3.692   1.201   5.583 -0.8890 -0.4569 -0.5900
   34CHL1    H8 3637   3.748   1.290   5.617 -1.3088 -0.7080  0.8156
   34CHL1   C14 3638   3.678   1.180   5.434 -0.9241 -0.0933 -0.1412
   34CHL1   H14 3639   3.618   1.088   5.417  0.7072 -1.0812 -0.6873
   34CHL1   C15 3640   3.801   1.155   5.349  0.7052 -0.1684 -0.5438
   34CHL1  H15A 3641   3.882   1.229   5.371 -0.3666  0.8572  0.0553
   34CHL1  H15B 3642   3.850   1.056   5.355 -0.8131 -1.0849 -2.3949
   34CHL1   C16 3643   3.761   1.184   5.210  0.0713 -0.2764 -0.4770
   34CHL1  H16A 3644   3.821   1.254   5.148 -1.6854  1.8131  0.0752
   34CHL1  H16B 3645   3.739   1.090   5.155 -1.0865 -0.9688  1.0751
   34CHL1   C17 3646   3.614   1.250   5.224 -0.0178  0.2913  0.0760
   34CHL1   H17 3647   3.541   1.167   5.216  0.3525 -0.2688  2.0373
   34CHL1   C13 3648   3.602   1.300   5.365 -0.2333  0.2142 -0.4973
   34CHL1   C18 3649   3.681   1.429   5.378 -0.2788  0.0866 -0.1682
   34CHL1  H18A 3650   3.705   1.444   5.485  0.4365 -1.6653 -0.0515
   34CHL1  H18B 3651   3.780   1.422   5.328  0.6394  1.5925  1.3493
   34CHL1  H18C 3652   3.632   1.522   5.342  1.1891  1.0384  0.2380
   34CHL1   C12 3653   3.461   1.300   5.425  0.8045  0.8422  0.0507
   34CHL1  H12A 3654   3.390   1.372   5.379 -1.1537 -0.8263  0.3056
   34CHL1  H12B 3655   3.425   1.197   5.401  1.8817 -0.1399  2.3711
   34CHL1   C11 3656   3.468   1.332   5.574  0.4708  0.2037 -0.2389
   34CHL1  H11A 3657   3.515   1.432   5.586  3.7820 -1.4563  1.7540
   34CHL1  H11B 3658   3.361   1.319   5.603 -0.1384  0.8625 -2.0301
   34CHL1    C9 3659   3.559   1.224   5.650  0.2447 -1.0031  0.2232
   34CHL1    H9 3660   3.505   1.127   5.639 -1.2735 -0.1693  0.0076
   34CHL1   C10 3661   3.578   1.250   5.801 -0.5206  0.0135 -0.1385
   34CHL1   C19 3662   3.616   1.397   5.831  0.0288  0.2440  0.0174
   34CHL1  H19A 3663   3.711   1.422   5.780  0.0643  1.1938  0.5218
   34CHL1  H19B 3664   3.535   1.467   5.799 -0.5351  1.7619  4.1485
   34CHL1  H19C 3665   3.633   1.409   5.940  0.8410  1.5056 -0.2246
   34CHL1    C1 3666   3.437   1.226   5.865 -0.3295 -1.1061  0.2073
   34CHL1   H1A 3667   3.383   1.316   5.828  1.4767 -0.6060 -1.3901
   34CHL1   H1B 3668   3.377   1.143   5.822  1.2742 -1.0399 -2.3823
   34CHL1    C2 3669   3.432   1.230   6.017  0.3344  0.4130 -0.1919
   34CHL1   H2A 3670   3.339   1.189   6.061  1.9559  1.1056  4.4349
   34CHL1   H2B 3671   3.441   1.336   6.048 -0.4817  0.9976 -1.8212
   34CHL1   C20 3672   3.573   1.339   5.099 -0.4226 -0.1218 -0.0169
   34CHL1   H20 3673   3.656   1.408   5.072 -0.0043  0.0199  1.5536
   34CHL1   C21 3674   3.457   1.426   5.136 -0.2181  0.1438  1.0752
   34CHL1  H21A 3675   3.432   1.503   5.060 -0.3988 -0.0882  0.8982
   34CHL1  H21B 3676   3.468   1.480   5.233 -3.2953  1.5651  0.7436
   34CHL1  H21C 3677   3.373   1.360   5.166  0.1665  0.1078  2.1215
   34CHL1   C22 3678   3.538   1.243   4.977 -0.0316 -0.2340 -0.0657
   34CHL1  H22A 3679   3.620   1.168   4.969  0.5713  0.4250 -0.1328
   34CHL1  H22B 3680   3.442   1.192   4.999 -0.3100 -0.6636 -2.0510
   34CHL1   C23 3681   3.513   1.313   4.840  0.2292  0.5301  0.6965
   34CHL1  H23A 3682   3.427   1.382   4.851 -0.2607 -0.3224  2.4057
   34CHL1  H23B 3683   3.609   1.365   4.819  0.5692 -0.7500 -1.1976
   34CHL1   C24 3684   3.482   1.216   4.732 -0.3660  0.8315  0.3358
   34CHL1  H24A 3685   3.573   1.153   4.720  0.0950  1.7661 -1.3777
   34CHL1  H24B 3686   3.397   1.147   4.752  0.2738 -0.1753 -0.2823
   34CHL1   C25 3687   3.470   1.289   4.602 -0.1267  0.5374 -0.0378
   34CHL1   H25 3688   3.394   1.370   4.600 -0.8747 -0.1581  0.0231
   34CHL1   C26 3689   3.603   1.359   4.564 -0.4026  0.4515  0.2306
   34CHL1  H26A 3690   3.628   1.431   4.645 -0.7730 -0.1064  0.8529
   34CHL1  H26B 3691   3.681   1.280   4.556 -0.1008  0.7149  0.5112
   34CHL1  H26C 3692   3.577   1.405   4.467  0.0897 -3.1256 -1.7557
   34CHL1   C27 3693   3.424   1.202   4.483 -0.7485  0.1537 -0.0488
   34CHL1  H27A 3694   3.316   1.174   4.492 -0.6842 -0.9893 -2.0961
   34CHL1  H27B 3695   3.429   1.258   4.387 -0.6894 -2.4841 -1.6897
   34CHL1  H27C 3696   3.492   1.114   4.479 -0.5271  0.2261  1.3884
   35CHL1    C3 3697   5.432   1.589   6.887  0.3658  0.0647 -1.2711
   35CHL1    H3 3698   5.478   1.689   6.897  1.8458 -0.5903 -1.2351
   35CHL1    O3 3699   5.411   1.542   7.023  0.0799 -0.4285  0.7729
   35CHL1   H3' 3700   5.449   1.609   7.080  3.2869  0.0493 -1.6640
   35CHL1    C4 3701   5.297   1.598   6.816  0.4617 -0.4304 -0.0187
   35CHL1   H4A 3702   5.235   1.506   6.824  1.2071 -1.0265 -0.9358
   35CHL1   H4B 3703   5.242   1.681   6.866 -0.5344  0.0520 -1.8052
   35CHL1    C5 3704   5.312   1.635   6.669 -0.1406 -0.0254  0.2733
   35CHL1    C6 3705   5.256   1.747   6.620  0.6400 -0.1007  0.0501
   35CHL1    H6 3706   5.193   1.811   6.684  1.7360 -2.9515  4.4100
   35CHL1    C7 3707   5.261   1.792   6.476 -0.0034  0.6081 -0.0891
   35CHL1   H7A 3708   5.159   1.826   6.447 -0.6546 -0.4985  0.8524
   35CHL1   H7B 3709   5.327   1.881   6.462 -2.6665  2.7877  0.2441
   35CHL1    C8 3710   5.307   1.671   6.389  0.4440  0.3683  0.2185
   35CHL1    H8 3711   5.235   1.587   6.402 -1.5122  1.8284 -0.5717
   35CHL1   C14 3712   5.309   1.709   6.236 -0.2506  0.1997 -0.3606
   35CHL1   H14 3713   5.389   1.785   6.224  0.3942 -0.8047 -3.2983
   35CHL1   C15 3714   5.180   1.754   6.168 -0.8372 -0.1867  0.0127
   35CHL1  H15A 3715   5.095   1.700   6.215 -0.2620 -1.3479 -0.2250
   35CHL1  H15B 3716   5.169   1.860   6.197 -1.9301  0.3447 -2.0928
   35CHL1   C16 3717   5.204   1.713   6.023  0.5116 -0.0395  0.1570
   35CHL1  H16A 3718   5.116   1.652   5.991 -0.0456  0.5568  0.5145
   35CHL1  H16B 3719   5.209   1.806   5.962 -0.4602 -0.0183  0.0808
   35CHL1   C17 3720   5.338   1.640   6.007  0.1600  0.5504 -0.2757
   35CHL1   H17 3721   5.414   1.719   5.991  0.4899 -0.2173 -2.9535
   35CHL1   C13 3722   5.367   1.589   6.147  0.5012  0.7252 -0.4953
   35CHL1   C18 3723   5.281   1.459   6.166 -1.2311  0.3197  0.3153
   35CHL1  H18A 3724   5.308   1.366   6.111 -0.1012  0.4743  0.5866
   35CHL1  H18B 3725   5.276   1.432   6.274 -0.6547 -0.6080  0.1219
   35CHL1  H18C 3726   5.178   1.489   6.136 -1.6296 -1.7862 -0.5840
   35CHL1   C12 3727   5.511   1.573   6.191  0.1168  0.0355 -0.4732
   35CHL1  H12A 3728   5.563   1.501   6.125  0.8070 -0.6448  0.7586
   35CHL1  H12B 3729   5.567   1.668   6.179 -1.2932  0.7548 -1.5251
   35CHL1   C11 3730   5.514   1.525   6.344 -0.0321  0.6006  0.0426
   35CHL1  H11A 3731   5.469   1.423   6.343 -2.4650  1.5989 -0.0828
   35CHL1  H11B 3732   5.616   1.529   6.387  0.0666  0.3150 -0.1586
   35CHL1    C9 3733   5.435   1.610   6.448 -0.7969 -0.7776  0.0667
   35CHL1    H9 3734   5.507   1.692   6.465  1.9312 -3.1957  0.9910
   35CHL1   C10 3735   5.409   1.545   6.591  0.0436  0.0267  0.3831
   35CHL1   C19 3736   5.367   1.399   6.575 -0.1833  0.4681 -0.2964
   35CHL1  H19A 3737   5.271   1.387   6.521  0.2482 -4.3185 -0.4426
   35CHL1  H19B 3738   5.438   1.334   6.520  0.3271  0.8712 -0.1200
   35CHL1  H19C 3739   5.342   1.349   6.672  0.7188 -0.4588 -0.5153
   35CHL1    C1 3740   5.544   1.547   6.669  0.3419  0.0089 -0.3802
   35CHL1   H1A 3741   5.618   1.486   6.613  0.8508 -0.7821  1.0809
   35CHL1   H1B 3742   5.577   1.653   6.662 -0.9900  0.4242 -0.6859
   35CHL1    C2 3743   5.525   1.498   6.814  0.6952 -0.5850 -0.1080
   35CHL1   H2A 3744   5.620   1.487   6.871  1.4830  1.0129 -1.0425
   35CHL1   H2B 3745   5.485   1.395   6.821  0.9078 -0.6549  0.1061
   35CHL1   C20 3746   5.336   1.554   5.882 -0.2445 -0.5023  0.3587
   35CHL1   H20 3747   5.254   1.479   5.884 -0.7426 -0.0510 -1.4356
   35CHL1   C21 3748   5.461   1.477   5.868 -0.6906  0.2881 -0.0184
   35CHL1  H21A 3749   5.474   1.407   5.954  0.0643 -2.4261 -2.1782
   35CHL1  H21B 3750   5.557   1.531   5.854  0.1420 -1.2114 -0.3603
   35CHL1  H21C 3751   5.451   1.411   5.779 -1.2313 -0.1378  0.3503
   35CHL1   C22 3752   5.299   1.642   5.757 -0.2379  0.4350  0.5004
   35CHL1  H22A 3753   5.273   1.565   5.681 -0.6285 -0.2190  1.2706
   35CHL1  H22B 3754   5.211   1.708   5.773 -1.2595 -0.6703 -0.3044
   35CHL1   C23 3755   5.415   1.734   5.710 -0.0715  0.3536  0.4103
   35CHL1  H23A 3756   5.454   1.806   5.785 -0.1943  0.1718  0.6492
   35CHL1  H23B 3757   5.500   1.674   5.671 -0.9160 -1.8833  1.8020
   35CHL1   C24 3758   5.366   1.824   5.598 -0.3027  0.1753 -0.8093
   35CHL1  H24A 3759   5.265   1.865   5.624 -0.9028  0.9399 -3.9109
   35CHL1  H24B 3760   5.426   1.917   5.600  0.5009 -0.3445  1.2289
   35CHL1   C25 3761   5.353   1.768   5.452 -0.1910  0.6766 -0.1647
   35CHL1   H25 3762   5.324   1.661   5.446  0.9775  0.2973  0.6292
   35CHL1   C26 3763   5.244   1.849   5.378  0.0656 -0.4050  0.2042
   35CHL1  H26A 3764   5.237   1.820   5.271 -0.8135 -2.3495  0.7619
   35CHL1  H26B 3765   5.141   1.845   5.417  0.0771  3.5224  1.0883
   35CHL1  H26C 3766   5.273   1.956   5.370 -0.2485 -0.3675 -0.4304
   35CHL1   C27 3767   5.494   1.791   5.385 -0.0583  0.6262  0.3730
   35CHL1  H27A 3768   5.515   1.899   5.370 -2.0323  1.0046  0.0375
   35CHL1  H27B 3769   5.579   1.748   5.442 -1.2782 -4.0500 -0.8481
   35CHL1  H27C 3770   5.492   1.746   5.283 -2.3757 -1.9399  1.4226
   36CHL1    C3 3771   0.396   6.298   6.396 -0.2113 -0.1054 -0.4251
   36CHL1    H3 3772   0.404   6.407   6.377  0.8512 -0.4232 -2.0554
   36CHL1    O3 3773   0.384   6.273   6.534 -0.6855 -0.3506  0.2581
   36CHL1   H3' 3774   0.454   6.318   6.581  0.9185 -1.2124 -1.1693
   36CHL1    C4 3775   0.283   6.219   6.324 -0.1307 -0.1751  0.8584
   36CHL1   H4A 3776   0.292   6.113   6.356 -0.3603 -0.1318  1.0696
   36CHL1   H4B 3777   0.188   6.264   6.360  0.1141  3.0791 -2.0532
   36CHL1    C5 3778   0.292   6.224   6.173  0.5193  0.7744  0.0648
   36CHL1    C6 3779   0.193   6.269   6.098 -0.1458  0.2088  0.6165
   36CHL1    H6 3780   0.098   6.301   6.143 -0.0282 -1.2021  1.9269
   36CHL1    C7 3781   0.188   6.269   5.943  0.1654 -0.3146 -0.1877
   36CHL1   H7A 3782   0.096   6.227   5.897  1.3755 -0.5757 -2.5313
   36CHL1   H7B 3783   0.190   6.376   5.915 -2.7158 -0.2678 -0.5465
   36CHL1    C8 3784   0.314   6.195   5.883  0.3381  0.3345  1.2179
   36CHL1    H8 3785   0.306   6.085   5.888  1.1611  0.3104  2.2101
   36CHL1   C14 3786   0.343   6.245   5.740  0.2465 -0.5703 -0.6738
   36CHL1   H14 3787   0.357   6.354   5.752 -2.4483 -0.2920  0.8005
   36CHL1   C15 3788   0.224   6.231   5.641  0.6897 -0.3876  0.1448
   36CHL1  H15A 3789   0.164   6.138   5.654 -1.7447  0.6249 -2.6852
   36CHL1  H15B 3790   0.160   6.321   5.656  1.0994  0.2719 -1.8292
   36CHL1   C16 3791   0.289   6.245   5.501 -0.8818 -0.2152 -0.4881
   36CHL1  H16A 3792   0.255   6.154   5.446 -1.5633  0.3844 -1.0872
   36CHL1  H16B 3793   0.253   6.332   5.443  1.0828  0.4331 -0.8015
   36CHL1   C17 3794   0.445   6.240   5.523 -0.5359 -0.3154 -0.7839
   36CHL1   H17 3795   0.483   6.342   5.544 -0.0883 -0.6813  0.2842
   36CHL1   C13 3796   0.464   6.184   5.665 -0.0187  0.0636 -0.0198
   36CHL1   C18 3797   0.433   6.034   5.658 -0.9518  0.6760  0.2914
   36CHL1  H18A 3798   0.522   5.994   5.603 -2.8498 -2.4475 -0.7834
   36CHL1  H18B 3799   0.427   5.984   5.757  1.5450 -0.7133 -0.1617
   36CHL1  H18C 3800   0.346   6.000   5.598  0.0442  0.3764 -1.0251
   36CHL1   C12 3801   0.589   6.214   5.752 -0.5710  0.6779  0.2059
   36CHL1  H12A 3802   0.676   6.164   5.703  0.3912  0.4290  2.1008
   36CHL1  H12B 3803   0.603   6.324   5.762  2.5339  0.2738  1.3896
   36CHL1   C11 3804   0.564   6.159   5.893  0.1570  0.5443 -0.1812
   36CHL1  H11A 3805   0.564   6.048   5.892  1.4878  0.5315  0.2039
   36CHL1  H11B 3806   0.652   6.183   5.956  0.4510 -1.0833  0.0746
   36CHL1    C9 3807   0.436   6.217   5.971  0.2600  0.1234  0.2084
   36CHL1    H9 3808   0.446   6.328   5.973  2.8142 -0.0366 -0.6585
   36CHL1   C10 3809   0.428   6.176   6.114  0.6562 -0.8599 -0.6332
   36CHL1   C19 3810   0.421   6.019   6.120 -0.1771 -0.3778  0.0472
   36CHL1  H19A 3811   0.518   5.981   6.079  0.3661  0.0842  0.8725
   36CHL1  H19B 3812   0.398   5.989   6.224  0.5855  0.8157  0.5966
   36CHL1  H19C 3813   0.334   5.993   6.056  0.0274  1.3933 -1.0381
   36CHL1    C1 3814   0.548   6.239   6.194 -0.6322  0.9310 -0.2711
   36CHL1   H1A 3815   0.642   6.181   6.178  0.5573  1.5196  3.4163
   36CHL1   H1B 3816   0.560   6.346   6.168 -1.7057  1.1312  0.0062
   36CHL1    C2 3817   0.526   6.232   6.344 -0.1699  0.2295  0.0270
   36CHL1   H2A 3818   0.615   6.269   6.399  0.4253  1.0283 -1.4181
   36CHL1   H2B 3819   0.527   6.123   6.368 -0.2358  0.4461  1.0926
   36CHL1   C20 3820   0.506   6.192   5.391  0.3501  0.4506  0.3049
   36CHL1   H20 3821   0.481   6.085   5.374 -0.1225  0.4595  0.9163
   36CHL1   C21 3822   0.658   6.203   5.418  0.7697  0.4819 -0.1135
   36CHL1  H21A 3823   0.687   6.303   5.458  0.5634  1.0476 -1.3510
   36CHL1  H21B 3824   0.717   6.177   5.328 -0.9594  0.5826 -1.3319
   36CHL1  H21C 3825   0.689   6.139   5.504 -0.1988 -1.4442 -1.1199
   36CHL1   C22 3826   0.469   6.274   5.270 -0.0583 -0.1558  0.5493
   36CHL1  H22A 3827   0.361   6.287   5.247  0.4053 -1.4707 -2.8871
   36CHL1  H22B 3828   0.512   6.374   5.292 -1.9416  0.6703  0.6280
   36CHL1   C23 3829   0.521   6.223   5.138 -0.1059 -0.0389  0.4034
   36CHL1  H23A 3830   0.631   6.216   5.144  0.1050  2.4308  0.5666
   36CHL1  H23B 3831   0.484   6.121   5.115 -0.2702  0.3523 -1.2309
   36CHL1   C24 3832   0.494   6.321   5.025 -0.2177 -0.1577 -0.1536
   36CHL1  H24A 3833   0.383   6.328   5.016 -0.3721 -0.1955  1.4455
   36CHL1  H24B 3834   0.525   6.423   5.058  0.7608 -1.1121  2.0900
   36CHL1   C25 3835   0.566   6.284   4.898  0.2994 -0.4825  0.1009
   36CHL1   H25 3836   0.675   6.275   4.921  1.1319 -0.3983 -3.2528
   36CHL1   C26 3837   0.523   6.151   4.836  0.4219  0.0960  0.1283
   36CHL1  H26A 3838   0.555   6.071   4.906 -2.0323 -1.9847 -0.9762
   36CHL1  H26B 3839   0.415   6.160   4.813 -0.4955 -2.1711  2.9522
   36CHL1  H26C 3840   0.589   6.153   4.746  3.0919 -3.7689  1.7139
   36CHL1   C27 3841   0.580   6.409   4.802  0.2097 -0.3536  0.4601
   36CHL1  H27A 3842   0.616   6.384   4.700  1.9972 -1.0138  1.2098
   36CHL1  H27B 3843   0.485   6.466   4.813 -0.0566 -1.0582  2.1614
   36CHL1  H27C 3844   0.657   6.472   4.850 -0.5358  1.2493 -0.3682
   37CHL1    C3 3845   0.841   2.068   6.330  0.3313 -0.4177 -0.3788
   37CHL1    H3 3846   0.737   2.034   6.308  0.2114  0.7027 -1.6628
   37CHL1    O3 3847   0.826   2.153   6.440  0.0598  0.2013  0.4037
   37CHL1   H3' 3848   0.843   2.101   6.518 -0.3192  0.8181  0.9062
   37CHL1    C4 3849   0.936   1.954   6.360 -0.5579 -0.1326 -0.3447
   37CHL1   H4A 3850   1.040   1.989   6.376 -0.8429 -0.5240  3.0650
   37CHL1   H4B 3851   0.911   1.912   6.460 -0.3206 -0.7173 -0.5236
   37CHL1    C5 3852   0.929   1.857   6.244 -0.0291 -0.2487  0.0208
   37CHL1    C6 3853   0.893   1.735   6.270 -0.6138  0.7831 -0.2694
   37CHL1    H6 3854   0.872   1.704   6.373  0.9617  3.1235  0.8438
   37CHL1    C7 3855   0.879   1.623   6.165  0.2848 -0.2682  0.6246
   37CHL1   H7A 3856   0.926   1.524   6.186 -0.0788 -1.1756 -2.3465
   37CHL1   H7B 3857   0.770   1.604   6.149 -0.1559  3.2545 -1.7171
   37CHL1    C8 3858   0.950   1.666   6.027 -0.1144  0.2568 -0.1129
   37CHL1    H8 3859   1.058   1.646   6.044 -0.3403 -1.0258 -0.1007
   37CHL1   C14 3860   0.899   1.584   5.911 -0.2704  0.2913  0.4222
   37CHL1   H14 3861   0.790   1.605   5.905 -0.6585 -1.3203  1.1770
   37CHL1   C15 3862   0.911   1.434   5.925 -0.1006 -0.1129  0.5650
   37CHL1  H15A 3863   1.014   1.402   5.953  0.4144  0.0116 -1.0596
   37CHL1  H15B 3864   0.840   1.394   6.000  1.4968 -2.0648  1.1410
   37CHL1   C16 3865   0.879   1.393   5.781  0.0182  0.5013  0.1589
   37CHL1  H16A 3866   0.946   1.308   5.753  0.8133  0.5330  1.8267
   37CHL1  H16B 3867   0.775   1.356   5.771 -0.0870  1.0731 -1.0807
   37CHL1   C17 3868   0.889   1.514   5.687 -0.0499 -0.0219  0.1102
   37CHL1   H17 3869   0.787   1.550   5.664  0.1387  1.6185  1.6104
   37CHL1   C13 3870   0.959   1.621   5.773 -0.1287 -0.4480 -0.0454
   37CHL1   C18 3871   1.114   1.610   5.770  0.0652 -0.2434 -0.7928
   37CHL1  H18A 3872   1.151   1.672   5.855 -0.4191  0.1179 -0.8376
   37CHL1  H18B 3873   1.132   1.502   5.784 -3.1364 -0.6628  1.1511
   37CHL1  H18C 3874   1.161   1.645   5.676 -0.1307  0.3720 -0.6695
   37CHL1   C12 3875   0.909   1.768   5.741 -0.0424 -1.0091  0.4076
   37CHL1  H12A 3876   0.947   1.799   5.642 -1.9163 -1.3143 -0.4480
   37CHL1  H12B 3877   0.798   1.757   5.743  0.1008 -2.7472  0.4761
   37CHL1   C11 3878   0.953   1.868   5.843 -0.0585  0.0791  0.1316
   37CHL1  H11A 3879   1.062   1.884   5.826 -0.0470 -0.1823 -0.0306
   37CHL1  H11B 3880   0.897   1.960   5.816  0.9489  0.1297 -1.9920
   37CHL1    C9 3881   0.914   1.813   5.987 -0.3732  0.7374 -0.3432
   37CHL1    H9 3882   0.803   1.812   5.981 -0.4826  1.0697  1.2106
   37CHL1   C10 3883   0.958   1.912   6.102  0.4713 -0.2945 -0.5006
   37CHL1   C19 3884   1.119   1.940   6.087 -0.0750 -0.6947 -0.2719
   37CHL1  H19A 3885   1.144   1.980   5.987 -1.9557  0.0034 -0.4867
   37CHL1  H19B 3886   1.145   2.021   6.159  0.1662 -0.6330 -0.4277
   37CHL1  H19C 3887   1.179   1.847   6.099  1.3106 -0.1563 -2.3772
   37CHL1    C1 3888   0.889   2.048   6.080  0.1749  0.2145 -0.0808
   37CHL1   H1A 3889   0.930   2.092   5.987 -2.2151  0.6389 -1.0021
   37CHL1   H1B 3890   0.783   2.030   6.051  0.6041  0.5222 -1.9931
   37CHL1    C2 3891   0.894   2.148   6.204  0.2035 -0.2374  0.3101
   37CHL1   H2A 3892   0.834   2.238   6.178 -0.5237 -1.2216 -1.6547
   37CHL1   H2B 3893   0.994   2.186   6.234 -0.1804  2.2051 -1.1792
   37CHL1   C20 3894   0.963   1.474   5.552  0.2869 -0.9181 -0.1809
   37CHL1   H20 3895   1.059   1.429   5.584  0.1490  0.2080  1.9800
   37CHL1   C21 3896   0.986   1.593   5.456 -0.1381  0.1440  0.0631
   37CHL1  H21A 3897   1.041   1.559   5.365 -1.7755 -0.8652 -0.5892
   37CHL1  H21B 3898   1.042   1.673   5.509 -1.3107  0.0950  1.4144
   37CHL1  H21C 3899   0.888   1.631   5.421  0.4109  1.4004 -0.1765
   37CHL1   C22 3900   0.883   1.361   5.474 -0.2193  0.6676 -0.8587
   37CHL1  H22A 3901   0.806   1.320   5.543  1.4085  1.9328  1.9035
   37CHL1  H22B 3902   0.830   1.416   5.393  1.1363  0.5128 -1.8704
   37CHL1   C23 3903   0.969   1.243   5.414  0.0245 -0.3630 -0.8091
   37CHL1  H23A 3904   1.026   1.280   5.327  0.9026  0.9325  0.2722
   37CHL1  H23B 3905   1.040   1.200   5.488 -2.2151 -1.2854  0.9480
   37CHL1   C24 3906   0.875   1.129   5.361 -0.0259 -0.2870  0.1934
   37CHL1  H24A 3907   0.790   1.103   5.428  1.1306 -0.4901  1.6375
   37CHL1  H24B 3908   0.839   1.154   5.259  0.9062  1.3266  0.2076
   37CHL1   C25 3909   0.958   0.996   5.350  0.4102  0.1153 -0.4798
   37CHL1   H25 3910   1.040   0.995   5.425  1.5428  0.2753 -1.6637
   37CHL1   C26 3911   0.869   0.876   5.372  0.1482  0.3556 -0.8489
   37CHL1  H26A 3912   0.924   0.784   5.343 -0.5549  0.2287 -1.8214
   37CHL1  H26B 3913   0.854   0.868   5.482  0.2721  0.3387 -0.8336
   37CHL1  H26C 3914   0.768   0.874   5.326 -0.0216  2.1509 -0.6353
   37CHL1   C27 3915   1.026   0.990   5.209 -0.0370  0.2428 -0.4518
   37CHL1  H27A 3916   0.957   0.983   5.122  0.0851  0.6552 -0.5822
   37CHL1  H27B 3917   1.083   1.084   5.196 -1.0644  1.3932  2.4717
   37CHL1  H27C 3918   1.097   0.906   5.195  0.7653  0.8962 -0.3407
   38CHL1    C3 3919   3.570   3.405   6.536 -0.2257  0.1197  0.0961
   38CHL1    H3 3920   3.575   3.501   6.592  0.5153  1.2566 -1.8510
   38CHL1    O3 3921   3.581   3.283   6.606  0.0635  0.2250 -0.2471
   38CHL1   H3' 3922   3.674   3.261   6.611 -0.3532 -2.4763 -1.9042
   38CHL1    C4 3923   3.439   3.396   6.444  0.1269 -0.2715 -0.2612
   38CHL1   H4A 3924   3.445   3.302   6.386 -0.8193 -1.1592  1.0104
   38CHL1   H4B 3925   3.353   3.395   6.514  0.4981  2.5187  0.3430
   38CHL1    C5 3926   3.437   3.516   6.354  0.0317  0.0699 -0.1337
   38CHL1    C6 3927   3.329   3.601   6.361 -0.5426  0.6539  0.0445
   38CHL1    H6 3928   3.248   3.586   6.434  0.6009  0.1117  1.2540
   38CHL1    C7 3929   3.319   3.724   6.278  0.3332  0.3260  0.3881
   38CHL1   H7A 3930   3.212   3.731   6.246  0.2693  1.0566  0.7481
   38CHL1   H7B 3931   3.339   3.819   6.331  2.0297  0.4909 -0.5021
   38CHL1    C8 3932   3.417   3.712   6.150 -0.1599 -0.2094 -0.2063
   38CHL1    H8 3933   3.371   3.625   6.097 -0.7008  0.6475 -1.1716
   38CHL1   C14 3934   3.427   3.841   6.065  0.1882  0.7296 -0.5219
   38CHL1   H14 3935   3.480   3.909   6.136 -0.8100  1.5588 -0.5536
   38CHL1   C15 3936   3.295   3.910   6.022  0.9184  0.4070 -0.4978
   38CHL1  H15A 3937   3.239   3.824   5.978  1.3076 -0.2569  0.2737
   38CHL1  H15B 3938   3.243   3.958   6.107 -0.7463  1.4508 -2.0382
   38CHL1   C16 3939   3.336   4.004   5.910  0.4451  0.2817 -0.0177
   38CHL1  H16A 3940   3.261   4.000   5.828 -0.6072  1.1626  0.8580
   38CHL1  H16B 3941   3.344   4.110   5.942 -0.8367  1.2428 -2.5643
   38CHL1   C17 3942   3.479   3.955   5.875  0.4194 -0.0679 -0.8176
   38CHL1   H17 3943   3.536   4.025   5.940 -0.1869  0.1972 -0.5618
   38CHL1   C13 3944   3.501   3.819   5.938 -1.1402 -0.2646  0.0455
   38CHL1   C18 3945   3.443   3.708   5.843  0.2357 -0.2267 -0.4048
   38CHL1  H18A 3946   3.428   3.608   5.889  0.6634 -1.9289 -3.6719
   38CHL1  H18B 3947   3.351   3.749   5.796 -1.0482 -0.8266  1.4734
   38CHL1  H18C 3948   3.510   3.685   5.757 -1.5306  0.2407 -1.9833
   38CHL1   C12 3949   3.654   3.796   5.970  0.3883 -0.2926 -0.2424
   38CHL1  H12A 3950   3.714   3.796   5.877 -0.1049 -1.9851 -0.5865
   38CHL1  H12B 3951   3.684   3.878   6.040 -0.0772 -0.4841  0.1922
   38CHL1   C11 3952   3.655   3.672   6.054  0.1321  0.2398  0.2086
   38CHL1  H11A 3953   3.629   3.592   5.980  0.9411  2.3916 -2.5595
   38CHL1  H11B 3954   3.755   3.659   6.100 -0.3331 -3.6205  0.5316
   38CHL1    C9 3955   3.560   3.667   6.183 -0.2123 -0.4221  0.0957
   38CHL1    H9 3956   3.587   3.742   6.260  0.1489 -1.4190  0.9547
   38CHL1   C10 3957   3.561   3.525   6.259 -0.2422 -0.1499 -0.1439
   38CHL1   C19 3958   3.565   3.413   6.146 -0.2963 -0.1215 -0.2697
   38CHL1  H19A 3959   3.557   3.311   6.188 -1.8920  0.8051  1.8620
   38CHL1  H19B 3960   3.469   3.422   6.090 -0.3948  1.0926  0.0707
   38CHL1  H19C 3961   3.651   3.424   6.076  1.3482  0.9783  1.8117
   38CHL1    C1 3962   3.696   3.515   6.337  0.0062 -0.0006 -0.1719
   38CHL1   H1A 3963   3.780   3.509   6.264  2.9392  1.5210  2.8253
   38CHL1   H1B 3964   3.715   3.604   6.401  1.1911 -0.1716 -0.2585
   38CHL1    C2 3965   3.698   3.396   6.442 -0.1415  0.0469 -0.0631
   38CHL1   H2A 3966   3.798   3.384   6.489 -1.3950 -1.9093  2.4216
   38CHL1   H2B 3967   3.692   3.297   6.391  0.2062 -0.0982  0.1679
   38CHL1   C20 3968   3.531   3.977   5.736 -0.5186 -0.4596 -0.8569
   38CHL1   H20 3969   3.631   3.928   5.732  0.2267  0.7172  1.5882
   38CHL1   C21 3970   3.539   4.132   5.709  0.5095  0.0877  0.2244
   38CHL1  H21A 3971   3.444   4.170   5.664 -1.0382 -1.4424  2.0227
   38CHL1  H21B 3972   3.625   4.165   5.647  0.4319  1.4686  0.8269
   38CHL1  H21C 3973   3.544   4.182   5.808  2.2433 -3.2152  2.0033
   38CHL1   C22 3974   3.446   3.918   5.615 -0.3992 -0.4103 -0.0307
   38CHL1  H22A 3975   3.458   3.808   5.621  0.0992 -0.3293  0.6127
   38CHL1  H22B 3976   3.340   3.954   5.618  0.2060  1.4830  0.5312
   38CHL1   C23 3977   3.503   3.965   5.476  0.5377 -0.4393  0.1858
   38CHL1  H23A 3978   3.453   4.064   5.464 -1.4612 -1.4117  0.1205
   38CHL1  H23B 3979   3.614   3.976   5.472  0.4900 -0.2259 -0.8105
   38CHL1   C24 3980   3.460   3.887   5.345 -0.4247 -1.0978  0.9404
   38CHL1  H24A 3981   3.510   3.789   5.329 -0.5051 -0.9725 -0.1059
   38CHL1  H24B 3982   3.352   3.862   5.355 -0.6315 -1.0804 -0.9336
   38CHL1   C25 3983   3.483   3.964   5.209  0.0561  0.1924 -0.2508
   38CHL1   H25 3984   3.592   3.980   5.196 -0.0604  0.6530 -0.6906
   38CHL1   C26 3985   3.429   3.877   5.089 -0.2199 -1.0960 -0.4587
   38CHL1  H26A 3986   3.514   3.817   5.050 -0.2344 -0.0797 -2.1514
   38CHL1  H26B 3987   3.353   3.808   5.132  0.0105 -3.5184 -3.5667
   38CHL1  H26C 3988   3.383   3.944   5.013 -0.6166 -0.2034  0.5619
   38CHL1   C27 3989   3.404   4.098   5.199 -0.1753  0.0458  0.2373
   38CHL1  H27A 3990   3.412   4.133   5.094 -0.2183  0.1017  0.2532
   38CHL1  H27B 3991   3.300   4.083   5.234 -0.5991  1.7825 -0.1784
   38CHL1  H27C 3992   3.447   4.175   5.266 -0.5901 -1.0407  1.7832
   39CHL1    C3 3993   4.722   3.440   6.191 -0.1624 -0.1300  0.2233
   39CHL1    H3 3994   4.767   3.339   6.179  0.1776 -0.3180  2.6131
   39CHL1    O3 3995   4.767   3.504   6.310  0.1483 -0.2046  0.0989
   39CHL1   H3' 3996   4.733   3.450   6.381  3.4413 -1.5178  0.8808
   39CHL1    C4 3997   4.772   3.520   6.076  0.5138 -0.5274 -0.7558
   39CHL1   H4A 3998   4.733   3.622   6.097  2.5402  0.0064  0.6909
   39CHL1   H4B 3999   4.880   3.545   6.075  0.5515 -0.6985 -1.2790
   39CHL1    C5 4000   4.728   3.479   5.946 -0.2299  0.3492 -0.5447
   39CHL1    C6 4001   4.812   3.461   5.844  0.2444 -0.1516  0.3603
   39CHL1    H6 4002   4.919   3.483   5.855 -0.1779  2.6511 -0.3795
   39CHL1    C7 4003   4.771   3.403   5.704  1.3362  0.0867 -0.2345
   39CHL1   H7A 4004   4.823   3.463   5.627  3.4662 -1.7953 -0.3972
   39CHL1   H7B 4005   4.805   3.297   5.696 -0.5084 -0.4781 -1.1004
   39CHL1    C8 4006   4.616   3.408   5.678  0.0107 -0.4830 -0.3205
   39CHL1    H8 4007   4.592   3.515   5.660  0.0482 -0.2961  0.6957
   39CHL1   C14 4008   4.571   3.330   5.554 -0.3783 -0.0873 -0.0482
   39CHL1   H14 4009   4.605   3.227   5.579  1.8979  0.3469 -1.0510
   39CHL1   C15 4010   4.647   3.362   5.422  0.9266 -0.0710 -0.1458
   39CHL1  H15A 4011   4.654   3.472   5.410  0.2106  0.5421  3.7246
   39CHL1  H15B 4012   4.744   3.314   5.442  0.6100 -0.9042 -0.5641
   39CHL1   C16 4013   4.550   3.300   5.318  0.1225  0.0640 -0.4710
   39CHL1  H16A 4014   4.523   3.372   5.238 -0.4314  1.2830  0.7811
   39CHL1  H16B 4015   4.601   3.213   5.272  0.8207  0.7430 -1.0204
   39CHL1   C17 4016   4.418   3.265   5.393 -0.0933 -0.5255  0.4838
   39CHL1   H17 4017   4.422   3.155   5.408  0.9954 -0.5135  0.3452
   39CHL1   C13 4018   4.425   3.335   5.529  0.5062  0.4838  0.4535
   39CHL1   C18 4019   4.379   3.483   5.505 -0.3428  0.3011  0.0751
   39CHL1  H18A 4020   4.427   3.539   5.422 -0.8230 -1.4965 -1.4980
   39CHL1  H18B 4021   4.269   3.485   5.492 -0.4834 -0.5889  1.0350
   39CHL1  H18C 4022   4.395   3.544   5.596 -0.8696  0.8196 -0.1758
   39CHL1   C12 4023   4.352   3.271   5.654 -0.6102  0.0875  0.7511
   39CHL1  H12A 4024   4.244   3.282   5.630 -0.3362 -0.8683 -1.1062
   39CHL1  H12B 4025   4.369   3.162   5.666 -1.4712 -0.5496 -2.6172
   39CHL1   C11 4026   4.392   3.339   5.780  0.4691  0.9178 -0.3850
   39CHL1  H11A 4027   4.351   3.443   5.774  0.1374  0.7784 -0.5385
   39CHL1  H11B 4028   4.346   3.283   5.864 -1.8573  0.4586 -1.8807
   39CHL1    C9 4029   4.544   3.357   5.805  0.7543 -0.2059 -0.3611
   39CHL1    H9 4030   4.587   3.257   5.825  0.0239 -0.3404  0.5798
   39CHL1   C10 4031   4.578   3.440   5.936  0.6538 -0.4672  1.1902
   39CHL1   C19 4032   4.502   3.569   5.928  0.4116 -0.0340  0.0239
   39CHL1  H19A 4033   4.521   3.635   6.015 -0.2898 -1.4158  1.2693
   39CHL1  H19B 4034   4.516   3.624   5.833 -2.8319  0.4102 -0.3132
   39CHL1  H19C 4035   4.392   3.552   5.933  0.5554 -1.8350 -1.7618
   39CHL1    C1 4036   4.524   3.363   6.056 -0.2428  0.2902 -0.0411
   39CHL1   H1A 4037   4.414   3.347   6.052 -0.0533 -1.0254 -0.4310
   39CHL1   H1B 4038   4.564   3.259   6.054 -0.5755  0.1579 -2.2685
   39CHL1    C2 4039   4.566   3.424   6.188  0.0788 -0.2019 -0.5622
   39CHL1   H2A 4040   4.533   3.354   6.267  0.5249  2.7488  2.4888
   39CHL1   H2B 4041   4.510   3.517   6.212 -1.1089 -0.7880 -1.0310
   39CHL1   C20 4042   4.297   3.292   5.301 -0.8257  0.6016  0.2759
   39CHL1   H20 4043   4.278   3.402   5.298  1.1773  0.9938  0.7402
   39CHL1   C21 4044   4.175   3.224   5.361  0.2548 -0.6893  0.5887
   39CHL1  H21A 4045   4.091   3.220   5.288  1.0357 -1.2210 -0.3078
   39CHL1  H21B 4046   4.134   3.270   5.453 -1.5555  0.3372 -0.6453
   39CHL1  H21C 4047   4.208   3.120   5.380  1.7464 -0.5025 -0.6748
   39CHL1   C22 4048   4.311   3.244   5.155  0.0401  0.3394 -0.2899
   39CHL1  H22A 4049   4.218   3.257   5.096 -1.1901  0.4611  1.5787
   39CHL1  H22B 4050   4.381   3.310   5.100 -0.9063  0.3449 -1.5288
   39CHL1   C23 4051   4.367   3.103   5.122  0.2308 -0.0310 -0.3084
   39CHL1  H23A 4052   4.470   3.087   5.161  0.3909 -0.8683 -1.0520
   39CHL1  H23B 4053   4.302   3.031   5.177  0.9272 -1.6454 -1.5141
   39CHL1   C24 4054   4.351   3.065   4.975 -0.6931 -0.5756 -0.5702
   39CHL1  H24A 4055   4.382   2.959   4.978  0.2648 -0.3070 -0.7123
   39CHL1  H24B 4056   4.244   3.074   4.946 -0.7060  0.4278 -0.2694
   39CHL1   C25 4057   4.438   3.135   4.872  0.2378  0.1273 -0.5479
   39CHL1   H25 4058   4.419   3.244   4.877  1.0341  0.2438  0.0827
   39CHL1   C26 4059   4.581   3.104   4.893 -0.4181  0.4030  0.2584
   39CHL1  H26A 4060   4.642   3.144   4.809  0.6781  0.0266  0.8488
   39CHL1  H26B 4061   4.633   3.149   4.980 -0.3757  1.6582 -0.3977
   39CHL1  H26C 4062   4.605   2.995   4.888  1.6036  0.7642  0.8895
   39CHL1   C27 4063   4.395   3.092   4.735  0.1789 -0.3594 -0.4403
   39CHL1  H27A 4064   4.441   3.154   4.656 -0.4868  1.4508  0.5293
   39CHL1  H27B 4065   4.430   2.987   4.719 -0.1706 -0.3343 -1.3883
   39CHL1  H27C 4066   4.287   3.111   4.718  0.1006  0.4915  0.8243
   40CHL1    C3 4067   5.893   1.944   6.695 -0.2940  0.7131 -0.3843
   40CHL1    H3 4068   5.960   1.867   6.652 -0.9781 -0.0877 -0.0452
   40CHL1    O3 4069   5.910   1.947   6.834 -0.0669  0.7421 -0.1046
   40CHL1   H3' 4070   5.848   2.015   6.863 -0.2206  1.2413 -1.4875
   40CHL1    C4 4071   5.927   2.084   6.650  0.2288  0.0007 -0.4824
   40CHL1   H4A 4072   5.856   2.149   6.706  0.7358 -0.9969  1.4148
   40CHL1   H4B 4073   6.030   2.114   6.679 -0.4476  1.9787  0.0019
   40CHL1    C5 4074   5.891   2.102   6.504  0.6182 -0.4648 -0.2898
   40CHL1    C6 4075   5.979   2.151   6.417  0.0562  0.4061  0.3225
   40CHL1    H6 4076   6.080   2.174   6.456 -1.8529  3.3681  4.2465
   40CHL1    C7 4077   5.945   2.179   6.270 -0.5139 -0.1806 -1.0366
   40CHL1   H7A 4078   5.983   2.280   6.245  1.3705 -1.1246 -2.1691
   40CHL1   H7B 4079   5.995   2.098   6.212 -0.8532 -2.3417  1.4910
   40CHL1    C8 4080   5.789   2.183   6.241 -0.5499  0.6826 -0.7431
   40CHL1    H8 4081   5.755   2.284   6.274  0.9432  1.2463 -0.8260
   40CHL1   C14 4082   5.769   2.159   6.099 -1.0900 -0.5881  0.2070
   40CHL1   H14 4083   5.808   2.057   6.078 -1.3311 -0.8939  1.1963
   40CHL1   C15 4084   5.855   2.241   5.999 -0.5240  0.0395 -0.1318
   40CHL1  H15A 4085   5.860   2.345   6.038 -0.0621  0.0274 -0.1589
   40CHL1  H15B 4086   5.958   2.201   5.992 -0.7909 -0.7714  0.4908
   40CHL1   C16 4087   5.777   2.229   5.867  0.3020  0.6979  0.2669
   40CHL1  H16A 4088   5.745   2.333   5.841  0.8402  1.0988  1.1427
   40CHL1  H16B 4089   5.827   2.195   5.774 -0.3074  3.4925 -1.2162
   40CHL1   C17 4090   5.647   2.146   5.893 -0.4907  0.0934 -0.1004
   40CHL1   H17 4091   5.676   2.046   5.855 -1.2442  0.3937 -1.5625
   40CHL1   C13 4092   5.628   2.156   6.047  0.1962 -0.7175  0.5405
   40CHL1   C18 4093   5.560   2.292   6.079  0.3848 -0.2640  0.3100
   40CHL1  H18A 4094   5.565   2.315   6.187 -1.8023  1.3923  0.1376
   40CHL1  H18B 4095   5.599   2.377   6.020 -1.0662  0.2251  0.0170
   40CHL1  H18C 4096   5.450   2.291   6.062 -0.1836  0.2479  3.4234
   40CHL1   C12 4097   5.564   2.041   6.116  0.1017  0.5844 -0.3325
   40CHL1  H12A 4098   5.456   2.045   6.091  0.4718  1.6340 -1.9523
   40CHL1  H12B 4099   5.616   1.950   6.080  0.5863  1.2675 -1.4281
   40CHL1   C11 4100   5.575   2.046   6.270  0.3746 -1.2368  0.0979
   40CHL1  H11A 4101   5.515   2.133   6.304 -0.3452 -0.8590 -1.9688
   40CHL1  H11B 4102   5.526   1.959   6.319 -0.5809 -0.4286  0.6194
   40CHL1    C9 4103   5.719   2.067   6.313 -0.1251 -0.4232  0.0890
   40CHL1    H9 4104   5.772   1.976   6.278  0.1240 -0.4177  0.4431
   40CHL1   C10 4105   5.743   2.067   6.471  0.0123 -0.5167  0.3417
   40CHL1   C19 4106   5.633   2.160   6.539  0.1630  0.1148 -0.1323
   40CHL1  H19A 4107   5.664   2.193   6.641  0.2872  0.6662 -0.3418
   40CHL1  H19B 4108   5.616   2.247   6.472  1.0476  0.4933  0.1130
   40CHL1  H19C 4109   5.534   2.111   6.541 -0.9030  2.0994 -1.2034
   40CHL1    C1 4110   5.719   1.925   6.520  0.0859 -0.3602  0.5761
   40CHL1   H1A 4111   5.612   1.895   6.507 -0.2316  1.1162 -0.5235
   40CHL1   H1B 4112   5.777   1.856   6.456 -0.4517  0.1474 -0.5003
   40CHL1    C2 4113   5.752   1.907   6.671  0.4498  0.3177 -0.3117
   40CHL1   H2A 4114   5.736   1.798   6.690 -2.2354  0.7689  0.3496
   40CHL1   H2B 4115   5.677   1.943   6.744  2.4267 -2.0163  3.2056
   40CHL1   C20 4116   5.528   2.204   5.805 -0.1831  1.0035 -0.1545
   40CHL1   H20 4117   5.502   2.308   5.835 -2.2679  0.1470  1.2579
   40CHL1   C21 4118   5.397   2.113   5.823 -0.1343  0.1426 -0.7286
   40CHL1  H21A 4119   5.371   2.117   5.931 -2.2467  2.2763 -1.2339
   40CHL1  H21B 4120   5.413   2.004   5.808  0.8824  0.1815 -0.0603
   40CHL1  H21C 4121   5.309   2.155   5.770 -1.3335  1.0321  1.8080
   40CHL1   C22 4122   5.578   2.194   5.651 -0.5812  0.4121 -0.0853
   40CHL1  H22A 4123   5.651   2.270   5.616 -0.0357 -0.2970 -0.5217
   40CHL1  H22B 4124   5.609   2.088   5.639 -3.3477 -0.6568  1.2264
   40CHL1   C23 4125   5.461   2.208   5.547  0.4310 -0.1867  0.6838
   40CHL1  H23A 4126   5.506   2.196   5.446 -1.0836 -2.3916  0.2008
   40CHL1  H23B 4127   5.395   2.119   5.550 -0.9343  0.7148 -0.5409
   40CHL1   C24 4128   5.381   2.337   5.552  0.1772 -0.8852 -0.2880
   40CHL1  H24A 4129   5.331   2.340   5.651  0.2464  0.9061 -0.2675
   40CHL1  H24B 4130   5.432   2.434   5.535 -2.7511  1.4831  3.0435
   40CHL1   C25 4131   5.268   2.330   5.449 -0.0571  0.1027  0.5460
   40CHL1   H25 4132   5.235   2.224   5.444 -1.3842  0.5273 -0.2997
   40CHL1   C26 4133   5.138   2.403   5.491 -0.0771 -0.0170 -0.2608
   40CHL1  H26A 4134   5.166   2.506   5.523  0.1291  0.6569 -2.4697
   40CHL1  H26B 4135   5.072   2.413   5.403  0.0159 -1.1438 -0.4663
   40CHL1  H26C 4136   5.089   2.345   5.572  1.0419 -1.0311 -0.2849
   40CHL1   C27 4137   5.319   2.387   5.311  0.1052 -0.6167  0.1656
   40CHL1  H27A 4138   5.409   2.330   5.278  0.0099 -0.2609 -0.7446
   40CHL1  H27B 4139   5.248   2.377   5.226  0.4138  1.4541 -0.4110
   40CHL1  H27C 4140   5.345   2.494   5.330 -2.7245  0.3818 -1.0787
   41CHL1    C3 4141   0.813   6.717   6.436 -0.3349 -0.3477  0.1947
   41CHL1    H3 4142   0.903   6.704   6.374 -1.5122 -3.3157 -1.0554
   41CHL1    O3 4143   0.855   6.711   6.572  0.0302  0.0101  0.1903
   41CHL1   H3' 4144   0.774   6.679   6.613 -0.9960  1.8130 -0.3113
   41CHL1    C4 4145   0.743   6.853   6.401 -0.0049 -0.3630 -0.0760
   41CHL1   H4A 4146   0.667   6.865   6.482 -2.0654  0.6278 -2.0519
   41CHL1   H4B 4147   0.814   6.938   6.411 -1.1796  0.8661 -1.8052
   41CHL1    C5 4148   0.671   6.865   6.271 -0.3600 -0.0510  0.6541
   41CHL1    C6 4149   0.678   6.972   6.197 -0.0892  0.4187  0.6793
   41CHL1    H6 4150   0.736   7.061   6.229  0.0814  0.1373  1.1581
   41CHL1    C7 4151   0.613   6.989   6.065 -0.1488  0.3677 -0.5922
   41CHL1   H7A 4152   0.568   7.090   6.058  0.0962  0.4758 -0.6091
   41CHL1   H7B 4153   0.691   6.981   5.987 -0.6970 -2.5500 -0.9480
   41CHL1    C8 4154   0.505   6.884   6.026  0.1507  0.5396 -0.1699
   41CHL1    H8 4155   0.416   6.920   6.081 -0.7871 -0.8200 -0.7596
   41CHL1   C14 4156   0.479   6.878   5.874  0.2422 -0.5989  0.1590
   41CHL1   H14 4157   0.567   6.827   5.829  1.3270 -0.5203  2.0615
   41CHL1   C15 4158   0.461   7.012   5.801 -0.1935  0.0824 -0.4911
   41CHL1  H15A 4159   0.399   7.076   5.866 -0.7930  0.4134 -1.3698
   41CHL1  H15B 4160   0.557   7.067   5.785 -0.9884  2.6699  2.6211
   41CHL1   C16 4161   0.380   6.976   5.677 -0.2421  0.4251  0.1765
   41CHL1  H16A 4162   0.285   7.033   5.683 -0.2880  0.2165  1.8993
   41CHL1  H16B 4163   0.439   6.990   5.584  0.0926  1.9319  0.5906
   41CHL1   C17 4164   0.355   6.823   5.689  0.4670  0.0781  0.4654
   41CHL1   H17 4165   0.442   6.772   5.644  2.2786  1.2262  2.4667
   41CHL1   C13 4166   0.361   6.793   5.846 -0.2639  0.6447  1.1247
   41CHL1   C18 4167   0.228   6.841   5.908 -0.7380  0.5419  0.1683
   41CHL1  H18A 4168   0.141   6.781   5.874  0.3264  0.5814 -2.9179
   41CHL1  H18B 4169   0.234   6.838   6.019 -4.0829  0.2674  0.4427
   41CHL1  H18C 4170   0.213   6.947   5.876 -3.3304 -0.1153 -1.0278
   41CHL1   C12 4171   0.405   6.646   5.880 -0.3515  0.4697 -0.1413
   41CHL1  H12A 4172   0.319   6.579   5.857  1.7804 -1.0847 -5.1140
   41CHL1  H12B 4173   0.486   6.613   5.812 -0.8990  0.1044 -0.6238
   41CHL1   C11 4174   0.454   6.626   6.027 -0.1231 -0.2472 -0.3262
   41CHL1  H11A 4175   0.362   6.632   6.089  0.9689 -0.2803  1.3502
   41CHL1  H11B 4176   0.504   6.527   6.039  1.5813  0.5246 -0.7378
   41CHL1    C9 4177   0.552   6.739   6.073  0.3806 -0.0763 -0.1697
   41CHL1    H9 4178   0.641   6.724   6.008  0.7140  0.9440  0.0381
   41CHL1   C10 4179   0.600   6.734   6.220  0.8348  0.3520 -0.4220
   41CHL1   C19 4180   0.462   6.728   6.304  0.3363  0.1315 -0.1293
   41CHL1  H19A 4181   0.390   6.808   6.276  1.5069  0.3724 -2.7155
   41CHL1  H19B 4182   0.405   6.636   6.281 -2.6929  2.1942 -1.5463
   41CHL1  H19C 4183   0.493   6.728   6.411  0.7632 -0.8262 -0.2446
   41CHL1    C1 4184   0.691   6.613   6.243  0.4564  1.1595 -0.8039
   41CHL1   H1A 4185   0.647   6.518   6.205 -0.2580  1.1414  0.0294
   41CHL1   H1B 4186   0.785   6.631   6.187  1.2880 -2.1928 -0.7018
   41CHL1    C2 4187   0.730   6.596   6.394 -0.0672  0.5383 -0.0002
   41CHL1   H2A 4188   0.798   6.509   6.403  0.0967  0.7274  0.6525
   41CHL1   H2B 4189   0.642   6.581   6.459 -0.6629  2.7727 -0.2058
   41CHL1   C20 4190   0.233   6.769   5.602  0.2010  0.0376 -0.8840
   41CHL1   H20 4191   0.145   6.831   5.630  0.8296  0.6498 -0.2239
   41CHL1   C21 4192   0.195   6.625   5.629 -0.4005  0.4991 -0.6113
   41CHL1  H21A 4193   0.146   6.615   5.728 -2.0666 -1.8024 -1.5830
   41CHL1  H21B 4194   0.281   6.556   5.619 -0.8872 -0.2157  0.0366
   41CHL1  H21C 4195   0.121   6.584   5.557  0.8756 -1.7840 -0.7119
   41CHL1   C22 4196   0.247   6.804   5.450 -0.4280  0.5234 -0.1998
   41CHL1  H22A 4197   0.316   6.891   5.438  0.6976 -0.4152 -0.7523
   41CHL1  H22B 4198   0.300   6.717   5.405 -0.6236 -0.2760  1.0527
   41CHL1   C23 4199   0.116   6.843   5.390  0.4635  0.2449 -0.2115
   41CHL1  H23A 4200   0.045   6.764   5.423  2.4423 -1.1418  0.9001
   41CHL1  H23B 4201   0.082   6.936   5.439 -0.4697 -0.0410 -0.2903
   41CHL1   C24 4202   0.106   6.862   5.238 -0.8078  0.3491 -0.3352
   41CHL1  H24A 4203   0.013   6.913   5.207  0.7303  2.2866 -2.0683
   41CHL1  H24B 4204   0.188   6.937   5.233  0.0312 -0.0665  3.6265
   41CHL1   C25 4205   0.132   6.738   5.151  0.2487 -0.3339  0.3047
   41CHL1   H25 4206   0.237   6.707   5.169  0.8650  1.3167 -0.2470
   41CHL1   C26 4207   0.028   6.629   5.184  0.3003 -0.0962 -0.3931
   41CHL1  H26A 4208   0.040   6.592   5.288 -1.7446  0.4209  0.0784
   41CHL1  H26B 4209  -0.075   6.672   5.183  0.6376  0.7924  1.0201
   41CHL1  H26C 4210   0.031   6.536   5.123  0.3426  0.9375 -2.0162
   41CHL1   C27 4211   0.130   6.769   5.000 -0.4717  0.3315  0.9757
   41CHL1  H27A 4212   0.048   6.840   4.979  0.7159  1.3687 -0.4641
   41CHL1  H27B 4213   0.231   6.805   4.969 -0.1258 -0.3745  1.2633
   41CHL1  H27C 4214   0.104   6.673   4.951  0.1504  0.4924  0.2963
   42CHL1    C3 4215   1.073   3.319   6.514  0.0446 -0.2086 -0.0600
   42CHL1    H3 4216   0.993   3.243   6.508  1.5761 -1.9123  0.3237
   42CHL1    O3 4217   1.094   3.351   6.646 -0.0467 -0.4587 -0.6280
   42CHL1   H3' 4218   1.020   3.403   6.679  1.9047  0.2674  3.1456
   42CHL1    C4 4219   1.197   3.257   6.442 -0.2504 -0.1943 -0.3397
   42CHL1   H4A 4220   1.282   3.327   6.457  0.6453 -1.2585 -0.3230
   42CHL1   H4B 4221   1.221   3.158   6.486 -2.1227 -0.3674  0.4032
   42CHL1    C5 4222   1.159   3.235   6.297  0.2007  0.1229 -0.4401
   42CHL1    C6 4223   1.168   3.115   6.238 -0.4747  0.3729  0.7295
   42CHL1    H6 4224   1.206   3.025   6.290 -2.3526 -0.8592  0.0770
   42CHL1    C7 4225   1.154   3.091   6.092  0.1393  0.0138  0.2636
   42CHL1   H7A 4226   1.234   3.028   6.048  0.8086  0.5465  0.6916
   42CHL1   H7B 4227   1.059   3.037   6.074 -1.3060  2.3436  0.4021
   42CHL1    C8 4228   1.149   3.230   6.016  0.4413 -0.4112 -0.0873
   42CHL1    H8 4229   1.254   3.265   6.013  0.5981 -0.3432  2.9405
   42CHL1   C14 4230   1.097   3.203   5.872 -0.2598 -0.1800 -0.0613
   42CHL1   H14 4231   0.997   3.157   5.889 -0.3121 -0.7640 -1.7926
   42CHL1   C15 4232   1.182   3.106   5.784  0.6661  0.3973 -0.2876
   42CHL1  H15A 4233   1.291   3.122   5.801  0.6650 -2.0584  2.9991
   42CHL1  H15B 4234   1.162   2.999   5.805  0.6390  0.1079 -1.6957
   42CHL1   C16 4235   1.142   3.141   5.637  0.0787 -0.0545  0.1316
   42CHL1  H16A 4236   1.228   3.161   5.570 -0.5123  1.2201 -0.2731
   42CHL1  H16B 4237   1.089   3.052   5.596  1.5172 -1.0517  0.3781
   42CHL1   C17 4238   1.047   3.266   5.641 -0.5271  0.1599  0.1041
   42CHL1   H17 4239   0.947   3.222   5.659 -0.2202  0.1143  1.9427
   42CHL1   C13 4240   1.084   3.325   5.780 -1.0632 -0.5124  0.1242
   42CHL1   C18 4241   1.220   3.391   5.753 -0.2161  0.2082 -0.4073
   42CHL1  H18A 4242   1.273   3.430   5.843 -0.8195  0.9320 -0.3547
   42CHL1  H18B 4243   1.300   3.325   5.714  0.9208  0.1428  1.8651
   42CHL1  H18C 4244   1.203   3.477   5.685 -0.3922  0.6520  0.1836
   42CHL1   C12 4245   0.989   3.426   5.843  0.1412  0.0900 -0.2184
   42CHL1  H12A 4246   1.004   3.518   5.782  1.5045  0.2760  0.3787
   42CHL1  H12B 4247   0.882   3.394   5.839 -0.1632  0.5459  2.3629
   42CHL1   C11 4248   1.034   3.460   5.985 -0.5116  0.5408 -0.6977
   42CHL1  H11A 4249   1.123   3.526   5.982 -1.1529  1.4745  0.1928
   42CHL1  H11B 4250   0.962   3.524   6.041  1.2438  1.2224  0.9101
   42CHL1    C9 4251   1.059   3.334   6.080 -0.4824  0.2483 -0.4599
   42CHL1    H9 4252   0.963   3.279   6.095  0.2972 -1.2058 -0.5995
   42CHL1   C10 4253   1.116   3.365   6.223  0.5309 -1.4848 -0.5705
   42CHL1   C19 4254   1.233   3.458   6.205  0.0401 -0.4923  0.0416
   42CHL1  H19A 4255   1.209   3.562   6.171  0.0288 -0.5699 -0.1935
   42CHL1  H19B 4256   1.284   3.479   6.301 -0.7814  1.7234  0.0560
   42CHL1  H19C 4257   1.320   3.413   6.153  1.1041  1.7570 -0.2799
   42CHL1    C1 4258   0.999   3.427   6.303  0.2839 -1.7030  0.2425
   42CHL1   H1A 4259   0.960   3.520   6.257  0.7014 -1.7342 -0.1790
   42CHL1   H1B 4260   0.908   3.363   6.308 -0.6297 -0.5853 -1.3587
   42CHL1    C2 4261   1.046   3.456   6.450 -0.2942 -0.6508  0.2751
   42CHL1   H2A 4262   0.966   3.503   6.512 -1.2549  0.0897 -1.4298
   42CHL1   H2B 4263   1.141   3.514   6.448  0.1765 -1.4115 -1.0414
   42CHL1   C20 4264   1.039   3.337   5.506 -0.3765  0.6762  0.7727
   42CHL1   H20 4265   1.126   3.402   5.481 -1.0847  0.9214 -1.2958
   42CHL1   C21 4266   0.917   3.432   5.507  0.0994  0.2266  0.2209
   42CHL1  H21A 4267   0.930   3.504   5.591  1.0505 -0.6472  0.8387
   42CHL1  H21B 4268   0.833   3.361   5.526  1.1486 -0.8062  1.1368
   42CHL1  H21C 4269   0.911   3.486   5.410  0.5054  0.2159  0.1905
   42CHL1   C22 4270   1.036   3.238   5.388  0.6623 -0.3618 -0.6329
   42CHL1  H22A 4271   1.142   3.211   5.369  0.1076 -1.9417 -1.6536
   42CHL1  H22B 4272   0.978   3.148   5.415  0.4207  0.4377  1.7412
   42CHL1   C23 4273   0.973   3.290   5.255  0.5410  1.0568  0.5230
   42CHL1  H23A 4274   0.863   3.306   5.262  0.2537 -0.6301  0.1893
   42CHL1  H23B 4275   1.018   3.390   5.236  2.3888  0.5194  1.8344
   42CHL1   C24 4276   0.993   3.192   5.135 -0.0767  1.0051 -0.4536
   42CHL1  H24A 4277   0.959   3.093   5.173  2.5844 -0.0873 -0.7229
   42CHL1  H24B 4278   0.925   3.221   5.052 -1.7694  0.7464  0.7982
   42CHL1   C25 4279   1.132   3.188   5.078  0.7393  0.0155 -0.1453
   42CHL1   H25 4280   1.201   3.165   5.162  1.1052  0.7028 -0.2503
   42CHL1   C26 4281   1.161   3.075   4.976  0.3147  0.2504  0.0808
   42CHL1  H26A 4282   1.121   3.089   4.874 -0.2780  1.0933  0.4183
   42CHL1  H26B 4283   1.271   3.070   4.962  0.9509  1.7310  3.4126
   42CHL1  H26C 4284   1.120   2.982   5.020 -0.6313 -0.2208 -1.7218
   42CHL1   C27 4285   1.173   3.323   5.015 -0.0191 -0.1409  0.0124
   42CHL1  H27A 4286   1.272   3.311   4.965  1.0969  2.5915  1.3600
   42CHL1  H27B 4287   1.108   3.359   4.933  1.9355  2.3899 -0.5362
   42CHL1  H27C 4288   1.177   3.403   5.091  3.6547 -1.5783  1.5749
   43CHL1    C3 4289   0.629   3.086   6.591 -0.8312  0.0639  0.0552
   43CHL1    H3 4290   0.524   3.050   6.604 -0.5514 -1.5764 -1.8480
   43CHL1    O3 4291   0.670   3.132   6.721 -0.6691  0.0876  0.1485
   43CHL1   H3' 4292   0.690   3.056   6.776  1.4705  0.6785  0.2774
   43CHL1    C4 4293   0.712   2.970   6.549  0.2472 -0.1328 -0.2775
   43CHL1   H4A 4294   0.820   2.997   6.557 -0.1406  1.0682  1.5996
   43CHL1   H4B 4295   0.691   2.890   6.624 -0.8536 -0.2195 -0.6681
   43CHL1    C5 4296   0.683   2.931   6.407  0.2364  0.1970  0.6834
   43CHL1    C6 4297   0.635   2.808   6.388  0.0779  0.1627 -0.1857
   43CHL1    H6 4298   0.637   2.746   6.479  1.5419  2.5503  1.5341
   43CHL1    C7 4299   0.605   2.759   6.252  0.4909  0.5485  0.2486
   43CHL1   H7A 4300   0.656   2.662   6.237  2.5396  1.8787 -2.3684
   43CHL1   H7B 4301   0.498   2.752   6.225  0.7570 -1.9925 -0.4145
   43CHL1    C8 4302   0.669   2.848   6.146 -0.4432 -0.9392  0.1811
   43CHL1    H8 4303   0.780   2.842   6.140 -0.4608 -0.0436 -1.8578
   43CHL1   C14 4304   0.617   2.814   6.000 -0.2471  0.2314 -0.1690
   43CHL1   H14 4305   0.507   2.829   5.996 -0.6355 -2.2642 -3.8792
   43CHL1   C15 4306   0.631   2.667   5.946  0.0240  0.1436 -0.6295
   43CHL1  H15A 4307   0.739   2.642   5.958  0.6578  2.9169  0.2242
   43CHL1  H15B 4308   0.567   2.596   6.003 -0.3830 -0.4494 -1.7923
   43CHL1   C16 4309   0.601   2.686   5.797  0.7164  0.3168 -0.0411
   43CHL1  H16A 4310   0.668   2.621   5.736 -0.4233  1.9185 -3.1943
   43CHL1  H16B 4311   0.499   2.646   5.779  0.8921  0.8416 -2.5470
   43CHL1   C17 4312   0.594   2.838   5.768 -0.0249  0.0455  0.4790
   43CHL1   H17 4313   0.487   2.870   5.765 -0.5130 -1.5028  0.5373
   43CHL1   C13 4314   0.660   2.910   5.891 -0.3178  0.2336 -0.4960
   43CHL1   C18 4315   0.819   2.909   5.878 -0.4521  0.4166  1.1466
   43CHL1  H18A 4316   0.844   2.992   5.808 -3.1715 -0.4394 -0.9849
   43CHL1  H18B 4317   0.867   2.924   5.977  1.8338  3.7274 -0.2610
   43CHL1  H18C 4318   0.858   2.816   5.831  1.3905  0.6955  2.0180
   43CHL1   C12 4319   0.604   3.050   5.924 -0.3154  0.8515  0.1985
   43CHL1  H12A 4320   0.637   3.125   5.849  0.8104  0.0907 -0.1009
   43CHL1  H12B 4321   0.493   3.049   5.913 -0.3692 -0.3299  0.7031
   43CHL1   C11 4322   0.668   3.104   6.048  0.2607  0.6339  0.3044
   43CHL1  H11A 4323   0.778   3.108   6.034  0.5375 -2.1801  1.1057
   43CHL1  H11B 4324   0.624   3.206   6.058 -1.8638  0.1547 -2.4739
   43CHL1    C9 4325   0.643   2.999   6.172 -0.3538  0.1592 -0.0319
   43CHL1    H9 4326   0.532   2.998   6.179 -0.3260 -2.3240  1.0347
   43CHL1   C10 4327   0.696   3.037   6.305  0.1309 -0.4865 -0.8405
   43CHL1   C19 4328   0.854   3.062   6.293 -0.0717 -0.0886  0.3357
   43CHL1  H19A 4329   0.916   2.982   6.247 -3.1090  0.0934 -4.8637
   43CHL1  H19B 4330   0.861   3.150   6.226 -0.2869  0.6958  1.3209
   43CHL1  H19C 4331   0.892   3.105   6.388 -0.1113 -1.0490  0.8047
   43CHL1    C1 4332   0.624   3.165   6.351 -0.8041  0.0463 -1.1268
   43CHL1   H1A 4333   0.651   3.250   6.285 -0.7777  0.1810 -0.9430
   43CHL1   H1B 4334   0.516   3.143   6.339 -0.6145 -2.0196  0.3814
   43CHL1    C2 4335   0.647   3.207   6.500 -0.4502 -0.0895  0.3310
   43CHL1   H2A 4336   0.581   3.292   6.529  0.8233  1.9991 -2.4530
   43CHL1   H2B 4337   0.748   3.251   6.510 -1.1131  2.6089 -2.8610
   43CHL1   C20 4338   0.650   2.872   5.626  0.0599 -1.0129  0.2434
   43CHL1   H20 4339   0.760   2.858   5.631  0.0312 -1.0786  0.7788
   43CHL1   C21 4340   0.615   3.029   5.595 -0.3499 -0.0990  0.2127
   43CHL1  H21A 4341   0.506   3.048   5.604 -0.5817 -1.2026 -0.0131
   43CHL1  H21B 4342   0.646   3.037   5.488 -0.6510 -0.5623  0.0833
   43CHL1  H21C 4343   0.676   3.097   5.658 -0.2114 -2.1578  2.4203
   43CHL1   C22 4344   0.586   2.786   5.515 -0.3669  0.1320 -0.0333
   43CHL1  H22A 4345   0.599   2.679   5.540  0.2556 -0.1973 -1.5982
   43CHL1  H22B 4346   0.478   2.806   5.501 -0.5177 -1.2739 -1.0359
   43CHL1   C23 4347   0.649   2.799   5.368 -0.0983  0.4768 -0.0506
   43CHL1  H23A 4348   0.636   2.897   5.317 -0.8534 -0.5754 -1.9890
   43CHL1  H23B 4349   0.759   2.787   5.374 -0.0940  1.0793  1.4113
   43CHL1   C24 4350   0.591   2.699   5.263 -0.1312  0.3045 -0.2377
   43CHL1  H24A 4351   0.613   2.598   5.303  2.0694  0.5810 -0.6600
   43CHL1  H24B 4352   0.480   2.712   5.261 -0.6256 -3.0010 -0.8303
   43CHL1   C25 4353   0.666   2.696   5.131  0.1630  0.2668  0.5722
   43CHL1   H25 4354   0.762   2.642   5.135 -0.7762 -1.5444 -0.2350
   43CHL1   C26 4355   0.564   2.612   5.046  0.7823 -0.2260  0.1956
   43CHL1  H26A 4356   0.603   2.597   4.943 -2.6608  0.3437 -1.3422
   43CHL1  H26B 4357   0.535   2.519   5.099 -1.3373  0.1212 -0.2618
   43CHL1  H26C 4358   0.469   2.669   5.035 -0.2243 -2.0959 -1.5231
   43CHL1   C27 4359   0.690   2.838   5.075 -0.2108 -0.6800 -0.7010
   43CHL1  H27A 4360   0.762   2.901   5.131  0.9826 -0.7452 -2.0855
   43CHL1  H27B 4361   0.728   2.833   4.971 -0.3395  1.9731 -0.9426
   43CHL1  H27C 4362   0.596   2.897   5.068  0.8492  0.9777 -1.4797
   44CHL1    C3 4363   1.261   4.259   6.621 -0.0769  0.2980  0.0449
   44CHL1    H3 4364   1.157   4.289   6.646  0.2828  1.9488 -0.2709
   44CHL1    O3 4365   1.332   4.278   6.741  0.1313 -0.3687  0.7204
   44CHL1   H3' 4366   1.390   4.202   6.752 -0.0566 -0.4205  1.4284
   44CHL1    C4 4367   1.274   4.114   6.594  0.6842 -1.0443 -0.7500
   44CHL1   H4A 4368   1.382   4.085   6.593  1.9930  2.5512  3.3921
   44CHL1   H4B 4369   1.229   4.061   6.680 -0.8862  2.6456  0.9138
   44CHL1    C5 4370   1.212   4.068   6.464 -0.1819  0.1753 -1.0012
   44CHL1    C6 4371   1.107   3.981   6.462 -0.6224  0.2088 -0.0851
   44CHL1    H6 4372   1.082   3.930   6.557  0.8045  0.1584  0.3029
   44CHL1    C7 4373   1.031   3.948   6.335 -0.2784 -0.3141 -0.0387
   44CHL1   H7A 4374   0.994   3.845   6.319 -3.3518  0.8653 -1.3130
   44CHL1   H7B 4375   0.939   4.011   6.334  0.5983  1.0661  1.3277
   44CHL1    C8 4376   1.112   3.988   6.204  0.0729  0.5192  0.6594
   44CHL1    H8 4377   1.197   3.918   6.189 -1.2308 -0.7319 -1.3492
   44CHL1   C14 4378   1.022   3.986   6.087 -0.7928  0.4237  0.4697
   44CHL1   H14 4379   0.929   4.046   6.096 -0.7375  1.3756 -3.4011
   44CHL1   C15 4380   0.963   3.843   6.061  0.5148 -0.3171  0.6067
   44CHL1  H15A 4381   1.036   3.760   6.069  1.0345 -0.0723 -1.1826
   44CHL1  H15B 4382   0.879   3.812   6.127 -0.1443 -1.9943 -0.9494
   44CHL1   C16 4383   0.921   3.855   5.914 -0.0200  0.3799 -0.1351
   44CHL1  H16A 4384   0.949   3.761   5.863  0.1106  0.0743  0.4926
   44CHL1  H16B 4385   0.811   3.866   5.905 -0.0233  0.7287  0.2664
   44CHL1   C17 4386   0.978   3.983   5.854  0.1035 -0.0513 -0.0299
   44CHL1   H17 4387   0.900   4.063   5.856  0.6478  0.4712  0.8173
   44CHL1   C13 4388   1.087   4.033   5.957 -0.8603  0.2685 -0.3163
   44CHL1   C18 4389   1.219   3.958   5.922  0.0826  0.2209  0.1636
   44CHL1  H18A 4390   1.193   3.851   5.916  0.3167  0.1421  0.5680
   44CHL1  H18B 4391   1.271   3.989   5.828  0.3653  0.4993  0.4095
   44CHL1  H18C 4392   1.289   3.983   6.004  0.9886  0.4877 -0.6635
   44CHL1   C12 4393   1.101   4.187   5.975  0.8010  0.5202 -0.0160
   44CHL1  H12A 4394   1.134   4.236   5.881  1.0316 -5.0210 -3.2823
   44CHL1  H12B 4395   1.001   4.229   5.999  0.7027  1.1072 -1.3560
   44CHL1   C11 4396   1.196   4.210   6.093  0.5935  0.4089 -0.0917
   44CHL1  H11A 4397   1.303   4.203   6.065  0.3389 -0.7909 -0.7977
   44CHL1  H11B 4398   1.179   4.319   6.110 -1.6402 -0.0639  1.1854
   44CHL1    C9 4399   1.156   4.133   6.221  0.2136  0.9445 -0.4745
   44CHL1    H9 4400   1.064   4.187   6.254 -0.6872 -1.1968  0.7194
   44CHL1   C10 4401   1.251   4.146   6.338  0.2020  0.7055  0.0305
   44CHL1   C19 4402   1.398   4.102   6.300 -0.0090 -0.8954 -0.2248
   44CHL1  H19A 4403   1.475   4.123   6.377  0.1560 -0.4492 -0.5008
   44CHL1  H19B 4404   1.411   3.996   6.269  0.6102 -1.0373  0.4918
   44CHL1  H19C 4405   1.435   4.157   6.210 -2.2828  0.8896 -0.1595
   44CHL1    C1 4406   1.255   4.293   6.382  0.0281  0.1104 -0.5608
   44CHL1   H1A 4407   1.304   4.348   6.298 -1.8249 -0.1403 -1.8773
   44CHL1   H1B 4408   1.152   4.333   6.382  0.3725  1.0375  0.6021
   44CHL1    C2 4409   1.325   4.336   6.519 -0.1112  0.1306  0.7139
   44CHL1   H2A 4410   1.321   4.446   6.530 -1.4102  0.2110 -0.2317
   44CHL1   H2B 4411   1.431   4.304   6.512  0.1283  0.5689  2.2210
   44CHL1   C20 4412   1.018   3.968   5.704 -0.1669 -0.1452 -0.1928
   44CHL1   H20 4413   1.090   3.884   5.687  0.5479  0.7242 -1.6625
   44CHL1   C21 4414   1.088   4.103   5.659  0.2001 -0.0260  0.1145
   44CHL1  H21A 4415   1.015   4.186   5.662 -0.5078 -0.6445  0.3618
   44CHL1  H21B 4416   1.119   4.100   5.552  0.8775 -1.5187  0.3260
   44CHL1  H21C 4417   1.176   4.138   5.716  1.2670 -0.4935 -1.1845
   44CHL1   C22 4418   0.895   3.925   5.608  0.3309  0.4100  0.1314
   44CHL1  H22A 4419   0.854   3.829   5.645 -1.5314  0.8097 -0.7766
   44CHL1  H22B 4420   0.810   3.997   5.612  0.2357  0.2375  2.4237
   44CHL1   C23 4421   0.934   3.897   5.466 -0.8913 -0.3110  0.5377
   44CHL1  H23A 4422   0.972   3.990   5.418  0.8069 -0.9357  0.5974
   44CHL1  H23B 4423   1.021   3.829   5.466 -0.5594  0.1071  0.2584
   44CHL1   C24 4424   0.822   3.830   5.385 -0.4490 -0.2652  0.1649
   44CHL1  H24A 4425   0.784   3.731   5.419  0.2033 -1.1128 -1.4643
   44CHL1  H24B 4426   0.735   3.899   5.394 -1.5487 -1.3753 -1.4163
   44CHL1   C25 4427   0.845   3.818   5.231  0.0619  0.4945  0.3913
   44CHL1   H25 4428   0.769   3.744   5.199  0.9483  0.2196 -1.1586
   44CHL1   C26 4429   0.835   3.953   5.156  0.0599  1.6234  0.4947
   44CHL1  H26A 4430   0.935   4.000   5.169  0.3890  1.5984 -1.5993
   44CHL1  H26B 4431   0.818   3.937   5.048  1.6384  3.1038 -0.0216
   44CHL1  H26C 4432   0.759   4.014   5.211 -0.8650 -0.4722  1.6630
   44CHL1   C27 4433   0.978   3.748   5.191  0.1541 -0.2761 -0.4821
   44CHL1  H27A 4434   1.062   3.821   5.192 -0.9661  1.0613  0.1186
   44CHL1  H27B 4435   0.999   3.661   5.258 -2.3438 -1.4729 -1.1372
   44CHL1  H27C 4436   0.960   3.717   5.086 -0.9544 -1.5490  0.0462
   45CHL1    C3 4437   1.259   6.735   6.162 -0.1182  0.2179 -0.7904
   45CHL1    H3 4438   1.323   6.660   6.112  0.3414  1.2593 -1.8256
   45CHL1    O3 4439   1.288   6.760   6.302  0.1347 -0.0587  0.4383
   45CHL1   H3' 4440   1.215   6.817   6.327  0.0531 -0.0395  0.1628
   45CHL1    C4 4441   1.282   6.860   6.068  0.3918  0.2143 -0.0434
   45CHL1   H4A 4442   1.237   6.952   6.112  2.0103  0.9976  0.0645
   45CHL1   H4B 4443   1.393   6.873   6.070  0.4233 -0.0048  1.7721
   45CHL1    C5 4444   1.212   6.841   5.937  0.3614 -0.3042 -0.2285
   45CHL1    C6 4445   1.277   6.854   5.823 -0.4228 -0.4160  0.9414
   45CHL1    H6 4446   1.386   6.868   5.828  0.4118 -3.7023 -3.1166
   45CHL1    C7 4447   1.213   6.847   5.689  0.1857  0.1122  0.2471
   45CHL1   H7A 4448   1.243   6.932   5.623 -2.0941 -1.1116 -2.5885
   45CHL1   H7B 4449   1.241   6.752   5.638 -1.4880  0.9137 -2.4033
   45CHL1    C8 4450   1.061   6.855   5.693  0.3484  0.6189 -0.6288
   45CHL1    H8 4451   1.039   6.963   5.706 -0.2967  0.1943  2.6141
   45CHL1   C14 4452   1.010   6.803   5.558  0.0346 -0.5431 -0.5607
   45CHL1   H14 4453   1.039   6.696   5.551 -0.2275 -0.5784 -1.1732
   45CHL1   C15 4454   1.082   6.864   5.432  0.4284 -0.5755 -0.0159
   45CHL1  H15A 4455   1.095   6.973   5.449 -0.1189 -0.5398  0.1869
   45CHL1  H15B 4456   1.174   6.809   5.404 -0.8780 -2.3053 -1.0885
   45CHL1   C16 4457   0.984   6.840   5.319  0.4986 -0.1748  0.3348
   45CHL1  H16A 4458   0.958   6.931   5.260  1.7669 -0.6666 -1.0536
   45CHL1  H16B 4459   1.016   6.758   5.251 -0.8443 -0.7477  0.3658
   45CHL1   C17 4460   0.851   6.776   5.390 -0.0908  0.4020 -0.5005
   45CHL1   H17 4461   0.861   6.665   5.387 -0.0538  0.3689  0.5541
   45CHL1   C13 4462   0.870   6.818   5.534  0.3273  0.1765  0.2341
   45CHL1   C18 4463   0.820   6.968   5.547  0.4895 -0.4617  0.5758
   45CHL1  H18A 4464   0.844   7.002   5.650  1.8397 -0.8448  0.4193
   45CHL1  H18B 4465   0.880   7.030   5.477 -1.0837  0.8242  0.3304
   45CHL1  H18C 4466   0.711   6.984   5.534  0.9205  0.6382 -2.3580
   45CHL1   C12 4467   0.791   6.725   5.639  0.3613 -0.5428 -0.1274
   45CHL1  H12A 4468   0.680   6.727   5.642  0.3002  2.6577 -0.7575
   45CHL1  H12B 4469   0.821   6.622   5.612 -0.4089 -1.0611  0.9123
   45CHL1   C11 4470   0.839   6.759   5.783 -0.5069  0.3702 -0.8338
   45CHL1  H11A 4471   0.792   6.857   5.804 -0.5655  0.3351 -0.8016
   45CHL1  H11B 4472   0.801   6.691   5.862  1.0481 -1.5496 -1.6429
   45CHL1    C9 4473   0.998   6.768   5.800 -0.5786 -0.3394  0.2036
   45CHL1    H9 4474   1.039   6.666   5.781 -1.5846 -0.6680 -0.2507
   45CHL1   C10 4475   1.057   6.800   5.940 -0.6919  0.4557  0.6221
   45CHL1   C19 4476   0.971   6.917   6.000  0.1962  0.3462 -0.6597
   45CHL1  H19A 4477   1.017   6.978   6.081  0.2659 -0.9955  0.3363
   45CHL1  H19B 4478   0.942   6.981   5.914  1.5037 -0.5825 -1.8369
   45CHL1  H19C 4479   0.882   6.868   6.044  0.0194  1.0566 -0.2051
   45CHL1    C1 4480   1.048   6.675   6.030 -0.4355 -0.1122 -0.0180
   45CHL1   H1A 4481   0.947   6.637   6.055 -0.1223 -0.0573  1.4756
   45CHL1   H1B 4482   1.101   6.594   5.976  0.3530  0.4140 -0.0493
   45CHL1    C2 4483   1.113   6.696   6.169 -0.6360 -0.7317 -0.9482
   45CHL1   H2A 4484   1.092   6.613   6.240  1.9330  1.7019  3.0662
   45CHL1   H2B 4485   1.059   6.785   6.207  1.5661  1.9658 -3.6047
   45CHL1   C20 4486   0.727   6.810   5.313  1.2588  0.4883  0.2496
   45CHL1   H20 4487   0.697   6.917   5.316 -1.3358 -0.1814  0.2753
   45CHL1   C21 4488   0.604   6.729   5.376 -0.0833 -0.0125 -0.1922
   45CHL1  H21A 4489   0.624   6.620   5.379  1.7519  0.2537 -1.5259
   45CHL1  H21B 4490   0.511   6.752   5.319  0.0331 -1.1112 -0.8415
   45CHL1  H21C 4491   0.592   6.777   5.475 -0.5159 -0.1014 -0.1975
   45CHL1   C22 4492   0.735   6.773   5.157 -0.8262 -0.0424  0.3182
   45CHL1  H22A 4493   0.777   6.861   5.105 -2.3303  0.3192 -0.3416
   45CHL1  H22B 4494   0.791   6.678   5.142 -0.8976  0.2457 -2.1506
   45CHL1   C23 4495   0.599   6.769   5.088 -0.3416 -0.4936  0.3784
   45CHL1  H23A 4496   0.559   6.670   5.121 -1.6878 -0.1890 -0.2736
   45CHL1  H23B 4497   0.536   6.846   5.137  1.6159 -0.2807  2.7264
   45CHL1   C24 4498   0.614   6.785   4.934 -0.3842 -0.9194 -0.9818
   45CHL1  H24A 4499   0.676   6.872   4.902  0.9528 -1.3728  0.2418
   45CHL1  H24B 4500   0.666   6.691   4.908 -1.7467 -1.7055 -0.9177
   45CHL1   C25 4501   0.490   6.798   4.850 -0.4414 -0.3404  0.2315
   45CHL1   H25 4502   0.412   6.732   4.893  0.5986 -2.0199 -0.3570
   45CHL1   C26 4503   0.438   6.938   4.848  0.7217  1.1693 -0.3508
   45CHL1  H26A 4504   0.418   6.976   4.951 -0.8963  0.4669 -0.3830
   45CHL1  H26B 4505   0.524   6.999   4.812  1.0249  0.5607 -0.6549
   45CHL1  H26C 4506   0.348   6.946   4.785  0.2751  2.3041  0.3778
   45CHL1   C27 4507   0.521   6.755   4.704 -0.4641 -0.6204 -0.1673
   45CHL1  H27A 4508   0.533   6.645   4.702 -2.0042 -0.8312  0.3845
   45CHL1  H27B 4509   0.437   6.796   4.643 -0.4458  0.9337  0.7829
   45CHL1  H27C 4510   0.615   6.797   4.662 -0.8706  0.3904 -0.1156
   46CHL1    C3 4511   4.058   0.741   6.189 -0.7198  0.0955  0.3892
   46CHL1    H3 4512   4.166   0.754   6.165 -0.4835 -0.9221  0.8648
   46CHL1    O3 4513   4.043   0.746   6.326  0.6333  0.4252 -0.7173
   46CHL1   H3' 4514   3.949   0.759   6.341  0.8517 -0.2279  1.7224
   46CHL1    C4 4515   3.987   0.856   6.120  0.1173  0.4916  0.4076
   46CHL1   H4A 4516   3.880   0.843   6.149  0.2782  0.9628  1.2392
   46CHL1   H4B 4517   4.019   0.954   6.162  0.6599  0.9106 -0.9309
   46CHL1    C5 4518   4.010   0.841   5.972 -0.0445 -0.3474  0.8394
   46CHL1    C6 4519   4.068   0.937   5.903  0.0998 -0.0770 -0.8573
   46CHL1    H6 4520   4.088   1.032   5.955 -2.2790  0.0446 -0.0367
   46CHL1    C7 4521   4.100   0.944   5.758  0.3916 -0.6856  0.1325
   46CHL1   H7A 4522   4.065   1.041   5.715  0.5505 -0.3488  0.7516
   46CHL1   H7B 4523   4.206   0.916   5.741  0.5859  0.2654 -0.2769
   46CHL1    C8 4524   4.024   0.832   5.689  0.2017 -0.1023 -0.3513
   46CHL1    H8 4525   3.919   0.866   5.682  0.1627  0.0655  0.7856
   46CHL1   C14 4526   4.090   0.812   5.556 -0.2930  0.0466  0.8598
   46CHL1   H14 4527   4.192   0.774   5.577 -0.6466  0.0028  2.7513
   46CHL1   C15 4528   4.114   0.943   5.460 -0.4699  0.7100 -0.0477
   46CHL1  H15A 4529   4.032   1.018   5.460 -1.1177  0.0939 -2.7244
   46CHL1  H15B 4530   4.215   0.980   5.490 -0.5735 -0.8864  2.6098
   46CHL1   C16 4531   4.129   0.878   5.320  0.8246  0.5452  0.0957
   46CHL1  H16A 4532   4.048   0.906   5.249 -0.3352 -2.1631  0.2433
   46CHL1  H16B 4533   4.225   0.914   5.277  0.7908 -0.4629 -0.8557
   46CHL1   C17 4534   4.112   0.722   5.338 -0.1580  0.2670  0.0790
   46CHL1   H17 4535   4.211   0.678   5.364 -0.0577 -0.8100 -1.8670
   46CHL1   C13 4536   4.027   0.709   5.461  0.6731  0.3276 -0.1159
   46CHL1   C18 4537   3.881   0.755   5.419  0.0802 -0.0472 -0.3803
   46CHL1  H18A 4538   3.881   0.863   5.394 -1.3506  0.2183  0.6233
   46CHL1  H18B 4539   3.828   0.688   5.348 -1.0050 -3.0053  2.9134
   46CHL1  H18C 4540   3.828   0.757   5.517  0.8634  3.5127  0.0905
   46CHL1   C12 4541   4.042   0.568   5.535  0.8803 -0.6161  0.3594
   46CHL1  H12A 4542   3.980   0.490   5.486 -1.0661  0.4970  0.9304
   46CHL1  H12B 4543   4.148   0.538   5.524  1.5405  1.5890  0.2120
   46CHL1   C11 4544   3.995   0.573   5.679 -0.1163 -0.6284 -0.0857
   46CHL1  H11A 4545   3.884   0.577   5.666 -0.4647  0.2332  2.5039
   46CHL1  H11B 4546   4.014   0.477   5.733 -1.8922 -0.1308  1.5514
   46CHL1    C9 4547   4.037   0.696   5.765  0.3462 -0.0050  0.4283
   46CHL1    H9 4548   4.146   0.687   5.785  0.2590 -1.9389  0.1974
   46CHL1   C10 4549   3.973   0.706   5.905  0.0262  0.6042 -0.6418
   46CHL1   C19 4550   3.821   0.684   5.891  0.0362 -0.4483  0.2914
   46CHL1  H19A 4551   3.798   0.578   5.868 -1.5395 -0.3563  1.2993
   46CHL1  H19B 4552   3.779   0.712   5.990  0.0129 -0.0384  0.1693
   46CHL1  H19C 4553   3.777   0.747   5.811 -1.8707 -0.8883  0.9337
   46CHL1    C1 4554   4.036   0.590   5.986  0.3022  0.3321  0.1705
   46CHL1   H1A 4555   3.975   0.501   5.958 -0.9080  0.6289  1.7276
   46CHL1   H1B 4556   4.143   0.570   5.964 -0.3887 -3.6915 -0.3166
   46CHL1    C2 4557   4.014   0.600   6.136  0.0087 -0.0144 -0.4556
   46CHL1   H2A 4558   4.061   0.514   6.189 -0.3355 -0.3062 -0.6181
   46CHL1   H2B 4559   3.908   0.598   6.167 -0.3176 -0.1884 -1.5275
   46CHL1   C20 4560   4.075   0.646   5.213  0.2545  0.2424  0.1628
   46CHL1   H20 4561   3.969   0.660   5.184  0.2624 -0.8909 -0.4952
   46CHL1   C21 4562   4.093   0.493   5.230  0.1695 -0.6555 -0.3895
   46CHL1  H21A 4563   4.180   0.467   5.294 -1.8943 -0.4694  2.7461
   46CHL1  H21B 4564   4.095   0.443   5.131 -1.9765 -0.9889 -0.3239
   46CHL1  H21C 4565   4.007   0.453   5.288  0.0417 -0.8744 -0.7334
   46CHL1   C22 4566   4.160   0.694   5.079  0.3866 -0.0700 -0.0691
   46CHL1  H22A 4567   4.177   0.804   5.077  0.5309 -0.1066 -1.5225
   46CHL1  H22B 4568   4.263   0.652   5.083  1.4629  2.1535 -2.0177
   46CHL1   C23 4569   4.098   0.655   4.942 -0.2738 -0.8154 -0.0350
   46CHL1  H23A 4570   4.100   0.544   4.936 -1.3333 -0.8583  0.2219
   46CHL1  H23B 4571   3.997   0.701   4.939  1.4044  3.1914 -0.9368
   46CHL1   C24 4572   4.175   0.716   4.822  0.1455 -0.4688 -0.1844
   46CHL1  H24A 4573   4.190   0.825   4.829 -0.4115 -0.2757 -1.5477
   46CHL1  H24B 4574   4.268   0.655   4.817  0.0775 -0.5789 -0.1081
   46CHL1   C25 4575   4.090   0.699   4.687 -0.6226 -0.5910  0.0945
   46CHL1   H25 4576   3.985   0.732   4.703  0.1038  1.9584  0.1839
   46CHL1   C26 4577   4.156   0.782   4.562 -0.3875  0.0117  0.1816
   46CHL1  H26A 4578   4.090   0.766   4.473 -0.5476  0.5508  0.1960
   46CHL1  H26B 4579   4.164   0.891   4.581 -1.3023  0.3021 -0.9847
   46CHL1  H26C 4580   4.254   0.738   4.533 -0.5165 -1.1601  1.4185
   46CHL1   C27 4581   4.081   0.547   4.647  0.5767  0.2816  0.2791
   46CHL1  H27A 4582   4.024   0.545   4.551  1.3314  3.1192 -0.3210
   46CHL1  H27B 4583   4.184   0.508   4.633  0.3906 -0.1740  0.1383
   46CHL1  H27C 4584   4.037   0.479   4.723  0.3355 -0.7431 -0.7506
   47CHL1    C3 4585   3.878   1.543   6.222  0.8173 -0.7788 -0.5370
   47CHL1    H3 4586   3.780   1.493   6.210 -0.5737  1.5064  0.5658
   47CHL1    O3 4587   3.893   1.571   6.359  0.1244 -0.0480 -0.1962
   47CHL1   H3' 4588   3.979   1.608   6.377 -0.5832  1.1236  0.9925
   47CHL1    C4 4589   4.003   1.459   6.183 -0.2189 -0.4162 -0.7642
   47CHL1   H4A 4590   4.086   1.517   6.228 -3.7526  2.1124  3.2459
   47CHL1   H4B 4591   4.002   1.360   6.234 -0.6993  0.4002  0.8947
   47CHL1    C5 4592   4.017   1.454   6.034 -0.4481 -0.2638 -0.2281
   47CHL1    C6 4593   4.027   1.335   5.973 -0.2275  0.3563  0.1163
   47CHL1    H6 4594   4.023   1.236   6.022 -0.0494 -0.5481 -1.5927
   47CHL1    C7 4595   4.058   1.325   5.827  0.5167  0.3287 -0.3767
   47CHL1   H7A 4596   4.144   1.254   5.818 -0.5682 -0.9417 -1.1580
   47CHL1   H7B 4597   3.973   1.281   5.769  1.4190 -0.6215 -1.0298
   47CHL1    C8 4598   4.094   1.460   5.764  0.0009  0.8118  0.2252
   47CHL1    H8 4599   4.203   1.473   5.784 -0.0258  1.5636 -0.0580
   47CHL1   C14 4600   4.079   1.444   5.621  0.4853 -0.2527  0.4777
   47CHL1   H14 4601   3.969   1.436   5.608  0.0484  1.0826  2.8605
   47CHL1   C15 4602   4.135   1.319   5.542 -0.6246  0.0317  0.7788
   47CHL1  H15A 4603   4.237   1.301   5.584  0.6032  0.3081 -1.8761
   47CHL1  H15B 4604   4.074   1.227   5.549  1.7278 -1.7204 -0.3196
   47CHL1   C16 4605   4.150   1.368   5.398 -0.6222  0.3542  0.1573
   47CHL1  H16A 4606   4.254   1.358   5.360 -0.6945  0.5022 -0.0837
   47CHL1  H16B 4607   4.087   1.300   5.336 -1.5125 -2.5357  3.8471
   47CHL1   C17 4608   4.103   1.514   5.393 -0.0240 -1.2074 -0.1620
   47CHL1   H17 4609   3.994   1.517   5.372  0.0445  0.6268 -0.4100
   47CHL1   C13 4610   4.124   1.559   5.545  0.4225 -0.0314  0.8692
   47CHL1   C18 4611   4.270   1.592   5.576 -0.6477 -0.1639  0.0501
   47CHL1  H18A 4612   4.292   1.638   5.674  0.2281  2.7266 -1.3778
   47CHL1  H18B 4613   4.335   1.503   5.580  0.6400  0.4684 -3.3203
   47CHL1  H18C 4614   4.319   1.663   5.506  1.5047 -1.5953  0.0198
   47CHL1   C12 4615   4.040   1.683   5.578  0.2277  0.0338  0.2035
   47CHL1  H12A 4616   4.071   1.771   5.518 -0.4347  0.8216  0.9803
   47CHL1  H12B 4617   3.937   1.663   5.539  0.1028  0.2347  0.4351
   47CHL1   C11 4618   4.032   1.704   5.729 -0.2215 -0.3772  0.8900
   47CHL1  H11A 4619   4.132   1.750   5.748  0.1529  0.5068 -2.5488
   47CHL1  H11B 4620   3.959   1.787   5.735  1.4363  1.1356  1.1551
   47CHL1    C9 4621   4.008   1.575   5.816  0.6502  0.1932  0.6328
   47CHL1    H9 4622   3.902   1.554   5.789  0.7118 -0.3431  0.8011
   47CHL1   C10 4623   4.009   1.594   5.962 -0.1484 -0.2937  0.1351
   47CHL1   C19 4624   4.138   1.671   6.011 -0.3939 -0.9268 -0.1441
   47CHL1  H19A 4625   4.135   1.777   5.979 -0.2077 -1.0303 -0.5111
   47CHL1  H19B 4626   4.152   1.676   6.121  0.4039  0.6085 -0.2921
   47CHL1  H19C 4627   4.231   1.621   5.976  0.4710 -1.0902  2.2013
   47CHL1    C1 4628   3.874   1.671   6.004  0.1377  0.3262  0.2090
   47CHL1   H1A 4629   3.872   1.768   5.950  2.2996 -0.7254 -1.9535
   47CHL1   H1B 4630   3.786   1.620   5.961 -0.4286  0.9436  0.6109
   47CHL1    C2 4631   3.857   1.682   6.153  0.6883 -0.4123 -0.1647
   47CHL1   H2A 4632   3.754   1.715   6.178 -0.9567 -4.5562 -0.8050
   47CHL1   H2B 4633   3.930   1.758   6.189 -0.5339  0.3377  0.8090
   47CHL1   C20 4634   4.154   1.597   5.277 -0.3860 -0.2850  0.4318
   47CHL1   H20 4635   4.133   1.704   5.303 -1.4199 -0.6839  1.3188
   47CHL1   C21 4636   4.073   1.553   5.155 -0.1023  0.4761  0.3471
   47CHL1  H21A 4637   3.964   1.550   5.175 -0.2006  1.6427  0.0575
   47CHL1  H21B 4638   4.097   1.447   5.128 -1.4603  0.4764 -1.0398
   47CHL1  H21C 4639   4.083   1.614   5.062  3.9464 -0.8908 -0.3279
   47CHL1   C22 4640   4.311   1.586   5.249  0.6064 -0.4945 -0.4061
   47CHL1  H22A 4641   4.382   1.566   5.332  0.5937 -0.4904 -0.3944
   47CHL1  H22B 4642   4.329   1.505   5.175  0.4215 -1.6949  0.8201
   47CHL1   C23 4643   4.366   1.712   5.183 -0.4663  0.5744  0.0756
   47CHL1  H23A 4644   4.285   1.747   5.116  1.6774  0.4867 -2.7270
   47CHL1  H23B 4645   4.376   1.787   5.265  3.3065 -1.3442  1.6028
   47CHL1   C24 4646   4.498   1.689   5.105 -0.2050 -0.1018 -0.0197
   47CHL1  H24A 4647   4.575   1.671   5.183 -1.3874  0.5630  1.3321
   47CHL1  H24B 4648   4.492   1.591   5.052 -0.4448  0.0318 -0.2421
   47CHL1   C25 4649   4.549   1.808   5.025 -0.2053  0.0667  0.3864
   47CHL1   H25 4650   4.491   1.833   4.934  2.6285  0.3866 -1.4418
   47CHL1   C26 4651   4.567   1.928   5.115 -0.0024 -0.5001 -0.0320
   47CHL1  H26A 4652   4.639   1.904   5.197 -0.5274 -0.1224  0.5466
   47CHL1  H26B 4653   4.608   2.015   5.060  0.0967 -0.5814 -0.0886
   47CHL1  H26C 4654   4.470   1.969   5.150 -0.3668 -0.4140 -1.1213
   47CHL1   C27 4655   4.685   1.777   4.961  0.5197  0.0664 -0.0829
   47CHL1  H27A 4656   4.759   1.747   5.039  1.2293  1.5903 -0.1245
   47CHL1  H27B 4657   4.667   1.697   4.886 -0.1537 -2.1481  2.2923
   47CHL1  H27C 4658   4.711   1.868   4.903 -1.1609  0.5390 -0.1488
   48CHL1    C3 4659   6.550   3.459   6.783 -0.9626  0.4760  0.1729
   48CHL1    H3 4660   6.474   3.378   6.790 -0.1354 -0.2360  1.2004
   48CHL1    O3 4661   6.581   3.507   6.912  0.0661 -0.0676 -0.4481
   48CHL1   H3' 4662   6.512   3.479   6.973  1.6659  1.6130  2.3357
   48CHL1    C4 4663   6.668   3.392   6.701 -0.0764 -0.5422  0.2295
   48CHL1   H4A 4664   6.752   3.460   6.675 -2.0556  1.6278 -0.8579
   48CHL1   H4B 4665   6.709   3.307   6.760 -0.7620 -2.1048 -1.4390
   48CHL1    C5 4666   6.632   3.347   6.567  0.4075 -0.1896  0.0321
   48CHL1    C6 4667   6.667   3.227   6.527  0.6395  0.2586 -0.2611
   48CHL1    H6 4668   6.719   3.158   6.595  1.1766  0.2582 -0.6639
   48CHL1    C7 4669   6.640   3.166   6.389 -0.2480  0.4304  0.0885
   48CHL1   H7A 4670   6.734   3.123   6.350 -0.9680  0.4977 -1.8700
   48CHL1   H7B 4671   6.567   3.082   6.393 -0.6550  0.6767 -1.3649
   48CHL1    C8 4672   6.610   3.282   6.297  0.0279  0.5701 -0.0376
   48CHL1    H8 4673   6.703   3.343   6.285  1.2809 -1.0627  1.0169
   48CHL1   C14 4674   6.561   3.223   6.166 -0.1770  0.1026 -0.5687
   48CHL1   H14 4675   6.466   3.171   6.191  1.0286 -1.4804  0.9456
   48CHL1   C15 4676   6.646   3.120   6.090  0.1842  0.0121  1.2383
   48CHL1  H15A 4677   6.752   3.152   6.086  0.5772 -1.0506  2.3866
   48CHL1  H15B 4678   6.635   3.020   6.138 -2.8702 -0.4123 -0.1035
   48CHL1   C16 4679   6.576   3.112   5.947  0.3667 -0.6100 -0.9075
   48CHL1  H16A 4680   6.656   3.102   5.871  1.0802 -0.5477 -0.1786
   48CHL1  H16B 4681   6.514   3.020   5.945  0.7052 -0.9586  1.3062
   48CHL1   C17 4682   6.483   3.234   5.938 -0.2563 -0.3352 -0.4214
   48CHL1   H17 4683   6.379   3.202   5.957  0.6151 -2.0128  1.8620
   48CHL1   C13 4684   6.516   3.328   6.057  0.2165  0.2284 -1.5964
   48CHL1   C18 4685   6.634   3.417   6.023  0.0430  0.3586  0.0341
   48CHL1  H18A 4686   6.616   3.500   5.951 -0.1206 -0.4824 -0.9176
   48CHL1  H18B 4687   6.682   3.452   6.117  3.1416 -1.6944 -0.6453
   48CHL1  H18C 4688   6.708   3.355   5.968  1.1638  1.8998 -0.2819
   48CHL1   C12 4689   6.403   3.408   6.116 -0.2085 -0.3809  0.5733
   48CHL1  H12A 4690   6.361   3.480   6.042 -0.2477 -0.7855  0.1978
   48CHL1  H12B 4691   6.314   3.348   6.145 -1.6722  1.3292 -0.2213
   48CHL1   C11 4692   6.438   3.475   6.245 -0.2971  0.0862  0.1233
   48CHL1  H11A 4693   6.511   3.557   6.229  0.5675 -1.1902 -3.6133
   48CHL1  H11B 4694   6.348   3.515   6.297 -0.7059 -1.2969  0.5324
   48CHL1    C9 4695   6.505   3.381   6.351 -0.4815  0.3215  0.1072
   48CHL1    H9 4696   6.424   3.312   6.382  1.1801 -1.7988 -0.1196
   48CHL1   C10 4697   6.557   3.445   6.481 -0.3266 -0.6296 -0.1467
   48CHL1   C19 4698   6.661   3.568   6.447 -0.3428  0.0761 -0.0748
   48CHL1  H19A 4699   6.619   3.668   6.419  1.4796  0.4743 -1.6112
   48CHL1  H19B 4700   6.717   3.589   6.540 -1.1319 -3.6523  1.4187
   48CHL1  H19C 4701   6.739   3.536   6.375 -0.1304 -1.1324  0.6782
   48CHL1    C1 4702   6.445   3.515   6.558  0.2686  0.3928 -0.0619
   48CHL1   H1A 4703   6.408   3.602   6.500 -0.3810  0.8295  0.9856
   48CHL1   H1B 4704   6.363   3.443   6.580 -0.6808  1.6810  0.7762
   48CHL1    C2 4705   6.484   3.564   6.699 -0.6152  0.5870  0.3756
   48CHL1   H2A 4706   6.394   3.591   6.758 -0.9888 -0.7857  0.4797
   48CHL1   H2B 4707   6.551   3.653   6.700 -0.1719  0.2634 -0.0500
   48CHL1   C20 4708   6.481   3.296   5.794  0.1116  0.6521 -0.0044
   48CHL1   H20 4709   6.584   3.336   5.780 -0.2637  0.7805 -2.7522
   48CHL1   C21 4710   6.380   3.411   5.778  0.2115  0.2293 -0.3346
   48CHL1  H21A 4711   6.389   3.455   5.676  1.9115  0.8645  0.0548
   48CHL1  H21B 4712   6.277   3.376   5.801 -0.0021  2.7961  3.3719
   48CHL1  H21C 4713   6.397   3.496   5.847  2.5445  0.1489 -0.7328
   48CHL1   C22 4714   6.459   3.191   5.683 -0.9031 -0.4323  0.5414
   48CHL1  H22A 4715   6.538   3.114   5.696  0.9110  1.3082  0.2869
   48CHL1  H22B 4716   6.361   3.140   5.691 -0.8410 -0.7568 -0.5609
   48CHL1   C23 4717   6.473   3.244   5.541 -0.0819  0.2008  0.1203
   48CHL1  H23A 4718   6.370   3.278   5.518 -0.7388 -0.1979  2.2581
   48CHL1  H23B 4719   6.552   3.320   5.523  1.0205 -0.6570  1.1776
   48CHL1   C24 4720   6.501   3.123   5.447 -0.0040  0.4937  0.8895
   48CHL1  H24A 4721   6.591   3.083   5.499  1.8023  1.2863 -1.4548
   48CHL1  H24B 4722   6.415   3.053   5.447 -0.0394  0.5276 -0.1289
   48CHL1   C25 4723   6.524   3.155   5.294  0.2486 -0.7752  0.3665
   48CHL1   H25 4724   6.420   3.178   5.263  0.7916 -0.8726 -1.6746
   48CHL1   C26 4725   6.620   3.272   5.260  0.4853  0.0256 -0.4174
   48CHL1  H26A 4726   6.622   3.298   5.152 -0.3962  0.1384 -0.4178
   48CHL1  H26B 4727   6.575   3.353   5.322 -1.3006 -0.9719 -0.3535
   48CHL1  H26C 4728   6.721   3.250   5.300  0.4631  1.6586  0.6702
   48CHL1   C27 4729   6.564   3.026   5.206  0.3778  0.2521 -0.2667
   48CHL1  H27A 4730   6.532   3.038   5.101  2.0195  0.9494 -0.7254
   48CHL1  H27B 4731   6.675   3.018   5.213  0.4672  1.1315 -0.5310
   48CHL1  H27C 4732   6.528   2.927   5.242  0.3191  0.4128  0.1173
   49CHL1    C3 4733   5.485   0.434   3.328 -0.2388 -0.9068 -0.0521
   49CHL1    H3 4734   5.576   0.373   3.346  1.8587  1.9835 -0.0844
   49CHL1    O3 4735   5.523   0.516   3.216 -0.2989  0.3559  0.5628
   49CHL1   H3' 4736   5.442   0.549   3.175 -2.1932 -1.4384  2.5525
   49CHL1    C4 4737   5.357   0.352   3.305 -0.8772 -0.0650  0.2184
   49CHL1   H4A 4738   5.277   0.419   3.265 -1.7734 -2.7574 -2.8976
   49CHL1   H4B 4739   5.365   0.283   3.219 -1.5522  0.4231 -0.2488
   49CHL1    C5 4740   5.296   0.295   3.431 -0.0193  0.0388  0.3982
   49CHL1    C6 4741   5.271   0.163   3.444 -1.0911 -0.4725  0.2180
   49CHL1    H6 4742   5.319   0.094   3.373 -2.5758  0.3193 -1.6580
   49CHL1    C7 4743   5.192   0.099   3.555 -0.2635 -0.1382  0.0501
   49CHL1   H7A 4744   5.112   0.036   3.510 -1.3752  1.7765 -0.7865
   49CHL1   H7B 4745   5.262   0.043   3.620 -0.9057 -1.4734 -0.3784
   49CHL1    C8 4746   5.127   0.214   3.637  1.0378 -0.2451 -0.4087
   49CHL1    H8 4747   5.034   0.244   3.584  1.2988 -0.2313 -0.8614
   49CHL1   C14 4748   5.076   0.159   3.767 -0.3717 -0.1533 -0.3492
   49CHL1   H14 4749   5.165   0.133   3.828 -0.3042  1.1384  0.1399
   49CHL1   C15 4750   4.988   0.027   3.763 -0.2083 -0.9616  0.2730
   49CHL1  H15A 4751   4.921   0.017   3.675 -0.0998  2.6558 -0.3686
   49CHL1  H15B 4752   5.056  -0.060   3.749  0.2901 -0.2997 -1.6713
   49CHL1   C16 4753   4.915   0.018   3.904  0.0513 -0.2527 -0.0041
   49CHL1  H16A 4754   4.805   0.009   3.888 -0.0122  1.2737 -0.6148
   49CHL1  H16B 4755   4.958  -0.075   3.947 -1.9921 -1.8645 -1.2205
   49CHL1   C17 4756   4.953   0.153   3.976  0.3852  0.4813  0.4664
   49CHL1   H17 4757   5.042   0.140   4.040  0.8749  1.9399  0.1267
   49CHL1   C13 4758   5.001   0.255   3.864 -0.0907 -0.2338 -0.1630
   49CHL1   C18 4759   4.876   0.311   3.793 -0.1706 -0.2633  0.7335
   49CHL1  H18A 4760   4.832   0.401   3.842  0.5372  0.9504 -0.7631
   49CHL1  H18B 4761   4.902   0.352   3.693 -0.5259 -0.3774  0.5918
   49CHL1  H18C 4762   4.800   0.232   3.774 -0.6411  0.6070 -1.1636
   49CHL1   C12 4763   5.109   0.358   3.912 -0.1787 -0.1740  0.1441
   49CHL1  H12A 4764   5.066   0.432   3.983 -0.0742 -0.0193  0.0484
   49CHL1  H12B 4765   5.188   0.303   3.966  2.4583  2.8281 -0.3290
   49CHL1   C11 4766   5.169   0.429   3.784  0.6115  0.1627  0.7751
   49CHL1  H11A 4767   5.089   0.493   3.740  2.0193  1.2647 -0.2654
   49CHL1  H11B 4768   5.249   0.503   3.803  1.7399 -0.4963 -1.1408
   49CHL1    C9 4769   5.213   0.336   3.665  0.4071  0.4009 -0.1479
   49CHL1    H9 4770   5.297   0.286   3.718 -1.6655  1.2306  4.2916
   49CHL1   C10 4771   5.268   0.404   3.544  0.1937  0.7419 -0.2113
   49CHL1   C19 4772   5.167   0.506   3.492  0.1321 -0.0362  0.1278
   49CHL1  H19A 4773   5.190   0.552   3.394 -2.3708 -0.6554 -0.8140
   49CHL1  H19B 4774   5.070   0.454   3.482 -0.1253  0.1927  1.3300
   49CHL1  H19C 4775   5.141   0.588   3.562  0.2540 -0.6821  0.9479
   49CHL1    C1 4776   5.404   0.462   3.574 -0.5755  0.7927  0.0814
   49CHL1   H1A 4777   5.379   0.542   3.648 -1.7390 -0.7626  1.4453
   49CHL1   H1B 4778   5.476   0.389   3.615  0.5894  1.4693 -0.7301
   49CHL1    C2 4779   5.476   0.527   3.451  0.1267  0.0076  0.0810
   49CHL1   H2A 4780   5.583   0.549   3.474  0.9227 -3.1921 -0.0887
   49CHL1   H2B 4781   5.423   0.616   3.409 -1.2788 -0.6432  0.4224
   49CHL1   C20 4782   4.838   0.193   4.073 -0.2695 -0.1985 -0.1601
   49CHL1   H20 4783   4.747   0.222   4.017 -1.1939 -0.7268  1.0397
   49CHL1   C21 4784   4.881   0.319   4.156  0.3154  0.5931  0.3054
   49CHL1  H21A 4785   4.805   0.363   4.225 -0.1856 -1.8350  1.3908
   49CHL1  H21B 4786   4.902   0.402   4.085 -2.0169 -1.4791 -3.1113
   49CHL1  H21C 4787   4.977   0.303   4.210  0.4068  0.5328  0.1238
   49CHL1   C22 4788   4.815   0.081   4.171 -0.0704  0.2513  0.3537
   49CHL1  H22A 4789   4.765  -0.004   4.120 -0.1065  0.1518  0.5537
   49CHL1  H22B 4790   4.910   0.049   4.218  1.1099 -1.8236 -3.0627
   49CHL1   C23 4791   4.710   0.095   4.294  0.3443  0.5504  1.7697
   49CHL1  H23A 4792   4.722   0.169   4.376 -0.1278  3.2935 -0.4567
   49CHL1  H23B 4793   4.616   0.126   4.245  1.2527 -0.0625 -0.4933
   49CHL1   C24 4794   4.696  -0.050   4.353  0.1673  0.5748 -0.9320
   49CHL1  H24A 4795   4.653  -0.117   4.275  0.0571  0.1851 -0.5409
   49CHL1  H24B 4796   4.797  -0.090   4.381  0.6704  2.9474  0.9994
   49CHL1   C25 4797   4.601  -0.060   4.473 -0.3310  0.1051  0.0685
   49CHL1   H25 4798   4.662  -0.016   4.554 -0.8440 -2.8149  2.1964
   49CHL1   C26 4799   4.459  -0.003   4.460  0.0964  0.3153 -0.2353
   49CHL1  H26A 4800   4.387  -0.052   4.528 -0.3116  0.2011 -0.7382
   49CHL1  H26B 4801   4.464   0.107   4.475  1.3471  0.1299  0.8427
   49CHL1  H26C 4802   4.410  -0.018   4.361 -0.7231  0.3000  0.1626
   49CHL1   C27 4803   4.584  -0.207   4.517 -0.3810 -0.8316 -0.4423
   49CHL1  H27A 4804   4.683  -0.258   4.519 -0.7397 -1.5425  0.0621
   49CHL1  H27B 4805   4.537  -0.216   4.618  1.8587 -0.7337  0.6891
   49CHL1  H27C 4806   4.520  -0.266   4.448 -2.3824  1.1559 -0.3822
   50CHL1    C3 4807   6.744   3.299   3.240 -0.6596 -0.4329  0.0347
   50CHL1    H3 4808   6.832   3.364   3.258  0.1988 -1.5811  0.1261
   50CHL1    O3 4809   6.713   3.298   3.101  0.3337 -0.2695  0.0461
   50CHL1   H3' 4810   6.752   3.215   3.073  0.5671 -0.2731  0.3717
   50CHL1    C4 4811   6.781   3.161   3.294  0.3979 -0.0785 -0.5738
   50CHL1   H4A 4812   6.698   3.090   3.271 -0.5076  0.9807 -0.6432
   50CHL1   H4B 4813   6.875   3.129   3.245  1.5404  0.5516  1.1158
   50CHL1    C5 4814   6.813   3.176   3.444 -0.5995 -0.1887  0.2215
   50CHL1    C6 4815   6.933   3.149   3.499  0.3716  0.6866  0.0800
   50CHL1    H6 4816   7.012   3.116   3.430 -0.4825  0.2240 -0.6939
   50CHL1    C7 4817   6.962   3.163   3.646 -0.2559 -0.5080  0.0054
   50CHL1   H7A 4818   7.030   3.083   3.682 -1.1412 -1.3373 -0.1159
   50CHL1   H7B 4819   7.031   3.250   3.655  1.2253 -1.7820  1.8823
   50CHL1    C8 4820   6.831   3.159   3.727 -0.5486 -0.0616  0.6315
   50CHL1    H8 4821   6.788   3.057   3.723 -0.1332 -0.2102 -0.2270
   50CHL1   C14 4822   6.863   3.204   3.866  0.0092 -0.0278 -0.1219
   50CHL1   H14 4823   6.906   3.306   3.857  1.3450 -0.3512  1.7722
   50CHL1   C15 4824   6.970   3.131   3.940  0.6699  0.2214  0.9848
   50CHL1  H15A 4825   6.960   3.021   3.930  2.5469  0.0120  1.0847
   50CHL1  H15B 4826   7.073   3.143   3.900 -0.5627  1.8566 -2.0383
   50CHL1   C16 4827   6.960   3.166   4.087 -0.5899 -0.1247  0.4740
   50CHL1  H16A 4828   6.946   3.072   4.146 -0.4504 -1.0093 -0.8539
   50CHL1  H16B 4829   7.055   3.205   4.129 -0.1603 -0.6908  0.0414
   50CHL1   C17 4830   6.840   3.266   4.102  0.1612  0.4114  1.0919
   50CHL1   H17 4831   6.882   3.368   4.087 -2.1285  1.2322 -0.3890
   50CHL1   C13 4832   6.754   3.226   3.973  0.0479  0.4137  0.2595
   50CHL1   C18 4833   6.677   3.094   3.998  1.0323 -0.1063  0.5978
   50CHL1  H18A 4834   6.588   3.113   4.062 -0.4593 -0.1819 -1.3792
   50CHL1  H18B 4835   6.647   3.051   3.900  1.7731 -0.3355  0.4619
   50CHL1  H18C 4836   6.734   3.012   4.048  0.6926 -0.2880  0.6924
   50CHL1   C12 4837   6.661   3.339   3.913  0.4833  0.4576 -0.4670
   50CHL1  H12A 4838   6.569   3.353   3.974 -0.0202 -0.3784 -1.0136
   50CHL1  H12B 4839   6.721   3.432   3.911  1.9580 -0.4251  0.5993
   50CHL1   C11 4840   6.617   3.301   3.772  0.9007  0.0409 -0.3769
   50CHL1  H11A 4841   6.556   3.209   3.792 -1.4206  1.3782 -0.8769
   50CHL1  H11B 4842   6.549   3.384   3.743  2.8389  1.1311 -2.0693
   50CHL1    C9 4843   6.734   3.265   3.675 -0.6032 -0.2749 -0.0015
   50CHL1    H9 4844   6.796   3.358   3.670  1.0043 -1.3065 -0.1825
   50CHL1   C10 4845   6.698   3.239   3.528 -0.1778  0.2379  0.3491
   50CHL1   C19 4846   6.586   3.131   3.526  0.8163 -0.2507 -0.6314
   50CHL1  H19A 4847   6.611   3.033   3.571 -1.6020 -0.3779  0.6024
   50CHL1  H19B 4848   6.499   3.163   3.587  1.1306 -0.2773 -0.1618
   50CHL1  H19C 4849   6.560   3.117   3.418 -2.5099 -1.0022  0.1558
   50CHL1    C1 4850   6.661   3.380   3.467 -0.4087 -0.3912 -0.1074
   50CHL1   H1A 4851   6.575   3.421   3.524 -0.5788 -2.4330  1.2162
   50CHL1   H1B 4852   6.754   3.439   3.481 -0.4753 -0.5749  1.2447
   50CHL1    C2 4853   6.633   3.368   3.314  0.2099  0.1376  0.0220
   50CHL1   H2A 4854   6.630   3.474   3.281 -0.2099  0.0030 -0.3960
   50CHL1   H2B 4855   6.534   3.320   3.297  0.8041 -1.2164  0.2382
   50CHL1   C20 4856   6.769   3.262   4.242 -0.2853 -0.2664 -0.2407
   50CHL1   H20 4857   6.725   3.164   4.269 -0.9062 -0.0599 -0.4802
   50CHL1   C21 4858   6.662   3.376   4.257 -1.0975  0.7018 -0.0260
   50CHL1  H21A 4859   6.639   3.401   4.363 -0.2377 -1.1973  0.6568
   50CHL1  H21B 4860   6.570   3.341   4.206  0.7597 -1.0123 -2.4335
   50CHL1  H21C 4861   6.697   3.467   4.203 -1.0437 -0.1313 -1.4289
   50CHL1   C22 4862   6.882   3.271   4.352 -0.2444 -0.0668 -0.2023
   50CHL1  H22A 4863   6.948   3.183   4.334  2.0186  1.7791 -1.4299
   50CHL1  H22B 4864   6.954   3.353   4.331  1.9728 -1.9031 -0.2367
   50CHL1   C23 4865   6.830   3.266   4.490  0.8070 -0.0180 -0.7850
   50CHL1  H23A 4866   6.776   3.359   4.520  3.0997  0.4667  2.4870
   50CHL1  H23B 4867   6.753   3.186   4.496  0.1174  0.6985  0.5236
   50CHL1   C24 4868   6.925   3.238   4.604  0.0381  1.3251 -0.4001
   50CHL1  H24A 4869   6.982   3.144   4.588  1.1951  1.6512  1.5031
   50CHL1  H24B 4870   7.004   3.316   4.610 -1.3097  2.6178  1.8661
   50CHL1   C25 4871   6.869   3.238   4.748  0.3438 -0.7669  0.6565
   50CHL1   H25 4872   6.774   3.180   4.752 -0.7168  0.8846  0.3100
   50CHL1   C26 4873   6.974   3.176   4.840  0.0560 -0.6227 -0.3305
   50CHL1  H26A 4874   7.074   3.222   4.831  0.1763 -0.6475  0.7259
   50CHL1  H26B 4875   6.933   3.182   4.943 -0.7090  0.5947 -0.6850
   50CHL1  H26C 4876   6.988   3.071   4.808 -1.9378 -0.9393 -0.3157
   50CHL1   C27 4877   6.835   3.382   4.783 -0.3236 -0.9095  0.0227
   50CHL1  H27A 4878   6.799   3.402   4.886  3.2724  1.8373  0.9772
   50CHL1  H27B 4879   6.922   3.450   4.768 -1.9907  1.7766  1.6763
   50CHL1  H27C 4880   6.752   3.419   4.720  0.7246 -0.1768 -0.9662
   51CHL1    C3 4881   6.347   4.905   3.150 -0.1300 -0.3397 -0.3567
   51CHL1    H3 4882   6.266   4.841   3.191  0.7521 -0.9970  0.4014
   51CHL1    O3 4883   6.313   4.933   3.021  0.3645  0.3724  0.2026
   51CHL1   H3' 4884   6.382   4.912   2.957  0.1151  2.4807 -0.8352
   51CHL1    C4 4885   6.356   5.036   3.234  0.0499 -0.0383 -0.3699
   51CHL1   H4A 4886   6.440   5.106   3.216 -0.1069  0.6041  1.2412
   51CHL1   H4B 4887   6.257   5.084   3.220 -0.0653 -0.2443 -0.2634
   51CHL1    C5 4888   6.371   4.993   3.380  0.7467 -0.1861 -0.5131
   51CHL1    C6 4889   6.280   5.034   3.478 -0.8852  0.6699  0.6581
   51CHL1    H6 4890   6.196   5.094   3.440  0.3156  1.0183 -1.6403
   51CHL1    C7 4891   6.293   5.009   3.626 -0.1229  0.1327 -0.1432
   51CHL1   H7A 4892   6.274   5.104   3.681 -1.2726  0.6939 -1.4440
   51CHL1   H7B 4893   6.206   4.946   3.655 -0.1403  0.2678  0.1017
   51CHL1    C8 4894   6.424   4.946   3.666 -0.2584 -0.2683 -0.5713
   51CHL1    H8 4895   6.504   5.022   3.659 -1.2270  0.8968  0.5931
   51CHL1   C14 4896   6.419   4.878   3.803  0.7137 -0.5114 -0.6252
   51CHL1   H14 4897   6.355   4.788   3.789 -0.0996  0.0987 -0.8882
   51CHL1   C15 4898   6.359   4.961   3.913 -0.1437  0.6912 -0.2211
   51CHL1  H15A 4899   6.389   5.068   3.907 -0.0283  0.7570  1.1744
   51CHL1  H15B 4900   6.249   4.951   3.911 -0.2838  1.2408  1.8047
   51CHL1   C16 4901   6.413   4.891   4.033  0.7675  0.2876  0.5079
   51CHL1  H16A 4902   6.478   4.961   4.089 -1.1634  1.3868  1.4781
   51CHL1  H16B 4903   6.331   4.859   4.101 -1.3343 -0.1175 -2.0294
   51CHL1   C17 4904   6.498   4.772   3.990  0.4475 -0.5165 -0.9445
   51CHL1   H17 4905   6.431   4.685   3.970 -0.9131 -0.1170  1.4246
   51CHL1   C13 4906   6.548   4.820   3.849  0.4037  0.4820  0.5541
   51CHL1   C18 4907   6.652   4.933   3.873  0.2772  0.8349 -0.2295
   51CHL1  H18A 4908   6.674   4.988   3.779  1.5922  0.1514 -0.3378
   51CHL1  H18B 4909   6.614   5.005   3.949  1.0696  0.5656  0.4376
   51CHL1  H18C 4910   6.748   4.901   3.918 -0.3341  2.9720  2.9399
   51CHL1   C12 4911   6.595   4.715   3.751 -0.0155  0.4218 -0.7611
   51CHL1  H12A 4912   6.691   4.667   3.781 -1.3253 -1.6915  0.3114
   51CHL1  H12B 4913   6.515   4.639   3.763 -1.1947  1.9253  1.7374
   51CHL1   C11 4914   6.605   4.772   3.610 -0.5513  0.2862 -1.2386
   51CHL1  H11A 4915   6.693   4.840   3.607 -1.8975  2.0960 -1.7404
   51CHL1  H11B 4916   6.621   4.683   3.546 -1.8994 -0.8182 -0.0808
   51CHL1    C9 4917   6.477   4.843   3.556 -0.2696  0.1960 -0.6876
   51CHL1    H9 4918   6.394   4.770   3.560  0.8869 -1.1468 -0.6390
   51CHL1   C10 4919   6.484   4.894   3.415  0.0989  0.1340 -0.1666
   51CHL1   C19 4920   6.617   4.981   3.406  0.7828  0.4740 -0.1379
   51CHL1  H19A 4921   6.617   5.058   3.487 -1.0453 -0.5762  0.9272
   51CHL1  H19B 4922   6.710   4.924   3.427 -0.1802 -1.5461 -1.1273
   51CHL1  H19C 4923   6.617   5.025   3.304 -0.3617  4.0490  1.2413
   51CHL1    C1 4924   6.499   4.776   3.312  0.5620  0.2399 -0.0245
   51CHL1   H1A 4925   6.602   4.735   3.315  0.8406  0.9164 -0.1116
   51CHL1   H1B 4926   6.421   4.699   3.331  2.7543 -1.8280  1.1784
   51CHL1    C2 4927   6.482   4.825   3.160  0.1647  0.2165 -0.5242
   51CHL1   H2A 4928   6.483   4.739   3.090  0.6624 -1.4344  1.3884
   51CHL1   H2B 4929   6.570   4.883   3.125 -0.0681  0.5913 -0.4927
   51CHL1   C20 4930   6.599   4.724   4.097  0.2986 -0.0544  0.4324
   51CHL1   H20 4931   6.649   4.819   4.124  0.9082 -0.1903 -0.1835
   51CHL1   C21 4932   6.697   4.630   4.035 -0.1002  0.6401 -0.3881
   51CHL1  H21A 4933   6.754   4.592   4.123 -4.0279 -0.4100  1.9413
   51CHL1  H21B 4934   6.761   4.677   3.958  2.8835 -0.5961  1.1593
   51CHL1  H21C 4935   6.638   4.543   3.999 -0.2764 -0.1917  1.7168
   51CHL1   C22 4936   6.528   4.670   4.225  0.1226  0.3421  0.5516
   51CHL1  H22A 4937   6.464   4.754   4.260  1.3494  1.9559 -0.9196
   51CHL1  H22B 4938   6.458   4.587   4.202 -0.3222  1.1118 -1.0027
   51CHL1   C23 4939   6.609   4.654   4.355 -0.5707  0.0075 -0.3093
   51CHL1  H23A 4940   6.541   4.625   4.437 -0.9178 -0.1046 -0.6306
   51CHL1  H23B 4941   6.672   4.562   4.351 -0.4647  0.0869 -0.5197
   51CHL1   C24 4942   6.700   4.776   4.389 -0.3462  0.4770  0.0328
   51CHL1  H24A 4943   6.771   4.797   4.306  0.1744  0.9138  0.5781
   51CHL1  H24B 4944   6.631   4.862   4.385  1.0010  1.5985  0.0711
   51CHL1   C25 4945   6.784   4.764   4.515  0.1562 -0.4520 -0.4182
   51CHL1   H25 4946   6.721   4.719   4.595  1.1735  0.3296  0.8638
   51CHL1   C26 4947   6.898   4.657   4.497  0.2018  0.3206  0.0145
   51CHL1  H26A 4948   6.960   4.701   4.416  0.2993 -0.3480 -0.2812
   51CHL1  H26B 4949   6.949   4.634   4.593  0.8883 -0.4353 -0.5119
   51CHL1  H26C 4950   6.850   4.564   4.461  0.6945  0.5065 -1.1614
   51CHL1   C27 4951   6.848   4.904   4.554  0.3237 -0.0397  0.5325
   51CHL1  H27A 4952   6.915   4.934   4.471 -1.2062 -3.5029 -2.2018
   51CHL1  H27B 4953   6.768   4.980   4.565 -1.6016 -1.7405 -0.8150
   51CHL1  H27C 4954   6.895   4.878   4.652  0.7236 -1.7089 -0.0662
   52CHL1    C3 4955   5.168   6.006   3.059  0.0037  0.3394  0.6113
   52CHL1    H3 4956   5.246   6.077   3.094  1.4956 -0.6936 -0.5251
   52CHL1    O3 4957   5.174   6.001   2.918  0.2773  0.5912 -0.6151
   52CHL1   H3' 4958   5.241   5.933   2.902  0.6295  0.6481  0.5571
   52CHL1    C4 4959   5.190   5.866   3.125 -0.0000 -0.4122 -0.2989
   52CHL1   H4A 4960   5.121   5.790   3.082  1.0516 -0.1150 -2.7013
   52CHL1   H4B 4961   5.296   5.845   3.103  0.1530  0.5809 -0.5741
   52CHL1    C5 4962   5.179   5.883   3.275 -0.2263 -0.0942  0.2548
   52CHL1    C6 4963   5.268   5.828   3.359  0.5012  0.9382  0.6904
   52CHL1    H6 4964   5.348   5.763   3.320 -1.8117 -1.1339 -0.8780
   52CHL1    C7 4965   5.252   5.834   3.504  0.1381  0.1027  0.2111
   52CHL1   H7A 4966   5.283   5.739   3.553 -1.4348 -0.0846  0.9117
   52CHL1   H7B 4967   5.319   5.919   3.529 -0.7039  0.5865  0.9180
   52CHL1    C8 4968   5.104   5.866   3.558 -0.0103  0.1052  0.1688
   52CHL1    H8 4969   5.041   5.777   3.536  0.6358  0.1767 -2.2347
   52CHL1   C14 4970   5.096   5.907   3.703 -0.2925  0.7143  0.0484
   52CHL1   H14 4971   5.159   5.996   3.725 -0.2648  0.5411  0.6860
   52CHL1   C15 4972   5.150   5.795   3.797 -0.5664 -0.2353 -0.0542
   52CHL1  H15A 4973   5.117   5.694   3.765 -1.5040 -0.1695  0.6623
   52CHL1  H15B 4974   5.261   5.793   3.807 -0.5038  1.9010  0.2702
   52CHL1   C16 4975   5.086   5.839   3.935 -0.4889  0.0569 -0.6154
   52CHL1  H16A 4976   5.032   5.758   3.990  0.2104  1.0458  1.6791
   52CHL1  H16B 4977   5.161   5.896   3.994 -0.4816 -0.7525  0.1839
   52CHL1   C17 4978   4.984   5.952   3.910  0.0326  0.1947  0.0640
   52CHL1   H17 4979   5.022   6.054   3.932  0.3875  0.1323 -0.2397
   52CHL1   C13 4980   4.956   5.933   3.758 -0.4240 -0.2271 -0.5079
   52CHL1   C18 4981   4.870   5.806   3.744 -0.0663 -0.0557 -0.6897
   52CHL1  H18A 4982   4.771   5.841   3.780  0.1966 -0.8526  0.8914
   52CHL1  H18B 4983   4.859   5.772   3.638  0.0649 -0.9903 -0.4173
   52CHL1  H18C 4984   4.896   5.723   3.813 -0.9844 -0.5036 -0.8624
   52CHL1   C12 4985   4.908   6.054   3.679 -0.1855  0.2996 -0.4184
   52CHL1  H12A 4986   4.801   6.067   3.706 -0.2875 -1.7368  0.3590
   52CHL1  H12B 4987   4.965   6.144   3.709  2.3023 -1.0244 -0.9654
   52CHL1   C11 4988   4.915   6.034   3.531 -0.5093 -0.1678  0.1129
   52CHL1  H11A 4989   4.831   5.966   3.505 -2.0624  1.3308  0.9761
   52CHL1  H11B 4990   4.890   6.134   3.489 -0.1041  1.7659  4.0206
   52CHL1    C9 4991   5.053   5.984   3.476 -0.3278 -0.1969 -0.2987
   52CHL1    H9 4992   5.130   6.063   3.496 -1.9343  1.8462 -1.7664
   52CHL1   C10 4993   5.059   5.955   3.321 -0.0918  0.8462 -0.7245
   52CHL1   C19 4994   4.927   5.877   3.292  0.1285 -0.6292 -0.7442
   52CHL1  H19A 4995   4.935   5.814   3.200 -0.3532 -0.9408 -0.5730
   52CHL1  H19B 4996   4.895   5.801   3.367  1.0650  1.7740  2.2795
   52CHL1  H19C 4997   4.841   5.945   3.280 -0.5590 -1.3575 -0.0716
   52CHL1    C1 4998   5.035   6.084   3.252  0.2592 -0.3998  0.8279
   52CHL1   H1A 4999   4.941   6.130   3.287  1.0582  2.8140 -0.7974
   52CHL1   H1B 5000   5.117   6.156   3.275 -0.9618  0.6173  2.1135
   52CHL1    C2 5001   5.038   6.071   3.097 -0.4252 -0.3314  0.1782
   52CHL1   H2A 5002   5.024   6.170   3.048 -0.9886 -0.6158 -0.2510
   52CHL1   H2B 5003   4.951   6.006   3.076 -1.0248  0.0465  1.3631
   52CHL1   C20 5004   4.864   5.937   4.010 -0.3662 -0.0041  0.0481
   52CHL1   H20 5005   4.799   5.847   4.009  0.8697 -0.9461  1.0120
   52CHL1   C21 5006   4.754   6.044   3.988 -0.3625  0.0245 -0.5512
   52CHL1  H21A 5007   4.663   6.030   4.050 -0.3295  1.0920 -0.2526
   52CHL1  H21B 5008   4.730   6.046   3.879 -1.9536 -1.8413 -0.2997
   52CHL1  H21C 5009   4.789   6.144   4.020 -2.3850  0.5045  0.3024
   52CHL1   C22 5010   4.920   5.946   4.158 -0.0535 -0.2715 -0.4218
   52CHL1  H22A 5011   4.995   5.866   4.178 -0.4946 -0.8847 -1.1410
   52CHL1  H22B 5012   4.969   6.045   4.169 -0.3256 -0.3974  3.0658
   52CHL1   C23 5013   4.817   5.930   4.268 -0.4784 -0.3886  0.2018
   52CHL1  H23A 5014   4.731   5.998   4.250 -2.3627 -2.8839 -0.7102
   52CHL1  H23B 5015   4.778   5.827   4.257  0.8995 -0.9637  0.4658
   52CHL1   C24 5016   4.887   5.954   4.402 -0.9126 -0.3462 -0.0863
   52CHL1  H24A 5017   4.971   5.882   4.418  0.5684  1.7685  2.4701
   52CHL1  H24B 5018   4.934   6.053   4.386 -1.2183 -0.0919  0.5624
   52CHL1   C25 5019   4.794   5.953   4.524 -0.2537  0.1546  0.5387
   52CHL1   H25 5020   4.733   6.046   4.531 -1.1225 -0.3774  0.2238
   52CHL1   C26 5021   4.696   5.836   4.527  0.1428  0.1686  0.2314
   52CHL1  H26A 5022   4.756   5.742   4.523  0.4140  0.3916 -1.3937
   52CHL1  H26B 5023   4.629   5.840   4.616 -2.2002  2.3007 -1.5173
   52CHL1  H26C 5024   4.624   5.833   4.443  0.5337 -2.4521 -0.1170
   52CHL1   C27 5025   4.881   5.935   4.647 -0.0922  0.4718 -0.1711
   52CHL1  H27A 5026   4.953   6.021   4.649  1.0731 -0.4858  1.7662
   52CHL1  H27B 5027   4.830   5.912   4.742  2.5939 -0.7880  1.0827
   52CHL1  H27C 5028   4.948   5.848   4.629 -2.6191 -1.2576 -1.8456
   53CHL1    C3 5029   4.223   5.696   3.423 -0.0486  0.7077 -0.4817
   53CHL1    H3 5030   4.132   5.633   3.437 -0.5301  1.7424  1.3884
   53CHL1    O3 5031   4.236   5.739   3.293  0.4241  0.2951  0.8509
   53CHL1   H3' 5032   4.304   5.807   3.296  0.0672  0.7949 -1.0851
   53CHL1    C4 5033   4.221   5.823   3.511  0.6356  0.2283  0.1375
   53CHL1   H4A 5034   4.299   5.889   3.467  0.3485  0.3715 -0.1636
   53CHL1   H4B 5035   4.125   5.874   3.485 -1.0581 -2.1340  1.3562
   53CHL1    C5 5036   4.235   5.793   3.656  0.6375 -0.2027  0.0055
   53CHL1    C6 5037   4.137   5.835   3.739 -0.1024 -0.0312  0.3393
   53CHL1    H6 5038   4.055   5.891   3.691  0.3386 -0.6664 -1.2192
   53CHL1    C7 5039   4.134   5.811   3.884 -0.2907  0.4292  0.3473
   53CHL1   H7A 5040   4.102   5.901   3.942 -0.1394 -0.4947  1.9284
   53CHL1   H7B 5041   4.060   5.729   3.892  0.5166 -0.6067 -1.9826
   53CHL1    C8 5042   4.268   5.768   3.937 -0.3037 -0.4516  0.0442
   53CHL1    H8 5043   4.333   5.858   3.940  0.2162 -0.8505  1.5448
   53CHL1   C14 5044   4.250   5.716   4.083 -0.1519 -0.4207  0.4302
   53CHL1   H14 5045   4.190   5.624   4.062  1.7605 -0.9444 -3.8466
   53CHL1   C15 5046   4.171   5.804   4.184 -0.0401  0.0596 -0.1483
   53CHL1  H15A 5047   4.216   5.905   4.167  0.1426 -0.0461 -0.2961
   53CHL1  H15B 5048   4.061   5.798   4.168 -0.3550  0.6535  1.5417
   53CHL1   C16 5049   4.208   5.741   4.329 -0.5364 -0.4569 -0.1989
   53CHL1  H16A 5050   4.232   5.820   4.403  2.4958 -1.3683 -0.1039
   53CHL1  H16B 5051   4.114   5.688   4.355 -0.8161  0.0155 -0.2206
   53CHL1   C17 5052   4.310   5.634   4.298 -0.2809 -0.4770  0.6450
   53CHL1   H17 5053   4.246   5.544   4.285  0.1378 -0.6425 -0.3881
   53CHL1   C13 5054   4.366   5.669   4.156  0.2325  0.1562 -0.0352
   53CHL1   C18 5055   4.468   5.786   4.175  0.2810  0.6669  0.1827
   53CHL1  H18A 5056   4.499   5.829   4.078 -0.4118 -1.0252 -0.8493
   53CHL1  H18B 5057   4.432   5.870   4.238 -2.0349  0.2661 -0.4838
   53CHL1  H18C 5058   4.561   5.748   4.222 -0.3002  1.6867  2.2609
   53CHL1   C12 5059   4.431   5.565   4.074  0.6060  0.4478 -0.1788
   53CHL1  H12A 5060   4.527   5.519   4.106  1.3277  1.9184 -0.1648
   53CHL1  H12B 5061   4.360   5.480   4.071 -2.0153  2.4227  1.3894
   53CHL1   C11 5062   4.457   5.605   3.927 -0.6843  0.0921  0.1366
   53CHL1  H11A 5063   4.542   5.676   3.935  0.2450 -1.0500  0.6633
   53CHL1  H11B 5064   4.495   5.523   3.862 -1.2114  1.1987 -1.6565
   53CHL1    C9 5065   4.336   5.662   3.851  0.3497 -0.3842  0.3899
   53CHL1    H9 5066   4.271   5.572   3.845 -0.4808  0.2812 -1.3733
   53CHL1   C10 5067   4.356   5.712   3.702  0.1070  0.2535  0.1169
   53CHL1   C19 5068   4.473   5.811   3.695  0.3037  1.0097  0.5508
   53CHL1  H19A 5069   4.494   5.837   3.589 -1.1463 -1.0991 -0.3320
   53CHL1  H19B 5070   4.440   5.898   3.755 -0.6017  0.8910  0.2336
   53CHL1  H19C 5071   4.565   5.776   3.746 -1.5555  0.3021  3.6823
   53CHL1    C1 5072   4.370   5.591   3.606 -0.1282 -0.3516 -0.2022
   53CHL1   H1A 5073   4.470   5.549   3.630  0.7727  0.4939 -2.2897
   53CHL1   H1B 5074   4.293   5.515   3.633 -0.7564 -0.6222 -2.5483
   53CHL1    C2 5075   4.346   5.619   3.455 -0.3651 -0.7270 -1.0817
   53CHL1   H2A 5076   4.346   5.515   3.416 -2.5421 -1.0257 -0.3972
   53CHL1   H2B 5077   4.440   5.668   3.421  0.5486  0.6478  2.8897
   53CHL1   C20 5078   4.402   5.601   4.417  0.0582  0.1765  0.1226
   53CHL1   H20 5079   4.491   5.667   4.425  0.4456 -0.4498  1.1428
   53CHL1   C21 5080   4.466   5.461   4.394  0.7326  0.2500  0.5621
   53CHL1  H21A 5081   4.548   5.435   4.465 -1.0948 -0.4524  2.5053
   53CHL1  H21B 5082   4.512   5.455   4.293 -1.3049 -0.9190 -0.3600
   53CHL1  H21C 5083   4.379   5.392   4.399 -0.0251  1.2447  1.4872
   53CHL1   C22 5084   4.328   5.606   4.551 -0.6481  0.7059 -0.5621
   53CHL1  H22A 5085   4.317   5.711   4.585  3.5820  1.1837 -0.1282
   53CHL1  H22B 5086   4.228   5.560   4.537 -0.3719  0.3602 -1.5002
   53CHL1   C23 5087   4.390   5.526   4.666  0.2654 -0.4644  1.4604
   53CHL1  H23A 5088   4.376   5.416   4.666 -1.9861 -0.2775 -1.0745
   53CHL1  H23B 5089   4.501   5.529   4.672  0.2979  0.3531  0.6324
   53CHL1   C24 5090   4.333   5.580   4.798 -0.1151 -0.0048 -0.1758
   53CHL1  H24A 5091   4.350   5.690   4.804 -1.0289  0.1951 -0.9588
   53CHL1  H24B 5092   4.223   5.564   4.795 -0.1305 -0.2574  1.2134
   53CHL1   C25 5093   4.385   5.509   4.933  0.4592 -0.0452 -0.6205
   53CHL1   H25 5094   4.356   5.402   4.942 -0.9514  0.5072  3.0710
   53CHL1   C26 5095   4.537   5.524   4.946 -0.0269 -0.3247 -0.2141
   53CHL1  H26A 5096   4.587   5.482   4.857 -1.1985 -1.7630 -0.2308
   53CHL1  H26B 5097   4.563   5.632   4.942  0.0443 -0.3255  0.1958
   53CHL1  H26C 5098   4.578   5.471   5.035 -2.0142 -1.8824 -0.1674
   53CHL1   C27 5099   4.313   5.557   5.057  0.6980  0.1765  0.0270
   53CHL1  H27A 5100   4.207   5.524   5.050  0.3761  1.3651 -1.2417
   53CHL1  H27B 5101   4.358   5.519   5.151 -0.3642 -2.5485 -0.4727
   53CHL1  H27C 5102   4.306   5.668   5.058  0.8018  0.2460 -2.0227
   54CHL1    C3 5103   6.283   0.119   3.596  0.5793 -0.2106  0.3080
   54CHL1    H3 5104   6.223   0.212   3.583  2.1957  0.7319 -0.8100
   54CHL1    O3 5105   6.356   0.107   3.471 -0.3331  0.5476 -0.2056
   54CHL1   H3' 5106   6.294   0.110   3.398 -0.8412 -0.8259  0.1534
   54CHL1    C4 5107   6.370   0.138   3.718  0.0718  0.0276 -0.8542
   54CHL1   H4A 5108   6.440   0.052   3.730  0.9153  0.5912 -1.6376
   54CHL1   H4B 5109   6.422   0.231   3.688 -1.2210  1.0713 -0.0048
   54CHL1    C5 5110   6.289   0.148   3.850 -0.1239 -0.4610  0.4166
   54CHL1    C6 5111   6.314   0.241   3.942  0.3284  0.1220  0.1783
   54CHL1    H6 5112   6.398   0.313   3.936  1.4161 -1.0000  1.3690
   54CHL1    C7 5113   6.246   0.238   4.076  0.3572 -0.3860 -0.7389
   54CHL1   H7A 5114   6.313   0.256   4.163 -0.4832 -1.9502  0.2702
   54CHL1   H7B 5115   6.181   0.328   4.068 -0.4417 -0.7660  0.9469
   54CHL1    C8 5116   6.169   0.116   4.115 -0.1164  0.2497 -0.2376
   54CHL1    H8 5117   6.238   0.040   4.157 -1.5921 -1.6720 -1.1456
   54CHL1   C14 5118   6.071   0.151   4.225  0.3442  0.1685  0.2801
   54CHL1   H14 5119   6.005   0.227   4.179  0.4723 -1.2012 -2.3673
   54CHL1   C15 5120   6.122   0.211   4.361  0.2528  0.2965  0.3609
   54CHL1  H15A 5121   6.219   0.164   4.385  0.1401  0.5185  1.3180
   54CHL1  H15B 5122   6.142   0.320   4.355  2.0071 -0.0743 -1.6215
   54CHL1   C16 5123   6.021   0.157   4.474 -0.2835 -0.5802  0.5218
   54CHL1  H16A 5124   6.081   0.097   4.546 -1.8742 -0.9003  1.6113
   54CHL1  H16B 5125   5.984   0.244   4.532 -1.6105 -0.1957 -0.8381
   54CHL1   C17 5126   5.912   0.079   4.394 -0.4691  0.0266 -0.1490
   54CHL1   H17 5127   5.838   0.152   4.356  0.8806  1.2402 -0.5174
   54CHL1   C13 5128   5.986   0.033   4.266  0.8490 -0.3403 -0.1190
   54CHL1   C18 5129   6.077  -0.087   4.303 -0.7846 -0.0317  0.1758
   54CHL1  H18A 5130   6.007  -0.166   4.337 -1.5212 -0.2325 -1.6991
   54CHL1  H18B 5131   6.125  -0.132   4.213  0.8305  2.5700 -0.3810
   54CHL1  H18C 5132   6.142  -0.062   4.390  0.3345  3.9886 -1.5841
   54CHL1   C12 5133   5.900  -0.002   4.146 -0.2132 -0.2264  0.0181
   54CHL1  H12A 5134   5.841  -0.096   4.153  0.6635 -1.2511 -3.8778
   54CHL1  H12B 5135   5.837   0.079   4.105  0.4551 -0.2487 -1.0956
   54CHL1   C11 5136   5.986  -0.039   4.018 -0.4416  0.3727  0.0936
   54CHL1  H11A 5137   6.033  -0.140   4.015  2.0102  1.4603 -0.9865
   54CHL1  H11B 5138   5.910  -0.048   3.937 -1.3487 -1.9182  1.1071
   54CHL1    C9 5139   6.091   0.072   3.991 -0.4348 -0.0925 -0.0152
   54CHL1    H9 5140   6.028   0.159   3.963 -1.2026 -0.7294 -0.3137
   54CHL1   C10 5141   6.188   0.036   3.868  0.3897 -0.3162 -0.3203
   54CHL1   C19 5142   6.259  -0.091   3.905 -0.0731  0.4429 -0.7850
   54CHL1  H19A 5143   6.318  -0.088   3.999 -2.3928  2.4610  0.6896
   54CHL1  H19B 5144   6.194  -0.179   3.924  0.1110  0.8448  2.1481
   54CHL1  H19C 5145   6.328  -0.113   3.820 -1.9678  0.1694 -2.3366
   54CHL1    C1 5146   6.106   0.021   3.743 -0.3267  0.4510  0.4315
   54CHL1   H1A 5147   6.025  -0.055   3.746  0.2620 -0.2413 -0.4928
   54CHL1   H1B 5148   6.053   0.118   3.727 -2.0077 -0.3643  0.8603
   54CHL1    C2 5149   6.191  -0.001   3.611  0.3826 -0.2209 -0.0712
   54CHL1   H2A 5150   6.119  -0.008   3.526  0.3077  3.1590 -0.4544
   54CHL1   H2B 5151   6.244  -0.098   3.609 -0.4027 -0.6680  0.4583
   54CHL1   C20 5152   5.824  -0.018   4.483  0.0236 -0.0772  0.2851
   54CHL1   H20 5153   5.880  -0.112   4.502 -1.0356 -0.7641  0.0499
   54CHL1   C21 5154   5.704  -0.068   4.403  0.3184  0.1397  0.4391
   54CHL1  H21A 5155   5.664   0.021   4.350  1.0415 -0.0129 -0.3924
   54CHL1  H21B 5156   5.622  -0.113   4.463 -2.2917  2.2972 -1.2634
   54CHL1  H21C 5157   5.731  -0.144   4.327  0.8648  1.2622 -0.5264
   54CHL1   C22 5158   5.797   0.040   4.624  0.3487 -0.3692 -0.0698
   54CHL1  H22A 5159   5.759  -0.037   4.695 -0.8874  0.6004  0.3600
   54CHL1  H22B 5160   5.888   0.075   4.676 -0.0449 -2.1316  1.9375
   54CHL1   C23 5161   5.691   0.159   4.633  0.6689 -0.0086 -0.2736
   54CHL1  H23A 5162   5.745   0.254   4.612  0.4500  0.1839  0.0322
   54CHL1  H23B 5163   5.612   0.152   4.556  0.7569 -1.2607 -0.2727
   54CHL1   C24 5164   5.631   0.168   4.774  0.3070  0.0949  0.2377
   54CHL1  H24A 5165   5.570   0.076   4.789 -1.2826  0.6094 -2.4581
   54CHL1  H24B 5166   5.709   0.179   4.852  0.4912  1.8057 -0.1456
   54CHL1   C25 5167   5.529   0.288   4.781 -0.3992 -0.4851 -0.3053
   54CHL1   H25 5168   5.585   0.377   4.744 -1.8878 -0.2220 -2.0228
   54CHL1   C26 5169   5.397   0.261   4.707 -0.3621 -0.0562  0.0283
   54CHL1  H26A 5170   5.341   0.172   4.740 -3.3414  2.0857  1.1799
   54CHL1  H26B 5171   5.331   0.349   4.720 -1.4513 -0.5752 -1.6892
   54CHL1  H26C 5172   5.415   0.260   4.597 -2.6756 -0.7117 -0.3922
   54CHL1   C27 5173   5.486   0.315   4.930  0.0048  0.4133  0.0954
   54CHL1  H27A 5174   5.430   0.232   4.978  3.8711 -1.8482  1.1484
   54CHL1  H27B 5175   5.575   0.332   4.994 -0.5720  0.4282  0.9063
   54CHL1  H27C 5176   5.422   0.406   4.932 -0.5899 -0.0058  2.0239
   55CHL1    C3 5177   3.298   2.090   3.410  1.1407  0.5774  0.0615
   55CHL1    H3 5178   3.350   2.184   3.382  0.3849  0.3965 -2.1113
   55CHL1    O3 5179   3.250   2.022   3.288  0.3308  0.6100  0.0371
   55CHL1   H3' 5180   3.173   2.071   3.257  0.7612  0.2384 -1.7164
   55CHL1    C4 5181   3.381   1.985   3.483  0.4576  0.3447 -0.1352
   55CHL1   H4A 5182   3.313   1.898   3.487 -1.7227  1.8276 -2.0565
   55CHL1   H4B 5183   3.459   1.978   3.404 -0.0470 -0.2015 -0.5911
   55CHL1    C5 5184   3.419   2.033   3.620 -0.4787  0.4617  0.5712
   55CHL1    C6 5185   3.542   2.039   3.653 -0.1135  0.7370 -0.4807
   55CHL1    H6 5186   3.618   2.015   3.578 -0.2820 -0.2758 -0.3556
   55CHL1    C7 5187   3.598   2.058   3.789 -0.3651 -0.5027 -0.6005
   55CHL1   H7A 5188   3.667   1.975   3.817 -1.3000 -1.2702 -0.5161
   55CHL1   H7B 5189   3.661   2.149   3.797  0.3012 -1.1225  2.3059
   55CHL1    C8 5190   3.475   2.072   3.889 -0.0224 -0.0824 -0.2452
   55CHL1    H8 5191   3.439   1.969   3.908 -0.1437 -0.3534 -1.8844
   55CHL1   C14 5192   3.522   2.134   4.021  0.6127 -0.2045 -0.1810
   55CHL1   H14 5193   3.544   2.240   3.998  0.6554 -0.2183 -0.2041
   55CHL1   C15 5194   3.653   2.076   4.089 -0.1456 -0.9138 -0.1020
   55CHL1  H15A 5195   3.662   1.966   4.081 -0.3339 -0.8504 -1.4861
   55CHL1  H15B 5196   3.748   2.112   4.044 -0.8209 -1.2579 -1.8989
   55CHL1   C16 5197   3.645   2.129   4.235  0.2415  0.4775 -0.7877
   55CHL1  H16A 5198   3.676   2.042   4.298 -0.4860  0.1555 -0.8650
   55CHL1  H16B 5199   3.722   2.206   4.254 -0.1283  0.7996 -0.5900
   55CHL1   C17 5200   3.498   2.190   4.248 -0.3126  0.7953  0.4125
   55CHL1   H17 5201   3.522   2.296   4.226 -0.4017  1.0546  1.4992
   55CHL1   C13 5202   3.414   2.131   4.131  0.2976 -0.3526 -0.3664
   55CHL1   C18 5203   3.355   1.989   4.154 -0.6390  0.1057  0.3584
   55CHL1  H18A 5204   3.309   1.944   4.064  1.3454 -1.9440  0.2707
   55CHL1  H18B 5205   3.430   1.920   4.198 -1.5333 -0.7762  0.5155
   55CHL1  H18C 5206   3.280   1.997   4.236  1.2163  1.5493  2.0453
   55CHL1   C12 5207   3.302   2.224   4.082 -0.1199  0.0731  0.0701
   55CHL1  H12A 5208   3.213   2.229   4.150 -0.5885 -1.9525 -0.3091
   55CHL1  H12B 5209   3.336   2.328   4.065  0.4295 -0.2134 -0.6010
   55CHL1   C11 5210   3.242   2.180   3.941  0.5584  0.2183  0.1661
   55CHL1  H11A 5211   3.188   2.084   3.954  1.1675 -0.1615 -0.0764
   55CHL1  H11B 5212   3.175   2.262   3.906  2.3862  1.5212 -0.4845
   55CHL1    C9 5213   3.352   2.150   3.829  0.1009 -0.0837 -0.0823
   55CHL1    H9 5214   3.386   2.252   3.803 -0.9536  0.1973 -0.4068
   55CHL1   C10 5215   3.299   2.074   3.706 -0.2666 -0.9744 -1.4665
   55CHL1   C19 5216   3.224   1.946   3.750  0.6650 -0.0992 -0.0285
   55CHL1  H19A 5217   3.125   1.963   3.797  1.3874  0.3400  1.3904
   55CHL1  H19B 5218   3.190   1.897   3.656  0.3920  1.2520 -0.6559
   55CHL1  H19C 5219   3.274   1.867   3.811  0.6485 -0.9383 -1.0797
   55CHL1    C1 5220   3.201   2.171   3.625 -0.0829 -0.6724  0.4372
   55CHL1   H1A 5221   3.108   2.196   3.680 -0.7701 -2.0938 -0.0114
   55CHL1   H1B 5222   3.257   2.266   3.618 -0.2880 -0.4345  1.7479
   55CHL1    C2 5223   3.169   2.121   3.483 -0.7741 -0.0655 -0.7910
   55CHL1   H2A 5224   3.104   2.191   3.427 -2.7733 -1.5063 -0.3825
   55CHL1   H2B 5225   3.109   2.028   3.497  0.3024 -0.5747  0.8784
   55CHL1   C20 5226   3.436   2.185   4.392 -0.5143 -0.2646  0.4405
   55CHL1   H20 5227   3.326   2.193   4.386 -0.3833  1.8196  0.1621
   55CHL1   C21 5228   3.485   2.309   4.471  0.8997 -0.3394  0.0912
   55CHL1  H21A 5229   3.469   2.402   4.412  1.0945 -0.6392 -0.4441
   55CHL1  H21B 5230   3.596   2.308   4.485  0.8638  0.2277  0.4630
   55CHL1  H21C 5231   3.426   2.319   4.564  1.4952  1.3294  0.3316
   55CHL1   C22 5232   3.475   2.055   4.469  0.2434 -0.4070  0.2962
   55CHL1  H22A 5233   3.437   1.973   4.405 -0.3427 -1.3501  1.8039
   55CHL1  H22B 5234   3.586   2.051   4.482 -0.0336 -1.8098  2.7622
   55CHL1   C23 5235   3.403   2.039   4.607  0.1891 -0.0970  0.3542
   55CHL1  H23A 5236   3.442   2.124   4.667  0.8174 -0.5759  0.6271
   55CHL1  H23B 5237   3.292   2.047   4.603  0.2996  1.2366 -1.2493
   55CHL1   C24 5238   3.446   1.913   4.677  0.0115  0.3560  0.9217
   55CHL1  H24A 5239   3.428   1.832   4.603 -1.3902  1.1420  0.3549
   55CHL1  H24B 5240   3.551   1.895   4.710  0.5639 -0.1986 -0.9958
   55CHL1   C25 5241   3.359   1.873   4.798 -0.2292 -0.4690  0.2891
   55CHL1   H25 5242   3.250   1.888   4.779 -0.4497 -1.9414  0.2359
   55CHL1   C26 5243   3.363   1.721   4.825  0.3386 -0.3709 -0.3076
   55CHL1  H26A 5244   3.385   1.689   4.929 -0.3745  0.5838  0.1613
   55CHL1  H26B 5245   3.262   1.689   4.791  0.5004 -0.7670 -0.4117
   55CHL1  H26C 5246   3.448   1.681   4.766  2.9334  2.0449  1.5083
   55CHL1   C27 5247   3.396   1.962   4.919 -0.8762  0.0059 -0.7266
   55CHL1  H27A 5248   3.349   1.919   5.010  1.8248 -0.6108  0.4720
   55CHL1  H27B 5249   3.506   1.954   4.936 -1.0381 -0.6647  0.0875
   55CHL1  H27C 5250   3.375   2.069   4.900 -1.1026  0.2542  0.8008
   56CHL1    C3 5251   1.477   4.891   3.594  0.1289 -0.5171  0.1475
   56CHL1    H3 5252   1.381   4.941   3.622 -0.1229 -2.3826  3.0854
   56CHL1    O3 5253   1.489   4.867   3.456  0.1737 -0.1965 -0.1609
   56CHL1   H3' 5254   1.555   4.799   3.442 -0.5438 -1.0751  0.5869
   56CHL1    C4 5255   1.593   4.986   3.635  0.1911  0.1501  0.2477
   56CHL1   H4A 5256   1.685   4.950   3.584 -0.3101 -2.5102  1.0992
   56CHL1   H4B 5257   1.574   5.091   3.602  1.5571  0.8965  1.6774
   56CHL1    C5 5258   1.613   5.005   3.780  0.0540  0.2484 -0.8281
   56CHL1    C6 5259   1.617   5.119   3.845 -1.0424  0.3787 -0.4793
   56CHL1    H6 5260   1.602   5.218   3.800  2.0214  1.5830  0.8310
   56CHL1    C7 5261   1.655   5.127   3.987 -0.4888  0.3984 -0.6597
   56CHL1   H7A 5262   1.731   5.207   4.003 -0.3137 -0.0186  0.8070
   56CHL1   H7B 5263   1.552   5.143   4.025 -0.1725 -0.5658  0.6700
   56CHL1    C8 5264   1.715   5.003   4.060 -0.0248  0.2796 -0.0499
   56CHL1    H8 5265   1.822   4.987   4.037 -0.0049  1.2213 -0.6625
   56CHL1   C14 5266   1.687   5.019   4.208 -0.6261 -0.1717  0.3519
   56CHL1   H14 5267   1.577   5.030   4.209 -0.7613 -0.7462 -2.1616
   56CHL1   C15 5268   1.741   5.143   4.276 -0.7291  0.5475 -0.2287
   56CHL1  H15A 5269   1.850   5.155   4.257  0.2647 -3.6953  1.6744
   56CHL1  H15B 5270   1.676   5.233   4.265 -0.4931  1.1471  2.6704
   56CHL1   C16 5271   1.726   5.103   4.427  0.3606 -0.1315  0.4263
   56CHL1  H16A 5272   1.824   5.131   4.470  0.5691  0.1281 -0.2130
   56CHL1  H16B 5273   1.658   5.159   4.495  0.1602 -0.2675  0.3385
   56CHL1   C17 5274   1.704   4.946   4.439  0.5258 -0.1693  0.2490
   56CHL1   H17 5275   1.595   4.933   4.454  0.6827 -0.6580  1.0529
   56CHL1   C13 5276   1.735   4.901   4.294 -0.1974 -0.1457 -0.1538
   56CHL1   C18 5277   1.895   4.881   4.289  0.2887 -0.2896 -0.6813
   56CHL1  H18A 5278   1.947   4.970   4.331  0.7263 -0.5026 -0.7738
   56CHL1  H18B 5279   1.921   4.789   4.346 -2.8117 -1.0289 -0.2787
   56CHL1  H18C 5280   1.922   4.865   4.183 -0.4317  1.1973 -1.1228
   56CHL1   C12 5281   1.657   4.779   4.246 -0.0682 -0.2537 -0.2908
   56CHL1  H12A 5282   1.698   4.688   4.295  0.8890  1.3284  2.0460
   56CHL1  H12B 5283   1.552   4.799   4.278  0.6040 -0.3014  2.1918
   56CHL1   C11 5284   1.659   4.756   4.091  0.8991 -0.3172 -0.2250
   56CHL1  H11A 5285   1.762   4.724   4.064  1.6688  1.0945  0.9124
   56CHL1  H11B 5286   1.582   4.682   4.061 -1.4604  2.0373 -0.3357
   56CHL1    C9 5287   1.627   4.891   4.010  0.6690  0.0712  0.2341
   56CHL1    H9 5288   1.520   4.908   4.036  0.8719 -1.7464  2.5508
   56CHL1   C10 5289   1.631   4.869   3.855 -0.7996 -0.6721 -0.1139
   56CHL1   C19 5290   1.768   4.796   3.820 -0.0746 -0.6772  0.3095
   56CHL1  H19A 5291   1.773   4.794   3.709 -0.3747  1.0435  0.2447
   56CHL1  H19B 5292   1.853   4.856   3.858 -2.2506  1.7293  1.7240
   56CHL1  H19C 5293   1.759   4.693   3.863  0.7674 -0.2122  1.6785
   56CHL1    C1 5294   1.508   4.781   3.805  0.1636 -0.1928  0.0796
   56CHL1   H1A 5295   1.517   4.684   3.857  0.3724 -0.7323 -0.9339
   56CHL1   H1B 5296   1.419   4.834   3.847  1.5158  0.8266  1.7689
   56CHL1    C2 5297   1.489   4.757   3.655  0.3381  0.4248 -0.6800
   56CHL1   H2A 5298   1.401   4.691   3.641 -0.7564  1.5106  0.7370
   56CHL1   H2B 5299   1.573   4.694   3.618 -1.5048 -1.5349 -1.7624
   56CHL1   C20 5300   1.760   4.885   4.564 -0.2131 -0.0987  0.0181
   56CHL1   H20 5301   1.868   4.905   4.578 -0.1538 -0.0163 -0.5295
   56CHL1   C21 5302   1.750   4.734   4.562 -0.4079 -0.0308  0.1862
   56CHL1  H21A 5303   1.798   4.676   4.644  0.7724  0.6766  0.0230
   56CHL1  H21B 5304   1.803   4.702   4.470  1.3310 -0.5025  1.3074
   56CHL1  H21C 5305   1.647   4.698   4.542  0.0370 -0.0857 -2.3101
   56CHL1   C22 5306   1.685   4.937   4.692  1.1050  0.1195  0.1850
   56CHL1  H22A 5307   1.664   5.046   4.692  0.8710  0.0804  1.1831
   56CHL1  H22B 5308   1.587   4.884   4.692  1.2957 -0.2472 -0.7721
   56CHL1   C23 5309   1.773   4.928   4.816 -0.2671 -0.5544 -0.1548
   56CHL1  H23A 5310   1.794   4.819   4.831 -0.4214 -0.3089  2.2325
   56CHL1  H23B 5311   1.867   4.981   4.791 -1.3427 -0.0679 -3.5759
   56CHL1   C24 5312   1.717   5.005   4.936 -0.1534  0.0472  0.5232
   56CHL1  H24A 5313   1.709   5.113   4.912 -1.8045  0.1958  1.6040
   56CHL1  H24B 5314   1.612   4.971   4.941 -0.8119  1.3809 -2.3855
   56CHL1   C25 5315   1.806   4.992   5.070  0.0946 -0.1957 -0.4422
   56CHL1   H25 5316   1.896   5.056   5.062  0.2125  0.2393  3.0588
   56CHL1   C26 5317   1.727   5.055   5.184 -0.1016 -0.3464  0.4956
   56CHL1  H26A 5318   1.629   5.004   5.198 -0.9855  0.8376 -0.9607
   56CHL1  H26B 5319   1.775   5.055   5.284  1.0369  0.1835 -0.0332
   56CHL1  H26C 5320   1.695   5.159   5.159  0.6964 -0.3298 -0.5498
   56CHL1   C27 5321   1.831   4.847   5.105  0.8760 -0.1046  0.7567
   56CHL1  H27A 5322   1.732   4.795   5.107 -0.3637  2.1609  0.6944
   56CHL1  H27B 5323   1.897   4.797   5.031 -0.8102 -0.3993 -0.6144
   56CHL1  H27C 5324   1.868   4.834   5.209 -1.6791  0.9564  1.8766
   57CHL1    C3 5325   1.792   2.717   3.263 -0.7161 -0.6165 -1.0348
   57CHL1    H3 5326   1.701   2.654   3.276 -1.1700 -0.3102 -2.5162
   57CHL1    O3 5327   1.822   2.706   3.132 -0.2923  0.2147  0.0195
   57CHL1   H3' 5328   1.900   2.761   3.120 -0.3596  0.1364 -0.8866
   57CHL1    C4 5329   1.761   2.859   3.306 -0.4045 -0.1365  1.1610
   57CHL1   H4A 5330   1.849   2.924   3.285 -1.7170  2.0176  1.9007
   57CHL1   H4B 5331   1.681   2.896   3.238  0.9607  1.8436  0.5151
   57CHL1    C5 5332   1.725   2.861   3.452  0.1453 -0.5312 -0.2473
   57CHL1    C6 5333   1.606   2.916   3.476  0.6119 -0.4004  0.2345
   57CHL1    H6 5334   1.543   2.949   3.391 -0.1624  1.1165  1.3511
   57CHL1    C7 5335   1.558   2.934   3.616 -0.1857 -0.0562 -0.0848
   57CHL1   H7A 5336   1.513   3.033   3.638  1.2967  0.1992  2.0482
   57CHL1   H7B 5337   1.479   2.859   3.636 -0.4174 -0.4196 -2.1177
   57CHL1    C8 5338   1.674   2.913   3.718  0.1921  0.2251 -0.2103
   57CHL1    H8 5339   1.745   2.999   3.711  0.3306  0.1130 -0.1746
   57CHL1   C14 5340   1.621   2.901   3.866 -0.0773  0.1497 -0.4195
   57CHL1   H14 5341   1.567   2.804   3.868 -2.4029  1.3412 -1.7996
   57CHL1   C15 5342   1.534   3.017   3.918 -0.0857  0.2994  1.0560
   57CHL1  H15A 5343   1.582   3.113   3.890 -0.5614 -0.0298 -1.0749
   57CHL1  H15B 5344   1.430   3.019   3.879  1.1541  1.0651 -2.5908
   57CHL1   C16 5345   1.533   3.010   4.066 -0.6068  0.1365  0.1780
   57CHL1  H16A 5346   1.566   3.107   4.109  1.1291 -0.7952  1.0819
   57CHL1  H16B 5347   1.434   2.972   4.100 -1.4095 -0.8516 -2.9588
   57CHL1   C17 5348   1.640   2.901   4.104  0.6009 -0.0264 -0.0511
   57CHL1   H17 5349   1.593   2.800   4.112  0.9890 -0.1330  1.1270
   57CHL1   C13 5350   1.733   2.889   3.976  0.1467  0.1533 -0.5462
   57CHL1   C18 5351   1.852   2.994   3.978  0.1414 -0.0228  0.5044
   57CHL1  H18A 5352   1.888   3.009   3.874 -0.3889  2.6475  0.6211
   57CHL1  H18B 5353   1.801   3.082   4.024 -1.6991 -1.2603  0.8976
   57CHL1  H18C 5354   1.931   2.955   4.046  1.0419 -1.2865 -1.2070
   57CHL1   C12 5355   1.789   2.746   3.946 -0.2383  0.0843  0.0117
   57CHL1  H12A 5356   1.868   2.722   4.020 -1.8071 -1.4267  1.2638
   57CHL1  H12B 5357   1.718   2.665   3.971  0.2382 -0.1678  0.5562
   57CHL1   C11 5358   1.846   2.745   3.806  0.2577  0.1636  0.1809
   57CHL1  H11A 5359   1.928   2.820   3.797  1.6785 -1.5025 -1.5402
   57CHL1  H11B 5360   1.907   2.654   3.789  0.5803  0.7230 -1.9109
   57CHL1    C9 5361   1.749   2.786   3.690 -0.2828 -0.7733 -0.2824
   57CHL1    H9 5362   1.672   2.706   3.686 -1.5817  0.0358  3.4984
   57CHL1   C10 5363   1.820   2.799   3.552  0.2943 -0.0036 -0.6775
   57CHL1   C19 5364   1.956   2.878   3.553 -0.3141  0.5202 -0.7694
   57CHL1  H19A 5365   1.934   2.985   3.572 -2.2992 -0.1229  0.8997
   57CHL1  H19B 5366   2.020   2.847   3.638 -1.6683 -2.1024 -0.6031
   57CHL1  H19C 5367   2.015   2.862   3.461 -0.8846  3.5617 -1.7784
   57CHL1    C1 5368   1.855   2.656   3.497  0.4679  0.1143  0.0027
   57CHL1   H1A 5369   1.933   2.616   3.564  0.1176 -1.0363 -0.2519
   57CHL1   H1B 5370   1.768   2.588   3.504 -0.4088  0.9234 -2.0302
   57CHL1    C2 5371   1.908   2.660   3.348  0.5869 -0.9682 -0.2244
   57CHL1   H2A 5372   1.922   2.552   3.327 -1.1673 -1.1875 -0.4172
   57CHL1   H2B 5373   1.998   2.721   3.324 -0.4137  0.8986  0.5764
   57CHL1   C20 5374   1.715   2.927   4.242 -0.7392 -0.3235 -0.4419
   57CHL1   H20 5375   1.784   3.013   4.228 -1.7213  0.7602  1.0608
   57CHL1   C21 5376   1.791   2.801   4.284  0.3442 -0.4397  0.0470
   57CHL1  H21A 5377   1.843   2.828   4.378  0.6070  0.6133 -0.3855
   57CHL1  H21B 5378   1.877   2.784   4.217  0.6391 -0.7985  0.5118
   57CHL1  H21C 5379   1.720   2.716   4.290  0.1824 -0.2701  0.5636
   57CHL1   C22 5380   1.611   2.959   4.357 -0.0804 -0.4874  0.2800
   57CHL1  H22A 5381   1.665   2.988   4.450  1.6755 -3.2723  0.2589
   57CHL1  H22B 5382   1.550   3.043   4.319 -1.3587 -1.5143 -0.0087
   57CHL1   C23 5383   1.519   2.829   4.391 -1.1197 -0.6636  0.2383
   57CHL1  H23A 5384   1.481   2.786   4.296 -1.3138 -1.4888  0.6827
   57CHL1  H23B 5385   1.582   2.759   4.450 -0.4775 -1.1200 -0.9554
   57CHL1   C24 5386   1.404   2.873   4.477  0.3422  0.0193  0.3457
   57CHL1  H24A 5387   1.334   2.940   4.422  0.0976 -0.7811 -0.3353
   57CHL1  H24B 5388   1.335   2.787   4.489 -0.4386  0.5319 -0.3295
   57CHL1   C25 5389   1.437   2.925   4.614 -0.4252  0.3081 -0.1662
   57CHL1   H25 5390   1.470   3.030   4.596 -1.0663  0.1365 -2.9193
   57CHL1   C26 5391   1.316   2.924   4.693  0.4227  0.3966 -0.8732
   57CHL1  H26A 5392   1.245   2.842   4.672  0.5645 -0.0089  0.1573
   57CHL1  H26B 5393   1.333   2.901   4.801 -1.0464  0.6527 -0.5643
   57CHL1  H26C 5394   1.263   3.022   4.691  0.6933  0.6006  0.6938
   57CHL1   C27 5395   1.550   2.849   4.692  0.2892 -0.3531 -0.4895
   57CHL1  H27A 5396   1.643   2.855   4.632 -0.3121 -3.4470 -1.9616
   57CHL1  H27B 5397   1.563   2.891   4.793 -0.6051  0.5342 -0.7223
   57CHL1  H27C 5398   1.526   2.742   4.713 -0.0932 -0.0854  0.4958
   58CHL1    C3 5399   1.133   2.838   3.219  0.6367 -0.5726 -0.2865
   58CHL1    H3 5400   1.204   2.755   3.239  0.7293 -0.3604  0.2847
   58CHL1    O3 5401   1.136   2.880   3.085 -0.0545  0.1098 -0.2558
   58CHL1   H3' 5402   1.123   2.975   3.086 -1.0647  0.0095  1.7583
   58CHL1    C4 5403   0.985   2.809   3.246  0.2410  0.5156 -0.5301
   58CHL1   H4A 5404   0.919   2.887   3.203  0.0091  0.6579  0.0750
   58CHL1   H4B 5405   0.964   2.719   3.184  0.1351 -0.0756  0.3415
   58CHL1    C5 5406   0.952   2.791   3.393 -0.2409  0.0414 -0.2925
   58CHL1    C6 5407   0.900   2.675   3.436  0.2637  0.4410 -0.0486
   58CHL1    H6 5408   0.876   2.597   3.362  0.9449 -0.7267  0.9248
   58CHL1    C7 5409   0.871   2.642   3.580 -0.5499 -0.0319 -0.2388
   58CHL1   H7A 5410   0.771   2.608   3.613 -0.7424 -0.0357 -0.8191
   58CHL1   H7B 5411   0.947   2.564   3.604  1.5922  2.3920  1.4418
   58CHL1    C8 5412   0.904   2.749   3.688  0.3967 -0.4291 -0.3882
   58CHL1    H8 5413   0.813   2.812   3.703  1.3500  0.6949  0.8882
   58CHL1   C14 5414   0.933   2.687   3.819 -0.3233 -0.1751  0.5761
   58CHL1   H14 5415   1.027   2.631   3.799 -0.8970 -0.6579 -0.8943
   58CHL1   C15 5416   0.832   2.594   3.886 -0.6651 -0.5036 -0.1104
   58CHL1  H15A 5417   0.728   2.632   3.893 -1.6712 -2.7574 -1.5823
   58CHL1  H15B 5418   0.827   2.498   3.829 -0.6471 -2.2458  2.6305
   58CHL1   C16 5419   0.900   2.568   4.019  0.9132  0.1501 -0.4359
   58CHL1  H16A 5420   0.819   2.577   4.094  1.4808 -2.8017  0.6773
   58CHL1  H16B 5421   0.942   2.465   4.024  0.5921  0.0521  0.5710
   58CHL1   C17 5422   1.009   2.681   4.045  0.0179 -0.4581  0.0419
   58CHL1   H17 5423   1.109   2.642   4.020  1.9758  2.8884  1.9429
   58CHL1   C13 5424   0.976   2.787   3.930  0.8628 -0.4489 -0.7584
   58CHL1   C18 5425   0.849   2.871   3.971 -0.6063  0.2954 -0.0697
   58CHL1  H18A 5426   0.798   2.910   3.881  0.2696  1.1787 -0.1931
   58CHL1  H18B 5427   0.770   2.812   4.024 -3.3187  1.6037 -2.3995
   58CHL1  H18C 5428   0.885   2.965   4.019  0.1556  0.7512 -1.5020
   58CHL1   C12 5429   1.094   2.884   3.885  0.5699  0.1538  0.0738
   58CHL1  H12A 5430   1.109   2.958   3.967 -1.0733 -0.3964  0.9177
   58CHL1  H12B 5431   1.183   2.819   3.870  1.3853  1.0214  0.9647
   58CHL1   C11 5432   1.055   2.944   3.750 -0.2440 -0.1861 -0.5052
   58CHL1  H11A 5433   0.972   3.015   3.767  1.1865  1.6795 -0.8826
   58CHL1  H11B 5434   1.134   3.012   3.711 -1.3617  1.0880 -0.6010
   58CHL1    C9 5435   1.017   2.840   3.637  0.0288  1.1418 -0.3743
   58CHL1    H9 5436   1.105   2.771   3.630 -0.6536  0.2559 -0.3996
   58CHL1   C10 5437   1.008   2.899   3.492  0.6133  0.1858  0.5890
   58CHL1   C19 5438   0.900   3.014   3.486  0.5840  1.0151 -0.4375
   58CHL1  H19A 5439   0.868   3.060   3.390 -3.3271  0.9418  0.6759
   58CHL1  H19B 5440   0.808   2.972   3.532  1.5335  0.6234  1.1972
   58CHL1  H19C 5441   0.927   3.102   3.549 -1.3748  1.2302  0.1704
   58CHL1    C1 5442   1.149   2.941   3.449 -0.9146 -0.1037  0.7194
   58CHL1   H1A 5443   1.187   3.030   3.504  0.5198  0.5293 -1.1967
   58CHL1   H1B 5444   1.221   2.864   3.484  2.4261  1.7743 -1.4321
   58CHL1    C2 5445   1.186   2.958   3.298  0.2013 -0.1135  0.0695
   58CHL1   H2A 5446   1.294   2.984   3.287  0.6129 -1.8111 -0.1597
   58CHL1   H2B 5447   1.117   3.042   3.274  1.9624  1.2371 -0.5197
   58CHL1   C20 5448   1.008   2.737   4.193  0.5042  0.5676 -0.2932
   58CHL1   H20 5449   0.902   2.763   4.211  0.0758 -1.2570  0.0456
   58CHL1   C21 5450   1.093   2.864   4.216 -0.0958  0.4102 -0.3538
   58CHL1  H21A 5451   1.051   2.948   4.157 -2.4657  0.4710  1.2679
   58CHL1  H21B 5452   1.202   2.854   4.199 -0.2417 -2.1285 -0.1150
   58CHL1  H21C 5453   1.077   2.897   4.321  0.8942  0.1294 -0.1027
   58CHL1   C22 5454   1.045   2.620   4.291 -0.3466 -0.8560  0.0342
   58CHL1  H22A 5455   0.985   2.530   4.266 -3.6412  1.2109 -0.0602
   58CHL1  H22B 5456   1.152   2.603   4.264 -0.1483  2.0104 -1.4155
   58CHL1   C23 5457   1.026   2.643   4.446  0.2386 -0.4681 -0.0925
   58CHL1  H23A 5458   1.050   2.543   4.487 -0.3528 -0.8091 -0.5700
   58CHL1  H23B 5459   1.099   2.721   4.477 -0.9873 -0.2794  2.6122
   58CHL1   C24 5460   0.876   2.669   4.489 -0.1776 -0.1088  0.3273
   58CHL1  H24A 5461   0.840   2.749   4.420 -1.4014 -1.1393 -0.2645
   58CHL1  H24B 5462   0.814   2.578   4.480  0.3200 -0.3811 -0.4251
   58CHL1   C25 5463   0.849   2.716   4.632 -0.1891  0.0674 -0.5903
   58CHL1   H25 5464   0.739   2.721   4.644  0.1173  0.9047  3.0831
   58CHL1   C26 5465   0.897   2.617   4.740 -0.0759  0.1907 -0.2776
   58CHL1  H26A 5466   0.872   2.668   4.835  1.0817  1.6001 -0.7011
   58CHL1  H26B 5467   0.828   2.530   4.739 -1.5952  1.2950  1.7810
   58CHL1  H26C 5468   0.995   2.567   4.726  0.1771  1.0211 -1.6850
   58CHL1   C27 5469   0.904   2.855   4.669 -0.0106  0.3872  0.2624
   58CHL1  H27A 5470   1.013   2.848   4.650 -0.5294  0.9141 -3.6299
   58CHL1  H27B 5471   0.871   2.933   4.598 -0.5779 -0.9758 -1.0351
   58CHL1  H27C 5472   0.912   2.887   4.775 -0.9796  0.0867  0.4324
   59CHL1    C3 5473   6.610   1.823   3.649 -0.9739  0.2966  0.1422
   59CHL1    H3 5474   6.673   1.899   3.700 -0.1939 -0.6147  0.5554
   59CHL1    O3 5475   6.645   1.830   3.511  0.1904 -0.6021 -0.3594
   59CHL1   H3' 5476   6.567   1.788   3.472 -1.0168 -0.4057  1.6866
   59CHL1    C4 5477   6.644   1.686   3.710 -0.0149 -0.3399  0.1405
   59CHL1   H4A 5478   6.583   1.606   3.662  1.3715 -0.9057 -0.7679
   59CHL1   H4B 5479   6.750   1.661   3.687 -0.3171 -1.7319  0.1568
   59CHL1    C5 5480   6.617   1.696   3.858 -0.2677  0.2398 -1.2006
   59CHL1    C6 5481   6.715   1.681   3.953  0.3680  0.4672 -0.2106
   59CHL1    H6 5482   6.819   1.665   3.921 -0.4358 -1.3725 -2.1300
   59CHL1    C7 5483   6.684   1.671   4.102 -1.1777  0.5630  0.0312
   59CHL1   H7A 5484   6.762   1.605   4.144 -0.0591  1.4689 -0.5490
   59CHL1   H7B 5485   6.702   1.772   4.145  1.5437  0.7563 -1.3490
   59CHL1    C8 5486   6.543   1.627   4.126 -0.2583  0.3685 -0.4438
   59CHL1    H8 5487   6.540   1.524   4.083 -0.6164  1.0796 -2.2114
   59CHL1   C14 5488   6.516   1.636   4.273  0.0701 -0.1551 -0.1828
   59CHL1   H14 5489   6.525   1.744   4.297  0.1387 -0.4934  1.4834
   59CHL1   C15 5490   6.614   1.573   4.379 -0.1881 -0.5038 -0.2214
   59CHL1  H15A 5491   6.641   1.475   4.335  0.0942 -2.0610  3.0950
   59CHL1  H15B 5492   6.705   1.635   4.392 -0.7309  0.3176 -0.2444
   59CHL1   C16 5493   6.522   1.557   4.508 -0.3410  0.1306  0.1277
   59CHL1  H16A 5494   6.515   1.448   4.528  1.4068  0.0888  0.7418
   59CHL1  H16B 5495   6.564   1.617   4.591  2.1070  1.1392 -1.6908
   59CHL1   C17 5496   6.384   1.604   4.469  0.0272  0.8413 -0.3957
   59CHL1   H17 5497   6.386   1.714   4.484 -0.5492  0.8147 -0.1019
   59CHL1   C13 5498   6.376   1.599   4.314  0.5791 -0.3098  0.5132
   59CHL1   C18 5499   6.354   1.455   4.271  1.3438 -0.5371  0.3539
   59CHL1  H18A 5500   6.434   1.385   4.303  1.4276 -1.2337 -1.3033
   59CHL1  H18B 5501   6.260   1.413   4.314  0.8670  0.0969 -0.0534
   59CHL1  H18C 5502   6.338   1.452   4.161 -1.7176  0.4639  0.6745
   59CHL1   C12 5503   6.283   1.704   4.244  0.2407  0.4859 -0.4825
   59CHL1  H12A 5504   6.177   1.684   4.271  0.6292  0.8183  1.4401
   59CHL1  H12B 5505   6.308   1.805   4.284  0.1285 -0.0800  1.1034
   59CHL1   C11 5506   6.301   1.698   4.096 -0.4633 -0.5383 -0.6748
   59CHL1  H11A 5507   6.256   1.606   4.054  1.3870 -3.1091  2.5694
   59CHL1  H11B 5508   6.246   1.787   4.056  0.2722  0.4077  0.3513
   59CHL1    C9 5509   6.450   1.719   4.047  0.5031 -0.6820 -0.3951
   59CHL1    H9 5510   6.486   1.822   4.063  0.9004 -1.0179  0.9833
   59CHL1   C10 5511   6.467   1.704   3.890 -0.7318  0.0518 -0.4003
   59CHL1   C19 5512   6.378   1.592   3.843  0.3167  0.6934  0.6885
   59CHL1  H19A 5513   6.388   1.582   3.732  1.0382  0.3712  0.7797
   59CHL1  H19B 5514   6.392   1.495   3.894 -0.2779  0.9529  1.3576
   59CHL1  H19C 5515   6.273   1.627   3.851  0.6688  2.8929 -2.3166
   59CHL1    C1 5516   6.427   1.833   3.813  0.2671 -0.0866  0.6489
   59CHL1   H1A 5517   6.316   1.836   3.820  0.3188  0.4048  1.3919
   59CHL1   H1B 5518   6.464   1.929   3.855 -1.0623  1.3641 -1.2844
   59CHL1    C2 5519   6.460   1.854   3.661 -0.3802  0.4279  0.1855
   59CHL1   H2A 5520   6.428   1.956   3.633  1.4192  1.4156  1.5047
   59CHL1   H2B 5521   6.416   1.776   3.595 -0.5192  0.5214  0.1688
   59CHL1   C20 5522   6.256   1.572   4.551  0.3507 -0.0642 -0.7907
   59CHL1   H20 5523   6.177   1.583   4.473 -0.8068  0.0197  0.3621
   59CHL1   C21 5524   6.251   1.670   4.670  0.4755 -0.0766  0.0349
   59CHL1  H21A 5525   6.349   1.680   4.723  0.7838 -1.5077 -0.2312
   59CHL1  H21B 5526   6.170   1.630   4.734  1.2496 -2.0589 -0.1670
   59CHL1  H21C 5527   6.230   1.771   4.629 -0.7885 -0.5964 -0.6463
   59CHL1   C22 5528   6.255   1.426   4.611 -0.4516 -0.1094 -0.1664
   59CHL1  H22A 5529   6.285   1.357   4.529 -1.8801  0.7342 -1.4354
   59CHL1  H22B 5530   6.324   1.414   4.698 -3.5619 -2.5443  2.1872
   59CHL1   C23 5531   6.125   1.368   4.668  0.0267 -0.2309 -0.3954
   59CHL1  H23A 5532   6.112   1.413   4.769 -0.0251 -0.8522 -0.1238
   59CHL1  H23B 5533   6.043   1.399   4.599 -0.2071  1.8219  0.6967
   59CHL1   C24 5534   6.122   1.216   4.704 -0.1881 -0.5208 -0.3199
   59CHL1  H24A 5535   6.166   1.167   4.614  1.5529 -1.6484  1.0678
   59CHL1  H24B 5536   6.194   1.197   4.786 -0.5212  1.0883  0.3759
   59CHL1   C25 5537   5.984   1.167   4.746 -0.9785  0.4062  0.5763
   59CHL1   H25 5538   5.928   1.175   4.650  1.6117 -1.8278 -1.2445
   59CHL1   C26 5539   5.995   1.021   4.793 -0.5472 -0.7576  0.0936
   59CHL1  H26A 5540   6.048   0.953   4.723 -0.1659 -0.8546  0.4685
   59CHL1  H26B 5541   6.058   1.020   4.885  0.4913 -0.6682 -0.5997
   59CHL1  H26C 5542   5.891   0.985   4.803 -0.7405  0.1758  2.0311
   59CHL1   C27 5543   5.915   1.250   4.853 -0.3952  0.3537  0.2524
   59CHL1  H27A 5544   5.824   1.197   4.888 -0.7690  1.2281  0.6204
   59CHL1  H27B 5545   5.984   1.256   4.941 -1.5807 -0.7980  1.2942
   59CHL1  H27C 5546   5.890   1.351   4.815 -0.6719 -0.3016 -1.3945
   60CHL1    C3 5547   5.982   0.563   3.685  0.0379 -0.3651  0.4519
   60CHL1    H3 5548   5.945   0.661   3.646  1.2710 -0.3106 -0.6320
   60CHL1    O3 5549   6.102   0.525   3.623  1.0702  0.1031  0.1013
   60CHL1   H3' 5550   6.170   0.582   3.657  0.0010  1.3117  0.2720
   60CHL1    C4 5551   6.014   0.587   3.837 -0.2624 -0.4010  0.3769
   60CHL1   H4A 5552   6.060   0.499   3.886 -0.7167 -2.4569 -2.5841
   60CHL1   H4B 5553   6.098   0.659   3.852 -0.3179  0.2491 -1.9899
   60CHL1    C5 5554   5.886   0.621   3.903 -0.6230  0.6137 -0.2604
   60CHL1    C6 5555   5.874   0.743   3.959  0.4701  0.1489 -0.4593
   60CHL1    H6 5556   5.961   0.809   3.958  0.1364  0.5944 -0.2034
   60CHL1    C7 5557   5.750   0.782   4.037 -0.0939 -0.3795 -0.0958
   60CHL1   H7A 5558   5.766   0.839   4.131 -0.5250 -0.1326 -0.1666
   60CHL1   H7B 5559   5.694   0.855   3.974 -0.9251 -1.9573 -1.2605
   60CHL1    C8 5560   5.664   0.659   4.082 -0.7678 -0.4582  0.1002
   60CHL1    H8 5561   5.724   0.608   4.160  0.9344  1.3192  0.0456
   60CHL1   C14 5562   5.528   0.706   4.125 -0.2816 -0.5584 -0.8024
   60CHL1   H14 5563   5.486   0.751   4.033 -0.6167  0.1237 -0.3201
   60CHL1   C15 5564   5.521   0.813   4.237 -0.0275  0.1200  0.4947
   60CHL1  H15A 5565   5.585   0.796   4.326  0.9056  0.4078 -0.1112
   60CHL1  H15B 5566   5.539   0.912   4.190 -2.5377  0.1830 -0.4945
   60CHL1   C16 5567   5.373   0.810   4.287  0.9367 -0.0925  0.2248
   60CHL1  H16A 5568   5.389   0.781   4.393 -1.0569  0.4951  0.7218
   60CHL1  H16B 5569   5.312   0.901   4.302 -1.4577 -1.5100 -0.3087
   60CHL1   C17 5570   5.313   0.691   4.211 -0.4341  0.1618  0.0662
   60CHL1   H17 5571   5.284   0.739   4.116 -1.1787 -2.1095 -0.9102
   60CHL1   C13 5572   5.429   0.597   4.166  0.0284 -0.1450  0.2018
   60CHL1   C18 5573   5.471   0.513   4.286 -0.9782  0.0848  0.6068
   60CHL1  H18A 5574   5.570   0.465   4.267 -0.4547  1.7627 -1.1704
   60CHL1  H18B 5575   5.489   0.579   4.374 -2.1517  1.4956 -0.1677
   60CHL1  H18C 5576   5.400   0.430   4.307 -2.0035  0.1005 -2.3971
   60CHL1   C12 5577   5.403   0.515   4.042  0.2292  0.0079  0.4781
   60CHL1  H12A 5578   5.331   0.433   4.063  0.9165 -0.0871  2.7029
   60CHL1  H12B 5579   5.346   0.580   3.972 -1.6905  0.1403  2.0403
   60CHL1   C11 5580   5.532   0.453   3.990  0.1271  1.0672  0.1542
   60CHL1  H11A 5581   5.563   0.369   4.056  0.2609 -0.5247 -1.8283
   60CHL1  H11B 5582   5.513   0.407   3.890  3.4262 -0.4931  0.1288
   60CHL1    C9 5583   5.635   0.563   3.960 -0.8450 -0.5352  0.2505
   60CHL1    H9 5584   5.586   0.627   3.884  0.1055  0.0723  0.1359
   60CHL1   C10 5585   5.767   0.518   3.888 -0.4536  0.1978  0.5452
   60CHL1   C19 5586   5.821   0.391   3.965  0.4091  0.2632  0.2140
   60CHL1  H19A 5587   5.835   0.407   4.074 -1.0255  4.9074 -0.0626
   60CHL1  H19B 5588   5.749   0.309   3.944  0.1607  0.3520  0.7051
   60CHL1  H19C 5589   5.911   0.349   3.914 -0.2782 -0.0876 -0.7457
   60CHL1    C1 5590   5.742   0.490   3.739  0.0757 -0.6294  0.3572
   60CHL1   H1A 5591   5.665   0.411   3.728 -0.2466 -0.1597 -1.0465
   60CHL1   H1B 5592   5.701   0.582   3.691  1.6458 -0.5763 -0.9915
   60CHL1    C2 5593   5.871   0.461   3.660 -0.2330 -0.3029 -0.5076
   60CHL1   H2A 5594   5.847   0.447   3.552 -0.9499 -1.2397 -0.2423
   60CHL1   H2B 5595   5.907   0.363   3.696 -0.3778 -0.4568 -0.7712
   60CHL1   C20 5596   5.178   0.629   4.264  0.1356  0.2693  0.1302
   60CHL1   H20 5597   5.171   0.533   4.209 -1.0872  0.0015  0.7248
   60CHL1   C21 5598   5.062   0.711   4.202 -0.5937  0.4809 -0.5374
   60CHL1  H21A 5599   5.071   0.816   4.238 -0.7834  0.5530 -0.6956
   60CHL1  H21B 5600   4.969   0.672   4.249  0.2753  1.0167  1.7343
   60CHL1  H21C 5601   5.070   0.709   4.091 -1.5752  0.2315 -0.6113
   60CHL1   C22 5602   5.165   0.605   4.420 -0.2569  0.6805  0.1723
   60CHL1  H22A 5603   5.264   0.565   4.451  0.0173  1.5826  0.5159
   60CHL1  H22B 5604   5.128   0.696   4.473  2.3049  0.7959  1.9580
   60CHL1   C23 5605   5.067   0.496   4.471 -0.1609  0.0462  0.8336
   60CHL1  H23A 5606   4.962   0.519   4.442 -0.9418 -0.1884  3.2892
   60CHL1  H23B 5607   5.085   0.394   4.432  0.7094  0.0932  1.0925
   60CHL1   C24 5608   5.064   0.506   4.622  0.2371 -0.4353 -0.0095
   60CHL1  H24A 5609   5.168   0.485   4.656  0.9459  3.0002  0.3058
   60CHL1  H24B 5610   5.027   0.608   4.646 -1.9201 -1.1926  0.1756
   60CHL1   C25 5611   4.962   0.404   4.681  0.0766  0.4218  0.1859
   60CHL1   H25 5612   4.876   0.412   4.611 -0.3294 -0.0571  0.6173
   60CHL1   C26 5613   5.012   0.257   4.682 -0.2867 -0.5463 -0.5097
   60CHL1  H26A 5614   5.024   0.221   4.577  1.9338  0.1660 -0.5564
   60CHL1  H26B 5615   5.115   0.250   4.723  0.0576  1.5358 -0.9140
   60CHL1  H26C 5616   4.950   0.193   4.748 -0.7611  1.2467  0.8528
   60CHL1   C27 5617   4.916   0.440   4.825 -0.9227  0.7857  0.1113
   60CHL1  H27A 5618   4.814   0.402   4.849 -1.1735  1.2551 -0.1896
   60CHL1  H27B 5619   4.972   0.383   4.902 -2.3085 -0.5201  0.2040
   60CHL1  H27C 5620   4.918   0.550   4.843 -2.0010  0.6545  1.1791
   61CHL1    C3 5621   3.951   2.668   3.104  0.0188 -0.3697 -0.4683
   61CHL1    H3 5622   3.891   2.585   3.146 -0.0767 -0.0073  0.1214
   61CHL1    O3 5623   3.914   2.693   2.970  0.1539  0.5221 -0.1085
   61CHL1   H3' 5624   3.984   2.740   2.925  2.1630 -1.2160  1.0176
   61CHL1    C4 5625   3.926   2.802   3.190  0.4197  0.3410  0.3317
   61CHL1   H4A 5626   3.963   2.896   3.143 -0.4091  1.4212  1.7490
   61CHL1   H4B 5627   3.816   2.809   3.176  0.2713 -0.1098  1.2199
   61CHL1    C5 5628   3.977   2.799   3.330  0.1253 -0.3206  0.0883
   61CHL1    C6 5629   3.907   2.813   3.444 -0.0764  1.1118  0.9023
   61CHL1    H6 5630   3.798   2.832   3.441 -0.6110 -1.5471  0.9815
   61CHL1    C7 5631   3.962   2.802   3.584  0.5910 -0.8059  1.0191
   61CHL1   H7A 5632   3.905   2.869   3.651 -0.9481  0.4329 -1.3891
   61CHL1   H7B 5633   3.949   2.696   3.615 -0.4625 -1.0488 -0.1831
   61CHL1    C8 5634   4.116   2.816   3.586  0.2905  0.2062 -0.1576
   61CHL1    H8 5635   4.134   2.926   3.582 -3.0341  0.7911 -1.3191
   61CHL1   C14 5636   4.171   2.773   3.725 -0.0295  0.0260  0.8919
   61CHL1   H14 5637   4.141   2.666   3.724  0.1721 -0.0295  0.6877
   61CHL1   C15 5638   4.117   2.836   3.849 -0.2041 -0.2613  0.5048
   61CHL1  H15A 5639   4.111   2.947   3.847 -2.7710 -0.2518  2.5854
   61CHL1  H15B 5640   4.011   2.808   3.870 -0.5320 -0.0064 -0.7380
   61CHL1   C16 5641   4.214   2.777   3.953 -0.0523 -0.6200  0.0535
   61CHL1  H16A 5642   4.251   2.864   4.011  0.7948  0.1230 -1.5513
   61CHL1  H16B 5643   4.167   2.709   4.027 -2.4166  0.1895 -0.6051
   61CHL1   C17 5644   4.337   2.711   3.879  0.4100 -0.4791  0.3634
   61CHL1   H17 5645   4.323   2.602   3.866 -0.2737 -0.3201 -0.2932
   61CHL1   C13 5646   4.326   2.782   3.739  0.4740  0.7808 -0.0819
   61CHL1   C18 5647   4.372   2.938   3.762  0.4364 -0.2921 -0.3744
   61CHL1  H18A 5648   4.482   2.951   3.768  0.3928 -0.5630  1.3999
   61CHL1  H18B 5649   4.340   2.990   3.669 -1.0550 -1.6921 -0.7001
   61CHL1  H18C 5650   4.313   2.990   3.840 -0.0141 -1.7888  0.3171
   61CHL1   C12 5651   4.398   2.719   3.617 -0.6208  0.3726 -0.2404
   61CHL1  H12A 5652   4.506   2.748   3.623 -0.3251 -0.7687  0.3145
   61CHL1  H12B 5653   4.375   2.610   3.618 -0.2825  0.2601 -1.5916
   61CHL1   C11 5654   4.343   2.758   3.482 -0.4707 -1.1541  0.6334
   61CHL1  H11A 5655   4.364   2.867   3.474 -0.5870 -0.9795  2.4335
   61CHL1  H11B 5656   4.402   2.716   3.397  2.0119  2.1117  0.5450
   61CHL1    C9 5657   4.190   2.746   3.478  0.7181 -0.2769  0.6591
   61CHL1    H9 5658   4.169   2.640   3.504 -2.6559  0.6513  2.3237
   61CHL1   C10 5659   4.130   2.760   3.338 -0.2153 -0.2063 -0.2844
   61CHL1   C19 5660   4.216   2.876   3.263  0.1623 -0.2131  0.3550
   61CHL1  H19A 5661   4.323   2.848   3.262  1.1159  3.0333  0.8520
   61CHL1  H19B 5662   4.180   2.892   3.159  1.1493  0.0167  0.0471
   61CHL1  H19C 5663   4.210   2.971   3.321  1.6117  0.3816 -0.4116
   61CHL1    C1 5664   4.156   2.623   3.265 -0.0216 -0.3165  0.0933
   61CHL1   H1A 5665   4.264   2.601   3.276  0.1579  0.2126 -0.5243
   61CHL1   H1B 5666   4.099   2.545   3.319 -2.4698 -0.5754 -2.6320
   61CHL1    C2 5667   4.102   2.626   3.116  0.4030 -0.7919 -0.6247
   61CHL1   H2A 5668   4.126   2.526   3.076  0.3909 -0.2726 -1.9969
   61CHL1   H2B 5669   4.162   2.701   3.061 -0.8557 -0.2200 -1.2694
   61CHL1   C20 5670   4.470   2.734   3.954  0.2755  0.0716  0.4599
   61CHL1   H20 5671   4.482   2.844   3.960 -2.6477  0.4841  0.4113
   61CHL1   C21 5672   4.591   2.675   3.875  0.7706  0.0784  0.7061
   61CHL1  H21A 5673   4.609   2.730   3.781 -1.3295  0.5641  0.5550
   61CHL1  H21B 5674   4.566   2.570   3.846 -2.5258  1.0003 -0.1311
   61CHL1  H21C 5675   4.684   2.677   3.936  0.5747  3.2368  1.0307
   61CHL1   C22 5676   4.456   2.683   4.099  0.1517  1.3502 -0.5675
   61CHL1  H22A 5677   4.371   2.734   4.148  0.6166  3.2062 -1.6165
   61CHL1  H22B 5678   4.440   2.574   4.087 -2.8561  1.7019 -0.4042
   61CHL1   C23 5679   4.580   2.699   4.187  0.3527 -0.1750 -0.1512
   61CHL1  H23A 5680   4.669   2.637   4.163  1.4835  1.1106  0.5976
   61CHL1  H23B 5681   4.615   2.804   4.187  3.5400 -1.0344  2.8950
   61CHL1   C24 5682   4.559   2.661   4.335  1.2454 -0.1592  0.1478
   61CHL1  H24A 5683   4.484   2.732   4.375  0.9339  1.0001 -2.3068
   61CHL1  H24B 5684   4.522   2.557   4.346 -0.1262  0.4362  1.5354
   61CHL1   C25 5685   4.675   2.680   4.435 -0.6627  0.4531 -0.2929
   61CHL1   H25 5686   4.630   2.654   4.534 -2.2407  1.2225 -0.7639
   61CHL1   C26 5687   4.792   2.581   4.395  0.1368  0.3599  0.2978
   61CHL1  H26A 5688   4.837   2.616   4.299  1.1777  1.7640  1.2668
   61CHL1  H26B 5689   4.871   2.593   4.471  1.0471  0.6458 -0.6624
   61CHL1  H26C 5690   4.758   2.477   4.373  1.9312 -0.5211  1.5388
   61CHL1   C27 5691   4.728   2.823   4.446 -0.1708  0.0872  0.0157
   61CHL1  H27A 5692   4.640   2.885   4.474 -1.0037 -0.1078 -2.0683
   61CHL1  H27B 5693   4.808   2.826   4.524  1.1950  0.7652 -1.3651
   61CHL1  H27C 5694   4.763   2.865   4.349 -0.2387  0.8310  0.3086
   62CHL1    C3 5695   3.439   4.389   3.358  0.6104 -0.2358  0.0711
   62CHL1    H3 5696   3.360   4.314   3.373  0.3744  0.2351  1.3014
   62CHL1    O3 5697   3.453   4.402   3.217  0.1576 -0.3777  0.5530
   62CHL1   H3' 5698   3.493   4.489   3.207 -1.6755  0.4253 -0.2814
   62CHL1    C4 5699   3.385   4.513   3.427  0.1474 -0.0060  0.2994
   62CHL1   H4A 5700   3.443   4.602   3.395 -1.9643  1.4483  0.3851
   62CHL1   H4B 5701   3.286   4.531   3.382  1.4702 -1.3175 -3.5355
   62CHL1    C5 5702   3.387   4.489   3.578  0.3121  0.3557  0.6367
   62CHL1    C6 5703   3.268   4.496   3.645 -0.5354  0.4970 -0.8124
   62CHL1    H6 5704   3.171   4.507   3.595 -2.2238 -1.9076  1.6302
   62CHL1    C7 5705   3.262   4.481   3.791  0.1547 -0.0364 -0.1133
   62CHL1   H7A 5706   3.188   4.557   3.824  0.5032  0.1488  0.2592
   62CHL1   H7B 5707   3.227   4.381   3.823  0.5278  0.2377  1.2642
   62CHL1    C8 5708   3.397   4.508   3.864  0.9030 -0.1252 -0.5945
   62CHL1    H8 5709   3.426   4.613   3.842  0.2899 -0.1556 -1.6338
   62CHL1   C14 5710   3.381   4.480   4.011 -0.2415  0.5994 -0.2864
   62CHL1   H14 5711   3.342   4.376   4.025 -0.2763  0.7124  0.5469
   62CHL1   C15 5712   3.284   4.572   4.089  0.4555 -0.2391 -0.0510
   62CHL1  H15A 5713   3.303   4.679   4.065 -1.4809  0.1185 -0.1097
   62CHL1  H15B 5714   3.182   4.546   4.056 -0.0710  0.7783  0.7190
   62CHL1   C16 5715   3.330   4.544   4.233 -0.1351 -0.1780  0.0249
   62CHL1  H16A 5716   3.345   4.638   4.290 -0.8150 -0.0123 -0.0602
   62CHL1  H16B 5717   3.256   4.479   4.283  1.5949 -1.2650  1.2782
   62CHL1   C17 5718   3.466   4.458   4.227  0.2241 -1.2145  0.3227
   62CHL1   H17 5719   3.430   4.353   4.220 -3.8882  0.0891 -2.0086
   62CHL1   C13 5720   3.515   4.480   4.086 -0.4935 -0.3521 -0.3788
   62CHL1   C18 5721   3.579   4.618   4.084  0.2638 -0.0438 -0.2273
   62CHL1  H18A 5722   3.516   4.684   4.147  0.2835 -0.4533  0.2249
   62CHL1  H18B 5723   3.675   4.623   4.139  0.5782  1.5874 -0.8361
   62CHL1  H18C 5724   3.599   4.665   3.985 -0.4883  1.2842  0.2210
   62CHL1   C12 5725   3.607   4.373   4.024  0.9005  0.3101 -0.0997
   62CHL1  H12A 5726   3.700   4.361   4.083  0.4715  0.1381  0.5540
   62CHL1  H12B 5727   3.556   4.275   4.021  0.3263  0.6140 -0.5982
   62CHL1   C11 5728   3.630   4.415   3.882 -0.1368 -0.2312  0.4083
   62CHL1  H11A 5729   3.683   4.513   3.881 -2.5371  1.1386 -0.9018
   62CHL1  H11B 5730   3.693   4.347   3.822 -0.6467  1.7440 -2.5926
   62CHL1    C9 5731   3.504   4.423   3.799  0.8702 -0.1240 -0.1805
   62CHL1    H9 5732   3.457   4.322   3.805 -1.9555  1.1861  2.3465
   62CHL1   C10 5733   3.521   4.457   3.646  0.3664 -0.3666  0.0463
   62CHL1   C19 5734   3.615   4.580   3.632 -0.0943  0.2012 -0.5448
   62CHL1  H19A 5735   3.612   4.610   3.525 -0.6414 -0.4961 -0.7359
   62CHL1  H19B 5736   3.573   4.666   3.690  1.0293  0.7775 -0.5631
   62CHL1  H19C 5737   3.718   4.566   3.670 -0.2687 -2.0052 -0.7834
   62CHL1    C1 5738   3.574   4.334   3.572 -0.2637  0.5324 -0.4406
   62CHL1   H1A 5739   3.679   4.312   3.602  0.5881  3.0114 -1.3532
   62CHL1   H1B 5740   3.517   4.245   3.606  0.5965 -0.4662 -1.5149
   62CHL1    C2 5741   3.576   4.340   3.415  0.3282 -0.0940 -0.1390
   62CHL1   H2A 5742   3.598   4.236   3.380 -2.2011 -1.5603  2.1665
   62CHL1   H2B 5743   3.652   4.413   3.381  1.4737 -0.0535  2.3339
   62CHL1   C20 5744   3.555   4.486   4.348  0.7159  0.1637 -0.5611
   62CHL1   H20 5745   3.584   4.591   4.373  0.5481 -0.2560  1.6493
   62CHL1   C21 5746   3.673   4.394   4.353 -0.3099 -0.0129 -0.0104
   62CHL1  H21A 5747   3.743   4.407   4.439 -0.3274 -2.2611  0.4188
   62CHL1  H21B 5748   3.732   4.416   4.262 -0.4220  1.3564  0.2251
   62CHL1  H21C 5749   3.644   4.287   4.352 -2.4546  0.5092 -2.4846
   62CHL1   C22 5750   3.474   4.448   4.470 -0.0022  0.2318 -0.0363
   62CHL1  H22A 5751   3.380   4.508   4.477 -0.1989 -0.1486  0.6400
   62CHL1  H22B 5752   3.442   4.342   4.454  0.2540  0.2398 -0.6334
   62CHL1   C23 5753   3.543   4.472   4.602  0.2793 -0.1235 -0.0434
   62CHL1  H23A 5754   3.619   4.393   4.623 -0.7281 -0.8351  1.0730
   62CHL1  H23B 5755   3.590   4.572   4.603  0.4865 -0.2093 -0.9810
   62CHL1   C24 5756   3.445   4.465   4.719  0.8680 -0.2795 -0.1844
   62CHL1  H24A 5757   3.402   4.567   4.723  1.6544  0.0228  2.1349
   62CHL1  H24B 5758   3.360   4.397   4.700  1.0037 -0.3847 -0.4188
   62CHL1   C25 5759   3.497   4.440   4.860  0.7079 -0.3465 -0.1619
   62CHL1   H25 5760   3.407   4.439   4.924 -0.3326  1.4582 -1.4851
   62CHL1   C26 5761   3.565   4.296   4.880  0.0428 -0.2529  0.7828
   62CHL1  H26A 5762   3.601   4.297   4.985  1.9312  1.0971  0.1699
   62CHL1  H26B 5763   3.490   4.219   4.853 -0.7661  0.7379  0.0905
   62CHL1  H26C 5764   3.658   4.293   4.820  1.7774  1.1392  3.2603
   62CHL1   C27 5765   3.582   4.550   4.915 -0.5966  0.4735 -0.2354
   62CHL1  H27A 5766   3.612   4.517   5.017 -1.7965 -2.3562 -0.7066
   62CHL1  H27B 5767   3.674   4.553   4.853 -0.8602 -1.9099 -0.8304
   62CHL1  H27C 5768   3.526   4.646   4.922 -0.9448  0.1407  2.4857
   63CHL1    C3 5769   0.743   6.296   2.915  0.4315  0.1589  0.7399
   63CHL1    H3 5770   0.840   6.243   2.908 -1.1287 -2.8373 -0.1103
   63CHL1    O3 5771   0.703   6.323   2.781 -0.1235 -0.0293 -0.2981
   63CHL1   H3' 5772   0.633   6.260   2.761 -1.6346  1.9047 -1.4980
   63CHL1    C4 5773   0.637   6.206   2.987 -0.7040 -0.0304 -0.0590
   63CHL1   H4A 5774   0.533   6.247   2.980 -0.7357 -0.2146 -0.7265
   63CHL1   H4B 5775   0.627   6.114   2.926 -2.0044  0.0849 -0.0478
   63CHL1    C5 5776   0.666   6.175   3.133  0.2620 -1.1253  0.4040
   63CHL1    C6 5777   0.679   6.051   3.175 -0.2446  0.5301  0.4734
   63CHL1    H6 5778   0.666   5.972   3.100 -1.7609 -0.2184  1.4893
   63CHL1    C7 5779   0.698   6.017   3.316 -0.3159  0.1784  0.2021
   63CHL1   H7A 5780   0.632   5.933   3.345 -1.6642  0.9617 -0.5004
   63CHL1   H7B 5781   0.797   5.967   3.319 -1.5080 -2.3571 -0.0292
   63CHL1    C8 5782   0.683   6.139   3.408  0.0464  0.2513 -0.2852
   63CHL1    H8 5783   0.575   6.163   3.420  0.3556  1.0227  1.1301
   63CHL1   C14 5784   0.746   6.106   3.546 -0.3492 -0.4430 -0.1828
   63CHL1   H14 5785   0.853   6.094   3.518  0.2982 -0.1560  2.0041
   63CHL1   C15 5786   0.718   5.971   3.610 -0.6786 -0.4543  0.4630
   63CHL1  H15A 5787   0.609   5.947   3.603 -1.0252  0.7759  1.2362
   63CHL1  H15B 5788   0.770   5.880   3.574 -2.9280 -2.0641  1.0459
   63CHL1   C16 5789   0.766   5.999   3.758  0.4316  0.2211  0.3490
   63CHL1  H16A 5790   0.682   5.975   3.828 -0.1856 -1.9279 -0.9991
   63CHL1  H16B 5791   0.851   5.929   3.774 -2.3472 -3.4086  0.6620
   63CHL1   C17 5792   0.817   6.140   3.761  0.4993 -0.6679  0.4829
   63CHL1   H17 5793   0.926   6.145   3.738  0.3640  4.2503 -0.1657
   63CHL1   C13 5794   0.749   6.211   3.651  0.4497 -0.0964 -0.1849
   63CHL1   C18 5795   0.602   6.250   3.692  0.3126 -0.0555 -0.1597
   63CHL1  H18A 5796   0.611   6.317   3.780 -0.8829 -1.1165  0.7960
   63CHL1  H18B 5797   0.550   6.312   3.616  0.3164  1.7502  1.2200
   63CHL1  H18C 5798   0.545   6.162   3.728 -0.3497 -0.8212 -2.8738
   63CHL1   C12 5799   0.817   6.336   3.596 -0.0650  0.1593 -0.1544
   63CHL1  H12A 5800   0.828   6.422   3.666 -0.3763  0.4906 -0.5088
   63CHL1  H12B 5801   0.918   6.301   3.566 -0.5216 -0.1715 -1.3494
   63CHL1   C11 5802   0.755   6.378   3.458 -0.0755  0.3225 -0.2660
   63CHL1  H11A 5803   0.654   6.419   3.480  0.5072  0.9734  1.3104
   63CHL1  H11B 5804   0.811   6.455   3.401 -1.4210  0.6337 -1.2131
   63CHL1    C9 5805   0.755   6.261   3.351 -0.2190 -0.1774 -0.5664
   63CHL1    H9 5806   0.860   6.229   3.331 -0.2850 -0.7908  0.0406
   63CHL1   C10 5807   0.689   6.304   3.215 -0.2074  0.4366  0.5401
   63CHL1   C19 5808   0.556   6.375   3.232 -0.8978  0.3618 -0.1282
   63CHL1  H19A 5809   0.481   6.324   3.295 -3.4114  2.0201 -1.6041
   63CHL1  H19B 5810   0.573   6.477   3.273 -0.2984  0.7039 -1.1954
   63CHL1  H19C 5811   0.503   6.381   3.134  0.9811 -2.5826 -1.4838
   63CHL1    C1 5812   0.797   6.399   3.141  0.1708  0.2661  1.1950
   63CHL1   H1A 5813   0.795   6.498   3.191  1.4859 -0.2991  2.4535
   63CHL1   H1B 5814   0.897   6.352   3.156 -0.3412 -1.3651 -0.2272
   63CHL1    C2 5815   0.766   6.427   2.992 -0.7583  0.0372  0.3394
   63CHL1   H2A 5816   0.854   6.472   2.941  0.3472  1.6726  3.3959
   63CHL1   H2B 5817   0.682   6.497   2.974 -0.2298  0.0739 -2.3567
   63CHL1   C20 5818   0.812   6.194   3.910  0.9288 -0.7046  0.4570
   63CHL1   H20 5819   0.705   6.181   3.939  0.5103 -0.8717 -1.0986
   63CHL1   C21 5820   0.851   6.353   3.915  0.4145 -0.6781 -0.2914
   63CHL1  H21A 5821   0.843   6.391   4.019  2.5726 -2.8108  0.7798
   63CHL1  H21B 5822   0.774   6.412   3.862 -0.1490 -0.2629  0.9462
   63CHL1  H21C 5823   0.954   6.361   3.873 -0.3177 -0.6650 -2.1926
   63CHL1   C22 5824   0.895   6.111   4.008  0.7885  0.5208  0.0216
   63CHL1  H22A 5825   0.852   6.008   4.007  2.3246 -0.1396 -0.4195
   63CHL1  H22B 5826   0.995   6.094   3.963  0.5362  0.6850 -0.6042
   63CHL1   C23 5827   0.892   6.145   4.155  0.4005 -0.3301  0.2169
   63CHL1  H23A 5828   0.945   6.242   4.158 -0.0187 -0.1148  2.7159
   63CHL1  H23B 5829   0.788   6.176   4.177  1.6119  2.8656  2.0807
   63CHL1   C24 5830   0.942   6.040   4.248 -0.6393 -0.1557 -1.0291
   63CHL1  H24A 5831   0.870   5.957   4.258 -1.3264  0.7069  2.1752
   63CHL1  H24B 5832   1.041   6.000   4.219 -1.1639 -3.2123  0.9618
   63CHL1   C25 5833   0.958   6.097   4.392 -0.3580  0.6495  0.3322
   63CHL1   H25 5834   1.031   6.180   4.397  0.6666 -0.1722 -0.5512
   63CHL1   C26 5835   0.830   6.155   4.444  0.7250  0.2580  0.4247
   63CHL1  H26A 5836   0.839   6.178   4.553 -1.0124 -1.0393  0.8764
   63CHL1  H26B 5837   0.792   6.245   4.391 -0.7546 -1.0490 -0.8088
   63CHL1  H26C 5838   0.749   6.081   4.430  1.0783 -0.0429 -0.0393
   63CHL1   C27 5839   1.001   5.990   4.494 -0.2288 -0.4943  0.3650
   63CHL1  H27A 5840   0.979   6.018   4.599  1.3367  1.7962  0.1488
   63CHL1  H27B 5841   0.950   5.896   4.465 -1.1712  0.3081 -0.6678
   63CHL1  H27C 5842   1.111   5.973   4.489 -0.2236 -2.0611  3.4200
   64CHL1    C3 5843   3.638   0.378   4.695  0.1671  0.3890 -0.1231
   64CHL1    H3 5844   3.580   0.470   4.718 -1.8360 -1.2909  1.9497
   64CHL1    O3 5845   3.671   0.394   4.552 -0.1312  0.5662 -0.3080
   64CHL1   H3' 5846   3.637   0.474   4.512  0.7259  0.3700 -1.5148
   64CHL1    C4 5847   3.760   0.361   4.789 -0.1944 -0.2430 -0.2707
   64CHL1   H4A 5848   3.829   0.287   4.746  2.0325  0.8931  1.1508
   64CHL1   H4B 5849   3.820   0.452   4.768  1.4805 -1.0535  0.7820
   64CHL1    C5 5850   3.712   0.334   4.937  1.7087  0.3361  0.1195
   64CHL1    C6 5851   3.755   0.409   5.034 -0.1162 -0.0470 -0.8058
   64CHL1    H6 5852   3.834   0.480   5.004 -0.1531  0.7758  0.9135
   64CHL1    C7 5853   3.715   0.404   5.177  0.0138 -0.1136  0.1308
   64CHL1   H7A 5854   3.798   0.415   5.250 -1.3911  1.7801  1.5556
   64CHL1   H7B 5855   3.650   0.494   5.181 -0.8979 -0.7480 -0.0824
   64CHL1    C8 5856   3.636   0.277   5.214 -0.2358  0.3824  0.4742
   64CHL1    H8 5857   3.724   0.210   5.222 -0.2454  0.1591 -0.9990
   64CHL1   C14 5858   3.560   0.290   5.349 -0.3699 -0.6859  0.3593
   64CHL1   H14 5859   3.486   0.369   5.329 -1.1636 -1.8988 -1.7057
   64CHL1   C15 5860   3.631   0.346   5.474  0.4026 -1.0176 -0.7679
   64CHL1  H15A 5861   3.729   0.297   5.494  0.3118 -0.3704  1.6357
   64CHL1  H15B 5862   3.644   0.454   5.453  3.1664 -0.6759  1.9106
   64CHL1   C16 5863   3.534   0.311   5.591 -0.4542  0.3016  0.4186
   64CHL1  H16A 5864   3.598   0.250   5.658  2.0941  2.1027 -0.2107
   64CHL1  H16B 5865   3.493   0.395   5.652  1.1904  1.5195 -0.0725
   64CHL1   C17 5866   3.426   0.215   5.528  0.7322  0.6025 -0.1980
   64CHL1   H17 5867   3.343   0.280   5.497 -0.2725 -0.7872 -0.5248
   64CHL1   C13 5868   3.491   0.161   5.397  0.5850  0.5435  0.8160
   64CHL1   C18 5869   3.593   0.047   5.435  0.9773  0.5185  0.3002
   64CHL1  H18A 5870   3.657   0.090   5.514  2.4635  0.1910 -0.6780
   64CHL1  H18B 5871   3.553  -0.048   5.478 -0.0992  1.4982  1.5464
   64CHL1  H18C 5872   3.648   0.018   5.343  0.9044  0.3740  0.3007
   64CHL1   C12 5873   3.397   0.110   5.286  0.1645  0.1873  0.0237
   64CHL1  H12A 5874   3.358   0.010   5.316 -2.0335  0.6997 -0.9787
   64CHL1  H12B 5875   3.319   0.189   5.279  1.1427  1.1584 -0.1018
   64CHL1   C11 5876   3.466   0.102   5.147  0.1432 -0.3158 -0.2138
   64CHL1  H11A 5877   3.523   0.007   5.157  0.6340  0.0014  0.0163
   64CHL1  H11B 5878   3.387   0.073   5.075 -1.0436  2.7660 -0.2866
   64CHL1    C9 5879   3.542   0.233   5.099  0.3926 -0.1901 -0.0903
   64CHL1    H9 5880   3.461   0.310   5.095 -1.6468 -2.0218  2.4019
   64CHL1   C10 5881   3.604   0.226   4.954  0.2013 -0.2773 -0.0396
   64CHL1   C19 5882   3.685   0.085   4.964  0.2909  0.2173  0.2413
   64CHL1  H19A 5883   3.732   0.059   4.867  0.5679 -1.7103  0.8548
   64CHL1  H19B 5884   3.768   0.095   5.037  0.5111  1.8605 -0.1729
   64CHL1  H19C 5885   3.619  -0.003   4.975  0.9264 -0.6760 -2.3632
   64CHL1    C1 5886   3.495   0.225   4.844 -0.4186  0.7308 -0.2290
   64CHL1   H1A 5887   3.451   0.123   4.842 -0.4329  0.7419 -0.9502
   64CHL1   H1B 5888   3.418   0.300   4.874 -2.5748 -1.8984  1.2268
   64CHL1    C2 5889   3.540   0.254   4.705 -0.3961 -0.3093 -0.4566
   64CHL1   H2A 5890   3.454   0.271   4.638 -0.4113 -0.4643 -0.4756
   64CHL1   H2B 5891   3.595   0.162   4.675  2.6310  1.0494  0.4364
   64CHL1   C20 5892   3.370   0.114   5.629  0.0304  0.1032  0.2413
   64CHL1   H20 5893   3.452   0.039   5.641  0.3560  0.5159  0.6148
   64CHL1   C21 5894   3.243   0.039   5.574  0.0045 -0.0329 -0.2596
   64CHL1  H21A 5895   3.211  -0.033   5.652 -0.1404  0.2105 -0.0937
   64CHL1  H21B 5896   3.265  -0.013   5.479  1.0294  2.2484 -1.3484
   64CHL1  H21C 5897   3.163   0.114   5.557 -0.1911 -0.1272  0.2185
   64CHL1   C22 5898   3.343   0.159   5.775  0.0492 -0.1865 -0.0924
   64CHL1  H22A 5899   3.416   0.235   5.811 -0.8627  0.2342  0.9399
   64CHL1  H22B 5900   3.241   0.203   5.776  0.2538  0.4182 -2.0848
   64CHL1   C23 5901   3.351   0.045   5.880  0.0712 -0.3003  0.7498
   64CHL1  H23A 5902   3.293  -0.044   5.847 -0.7193 -0.3879  2.3237
   64CHL1  H23B 5903   3.454   0.019   5.914  0.0867 -1.1662  0.0894
   64CHL1   C24 5904   3.273   0.085   6.002 -0.3813  0.4586 -0.3367
   64CHL1  H24A 5905   3.271   0.194   6.024 -0.8887  0.0932  1.5606
   64CHL1  H24B 5906   3.167   0.065   5.974 -0.9001  0.8971  1.1997
   64CHL1   C25 5907   3.289   0.004   6.129  0.1275 -0.1512 -0.7566
   64CHL1   H25 5908   3.211   0.036   6.202  0.2491 -2.1298  0.3180
   64CHL1   C26 5909   3.271  -0.140   6.104 -0.4064 -0.3092  0.0297
   64CHL1  H26A 5910   3.183  -0.166   6.041  0.2926  1.0586 -1.5997
   64CHL1  H26B 5911   3.355  -0.181   6.045 -1.6945 -1.7048 -0.9193
   64CHL1  H26C 5912   3.263  -0.190   6.202 -2.6688 -0.7864 -0.3449
   64CHL1   C27 5913   3.423   0.023   6.196  0.1388 -0.5854 -0.4631
   64CHL1  H27A 5914   3.507  -0.023   6.139  0.4203 -1.0072  0.2752
   64CHL1  H27B 5915   3.450   0.127   6.224 -0.3858 -1.2054  2.7770
   64CHL1  H27C 5916   3.424  -0.044   6.285  1.1483 -1.2898 -0.9836
   65CHL1    C3 5917   3.432   5.111   3.107 -0.3673  0.2134 -0.2765
   65CHL1    H3 5918   3.351   5.187   3.098 -0.6219 -0.0910 -0.5606
   65CHL1    O3 5919   3.460   5.061   2.976 -0.1866  0.0975 -0.8174
   65CHL1   H3' 5920   3.517   4.984   2.980 -2.5578 -1.7493  0.1698
   65CHL1    C4 5921   3.559   5.167   3.172  0.1121 -0.5362  0.8553
   65CHL1   H4A 5922   3.647   5.099   3.163 -0.6510 -1.3797 -0.6559
   65CHL1   H4B 5923   3.578   5.269   3.131 -0.6293 -0.6644  0.1552
   65CHL1    C5 5924   3.536   5.189   3.320 -0.2048 -0.3398 -0.1842
   65CHL1    C6 5925   3.552   5.315   3.362 -0.6084  0.3175  0.2462
   65CHL1    H6 5926   3.577   5.398   3.294 -0.5489 -0.5205 -0.7907
   65CHL1    C7 5927   3.546   5.351   3.506  0.4158  0.6977 -1.1248
   65CHL1   H7A 5928   3.627   5.423   3.530  0.7920 -0.0236 -0.1543
   65CHL1   H7B 5929   3.445   5.396   3.521 -0.0008 -0.7056  0.6425
   65CHL1    C8 5930   3.548   5.227   3.599 -0.0837  0.3485 -0.0384
   65CHL1    H8 5931   3.652   5.188   3.598 -0.2918 -0.4810  2.6915
   65CHL1   C14 5932   3.505   5.263   3.740  0.4629  0.4006  0.0926
   65CHL1   H14 5933   3.399   5.295   3.731  1.1452  2.4893 -1.2773
   65CHL1   C15 5934   3.574   5.389   3.802  0.5860  0.1373 -0.7390
   65CHL1  H15A 5935   3.683   5.385   3.781  0.5103  0.5411 -1.2258
   65CHL1  H15B 5936   3.530   5.486   3.770  1.2182  0.7487  0.1677
   65CHL1   C16 5937   3.539   5.371   3.950 -1.0686 -0.2889  0.5142
   65CHL1  H16A 5938   3.629   5.376   4.015  0.2105 -0.0797 -1.1824
   65CHL1  H16B 5939   3.474   5.455   3.982 -1.2257  0.7042 -2.1641
   65CHL1   C17 5940   3.466   5.231   3.969  0.1716 -0.3102 -0.3177
   65CHL1   H17 5941   3.357   5.249   3.963  0.0254 -1.0581 -0.0511
   65CHL1   C13 5942   3.507   5.153   3.839  0.0321 -0.2176  0.0822
   65CHL1   C18 5943   3.649   5.101   3.859  0.1064 -0.1612 -0.0566
   65CHL1  H18A 5944   3.646   5.004   3.913 -1.0526 -0.8903 -1.3656
   65CHL1  H18B 5945   3.703   5.080   3.764 -0.7636 -0.8895 -0.4065
   65CHL1  H18C 5946   3.705   5.179   3.915 -1.0625  1.9419 -1.6282
   65CHL1   C12 5947   3.405   5.046   3.795  0.1618  0.5981  0.7188
   65CHL1  H12A 5948   3.428   4.955   3.855 -0.8126  1.6311  2.7631
   65CHL1  H12B 5949   3.298   5.074   3.807 -0.5910 -1.7681  0.1763
   65CHL1   C11 5950   3.446   5.001   3.645  0.5796 -0.1972 -0.4085
   65CHL1  H11A 5951   3.542   4.945   3.650  1.4630  1.2516 -0.3463
   65CHL1  H11B 5952   3.381   4.926   3.595 -0.0255 -1.1280  1.6377
   65CHL1    C9 5953   3.456   5.119   3.548  0.3223 -0.2383  0.0495
   65CHL1    H9 5954   3.355   5.164   3.546 -0.4835 -1.9710 -0.3974
   65CHL1   C10 5955   3.487   5.076   3.404  0.3956  1.0589  0.1442
   65CHL1   C19 5956   3.603   4.977   3.413 -0.1396  0.0864 -0.6584
   65CHL1  H19A 5957   3.679   4.995   3.491  1.7559  0.0809 -2.4262
   65CHL1  H19B 5958   3.556   4.883   3.450  0.0867  0.4975  0.7405
   65CHL1  H19C 5959   3.650   4.934   3.322 -2.1563 -0.8959 -1.3161
   65CHL1    C1 5960   3.365   5.013   3.339  0.5279  0.2271 -0.4042
   65CHL1   H1A 5961   3.324   4.919   3.382 -0.0347 -0.0441 -1.4941
   65CHL1   H1B 5962   3.292   5.093   3.364 -0.3088 -0.8208  0.5691
   65CHL1    C2 5963   3.382   4.996   3.184  0.6557  0.3122 -1.0191
   65CHL1   H2A 5964   3.281   4.970   3.147 -1.1908  1.4531  2.6567
   65CHL1   H2B 5965   3.434   4.899   3.171  2.0242  0.6428  1.2137
   65CHL1   C20 5966   3.491   5.181   4.113 -0.6258 -0.0029  0.8416
   65CHL1   H20 5967   3.597   5.150   4.125 -0.8474 -1.0624  0.0958
   65CHL1   C21 5968   3.393   5.061   4.134 -0.3072 -0.1009  0.6170
   65CHL1  H21A 5969   3.293   5.091   4.096  0.4030  0.8359 -0.5809
   65CHL1  H21B 5970   3.389   5.031   4.241 -2.5616 -3.5317 -0.2792
   65CHL1  H21C 5971   3.431   4.965   4.093 -1.1335 -1.5881  3.1275
   65CHL1   C22 5972   3.446   5.292   4.212  0.3559 -0.3507  0.8013
   65CHL1  H22A 5973   3.497   5.388   4.193  2.1113 -1.4086 -0.1193
   65CHL1  H22B 5974   3.335   5.292   4.216  0.3404 -0.9841  0.6204
   65CHL1   C23 5975   3.487   5.266   4.360 -0.1888 -0.3128  0.0149
   65CHL1  H23A 5976   3.450   5.165   4.387  0.4481 -1.0356 -1.6864
   65CHL1  H23B 5977   3.597   5.261   4.376 -0.3222 -1.4423  0.6985
   65CHL1   C24 5978   3.428   5.385   4.437 -0.7271 -0.4586  0.1912
   65CHL1  H24A 5979   3.460   5.479   4.388  2.1135 -1.0298  0.8049
   65CHL1  H24B 5980   3.317   5.373   4.444 -0.7746 -0.5637 -0.7117
   65CHL1   C25 5981   3.485   5.393   4.585 -0.0754 -0.1351 -0.1535
   65CHL1   H25 5982   3.595   5.400   4.578  0.1137 -1.2229  1.2068
   65CHL1   C26 5983   3.440   5.522   4.654 -1.2404  0.5255 -0.4469
   65CHL1  H26A 5984   3.337   5.508   4.693 -0.8284  1.0179  0.8619
   65CHL1  H26B 5985   3.504   5.545   4.742 -0.9015  3.5779 -1.3477
   65CHL1  H26C 5986   3.436   5.605   4.580  1.7970  2.3054  1.1867
   65CHL1   C27 5987   3.438   5.275   4.671  0.4824 -0.3317  0.3241
   65CHL1  H27A 5988   3.328   5.273   4.688  0.4791 -2.3573  0.3506
   65CHL1  H27B 5989   3.475   5.180   4.626  0.7437  0.3846 -1.0425
   65CHL1  H27C 5990   3.486   5.279   4.771 -0.5506  0.7716  0.8046
   66CHL1    C3 5991   2.962   6.156   3.304 -0.2173 -0.4835 -0.5646
   66CHL1    H3 5992   2.927   6.261   3.301  0.6931 -0.1470  0.0347
   66CHL1    O3 5993   3.004   6.119   3.178 -0.4802  0.0237  0.5948
   66CHL1   H3' 5994   3.071   6.186   3.162  0.3929 -1.0378 -0.4695
   66CHL1    C4 5995   3.076   6.142   3.398  0.0658 -0.1841 -0.0132
   66CHL1   H4A 5996   3.109   6.037   3.407 -0.6281 -0.3188  1.0585
   66CHL1   H4B 5997   3.158   6.204   3.356 -1.7401  3.0421  0.8289
   66CHL1    C5 5998   3.030   6.193   3.533 -0.0520  0.0469 -0.7827
   66CHL1    C6 5999   3.080   6.298   3.593 -0.3040 -0.5494  0.3747
   66CHL1    H6 6000   3.163   6.354   3.546 -0.3062  0.0844  1.1091
   66CHL1    C7 6001   3.035   6.346   3.724 -0.2231  0.1335 -0.2060
   66CHL1   H7A 6002   3.117   6.391   3.783  1.0531  0.7590 -2.3232
   66CHL1   H7B 6003   2.967   6.430   3.701  0.2289  0.7774  0.7673
   66CHL1    C8 6004   2.957   6.237   3.805 -0.0130  0.3153 -0.3756
   66CHL1    H8 6005   3.020   6.150   3.834 -0.5674  0.4385  1.2649
   66CHL1   C14 6006   2.909   6.311   3.925 -0.1476  0.4174  0.5801
   66CHL1   H14 6007   2.836   6.384   3.883 -3.2109 -2.8535 -0.3086
   66CHL1   C15 6008   3.006   6.380   4.016 -0.5710  0.1934 -0.3018
   66CHL1  H15A 6009   3.103   6.327   4.021 -0.1304  1.0864  2.1872
   66CHL1  H15B 6010   3.027   6.483   3.981  1.4172 -0.1529 -0.2432
   66CHL1   C16 6011   2.935   6.375   4.150 -0.1587 -0.3359  0.1610
   66CHL1  H16A 6012   2.997   6.328   4.229  0.1420  1.6356  1.1543
   66CHL1  H16B 6013   2.904   6.472   4.194 -0.6184 -1.1383  1.6724
   66CHL1   C17 6014   2.803   6.297   4.133 -0.1065  0.3405  0.3245
   66CHL1   H17 6015   2.735   6.378   4.102  0.1768 -0.2436 -2.0158
   66CHL1   C13 6016   2.821   6.212   4.008 -0.1348 -0.4620  0.6667
   66CHL1   C18 6017   2.893   6.085   4.059  0.9995 -0.5212  0.6792
   66CHL1  H18A 6018   2.939   6.034   3.971 -0.0199 -0.2301 -0.0447
   66CHL1  H18B 6019   2.976   6.108   4.130  2.5877 -2.7638 -0.2864
   66CHL1  H18C 6020   2.818   6.023   4.112  0.8713  0.2617  1.4179
   66CHL1   C12 6021   2.705   6.184   3.921  0.6661 -1.0318 -0.5159
   66CHL1  H12A 6022   2.632   6.127   3.981  2.5129 -0.9391  1.9544
   66CHL1  H12B 6023   2.669   6.287   3.898  3.4702  0.8457  2.5176
   66CHL1   C11 6024   2.743   6.099   3.798  0.6399 -0.4603 -0.2305
   66CHL1  H11A 6025   2.782   6.000   3.828  2.2340 -0.0761 -0.9726
   66CHL1  H11B 6026   2.654   6.085   3.733  1.8630 -1.2513 -1.8000
   66CHL1    C9 6027   2.848   6.174   3.715 -0.0869 -0.3047 -0.5989
   66CHL1    H9 6028   2.801   6.271   3.687  3.0216  1.4491 -0.1207
   66CHL1   C10 6029   2.909   6.115   3.590  0.5775  0.9705  1.2902
   66CHL1   C19 6030   2.953   5.965   3.613 -0.7818 -0.0631 -0.1384
   66CHL1  H19A 6031   2.985   5.915   3.519 -0.4701  2.6222 -1.5693
   66CHL1  H19B 6032   3.044   5.962   3.676  0.1562 -2.2800 -1.4796
   66CHL1  H19C 6033   2.877   5.908   3.670 -2.2548 -0.5292 -2.3995
   66CHL1    C1 6034   2.793   6.096   3.483  0.0150  0.4624  0.0217
   66CHL1   H1A 6035   2.716   6.022   3.513 -1.5508  1.4098 -1.4397
   66CHL1   H1B 6036   2.738   6.192   3.483 -0.7179  0.0505  0.4019
   66CHL1    C2 6037   2.839   6.063   3.342 -0.6491  0.0267  0.0272
   66CHL1   H2A 6038   2.754   6.078   3.272  0.4832  0.0549 -1.3938
   66CHL1   H2B 6039   2.855   5.955   3.324  0.3313  0.4309 -1.8893
   66CHL1   C20 6040   2.740   6.244   4.268  0.0551  0.7074 -0.2682
   66CHL1   H20 6041   2.809   6.167   4.310 -0.5192  0.0117 -0.5712
   66CHL1   C21 6042   2.607   6.176   4.256 -0.0639 -0.3800 -0.7757
   66CHL1  H21A 6043   2.530   6.241   4.209 -0.4977  1.4160  2.1940
   66CHL1  H21B 6044   2.560   6.163   4.356 -0.2250  1.8306 -0.5199
   66CHL1  H21C 6045   2.614   6.076   4.207 -1.9048  0.3575 -2.7079
   66CHL1   C22 6046   2.727   6.350   4.383  0.6401 -0.1627 -1.7120
   66CHL1  H22A 6047   2.725   6.303   4.484 -1.1611 -1.6869 -2.4188
   66CHL1  H22B 6048   2.820   6.411   4.379 -0.0544  1.1565  0.4173
   66CHL1   C23 6049   2.611   6.454   4.373 -0.2281  0.3972  0.0181
   66CHL1  H23A 6050   2.623   6.499   4.273 -0.1426  0.5694  0.1047
   66CHL1  H23B 6051   2.512   6.405   4.379  0.2242 -0.4695  0.6349
   66CHL1   C24 6052   2.617   6.557   4.482  0.2723  0.5508 -0.2420
   66CHL1  H24A 6053   2.627   6.514   4.584  0.5584 -0.8117 -0.8285
   66CHL1  H24B 6054   2.714   6.613   4.483  1.3043 -1.0273  2.8653
   66CHL1   C25 6055   2.498   6.656   4.480 -0.1226  0.4773 -0.5860
   66CHL1   H25 6056   2.410   6.593   4.455 -0.4923  1.0595 -0.7537
   66CHL1   C26 6057   2.453   6.733   4.613 -0.5886 -0.0316 -0.4381
   66CHL1  H26A 6058   2.440   6.649   4.684  2.4050  0.0623  0.3538
   66CHL1  H26B 6059   2.526   6.812   4.639 -0.7573  0.2253 -0.7421
   66CHL1  H26C 6060   2.350   6.771   4.601 -0.7740 -1.0977 -3.0240
   66CHL1   C27 6061   2.534   6.760   4.376  0.4355  0.5526  0.2794
   66CHL1  H27A 6062   2.619   6.827   4.403  0.7552  1.1854 -2.1033
   66CHL1  H27B 6063   2.444   6.823   4.366  0.3696  0.1399 -2.6280
   66CHL1  H27C 6064   2.558   6.714   4.278 -1.8692  0.1100 -0.1247
   67CHL1    C3 6065   0.424   1.436   3.362  0.2946 -0.4697 -0.6043
   67CHL1    H3 6066   0.527   1.422   3.402 -0.2575 -3.1181  0.0568
   67CHL1    O3 6067   0.418   1.448   3.218  0.1532 -0.3136 -0.2726
   67CHL1   H3' 6068   0.326   1.433   3.195  0.3915 -3.4939  0.3153
   67CHL1    C4 6069   0.322   1.331   3.398  0.7509  0.6905 -0.3145
   67CHL1   H4A 6070   0.217   1.339   3.362  0.7562 -0.6050 -0.6525
   67CHL1   H4B 6071   0.352   1.236   3.350 -3.6323 -0.7829 -0.5178
   67CHL1    C5 6072   0.325   1.314   3.546 -0.1862  0.4946 -0.6532
   67CHL1    C6 6073   0.338   1.189   3.606 -0.0943  0.8087  0.9049
   67CHL1    H6 6074   0.358   1.096   3.550 -0.1825  1.2033  0.1967
   67CHL1    C7 6075   0.346   1.161   3.752  0.0106  0.1668  0.2001
   67CHL1   H7A 6076   0.282   1.074   3.779 -0.9183  1.3345  1.9714
   67CHL1   H7B 6077   0.447   1.144   3.796 -0.6530  0.2732  1.8452
   67CHL1    C8 6078   0.287   1.281   3.830 -0.1917  0.6394 -0.0621
   67CHL1    H8 6079   0.177   1.280   3.817 -0.4429  0.7508  1.7845
   67CHL1   C14 6080   0.316   1.259   3.974 -0.2644 -0.4097 -0.2261
   67CHL1   H14 6081   0.426   1.244   3.978 -0.6029 -3.5971 -0.2369
   67CHL1   C15 6082   0.266   1.130   4.040  0.2193  0.9166 -0.2809
   67CHL1  H15A 6083   0.160   1.106   4.016  0.4908 -1.1071  0.4010
   67CHL1  H15B 6084   0.326   1.039   4.023 -1.0296  0.1465 -0.7295
   67CHL1   C16 6085   0.287   1.159   4.194  0.0016 -0.8373  0.0770
   67CHL1  H16A 6086   0.197   1.142   4.256 -0.4836  0.8363 -0.1111
   67CHL1  H16B 6087   0.371   1.108   4.246 -0.2805 -0.4198  0.9604
   67CHL1   C17 6088   0.305   1.315   4.214  0.1793 -0.3666  0.6311
   67CHL1   H17 6089   0.413   1.333   4.231  0.1742 -0.0905  0.3814
   67CHL1   C13 6090   0.276   1.374   4.069 -0.2934  0.6018 -0.2035
   67CHL1   C18 6091   0.124   1.403   4.046  0.1930 -0.0099 -0.3835
   67CHL1  H18A 6092   0.100   1.495   4.104  1.6091 -0.5242  1.0969
   67CHL1  H18B 6093   0.104   1.430   3.940  0.9773  0.4475 -0.4238
   67CHL1  H18C 6094   0.071   1.311   4.079  1.5126 -0.9215 -0.7036
   67CHL1   C12 6095   0.360   1.496   4.022  0.0085  0.5819  0.8648
   67CHL1  H12A 6096   0.336   1.584   4.085 -2.7231 -0.3414  1.2778
   67CHL1  H12B 6097   0.468   1.485   4.042 -0.1783  0.6944  1.9664
   67CHL1   C11 6098   0.339   1.531   3.870 -0.0431  0.5576  0.6514
   67CHL1  H11A 6099   0.235   1.568   3.864 -0.6483 -0.9803  0.9348
   67CHL1  H11B 6100   0.412   1.611   3.849  2.1862 -1.5141 -0.0204
   67CHL1    C9 6101   0.352   1.409   3.777  0.1480 -0.5069 -0.7626
   67CHL1    H9 6102   0.460   1.383   3.778  0.3049 -0.4056  3.4111
   67CHL1   C10 6103   0.307   1.442   3.629  0.2640 -0.2910 -0.4016
   67CHL1   C19 6104   0.152   1.468   3.618  0.1064 -0.4086 -0.3954
   67CHL1  H19A 6105   0.086   1.401   3.676 -0.6511 -0.1600 -0.9580
   67CHL1  H19B 6106   0.124   1.571   3.649  1.3057  0.1814 -1.1965
   67CHL1  H19C 6107   0.133   1.470   3.509  1.9223 -0.0492 -0.7318
   67CHL1    C1 6108   0.387   1.560   3.568 -1.1437 -0.0798  0.3515
   67CHL1   H1A 6109   0.369   1.653   3.626  0.3307  0.4958 -0.0645
   67CHL1   H1B 6110   0.496   1.548   3.588 -0.6947  1.9068 -0.5829
   67CHL1    C2 6111   0.378   1.577   3.418 -0.0461 -0.2295 -0.3623
   67CHL1   H2A 6112   0.445   1.657   3.380 -1.4018  0.1045 -2.1452
   67CHL1   H2B 6113   0.275   1.594   3.381  0.1388  0.0069 -0.7820
   67CHL1   C20 6114   0.225   1.382   4.321  0.5960  0.1617 -0.1970
   67CHL1   H20 6115   0.117   1.383   4.295 -0.3310 -0.8029  3.1229
   67CHL1   C21 6116   0.276   1.528   4.336 -0.1494 -0.2659 -0.3105
   67CHL1  H21A 6117   0.387   1.525   4.342 -0.0913  0.8992 -0.6707
   67CHL1  H21B 6118   0.242   1.573   4.431 -1.1357  1.5596 -1.4710
   67CHL1  H21C 6119   0.244   1.601   4.260  1.7134  1.2371  0.2663
   67CHL1   C22 6120   0.238   1.303   4.458  0.1785 -0.0037  0.2503
   67CHL1  H22A 6121   0.173   1.352   4.534 -0.1436  0.9756 -0.6322
   67CHL1  H22B 6122   0.194   1.203   4.438  0.3083  0.1705 -0.9836
   67CHL1   C23 6123   0.377   1.301   4.533 -0.5981  0.4906 -0.5539
   67CHL1  H23A 6124   0.455   1.282   4.457 -0.9562  0.3235 -0.8850
   67CHL1  H23B 6125   0.397   1.402   4.575  2.1734 -0.4326  0.5493
   67CHL1   C24 6126   0.392   1.197   4.646  0.2391  0.6936 -0.4562
   67CHL1  H24A 6127   0.325   1.216   4.732  0.4846  1.0326 -0.3381
   67CHL1  H24B 6128   0.364   1.096   4.609  3.3014 -0.4513  0.0129
   67CHL1   C25 6129   0.539   1.199   4.711  0.2280  0.2355  0.0428
   67CHL1   H25 6130   0.567   1.306   4.710  1.1305  0.1366 -3.9574
   67CHL1   C26 6131   0.518   1.145   4.852 -0.2856  0.4553  0.0559
   67CHL1  H26A 6132   0.616   1.120   4.896 -0.9400  1.5393  2.2652
   67CHL1  H26B 6133   0.476   1.216   4.926  1.2952  0.2783  1.1556
   67CHL1  H26C 6134   0.464   1.048   4.848  3.8308 -2.1158  1.5625
   67CHL1   C27 6135   0.649   1.118   4.638  0.2633 -0.0739 -0.2318
   67CHL1  H27A 6136   0.662   1.144   4.530  2.0849 -0.6105 -0.1798
   67CHL1  H27B 6137   0.747   1.144   4.683  0.3698 -0.4426 -0.2480
   67CHL1  H27C 6138   0.629   1.009   4.634 -0.2235 -0.0268  0.6783
   68CHL1    C3 6139   6.055   2.551   3.416  0.2784  0.7136 -0.2607
   68CHL1    H3 6140   6.005   2.638   3.463  1.2181 -0.8083  4.0301
   68CHL1    O3 6141   6.066   2.584   3.283 -0.3393 -0.0904 -0.4123
   68CHL1   H3' 6142   5.989   2.542   3.243  0.5113 -2.7300  0.5053
   68CHL1    C4 6143   6.188   2.526   3.482  0.3736 -0.4439  0.0892
   68CHL1   H4A 6144   6.231   2.441   3.424 -1.7602 -0.6123 -1.3588
   68CHL1   H4B 6145   6.246   2.619   3.460 -1.0324  0.2207 -0.9952
   68CHL1    C5 6146   6.175   2.497   3.625  0.3570  0.6213 -1.1683
   68CHL1    C6 6147   6.238   2.566   3.724 -0.1735 -0.4161  0.1549
   68CHL1    H6 6148   6.293   2.654   3.688 -1.2016  0.2838  0.2634
   68CHL1    C7 6149   6.254   2.526   3.869  0.3450 -0.3033 -0.3269
   68CHL1   H7A 6150   6.362   2.534   3.897  0.0008  1.0852  0.7486
   68CHL1   H7B 6151   6.202   2.604   3.928 -1.1374 -0.7873 -0.9611
   68CHL1    C8 6152   6.195   2.386   3.898 -0.6917 -0.0289  0.8191
   68CHL1    H8 6153   6.266   2.306   3.869 -0.2189  0.3360  0.9496
   68CHL1   C14 6154   6.180   2.373   4.043  0.7609 -1.1664  0.4684
   68CHL1   H14 6155   6.109   2.455   4.069 -0.9144 -2.6379  0.7891
   68CHL1   C15 6156   6.306   2.398   4.128  0.4917  0.3777 -0.0529
   68CHL1  H15A 6157   6.386   2.327   4.099  0.1652 -0.0986  0.1787
   68CHL1  H15B 6158   6.334   2.505   4.131 -0.6036  0.6614  0.6682
   68CHL1   C16 6159   6.263   2.352   4.270  0.1582  0.0961 -0.3884
   68CHL1  H16A 6160   6.339   2.294   4.326  0.0315 -1.8012 -2.1036
   68CHL1  H16B 6161   6.233   2.435   4.338  1.6294 -1.5129  2.4104
   68CHL1   C17 6162   6.134   2.274   4.249  0.3329  0.2936 -1.0311
   68CHL1   H17 6163   6.045   2.338   4.266  1.4264  1.3372  1.1689
   68CHL1   C13 6164   6.124   2.242   4.092 -0.4092 -0.3084 -0.6086
   68CHL1   C18 6165   6.226   2.125   4.068  0.5356  0.5801  0.3520
   68CHL1  H18A 6166   6.179   2.030   4.099 -0.0204  0.8035  0.2275
   68CHL1  H18B 6167   6.261   2.114   3.963 -1.2144 -2.8610 -0.0006
   68CHL1  H18C 6168   6.316   2.142   4.130 -0.4145  3.0616  1.2014
   68CHL1   C12 6169   5.988   2.230   4.022  0.3051  0.0718 -0.5751
   68CHL1  H12A 6170   5.952   2.126   4.039  1.6100 -0.6667 -2.0284
   68CHL1  H12B 6171   5.919   2.310   4.058  1.4105  0.0117  1.8846
   68CHL1   C11 6172   5.990   2.239   3.871 -0.0736 -0.3741  0.1363
   68CHL1  H11A 6173   6.037   2.148   3.828 -1.0813 -0.9506  0.2201
   68CHL1  H11B 6174   5.889   2.234   3.825 -0.1651  1.9169  0.0023
   68CHL1    C9 6175   6.058   2.370   3.820  0.3404 -0.0547  0.0266
   68CHL1    H9 6176   5.991   2.455   3.847  0.6446 -0.3787  1.9684
   68CHL1   C10 6177   6.090   2.374   3.668 -0.2033 -0.0520 -0.5143
   68CHL1   C19 6178   6.164   2.243   3.629  0.4379  0.7121  0.3446
   68CHL1  H19A 6179   6.193   2.249   3.522  0.5771 -1.6881  0.1972
   68CHL1  H19B 6180   6.257   2.229   3.689  1.0551  1.6024 -0.3690
   68CHL1  H19C 6181   6.107   2.149   3.643  2.7366 -1.2941 -2.5264
   68CHL1    C1 6182   5.954   2.380   3.585  0.0169  0.5138 -0.7801
   68CHL1   H1A 6183   5.898   2.284   3.582  0.1240  0.3603  0.9098
   68CHL1   H1B 6184   5.894   2.452   3.645 -1.8488 -2.0846  0.6341
   68CHL1    C2 6185   5.965   2.429   3.436  0.1905 -0.2547 -0.6285
   68CHL1   H2A 6186   5.859   2.451   3.409 -0.7717  0.6393  3.1316
   68CHL1   H2B 6187   5.988   2.345   3.366 -0.8098 -2.0116  1.0261
   68CHL1   C20 6188   6.118   2.160   4.350  0.0287 -0.4749 -0.0903
   68CHL1   H20 6189   6.201   2.086   4.348 -1.0975 -1.8126  0.8032
   68CHL1   C21 6190   5.992   2.080   4.315  0.3122  0.0225  0.6063
   68CHL1  H21A 6191   5.999   2.024   4.219 -2.9125  1.6647 -0.7410
   68CHL1  H21B 6192   5.913   2.158   4.313  0.6477  0.5935  4.0562
   68CHL1  H21C 6193   5.963   2.019   4.402  1.8724  0.5313  1.5218
   68CHL1   C22 6194   6.120   2.215   4.496  0.4593 -0.7307 -0.4130
   68CHL1  H22A 6195   6.223   2.249   4.521  1.6738 -2.8751 -2.0839
   68CHL1  H22B 6196   6.047   2.298   4.502  2.5108  1.1029  0.8000
   68CHL1   C23 6197   6.079   2.127   4.621 -0.6940  0.8661  0.7349
   68CHL1  H23A 6198   5.977   2.085   4.607 -0.7387  1.7705 -2.3002
   68CHL1  H23B 6199   6.152   2.043   4.620 -3.0246 -1.2753  1.4784
   68CHL1   C24 6200   6.076   2.205   4.751  0.3915 -0.5709  0.1026
   68CHL1  H24A 6201   6.176   2.253   4.749  0.8123 -1.4395 -0.8262
   68CHL1  H24B 6202   6.002   2.287   4.746  1.4183  0.3198 -0.8183
   68CHL1   C25 6203   6.066   2.131   4.884 -0.1394 -0.4612 -0.4718
   68CHL1   H25 6204   6.059   2.209   4.963  0.5844 -1.3040  0.4384
   68CHL1   C26 6205   5.926   2.062   4.899 -0.4055 -0.5483 -0.4412
   68CHL1  H26A 6206   5.922   1.991   4.985  1.6950 -0.8192 -0.5061
   68CHL1  H26B 6207   5.854   2.146   4.897 -0.8552 -0.9340 -0.5222
   68CHL1  H26C 6208   5.912   2.001   4.807  1.4753 -0.6708 -0.6777
   68CHL1   C27 6209   6.184   2.035   4.905  0.2006 -0.6578  0.0553
   68CHL1  H27A 6210   6.174   1.972   4.995  0.0509  1.7419  1.8268
   68CHL1  H27B 6211   6.189   1.970   4.815 -1.3493 -0.7847  0.0320
   68CHL1  H27C 6212   6.282   2.087   4.913  0.3209 -1.0999  1.7656
   69CHL1    C3 6213   1.670   6.038   3.146  0.2866  0.6932 -0.7022
   69CHL1    H3 6214   1.684   6.147   3.134  2.5944  0.6173  0.7526
   69CHL1    O3 6215   1.657   5.980   3.021 -0.1776 -0.8904 -0.4568
   69CHL1   H3' 6216   1.743   5.985   2.979 -0.3093  1.0396 -0.6038
   69CHL1    C4 6217   1.783   5.969   3.215  0.4274  0.1199 -0.3801
   69CHL1   H4A 6218   1.763   5.860   3.207  0.9642  0.0126 -0.3060
   69CHL1   H4B 6219   1.878   5.977   3.158  1.4558  1.0747  1.3806
   69CHL1    C5 6220   1.808   6.018   3.362 -0.5861 -0.0383 -0.4664
   69CHL1    C6 6221   1.923   6.081   3.400  0.1722  0.0695  0.1138
   69CHL1    H6 6222   1.992   6.102   3.317 -0.4237  1.1782 -0.1215
   69CHL1    C7 6223   1.952   6.131   3.536  0.5396  0.3490 -0.1917
   69CHL1   H7A 6224   2.057   6.112   3.566  0.9029  0.8054 -1.1341
   69CHL1   H7B 6225   1.953   6.242   3.542  2.8247  0.3298  0.4430
   69CHL1    C8 6226   1.855   6.069   3.644  0.1902 -0.2365  0.0952
   69CHL1    H8 6227   1.889   5.965   3.663  1.6124  0.3135  0.6927
   69CHL1   C14 6228   1.866   6.150   3.777  0.0795  0.5895 -0.4825
   69CHL1   H14 6229   1.832   6.252   3.750  0.7294  0.8544 -0.3086
   69CHL1   C15 6230   2.002   6.158   3.843 -0.0340 -0.3436  0.2889
   69CHL1  H15A 6231   2.050   6.058   3.843  1.1305  0.1854 -0.7042
   69CHL1  H15B 6232   2.062   6.233   3.787 -2.6765  1.2257 -0.6449
   69CHL1   C16 6233   1.967   6.199   3.982  0.1077 -0.1403 -0.0433
   69CHL1  H16A 6234   2.015   6.123   4.047  2.0841  0.3333 -0.8723
   69CHL1  H16B 6235   2.003   6.302   4.003 -0.9398 -0.0828  1.7566
   69CHL1   C17 6236   1.813   6.188   3.991  0.2523 -0.0193 -0.0826
   69CHL1   H17 6237   1.765   6.285   3.967 -2.0035 -0.2632  2.8733
   69CHL1   C13 6238   1.770   6.098   3.874 -0.6162 -0.1736  0.0220
   69CHL1   C18 6239   1.808   5.953   3.912  0.4668  0.3218 -0.5345
   69CHL1  H18A 6240   1.912   5.947   3.951  0.6551  0.0926 -1.0573
   69CHL1  H18B 6241   1.740   5.914   3.990  0.2527  0.3488 -0.7055
   69CHL1  H18C 6242   1.798   5.875   3.834  2.1308 -0.2065 -0.2706
   69CHL1   C12 6243   1.624   6.102   3.829  0.9129  0.0229  0.0810
   69CHL1  H12A 6244   1.551   6.063   3.904 -0.6677  1.7341 -0.4789
   69CHL1  H12B 6245   1.590   6.207   3.814 -1.6117 -0.8134 -0.6753
   69CHL1   C11 6246   1.604   6.024   3.697  0.3544 -0.2224 -0.7935
   69CHL1  H11A 6247   1.613   5.916   3.720  1.7148 -0.1771 -0.9955
   69CHL1  H11B 6248   1.501   6.045   3.663 -0.0072 -0.8602 -0.1182
   69CHL1    C9 6249   1.709   6.073   3.593 -0.1357  0.9030  0.5657
   69CHL1    H9 6250   1.690   6.180   3.571  0.0301  0.7350 -0.4490
   69CHL1   C10 6251   1.688   5.995   3.458  0.4987 -0.1246 -0.0612
   69CHL1   C19 6252   1.670   5.845   3.475  0.2838 -0.0994  0.8806
   69CHL1  H19A 6253   1.581   5.831   3.538  0.6865 -1.7258  1.1325
   69CHL1  H19B 6254   1.684   5.797   3.375  0.5462  2.5472 -0.4500
   69CHL1  H19C 6255   1.743   5.800   3.546  0.2481 -0.3134  0.7843
   69CHL1    C1 6256   1.564   6.051   3.387  0.2160  0.3352  0.1004
   69CHL1   H1A 6257   1.476   6.039   3.454  1.1922  0.7742  1.5082
   69CHL1   H1B 6258   1.575   6.160   3.373  1.0015  0.1868 -0.4738
   69CHL1    C2 6259   1.547   6.011   3.237 -0.7279 -0.2897  1.2018
   69CHL1   H2A 6260   1.455   6.059   3.200 -0.1014 -0.2705 -0.3916
   69CHL1   H2B 6261   1.528   5.903   3.219 -2.6027  0.4679 -1.9702
   69CHL1   C20 6262   1.768   6.149   4.135 -0.0940  0.5829  0.2568
   69CHL1   H20 6263   1.674   6.090   4.130  0.8285 -0.9959  0.7127
   69CHL1   C21 6264   1.727   6.282   4.206  0.1219 -0.0410  0.0465
   69CHL1  H21A 6265   1.688   6.274   4.310 -0.5192 -1.3489 -0.2801
   69CHL1  H21B 6266   1.645   6.335   4.152 -0.5964 -0.3522  0.8015
   69CHL1  H21C 6267   1.813   6.351   4.214 -0.4363  0.4868  2.4948
   69CHL1   C22 6268   1.856   6.063   4.234 -0.4265  0.2395  0.3761
   69CHL1  H22A 6269   1.877   5.970   4.179 -2.7055  0.7243 -1.4889
   69CHL1  H22B 6270   1.952   6.115   4.254  0.2116 -1.2630  1.3919
   69CHL1   C23 6271   1.780   6.020   4.366 -0.1103  0.0661  0.6127
   69CHL1  H23A 6272   1.728   6.105   4.416 -1.8917 -2.3405  3.1528
   69CHL1  H23B 6273   1.710   5.936   4.346  0.2184 -0.0917  0.1175
   69CHL1   C24 6274   1.876   5.977   4.480 -0.2524 -0.8046  1.2673
   69CHL1  H24A 6275   1.938   5.896   4.437  1.2248  0.2299  1.3987
   69CHL1  H24B 6276   1.943   6.058   4.517  0.7298 -0.0385 -1.8297
   69CHL1   C25 6277   1.805   5.922   4.604 -0.4596 -0.3010  0.4574
   69CHL1   H25 6278   1.753   5.834   4.561  0.6398 -0.4736 -0.5664
   69CHL1   C26 6279   1.901   5.869   4.717  0.3814  0.0468  0.7073
   69CHL1  H26A 6280   1.968   5.946   4.761  2.3074 -1.3596  0.4108
   69CHL1  H26B 6281   1.844   5.816   4.796  1.6399 -0.0872  1.5488
   69CHL1  H26C 6282   1.964   5.792   4.667 -1.6535 -0.5212 -1.1202
   69CHL1   C27 6283   1.704   6.014   4.663 -0.1158  0.2846 -1.0182
   69CHL1  H27A 6284   1.628   6.049   4.590 -0.9566 -1.8410 -1.2465
   69CHL1  H27B 6285   1.655   5.966   4.750 -0.8041  1.2100 -0.8794
   69CHL1  H27C 6286   1.746   6.110   4.698  1.6207 -0.8785  0.2604
   70CHL1    C3 6287   5.298   4.705   3.222  0.2791  0.5427 -0.7986
   70CHL1    H3 6288   5.193   4.681   3.252  0.3689 -1.4873 -1.9328
   70CHL1    O3 6289   5.287   4.756   3.091  0.5212  0.4013 -0.1905
   70CHL1   H3' 6290   5.376   4.781   3.064  1.8540 -0.9936  2.5282
   70CHL1    C4 6291   5.357   4.814   3.308 -0.5333 -0.1322  0.6086
   70CHL1   H4A 6292   5.452   4.849   3.262 -0.7890 -0.8673 -0.5168
   70CHL1   H4B 6293   5.298   4.907   3.288  0.7987  0.5419 -0.3669
   70CHL1    C5 6294   5.375   4.773   3.453  0.4168 -0.2309 -0.0762
   70CHL1    C6 6295   5.317   4.846   3.551 -0.1349  0.0926 -0.2700
   70CHL1    H6 6296   5.253   4.932   3.530 -0.6171  0.7317  3.3404
   70CHL1    C7 6297   5.341   4.816   3.698 -0.1203  0.6316 -0.2784
   70CHL1   H7A 6298   5.369   4.907   3.756  2.3472 -0.8168  0.9611
   70CHL1   H7B 6299   5.245   4.776   3.737 -0.9794  2.0363 -0.8815
   70CHL1    C8 6300   5.459   4.717   3.718 -0.1745  0.4180  0.2570
   70CHL1    H8 6301   5.552   4.773   3.694 -1.0769  1.3891 -1.1425
   70CHL1   C14 6302   5.453   4.663   3.855  0.2799  0.6730  0.0690
   70CHL1   H14 6303   5.358   4.606   3.857  0.0976  0.9465 -0.6651
   70CHL1   C15 6304   5.432   4.761   3.969  0.0916 -0.0182 -0.3894
   70CHL1  H15A 6305   5.482   4.859   3.955  0.2726 -0.3244 -2.0925
   70CHL1  H15B 6306   5.327   4.788   3.995  0.4468 -0.1770  1.3217
   70CHL1   C16 6307   5.479   4.688   4.095 -0.4656  0.6822 -0.5679
   70CHL1  H16A 6308   5.562   4.750   4.134  0.1574 -0.1054 -0.6094
   70CHL1  H16B 6309   5.395   4.691   4.167  0.4396 -0.1062  0.5598
   70CHL1   C17 6310   5.530   4.545   4.050  0.2689  0.2562  0.0926
   70CHL1   H17 6311   5.445   4.474   4.053  0.3570  0.1758  0.8583
   70CHL1   C13 6312   5.561   4.565   3.901 -0.5564 -0.3156  0.3220
   70CHL1   C18 6313   5.701   4.634   3.899  0.0665  0.1441 -0.4716
   70CHL1  H18A 6314   5.712   4.722   3.966 -0.7896 -0.4626  0.4943
   70CHL1  H18B 6315   5.782   4.561   3.922 -2.3692 -2.7121 -0.3456
   70CHL1  H18C 6316   5.730   4.662   3.796 -0.0790  0.7455 -0.3511
   70CHL1   C12 6317   5.556   4.438   3.807  0.5301 -0.3641  0.3888
   70CHL1  H12A 6318   5.631   4.358   3.820  1.0942  0.1822  0.5428
   70CHL1  H12B 6319   5.455   4.395   3.826  0.6357  0.0339  2.0342
   70CHL1   C11 6320   5.557   4.483   3.664 -0.0271  0.6937 -0.3061
   70CHL1  H11A 6321   5.659   4.526   3.656  1.5623 -2.2150  2.1104
   70CHL1  H11B 6322   5.543   4.398   3.595  1.5043  0.6470 -0.5840
   70CHL1    C9 6323   5.458   4.597   3.621  0.2717  0.7850  0.9563
   70CHL1    H9 6324   5.355   4.557   3.635 -0.0838  1.2189 -0.3362
   70CHL1   C10 6325   5.461   4.641   3.472  0.1524  0.2258  0.6045
   70CHL1   C19 6326   5.609   4.685   3.435  0.3093 -0.1361 -0.0739
   70CHL1  H19A 6327   5.653   4.751   3.513  0.3254  0.9154 -0.9512
   70CHL1  H19B 6328   5.667   4.590   3.439 -0.5406 -0.6879 -0.4509
   70CHL1  H19C 6329   5.624   4.727   3.333 -1.5383 -1.4738 -0.9699
   70CHL1    C1 6330   5.397   4.536   3.379  0.2543  0.8509  0.6585
   70CHL1   H1A 6331   5.454   4.442   3.397 -2.2001 -0.5647  1.4917
   70CHL1   H1B 6332   5.300   4.497   3.416  0.1809 -0.8534 -1.1446
   70CHL1    C2 6333   5.387   4.578   3.234 -0.6446  0.0067  0.0170
   70CHL1   H2A 6334   5.347   4.499   3.166 -0.1612  0.1700 -0.4688
   70CHL1   H2B 6335   5.487   4.598   3.190 -1.0209  0.6991 -0.5461
   70CHL1   C20 6336   5.637   4.481   4.145  0.3134  0.8024  0.5343
   70CHL1   H20 6337   5.724   4.549   4.143  4.1320 -3.4322 -4.2503
   70CHL1   C21 6338   5.680   4.349   4.092  0.1408  0.3806 -0.4972
   70CHL1  H21A 6339   5.586   4.295   4.068  0.0259  0.2226  0.2713
   70CHL1  H21B 6340   5.735   4.298   4.174 -1.8313  0.5088  0.9734
   70CHL1  H21C 6341   5.740   4.376   4.002  2.0385  1.0262  0.8984
   70CHL1   C22 6342   5.569   4.466   4.288  0.1789 -0.2243  0.0611
   70CHL1  H22A 6343   5.500   4.548   4.317 -2.9617 -3.1214  1.4395
   70CHL1  H22B 6344   5.508   4.374   4.283 -0.8693  0.4884 -0.6981
   70CHL1   C23 6345   5.665   4.444   4.406  0.2624  0.7602  0.0372
   70CHL1  H23A 6346   5.710   4.343   4.397 -0.3787  0.4181  0.5449
   70CHL1  H23B 6347   5.747   4.518   4.399  1.5001 -0.3428  1.8129
   70CHL1   C24 6348   5.582   4.462   4.530 -0.7486  0.2204  0.9617
   70CHL1  H24A 6349   5.556   4.570   4.532  0.2592  0.6117 -2.0896
   70CHL1  H24B 6350   5.489   4.402   4.520 -0.6809  0.4129 -1.3246
   70CHL1   C25 6351   5.660   4.432   4.657 -0.2047  0.4611 -0.1324
   70CHL1   H25 6352   5.716   4.336   4.648 -2.1065 -0.7222  0.0461
   70CHL1   C26 6353   5.785   4.517   4.683 -0.4231  0.0434 -0.0217
   70CHL1  H26A 6354   5.846   4.511   4.590 -0.6978 -2.7633 -0.1035
   70CHL1  H26B 6355   5.756   4.623   4.702 -0.1680  0.0025  0.6056
   70CHL1  H26C 6356   5.851   4.486   4.767 -0.0067 -0.6317 -0.5860
   70CHL1   C27 6357   5.571   4.406   4.781 -0.1691  0.0653 -0.0336
   70CHL1  H27A 6358   5.519   4.500   4.809 -0.4467  0.1135 -0.6953
   70CHL1  H27B 6359   5.492   4.329   4.776 -1.3249  1.2925 -2.4391
   70CHL1  H27C 6360   5.632   4.371   4.867 -1.9323 -1.6599  0.5733
   71CHL1    C3 6361   4.805   3.498   3.380  0.5398  0.6387 -0.3399
   71CHL1    H3 6362   4.883   3.571   3.413  0.4310  0.7390 -0.3039
   71CHL1    O3 6363   4.770   3.518   3.245 -0.1366 -0.4865 -0.7775
   71CHL1   H3' 6364   4.793   3.609   3.224 -1.3737 -0.3841 -1.8069
   71CHL1    C4 6365   4.840   3.346   3.404  0.2293 -1.5348  0.9712
   71CHL1   H4A 6366   4.765   3.283   3.351 -0.1085 -1.2607  1.1191
   71CHL1   H4B 6367   4.931   3.306   3.354 -0.0311 -1.1370  0.1465
   71CHL1    C5 6368   4.854   3.322   3.555  0.2059 -0.4038 -0.0550
   71CHL1    C6 6369   4.967   3.263   3.600 -0.2680  0.1576  1.1753
   71CHL1    H6 6370   5.043   3.243   3.523 -1.3654 -0.7756  0.2936
   71CHL1    C7 6371   4.985   3.208   3.741 -0.7861  0.0013  0.5610
   71CHL1   H7A 6372   5.002   3.099   3.725  3.5854  0.4251  0.9374
   71CHL1   H7B 6373   5.073   3.255   3.791 -0.6464  1.4537 -0.9730
   71CHL1    C8 6374   4.861   3.226   3.830 -0.4634 -0.2058 -0.1452
   71CHL1    H8 6375   4.790   3.144   3.809 -1.0182  0.0235  0.7759
   71CHL1   C14 6376   4.908   3.233   3.977 -0.9152  0.0557  0.3713
   71CHL1   H14 6377   4.970   3.325   3.989  1.3396 -1.3966  0.5728
   71CHL1   C15 6378   4.998   3.111   4.021  0.2318 -0.1287 -0.3316
   71CHL1  H15A 6379   4.948   3.020   3.982 -0.9122 -0.4700  1.7696
   71CHL1  H15B 6380   5.103   3.124   3.988  0.2431  1.1124  0.1648
   71CHL1   C16 6381   4.982   3.111   4.173  0.0367 -0.1763  0.4784
   71CHL1  H16A 6382   4.965   3.005   4.199  2.3031 -0.6559  0.2395
   71CHL1  H16B 6383   5.081   3.143   4.213 -0.0698  1.7090 -0.6272
   71CHL1   C17 6384   4.879   3.220   4.206 -0.5721  0.1636 -0.0538
   71CHL1   H17 6385   4.941   3.309   4.230 -1.1510  0.3733  0.7162
   71CHL1   C13 6386   4.792   3.239   4.077 -0.2158  0.6355  0.4975
   71CHL1   C18 6387   4.686   3.121   4.055  0.8410  0.0805 -0.0701
   71CHL1  H18A 6388   4.629   3.145   3.963  0.6439  1.5805  0.4238
   71CHL1  H18B 6389   4.741   3.024   4.055  1.1328  0.1327  3.4576
   71CHL1  H18C 6390   4.615   3.122   4.141  1.5233 -0.1182  0.4959
   71CHL1   C12 6391   4.725   3.379   4.057  0.2808  0.7231  0.8315
   71CHL1  H12A 6392   4.622   3.362   4.096 -0.1445 -0.4423 -0.7056
   71CHL1  H12B 6393   4.778   3.467   4.099 -0.2753  2.2334 -1.4852
   71CHL1   C11 6394   4.679   3.399   3.906 -0.0865  0.2122  0.2260
   71CHL1  H11A 6395   4.583   3.346   3.887  1.1986 -1.5277 -1.9136
   71CHL1  H11B 6396   4.650   3.506   3.897 -0.2911  0.0892 -0.6189
   71CHL1    C9 6397   4.789   3.362   3.806 -0.0421 -0.3423  0.0710
   71CHL1    H9 6398   4.862   3.445   3.806 -0.1569 -0.2315  1.1796
   71CHL1   C10 6399   4.737   3.359   3.652 -0.1426  0.0399  0.4404
   71CHL1   C19 6400   4.610   3.264   3.628  0.4037 -0.3074 -0.1272
   71CHL1  H19A 6401   4.543   3.300   3.709  0.9045  1.1098 -0.3257
   71CHL1  H19B 6402   4.561   3.274   3.529 -0.3533  1.4330  0.3908
   71CHL1  H19C 6403   4.623   3.155   3.644  0.9274 -0.2790 -0.3471
   71CHL1    C1 6404   4.711   3.509   3.610  0.0903  0.3831  0.1629
   71CHL1   H1A 6405   4.635   3.555   3.677 -0.1239 -0.3313  0.4235
   71CHL1   H1B 6406   4.796   3.577   3.631  0.8462 -0.8051  1.1096
   71CHL1    C2 6407   4.680   3.530   3.465  0.6796 -0.2180  0.0935
   71CHL1   H2A 6408   4.650   3.636   3.454  4.5869  1.1009  0.3488
   71CHL1   H2B 6409   4.589   3.472   3.439 -0.8434  1.1557  2.0468
   71CHL1   C20 6410   4.807   3.198   4.343  0.2061  0.2277  0.5099
   71CHL1   H20 6411   4.733   3.115   4.340  0.6592 -0.1576 -0.1985
   71CHL1   C21 6412   4.723   3.323   4.388 -0.3012  0.4231  0.1623
   71CHL1  H21A 6413   4.647   3.338   4.309 -1.9022 -0.5578  1.4598
   71CHL1  H21B 6414   4.790   3.412   4.390 -0.2056  0.4018 -1.1982
   71CHL1  H21C 6415   4.686   3.303   4.491 -0.1587 -0.3648  0.0686
   71CHL1   C22 6416   4.901   3.156   4.465  0.1840 -0.2822 -0.2794
   71CHL1  H22A 6417   4.843   3.139   4.558  0.6781 -1.2829 -0.1440
   71CHL1  H22B 6418   4.935   3.053   4.443  2.1371  0.5366 -1.4105
   71CHL1   C23 6419   5.017   3.248   4.504  0.2143  0.3294  0.5004
   71CHL1  H23A 6420   5.097   3.246   4.426  1.2980 -3.6564  1.4828
   71CHL1  H23B 6421   4.985   3.353   4.521 -1.4957 -0.4223  2.2944
   71CHL1   C24 6422   5.082   3.196   4.632 -0.1177 -0.7026 -0.5169
   71CHL1  H24A 6423   5.020   3.218   4.722 -0.7891  0.5349 -1.2537
   71CHL1  H24B 6424   5.096   3.086   4.622  2.0647 -0.3011 -3.0298
   71CHL1   C25 6425   5.221   3.257   4.664  0.2466 -0.1270  1.3329
   71CHL1   H25 6426   5.218   3.367   4.653  1.0964 -0.1041  1.2909
   71CHL1   C26 6427   5.278   3.221   4.803 -0.2060 -0.5941  0.7215
   71CHL1  H26A 6428   5.203   3.258   4.876  0.1294  1.6854 -0.0079
   71CHL1  H26B 6429   5.291   3.112   4.823  3.3636 -0.3432  0.5236
   71CHL1  H26C 6430   5.370   3.277   4.831 -0.3516  0.3364 -0.5999
   71CHL1   C27 6431   5.336   3.210   4.558 -0.0558 -0.9340  0.3596
   71CHL1  H27A 6432   5.286   3.217   4.458 -1.0723  1.4221  0.9595
   71CHL1  H27B 6433   5.424   3.273   4.581 -1.6796  1.7982 -0.3807
   71CHL1  H27C 6434   5.364   3.107   4.586  0.3502 -0.3711  2.1522
   72CHL1    C3 6435   1.495   0.112   3.234  0.5767  0.5622 -0.2818
   72CHL1    H3 6436   1.532   0.013   3.267  0.0987 -0.1767 -1.8675
   72CHL1    O3 6437   1.485   0.107   3.091 -0.1930 -0.3298  0.0582
   72CHL1   H3' 6438   1.414   0.169   3.072  1.3908  1.6790  0.4074
   72CHL1    C4 6439   1.358   0.140   3.313  0.2533  0.2268  0.7102
   72CHL1   H4A 6440   1.306   0.230   3.276 -1.2467 -0.5193  0.9069
   72CHL1   H4B 6441   1.295   0.050   3.300  1.0350 -0.1744 -0.5056
   72CHL1    C5 6442   1.374   0.156   3.462 -0.7237 -0.3430  0.0051
   72CHL1    C6 6443   1.309   0.080   3.559  0.4821 -0.0133 -0.2998
   72CHL1    H6 6444   1.238   0.000   3.531  1.6664 -0.7445 -1.2775
   72CHL1    C7 6445   1.324   0.096   3.706 -0.0744 -0.5582 -0.0934
   72CHL1   H7A 6446   1.233   0.115   3.766 -1.2982 -0.1916 -1.9592
   72CHL1   H7B 6447   1.364   0.001   3.748  1.7887 -0.1420 -0.8416
   72CHL1    C8 6448   1.421   0.206   3.756 -0.7251 -0.4962 -0.2233
   72CHL1    H8 6449   1.348   0.290   3.756  1.7319  1.7356 -0.4994
   72CHL1   C14 6450   1.486   0.186   3.886  0.8496  0.2882 -0.4308
   72CHL1   H14 6451   1.551   0.097   3.872  0.3605 -0.2498  0.5823
   72CHL1   C15 6452   1.386   0.147   3.992 -0.3712 -0.0114 -0.0461
   72CHL1  H15A 6453   1.299   0.216   3.997 -2.7539 -2.7906 -0.6606
   72CHL1  H15B 6454   1.330   0.051   3.992 -1.4714  0.5572  2.0281
   72CHL1   C16 6455   1.464   0.167   4.127 -0.0896 -0.2503  0.8436
   72CHL1  H16A 6456   1.402   0.233   4.191  1.2675  0.4523  1.4798
   72CHL1  H16B 6457   1.498   0.071   4.172  2.3177 -0.1256 -0.5257
   72CHL1   C17 6458   1.598   0.237   4.082  0.4349 -0.3000 -0.4072
   72CHL1   H17 6459   1.666   0.151   4.065 -0.6977 -1.2785 -0.1660
   72CHL1   C13 6460   1.575   0.294   3.939 -0.3952 -0.1419  0.0072
   72CHL1   C18 6461   1.499   0.428   3.950 -0.0734 -1.2845 -0.7009
   72CHL1  H18A 6462   1.573   0.502   3.990 -1.8932  0.9955 -1.3237
   72CHL1  H18B 6463   1.462   0.470   3.854  0.3397  1.1570  0.1253
   72CHL1  H18C 6464   1.410   0.434   4.017 -0.7532  2.1936 -1.6853
   72CHL1   C12 6465   1.694   0.304   3.850 -0.4096 -0.5856 -0.1244
   72CHL1  H12A 6466   1.759   0.391   3.875 -1.5021  1.5260 -3.8632
   72CHL1  H12B 6467   1.769   0.221   3.853  1.2996  0.9134  1.6249
   72CHL1   C11 6468   1.648   0.327   3.706 -0.0945 -0.7103  0.4493
   72CHL1  H11A 6469   1.595   0.424   3.702 -1.6988 -1.6084 -1.7955
   72CHL1  H11B 6470   1.741   0.323   3.646  0.4279  1.0510  1.0640
   72CHL1    C9 6471   1.541   0.231   3.652  0.4373  0.7133 -0.0336
   72CHL1    H9 6472   1.595   0.135   3.658 -0.4401 -0.0325 -2.6106
   72CHL1   C10 6473   1.491   0.248   3.503  0.3119  0.0746 -0.9801
   72CHL1   C19 6474   1.455   0.401   3.481  0.7157  0.1369  1.2285
   72CHL1  H19A 6475   1.539   0.470   3.502  0.3515  1.2762 -0.7720
   72CHL1  H19B 6476   1.421   0.413   3.376  1.7164 -0.5757  0.8101
   72CHL1  H19C 6477   1.371   0.413   3.553 -0.3352 -1.2747  0.2875
   72CHL1    C1 6478   1.619   0.218   3.419  0.5284 -0.6140 -0.4497
   72CHL1   H1A 6479   1.693   0.300   3.434  1.2325 -1.2858 -0.1823
   72CHL1   H1B 6480   1.671   0.126   3.453  0.9060  0.2478  1.4003
   72CHL1    C2 6481   1.600   0.216   3.272  0.2738 -0.6408  0.2550
   72CHL1   H2A 6482   1.699   0.193   3.227 -0.9837 -0.5351 -2.7735
   72CHL1   H2B 6483   1.570   0.318   3.240 -0.9621 -0.5408  1.6059
   72CHL1   C20 6484   1.647   0.323   4.205  0.3173 -0.4285 -0.4686
   72CHL1   H20 6485   1.581   0.412   4.209 -0.3243 -0.9440  0.8471
   72CHL1   C21 6486   1.790   0.358   4.165 -0.1184  0.1497  0.1959
   72CHL1  H21A 6487   1.847   0.396   4.252 -0.6302 -2.8982  2.0030
   72CHL1  H21B 6488   1.777   0.436   4.086 -1.2638 -0.4428 -0.2389
   72CHL1  H21C 6489   1.846   0.268   4.131 -0.4346 -0.5654  1.4981
   72CHL1   C22 6490   1.636   0.252   4.340 -0.1268 -0.4820  0.2491
   72CHL1  H22A 6491   1.530   0.260   4.371 -0.4335 -1.3115 -0.5252
   72CHL1  H22B 6492   1.665   0.145   4.332  2.6180  0.1404  0.6835
   72CHL1   C23 6493   1.720   0.311   4.457 -0.4803  1.4001 -0.1979
   72CHL1  H23A 6494   1.826   0.282   4.439 -0.1025  1.8543  1.1861
   72CHL1  H23B 6495   1.703   0.421   4.454 -0.0939  1.4420 -1.7384
   72CHL1   C24 6496   1.689   0.256   4.596 -0.0461  1.1258  0.5973
   72CHL1  H24A 6497   1.584   0.278   4.625 -0.1985  0.7345  0.3490
   72CHL1  H24B 6498   1.703   0.147   4.586 -1.1830  0.8205  1.9701
   72CHL1   C25 6499   1.784   0.291   4.709 -0.2943 -0.5450 -0.1055
   72CHL1   H25 6500   1.887   0.259   4.682  0.4849  1.5374  0.1792
   72CHL1   C26 6501   1.778   0.443   4.742  0.2314  0.4587 -0.5145
   72CHL1  H26A 6502   1.672   0.474   4.753  0.2297  0.5656 -0.8251
   72CHL1  H26B 6503   1.835   0.477   4.831 -0.4425  3.1350 -1.0225
   72CHL1  H26C 6504   1.821   0.507   4.662  0.2363  0.7373 -0.2917
   72CHL1   C27 6505   1.750   0.215   4.840 -1.0661  0.2402  0.1078
   72CHL1  H27A 6506   1.783   0.112   4.815 -1.2560  0.4770 -1.1760
   72CHL1  H27B 6507   1.805   0.243   4.933 -3.2422 -0.3357  1.6455
   72CHL1  H27C 6508   1.645   0.216   4.875 -0.3767 -0.6999  2.4243
   73CHL1    C3 6509   0.371   2.236   3.316 -0.0461 -0.3245 -0.0969
   73CHL1    H3 6510   0.301   2.149   3.312  0.4301 -0.7592  0.7280
   73CHL1    O3 6511   0.399   2.255   3.181 -0.1007 -0.2459 -0.7142
   73CHL1   H3' 6512   0.477   2.310   3.176 -0.4891  0.4993  0.9731
   73CHL1    C4 6513   0.307   2.363   3.379 -0.4429  0.3516 -0.3034
   73CHL1   H4A 6514   0.368   2.450   3.344  0.4647 -0.9935 -2.2756
   73CHL1   H4B 6515   0.203   2.365   3.340 -1.1460  3.2650  1.4038
   73CHL1    C5 6516   0.299   2.354   3.535 -0.1807  0.3458 -0.0140
   73CHL1    C6 6517   0.185   2.366   3.609  0.0626 -0.6391 -0.3606
   73CHL1    H6 6518   0.091   2.391   3.557  0.1286  1.2104  0.3290
   73CHL1    C7 6519   0.177   2.364   3.760 -0.3655 -0.1451 -0.1155
   73CHL1   H7A 6520   0.106   2.442   3.797  0.0651  0.1038  0.1932
   73CHL1   H7B 6521   0.125   2.276   3.803 -1.5311  0.6094  0.0763
   73CHL1    C8 6522   0.313   2.387   3.828  0.1352  0.7371  0.1398
   73CHL1    H8 6523   0.335   2.496   3.827 -1.0787  1.1393  3.6374
   73CHL1   C14 6524   0.313   2.331   3.975  0.0346 -0.4394 -0.4938
   73CHL1   H14 6525   0.295   2.223   3.960 -1.7775 -0.3569  0.8511
   73CHL1   C15 6526   0.200   2.386   4.069 -0.5325 -0.4399  0.5044
   73CHL1  H15A 6527   0.181   2.496   4.067  0.4527 -0.2398  1.3286
   73CHL1  H15B 6528   0.104   2.351   4.025  0.7550  0.6561 -3.6079
   73CHL1   C16 6529   0.241   2.323   4.202  0.2939 -0.2338  0.7504
   73CHL1  H16A 6530   0.214   2.388   4.288  1.4299  2.1583 -0.5914
   73CHL1  H16B 6531   0.194   2.223   4.210  0.7832 -0.3683  2.0648
   73CHL1   C17 6532   0.395   2.288   4.188 -0.0576 -0.6101 -0.2153
   73CHL1   H17 6533   0.404   2.177   4.192  0.1179 -0.5768  0.7458
   73CHL1   C13 6534   0.440   2.353   4.055 -0.8346  0.4899  0.4454
   73CHL1   C18 6535   0.463   2.501   4.086  0.0687  0.0089  0.1710
   73CHL1  H18A 6536   0.478   2.556   3.991 -0.0231  1.1482  0.8049
   73CHL1  H18B 6537   0.386   2.556   4.145  0.2425 -1.1444  1.5399
   73CHL1  H18C 6538   0.563   2.524   4.130 -0.4616  2.9423  0.0174
   73CHL1   C12 6539   0.557   2.288   3.978 -0.2109 -0.2765 -0.2351
   73CHL1  H12A 6540   0.657   2.301   4.025 -0.1310  2.4369 -0.9947
   73CHL1  H12B 6541   0.543   2.179   3.962 -1.1399 -0.1424 -0.4121
   73CHL1   C11 6542   0.563   2.342   3.832 -0.4337  0.1090 -0.4866
   73CHL1  H11A 6543   0.590   2.450   3.827  0.6514 -0.2171 -2.6640
   73CHL1  H11B 6544   0.637   2.277   3.782 -1.2039 -0.8756 -0.3722
   73CHL1    C9 6545   0.427   2.318   3.757  0.4607 -0.7004  0.1057
   73CHL1    H9 6546   0.412   2.209   3.778 -0.8130 -0.1613  2.3402
   73CHL1   C10 6547   0.443   2.335   3.598  1.6824 -0.2448 -0.3189
   73CHL1   C19 6548   0.549   2.438   3.563  0.1130 -0.5313 -0.1472
   73CHL1  H19A 6549   0.527   2.534   3.613 -2.0728 -0.0001 -2.0054
   73CHL1  H19B 6550   0.646   2.397   3.599  1.1020  0.3613 -1.6974
   73CHL1  H19C 6551   0.563   2.462   3.456 -0.3885  1.2865  0.1713
   73CHL1    C1 6552   0.484   2.204   3.536 -0.6112  0.1924 -0.2234
   73CHL1   H1A 6553   0.590   2.183   3.564  0.0442  1.9525 -1.1708
   73CHL1   H1B 6554   0.418   2.121   3.569 -0.5620  0.1053 -0.3426
   73CHL1    C2 6555   0.496   2.191   3.383  0.2432  0.4527  0.5430
   73CHL1   H2A 6556   0.515   2.082   3.366  1.5905  0.6164  0.8426
   73CHL1   H2B 6557   0.586   2.251   3.357 -0.8483  2.6458  1.5615
   73CHL1   C20 6558   0.471   2.324   4.326 -0.8217 -0.2640  0.1554
   73CHL1   H20 6559   0.447   2.429   4.353 -4.6723 -1.0343  0.3219
   73CHL1   C21 6560   0.621   2.304   4.317  0.9136  0.0625  0.2845
   73CHL1  H21A 6561   0.662   2.334   4.219 -1.7463 -0.8474 -1.2273
   73CHL1  H21B 6562   0.638   2.194   4.322  1.8115  0.1898  0.1792
   73CHL1  H21C 6563   0.687   2.358   4.388  3.8837 -1.2183 -1.3063
   73CHL1   C22 6564   0.409   2.245   4.449 -0.1630 -0.3943  0.0597
   73CHL1  H22A 6565   0.304   2.282   4.459  0.4085  1.6303 -0.8930
   73CHL1  H22B 6566   0.418   2.135   4.432  1.0308 -0.3772  0.4778
   73CHL1   C23 6567   0.493   2.270   4.581  0.6382  0.5919  0.0124
   73CHL1  H23A 6568   0.588   2.214   4.572  0.1737 -0.1162 -0.5561
   73CHL1  H23B 6569   0.512   2.379   4.587 -1.9493  1.0430  2.0560
   73CHL1   C24 6570   0.412   2.227   4.702  0.0998 -0.5262 -0.3105
   73CHL1  H24A 6571   0.326   2.292   4.726 -1.6161 -1.7385 -2.7353
   73CHL1  H24B 6572   0.374   2.124   4.684 -2.5220  0.8543 -3.9339
   73CHL1   C25 6573   0.488   2.221   4.834 -0.3417 -0.0094  0.5502
   73CHL1   H25 6574   0.415   2.215   4.918  0.5512  0.4822  1.3840
   73CHL1   C26 6575   0.580   2.100   4.841 -0.2513 -0.0519 -0.3572
   73CHL1  H26A 6576   0.652   2.099   4.926 -0.4858  0.1225 -0.1557
   73CHL1  H26B 6577   0.525   2.004   4.853 -1.0171  0.5297  0.9391
   73CHL1  H26C 6578   0.639   2.095   4.747  2.4039 -2.0313  1.2449
   73CHL1   C27 6579   0.577   2.351   4.841 -0.2536  0.2557 -0.2060
   73CHL1  H27A 6580   0.621   2.367   4.942  2.4203 -1.7107 -0.9317
   73CHL1  H27B 6581   0.664   2.344   4.773  0.3844  1.7537  0.4244
   73CHL1  H27C 6582   0.516   2.437   4.807 -0.7700  0.2704  0.7213
   74CHL1    C3 6583   2.551   2.279   3.148  0.7616  0.0208  0.1589
   74CHL1    H3 6584   2.518   2.174   3.163 -1.0669  0.2475 -1.8945
   74CHL1    O3 6585   2.592   2.303   3.011 -0.0890  0.4739  0.5732
   74CHL1   H3' 6586   2.619   2.394   3.018  0.1744  0.4514 -0.0886
   74CHL1    C4 6587   2.436   2.375   3.167 -0.3632 -0.4403  0.7323
   74CHL1   H4A 6588   2.477   2.473   3.135  3.9632 -2.0777  0.7038
   74CHL1   H4B 6589   2.356   2.334   3.102 -1.0564 -2.1924  2.5704
   74CHL1    C5 6590   2.397   2.400   3.316 -0.1307 -0.1103 -0.8100
   74CHL1    C6 6591   2.266   2.404   3.354 -0.3928 -0.0256  0.3542
   74CHL1    H6 6592   2.187   2.388   3.279 -0.2101  1.2187 -0.1179
   74CHL1    C7 6593   2.221   2.431   3.501  0.4618 -0.4730  0.5536
   74CHL1   H7A 6594   2.148   2.515   3.501 -0.5144 -1.2171 -2.3175
   74CHL1   H7B 6595   2.169   2.340   3.537 -0.6732 -1.0923 -2.3676
   74CHL1    C8 6596   2.332   2.480   3.599  0.0173 -0.7793 -0.0810
   74CHL1    H8 6597   2.346   2.590   3.590 -0.4042 -0.7333 -0.2279
   74CHL1   C14 6598   2.283   2.443   3.741 -0.0951  0.1315 -0.1930
   74CHL1   H14 6599   2.289   2.332   3.747 -0.6466  0.0341 -1.1568
   74CHL1   C15 6600   2.147   2.489   3.789  1.0356 -0.8206 -0.1027
   74CHL1  H15A 6601   2.131   2.598   3.775  0.0857 -0.5118  2.8458
   74CHL1  H15B 6602   2.065   2.430   3.741  0.4185  1.2445 -1.7503
   74CHL1   C16 6603   2.154   2.473   3.935  0.2117 -0.3569 -0.7134
   74CHL1  H16A 6604   2.107   2.561   3.982  0.4332 -0.2634 -0.6629
   74CHL1  H16B 6605   2.092   2.388   3.968  0.1202  0.0371  0.1426
   74CHL1   C17 6606   2.305   2.458   3.978 -0.3093  0.1824 -0.5428
   74CHL1   H17 6607   2.316   2.349   3.998 -1.0423  0.2762  0.3715
   74CHL1   C13 6608   2.382   2.485   3.846 -0.5076  0.2026 -0.7686
   74CHL1   C18 6609   2.401   2.641   3.842  0.2282  0.1964 -0.5270
   74CHL1  H18A 6610   2.306   2.686   3.877  0.4817 -1.5031  2.8352
   74CHL1  H18B 6611   2.481   2.660   3.917 -0.0960 -0.5872  0.0435
   74CHL1  H18C 6612   2.427   2.684   3.743 -2.7951  1.1052 -1.0239
   74CHL1   C12 6613   2.520   2.414   3.828  1.0250  0.1880 -0.2370
   74CHL1  H12A 6614   2.597   2.447   3.902  1.9014  0.2750 -1.1677
   74CHL1  H12B 6615   2.510   2.305   3.847 -1.4851  0.5030  0.6340
   74CHL1   C11 6616   2.576   2.429   3.684 -0.6144  0.8733  0.1292
   74CHL1  H11A 6617   2.609   2.534   3.675  0.1201  0.7616  1.2442
   74CHL1  H11B 6618   2.660   2.360   3.662 -0.9319  0.4989  0.0808
   74CHL1    C9 6619   2.465   2.407   3.571 -0.4277 -0.1556  0.3231
   74CHL1    H9 6620   2.439   2.300   3.587  0.9226 -1.0471 -2.7451
   74CHL1   C10 6621   2.511   2.419   3.422  0.3750 -0.6453  0.0049
   74CHL1   C19 6622   2.566   2.564   3.402  0.6092  0.3756  0.4774
   74CHL1  H19A 6623   2.649   2.593   3.471  0.6341  1.1658  0.1189
   74CHL1  H19B 6624   2.609   2.588   3.303 -0.1001  3.9689  0.9039
   74CHL1  H19C 6625   2.483   2.636   3.421  1.5030  1.2038  1.3901
   74CHL1    C1 6626   2.623   2.307   3.391  0.1360 -0.3491 -0.4685
   74CHL1   H1A 6627   2.700   2.347   3.461 -2.4054  2.3108  1.0643
   74CHL1   H1B 6628   2.585   2.206   3.417  1.4635 -0.8755 -0.5200
   74CHL1    C2 6629   2.669   2.308   3.240  0.4038 -0.0943  0.0260
   74CHL1   H2A 6630   2.755   2.241   3.218 -1.1347 -1.6376 -1.6513
   74CHL1   H2B 6631   2.700   2.415   3.233 -0.2680  0.2118  1.4453
   74CHL1   C20 6632   2.343   2.529   4.107 -0.4555 -0.5212 -0.0767
   74CHL1   H20 6633   2.339   2.638   4.084  1.2966 -0.3748  0.1396
   74CHL1   C21 6634   2.488   2.500   4.152 -0.5460 -0.5728  0.4905
   74CHL1  H21A 6635   2.499   2.392   4.177 -0.4681 -0.0804  2.7482
   74CHL1  H21B 6636   2.506   2.561   4.243  1.4630  0.4665 -0.5374
   74CHL1  H21C 6637   2.554   2.543   4.074 -3.1630  0.0858 -1.4898
   74CHL1   C22 6638   2.241   2.508   4.220  0.0483  0.4956  0.2158
   74CHL1  H22A 6639   2.138   2.506   4.176  0.6977  0.1862 -1.3632
   74CHL1  H22B 6640   2.259   2.407   4.261  0.0704  0.4835  0.1758
   74CHL1   C23 6641   2.261   2.588   4.349  0.0927 -0.8073 -0.0297
   74CHL1  H23A 6642   2.365   2.615   4.376 -0.5927 -0.2817  2.3021
   74CHL1  H23B 6643   2.205   2.684   4.339  1.6093  0.1366  0.2491
   74CHL1   C24 6644   2.189   2.520   4.466 -0.2067 -0.9429  0.9245
   74CHL1  H24A 6645   2.095   2.474   4.428 -0.3323  0.1841 -0.1942
   74CHL1  H24B 6646   2.256   2.439   4.501  0.8416 -0.7426 -0.5277
   74CHL1   C25 6647   2.154   2.610   4.589  0.1803 -0.0387  0.2481
   74CHL1   H25 6648   2.243   2.664   4.629 -0.3510  1.1608 -0.1462
   74CHL1   C26 6649   2.050   2.719   4.561 -0.1665 -0.0130 -0.4650
   74CHL1  H26A 6650   2.092   2.797   4.494 -0.4039  2.5476  2.1682
   74CHL1  H26B 6651   1.962   2.673   4.509  0.3284 -1.6552  0.1160
   74CHL1  H26C 6652   2.023   2.766   4.658 -0.3305 -0.9695 -0.0379
   74CHL1   C27 6653   2.112   2.516   4.699  0.1708  0.1884 -0.6380
   74CHL1  H27A 6654   2.191   2.444   4.732 -0.2380 -0.4112 -0.9338
   74CHL1  H27B 6655   2.070   2.567   4.788  1.5202  0.1026  0.0740
   74CHL1  H27C 6656   2.032   2.447   4.664 -1.1558  2.2273 -1.8413
   75CHL1    C3 6657   5.419   6.565   3.181  0.0111  0.4498 -0.3834
   75CHL1    H3 6658   5.508   6.602   3.235  1.6818  1.9716 -3.8736
   75CHL1    O3 6659   5.469   6.571   3.046  0.2591 -0.2657 -0.2639
   75CHL1   H3' 6660   5.430   6.497   2.999  0.8487 -1.4298  1.0088
   75CHL1    C4 6661   5.396   6.421   3.215 -0.5424  0.2238  0.2299
   75CHL1   H4A 6662   5.314   6.386   3.148 -0.0286 -1.9041  0.6557
   75CHL1   H4B 6663   5.484   6.356   3.195 -0.1121  0.7499  0.3817
   75CHL1    C5 6664   5.356   6.396   3.361  0.5862  0.1045  0.5354
   75CHL1    C6 6665   5.419   6.299   3.427  0.0786  0.6605 -0.1705
   75CHL1    H6 6666   5.492   6.232   3.379 -0.9745 -0.8997  0.3558
   75CHL1    C7 6667   5.398   6.275   3.573  0.0760  0.0170  0.0884
   75CHL1   H7A 6668   5.366   6.169   3.575 -0.4265  0.0497 -2.6048
   75CHL1   H7B 6669   5.493   6.288   3.629  0.4492 -2.1310  0.0483
   75CHL1    C8 6670   5.288   6.366   3.638 -0.0263 -0.1426  0.6517
   75CHL1    H8 6671   5.194   6.308   3.622 -0.1820  0.0381  0.9151
   75CHL1   C14 6672   5.308   6.372   3.788  0.2196 -0.1530  0.5154
   75CHL1   H14 6673   5.404   6.424   3.808  0.4349 -0.8744  1.3872
   75CHL1   C15 6674   5.333   6.234   3.856  0.0441 -0.9616  0.2953
   75CHL1  H15A 6675   5.258   6.158   3.825 -0.0205 -1.0534  0.6653
   75CHL1  H15B 6676   5.437   6.195   3.851  0.9246  1.2646  0.0290
   75CHL1   C16 6677   5.292   6.270   4.002 -0.3542 -0.3336  0.2270
   75CHL1  H16A 6678   5.215   6.199   4.037  0.0089 -0.5047  0.7049
   75CHL1  H16B 6679   5.383   6.262   4.066 -1.5856  0.9899  2.2448
   75CHL1   C17 6680   5.246   6.418   4.013  0.6425 -0.5638 -0.2352
   75CHL1   H17 6681   5.339   6.478   4.027 -1.3762  2.3989  1.6139
   75CHL1   C13 6682   5.199   6.445   3.865 -0.4014 -0.0321 -0.0094
   75CHL1   C18 6683   5.063   6.369   3.846 -0.8544  0.6599  0.2292
   75CHL1  H18A 6684   5.085   6.260   3.848 -2.1599  0.3784  0.5078
   75CHL1  H18B 6685   4.984   6.397   3.920 -1.9913 -0.9504 -0.3138
   75CHL1  H18C 6686   5.032   6.387   3.741  1.9314  1.1561 -0.5775
   75CHL1   C12 6687   5.203   6.588   3.807 -0.1591 -0.9493  0.6497
   75CHL1  H12A 6688   5.138   6.652   3.871  0.4126  0.0190  0.3002
   75CHL1  H12B 6689   5.306   6.628   3.821  0.0884 -1.7989  1.3429
   75CHL1   C11 6690   5.176   6.595   3.653 -0.0722  0.3368 -0.7602
   75CHL1  H11A 6691   5.075   6.555   3.627  0.6035 -1.5775 -0.5748
   75CHL1  H11B 6692   5.186   6.699   3.614  0.2533  0.4762 -0.3163
   75CHL1    C9 6693   5.274   6.508   3.577 -0.1858  0.2255  0.9746
   75CHL1    H9 6694   5.374   6.553   3.596 -1.1172  2.7238  0.3092
   75CHL1   C10 6695   5.253   6.502   3.424 -0.0998  0.0165 -0.0181
   75CHL1   C19 6696   5.110   6.448   3.387  0.0408  0.1386 -0.2134
   75CHL1  H19A 6697   5.099   6.441   3.276 -0.2916  3.2132 -0.4830
   75CHL1  H19B 6698   5.078   6.358   3.442 -0.0541  0.8984  1.0064
   75CHL1  H19C 6699   5.038   6.527   3.419 -0.7410 -1.3115  1.7758
   75CHL1    C1 6700   5.280   6.641   3.360  0.2159  0.3288 -0.2670
   75CHL1   H1A 6701   5.189   6.699   3.390  0.3756 -0.9823  3.2944
   75CHL1   H1B 6702   5.361   6.681   3.425  0.4359 -0.4811 -0.0313
   75CHL1    C2 6703   5.307   6.651   3.212  0.4349 -0.0481  0.0327
   75CHL1   H2A 6704   5.331   6.755   3.181  2.4905 -0.5998 -0.3659
   75CHL1   H2B 6705   5.218   6.619   3.154  0.4991  1.0570 -0.7046
   75CHL1   C20 6706   5.153   6.450   4.138 -0.2891  0.2390 -0.0609
   75CHL1   H20 6707   5.057   6.395   4.131 -1.7202  2.5438  0.3954
   75CHL1   C21 6708   5.116   6.596   4.137 -0.0737  0.1079  0.0868
   75CHL1  H21A 6709   5.051   6.605   4.048  0.6577  0.6734 -0.3978
   75CHL1  H21B 6710   5.207   6.657   4.123  0.6308 -0.7875  0.6084
   75CHL1  H21C 6711   5.059   6.632   4.225 -0.5530  0.7768 -0.4911
   75CHL1   C22 6712   5.216   6.413   4.268 -0.0105  0.2464 -0.2944
   75CHL1  H22A 6713   5.218   6.302   4.266  0.3922  0.0859  3.2120
   75CHL1  H22B 6714   5.312   6.467   4.277 -0.1511  0.2897  1.1548
   75CHL1   C23 6715   5.133   6.428   4.393  0.1531 -0.3303 -0.3469
   75CHL1  H23A 6716   5.137   6.530   4.437 -1.0004 -1.0808  1.6419
   75CHL1  H23B 6717   5.027   6.412   4.365  0.2699  0.5500 -1.3346
   75CHL1   C24 6718   5.186   6.345   4.515 -0.2221  0.4716 -0.4723
   75CHL1  H24A 6719   5.166   6.235   4.512 -0.1416  0.3315  1.9432
   75CHL1  H24B 6720   5.297   6.344   4.503 -0.0896  0.7908  0.5841
   75CHL1   C25 6721   5.147   6.406   4.653 -0.6119  0.1599  0.0317
   75CHL1   H25 6722   5.140   6.515   4.633 -1.8849 -0.1053 -1.1289
   75CHL1   C26 6723   5.011   6.366   4.707  0.1249 -0.4804 -0.5753
   75CHL1  H26A 6724   5.013   6.257   4.729 -0.0572 -0.7491 -1.8227
   75CHL1  H26B 6725   4.982   6.427   4.795  2.5790 -0.3570  0.2230
   75CHL1  H26C 6726   4.935   6.367   4.626  0.1063  0.4459 -0.5570
   75CHL1   C27 6727   5.259   6.385   4.761  0.4956  0.8303 -0.1097
   75CHL1  H27A 6728   5.215   6.410   4.860 -2.1500  0.1297 -1.0294
   75CHL1  H27B 6729   5.270   6.275   4.771 -1.4725  0.3390 -2.3981
   75CHL1  H27C 6730   5.351   6.443   4.740  0.8859  0.0721 -0.5322
   76CHL1    C3 6731   2.313   1.774   3.145  0.5363 -0.1099  0.4636
   76CHL1    H3 6732   2.402   1.710   3.161 -1.2459 -2.6035  1.1002
   76CHL1    O3 6733   2.279   1.773   3.005  0.0688 -0.0363  0.1545
   76CHL1   H3' 6734   2.205   1.834   3.001 -0.2674 -0.4450  0.0220
   76CHL1    C4 6735   2.199   1.709   3.229  0.6967 -0.3029 -0.2030
   76CHL1   H4A 6736   2.109   1.772   3.214  0.9442  0.9494  2.8410
   76CHL1   H4B 6737   2.170   1.609   3.191  0.5658 -0.5714  0.5688
   76CHL1    C5 6738   2.227   1.710   3.373 -0.5481 -0.4454 -0.1931
   76CHL1    C6 6739   2.218   1.604   3.453  0.0346 -0.3473 -0.2992
   76CHL1    H6 6740   2.176   1.518   3.399 -0.1485 -0.3316 -0.1826
   76CHL1    C7 6741   2.236   1.607   3.598  0.2883 -0.0373 -0.3889
   76CHL1   H7A 6742   2.165   1.536   3.647  1.1883 -0.6996 -0.0077
   76CHL1   H7B 6743   2.341   1.575   3.610  1.6104  3.4006 -1.5952
   76CHL1    C8 6744   2.231   1.745   3.666  0.5379  0.6878 -0.0305
   76CHL1    H8 6745   2.126   1.780   3.671  0.0034 -0.8875  0.1394
   76CHL1   C14 6746   2.294   1.735   3.806  0.2998 -0.7962  0.4807
   76CHL1   H14 6747   2.402   1.715   3.789  0.1683 -1.9340  0.8789
   76CHL1   C15 6748   2.244   1.621   3.901 -0.2597 -0.6030  0.2120
   76CHL1  H15A 6749   2.134   1.619   3.884 -0.2668  2.2330 -0.5334
   76CHL1  H15B 6750   2.297   1.527   3.874 -0.1273 -0.3808 -0.3263
   76CHL1   C16 6751   2.291   1.674   4.039  0.0504 -0.2848 -0.0228
   76CHL1  H16A 6752   2.202   1.694   4.102  0.0924  2.0641 -0.6120
   76CHL1  H16B 6753   2.367   1.608   4.085  0.4652  1.1776  1.4908
   76CHL1   C17 6754   2.361   1.814   4.019 -0.3122  0.8439 -0.5972
   76CHL1   H17 6755   2.467   1.789   4.001 -0.3975 -1.0140  1.0229
   76CHL1   C13 6756   2.300   1.871   3.886  0.7619 -0.2727 -0.4892
   76CHL1   C18 6757   2.155   1.922   3.906  0.2508 -0.3960  0.0325
   76CHL1  H18A 6758   2.088   1.851   3.959 -1.0966 -0.5141 -1.7321
   76CHL1  H18B 6759   2.155   2.018   3.961  1.2776  0.7692 -1.8715
   76CHL1  H18C 6760   2.109   1.943   3.807  0.3440  0.7289  0.2194
   76CHL1   C12 6761   2.385   1.978   3.806 -0.3100 -0.1271  0.0073
   76CHL1  H12A 6762   2.368   2.080   3.847  3.0557  0.2538  0.6994
   76CHL1  H12B 6763   2.495   1.967   3.798 -0.1894  2.1391 -2.7972
   76CHL1   C11 6764   2.343   1.982   3.661  0.2667 -0.3029 -0.1277
   76CHL1  H11A 6765   2.240   2.024   3.661  0.2434 -0.3578  0.0571
   76CHL1  H11B 6766   2.402   2.053   3.600  0.7403 -1.4960 -1.0998
   76CHL1    C9 6767   2.310   1.845   3.586  0.9440  0.2769 -0.5367
   76CHL1    H9 6768   2.410   1.800   3.568  1.2853 -0.3979  2.5597
   76CHL1   C10 6769   2.259   1.850   3.442  0.0185  0.7264  0.3286
   76CHL1   C19 6770   2.126   1.931   3.443 -0.6686 -0.5329  0.6225
   76CHL1  H19A 6771   2.089   1.952   3.340 -1.7339 -0.2639  1.0439
   76CHL1  H19B 6772   2.046   1.873   3.494  0.3749 -2.3969  0.2297
   76CHL1  H19C 6773   2.142   2.030   3.491  2.2405 -0.0269 -1.1252
   76CHL1    C1 6774   2.366   1.917   3.347 -0.4734 -0.0246 -0.6702
   76CHL1   H1A 6775   2.375   2.024   3.374  0.0837 -0.4266  0.8565
   76CHL1   H1B 6776   2.466   1.868   3.354 -0.9030 -1.3518 -3.0699
   76CHL1    C2 6777   2.334   1.910   3.194  0.1048 -0.2854  0.4673
   76CHL1   H2A 6778   2.426   1.961   3.158 -0.9894  1.2833 -0.2347
   76CHL1   H2B 6779   2.251   1.980   3.171  0.5136 -0.6783 -2.7243
   76CHL1   C20 6780   2.347   1.897   4.146 -0.7721 -0.3289  0.1158
   76CHL1   H20 6781   2.243   1.932   4.160 -0.6722 -0.3926  1.1453
   76CHL1   C21 6782   2.432   2.026   4.128  0.3595  0.0155 -0.5669
   76CHL1  H21A 6783   2.538   2.003   4.103  0.1281  1.2889 -3.0080
   76CHL1  H21B 6784   2.419   2.097   4.213  0.4961 -0.0479 -0.4922
   76CHL1  H21C 6785   2.392   2.089   4.046  0.7697  1.3988  0.2579
   76CHL1   C22 6786   2.386   1.817   4.273 -0.1545  0.2999  0.5202
   76CHL1  H22A 6787   2.305   1.744   4.292  0.4334 -0.6451 -0.4860
   76CHL1  H22B 6788   2.478   1.760   4.247  0.5042  1.8299 -0.6792
   76CHL1   C23 6789   2.406   1.913   4.392  0.4496 -0.3146  0.5551
   76CHL1  H23A 6790   2.451   1.847   4.470  0.4907 -2.7079 -1.3639
   76CHL1  H23B 6791   2.477   1.997   4.381  0.3790 -0.2041  0.9197
   76CHL1   C24 6792   2.279   1.971   4.446  0.1194 -0.0024 -0.1334
   76CHL1  H24A 6793   2.195   1.991   4.377 -1.1891 -1.1719  1.0558
   76CHL1  H24B 6794   2.227   1.893   4.505  0.4982  0.2489  0.5426
   76CHL1   C25 6795   2.305   2.100   4.529  0.1270  0.6728  0.5820
   76CHL1   H25 6796   2.341   2.178   4.459  0.6484 -0.1257 -0.0504
   76CHL1   C26 6797   2.173   2.147   4.587 -0.0033 -0.0375  0.1231
   76CHL1  H26A 6798   2.098   2.190   4.517  1.0570  0.9417 -0.4301
   76CHL1  H26B 6799   2.116   2.072   4.646 -1.2681 -0.4309 -1.5312
   76CHL1  H26C 6800   2.192   2.222   4.666 -1.0635 -0.0373  0.3915
   76CHL1   C27 6801   2.409   2.081   4.639 -0.1544  0.5544  0.1796
   76CHL1  H27A 6802   2.421   2.180   4.688 -1.8083  1.1999 -0.6632
   76CHL1  H27B 6803   2.372   2.005   4.712  0.5140  2.4249  2.6058
   76CHL1  H27C 6804   2.506   2.053   4.592 -1.4831 -1.4429 -1.5839
   77SOPE     N 6805   4.176   0.125   6.907 -0.4369  0.4220  0.1724
   77SOPE   HN1 6806   4.128   0.217   6.911 -1.0330  0.1799 -1.0541
   77SOPE   HN2 6807   4.266   0.134   6.959  0.5172  0.7538 -1.4682
   77SOPE   HN3 6808   4.202   0.114   6.807 -0.2798 -1.6156  0.3907
   77SOPE   C12 6809   4.080   0.018   6.964 -0.5868 -0.1501  0.8260
   77SOPE  H12A 6810   4.000  -0.003   6.890 -0.3657 -0.7432  0.7484
   77SOPE  H12B 6811   4.034   0.061   7.055  0.6885 -0.4933  1.6614
   77SOPE   C11 6812   4.149  -0.107   6.992 -0.3940  1.0731 -0.0669
   77SOPE  H11A 6813   4.169  -0.166   6.900 -3.4813 -3.0694  1.5714
   77SOPE  H11B 6814   4.087  -0.173   7.058  0.9096  0.2776  0.3999
   77SOPE     P 6815   4.409  -0.133   7.016  0.2997  0.1711 -0.4723
   77SOPE   O13 6816   4.411  -0.271   6.969  0.3610  0.2164 -0.0898
   77SOPE   O14 6817   4.512  -0.082   7.110  0.2526 -0.1834 -0.0359
   77SOPE   O12 6818   4.271  -0.083   7.073  0.6286  0.3427 -0.8270
   77SOPE   O11 6819   4.413  -0.044   6.890 -0.3053 -0.2058  0.0666
   77SOPE    C1 6820   4.529  -0.017   6.821  0.0961 -0.0628 -0.4184
   77SOPE    HA 6821   4.593  -0.107   6.810  1.6943  1.3592 -4.5965
   77SOPE    HB 6822   4.592   0.046   6.887  2.4036 -3.5889  1.0263
   77SOPE    C2 6823   4.526   0.029   6.676  0.4782  0.5902  0.5954
   77SOPE    HS 6824   4.478   0.129   6.678 -3.3977 -1.0836  0.5844
   77SOPE   O21 6825   4.453  -0.065   6.599 -0.1628 -0.2462  0.2832
   77SOPE   C21 6826   4.322  -0.043   6.581  0.0300  0.3215 -0.3459
   77SOPE   O22 6827   4.253   0.039   6.639 -0.0307 -0.0038  0.0418
   77SOPE   C22 6828   4.271  -0.125   6.470  0.9893  0.3199 -0.1343
   77SOPE   H2R 6829   4.199  -0.199   6.512  0.4884  0.3445 -0.9290
   77SOPE   H2S 6830   4.348  -0.184   6.417 -1.1617 -0.7024 -2.3281
   77SOPE    C3 6831   4.670   0.040   6.615  0.4368 -0.2378  0.0570
   77SOPE    HX 6832   4.703  -0.065   6.633  0.6624 -0.2895 -0.6249
   77SOPE    HY 6833   4.732   0.109   6.677 -0.1903  2.6820 -2.3632
   77SOPE   O31 6834   4.661   0.079   6.476  0.7859  0.1812  0.5349
   77SOPE   C31 6835   4.766   0.024   6.407 -0.5878 -0.1321  1.0907
   77SOPE   O32 6836   4.866  -0.020   6.458  0.5228  0.7233 -0.2863
   77SOPE   C32 6837   4.735   0.022   6.261  0.9766  0.1692  0.0322
   77SOPE   H2X 6838   4.810   0.075   6.199 -1.0792  0.9570 -1.9209
   77SOPE   H2Y 6839   4.635   0.065   6.236  0.6690 -1.2417 -1.3382
   77SOPE   C23 6840   4.198  -0.054   6.352 -0.3323 -0.1866  0.0508
   77SOPE   H3R 6841   4.257   0.024   6.298 -1.1718  1.0841  0.9004
   77SOPE   H3S 6842   4.107   0.004   6.378 -1.5836 -1.9482 -0.2240
   77SOPE   C24 6843   4.147  -0.158   6.256  0.0110  0.2494  0.0585
   77SOPE   H4R 6844   4.089  -0.238   6.307  2.3377 -1.2434  0.5280
   77SOPE   H4S 6845   4.073  -0.107   6.191  1.3662 -0.0399 -1.7799
   77SOPE   C25 6846   4.255  -0.221   6.169 -0.3008  0.1822 -0.3806
   77SOPE   H5R 6847   4.310  -0.134   6.128 -1.2384  1.4111  0.8926
   77SOPE   H5S 6848   4.325  -0.284   6.228  0.0376 -1.0515 -2.0290
   77SOPE   C26 6849   4.219  -0.298   6.039  0.8859  0.2872 -0.0137
   77SOPE   H6R 6850   4.187  -0.402   6.060 -1.2979  0.5850 -1.5250
   77SOPE   H6S 6851   4.136  -0.251   5.982 -0.9222  0.0168  2.2200
   77SOPE   C27 6852   4.335  -0.319   5.939  0.2142 -0.1094 -0.0200
   77SOPE   H7R 6853   4.378  -0.221   5.909 -2.3909  0.6081 -1.7628
   77SOPE   H7S 6854   4.416  -0.366   5.998  1.6357  0.6857 -1.2730
   77SOPE   C28 6855   4.300  -0.400   5.819 -0.0851 -0.2186 -0.5649
   77SOPE   H8R 6856   4.279  -0.499   5.863  4.0904 -1.0679 -0.1417
   77SOPE   H8S 6857   4.203  -0.365   5.777  0.9024 -0.7239 -3.4650
   77SOPE   C29 6858   4.405  -0.425   5.713  0.9543 -0.7081 -0.3247
   77SOPE   H91 6859   4.490  -0.493   5.732  0.0570 -2.2373 -1.5815
   77SOPE  C210 6860   4.400  -0.372   5.590 -0.2903  0.8901 -0.1831
   77SOPE  H101 6861   4.483  -0.391   5.522 -1.5873  1.3601 -1.9638
   77SOPE  C211 6862   4.292  -0.285   5.530 -0.0319  0.4884  0.1873
   77SOPE  H11R 6863   4.324  -0.179   5.523 -1.1701  0.8844  0.6535
   77SOPE  H11S 6864   4.205  -0.278   5.598 -0.8843  1.1444 -0.9354
   77SOPE  C212 6865   4.241  -0.338   5.402 -0.0140 -0.0701  0.4959
   77SOPE  H12R 6866   4.149  -0.281   5.375  0.4134  0.7691  0.7619
   77SOPE  H12S 6867   4.213  -0.445   5.414  0.2301 -0.4377 -1.8519
   77SOPE  C213 6868   4.348  -0.324   5.292  0.4748  0.0377 -0.5469
   77SOPE  H13R 6869   4.310  -0.357   5.193 -0.3399 -1.7991  0.3272
   77SOPE  H13S 6870   4.440  -0.382   5.317 -1.8628 -3.6124  0.4908
   77SOPE  C214 6871   4.392  -0.182   5.270 -0.2937  0.6149 -0.0906
   77SOPE  H14R 6872   4.436  -0.144   5.365 -0.1300 -0.6401  0.3572
   77SOPE  H14S 6873   4.305  -0.120   5.238 -1.2748 -0.1326  1.0094
   77SOPE  C215 6874   4.497  -0.176   5.166 -0.6290 -0.2032  0.1902
   77SOPE  H15R 6875   4.569  -0.260   5.170  0.2060  0.4011 -1.2808
   77SOPE  H15S 6876   4.551  -0.081   5.188  1.7977 -1.7906  1.3896
   77SOPE  C216 6877   4.437  -0.184   5.022 -0.5023 -0.3151 -0.5695
   77SOPE  H16R 6878   4.342  -0.128   5.017 -1.3763 -1.8073 -1.5285
   77SOPE  H16S 6879   4.420  -0.293   5.010 -0.1015 -0.5346  0.7166
   77SOPE  C217 6880   4.527  -0.123   4.913  0.0978 -0.2796 -0.0241
   77SOPE  H17R 6881   4.508  -0.014   4.925 -2.9009 -0.7865  0.7953
   77SOPE  H17S 6882   4.479  -0.151   4.817  1.5603  1.0573 -1.2017
   77SOPE  C218 6883   4.679  -0.153   4.915 -0.5526 -0.2710 -0.2557
   77SOPE  H18R 6884   4.734  -0.100   4.995  2.2377 -0.6950 -1.7535
   77SOPE  H18S 6885   4.723  -0.105   4.825  1.0649 -1.3604 -0.0913
   77SOPE  H18T 6886   4.705  -0.261   4.911 -1.1392 -0.4456  0.5557
   77SOPE   C33 6887   4.718  -0.121   6.192 -0.0535  0.3362 -0.7117
   77SOPE   H3X 6888   4.675  -0.195   6.264  0.5757 -0.9178 -1.5922
   77SOPE   H3Y 6889   4.820  -0.157   6.169 -0.0964 -0.6468  0.4965
   77SOPE   C34 6890   4.622  -0.117   6.068 -0.0944  0.1693  0.1808
   77SOPE   H4X 6891   4.526  -0.065   6.091 -0.2392  0.9074 -1.8995
   77SOPE   H4Y 6892   4.594  -0.221   6.038  0.2658  0.4161 -1.0595
   77SOPE   C35 6893   4.695  -0.045   5.953 -0.1260  0.6883 -0.4435
   77SOPE   H5X 6894   4.802  -0.073   5.940 -0.2584  0.1596 -0.4292
   77SOPE   H5Y 6895   4.713   0.061   5.982  2.1773  0.5363 -1.1596
   77SOPE   C36 6896   4.629  -0.066   5.816 -0.0512 -0.0968  0.6000
   77SOPE   H6X 6897   4.561   0.022   5.817  1.8978  1.4877  1.4097
   77SOPE   H6Y 6898   4.573  -0.162   5.804  1.1088 -0.7844  0.5049
   77SOPE   C37 6899   4.744  -0.073   5.708  0.4460  0.6628 -0.0856
   77SOPE   H7X 6900   4.803  -0.166   5.723 -1.4484 -0.2607  2.1861
   77SOPE   H7Y 6901   4.814   0.011   5.726  0.8678  0.7565 -1.8834
   77SOPE   C38 6902   4.694  -0.074   5.566  0.1164  0.1214 -0.2515
   77SOPE   H8X 6903   4.623   0.007   5.536 -0.5617 -0.4140 -0.1156
   77SOPE   H8Y 6904   4.634  -0.167   5.560  0.5697 -0.3033  1.3370
   77SOPE   C39 6905   4.807  -0.077   5.465  0.1202  0.1698 -0.0272
   77SOPE   H9X 6906   4.767  -0.115   5.369 -1.9173  1.4027  0.2726
   77SOPE   H9Y 6907   4.885  -0.150   5.495 -0.7160 -0.4451  0.6858
   77SOPE  C310 6908   4.884   0.054   5.457 -0.7910 -0.1867  0.1081
   77SOPE  H10X 6909   4.989   0.022   5.443 -1.2450 -0.6438 -2.9932
   77SOPE  H10Y 6910   4.880   0.107   5.555  0.7654 -2.1314  1.3027
   77SOPE  C311 6911   4.847   0.146   5.337 -0.2479 -0.2381  0.1830
   77SOPE  H11X 6912   4.743   0.184   5.348 -0.0697 -0.3047  2.6118
   77SOPE  H11Y 6913   4.852   0.082   5.246  1.5041  0.7943 -0.5081
   77SOPE  C312 6914   4.954   0.257   5.301  0.6642  0.2401  0.3643
   77SOPE  H12X 6915   5.027   0.199   5.241  0.2232  0.1509 -0.1034
   77SOPE  H12Y 6916   5.001   0.285   5.397  0.9087 -1.1066  0.6523
   77SOPE  C313 6917   4.888   0.377   5.224 -0.5886 -0.6464  0.5042
   77SOPE  H13X 6918   4.817   0.436   5.285  0.6579  1.3038  0.1470
   77SOPE  H13Y 6919   4.831   0.329   5.141 -0.6175  1.0028 -0.4645
   77SOPE  C314 6920   4.996   0.474   5.176  0.4873  0.2719 -0.4348
   77SOPE  H14X 6921   5.056   0.417   5.102  2.6494  1.3653  0.3527
   77SOPE  H14Y 6922   5.071   0.491   5.257  1.6129 -0.6010 -1.2521
   77SOPE  C315 6923   4.942   0.622   5.142 -0.4462  0.1420 -0.5086
   77SOPE  H15X 6924   4.906   0.669   5.236  2.0415 -0.7852  1.0128
   77SOPE  H15Y 6925   4.854   0.609   5.076 -0.6658  1.3744 -0.4823
   77SOPE  C316 6926   5.054   0.713   5.088  0.2870  0.3306 -0.3490
   77SOPE  H16X 6927   5.108   0.658   5.007  0.7813  0.3320 -0.0252
   77SOPE  H16Y 6928   5.126   0.733   5.170 -0.6522  0.8952  0.3527
   77SOPE  C317 6929   4.994   0.846   5.036 -0.1674  0.0925  0.2943
   77SOPE  H17X 6930   4.915   0.857   5.114  0.6503 -1.0792  1.3262
   77SOPE  H17Y 6931   4.935   0.842   4.942 -2.3564 -0.0475  1.6032
   77SOPE  C318 6932   5.089   0.969   5.029  0.0266  0.3009  0.7249
   77SOPE  H18X 6933   5.144   0.968   4.932 -0.8253 -2.2004  0.2133
   77SOPE  H18Y 6934   5.170   0.976   5.105  1.7655  1.2701 -1.1128
   77SOPE  H18Z 6935   5.037   1.065   5.048  0.3094  0.2526  1.8272
   78SOPE     N 6936   3.401   4.981   7.316 -0.2340  0.2139 -0.1360
   78SOPE   HN1 6937   3.316   4.977   7.377  0.4005  1.0103  0.8262
   78SOPE   HN2 6938   3.440   4.885   7.310  0.7118  0.4262  1.8207
   78SOPE   HN3 6939   3.469   5.054   7.343 -1.3793  1.1726  0.2733
   78SOPE   C12 6940   3.370   5.021   7.176  0.1330  0.1139 -0.2775
   78SOPE  H12A 6941   3.464   5.032   7.117  1.2176 -1.6892  1.0053
   78SOPE  H12B 6942   3.319   5.119   7.187 -1.5968 -0.8505  0.6826
   78SOPE   C11 6943   3.274   4.926   7.113 -0.1265  0.0676 -0.2560
   78SOPE  H11A 6944   3.251   4.967   7.013  0.5808 -1.6692 -1.1796
   78SOPE  H11B 6945   3.177   4.917   7.166  1.5457 -0.4008  2.9882
   78SOPE     P 6946   3.281   4.702   6.994  0.5305  0.1589  0.2300
   78SOPE   O13 6947   3.131   4.721   6.968 -0.4925  0.2606 -0.2581
   78SOPE   O14 6948   3.316   4.563   7.026  0.2937 -0.3665  0.1107
   78SOPE   O12 6949   3.335   4.795   7.112 -0.0026 -0.2109  0.4455
   78SOPE   O11 6950   3.367   4.734   6.867  0.3411  0.2826  0.4511
   78SOPE    C1 6951   3.503   4.778   6.872 -0.0980 -0.2038 -0.6629
   78SOPE    HA 6952   3.563   4.697   6.824 -0.4131 -0.9895  0.2267
   78SOPE    HB 6953   3.539   4.789   6.977 -1.4459  3.0986 -0.4230
   78SOPE    C2 6954   3.534   4.903   6.784 -0.4558 -0.1841 -0.5335
   78SOPE    HS 6955   3.478   4.989   6.826  1.1505  2.4316 -3.3913
   78SOPE   O21 6956   3.483   4.862   6.654 -0.2134  0.2867  0.0513
   78SOPE   C21 6957   3.401   4.949   6.595  0.2054 -0.0103  0.2736
   78SOPE   O22 6958   3.366   5.056   6.647 -0.3605 -0.6374  0.0236
   78SOPE   C22 6959   3.378   4.902   6.452 -0.1849 -0.0662  0.2832
   78SOPE   H2R 6960   3.300   4.824   6.463  0.0896 -0.1833  1.6638
   78SOPE   H2S 6961   3.467   4.853   6.406 -0.7155  0.5796 -1.4947
   78SOPE    C3 6962   3.684   4.942   6.775  1.0724 -0.1938 -0.5384
   78SOPE    HX 6963   3.729   4.848   6.735 -1.7705 -1.2737 -1.4442
   78SOPE    HY 6964   3.725   4.969   6.874 -1.5423  0.2911  0.5014
   78SOPE   O31 6965   3.708   5.044   6.674  0.1904 -0.1431  0.2361
   78SOPE   C31 6966   3.672   5.169   6.711 -0.0449 -0.1623  0.2507
   78SOPE   O32 6967   3.647   5.209   6.823  0.0384 -0.0771 -0.6057
   78SOPE   C32 6968   3.695   5.274   6.601 -0.3934  0.0871 -0.1028
   78SOPE   H2X 6969   3.695   5.227   6.500 -1.9589  0.3672 -0.2696
   78SOPE   H2Y 6970   3.795   5.316   6.625 -0.4422  1.5728 -2.1951
   78SOPE   C23 6971   3.350   5.008   6.348 -0.1287  0.3833  0.6344
   78SOPE   H3R 6972   3.434   5.080   6.333 -1.6272  1.8981 -1.0083
   78SOPE   H3S 6973   3.263   5.065   6.386 -0.6750 -1.0022  1.5128
   78SOPE   C24 6974   3.325   4.955   6.211 -0.3147 -0.7754  0.3467
   78SOPE   H4R 6975   3.384   4.861   6.210  0.1103 -0.5124  0.4040
   78SOPE   H4S 6976   3.220   4.917   6.203 -0.7854  0.4006  0.6929
   78SOPE   C25 6977   3.350   5.048   6.090  0.2550  0.0736  0.2150
   78SOPE   H5R 6978   3.281   5.134   6.104 -0.6631 -0.3817 -1.3089
   78SOPE   H5S 6979   3.452   5.086   6.070 -0.3337  0.4108 -2.4434
   78SOPE   C26 6980   3.311   4.977   5.964 -0.2830 -0.3371  0.1821
   78SOPE   H6R 6981   3.398   4.911   5.948  2.2841  2.3366  2.0254
   78SOPE   H6S 6982   3.214   4.923   5.962 -1.0860  1.0224 -1.8450
   78SOPE   C27 6983   3.304   5.062   5.830 -0.0149 -1.0530  0.5776
   78SOPE   H7R 6984   3.216   5.128   5.849 -0.8541 -1.6173 -1.1637
   78SOPE   H7S 6985   3.393   5.127   5.820 -0.4065 -0.3774  1.2823
   78SOPE   C28 6986   3.284   4.983   5.700  0.0059 -0.7777  0.0756
   78SOPE   H8R 6987   3.260   5.056   5.621  0.4549  1.3800  1.8285
   78SOPE   H8S 6988   3.381   4.940   5.670 -0.0522 -0.9238  0.0939
   78SOPE   C29 6989   3.185   4.869   5.717 -0.2673 -0.0608 -0.0641
   78SOPE   H91 6990   3.228   4.770   5.737  0.1529  0.6925  3.3931
   78SOPE  C210 6991   3.053   4.880   5.720 -0.0866 -0.5317 -0.6418
   78SOPE  H101 6992   3.001   4.783   5.719 -0.9263 -0.1638  1.3149
   78SOPE  C211 6993   2.973   5.009   5.703 -0.7487  0.1298  0.3380
   78SOPE  H11R 6994   3.036   5.100   5.692 -1.5532  0.7055  0.4201
   78SOPE  H11S 6995   2.906   5.026   5.789 -1.3746 -0.4398 -0.0300
   78SOPE  C212 6996   2.883   5.002   5.574 -1.3837 -0.2393 -0.5841
   78SOPE  H12R 6997   2.831   4.905   5.589 -0.0403 -0.8744  0.1273
   78SOPE  H12S 6998   2.937   4.999   5.477 -0.2508  2.1436 -0.0936
   78SOPE  C213 6999   2.784   5.123   5.569  0.5920  1.1960 -0.3714
   78SOPE  H13R 7000   2.842   5.218   5.566  0.8370  1.0669  0.1475
   78SOPE  H13S 7001   2.739   5.122   5.671  0.3011  1.6380 -0.4955
   78SOPE  C214 7002   2.665   5.108   5.475 -0.3142  0.6538 -0.1387
   78SOPE  H14R 7003   2.580   5.172   5.507 -0.8684 -0.4484  0.6839
   78SOPE  H14S 7004   2.625   5.006   5.496 -1.4557  0.6031 -2.2615
   78SOPE  C215 7005   2.713   5.114   5.329 -0.3325 -0.3004 -1.2028
   78SOPE  H15R 7006   2.624   5.132   5.264 -0.3311  2.0647 -0.6421
   78SOPE  H15S 7007   2.746   5.013   5.297  0.4635  0.1896 -1.9795
   78SOPE  C216 7008   2.823   5.217   5.307  0.4977 -0.1961  0.1297
   78SOPE  H16R 7009   2.920   5.182   5.348  0.6501  1.5759  1.4008
   78SOPE  H16S 7010   2.779   5.311   5.347  0.7874 -0.7246  1.7516
   78SOPE  C217 7011   2.850   5.253   5.158  0.3270  0.0476  0.2321
   78SOPE  H17R 7012   2.754   5.298   5.125 -0.5676 -0.3246  2.1563
   78SOPE  H17S 7013   2.852   5.161   5.095 -1.4500  2.1793 -3.2440
   78SOPE  C218 7014   2.960   5.352   5.105  0.3650  0.3485  0.6662
   78SOPE  H18R 7015   2.936   5.378   5.000  1.3934 -0.9121  0.0832
   78SOPE  H18S 7016   3.061   5.308   5.118 -0.3280 -1.8076 -0.6689
   78SOPE  H18T 7017   2.958   5.447   5.162  0.6558  0.7977 -0.0531
   78SOPE   C33 7018   3.597   5.390   6.596  0.4995  0.1036  0.3285
   78SOPE   H3X 7019   3.607   5.435   6.697  0.3597  1.6552 -0.3254
   78SOPE   H3Y 7020   3.489   5.364   6.585  1.0018 -2.3324  0.5110
   78SOPE   C34 7021   3.632   5.502   6.494  0.5089  1.0853 -0.6876
   78SOPE   H4X 7022   3.737   5.539   6.503  0.1277  1.6921  2.2696
   78SOPE   H4Y 7023   3.556   5.582   6.508 -0.9393 -0.3475 -0.0813
   78SOPE   C35 7024   3.599   5.458   6.346 -0.2076  0.3020  0.4247
   78SOPE   H5X 7025   3.512   5.389   6.340 -1.1755  1.4111  1.1446
   78SOPE   H5Y 7026   3.695   5.412   6.317 -0.2477  0.5990 -0.2159
   78SOPE   C36 7027   3.570   5.580   6.251 -0.0105  0.1223  0.1399
   78SOPE   H6X 7028   3.663   5.641   6.253 -0.5930  1.1139 -1.3524
   78SOPE   H6Y 7029   3.488   5.644   6.292  0.4058 -0.0503  1.2871
   78SOPE   C37 7030   3.532   5.532   6.111  0.4032  0.2072 -0.0746
   78SOPE   H7X 7031   3.436   5.477   6.107 -1.4825  3.1011  1.6066
   78SOPE   H7Y 7032   3.619   5.475   6.072  0.6961  0.3458  0.3669
   78SOPE   C38 7033   3.514   5.656   6.016  0.0616 -0.1978 -0.6098
   78SOPE   H8X 7034   3.606   5.719   6.015 -0.7984  1.0875 -0.4314
   78SOPE   H8Y 7035   3.430   5.710   6.065  1.1812 -1.2407  2.7514
   78SOPE   C39 7036   3.485   5.618   5.865  0.1237 -0.0785 -0.1129
   78SOPE   H9X 7037   3.465   5.710   5.806 -0.1509  0.7842  1.2822
   78SOPE   H9Y 7038   3.392   5.558   5.865 -0.1094  0.2686 -0.7419
   78SOPE  C310 7039   3.607   5.542   5.806  0.6738 -0.4287 -0.7500
   78SOPE  H10X 7040   3.612   5.440   5.850  0.7993 -0.5373 -1.0107
   78SOPE  H10Y 7041   3.701   5.591   5.839 -0.0377  0.4337  0.0540
   78SOPE  C311 7042   3.590   5.538   5.655  0.0317 -0.9564 -0.5398
   78SOPE  H11X 7043   3.673   5.478   5.611  1.2579 -0.1537  0.5846
   78SOPE  H11Y 7044   3.595   5.643   5.620 -0.7110 -1.1184 -1.1556
   78SOPE  C312 7045   3.461   5.473   5.600 -0.0752  0.0118 -0.3530
   78SOPE  H12X 7046   3.379   5.545   5.625  1.2322  1.9041 -1.2392
   78SOPE  H12Y 7047   3.447   5.376   5.651 -1.1882  0.3042 -0.0673
   78SOPE  C313 7048   3.479   5.461   5.445  0.0111 -0.0656 -0.1417
   78SOPE  H13X 7049   3.556   5.391   5.404  2.0186  2.0033 -0.0845
   78SOPE  H13Y 7050   3.498   5.564   5.409 -1.6844  0.0117 -0.8892
   78SOPE  C314 7051   3.345   5.422   5.380 -0.4507 -0.5001 -0.1186
   78SOPE  H14X 7052   3.267   5.443   5.456 -2.9518 -1.5749 -2.2365
   78SOPE  H14Y 7053   3.334   5.312   5.363 -0.8642 -0.2023 -1.9565
   78SOPE  C315 7054   3.310   5.493   5.246 -0.6107  0.1380  0.3062
   78SOPE  H15X 7055   3.305   5.602   5.268  0.2750  0.1153  0.6587
   78SOPE  H15Y 7056   3.204   5.473   5.219 -0.1621 -3.1235  0.5316
   78SOPE  C316 7057   3.406   5.445   5.135 -0.2195 -0.3211 -0.3099
   78SOPE  H16X 7058   3.388   5.336   5.120 -1.9755 -0.2069  0.6964
   78SOPE  H16Y 7059   3.514   5.462   5.155  0.1774 -0.1581 -2.3969
   78SOPE  C317 7060   3.384   5.513   5.000  0.9765  0.0605 -0.1669
   78SOPE  H17X 7061   3.280   5.498   4.965  1.3561  0.0996 -1.3406
   78SOPE  H17Y 7062   3.451   5.462   4.929  1.2337  0.1102  0.0379
   78SOPE  C318 7063   3.398   5.666   5.010  0.2875 -0.5109  0.9419
   78SOPE  H18X 7064   3.506   5.684   5.029  0.5854 -1.5973  0.3484
   78SOPE  H18Y 7065   3.330   5.709   5.086  0.2034  1.8121 -0.3656
   78SOPE  H18Z 7066   3.376   5.715   4.913  2.6647 -0.8338  0.1879
   79SOPE     N 7067   0.369   4.996   7.049  1.1202  0.2392  0.9785
   79SOPE   HN1 7068   0.426   4.911   7.037 -0.5695 -0.6549 -1.5949
   79SOPE   HN2 7069   0.369   5.039   6.954  1.5775  0.3737  1.0391
   79SOPE   HN3 7070   0.420   5.061   7.112  3.2802  1.2156 -1.5693
   79SOPE   C12 7071   0.228   4.937   7.084  0.4461 -0.5455  0.2136
   79SOPE  H12A 7072   0.166   5.022   7.121  2.0598  1.3050 -1.1211
   79SOPE  H12B 7073   0.240   4.867   7.169 -1.9725  0.3028  1.3516
   79SOPE   C11 7074   0.146   4.868   6.972 -0.4427 -0.2476  0.0296
   79SOPE  H11A 7075   0.221   4.798   6.931  1.6551 -0.2192  3.4023
   79SOPE  H11B 7076   0.115   4.929   6.885 -2.1742 -0.5345  0.3879
   79SOPE     P 7077  -0.045   4.683   6.991  0.0705 -0.0584  0.0219
   79SOPE   O13 7078  -0.134   4.654   7.105 -0.3933  0.5375 -0.0289
   79SOPE   O14 7079   0.042   4.569   6.953  0.3090 -0.1556  0.5113
   79SOPE   O12 7080   0.042   4.805   7.034 -0.1560  0.3728 -0.0518
   79SOPE   O11 7081  -0.122   4.728   6.867  0.9176  0.6297  0.1584
   79SOPE    C1 7082  -0.069   4.711   6.736 -0.6471  0.4028 -0.1717
   79SOPE    HA 7083  -0.070   4.604   6.709 -2.8499  0.1738  0.6741
   79SOPE    HB 7084   0.036   4.749   6.742 -0.2476 -0.8078  1.1959
   79SOPE    C2 7085  -0.147   4.788   6.627 -0.3213 -0.1426 -0.0614
   79SOPE    HS 7086  -0.201   4.868   6.683 -2.8567 -1.9850  0.2867
   79SOPE   O21 7087  -0.238   4.699   6.562  0.3569  0.2548 -0.8188
   79SOPE   C21 7088  -0.359   4.738   6.542  0.0985  0.1195  0.4715
   79SOPE   O22 7089  -0.410   4.848   6.568 -0.4824 -0.3237 -0.5157
   79SOPE   C22 7090  -0.426   4.618   6.478 -0.6456  0.1109  0.7565
   79SOPE   H2R 7091  -0.444   4.537   6.552 -1.1323  0.3656  0.9209
   79SOPE   H2S 7092  -0.357   4.580   6.400 -1.8402 -0.0118 -0.2507
   79SOPE    C3 7093  -0.051   4.843   6.511  0.7878 -0.4143 -0.3668
   79SOPE    HX 7094   0.016   4.911   6.567  0.0121 -0.7489  1.0080
   79SOPE    HY 7095  -0.098   4.897   6.426  2.2434 -0.0773 -0.9810
   79SOPE   O31 7096   0.022   4.737   6.455 -0.1316 -0.0022 -0.2822
   79SOPE   C31 7097   0.151   4.717   6.499 -0.0931  0.8244  0.3653
   79SOPE   O32 7098   0.206   4.778   6.586  0.4139 -0.3729 -0.2795
   79SOPE   C32 7099   0.228   4.621   6.409 -0.5167  0.0760  0.2055
   79SOPE   H2X 7100   0.183   4.520   6.425 -0.5551 -0.0854 -0.8297
   79SOPE   H2Y 7101   0.330   4.617   6.453 -0.3372 -2.0248 -0.3196
   79SOPE   C23 7102  -0.552   4.648   6.393 -0.3541 -0.1255 -0.0103
   79SOPE   H3R 7103  -0.522   4.676   6.290 -0.7170  0.9122  0.1528
   79SOPE   H3S 7104  -0.617   4.729   6.433 -0.4155 -1.4014  2.6548
   79SOPE   C24 7105  -0.624   4.519   6.396 -0.0555 -0.0081 -0.3934
   79SOPE   H4R 7106  -0.565   4.430   6.366  1.2672  0.7483 -0.1058
   79SOPE   H4S 7107  -0.661   4.506   6.500 -0.6319 -0.8250 -0.6905
   79SOPE   C25 7108  -0.759   4.524   6.309 -0.5498 -0.3316  0.3003
   79SOPE   H5R 7109  -0.812   4.430   6.335  0.0672 -0.4396  1.2165
   79SOPE   H5S 7110  -0.813   4.619   6.333 -0.1013 -0.1824  0.7395
   79SOPE   C26 7111  -0.734   4.523   6.161  0.2030 -0.6676  0.4623
   79SOPE   H6R 7112  -0.830   4.507   6.106 -0.1454  1.3317  0.4378
   79SOPE   H6S 7113  -0.704   4.627   6.136 -0.1001 -0.8685 -0.7935
   79SOPE   C27 7114  -0.639   4.422   6.103  0.2657 -0.4125 -0.0442
   79SOPE   H7R 7115  -0.542   4.470   6.129 -0.6300  0.3134  2.2376
   79SOPE   H7S 7116  -0.641   4.328   6.161  3.9027 -2.0513 -2.2409
   79SOPE   C28 7117  -0.663   4.405   5.954 -0.0913  0.2046 -0.2913
   79SOPE   H8R 7118  -0.768   4.378   5.935 -0.0498  0.1139 -0.3889
   79SOPE   H8S 7119  -0.624   4.499   5.910  0.2854  0.2954  0.2181
   79SOPE   C29 7120  -0.576   4.296   5.918  0.3523 -0.1955 -0.5056
   79SOPE   H91 7121  -0.537   4.225   5.993  0.6818  0.4001 -0.1096
   79SOPE  C210 7122  -0.542   4.256   5.794 -0.0450 -0.9566 -1.3100
   79SOPE  H101 7123  -0.471   4.173   5.782  2.2169  0.7372 -0.4085
   79SOPE  C211 7124  -0.574   4.331   5.664  0.4015 -1.2539  0.1320
   79SOPE  H11R 7125  -0.661   4.400   5.676  1.7569  0.4066  0.7636
   79SOPE  H11S 7126  -0.593   4.258   5.583 -1.6905  0.7918 -1.3600
   79SOPE  C212 7127  -0.451   4.430   5.624  0.3320  0.0127  0.1142
   79SOPE  H12R 7128  -0.354   4.379   5.645  0.7725  1.6084  2.4240
   79SOPE  H12S 7129  -0.448   4.516   5.694  0.7053  0.1169 -0.0267
   79SOPE  C213 7130  -0.460   4.493   5.484 -0.8685 -0.0370  0.8323
   79SOPE  H13R 7131  -0.566   4.491   5.450 -1.0487 -0.3784  1.4095
   79SOPE  H13S 7132  -0.392   4.445   5.410  0.2512 -0.1393  1.8879
   79SOPE  C214 7133  -0.419   4.643   5.482  0.8336  0.5809 -0.7290
   79SOPE  H14R 7134  -0.498   4.700   5.535 -0.3625  0.7377 -2.6199
   79SOPE  H14S 7135  -0.427   4.682   5.379 -2.6307 -0.0610 -0.8341
   79SOPE  C215 7136  -0.281   4.671   5.544 -0.9912 -0.3340  0.3572
   79SOPE  H15R 7137  -0.256   4.607   5.631 -1.2845  0.3289  0.9411
   79SOPE  H15S 7138  -0.275   4.781   5.560  0.7836 -0.4263  0.5189
   79SOPE  C216 7139  -0.168   4.651   5.443 -0.2033  0.0028  0.2811
   79SOPE  H16R 7140  -0.195   4.714   5.356 -2.4565 -0.7802  0.3337
   79SOPE  H16S 7141  -0.159   4.545   5.411  2.5016 -0.8409  3.3305
   79SOPE  C217 7142  -0.034   4.712   5.496 -0.0907 -0.6373  0.2309
   79SOPE  H17R 7143   0.006   4.649   5.578 -0.8762 -1.4430  0.0051
   79SOPE  H17S 7144  -0.051   4.815   5.534  0.4900 -0.3907 -0.1711
   79SOPE  C218 7145   0.076   4.702   5.389 -0.2215 -0.3575 -0.1106
   79SOPE  H18R 7146   0.058   4.785   5.317 -1.7359 -0.0254  0.6146
   79SOPE  H18S 7147   0.066   4.602   5.342  0.9449 -0.3104 -0.4938
   79SOPE  H18T 7148   0.181   4.708   5.425 -0.9757  0.7512  2.0237
   79SOPE   C33 7149   0.229   4.658   6.256 -0.7020  0.2151 -0.1313
   79SOPE   H3X 7150   0.282   4.754   6.241  0.8071 -0.6463 -0.4330
   79SOPE   H3Y 7151   0.124   4.655   6.219  0.2740 -2.5517 -3.1240
   79SOPE   C34 7152   0.304   4.555   6.179  0.2890  0.7995  0.7243
   79SOPE   H4X 7153   0.272   4.450   6.197  0.9057 -0.2153 -3.1611
   79SOPE   H4Y 7154   0.414   4.563   6.194  1.6069  0.4791 -5.8620
   79SOPE   C35 7155   0.283   4.569   6.019 -0.5323  0.3783 -0.0746
   79SOPE   H5X 7156   0.329   4.667   5.994  1.1445 -0.2269  0.4736
   79SOPE   H5Y 7157   0.175   4.572   5.994 -0.1408  2.0888 -1.8888
   79SOPE   C36 7158   0.346   4.452   5.928 -0.2712 -0.0040 -0.2746
   79SOPE   H6X 7159   0.281   4.361   5.934 -1.0338  0.5749  0.5551
   79SOPE   H6Y 7160   0.447   4.424   5.965 -0.2123  1.6861  0.9873
   79SOPE   C37 7161   0.357   4.504   5.786 -0.9768  0.2390 -0.4561
   79SOPE   H7X 7162   0.444   4.573   5.788  1.2968 -2.3945 -1.3962
   79SOPE   H7Y 7163   0.266   4.555   5.747 -0.3515  3.1713  1.6467
   79SOPE   C38 7164   0.399   4.403   5.675 -0.7353 -0.3695  0.2240
   79SOPE   H8X 7165   0.319   4.326   5.677  0.4429 -1.6316  0.1278
   79SOPE   H8Y 7166   0.497   4.355   5.692 -0.6917 -0.6157 -0.6410
   79SOPE   C39 7167   0.402   4.482   5.539  0.2457  0.4637  0.2825
   79SOPE   H9X 7168   0.466   4.572   5.547 -0.2754  0.8902 -0.2275
   79SOPE   H9Y 7169   0.296   4.514   5.525 -0.4894 -1.6749  0.4480
   79SOPE  C310 7170   0.424   4.389   5.419  0.1769  0.5900 -0.3187
   79SOPE  H10X 7171   0.333   4.325   5.428  1.3386 -1.0487  0.0781
   79SOPE  H10Y 7172   0.513   4.323   5.425  0.3689  0.8526 -0.2700
   79SOPE  C311 7173   0.410   4.458   5.283  0.2616 -0.3653  0.3671
   79SOPE  H11X 7174   0.481   4.540   5.260 -0.6676  0.4342  0.2965
   79SOPE  H11Y 7175   0.316   4.517   5.294  1.1371  1.0507  0.5266
   79SOPE  C312 7176   0.395   4.363   5.167  0.2690  0.2057  0.3926
   79SOPE  H12X 7177   0.306   4.398   5.110  2.1028  1.1130 -2.1074
   79SOPE  H12Y 7178   0.365   4.267   5.213 -1.1064  0.9221  1.0577
   79SOPE  C313 7179   0.519   4.375   5.070  0.0092 -0.4240  0.7019
   79SOPE  H13X 7180   0.605   4.335   5.128  0.1733 -0.4093  0.4707
   79SOPE  H13Y 7181   0.542   4.474   5.024  0.4326 -1.2101 -0.8578
   79SOPE  C314 7182   0.519   4.273   4.949 -0.0966 -1.0403  0.1901
   79SOPE  H14X 7183   0.511   4.168   4.986  1.9542 -0.3072  3.1305
   79SOPE  H14Y 7184   0.622   4.274   4.908  1.0849  2.0961  2.7446
   79SOPE  C315 7185   0.417   4.304   4.839 -0.3930  0.5718 -1.2152
   79SOPE  H15X 7186   0.421   4.410   4.806  3.8924  0.7172 -0.7309
   79SOPE  H15Y 7187   0.320   4.285   4.889  0.8416  1.9354  1.9133
   79SOPE  C316 7188   0.435   4.235   4.705 -0.0746 -0.6534 -0.2940
   79SOPE  H16X 7189   0.541   4.256   4.680 -0.1352 -0.9421 -0.8067
   79SOPE  H16Y 7190   0.358   4.280   4.638  1.8319  3.3021 -0.1186
   79SOPE  C317 7191   0.422   4.085   4.711  0.6611 -0.1822 -0.1756
   79SOPE  H17X 7192   0.320   4.066   4.752  0.7337 -0.4206 -0.1016
   79SOPE  H17Y 7193   0.490   4.038   4.785  3.0527 -1.8326 -3.1792
   79SOPE  C318 7194   0.443   4.009   4.580 -0.0933  0.4130 -0.1100
   79SOPE  H18X 7195   0.551   3.985   4.570  0.1316  1.1516  0.4395
   79SOPE  H18Y 7196   0.409   4.070   4.493 -0.2429  1.3898  0.6244
   79SOPE  H18Z 7197   0.391   3.911   4.582  1.5395 -0.5414 -1.3489
   80SOPE     N 7198   3.596   5.598   7.096 -0.0709  0.4231 -0.5434
   80SOPE   HN1 7199   3.681   5.629   7.045 -0.5902 -0.6537 -2.1361
   80SOPE   HN2 7200   3.585   5.639   7.191 -0.4792  0.7593 -0.7280
   80SOPE   HN3 7201   3.592   5.495   7.110  2.6668  0.4064  0.5853
   80SOPE   C12 7202   3.491   5.658   7.005 -0.2530 -0.4727 -0.1851
   80SOPE  H12A 7203   3.394   5.640   7.056  0.1820  0.6546  1.0943
   80SOPE  H12B 7204   3.490   5.594   6.913 -3.5131 -1.6851  0.5395
   80SOPE   C11 7205   3.519   5.808   6.997 -0.4633  0.1135 -0.4565
   80SOPE  H11A 7206   3.425   5.859   6.966 -0.3443  0.6186 -0.0129
   80SOPE  H11B 7207   3.593   5.834   6.918 -1.3783  1.6965 -0.8435
   80SOPE     P 7208   3.605   6.004   7.169  0.2811 -0.5370  0.0629
   80SOPE   O13 7209   3.755   6.007   7.175  0.2527  0.0575  0.1519
   80SOPE   O14 7210   3.536   6.044   7.291 -0.2938 -0.1356  0.0907
   80SOPE   O12 7211   3.551   5.861   7.127  0.2351  0.9530 -0.1571
   80SOPE   O11 7212   3.557   6.096   7.056 -0.3450 -1.3479  0.7562
   80SOPE    C1 7213   3.651   6.134   6.950  0.2322 -0.3707  0.1631
   80SOPE    HA 7214   3.734   6.064   6.924  0.0391 -0.0316 -1.4856
   80SOPE    HB 7215   3.690   6.228   6.994 -0.9043 -1.2361  3.2784
   80SOPE    C2 7216   3.571   6.160   6.821  0.0294  0.0977 -0.7141
   80SOPE    HS 7217   3.487   6.224   6.856 -0.4714 -0.0470 -1.6119
   80SOPE   O21 7218   3.523   6.037   6.764  0.6951 -0.1719  0.3712
   80SOPE   C21 7219   3.429   6.040   6.676  0.3974 -0.6426  0.4700
   80SOPE   O22 7220   3.367   6.140   6.645  0.0532  0.5516 -0.2649
   80SOPE   C22 7221   3.405   5.904   6.617 -0.1942 -0.1186  0.5931
   80SOPE   H2R 7222   3.307   5.875   6.660  0.4996 -0.1679  2.2291
   80SOPE   H2S 7223   3.481   5.829   6.649 -1.8284 -0.9465  2.8226
   80SOPE    C3 7224   3.651   6.229   6.715  0.2088 -0.1496 -0.4031
   80SOPE    HX 7225   3.686   6.327   6.753 -0.9404  0.7195 -1.5121
   80SOPE    HY 7226   3.587   6.246   6.626 -1.3358  2.2859  1.0668
   80SOPE   O31 7227   3.764   6.147   6.672  0.0730  0.0565 -0.0308
   80SOPE   C31 7228   3.856   6.216   6.599 -0.2157  0.7031 -0.0546
   80SOPE   O32 7229   3.859   6.335   6.579  1.1653  0.1162  0.3708
   80SOPE   C32 7230   3.945   6.112   6.531  0.3004 -0.6030  0.5568
   80SOPE   H2X 7231   3.880   6.032   6.491  0.7054 -1.5481  1.7095
   80SOPE   H2Y 7232   4.001   6.059   6.611  0.2809 -0.9614  0.3366
   80SOPE   C23 7233   3.423   5.921   6.462 -0.9883  0.7942 -0.5293
   80SOPE   H3R 7234   3.354   5.998   6.423 -0.0569  1.6156 -0.5903
   80SOPE   H3S 7235   3.377   5.830   6.416 -3.6066  2.3235 -1.1284
   80SOPE   C24 7236   3.565   5.931   6.411 -0.2118  0.8793  0.1324
   80SOPE   H4R 7237   3.621   6.015   6.456  1.3286 -0.2127  0.3536
   80SOPE   H4S 7238   3.613   5.843   6.459 -0.8651  0.9919  1.0366
   80SOPE   C25 7239   3.586   5.948   6.261 -0.4668 -0.1616 -0.7337
   80SOPE   H5R 7240   3.555   5.851   6.216  1.0037 -1.3927  0.7526
   80SOPE   H5S 7241   3.515   6.025   6.226 -2.5959 -0.8897  1.6412
   80SOPE   C26 7242   3.732   5.977   6.226 -0.3125  0.1945 -0.5316
   80SOPE   H6R 7243   3.805   5.941   6.302  0.5078 -0.2216 -1.4840
   80SOPE   H6S 7244   3.762   5.913   6.140 -0.8162 -0.7287 -0.0438
   80SOPE   C27 7245   3.769   6.121   6.173  0.7271 -0.3698  0.3309
   80SOPE   H7R 7246   3.687   6.161   6.110  0.2994 -1.6995  0.0103
   80SOPE   H7S 7247   3.772   6.180   6.267 -1.0634 -2.6127  1.9116
   80SOPE   C28 7248   3.906   6.134   6.095 -0.3275 -0.4533  0.1799
   80SOPE   H8R 7249   3.993   6.097   6.154 -0.7500  1.4432  2.1193
   80SOPE   H8S 7250   3.889   6.061   6.013  0.9716  0.7494 -1.1996
   80SOPE   C29 7251   3.916   6.278   6.050  0.7591  0.3213 -0.6078
   80SOPE   H91 7252   3.859   6.350   6.112 -0.0464 -1.3722  0.6818
   80SOPE  C210 7253   3.950   6.305   5.925 -0.3102 -0.2746  0.0332
   80SOPE  H101 7254   3.957   6.413   5.906 -0.2827 -0.3181 -0.2124
   80SOPE  C211 7255   4.018   6.227   5.820  0.1672 -0.1446  0.2946
   80SOPE  H11R 7256   4.051   6.129   5.860  0.4035 -0.5563 -0.8810
   80SOPE  H11S 7257   4.115   6.278   5.797 -1.2805  2.5910 -0.1542
   80SOPE  C212 7258   3.936   6.199   5.692  0.0697 -0.6255 -0.0661
   80SOPE  H12R 7259   3.833   6.179   5.729 -0.0031 -1.1871 -0.5431
   80SOPE  H12S 7260   3.978   6.102   5.657  0.6010 -0.9122  1.3303
   80SOPE  C213 7261   3.944   6.312   5.588 -0.3065 -0.0420  0.4000
   80SOPE  H13R 7262   4.049   6.306   5.552 -0.9884  1.2788 -2.0938
   80SOPE  H13S 7263   3.930   6.413   5.634 -1.2200  1.2708 -2.5091
   80SOPE  C214 7264   3.866   6.291   5.463 -0.2019  0.2010  0.5670
   80SOPE  H14R 7265   3.757   6.290   5.486 -0.4378  4.5026  0.5132
   80SOPE  H14S 7266   3.897   6.194   5.417 -0.5540  0.7572 -0.9170
   80SOPE  C215 7267   3.903   6.401   5.374  0.6768 -0.3532 -0.0613
   80SOPE  H15R 7268   4.010   6.392   5.344  0.9775 -1.4787  1.2483
   80SOPE  H15S 7269   3.877   6.492   5.431 -0.6832 -1.1555  0.6327
   80SOPE  C216 7270   3.807   6.410   5.252 -0.6515  0.3627  0.2630
   80SOPE  H16R 7271   3.707   6.446   5.284 -0.4033 -1.6871  3.9211
   80SOPE  H16S 7272   3.798   6.306   5.215 -0.8248  1.3644 -2.7960
   80SOPE  C217 7273   3.865   6.498   5.143 -0.8425 -0.8171 -0.1050
   80SOPE  H17R 7274   3.802   6.486   5.053  2.0402 -1.2334 -2.1849
   80SOPE  H17S 7275   3.961   6.451   5.110  1.2210  1.5820  2.0406
   80SOPE  C218 7276   3.876   6.650   5.170  0.0333 -0.0678  0.5661
   80SOPE  H18R 7277   3.911   6.700   5.077 -0.8664 -2.0304 -0.9119
   80SOPE  H18S 7278   3.939   6.664   5.260 -0.8748  3.3756  0.8042
   80SOPE  H18T 7279   3.773   6.689   5.187 -0.3363 -0.8446  0.1773
   80SOPE   C33 7280   4.047   6.167   6.429  0.0952  1.1608 -0.0927
   80SOPE   H3X 7281   3.985   6.234   6.366 -2.4675 -1.1510 -0.2396
   80SOPE   H3Y 7282   4.082   6.094   6.354 -0.3485  0.8911 -0.0442
   80SOPE   C34 7283   4.168   6.230   6.505 -0.9092 -0.5141 -0.8063
   80SOPE   H4X 7284   4.215   6.156   6.572 -1.5191 -0.6269 -0.4979
   80SOPE   H4Y 7285   4.131   6.313   6.570  2.1611 -0.5967  1.2470
   80SOPE   C35 7286   4.256   6.310   6.407 -0.4533  0.3672 -0.4486
   80SOPE   H5X 7287   4.343   6.340   6.469 -1.1208 -1.3875  1.4460
   80SOPE   H5Y 7288   4.190   6.395   6.380 -1.8430  0.3414  2.4562
   80SOPE   C36 7289   4.312   6.240   6.282 -0.0657  0.2215  0.2036
   80SOPE   H6X 7290   4.237   6.223   6.202  1.9471 -1.0407 -1.5076
   80SOPE   H6Y 7291   4.357   6.142   6.308  0.2469 -0.1423 -1.5975
   80SOPE   C37 7292   4.424   6.309   6.208 -0.1235  0.0392 -0.1254
   80SOPE   H7X 7293   4.484   6.373   6.276 -0.1238 -0.2380  0.1361
   80SOPE   H7Y 7294   4.370   6.381   6.141 -2.5244 -3.1164 -1.8714
   80SOPE   C38 7295   4.511   6.216   6.122  0.4020 -0.0552  0.0628
   80SOPE   H8X 7296   4.547   6.135   6.189  0.0017  2.1601  3.1404
   80SOPE   H8Y 7297   4.591   6.279   6.078  0.1021  0.7619  0.6698
   80SOPE   C39 7298   4.446   6.149   6.000  0.0154 -0.0714  0.9046
   80SOPE   H9X 7299   4.367   6.213   5.954 -0.6537 -2.0052 -0.7891
   80SOPE   H9Y 7300   4.401   6.050   6.020  2.1271 -1.7046 -1.6812
   80SOPE  C310 7301   4.543   6.131   5.882 -0.4371  0.3617  0.1897
   80SOPE  H10X 7302   4.621   6.055   5.901 -1.2969 -2.2171 -4.8057
   80SOPE  H10Y 7303   4.598   6.227   5.871 -1.8722  1.0588 -1.5049
   80SOPE  C311 7304   4.463   6.098   5.758 -1.0038 -0.0233  0.9589
   80SOPE  H11X 7305   4.385   6.176   5.747 -1.7895 -0.9933 -0.8497
   80SOPE  H11Y 7306   4.415   5.998   5.771 -0.6585 -0.5970 -1.5608
   80SOPE  C312 7307   4.524   6.103   5.616  0.2385 -0.1933 -0.2853
   80SOPE  H12X 7308   4.618   6.045   5.630  0.2366  0.3187  2.3862
   80SOPE  H12Y 7309   4.559   6.205   5.592 -0.0676 -0.0296 -0.0313
   80SOPE  C313 7310   4.422   6.055   5.519 -0.0957  0.5899 -0.4019
   80SOPE  H13X 7311   4.317   6.084   5.543 -0.2714 -0.4568  0.1716
   80SOPE  H13Y 7312   4.440   5.945   5.516  1.3838  0.8542 -2.4799
   80SOPE  C314 7313   4.443   6.109   5.376 -0.3026 -0.3435  0.3693
   80SOPE  H14X 7314   4.418   6.217   5.381  1.3615  0.1009 -0.0585
   80SOPE  H14Y 7315   4.361   6.062   5.317 -0.5667 -0.8445  1.1274
   80SOPE  C315 7316   4.581   6.097   5.309  0.8248  0.3093  0.4664
   80SOPE  H15X 7317   4.670   6.104   5.376 -1.0430 -2.5516  3.6202
   80SOPE  H15Y 7318   4.589   6.164   5.221  0.1960 -1.5529 -1.0755
   80SOPE  C316 7319   4.590   5.956   5.237  0.0080  0.2641 -0.4727
   80SOPE  H16X 7320   4.512   5.949   5.158 -0.7835 -0.6188  0.3496
   80SOPE  H16Y 7321   4.567   5.875   5.310 -0.4616 -0.0934 -1.0047
   80SOPE  C317 7322   4.725   5.929   5.171  0.1221  0.3862 -0.1548
   80SOPE  H17X 7323   4.724   5.820   5.147 -0.5533  0.7441 -1.8880
   80SOPE  H17Y 7324   4.790   5.936   5.261  0.0007  0.9368 -0.1080
   80SOPE  C318 7325   4.771   6.013   5.055 -0.0002  0.0021 -0.6030
   80SOPE  H18X 7326   4.875   5.989   5.026  0.7750  1.4062  0.8148
   80SOPE  H18Y 7327   4.761   6.124   5.058 -0.0022 -0.0163  0.5447
   80SOPE  H18Z 7328   4.713   5.984   4.965 -1.4225  2.0659 -0.4301
   81SOPE     N 7329   6.501   3.386   7.510 -0.3548  0.0731 -0.4621
   81SOPE   HN1 7330   6.592   3.432   7.530 -1.7085  3.0790 -0.6506
   81SOPE   HN2 7331   6.438   3.463   7.478  0.1129  0.1515 -1.2227
   81SOPE   HN3 7332   6.466   3.349   7.601 -0.5637 -0.2099 -0.6562
   81SOPE   C12 7333   6.513   3.284   7.401  0.3015  0.5014  0.4313
   81SOPE  H12A 7334   6.587   3.207   7.432 -0.5394 -0.2336  0.6778
   81SOPE  H12B 7335   6.565   3.337   7.318  0.4691 -0.8301 -0.3509
   81SOPE   C11 7336   6.382   3.219   7.350  0.4322 -0.6819 -0.1252
   81SOPE  H11A 7337   6.324   3.177   7.435 -0.9980 -0.8893 -1.1656
   81SOPE  H11B 7338   6.401   3.134   7.281  2.1173 -0.3813 -0.0821
   81SOPE     P 7339   6.288   3.358   7.138 -0.0079  0.1472  0.1960
   81SOPE   O13 7340   6.264   3.231   7.072 -0.1962  0.2817  0.0489
   81SOPE   O14 7341   6.403   3.442   7.100 -0.2537 -0.2449 -0.2400
   81SOPE   O12 7342   6.303   3.326   7.291 -0.9569  0.6207 -0.7738
   81SOPE   O11 7343   6.149   3.435   7.137 -0.4424  0.1123 -0.2167
   81SOPE    C1 7344   6.122   3.527   7.027 -0.1988 -0.5505  0.1788
   81SOPE    HA 7345   6.205   3.599   7.013 -1.1785  0.6033  0.1742
   81SOPE    HB 7346   6.042   3.598   7.057 -1.1625 -1.3673 -0.3595
   81SOPE    C2 7347   6.104   3.477   6.878  0.3732 -0.3937 -0.3111
   81SOPE    HS 7348   6.008   3.423   6.866  0.8183 -1.5348  0.9780
   81SOPE   O21 7349   6.218   3.396   6.838 -0.7391  0.0082 -0.4347
   81SOPE   C21 7350   6.185   3.277   6.781  0.1717  0.4403 -0.4072
   81SOPE   O22 7351   6.072   3.236   6.775  0.1058 -0.1392 -0.7107
   81SOPE   C22 7352   6.308   3.193   6.736 -0.4152 -0.3376 -0.5853
   81SOPE   H2R 7353   6.362   3.176   6.832 -0.4825 -1.6522 -0.7602
   81SOPE   H2S 7354   6.368   3.252   6.664  2.0671  0.1287  1.6764
   81SOPE    C3 7355   6.100   3.593   6.780  0.3144 -0.0225  0.6105
   81SOPE    HX 7356   6.202   3.636   6.781  0.5765 -0.5740 -0.5493
   81SOPE    HY 7357   6.031   3.671   6.818 -1.4860 -0.1086 -2.1881
   81SOPE   O31 7358   6.067   3.550   6.648  0.1331  1.0668  0.1389
   81SOPE   C31 7359   6.080   3.647   6.554  0.7671 -0.5474 -0.1918
   81SOPE   O32 7360   6.094   3.768   6.581  0.3102  0.0632  0.6164
   81SOPE   C32 7361   6.059   3.579   6.418  0.0336 -1.1781  0.3819
   81SOPE   H2X 7362   5.980   3.501   6.415 -2.3302  1.0339  1.2392
   81SOPE   H2Y 7363   6.156   3.531   6.394  0.4375 -0.2089  0.0199
   81SOPE   C23 7364   6.285   3.056   6.669  0.5538  0.1472 -0.3552
   81SOPE   H3R 7365   6.208   3.008   6.733  0.3521  0.7355 -0.1393
   81SOPE   H3S 7366   6.370   2.987   6.682 -1.1830 -2.1537 -0.6259
   81SOPE   C24 7367   6.258   3.053   6.519 -0.7075 -0.1147 -0.5010
   81SOPE   H4R 7368   6.349   3.094   6.469 -0.4607 -0.7340 -0.5732
   81SOPE   H4S 7369   6.223   2.954   6.484 -2.2558  0.2895 -0.1810
   81SOPE   C25 7370   6.149   3.146   6.479  0.5571  0.2864  0.5633
   81SOPE   H5R 7371   6.049   3.115   6.516  0.5308 -2.1606 -1.2831
   81SOPE   H5S 7372   6.173   3.251   6.509 -2.7984  1.1150  0.7436
   81SOPE   C26 7373   6.131   3.150   6.318  0.0939  0.5214 -0.8535
   81SOPE   H6R 7374   6.049   3.218   6.287 -0.8966 -0.2680 -0.0709
   81SOPE   H6S 7375   6.232   3.182   6.285  0.3672  1.2618  0.6107
   81SOPE   C27 7376   6.085   3.016   6.267 -0.6505  0.4016 -0.4457
   81SOPE   H7R 7377   6.165   2.940   6.279 -1.2811 -0.7114 -2.7189
   81SOPE   H7S 7378   5.997   2.979   6.323  0.7986 -0.9645  1.0168
   81SOPE   C28 7379   6.051   3.013   6.111 -0.5644  0.2774  0.0060
   81SOPE   H8R 7380   5.977   2.931   6.099  1.2265 -1.8277  2.3004
   81SOPE   H8S 7381   6.006   3.112   6.085  0.8160  1.5088  1.9598
   81SOPE   C29 7382   6.164   2.978   6.013 -0.7618  0.6149  0.0452
   81SOPE   H91 7383   6.254   2.951   6.070 -0.6686  0.1844 -0.3019
   81SOPE  C210 7384   6.176   2.982   5.881 -0.6982  0.0369 -0.0311
   81SOPE  H101 7385   6.261   2.938   5.827  0.0848  0.3457  0.9120
   81SOPE  C211 7386   6.060   3.010   5.794 -0.3640  0.4714 -0.2191
   81SOPE  H11R 7387   5.965   2.983   5.843  0.1132  0.4040  0.6884
   81SOPE  H11S 7388   6.066   2.948   5.702 -0.7934 -1.3840  0.9559
   81SOPE  C212 7389   6.043   3.158   5.747  0.2368  0.1938 -0.2830
   81SOPE  H12R 7390   6.143   3.206   5.739 -0.3791  1.5026 -0.3677
   81SOPE  H12S 7391   5.984   3.211   5.825  2.1329 -1.1911  2.2605
   81SOPE  C213 7392   5.982   3.152   5.607 -0.2773 -0.1982  1.0682
   81SOPE  H13R 7393   5.941   3.252   5.582 -1.2982 -1.1021 -1.1372
   81SOPE  H13S 7394   5.889   3.090   5.613 -1.7879  1.9866  1.4560
   81SOPE  C214 7395   6.075   3.112   5.491  0.1681  0.3759 -1.2176
   81SOPE  H14R 7396   6.128   3.016   5.508  2.2787  1.8074  1.2359
   81SOPE  H14S 7397   6.160   3.183   5.506  2.0468 -1.4305 -2.6464
   81SOPE  C215 7398   6.018   3.104   5.348  0.4667  0.2582 -0.5421
   81SOPE  H15R 7399   5.957   3.194   5.328  0.7125  0.7056  0.6409
   81SOPE  H15S 7400   5.952   3.014   5.343  1.6007 -0.9030  2.6478
   81SOPE  C216 7401   6.124   3.101   5.237  0.2972  0.1957  0.6464
   81SOPE  H16R 7402   6.186   3.009   5.247 -1.7028 -1.3575 -0.4629
   81SOPE  H16S 7403   6.196   3.180   5.268  0.2133  0.6920 -0.3754
   81SOPE  C217 7404   6.074   3.121   5.097  0.2708  0.2048 -0.4157
   81SOPE  H17R 7405   6.037   3.225   5.090 -0.6481 -0.1459 -1.0332
   81SOPE  H17S 7406   5.981   3.062   5.079 -0.1817  1.2136 -1.5131
   81SOPE  C218 7407   6.178   3.095   4.989  0.3786  0.1638 -0.4634
   81SOPE  H18R 7408   6.239   3.186   4.971  1.2199 -0.8031 -3.0141
   81SOPE  H18S 7409   6.129   3.069   4.892  0.9979  0.2243 -0.7988
   81SOPE  H18T 7410   6.236   3.005   5.018 -0.2228  0.8516  3.3532
   81SOPE   C33 7411   6.031   3.682   6.300  0.0382 -0.8439 -0.0297
   81SOPE   H3X 7412   6.090   3.775   6.316  2.1246 -1.9384 -0.9347
   81SOPE   H3Y 7413   5.926   3.716   6.303  0.0595 -0.7697 -0.1013
   81SOPE   C34 7414   6.071   3.629   6.161 -0.3027 -0.3355 -0.2254
   81SOPE   H4X 7415   6.180   3.609   6.162 -0.6170 -2.5248 -2.2735
   81SOPE   H4Y 7416   6.061   3.716   6.092 -1.7156  0.6195  1.1010
   81SOPE   C35 7417   5.993   3.506   6.115 -0.0560 -0.7049  0.2758
   81SOPE   H5X 7418   5.883   3.523   6.124 -0.0055  1.2430 -1.9243
   81SOPE   H5Y 7419   6.021   3.415   6.172 -1.2606 -1.6632 -0.5999
   81SOPE   C36 7420   6.003   3.482   5.966 -0.1045 -0.4550  0.1604
   81SOPE   H6X 7421   5.921   3.415   5.931  0.9324 -0.8672 -1.6013
   81SOPE   H6Y 7422   6.093   3.421   5.943  1.4138  1.4915  0.7998
   81SOPE   C37 7423   5.997   3.600   5.868 -0.2856 -0.1850  0.5147
   81SOPE   H7X 7424   6.091   3.656   5.891 -0.4923 -0.5495  2.3971
   81SOPE   H7Y 7425   5.910   3.665   5.887 -0.0477  0.4026 -0.3473
   81SOPE   C38 7426   5.987   3.557   5.724  0.4103  0.4940 -0.2131
   81SOPE   H8X 7427   5.924   3.466   5.713  1.0505  0.0481 -0.2533
   81SOPE   H8Y 7428   6.083   3.512   5.689  0.1718 -2.7333  2.7423
   81SOPE   C39 7429   5.942   3.664   5.618 -0.0673  0.7103 -1.4413
   81SOPE   H9X 7430   6.016   3.747   5.625 -1.0876  1.5450 -0.0120
   81SOPE   H9Y 7431   5.847   3.700   5.662  0.6665  0.1035  0.8088
   81SOPE  C310 7432   5.924   3.603   5.481 -0.6186  0.4109 -0.3598
   81SOPE  H10X 7433   5.877   3.675   5.411  1.2636  1.9113 -0.1333
   81SOPE  H10Y 7434   5.864   3.509   5.479 -0.5397  0.3632 -0.5134
   81SOPE  C311 7435   6.062   3.569   5.422  0.2157  0.2019  0.2818
   81SOPE  H11X 7436   6.103   3.478   5.470 -1.3810 -1.4083 -1.2484
   81SOPE  H11Y 7437   6.131   3.652   5.448 -0.9050  1.1297  0.3811
   81SOPE  C312 7438   6.079   3.549   5.271 -0.8346 -0.9405  0.8160
   81SOPE  H12X 7439   6.019   3.615   5.205 -1.2562 -1.1290  1.0089
   81SOPE  H12Y 7440   6.049   3.448   5.238  0.6175 -0.6781 -1.5650
   81SOPE  C313 7441   6.228   3.547   5.224 -0.0674  0.1202 -0.4499
   81SOPE  H13X 7442   6.284   3.470   5.282 -3.0877 -0.8860  1.4121
   81SOPE  H13Y 7443   6.271   3.645   5.251 -1.2110  0.2123  1.1877
   81SOPE  C314 7444   6.249   3.545   5.068 -0.1682  0.4482  0.6570
   81SOPE  H14X 7445   6.183   3.622   5.021 -1.1232  0.0485  1.3224
   81SOPE  H14Y 7446   6.227   3.443   5.031 -0.6118  0.3404  1.2072
   81SOPE  C315 7447   6.392   3.579   5.023  0.5092  0.0721  0.3685
   81SOPE  H15X 7448   6.469   3.512   5.067  0.1746 -1.1776 -0.8795
   81SOPE  H15Y 7449   6.412   3.677   5.071 -0.9562 -0.5839  2.4996
   81SOPE  C316 7450   6.412   3.574   4.872 -0.1341 -0.1727 -0.2437
   81SOPE  H16X 7451   6.506   3.629   4.852 -0.2595  0.1583  0.0622
   81SOPE  H16Y 7452   6.329   3.634   4.829  1.4469  1.4632 -1.1564
   81SOPE  C317 7453   6.422   3.437   4.806  0.0619  0.6406  0.2444
   81SOPE  H17X 7454   6.339   3.370   4.835  0.7213 -0.2401  0.1398
   81SOPE  H17Y 7455   6.508   3.375   4.841 -0.9812 -1.5396 -0.8554
   81SOPE  C318 7456   6.455   3.448   4.654  1.2418  0.3478  0.2541
   81SOPE  H18X 7457   6.378   3.506   4.599  1.6294  2.0947  1.4604
   81SOPE  H18Y 7458   6.469   3.350   4.604 -0.7641 -1.6766  3.3129
   81SOPE  H18Z 7459   6.545   3.511   4.637  0.2467  1.4026 -1.4405
   82SOPE     N 7460   2.708   1.546   7.201  0.1413 -0.2572  0.2175
   82SOPE   HN1 7461   2.769   1.573   7.121 -0.3120 -0.1212 -0.0846
   82SOPE   HN2 7462   2.664   1.459   7.168  0.3158  0.4884 -2.1700
   82SOPE   HN3 7463   2.641   1.626   7.203  1.1384  0.6259 -0.6312
   82SOPE   C12 7464   2.794   1.538   7.322 -0.5409 -0.5572 -0.0356
   82SOPE  H12A 7465   2.747   1.607   7.395  1.0304  0.2364  0.2836
   82SOPE  H12B 7466   2.880   1.606   7.301 -0.9476  0.4657  1.4618
   82SOPE   C11 7467   2.829   1.394   7.363  0.0745 -0.1678  0.1285
   82SOPE  H11A 7468   2.744   1.340   7.407 -0.9676  0.2375 -1.3131
   82SOPE  H11B 7469   2.895   1.408   7.452  1.8401 -0.5497 -1.0648
   82SOPE     P 7470   2.884   1.167   7.251  0.3744  0.1311 -0.0853
   82SOPE   O13 7471   2.753   1.122   7.299  0.2164 -0.1565  0.7297
   82SOPE   O14 7472   3.000   1.119   7.327 -0.0689  0.8379 -0.6151
   82SOPE   O12 7473   2.889   1.320   7.256 -0.2281 -0.0958 -0.2943
   82SOPE   O11 7474   2.912   1.130   7.103  0.2048 -0.1194  0.2265
   82SOPE    C1 7475   2.835   1.034   7.031  1.2834  0.3392  0.2301
   82SOPE    HA 7476   2.758   0.983   7.092 -0.8679  0.6593 -2.0541
   82SOPE    HB 7477   2.899   0.954   6.988 -0.2434 -1.8586  1.8309
   82SOPE    C2 7478   2.748   1.104   6.921 -0.3045 -0.5247  0.8415
   82SOPE    HS 7479   2.663   1.157   6.969 -1.3361 -0.1881 -1.2504
   82SOPE   O21 7480   2.704   0.990   6.836 -0.0107 -0.5324  0.3048
   82SOPE   C21 7481   2.584   1.008   6.788  0.4944  0.1084  0.5108
   82SOPE   O22 7482   2.512   1.106   6.813  0.4927 -0.0145  0.1977
   82SOPE   C22 7483   2.542   0.885   6.707  0.0403 -0.0892 -0.3820
   82SOPE   H2R 7484   2.469   0.822   6.760 -1.2618 -0.1930 -2.2151
   82SOPE   H2S 7485   2.631   0.818   6.702 -0.7900 -1.2731  0.2529
   82SOPE    C3 7486   2.834   1.207   6.835  0.2423 -0.1547 -0.2498
   82SOPE    HX 7487   2.921   1.141   6.811  0.1194 -1.1371  1.8311
   82SOPE    HY 7488   2.861   1.290   6.903  0.3600 -1.1999  1.0229
   82SOPE   O31 7489   2.760   1.238   6.710  0.0329  0.0897  0.3214
   82SOPE   C31 7490   2.682   1.340   6.720  0.6731 -0.3549 -0.0984
   82SOPE   O32 7491   2.663   1.408   6.818  0.1089 -0.0791 -0.0128
   82SOPE   C32 7492   2.611   1.372   6.588 -0.5314  0.4748 -0.2461
   82SOPE   H2X 7493   2.504   1.364   6.615 -0.4175 -1.3473 -0.1898
   82SOPE   H2Y 7494   2.624   1.296   6.507 -1.1672  2.3128 -2.1548
   82SOPE   C23 7495   2.482   0.921   6.570 -0.6594 -0.1266  0.2701
   82SOPE   H3R 7496   2.408   1.000   6.592 -0.5110  0.3351 -0.8696
   82SOPE   H3S 7497   2.431   0.829   6.535 -2.3105  0.1742  1.7348
   82SOPE   C24 7498   2.584   0.968   6.468  0.5077  0.0965 -0.5897
   82SOPE   H4R 7499   2.651   1.037   6.523 -2.4139 -0.1374  3.7317
   82SOPE   H4S 7500   2.634   0.873   6.441 -2.5144 -1.8041 -0.0427
   82SOPE   C25 7501   2.528   1.036   6.335 -0.2208 -0.3308 -0.2673
   82SOPE   H5R 7502   2.438   0.975   6.315 -1.8817  1.4491  1.2818
   82SOPE   H5S 7503   2.482   1.126   6.382 -2.0114 -0.5211 -1.5560
   82SOPE   C26 7504   2.627   1.061   6.225  0.3700  0.2571 -0.1374
   82SOPE   H6R 7505   2.725   1.089   6.269 -0.1665  1.9962  0.0637
   82SOPE   H6S 7506   2.650   0.968   6.169 -0.9405 -0.3544  0.3135
   82SOPE   C27 7507   2.611   1.181   6.127 -0.0450  1.0406  0.0018
   82SOPE   H7R 7508   2.622   1.272   6.189 -0.7789  0.1637  1.4805
   82SOPE   H7S 7509   2.695   1.156   6.059  0.4462 -2.2212  1.5717
   82SOPE   C28 7510   2.483   1.190   6.054  0.2550  0.3440  0.1100
   82SOPE   H8R 7511   2.396   1.221   6.117  0.2486 -0.5656  0.5642
   82SOPE   H8S 7512   2.480   1.275   5.982  0.9213  1.3230  1.2132
   82SOPE   C29 7513   2.435   1.065   5.984 -0.1274  0.0167 -0.2004
   82SOPE   H91 7514   2.386   0.992   6.050  0.0342  0.7362  0.7408
   82SOPE  C210 7515   2.425   1.051   5.847  0.3378  0.1909  0.2503
   82SOPE  H101 7516   2.377   0.955   5.822  1.0652  0.1675 -1.1479
   82SOPE  C211 7517   2.482   1.132   5.735 -0.0050  0.3789  1.1578
   82SOPE  H11R 7518   2.513   1.234   5.765 -2.8811  2.6061 -2.5497
   82SOPE  H11S 7519   2.411   1.148   5.651 -1.8601  0.5146  2.6735
   82SOPE  C212 7520   2.612   1.075   5.669  0.2756  0.4183  0.2925
   82SOPE  H12R 7521   2.588   0.994   5.598  1.3200  0.1418  0.2394
   82SOPE  H12S 7522   2.678   1.046   5.754  1.1505  0.6158 -0.3048
   82SOPE  C213 7523   2.681   1.178   5.577 -0.0859  0.3640 -0.3715
   82SOPE  H13R 7524   2.757   1.117   5.524  0.3802  2.1489 -1.8780
   82SOPE  H13S 7525   2.719   1.264   5.637  1.6244 -0.2755 -0.4925
   82SOPE  C214 7526   2.603   1.227   5.460 -0.7127  0.0632 -0.7733
   82SOPE  H14R 7527   2.513   1.285   5.491 -0.5509 -0.8564  1.6508
   82SOPE  H14S 7528   2.559   1.142   5.403 -0.3949 -1.5083  1.2080
   82SOPE  C215 7529   2.682   1.321   5.366  0.8751  0.0828 -0.4339
   82SOPE  H15R 7530   2.725   1.256   5.286  2.1850  1.4778 -0.9028
   82SOPE  H15S 7531   2.761   1.375   5.423 -0.6444  1.3412  0.5339
   82SOPE  C216 7532   2.578   1.412   5.297  0.3200 -0.5927 -0.5321
   82SOPE  H16R 7533   2.525   1.478   5.369 -1.4426 -0.6231 -1.7432
   82SOPE  H16S 7534   2.494   1.352   5.256  0.7498 -1.9788  0.5383
   82SOPE  C217 7535   2.644   1.513   5.198 -0.1378  0.3820  0.6369
   82SOPE  H17R 7536   2.704   1.455   5.125  0.3260  1.0287  0.4926
   82SOPE  H17S 7537   2.713   1.582   5.252 -0.1385  1.2605 -0.4588
   82SOPE  C218 7538   2.543   1.600   5.129  0.5172 -0.0811  0.2066
   82SOPE  H18R 7539   2.490   1.667   5.200  0.3602  0.5607 -0.5062
   82SOPE  H18S 7540   2.478   1.538   5.063  0.9407  1.2425 -1.5144
   82SOPE  H18T 7541   2.596   1.667   5.059 -1.5953 -0.2159 -1.6343
   82SOPE   C33 7542   2.653   1.514   6.541 -0.2413  0.1907  0.1204
   82SOPE   H3X 7543   2.648   1.584   6.627  0.9870  0.5933 -0.1149
   82SOPE   H3Y 7544   2.579   1.549   6.465 -0.2100  0.6487  0.2975
   82SOPE   C34 7545   2.791   1.518   6.480  0.2750  0.4723 -0.3394
   82SOPE   H4X 7546   2.809   1.432   6.412  0.1623  0.6341 -0.5761
   82SOPE   H4Y 7547   2.874   1.516   6.554 -1.0987  0.2815  1.2392
   82SOPE   C35 7548   2.822   1.642   6.392  0.1124  0.1473  0.0136
   82SOPE   H5X 7549   2.808   1.726   6.463 -0.2967  0.2544 -0.1897
   82SOPE   H5Y 7550   2.758   1.655   6.302  0.2669  0.4801 -0.0470
   82SOPE   C36 7551   2.973   1.642   6.344 -0.2373 -0.1353 -0.2552
   82SOPE   H6X 7552   3.046   1.638   6.428 -1.7198 -3.0388  1.0333
   82SOPE   H6Y 7553   2.977   1.742   6.295 -1.2650 -0.3203 -0.7425
   82SOPE   C37 7554   3.023   1.538   6.232 -0.4255 -0.4698  0.0375
   82SOPE   H7X 7555   2.966   1.447   6.262  2.4637 -2.0852  0.9746
   82SOPE   H7Y 7556   3.129   1.507   6.241 -0.4795 -0.3778  1.0841
   82SOPE   C38 7557   2.970   1.575   6.089  0.0939  0.5959 -0.8809
   82SOPE   H8X 7558   3.039   1.639   6.030  0.2313  1.6780  0.4119
   82SOPE   H8Y 7559   2.868   1.619   6.095  0.4812  1.4028  0.1689
   82SOPE   C39 7560   2.948   1.443   6.015  0.0057  0.7213 -0.2135
   82SOPE   H9X 7561   2.899   1.473   5.920  0.2856 -0.1529 -0.6408
   82SOPE   H9Y 7562   2.872   1.387   6.073 -1.3473  2.1609 -0.5243
   82SOPE  C310 7563   3.071   1.358   5.984  0.1510 -0.6138 -0.2133
   82SOPE  H10X 7564   3.061   1.271   6.052  0.6824 -0.2188  0.3790
   82SOPE  H10Y 7565   3.170   1.406   6.002 -0.6990  1.8722 -1.7099
   82SOPE  C311 7566   3.063   1.302   5.839  0.6183  0.2440  0.1351
   82SOPE  H11X 7567   2.960   1.264   5.821 -0.1338  2.7146 -1.2355
   82SOPE  H11Y 7568   3.136   1.221   5.818  2.0564  1.7590 -0.9518
   82SOPE  C312 7569   3.086   1.418   5.732 -0.4869  0.7188 -0.5767
   82SOPE  H12X 7570   3.192   1.447   5.752 -0.3509 -1.0459  1.5811
   82SOPE  H12Y 7571   3.018   1.504   5.748 -0.2914  0.6629  0.6189
   82SOPE  C313 7572   3.068   1.362   5.599 -0.8923  0.3586 -1.1450
   82SOPE  H13X 7573   2.970   1.310   5.605  0.1348 -1.4332  1.1660
   82SOPE  H13Y 7574   3.152   1.293   5.576 -0.5719 -0.5165  2.1338
   82SOPE  C314 7575   3.055   1.465   5.485 -0.1184  0.1267  0.2951
   82SOPE  H14X 7576   3.143   1.531   5.503 -0.1701  0.5771 -0.9851
   82SOPE  H14Y 7577   2.969   1.535   5.496  0.5866  0.9121  0.9492
   82SOPE  C315 7578   3.050   1.409   5.344 -0.6216  0.6105  0.2743
   82SOPE  H15X 7579   2.954   1.354   5.336  0.8782 -2.3077  1.0775
   82SOPE  H15Y 7580   3.135   1.343   5.320 -1.9804 -0.7408 -1.0028
   82SOPE  C316 7581   3.028   1.528   5.247 -0.1776 -0.5849 -0.2144
   82SOPE  H16X 7582   3.110   1.599   5.273 -1.4034 -0.1545  2.9919
   82SOPE  H16Y 7583   2.934   1.579   5.275 -1.2387 -2.2366 -0.5934
   82SOPE  C317 7584   3.006   1.481   5.103  0.0393 -0.2504 -0.2566
   82SOPE  H17X 7585   2.934   1.397   5.096 -1.4202  0.9313  0.0713
   82SOPE  H17Y 7586   3.099   1.440   5.058 -1.3414 -1.4324 -2.1532
   82SOPE  C318 7587   2.959   1.598   5.023 -0.5675  0.1396 -0.3585
   82SOPE  H18X 7588   3.027   1.685   5.024 -1.2669  0.6974  0.5874
   82SOPE  H18Y 7589   2.858   1.623   5.063 -0.3931 -2.8136  2.3522
   82SOPE  H18Z 7590   2.955   1.570   4.916 -2.0087  1.0196 -0.5620
   83SOPE     N 7591   4.077   0.513   2.727  0.2262  0.1497 -0.7187
   83SOPE   HN1 7592   4.067   0.412   2.751  1.0014 -0.1896 -1.7401
   83SOPE   HN2 7593   4.015   0.536   2.647 -1.2394  2.1787  0.8938
   83SOPE   HN3 7594   4.175   0.544   2.715 -0.0402  1.9287  1.0999
   83SOPE   C12 7595   4.030   0.590   2.848  0.4722 -0.1157  0.2145
   83SOPE  H12A 7596   3.950   0.530   2.898 -0.7625  1.6279  0.4337
   83SOPE  H12B 7597   3.974   0.678   2.810 -0.1907 -1.1453 -1.2940
   83SOPE   C11 7598   4.142   0.621   2.953  0.3029  0.6908 -0.2651
   83SOPE  H11A 7599   4.100   0.653   3.051 -0.6727 -2.1548  0.3613
   83SOPE  H11B 7600   4.190   0.715   2.919 -1.1130  1.7974  0.6324
   83SOPE     P 7601   4.368   0.520   3.041  0.1235  0.1349 -0.0945
   83SOPE   O13 7602   4.448   0.614   2.957  0.6744  0.4776 -0.3093
   83SOPE   O14 7603   4.414   0.381   3.072 -0.1382 -0.4384  0.0904
   83SOPE   O12 7604   4.224   0.509   2.975 -0.2275  0.3661 -0.1613
   83SOPE   O11 7605   4.344   0.583   3.178 -0.2210 -0.3915 -0.2797
   83SOPE    C1 7606   4.394   0.702   3.235  0.4322  0.0026  0.0885
   83SOPE    HA 7607   4.319   0.731   3.312  0.8848 -0.4989  0.7247
   83SOPE    HB 7608   4.404   0.780   3.156 -1.7055 -1.4328 -1.7202
   83SOPE    C2 7609   4.533   0.674   3.306  0.1372  0.3492 -0.3010
   83SOPE    HS 7610   4.586   0.615   3.228  1.5543  0.4346  0.5776
   83SOPE   O21 7611   4.508   0.603   3.429 -0.1797  0.0793  0.3331
   83SOPE   C21 7612   4.607   0.514   3.467 -0.2822  0.1855  0.2793
   83SOPE   O22 7613   4.712   0.495   3.409  0.2787 -0.5033  0.3079
   83SOPE   C22 7614   4.570   0.427   3.577 -0.5793  0.5395 -0.6504
   83SOPE   H2R 7615   4.492   0.478   3.637 -1.0544  1.7332 -2.1970
   83SOPE   H2S 7616   4.667   0.411   3.630 -0.9820  0.7321  0.1540
   83SOPE    C3 7617   4.616   0.801   3.331 -0.1745 -0.2594 -0.5289
   83SOPE    HX 7618   4.573   0.849   3.421  0.5496  0.5334 -0.5863
   83SOPE    HY 7619   4.604   0.862   3.238 -3.1527  1.6433  0.9325
   83SOPE   O31 7620   4.757   0.782   3.359  0.2615  0.3399 -0.7324
   83SOPE   C31 7621   4.834   0.745   3.259 -0.3979  0.0786  1.3319
   83SOPE   O32 7622   4.796   0.749   3.141 -0.2424 -0.1664  0.2708
   83SOPE   C32 7623   4.966   0.710   3.303  0.3120  0.1857  0.2980
   83SOPE   H2X 7624   4.954   0.599   3.306 -0.1001  0.2422  1.1229
   83SOPE   H2Y 7625   4.979   0.747   3.407  1.1137 -0.3589  0.4048
   83SOPE   C23 7626   4.518   0.296   3.521 -0.9713 -0.1496 -0.3211
   83SOPE   H3R 7627   4.573   0.266   3.430 -0.2005  1.3452 -0.3631
   83SOPE   H3S 7628   4.412   0.309   3.491 -1.0997 -1.2401 -0.3998
   83SOPE   C24 7629   4.526   0.182   3.627  0.2035  0.2329 -0.0397
   83SOPE   H4R 7630   4.522   0.087   3.570 -0.6465  0.4751 -0.3857
   83SOPE   H4S 7631   4.622   0.198   3.682 -0.1117  1.5021  0.1720
   83SOPE   C25 7632   4.407   0.186   3.723  0.0984 -0.4788  0.1322
   83SOPE   H5R 7633   4.416   0.272   3.792  0.7343  1.5528 -2.3434
   83SOPE   H5S 7634   4.308   0.204   3.676 -1.6015 -2.3527  2.6744
   83SOPE   C26 7635   4.375   0.065   3.818  0.1281 -0.0224  0.4728
   83SOPE   H6R 7636   4.299   0.100   3.891 -0.2727 -0.7439  0.4074
   83SOPE   H6S 7637   4.335  -0.018   3.756 -1.1604  2.9532 -3.0672
   83SOPE   C27 7638   4.489   0.010   3.900  0.6061  0.5806  0.4536
   83SOPE   H7R 7639   4.560  -0.024   3.822 -2.0374 -1.9228 -1.0877
   83SOPE   H7S 7640   4.532   0.093   3.960 -1.1462  1.2642  0.8428
   83SOPE   C28 7641   4.440  -0.111   3.979 -0.3978  0.0186 -0.0312
   83SOPE   H8R 7642   4.530  -0.141   4.037 -1.2105  1.1864  1.9378
   83SOPE   H8S 7643   4.373  -0.064   4.055  0.5801  0.7838  0.3859
   83SOPE   C29 7644   4.375  -0.230   3.908  0.0088  0.3102 -0.3582
   83SOPE   H91 7645   4.436  -0.264   3.823  0.2902  0.6568 -0.2973
   83SOPE  C210 7646   4.255  -0.283   3.934 -0.5266  0.1450  0.4231
   83SOPE  H101 7647   4.220  -0.362   3.866 -2.1924  1.1378  0.0915
   83SOPE  C211 7648   4.163  -0.248   4.051  0.1866 -0.9184 -0.2108
   83SOPE  H11R 7649   4.082  -0.323   4.067  0.4423 -0.9574  1.0822
   83SOPE  H11S 7650   4.104  -0.157   4.030 -0.1923 -0.9675  0.5823
   83SOPE  C212 7651   4.226  -0.260   4.190  0.3757 -0.4863 -0.0908
   83SOPE  H12R 7652   4.273  -0.162   4.211  0.4231 -0.6381  0.5129
   83SOPE  H12S 7653   4.297  -0.346   4.189  0.8332 -0.1318  0.8697
   83SOPE  C213 7654   4.114  -0.275   4.288  0.1639  0.6359 -0.6831
   83SOPE  H13R 7655   4.061  -0.373   4.290  0.0417  0.6979 -0.9053
   83SOPE  H13S 7656   4.031  -0.204   4.267  0.6058  0.9266 -1.5056
   83SOPE  C214 7657   4.161  -0.264   4.431  0.3146  0.8460 -0.0393
   83SOPE  H14R 7658   4.193  -0.158   4.443  1.2512  0.7933 -1.6895
   83SOPE  H14S 7659   4.249  -0.327   4.457  0.6504  0.5401 -1.7824
   83SOPE  C215 7660   4.060  -0.300   4.543  0.2580 -0.2583  0.3277
   83SOPE  H15R 7661   4.037  -0.406   4.521 -1.0037  0.0079  0.2895
   83SOPE  H15S 7662   3.965  -0.242   4.540  0.8068  0.8573 -4.7751
   83SOPE  C216 7663   4.117  -0.271   4.683  0.1041  0.4485  0.4659
   83SOPE  H16R 7664   4.148  -0.165   4.689  0.8002  0.2782 -0.0437
   83SOPE  H16S 7665   4.202  -0.343   4.688 -0.4493 -0.2714 -0.2760
   83SOPE  C217 7666   4.028  -0.303   4.806  0.2521  0.4114 -0.9452
   83SOPE  H17R 7667   3.945  -0.229   4.808 -0.4984 -0.4252 -0.0718
   83SOPE  H17S 7668   4.096  -0.295   4.894 -1.0820  0.0786  0.1466
   83SOPE  C218 7669   3.968  -0.446   4.803 -0.7108  0.2294 -0.2684
   83SOPE  H18R 7670   4.045  -0.520   4.770  0.2572  0.1956  1.9256
   83SOPE  H18S 7671   3.878  -0.446   4.737  0.5919 -1.7917 -2.1804
   83SOPE  H18T 7672   3.932  -0.474   4.905  2.9733 -1.4939  0.7248
   83SOPE   C33 7673   5.079   0.762   3.214 -0.1150 -0.0252 -0.4740
   83SOPE   H3X 7674   5.075   0.716   3.113 -1.6600 -0.8740 -0.0596
   83SOPE   H3Y 7675   5.176   0.727   3.256  1.7951  2.7540 -2.2513
   83SOPE   C34 7676   5.078   0.913   3.205  0.7343 -0.1044 -0.4874
   83SOPE   H4X 7677   4.982   0.951   3.166  0.7767  0.9110  0.3616
   83SOPE   H4Y 7678   5.141   0.952   3.122  0.4617 -0.2495 -0.7650
   83SOPE   C35 7679   5.126   0.980   3.342 -0.2103 -1.0695 -0.3878
   83SOPE   H5X 7680   5.236   0.982   3.328 -0.4511  1.8527 -3.1017
   83SOPE   H5Y 7681   5.102   0.910   3.425  1.5677 -1.7930 -0.4486
   83SOPE   C36 7682   5.091   1.128   3.359  0.8468 -0.1858 -0.2626
   83SOPE   H6X 7683   5.141   1.193   3.284 -0.6160  0.8490 -0.3703
   83SOPE   H6Y 7684   5.133   1.157   3.458  0.8594 -0.2820 -0.2389
   83SOPE   C37 7685   4.935   1.137   3.372  0.0454 -0.1472 -0.0484
   83SOPE   H7X 7686   4.901   1.054   3.439 -0.8888  0.1707 -0.1185
   83SOPE   H7Y 7687   4.892   1.121   3.271  0.5199 -1.4677 -0.0593
   83SOPE   C38 7688   4.895   1.274   3.432  0.4430  0.3753  0.2830
   83SOPE   H8X 7689   4.922   1.367   3.378  1.8682 -0.9173 -1.3274
   83SOPE   H8Y 7690   4.968   1.271   3.516 -1.3845  2.0024  2.0609
   83SOPE   C39 7691   4.743   1.286   3.484 -0.1574 -0.0031 -0.0981
   83SOPE   H9X 7692   4.716   1.387   3.523 -2.0719 -1.1506  1.7664
   83SOPE   H9Y 7693   4.732   1.222   3.574 -1.1968  1.0918  0.5811
   83SOPE  C310 7694   4.634   1.244   3.381 -0.4336  0.1949 -0.2131
   83SOPE  H10X 7695   4.654   1.150   3.326  2.0192  0.8475 -0.5379
   83SOPE  H10Y 7696   4.634   1.330   3.310 -0.4813  0.4904  0.1420
   83SOPE  C311 7697   4.489   1.240   3.439 -0.4999 -0.5497 -0.0218
   83SOPE  H11X 7698   4.413   1.273   3.366  2.4379 -0.5300 -3.3386
   83SOPE  H11Y 7699   4.491   1.311   3.524  2.1890 -1.5957  0.9085
   83SOPE  C312 7700   4.446   1.104   3.487  0.6240  0.0908  0.3549
   83SOPE  H12X 7701   4.518   1.046   3.549 -0.6116 -1.0790  0.7203
   83SOPE  H12Y 7702   4.427   1.050   3.392 -1.8777  0.4604  0.5906
   83SOPE  C313 7703   4.315   1.102   3.566 -0.2371 -0.1388 -0.3737
   83SOPE  H13X 7704   4.237   1.147   3.501 -0.4251 -0.3430 -0.2903
   83SOPE  H13Y 7705   4.340   1.161   3.657  1.4349 -4.0335  1.9269
   83SOPE  C314 7706   4.268   0.967   3.626 -0.1302 -0.8673 -0.4093
   83SOPE  H14X 7707   4.174   0.991   3.680  1.0019  1.4447  0.6780
   83SOPE  H14Y 7708   4.334   0.919   3.702 -3.8121 -0.8640  3.1444
   83SOPE  C315 7709   4.243   0.851   3.524 -0.6874 -0.1003  0.9900
   83SOPE  H15X 7710   4.341   0.808   3.492  0.2235 -0.2695  3.7632
   83SOPE  H15Y 7711   4.203   0.893   3.429  1.1008 -0.3558  0.0708
   83SOPE  C316 7712   4.166   0.724   3.570  0.0983 -0.1477  0.3047
   83SOPE  H16X 7713   4.147   0.666   3.477  1.8251  1.0434 -0.8551
   83SOPE  H16Y 7714   4.074   0.766   3.618  0.3530  1.7228 -0.7530
   83SOPE  C317 7715   4.241   0.647   3.678 -0.4658 -0.5814 -0.2052
   83SOPE  H17X 7716   4.257   0.713   3.766  0.3112 -0.1669 -0.6522
   83SOPE  H17Y 7717   4.340   0.609   3.648 -0.6151 -1.1651  0.0266
   83SOPE  C318 7718   4.164   0.525   3.730  0.0215  1.3496  0.2682
   83SOPE  H18X 7719   4.228   0.460   3.794 -2.3299 -0.8090  0.5668
   83SOPE  H18Y 7720   4.143   0.481   3.630 -0.0663 -1.0659  1.2889
   83SOPE  H18Z 7721   4.077   0.557   3.791 -0.1905 -0.1120  0.7456
   84SOPE     N 7722   3.337   5.186   2.336  0.3241 -0.2760 -0.1347
   84SOPE   HN1 7723   3.324   5.272   2.394  0.7669  0.1369 -0.6421
   84SOPE   HN2 7724   3.433   5.196   2.298  0.3489 -0.6557 -0.1723
   84SOPE   HN3 7725   3.272   5.202   2.257  0.8890  1.5829 -0.2747
   84SOPE   C12 7726   3.315   5.061   2.410 -0.2032  0.3081  0.3134
   84SOPE  H12A 7727   3.374   5.067   2.504  0.3152 -0.4623  0.0426
   84SOPE  H12B 7728   3.346   4.970   2.354 -1.3282  0.7132 -1.0277
   84SOPE   C11 7729   3.170   5.049   2.444 -0.5397 -0.8731  0.0508
   84SOPE  H11A 7730   3.133   5.111   2.529 -0.4215 -0.8868  0.1126
   84SOPE  H11B 7731   3.166   4.944   2.480  1.0419 -1.5160 -1.5168
   84SOPE     P 7732   2.970   5.178   2.320 -0.4060 -0.2733  0.1140
   84SOPE   O13 7733   2.898   5.154   2.193  0.2459  0.5117  0.3638
   84SOPE   O14 7734   3.020   5.309   2.350 -0.5538 -0.0110  0.0435
   84SOPE   O12 7735   3.085   5.067   2.328  0.0446 -0.1695 -0.7302
   84SOPE   O11 7736   2.893   5.134   2.442 -0.1268  0.1575 -0.8780
   84SOPE    C1 7737   2.782   5.202   2.494  0.2039  0.1730  0.2139
   84SOPE    HA 7738   2.690   5.201   2.432  0.6739  1.7132 -0.5635
   84SOPE    HB 7739   2.816   5.307   2.505 -2.1736  1.2113 -1.6060
   84SOPE    C2 7740   2.741   5.150   2.627  0.2962  0.3742 -0.0663
   84SOPE    HS 7741   2.682   5.231   2.674 -0.4090  0.4355 -1.0275
   84SOPE   O21 7742   2.853   5.107   2.702  0.7647 -0.2623  0.0072
   84SOPE   C21 7743   2.920   5.213   2.755 -0.1197 -0.0393  0.2458
   84SOPE   O22 7744   2.887   5.333   2.749 -0.3049  0.0212  0.1651
   84SOPE   C22 7745   3.044   5.151   2.827  0.1468 -0.1932  0.3228
   84SOPE   H2R 7746   3.131   5.190   2.770 -0.7974  1.3659 -0.1269
   84SOPE   H2S 7747   3.037   5.041   2.821 -1.6184 -0.1440  0.8602
   84SOPE    C3 7748   2.649   5.034   2.605  0.6192  1.3735 -0.2660
   84SOPE    HX 7749   2.685   4.962   2.528 -1.1420 -0.0320  0.1713
   84SOPE    HY 7750   2.559   5.076   2.556  0.7671  0.2427 -1.5438
   84SOPE   O31 7751   2.616   4.984   2.734  0.4289 -0.3085 -0.2465
   84SOPE   C31 7752   2.660   4.865   2.760 -0.5545  0.5138  0.6157
   84SOPE   O32 7753   2.720   4.790   2.687  0.0285 -0.2672 -0.1254
   84SOPE   C32 7754   2.640   4.837   2.907  0.5568  0.0472 -0.3076
   84SOPE   H2X 7755   2.545   4.887   2.934  1.2821  0.4828  1.5898
   84SOPE   H2Y 7756   2.723   4.888   2.960  0.7837 -2.2965  1.7429
   84SOPE   C23 7757   3.067   5.206   2.966 -0.3332 -0.1897  0.4516
   84SOPE   H3R 7758   3.048   5.315   2.969  1.0515  0.2066 -2.2001
   84SOPE   H3S 7759   3.175   5.198   2.991 -0.0026 -1.1925 -1.1716
   84SOPE   C24 7760   2.980   5.127   3.070  0.0204 -1.0111 -0.0650
   84SOPE   H4R 7761   2.890   5.086   3.020 -1.7133  2.5892 -0.2288
   84SOPE   H4S 7762   3.036   5.055   3.133 -2.1865  0.5872  4.1074
   84SOPE   C25 7763   2.924   5.221   3.181 -0.7978 -0.4710  0.1079
   84SOPE   H5R 7764   2.863   5.308   3.150  0.3898  1.3973  2.6322
   84SOPE   H5S 7765   2.850   5.159   3.235 -1.1247  1.9179  2.6213
   84SOPE   C26 7766   3.025   5.271   3.281  0.4455 -0.6912  0.0715
   84SOPE   H6R 7767   3.062   5.176   3.323  0.3725 -1.0712 -0.6987
   84SOPE   H6S 7768   3.111   5.321   3.232  0.7105 -1.4678 -0.2711
   84SOPE   C27 7769   2.962   5.370   3.385 -0.0726  0.0539 -0.3599
   84SOPE   H7R 7770   2.955   5.469   3.335 -2.4445 -0.9574 -2.2166
   84SOPE   H7S 7771   2.859   5.328   3.394  0.8855 -2.0611  2.3078
   84SOPE   C28 7772   3.030   5.370   3.521 -0.2252  0.2534  0.6211
   84SOPE   H8R 7773   3.130   5.416   3.506 -0.6593  1.3971  1.1489
   84SOPE   H8S 7774   2.975   5.445   3.580 -0.6892  0.2422  0.2093
   84SOPE   C29 7775   3.035   5.242   3.591 -0.4315  0.4053  0.1910
   84SOPE   H91 7776   3.007   5.153   3.533 -1.7401 -0.0140  1.4235
   84SOPE  C210 7777   3.062   5.228   3.719 -0.2086 -0.1509  0.4040
   84SOPE  H101 7778   3.068   5.132   3.773 -1.0837  0.1889  1.1406
   84SOPE  C211 7779   3.106   5.334   3.814  0.4237  0.7459 -0.0722
   84SOPE  H11R 7780   3.070   5.433   3.779  0.7453  0.8413 -0.1403
   84SOPE  H11S 7781   3.217   5.335   3.814  0.5365 -0.7600 -2.5606
   84SOPE  C212 7782   3.062   5.284   3.955  0.1418 -0.1152  0.5302
   84SOPE  H12R 7783   3.132   5.202   3.982 -1.0940 -1.0087  1.0907
   84SOPE  H12S 7784   2.959   5.241   3.956  0.5108 -1.0802 -0.4109
   84SOPE  C213 7785   3.078   5.385   4.060 -0.0872 -0.0584 -1.0132
   84SOPE  H13R 7786   3.023   5.481   4.059 -0.5807  0.0216  4.3462
   84SOPE  H13S 7787   3.186   5.413   4.071  0.1736 -1.7082  1.2659
   84SOPE  C214 7788   3.031   5.340   4.206  0.3118 -0.1159 -0.1330
   84SOPE  H14R 7789   3.060   5.234   4.221  1.0189  0.3689  2.2280
   84SOPE  H14S 7790   2.920   5.333   4.213  0.2085  1.0995 -0.3672
   84SOPE  C215 7791   3.074   5.434   4.315  0.5735 -1.2940 -0.0562
   84SOPE  H15R 7792   3.016   5.529   4.319  3.4800  0.6344 -0.1160
   84SOPE  H15S 7793   3.180   5.466   4.309  0.6012 -0.8772  1.9565
   84SOPE  C216 7794   3.054   5.373   4.452 -0.0909  0.5660 -0.0687
   84SOPE  H16R 7795   3.128   5.290   4.458  1.2697  1.5721 -2.0954
   84SOPE  H16S 7796   2.952   5.329   4.446  1.1805 -2.3808 -2.6833
   84SOPE  C217 7797   3.058   5.463   4.574  0.8585  0.5370  0.3526
   84SOPE  H17R 7798   2.978   5.539   4.564 -1.2179 -1.7991 -2.5372
   84SOPE  H17S 7799   3.152   5.521   4.572  1.9730 -1.2017 -0.0225
   84SOPE  C218 7800   3.040   5.405   4.723 -0.0536  0.0012  0.2368
   84SOPE  H18R 7801   3.099   5.312   4.736 -2.1177 -1.6199 -1.1742
   84SOPE  H18S 7802   2.940   5.357   4.735  0.4877 -1.8605 -1.8904
   84SOPE  H18T 7803   3.074   5.485   4.793 -1.7569  2.9621 -2.0591
   84SOPE   C33 7804   2.618   4.692   2.942 -0.8898  0.1190  0.6421
   84SOPE   H3X 7805   2.715   4.639   2.933 -1.8849 -1.4615 -1.8501
   84SOPE   H3Y 7806   2.557   4.643   2.863  2.0974  0.8582 -2.3454
   84SOPE   C34 7807   2.569   4.672   3.084  0.5450 -0.2537  0.1169
   84SOPE   H4X 7808   2.471   4.724   3.091 -0.6079 -1.6643 -3.2679
   84SOPE   H4Y 7809   2.637   4.724   3.154 -0.7454  0.5407  0.8250
   84SOPE   C35 7810   2.553   4.528   3.131  0.1503 -0.0110  0.1093
   84SOPE   H5X 7811   2.658   4.493   3.122 -0.0464 -0.8725  0.9486
   84SOPE   H5Y 7812   2.491   4.470   3.060  0.1925  1.7141 -1.4036
   84SOPE   C36 7813   2.493   4.513   3.269 -0.0045  0.0078 -0.0391
   84SOPE   H6X 7814   2.508   4.405   3.292  4.1826  0.0361 -1.6521
   84SOPE   H6Y 7815   2.386   4.544   3.270  0.5279  2.0099 -0.5623
   84SOPE   C37 7816   2.564   4.582   3.388  0.1190 -0.3272  0.4391
   84SOPE   H7X 7817   2.547   4.690   3.369 -0.7071 -0.6358 -0.6555
   84SOPE   H7Y 7818   2.670   4.550   3.395 -0.5364 -2.7909  0.1037
   84SOPE   C38 7819   2.493   4.540   3.512 -0.3473  0.4394  0.0726
   84SOPE   H8X 7820   2.521   4.437   3.541 -0.0882 -0.1066 -1.9468
   84SOPE   H8Y 7821   2.383   4.542   3.501 -0.3240 -1.9124 -1.3640
   84SOPE   C39 7822   2.542   4.637   3.623 -0.5887  0.5635 -0.4995
   84SOPE   H9X 7823   2.514   4.744   3.606 -2.0671  0.4388  0.8621
   84SOPE   H9Y 7824   2.652   4.629   3.623 -0.6892 -0.9404  0.0619
   84SOPE  C310 7825   2.477   4.606   3.759 -0.2875 -0.5552  0.3277
   84SOPE  H10X 7826   2.367   4.596   3.750 -0.7824  1.7738  2.6842
   84SOPE  H10Y 7827   2.504   4.684   3.833 -3.3388 -0.2743  1.3065
   84SOPE  C311 7828   2.535   4.484   3.828 -0.8727  0.5894 -0.5181
   84SOPE  H11X 7829   2.643   4.475   3.805 -0.6767  1.5586 -0.0269
   84SOPE  H11Y 7830   2.481   4.395   3.790  1.6468 -2.1962  1.9359
   84SOPE  C312 7831   2.508   4.490   3.979  0.7533 -0.1133 -0.1452
   84SOPE  H12X 7832   2.409   4.537   3.997  0.5068 -0.0259 -1.6575
   84SOPE  H12Y 7833   2.581   4.564   4.019  0.2422  1.1974 -1.5283
   84SOPE  C313 7834   2.514   4.355   4.048 -0.5432 -0.2135  0.4872
   84SOPE  H13X 7835   2.599   4.292   4.015  1.0539  2.1683 -0.2475
   84SOPE  H13Y 7836   2.420   4.311   4.007 -1.4693  1.2245  0.9816
   84SOPE  C314 7837   2.495   4.355   4.201  0.6096 -0.3442  0.1686
   84SOPE  H14X 7838   2.409   4.414   4.239  1.5408  1.6437 -0.6727
   84SOPE  H14Y 7839   2.593   4.386   4.241  0.5849 -0.2465  0.1543
   84SOPE  C315 7840   2.479   4.218   4.257 -0.5794 -1.2540 -0.0036
   84SOPE  H15X 7841   2.547   4.149   4.202 -0.3784  0.0096 -1.3694
   84SOPE  H15Y 7842   2.380   4.184   4.220  0.2757 -1.9549 -1.7479
   84SOPE  C316 7843   2.513   4.211   4.408 -0.2630 -0.5251 -0.1685
   84SOPE  H16X 7844   2.450   4.282   4.465 -0.4852 -0.1318 -0.8939
   84SOPE  H16Y 7845   2.617   4.248   4.422 -0.0020 -0.2972 -2.3360
   84SOPE  C317 7846   2.492   4.075   4.472  0.2011 -1.2048 -0.1247
   84SOPE  H17X 7847   2.561   4.009   4.415  0.2042  0.1196 -1.7107
   84SOPE  H17Y 7848   2.389   4.040   4.450  0.5383 -0.5258 -3.2334
   84SOPE  C318 7849   2.515   4.070   4.625 -0.0235 -0.1697  0.3489
   84SOPE  H18X 7850   2.519   3.963   4.652  1.1147 -0.0792  0.5894
   84SOPE  H18Y 7851   2.426   4.110   4.678  1.0735 -0.3641  2.4193
   84SOPE  H18Z 7852   2.595   4.137   4.665 -1.2347  1.8464 -0.4602
   85SOPE     N 7853   0.065   5.359   2.747  0.5025  0.0999 -0.0220
   85SOPE   HN1 7854  -0.019   5.339   2.806  0.9188 -0.4980  0.3825
   85SOPE   HN2 7855   0.156   5.354   2.797  0.2370  1.4603  0.6323
   85SOPE   HN3 7856   0.060   5.457   2.714  0.3779 -0.1915 -0.8934
   85SOPE   C12 7857   0.045   5.242   2.643 -0.0331  0.3132 -0.5364
   85SOPE  H12A 7858   0.065   5.150   2.701  1.4346  2.0324  1.8422
   85SOPE  H12B 7859   0.132   5.239   2.574  0.7204  0.2600  0.3910
   85SOPE   C11 7860  -0.084   5.258   2.561 -0.0981 -0.6663 -0.4542
   85SOPE  H11A 7861  -0.081   5.179   2.483  1.0325 -1.4622  0.3571
   85SOPE  H11B 7862  -0.086   5.361   2.520 -2.5825 -0.2918  0.4309
   85SOPE     P 7863  -0.342   5.234   2.589  0.0397  0.0139 -0.1429
   85SOPE   O13 7864  -0.404   5.103   2.581  0.3276  1.2338  0.3946
   85SOPE   O14 7865  -0.339   5.321   2.468 -0.6646 -0.1651 -0.4755
   85SOPE   O12 7866  -0.191   5.228   2.645  0.4360 -0.2172  1.0127
   85SOPE   O11 7867  -0.415   5.312   2.704  0.0998 -0.0589 -0.3171
   85SOPE    C1 7868  -0.456   5.253   2.831 -0.3744  0.7644  0.1372
   85SOPE    HA 7869  -0.478   5.144   2.830  0.1135  0.6035  2.1956
   85SOPE    HB 7870  -0.547   5.307   2.862  0.1913  2.0856 -0.4102
   85SOPE    C2 7871  -0.347   5.282   2.938  0.3125  0.0845  0.5842
   85SOPE    HS 7872  -0.413   5.303   3.025 -0.7026  1.7817 -0.5451
   85SOPE   O21 7873  -0.266   5.392   2.900  0.1983  0.0593 -0.6088
   85SOPE   C21 7874  -0.320   5.505   2.930 -0.1675 -0.3149  0.2926
   85SOPE   O22 7875  -0.430   5.532   2.968  0.1310  0.6861 -0.4304
   85SOPE   C22 7876  -0.214   5.617   2.899 -0.2134  0.4096  0.3302
   85SOPE   H2R 7877  -0.213   5.632   2.788  0.5603 -0.3541  0.2239
   85SOPE   H2S 7878  -0.117   5.577   2.935 -0.4432  0.6899  1.2910
   85SOPE    C3 7879  -0.272   5.153   2.968 -0.0978 -0.0725 -0.9564
   85SOPE    HX 7880  -0.207   5.122   2.884 -1.4705 -3.1441 -1.0565
   85SOPE    HY 7881  -0.348   5.071   2.978 -0.8354  0.8063  1.0546
   85SOPE   O31 7882  -0.192   5.160   3.094 -0.4598  0.6694  0.2721
   85SOPE   C31 7883  -0.076   5.227   3.082  0.7323  0.1941 -0.1708
   85SOPE   O32 7884  -0.035   5.275   2.980 -0.4269 -0.4505 -0.4286
   85SOPE   C32 7885   0.001   5.210   3.208 -0.0030  0.2498  0.0117
   85SOPE   H2X 7886   0.105   5.183   3.183 -0.0327  1.9883 -2.3893
   85SOPE   H2Y 7887  -0.043   5.124   3.261  0.5618 -0.0158  0.0549
   85SOPE   C23 7888  -0.246   5.749   2.966  0.5033  0.1468  0.3963
   85SOPE   H3R 7889  -0.347   5.786   2.937  0.4543 -1.8817 -2.3606
   85SOPE   H3S 7890  -0.184   5.835   2.933 -1.4582  1.5721  0.1735
   85SOPE   C24 7891  -0.253   5.738   3.121 -1.0961  0.5302  0.3312
   85SOPE   H4R 7892  -0.359   5.711   3.142 -1.4229  2.0354  0.7452
   85SOPE   H4S 7893  -0.189   5.655   3.158 -0.7370  1.4048  1.7015
   85SOPE   C25 7894  -0.219   5.863   3.201  0.2826 -1.3682 -0.0592
   85SOPE   H5R 7895  -0.120   5.908   3.175 -0.1277  0.4966  1.4230
   85SOPE   H5S 7896  -0.290   5.947   3.184  0.3524 -1.4690 -0.9082
   85SOPE   C26 7897  -0.204   5.824   3.349  0.2501  0.4136 -0.5422
   85SOPE   H6R 7898  -0.297   5.781   3.392  0.8506  1.3277  1.8111
   85SOPE   H6S 7899  -0.124   5.748   3.362 -0.6769 -0.8850 -2.0367
   85SOPE   C27 7900  -0.170   5.944   3.437  0.5219 -0.2840  0.3466
   85SOPE   H7R 7901  -0.070   5.974   3.399  1.0265 -0.0011  1.8304
   85SOPE   H7S 7902  -0.245   6.024   3.424 -0.7225 -1.6446 -1.2244
   85SOPE   C28 7903  -0.157   5.895   3.583  0.1332 -0.3436 -0.1682
   85SOPE   H8R 7904  -0.259   5.858   3.608 -0.0630  0.0653 -0.3464
   85SOPE   H8S 7905  -0.088   5.809   3.577  1.1886  0.4517  0.1654
   85SOPE   C29 7906  -0.114   5.986   3.699 -0.5713 -0.1584 -0.1794
   85SOPE   H91 7907  -0.023   6.046   3.685  1.2103 -1.8920  2.7059
   85SOPE  C210 7908  -0.168   5.988   3.825  0.2224  0.2717  0.5791
   85SOPE  H101 7909  -0.114   6.056   3.892  0.7203  0.9425 -0.4672
   85SOPE  C211 7910  -0.277   5.903   3.890  0.0323  0.0766  0.8183
   85SOPE  H11R 7911  -0.311   5.823   3.821 -3.3987  1.7279  0.3620
   85SOPE  H11S 7912  -0.373   5.958   3.899  0.0980  0.4359 -0.4210
   85SOPE  C212 7913  -0.246   5.837   4.024  0.4749  0.0829 -0.1451
   85SOPE  H12R 7914  -0.148   5.784   4.020 -0.2950 -1.3762 -0.0332
   85SOPE  H12S 7915  -0.327   5.766   4.050 -0.2957  1.1590  0.5323
   85SOPE  C213 7916  -0.235   5.941   4.139 -0.7633 -0.1224  0.1492
   85SOPE  H13R 7917  -0.161   6.013   4.098 -1.4236 -0.7662 -2.3549
   85SOPE  H13S 7918  -0.191   5.892   4.229  0.5579 -1.0304 -0.9504
   85SOPE  C214 7919  -0.358   6.011   4.200 -0.1036  0.1259  0.6366
   85SOPE  H14R 7920  -0.400   6.084   4.129  1.2726  1.1761  0.8667
   85SOPE  H14S 7921  -0.325   6.074   4.285 -1.1407 -0.4148  1.4818
   85SOPE  C215 7922  -0.462   5.910   4.254  0.6119  0.3394 -0.1743
   85SOPE  H15R 7923  -0.512   5.851   4.174 -1.4848  0.5474  0.9087
   85SOPE  H15S 7924  -0.545   5.969   4.297  1.0987  1.7349 -1.0621
   85SOPE  C216 7925  -0.424   5.805   4.355 -0.5687 -0.5462 -0.2342
   85SOPE  H16R 7926  -0.377   5.852   4.444 -1.7939  0.2881 -0.0048
   85SOPE  H16S 7927  -0.343   5.745   4.308 -1.0774  0.5561 -2.6635
   85SOPE  C217 7928  -0.541   5.720   4.404  1.0975 -0.1966  0.1798
   85SOPE  H17R 7929  -0.551   5.628   4.343 -0.9270  1.1383 -1.6659
   85SOPE  H17S 7930  -0.629   5.784   4.385  0.8280 -0.3481  0.9120
   85SOPE  C218 7931  -0.534   5.684   4.548 -0.2723  0.2996 -0.3141
   85SOPE  H18R 7932  -0.431   5.691   4.589 -0.5094  0.3082  0.2911
   85SOPE  H18S 7933  -0.572   5.581   4.562  1.2065 -0.1983  0.2254
   85SOPE  H18T 7934  -0.595   5.754   4.610  1.4154 -0.9646  3.0464
   85SOPE   C33 7935   0.007   5.334   3.308  0.0643  0.4261  0.1528
   85SOPE   H3X 7936  -0.097   5.357   3.341  0.7083 -0.2429  2.9433
   85SOPE   H3Y 7937   0.044   5.416   3.243 -0.8591  0.0250 -0.9005
   85SOPE   C34 7938   0.098   5.305   3.421 -0.0326  0.3213  0.2424
   85SOPE   H4X 7939   0.196   5.282   3.373  0.0411  0.7212  0.1880
   85SOPE   H4Y 7940   0.074   5.211   3.473 -1.0258  0.6322  0.3704
   85SOPE   C35 7941   0.113   5.432   3.511 -0.4317  0.8730 -0.3407
   85SOPE   H5X 7942   0.021   5.442   3.573 -0.7587  1.3064 -0.8854
   85SOPE   H5Y 7943   0.103   5.520   3.445 -0.8120 -0.7230 -2.5110
   85SOPE   C36 7944   0.241   5.434   3.594 -0.5917  0.6739  0.4589
   85SOPE   H6X 7945   0.255   5.534   3.641  0.7181  0.8676 -0.2647
   85SOPE   H6Y 7946   0.331   5.417   3.531 -0.9351  0.8240 -0.0798
   85SOPE   C37 7947   0.247   5.319   3.694 -0.2526  0.3182  0.0634
   85SOPE   H7X 7948   0.349   5.306   3.737 -0.0255  2.6773  0.4074
   85SOPE   H7Y 7949   0.229   5.224   3.640  1.4104 -0.9830  1.6811
   85SOPE   C38 7950   0.167   5.329   3.827 -0.6943 -0.4813 -0.3238
   85SOPE   H8X 7951   0.059   5.339   3.807 -0.5427 -1.1070 -1.5796
   85SOPE   H8Y 7952   0.184   5.429   3.871 -0.2374 -0.2410 -1.0116
   85SOPE   C39 7953   0.190   5.216   3.932 -0.3724  0.1373  0.4739
   85SOPE   H9X 7954   0.298   5.221   3.959 -0.1143  0.8325 -0.6048
   85SOPE   H9Y 7955   0.172   5.121   3.878 -2.5925 -0.3660  1.9614
   85SOPE  C310 7956   0.105   5.217   4.060  0.2714 -0.2339 -0.2630
   85SOPE  H10X 7957   0.001   5.197   4.027  1.1860 -2.5276 -2.0182
   85SOPE  H10Y 7958   0.108   5.316   4.110 -1.0695  0.4648 -1.5223
   85SOPE  C311 7959   0.146   5.112   4.160  0.7045 -0.1139  0.2979
   85SOPE  H11X 7960   0.174   5.018   4.108 -0.4083  0.0416 -0.6134
   85SOPE  H11Y 7961   0.065   5.097   4.234 -0.5602  2.7822 -0.3431
   85SOPE  C312 7962   0.267   5.159   4.248  0.1891 -0.8513  0.7674
   85SOPE  H12X 7963   0.238   5.246   4.311 -0.1182 -0.1108 -0.3758
   85SOPE  H12Y 7964   0.351   5.198   4.187  0.5839  2.2853  3.0524
   85SOPE  C313 7965   0.312   5.060   4.355  0.2376  0.1960  0.5688
   85SOPE  H13X 7966   0.299   4.958   4.314 -0.3850  0.4892  0.0156
   85SOPE  H13Y 7967   0.248   5.072   4.445  0.4483  4.3601  0.3508
   85SOPE  C314 7968   0.452   5.089   4.406 -0.2480 -0.5597 -0.7251
   85SOPE  H14X 7969   0.463   5.185   4.460  2.7183  1.1062 -3.9018
   85SOPE  H14Y 7970   0.524   5.092   4.321  1.4781  0.8547  0.7041
   85SOPE  C315 7971   0.500   4.982   4.511 -0.1612 -0.4150 -0.0589
   85SOPE  H15X 7972   0.492   4.882   4.463  0.8892  0.0588 -1.3040
   85SOPE  H15Y 7973   0.435   4.991   4.600 -1.2235 -0.2923 -0.8239
   85SOPE  C316 7974   0.641   5.003   4.557 -0.0648  0.0721  0.1528
   85SOPE  H16X 7975   0.643   5.098   4.614 -0.0907 -0.8902  1.8102
   85SOPE  H16Y 7976   0.714   5.017   4.475 -1.0680  1.4367 -0.5554
   85SOPE  C317 7977   0.690   4.892   4.659 -0.1334 -0.2067  0.0076
   85SOPE  H17X 7978   0.668   4.792   4.614  0.3915 -1.6021  2.6181
   85SOPE  H17Y 7979   0.633   4.902   4.754  0.9456 -1.2601  0.8043
   85SOPE  C318 7980   0.840   4.913   4.688  0.8456  0.2889  0.0406
   85SOPE  H18X 7981   0.881   4.845   4.765  1.8177  1.6059  0.7363
   85SOPE  H18Y 7982   0.865   5.019   4.710 -0.7460  0.4437  1.2680
   85SOPE  H18Z 7983   0.884   4.881   4.591  0.4762  2.1300 -0.7951
   86SOPE     N 7984   1.391   4.155   2.451 -0.3135  0.3061 -0.0394
   86SOPE   HN1 7985   1.410   4.224   2.376 -1.7645 -0.9027 -1.5852
   86SOPE   HN2 7986   1.437   4.066   2.424 -2.3230 -1.0230  0.6888
   86SOPE   HN3 7987   1.289   4.146   2.470 -0.0308 -0.4236  1.3362
   86SOPE   C12 7988   1.464   4.205   2.569  0.4253 -0.6284 -1.3624
   86SOPE  H12A 7989   1.414   4.298   2.606  1.2345 -0.3428 -0.9519
   86SOPE  H12B 7990   1.572   4.223   2.556  0.1883  1.3408 -1.0202
   86SOPE   C11 7991   1.447   4.107   2.693 -0.1891  0.1590 -0.6590
   86SOPE  H11A 7992   1.494   4.149   2.785 -2.1151 -1.6073  1.2279
   86SOPE  H11B 7993   1.495   4.010   2.671 -1.2993 -0.2527 -1.3082
   86SOPE     P 7994   1.240   3.958   2.748 -0.1914  0.0109 -0.2095
   86SOPE   O13 7995   1.325   3.885   2.837 -0.1304 -0.0840 -0.7957
   86SOPE   O14 7996   1.224   3.899   2.619  0.1573 -0.2390 -0.1228
   86SOPE   O12 7997   1.307   4.094   2.722 -0.2663  0.5497 -0.0880
   86SOPE   O11 7998   1.107   3.989   2.817  0.5526  0.2945 -0.3860
   86SOPE    C1 7999   1.097   4.073   2.930 -0.3640  0.5127  0.2578
   86SOPE    HA 8000   0.991   4.088   2.961 -0.5999 -0.3194 -0.1431
   86SOPE    HB 8001   1.140   4.172   2.905 -1.0036  0.0986 -2.8504
   86SOPE    C2 8002   1.161   4.012   3.059  0.2269  0.1255  0.0075
   86SOPE    HS 8003   1.271   3.997   3.048  0.4081  1.8857 -0.9848
   86SOPE   O21 8004   1.094   3.889   3.086  0.4402 -0.0468  0.1716
   86SOPE   C21 8005   1.153   3.798   3.152  1.1149 -0.6198 -0.9431
   86SOPE   O22 8006   1.275   3.796   3.182  0.1068 -0.5563  0.2067
   86SOPE   C22 8007   1.044   3.695   3.189  0.0216 -0.0430  0.1665
   86SOPE   H2R 8008   1.000   3.674   3.089  0.9101  1.6643 -0.6170
   86SOPE   H2S 8009   0.965   3.748   3.247  0.2096 -1.4327  1.7974
   86SOPE    C3 8010   1.145   4.111   3.178 -0.1790  0.7114  0.7782
   86SOPE    HX 8011   1.054   4.173   3.162  0.9486  2.1760 -0.2708
   86SOPE    HY 8012   1.225   4.188   3.184 -0.4551  0.8824  3.1730
   86SOPE   O31 8013   1.135   4.034   3.301 -0.2182  0.1531  0.3501
   86SOPE   C31 8014   1.234   4.028   3.385  0.0736  0.1922 -0.2298
   86SOPE   O32 8015   1.337   4.091   3.381 -0.8171 -0.0127  0.4766
   86SOPE   C32 8016   1.205   3.927   3.501  0.8508  0.0247 -0.6123
   86SOPE   H2X 8017   1.215   3.822   3.464 -1.9805 -1.0431  1.3007
   86SOPE   H2Y 8018   1.100   3.938   3.536  1.6025  3.6702  0.8769
   86SOPE   C23 8019   1.082   3.566   3.262 -0.5180  0.4552 -0.2573
   86SOPE   H3R 8020   1.130   3.590   3.359 -1.2700 -1.0209  0.5204
   86SOPE   H3S 8021   1.164   3.518   3.203 -0.9606  0.5024 -0.9281
   86SOPE   C24 8022   0.968   3.456   3.283 -0.8327  0.1316 -0.9238
   86SOPE   H4R 8023   0.961   3.407   3.184 -1.5905  0.0956 -0.8571
   86SOPE   H4S 8024   1.001   3.380   3.357  0.4528 -0.5470 -2.1557
   86SOPE   C25 8025   0.825   3.518   3.321 -0.6445  0.1514 -0.1883
   86SOPE   H5R 8026   0.805   3.570   3.225  3.4242 -0.7666 -1.7427
   86SOPE   H5S 8027   0.754   3.433   3.329 -0.0745 -0.4106 -0.8931
   86SOPE   C26 8028   0.822   3.617   3.444  0.2416  0.1420  0.4037
   86SOPE   H6R 8029   0.908   3.686   3.449 -0.6442  1.3873 -0.7398
   86SOPE   H6S 8030   0.736   3.686   3.430  0.4713  0.2768 -0.3621
   86SOPE   C27 8031   0.812   3.529   3.570  0.6927  0.5544 -0.0048
   86SOPE   H7R 8032   0.753   3.435   3.571 -0.1569  1.0366 -1.7523
   86SOPE   H7S 8033   0.911   3.490   3.603  0.7969  0.3395 -0.5551
   86SOPE   C28 8034   0.747   3.611   3.686  0.5460  0.3346 -0.4797
   86SOPE   H8R 8035   0.659   3.663   3.642 -0.3766 -1.1083 -0.3997
   86SOPE   H8S 8036   0.716   3.538   3.765  0.8574  0.0144 -0.6548
   86SOPE   C29 8037   0.844   3.707   3.744  0.4681  0.3481 -1.0487
   86SOPE   H91 8038   0.932   3.718   3.680  2.3105  0.2052  1.3116
   86SOPE  C210 8039   0.838   3.767   3.866 -0.3630  0.2471 -0.3544
   86SOPE  H101 8040   0.914   3.843   3.886  0.5598 -1.0634  1.4207
   86SOPE  C211 8041   0.744   3.748   3.987  0.2945  0.0545  0.7603
   86SOPE  H11R 8042   0.689   3.652   3.978  3.2142 -1.6441 -0.2432
   86SOPE  H11S 8043   0.666   3.827   3.972 -1.7558 -2.3603 -2.8841
   86SOPE  C212 8044   0.804   3.762   4.126 -0.4325 -0.4656 -0.1759
   86SOPE  H12R 8045   0.842   3.865   4.141 -0.1876 -0.8630  2.3820
   86SOPE  H12S 8046   0.888   3.690   4.132 -1.4395 -1.8886 -1.9922
   86SOPE  C213 8047   0.715   3.721   4.241 -0.6010 -0.1087  0.2124
   86SOPE  H13R 8048   0.668   3.628   4.203  0.3088  0.1263 -1.6438
   86SOPE  H13S 8049   0.625   3.785   4.247 -1.2126 -0.7983 -1.0942
   86SOPE  C214 8050   0.784   3.706   4.378 -0.1900  0.1332 -0.5509
   86SOPE  H14R 8051   0.802   3.806   4.422  1.6511 -0.6416  0.5862
   86SOPE  H14S 8052   0.881   3.654   4.367 -0.1263 -0.6340  2.5172
   86SOPE  C215 8053   0.690   3.629   4.475  0.0834  0.4153  0.6909
   86SOPE  H15R 8054   0.684   3.529   4.428 -2.1669  1.1632 -0.7562
   86SOPE  H15S 8055   0.594   3.684   4.470 -1.1887 -1.8244 -1.4129
   86SOPE  C216 8056   0.744   3.609   4.621 -0.2525 -0.4403  0.2698
   86SOPE  H16R 8057   0.670   3.579   4.698  2.0348 -1.4611  2.2080
   86SOPE  H16S 8058   0.774   3.713   4.648  0.1949 -0.6242  0.4994
   86SOPE  C217 8059   0.877   3.529   4.621  0.2700 -0.0088  0.2874
   86SOPE  H17R 8060   0.947   3.580   4.551  0.5603 -1.0899 -0.2417
   86SOPE  H17S 8061   0.859   3.427   4.582  2.3047 -0.5978  0.7439
   86SOPE  C218 8062   0.951   3.515   4.754 -0.2057 -0.3798  0.3212
   86SOPE  H18R 8063   1.046   3.459   4.738 -0.2846 -0.5278  0.3774
   86SOPE  H18S 8064   0.879   3.479   4.830  0.4126  2.1580  2.2664
   86SOPE  H18T 8065   0.988   3.610   4.798  1.9699 -1.9800  2.1928
   86SOPE   C33 8066   1.292   3.935   3.626  0.1926 -0.0847  0.6404
   86SOPE   H3X 8067   1.337   4.037   3.626  0.3688 -0.0650 -2.6923
   86SOPE   H3Y 8068   1.367   3.853   3.619 -1.0664 -1.1899 -0.2932
   86SOPE   C34 8069   1.216   3.906   3.747 -0.2320  0.0000 -0.5879
   86SOPE   H4X 8070   1.148   3.818   3.738  0.8641 -0.9125 -0.0735
   86SOPE   H4Y 8071   1.150   3.995   3.755  0.7004  0.6633 -0.2039
   86SOPE   C35 8072   1.290   3.905   3.883  0.1355 -0.1772 -0.0028
   86SOPE   H5X 8073   1.351   3.996   3.873  0.6050 -0.4956 -0.0494
   86SOPE   H5Y 8074   1.360   3.820   3.869  0.0448 -0.3309  0.4418
   86SOPE   C36 8075   1.209   3.888   4.010  1.0277  1.2737  0.4072
   86SOPE   H6X 8076   1.150   3.794   4.008  0.7214  1.4716 -1.3586
   86SOPE   H6Y 8077   1.128   3.962   4.024 -0.4645 -0.3502  0.7205
   86SOPE   C37 8078   1.297   3.887   4.137 -0.1675 -0.6153 -0.2052
   86SOPE   H7X 8079   1.251   3.965   4.201 -0.5750 -0.6428 -0.4630
   86SOPE   H7Y 8080   1.392   3.929   4.096  0.2393 -1.1876  0.1404
   86SOPE   C38 8081   1.325   3.753   4.209  0.1518 -0.1415 -0.0218
   86SOPE   H8X 8082   1.358   3.679   4.132 -0.7037 -0.4589 -0.0966
   86SOPE   H8Y 8083   1.235   3.703   4.251  0.9406 -1.9608 -0.3761
   86SOPE   C39 8084   1.434   3.753   4.324  0.1137  0.6337 -0.4998
   86SOPE   H9X 8085   1.533   3.777   4.280  0.1342 -3.4231 -3.1672
   86SOPE   H9Y 8086   1.445   3.648   4.359  1.8924  0.1481 -2.3687
   86SOPE  C310 8087   1.401   3.860   4.433 -0.4384  0.0970  0.8665
   86SOPE  H10X 8088   1.304   3.846   4.485 -0.0693  1.8987  2.1467
   86SOPE  H10Y 8089   1.398   3.960   4.383  0.9861  0.8723  2.2413
   86SOPE  C311 8090   1.501   3.876   4.556  0.1007 -0.1246  1.1297
   86SOPE  H11X 8091   1.485   3.784   4.617 -1.2814 -0.6573  0.0141
   86SOPE  H11Y 8092   1.474   3.964   4.617  1.9088  0.6883  0.8287
   86SOPE  C312 8093   1.649   3.897   4.517 -0.6459  0.4375 -0.1812
   86SOPE  H12X 8094   1.672   3.979   4.444  0.1220 -0.9954 -1.6159
   86SOPE  H12Y 8095   1.689   3.803   4.473 -2.4466 -0.6356  0.3953
   86SOPE  C313 8096   1.735   3.931   4.642  0.6633 -0.0312  0.2590
   86SOPE  H13X 8097   1.709   3.863   4.726 -0.3078 -1.4714 -1.1472
   86SOPE  H13Y 8098   1.706   4.034   4.672 -2.0920 -1.2890  2.4140
   86SOPE  C314 8099   1.887   3.915   4.617 -0.0925  0.1602 -0.3336
   86SOPE  H14X 8100   1.930   3.966   4.528  0.9937 -3.4029 -2.0478
   86SOPE  H14Y 8101   1.895   3.805   4.604  0.0784  0.2830 -1.3358
   86SOPE  C315 8102   1.975   3.954   4.740 -0.2195 -0.0842 -0.0842
   86SOPE  H15X 8103   1.921   3.918   4.830 -2.1412  1.3093 -0.6052
   86SOPE  H15Y 8104   1.990   4.064   4.744 -0.2324 -0.1152  1.3689
   86SOPE  C316 8105   2.115   3.888   4.734 -0.1034  0.0547  0.0595
   86SOPE  H16X 8106   2.184   3.934   4.809  0.3233 -0.0801 -0.2483
   86SOPE  H16Y 8107   2.158   3.890   4.632 -2.3394  1.6123 -0.9258
   86SOPE  C317 8108   2.109   3.737   4.782  0.1113 -0.2581  0.3393
   86SOPE  H17X 8109   2.032   3.670   4.738  0.3424 -1.8579  2.2372
   86SOPE  H17Y 8110   2.074   3.750   4.886 -1.9950  1.0180 -0.4816
   86SOPE  C318 8111   2.243   3.662   4.770  0.1003  0.7246  0.0501
   86SOPE  H18X 8112   2.237   3.555   4.799  0.3918  0.5255 -0.6048
   86SOPE  H18Y 8113   2.321   3.714   4.830  1.2004  0.3979 -1.0682
   86SOPE  H18Z 8114   2.277   3.653   4.665 -0.7737 -0.3941 -0.1524
   87SOPE     N 8115   4.862   1.557   2.372  0.3315  0.3392  0.2117
   87SOPE   HN1 8116   4.933   1.630   2.393  1.8444 -0.4505 -1.8676
   87SOPE   HN2 8117   4.908   1.477   2.324 -2.2054 -0.3369 -1.2554
   87SOPE   HN3 8118   4.798   1.609   2.310 -1.1591 -1.1626  0.4113
   87SOPE   C12 8119   4.766   1.496   2.482 -0.1606 -0.1220 -0.2169
   87SOPE  H12A 8120   4.825   1.434   2.552  1.4702  2.6543  1.0477
   87SOPE  H12B 8121   4.693   1.429   2.431 -1.3066  0.0092  1.1935
   87SOPE   C11 8122   4.694   1.603   2.555 -0.6587 -0.3240  0.4021
   87SOPE  H11A 8123   4.761   1.654   2.627  0.5765 -0.3085 -0.7088
   87SOPE  H11B 8124   4.612   1.553   2.611 -0.8010  1.1829  1.6016
   87SOPE     P 8125   4.490   1.736   2.455 -0.0146 -0.5515 -0.0529
   87SOPE   O13 8126   4.432   1.616   2.403  0.3801 -0.2864  0.5579
   87SOPE   O14 8127   4.453   1.865   2.385 -0.2674  0.3093 -0.7441
   87SOPE   O12 8128   4.645   1.716   2.481  0.1394  0.2074  0.8957
   87SOPE   O11 8129   4.426   1.745   2.601 -0.0662  0.2284  0.4597
   87SOPE    C1 8130   4.482   1.843   2.690 -0.0927  0.1200  0.8342
   87SOPE    HA 8131   4.445   1.938   2.646 -0.9272 -1.1958 -1.4640
   87SOPE    HB 8132   4.593   1.844   2.684 -0.0071 -3.5795 -0.3018
   87SOPE    C2 8133   4.448   1.832   2.845 -1.1901  0.3767 -0.2132
   87SOPE    HS 8134   4.496   1.918   2.895 -0.5798 -0.5537  0.8496
   87SOPE   O21 8135   4.489   1.701   2.901  0.2650  0.3371 -0.1334
   87SOPE   C21 8136   4.622   1.682   2.930 -0.2475  0.7856  0.2130
   87SOPE   O22 8137   4.706   1.762   2.905 -0.3160 -0.4304  0.6561
   87SOPE   C22 8138   4.653   1.557   3.010  0.1230 -0.1546  0.2923
   87SOPE   H2R 8139   4.707   1.484   2.946  0.1623  0.2675 -0.1560
   87SOPE   H2S 8140   4.562   1.507   3.051  1.3861 -0.2659  3.2319
   87SOPE    C3 8141   4.299   1.852   2.863  0.6788 -1.0306 -0.0115
   87SOPE    HX 8142   4.240   1.770   2.817 -2.0808  1.4735 -1.2373
   87SOPE    HY 8143   4.285   1.942   2.800  2.9738 -0.6278 -0.0465
   87SOPE   O31 8144   4.257   1.873   3.000 -0.8893 -0.3984  0.7505
   87SOPE   C31 8145   4.241   1.765   3.075  0.0506  0.1936 -0.2626
   87SOPE   O32 8146   4.246   1.649   3.049  0.3073 -0.1207 -0.4378
   87SOPE   C32 8147   4.190   1.823   3.209  0.8389  0.6364  0.4505
   87SOPE   H2X 8148   4.080   1.811   3.203  0.7037  0.4528  2.6446
   87SOPE   H2Y 8149   4.207   1.933   3.207 -2.3880  1.2529  0.6175
   87SOPE   C23 8150   4.737   1.599   3.145  0.1529  0.1517 -0.2637
   87SOPE   H3R 8151   4.836   1.642   3.117  0.2944 -0.7114 -1.1575
   87SOPE   H3S 8152   4.745   1.506   3.205  3.1332  0.1965 -0.4463
   87SOPE   C24 8153   4.665   1.706   3.225  0.7174 -0.0372 -0.3191
   87SOPE   H4R 8154   4.632   1.794   3.167 -0.6295  0.4397  1.1056
   87SOPE   H4S 8155   4.568   1.664   3.258  0.6360 -2.1283 -2.9254
   87SOPE   C25 8156   4.745   1.733   3.348 -0.7507  1.0531 -0.4515
   87SOPE   H5R 8157   4.764   1.634   3.396 -1.3652  1.1147 -0.0694
   87SOPE   H5S 8158   4.833   1.792   3.316  0.5188 -0.9012 -0.7905
   87SOPE   C26 8159   4.663   1.809   3.457 -0.2845  0.5565 -0.2199
   87SOPE   H6R 8160   4.681   1.917   3.442 -0.3161  0.7939  1.2632
   87SOPE   H6S 8161   4.556   1.783   3.444  0.0692 -0.1350 -1.9678
   87SOPE   C27 8162   4.715   1.763   3.596  0.3238  0.0889 -0.3827
   87SOPE   H7R 8163   4.674   1.662   3.619 -2.0117  0.8835 -0.7177
   87SOPE   H7S 8164   4.826   1.764   3.596  0.3531 -0.7252  1.4432
   87SOPE   C28 8165   4.660   1.850   3.709 -0.3129 -0.0158 -0.0442
   87SOPE   H8R 8166   4.684   1.958   3.694 -2.1862  0.2330 -1.5049
   87SOPE   H8S 8167   4.550   1.840   3.708 -0.1766 -1.7380 -1.1786
   87SOPE   C29 8168   4.719   1.804   3.845  0.0721  0.2350  0.0534
   87SOPE   H91 8169   4.818   1.756   3.840  1.0656  1.8130  2.5803
   87SOPE  C210 8170   4.665   1.834   3.967  0.4537 -0.3503 -0.5735
   87SOPE  H101 8171   4.714   1.795   4.057  0.3049 -1.1245 -0.8277
   87SOPE  C211 8172   4.536   1.898   4.004  0.4473 -0.1949 -0.4493
   87SOPE  H11R 8173   4.452   1.864   3.940  0.5354  1.3353 -1.4235
   87SOPE  H11S 8174   4.541   2.009   4.005 -0.8931 -0.0838  1.7071
   87SOPE  C212 8175   4.493   1.863   4.152  0.8646  0.0800  0.3679
   87SOPE  H12R 8176   4.412   1.936   4.174  1.2583  0.7170 -0.2327
   87SOPE  H12S 8177   4.562   1.887   4.236  0.7080 -1.4697  0.9767
   87SOPE  C213 8178   4.437   1.717   4.177 -0.2245 -0.3037 -0.0806
   87SOPE  H13R 8179   4.412   1.666   4.082 -1.0972  1.6085 -0.9364
   87SOPE  H13S 8180   4.348   1.727   4.244 -0.8597  0.0023 -0.9593
   87SOPE  C214 8181   4.549   1.632   4.236  0.0211  0.0613  0.2554
   87SOPE  H14R 8182   4.601   1.671   4.325  2.9252  2.4018 -2.2271
   87SOPE  H14S 8183   4.621   1.600   4.158  0.0201  0.2716  0.1676
   87SOPE  C215 8184   4.495   1.496   4.276  0.2375  0.4236 -0.4720
   87SOPE  H15R 8185   4.445   1.438   4.195 -2.8965  3.8938 -1.3144
   87SOPE  H15S 8186   4.421   1.509   4.358  1.7827 -0.6482  1.1772
   87SOPE  C216 8187   4.606   1.401   4.333  0.1511  0.6625  0.0856
   87SOPE  H16R 8188   4.663   1.451   4.414 -1.5572 -0.5629  2.1555
   87SOPE  H16S 8189   4.683   1.373   4.258 -1.4065 -0.3902 -1.1788
   87SOPE  C217 8190   4.541   1.275   4.391  0.0622  1.2027  0.3957
   87SOPE  H17R 8191   4.486   1.214   4.317  0.8717  0.9954 -0.0418
   87SOPE  H17S 8192   4.468   1.293   4.473 -0.9986 -1.5114  0.1388
   87SOPE  C218 8193   4.658   1.197   4.456 -0.1658 -0.5343 -0.2467
   87SOPE  H18R 8194   4.722   1.147   4.380  0.4459 -3.1112  1.8149
   87SOPE  H18S 8195   4.614   1.112   4.513 -1.4682 -0.8632 -1.6809
   87SOPE  H18T 8196   4.722   1.267   4.514 -1.4521 -0.5651  1.2700
   87SOPE   C33 8197   4.236   1.759   3.340 -1.2019  0.0851  0.3509
   87SOPE   H3X 8198   4.341   1.791   3.353 -0.9832 -0.4477 -0.0701
   87SOPE   H3Y 8199   4.234   1.648   3.333  2.8290 -0.0281 -1.3684
   87SOPE   C34 8200   4.152   1.788   3.466 -0.4927 -0.1483  0.4328
   87SOPE   H4X 8201   4.042   1.794   3.450 -0.2579  2.7108 -0.6142
   87SOPE   H4Y 8202   4.182   1.895   3.470 -0.6353 -0.0619 -0.5539
   87SOPE   C35 8203   4.211   1.711   3.580  1.0556  0.6369 -0.3503
   87SOPE   H5X 8204   4.322   1.714   3.579  1.3591 -2.2572  2.8827
   87SOPE   H5Y 8205   4.180   1.605   3.569  2.3224  0.3540 -1.4777
   87SOPE   C36 8206   4.177   1.776   3.714 -0.1833 -0.1641  0.2835
   87SOPE   H6X 8207   4.221   1.879   3.710  3.0346 -1.4274  0.1678
   87SOPE   H6Y 8208   4.231   1.723   3.795  1.3990  1.4787  0.3856
   87SOPE   C37 8209   4.025   1.791   3.747 -0.5164 -0.3171  0.6137
   87SOPE   H7X 8210   3.986   1.692   3.780 -2.4547  0.8588  1.9804
   87SOPE   H7Y 8211   3.973   1.828   3.657  0.7879  0.7830  0.2759
   87SOPE   C38 8212   4.010   1.909   3.845  0.5860  0.5558  0.4553
   87SOPE   H8X 8213   3.918   1.970   3.829  2.5413  3.2008 -1.5053
   87SOPE   H8Y 8214   4.084   1.988   3.820  0.4641  0.2975 -0.7656
   87SOPE   C39 8215   4.035   1.870   3.995 -0.7160  0.2435  0.5272
   87SOPE   H9X 8216   4.125   1.807   4.012 -0.4379  0.7377  0.9100
   87SOPE   H9Y 8217   3.949   1.813   4.036 -2.0486  0.6081 -1.6633
   87SOPE  C310 8218   4.064   1.991   4.077 -0.0239  0.1441  0.1191
   87SOPE  H10X 8219   3.998   2.075   4.048  0.5208  0.5014 -0.0890
   87SOPE  H10Y 8220   4.164   2.029   4.046  0.2060 -0.0702  0.5790
   87SOPE  C311 8221   4.056   1.961   4.226  0.7933  0.0998 -0.3046
   87SOPE  H11X 8222   4.117   1.873   4.253 -3.1975 -2.8671 -0.0881
   87SOPE  H11Y 8223   3.953   1.923   4.243  0.5885  0.7056 -0.1492
   87SOPE  C312 8224   4.102   2.074   4.320  0.0727  0.3024  0.2756
   87SOPE  H12X 8225   4.048   2.161   4.277  0.7451 -0.7296 -2.9556
   87SOPE  H12Y 8226   4.213   2.076   4.314  0.0407 -0.0491 -0.7819
   87SOPE  C313 8227   4.070   2.055   4.471  0.3399  0.4865 -0.1701
   87SOPE  H13X 8228   3.960   2.064   4.476  0.2354  1.2816 -2.6683
   87SOPE  H13Y 8229   4.122   2.131   4.532  5.2330 -1.4742 -1.3588
   87SOPE  C314 8230   4.105   1.912   4.527 -0.3224 -0.1427 -0.6939
   87SOPE  H14X 8231   4.071   1.826   4.466 -0.3354 -0.0606 -0.8019
   87SOPE  H14Y 8232   4.068   1.895   4.631  0.2830  1.5582 -0.1665
   87SOPE  C315 8233   4.250   1.898   4.564 -0.8652 -0.8651  0.2184
   87SOPE  H15X 8234   4.287   1.975   4.636  0.6663  0.1618 -1.5590
   87SOPE  H15Y 8235   4.301   1.913   4.466  0.2379 -3.1004  0.4035
   87SOPE  C316 8236   4.302   1.763   4.605 -0.3826 -0.3608 -0.2039
   87SOPE  H16X 8237   4.263   1.685   4.536  1.9118 -0.7046 -1.2005
   87SOPE  H16Y 8238   4.259   1.747   4.706  1.2363 -4.2302  0.0492
   87SOPE  C317 8239   4.461   1.764   4.616  0.1714 -0.1597 -0.2485
   87SOPE  H17X 8240   4.491   1.848   4.681 -0.0269  0.3153 -0.7629
   87SOPE  H17Y 8241   4.505   1.786   4.516 -0.8263 -0.3727 -0.7416
   87SOPE  C318 8242   4.513   1.633   4.668  0.7463  0.6010 -0.0066
   87SOPE  H18X 8243   4.478   1.611   4.771 -2.9240 -1.4499 -1.5060
   87SOPE  H18Y 8244   4.623   1.622   4.663  0.6133 -0.0926 -2.4341
   87SOPE  H18Z 8245   4.462   1.563   4.598  3.0982 -0.3686 -0.8389
   88SOPE     N 8246   5.673   2.881   2.426 -0.5183  0.3171  0.6465
   88SOPE   HN1 8247   5.573   2.864   2.400  0.3475 -0.2106 -2.7818
   88SOPE   HN2 8248   5.707   2.836   2.513  0.2215 -1.4409 -0.5101
   88SOPE   HN3 8249   5.692   2.982   2.441  0.3926  0.2864 -0.2676
   88SOPE   C12 8250   5.750   2.837   2.302  0.4625  0.5655  0.0595
   88SOPE  H12A 8251   5.727   2.895   2.210  1.3393  1.1306  0.1833
   88SOPE  H12B 8252   5.732   2.728   2.287 -4.5484  0.8875  1.7976
   88SOPE   C11 8253   5.901   2.859   2.335  0.5916 -0.3794  0.2949
   88SOPE  H11A 8254   5.916   2.967   2.354 -0.4719  0.0407 -1.0903
   88SOPE  H11B 8255   5.960   2.832   2.244  2.0575 -2.3899  1.7364
   88SOPE     P 8256   6.073   2.804   2.513  0.2896 -0.1462 -0.1758
   88SOPE   O13 8257   6.176   2.867   2.428 -0.7474 -0.6667 -0.0533
   88SOPE   O14 8258   6.116   2.673   2.567  0.2032 -0.2860 -0.5423
   88SOPE   O12 8259   5.941   2.771   2.433 -0.1952  0.1241  0.2768
   88SOPE   O11 8260   6.007   2.881   2.626  0.1357 -0.1590  0.3947
   88SOPE    C1 8261   6.059   3.006   2.676  0.1545 -0.3604  0.5845
   88SOPE    HA 8262   5.976   3.077   2.656  0.3706 -0.3954 -0.4970
   88SOPE    HB 8263   6.155   3.034   2.628 -0.5020  0.0114 -0.5275
   88SOPE    C2 8264   6.091   3.011   2.830  1.0946 -0.0454  0.2011
   88SOPE    HS 8265   6.148   2.921   2.861 -0.5431 -0.7769  1.2627
   88SOPE   O21 8266   5.963   3.016   2.899  0.4088  0.1680  0.0442
   88SOPE   C21 8267   5.904   2.908   2.932 -0.0113  0.0185  0.0679
   88SOPE   O22 8268   5.953   2.796   2.930 -0.0496  0.0858  0.2811
   88SOPE   C22 8269   5.772   2.944   2.994  0.1818 -0.0126  0.2549
   88SOPE   H2R 8270   5.710   2.990   2.913 -0.5204 -0.1029  0.7270
   88SOPE   H2S 8271   5.779   3.025   3.070  3.2259 -1.6738  1.9071
   88SOPE    C3 8272   6.172   3.138   2.867 -0.4033  0.2387  0.4927
   88SOPE    HX 8273   6.121   3.235   2.849  1.3291  1.3672  1.4160
   88SOPE    HY 8274   6.255   3.153   2.794 -0.4479  2.3755  0.8307
   88SOPE   O31 8275   6.201   3.135   3.008  0.4186 -0.5499 -0.1840
   88SOPE   C31 8276   6.325   3.098   3.051  0.6048  0.0599  0.7526
   88SOPE   O32 8277   6.420   3.090   2.975 -0.9174  0.0386 -0.1474
   88SOPE   C32 8278   6.330   3.082   3.201  0.4627 -0.5363 -0.0594
   88SOPE   H2X 8279   6.259   3.156   3.243  0.9411  0.8820 -1.6299
   88SOPE   H2Y 8280   6.429   3.116   3.236  1.2847 -0.0969 -2.6118
   88SOPE   C23 8281   5.685   2.825   3.052 -0.0475 -0.2979  0.0866
   88SOPE   H3R 8282   5.713   2.737   2.990  2.2626 -0.6388  1.5092
   88SOPE   H3S 8283   5.574   2.829   3.052 -0.1130 -1.6725 -0.6403
   88SOPE   C24 8284   5.717   2.799   3.199 -0.0201 -1.1451 -0.4927
   88SOPE   H4R 8285   5.639   2.725   3.224  1.0065 -2.5763 -1.3390
   88SOPE   H4S 8286   5.819   2.756   3.212  0.5405 -0.2961 -1.7464
   88SOPE   C25 8287   5.707   2.919   3.295  0.2019 -0.3158  0.0965
   88SOPE   H5R 8288   5.799   2.981   3.297 -0.9035  1.3835 -0.2987
   88SOPE   H5S 8289   5.626   2.991   3.272 -0.1351  0.0366  2.2020
   88SOPE   C26 8290   5.656   2.880   3.433 -1.0342 -0.0000 -0.4751
   88SOPE   H6R 8291   5.646   2.977   3.487 -1.1142 -0.0332 -0.4313
   88SOPE   H6S 8292   5.557   2.831   3.440 -1.3436  0.3518 -2.0767
   88SOPE   C27 8293   5.763   2.805   3.508  0.1489 -0.3748 -0.2982
   88SOPE   H7R 8294   5.772   2.706   3.458  0.1434 -0.5492  0.0406
   88SOPE   H7S 8295   5.855   2.865   3.491 -1.9985  2.9201 -1.2031
   88SOPE   C28 8296   5.741   2.792   3.661 -0.0073  0.1574 -0.2924
   88SOPE   H8R 8297   5.746   2.891   3.710 -0.6260  1.2707 -2.3787
   88SOPE   H8S 8298   5.641   2.749   3.684  0.6408 -0.7444  0.9590
   88SOPE   C29 8299   5.850   2.709   3.726 -0.0668 -0.3555  0.5058
   88SOPE   H91 8300   5.917   2.652   3.661  0.7296 -0.3263  1.2831
   88SOPE  C210 8301   5.880   2.721   3.857  0.5531 -0.1891 -0.3012
   88SOPE  H101 8302   5.971   2.667   3.889  1.0408  0.8121  0.0444
   88SOPE  C211 8303   5.811   2.809   3.959 -0.0583 -0.5217  0.2698
   88SOPE  H11R 8304   5.759   2.897   3.916  0.8392  0.8863  1.9767
   88SOPE  H11S 8305   5.895   2.853   4.015  0.1380 -1.3275  0.6317
   88SOPE  C212 8306   5.725   2.718   4.043  0.4028  0.4047  0.3500
   88SOPE  H12R 8307   5.629   2.692   3.993  1.6283 -0.5077 -1.6858
   88SOPE  H12S 8308   5.709   2.772   4.138 -2.6287  0.3266 -0.0357
   88SOPE  C213 8309   5.780   2.574   4.083 -0.1984 -0.3854  0.2773
   88SOPE  H13R 8310   5.883   2.576   4.123 -0.1040 -1.0907  0.0909
   88SOPE  H13S 8311   5.782   2.520   3.985 -0.7193 -2.1660  1.2039
   88SOPE  C214 8312   5.695   2.502   4.193  0.0335 -0.4266  0.1207
   88SOPE  H14R 8313   5.734   2.401   4.213  3.0750  0.8364  1.0767
   88SOPE  H14S 8314   5.592   2.479   4.158 -0.2098  0.6350  0.0936
   88SOPE  C215 8315   5.686   2.571   4.328  0.4067  1.0544 -0.4230
   88SOPE  H15R 8316   5.631   2.668   4.324 -0.5503  0.6318  1.3345
   88SOPE  H15S 8317   5.791   2.601   4.348  1.3980 -2.3555  0.1261
   88SOPE  C216 8318   5.638   2.479   4.443 -0.2893 -0.1027 -0.3854
   88SOPE  H16R 8319   5.551   2.421   4.405 -0.4010  1.5037 -2.8073
   88SOPE  H16S 8320   5.608   2.535   4.534 -0.5062 -0.7706 -0.0349
   88SOPE  C217 8321   5.744   2.389   4.491 -0.9476 -0.0358  0.5663
   88SOPE  H17R 8322   5.833   2.446   4.523 -1.1149 -0.0946  1.1435
   88SOPE  H17S 8323   5.775   2.312   4.416 -0.1833  1.6825 -0.9610
   88SOPE  C218 8324   5.699   2.311   4.612  1.2415  0.6263  0.4228
   88SOPE  H18R 8325   5.727   2.375   4.698  4.1594 -1.1791  0.9448
   88SOPE  H18S 8326   5.755   2.216   4.618  1.9526  0.9308 -0.8681
   88SOPE  H18T 8327   5.592   2.285   4.626  1.1451  0.5726 -0.3311
   88SOPE   C33 8328   6.282   2.937   3.235 -0.1435  0.5906 -0.6839
   88SOPE   H3X 8329   6.347   2.860   3.189  0.8705  0.5229  0.7986
   88SOPE   H3Y 8330   6.177   2.924   3.199 -0.5371 -4.4334  1.4557
   88SOPE   C34 8331   6.279   2.915   3.386  0.2399  0.6156 -0.7245
   88SOPE   H4X 8332   6.377   2.921   3.438 -0.6604  1.6000  0.9306
   88SOPE   H4Y 8333   6.248   2.810   3.402  1.4657  0.1148 -1.5186
   88SOPE   C35 8334   6.180   3.016   3.460  0.6277  0.1986  0.4387
   88SOPE   H5X 8335   6.086   3.019   3.401  0.5060 -3.3529  0.2212
   88SOPE   H5Y 8336   6.226   3.117   3.466 -0.8021  1.1039 -2.2816
   88SOPE   C36 8337   6.127   2.973   3.601  0.2017 -0.3619  0.2119
   88SOPE   H6X 8338   6.078   2.874   3.598 -1.2270  0.2055  2.4762
   88SOPE   H6Y 8339   6.046   3.047   3.620  0.5704 -0.2891  1.6121
   88SOPE   C37 8340   6.247   2.968   3.696 -0.1134 -0.1659  0.6071
   88SOPE   H7X 8341   6.309   3.060   3.688 -1.8548  1.0724  0.8609
   88SOPE   H7Y 8342   6.316   2.892   3.655 -0.3288  0.2428 -0.5543
   88SOPE   C38 8343   6.202   2.924   3.837 -0.4829 -0.6955  0.8186
   88SOPE   H8X 8344   6.166   2.819   3.833  0.3992 -0.9732 -0.1484
   88SOPE   H8Y 8345   6.127   2.999   3.871 -0.5392 -1.0113  1.4247
   88SOPE   C39 8346   6.316   2.935   3.940  0.1243  0.2642 -0.8653
   88SOPE   H9X 8347   6.374   3.027   3.920 -2.5861  3.1264  3.0403
   88SOPE   H9Y 8348   6.382   2.846   3.930  0.2825  0.3150 -0.2425
   88SOPE  C310 8349   6.254   2.940   4.078  0.7800  0.1313  0.0895
   88SOPE  H10X 8350   6.165   3.008   4.082 -0.9338 -1.9810 -0.3333
   88SOPE  H10Y 8351   6.325   2.979   4.154 -0.2706  0.2312  1.0639
   88SOPE  C311 8352   6.215   2.800   4.120 -0.6516  1.0509 -0.1128
   88SOPE  H11X 8353   6.301   2.732   4.099 -0.3705  1.0675  0.8996
   88SOPE  H11Y 8354   6.128   2.770   4.058  0.1401  2.1977 -1.8579
   88SOPE  C312 8355   6.174   2.783   4.266 -0.6866  0.0627 -0.1645
   88SOPE  H12X 8356   6.247   2.842   4.326  0.6248 -1.0117 -0.6498
   88SOPE  H12Y 8357   6.194   2.679   4.300 -2.1978 -0.2034 -0.0448
   88SOPE  C313 8358   6.026   2.817   4.295  0.9264 -0.1409 -0.0528
   88SOPE  H13X 8359   5.970   2.727   4.259  0.7699 -0.8677  1.8890
   88SOPE  H13Y 8360   6.003   2.910   4.240  1.6619  0.2996  0.3675
   88SOPE  C314 8361   5.984   2.828   4.447  0.0097  1.1072 -0.1209
   88SOPE  H14X 8362   5.874   2.815   4.459  0.2458 -0.7074  0.5119
   88SOPE  H14Y 8363   6.000   2.928   4.491 -2.2252  1.5194 -0.1092
   88SOPE  C315 8364   6.039   2.718   4.539  0.1315  0.6209 -0.7572
   88SOPE  H15X 8365   6.149   2.727   4.529  0.0104  2.5775 -0.6399
   88SOPE  H15Y 8366   6.018   2.622   4.487 -0.4373  0.1491  0.3216
   88SOPE  C316 8367   5.987   2.733   4.685 -0.2094 -0.6962  0.0888
   88SOPE  H16X 8368   5.906   2.658   4.696  0.4567 -1.4951 -0.2611
   88SOPE  H16Y 8369   5.941   2.833   4.698  2.4480  0.6656 -0.2015
   88SOPE  C317 8370   6.102   2.727   4.787  0.4125  0.3428 -0.1290
   88SOPE  H17X 8371   6.181   2.798   4.755 -0.5203  2.2339  1.5845
   88SOPE  H17Y 8372   6.157   2.630   4.780  0.6405  0.3460  1.3525
   88SOPE  C318 8373   6.050   2.761   4.930  0.5589  0.2230  0.2473
   88SOPE  H18X 8374   6.143   2.756   4.991  1.5948 -0.7457 -1.3327
   88SOPE  H18Y 8375   5.980   2.680   4.958 -0.4848  0.8161 -0.5502
   88SOPE  H18Z 8376   5.989   2.854   4.934  2.5487  1.5859  0.3822
   89SAPC     N 8377   6.087   5.706   7.345 -0.5587 -0.2801 -0.3950
   89SAPC   C12 8378   6.194   5.602   7.395  0.2129 -0.8024 -0.0743
   89SAPC  H12A 8379   6.225   5.615   7.498  1.5204 -2.3828 -0.2208
   89SAPC  H12B 8380   6.289   5.635   7.355 -0.2014  3.0100  1.6310
   89SAPC   C13 8381   5.952   5.673   7.396  0.7815  0.2742 -0.7401
   89SAPC  H13A 8382   5.876   5.722   7.336 -1.8447 -2.3338  0.1990
   89SAPC  H13B 8383   5.942   5.565   7.390  0.0281  0.3824 -1.6648
   89SAPC  H13C 8384   5.939   5.704   7.498  2.3413 -0.6968 -0.2081
   89SAPC   C14 8385   6.126   5.844   7.375 -0.6718 -0.0003  0.2910
   89SAPC  H14A 8386   6.068   5.916   7.320 -1.8980 -0.4184  1.0125
   89SAPC  H14B 8387   6.115   5.856   7.482 -0.7835 -3.7691  0.8313
   89SAPC  H14C 8388   6.230   5.865   7.355 -0.5852  0.6444  1.3091
   89SAPC   C15 8389   6.087   5.686   7.197  0.2401  0.4156 -0.0057
   89SAPC  H15A 8390   6.181   5.703   7.145 -0.7595 -1.1043 -2.4679
   89SAPC  H15B 8391   6.062   5.583   7.179  0.8104  0.2477  0.1510
   89SAPC  H15C 8392   6.006   5.746   7.160 -0.6861 -1.0760 -0.4605
   89SAPC   C11 8393   6.172   5.447   7.377 -0.1499 -0.6851  0.4325
   89SAPC  H11A 8394   6.262   5.392   7.411  1.9775  2.8506  1.0089
   89SAPC  H11B 8395   6.163   5.424   7.268 -0.3920  0.5310  0.1873
   89SAPC     P 8396   5.944   5.294   7.398  0.0780 -0.4485  0.2222
   89SAPC   O13 8397   5.989   5.160   7.436 -0.3058  0.1768 -0.2724
   89SAPC   O14 8398   5.811   5.343   7.458 -0.4028 -0.1106 -0.1351
   89SAPC   O12 8399   6.057   5.394   7.445  0.1597  0.8765  0.3502
   89SAPC   O11 8400   5.937   5.312   7.240  0.1527  0.2237  0.2916
   89SAPC    C1 8401   5.836   5.395   7.179  0.0905  0.4498 -0.4881
   89SAPC    HA 8402   5.760   5.435   7.250 -1.7145 -1.7678 -1.0453
   89SAPC    HB 8403   5.868   5.485   7.122  1.0442  0.6298  0.3109
   89SAPC    C2 8404   5.741   5.306   7.093 -0.0392 -0.6833  0.5911
   89SAPC    HS 8405   5.707   5.221   7.156 -1.3327 -2.3554 -2.1818
   89SAPC   O21 8406   5.810   5.249   6.980  0.1231  0.6861  0.2562
   89SAPC   C21 8407   5.740   5.147   6.919  0.2279  0.0644  0.2370
   89SAPC   O22 8408   5.647   5.091   6.971 -0.4641 -0.1854  0.0038
   89SAPC   C22 8409   5.795   5.107   6.781  0.1483  0.0820  0.0205
   89SAPC   H2R 8410   5.900   5.074   6.799  0.2478 -0.1279 -0.8982
   89SAPC   H2S 8411   5.740   5.018   6.744  0.1220  0.3627 -0.6254
   89SAPC    C3 8412   5.600   5.380   7.057  0.2792  0.3976 -0.4683
   89SAPC    HX 8413   5.567   5.444   7.142  0.3184  0.5887 -0.5961
   89SAPC    HY 8414   5.523   5.303   7.036 -0.6848  1.1363  0.2792
   89SAPC   O31 8415   5.620   5.468   6.946  0.0108 -0.0950 -0.0520
   89SAPC   C31 8416   5.555   5.442   6.837 -0.7345 -0.7003  0.2425
   89SAPC   O32 8417   5.482   5.346   6.812 -0.3192  0.0755 -0.4459
   89SAPC   C32 8418   5.603   5.547   6.734  0.2142  0.1560  0.7098
   89SAPC   H2X 8419   5.714   5.540   6.732  0.1473 -1.4026  1.0406
   89SAPC   H2Y 8420   5.576   5.654   6.752  2.5860  1.0661 -0.7322
   89SAPC   C23 8421   5.800   5.213   6.667  0.8310  0.1358  0.1532
   89SAPC   H3R 8422   5.836   5.306   6.716  0.9452 -0.4963  1.2875
   89SAPC   H3S 8423   5.697   5.243   6.639  0.2021 -0.6112  1.5626
   89SAPC   C24 8424   5.886   5.186   6.543  0.3948  0.2813 -0.4512
   89SAPC   H4R 8425   5.829   5.207   6.450 -0.7573 -3.0545 -0.6331
   89SAPC   H4S 8426   5.915   5.080   6.527  2.2456  0.7734 -0.6245
   89SAPC   C25 8427   6.014   5.265   6.546  0.7583 -0.1029 -0.2447
   89SAPC   H5R 8428   6.093   5.230   6.614 -2.1575  0.5330  3.8134
   89SAPC   C26 8429   6.051   5.368   6.464 -0.3685  0.4253 -0.1397
   89SAPC   H6R 8430   6.148   5.418   6.478  0.5004 -1.2220 -0.0478
   89SAPC   C27 8431   5.961   5.423   6.355 -0.2189  0.4189  0.3130
   89SAPC   H7R 8432   5.982   5.530   6.336 -0.1744  0.0172 -2.2251
   89SAPC   H7S 8433   5.856   5.413   6.389 -0.9805  0.0567 -2.0129
   89SAPC   C28 8434   5.984   5.346   6.229  0.7788  0.5474 -0.2817
   89SAPC   H8R 8435   5.964   5.239   6.248  1.5280  0.5219  0.4432
   89SAPC   C29 8436   6.014   5.391   6.107 -0.3313  0.4437  0.3510
   89SAPC   H9R 8437   6.031   5.320   6.026  2.9581 -1.5587  2.5361
   89SAPC  C210 8438   6.038   5.539   6.070 -0.4929  0.4759 -0.5332
   89SAPC  H10R 8439   6.146   5.529   6.048 -0.3811 -0.7963  0.4486
   89SAPC  H10S 8440   6.031   5.612   6.153 -0.8387 -1.0650  0.8570
   89SAPC  C211 8441   5.951   5.580   5.952  0.2678 -0.7276  0.2043
   89SAPC  H11R 8442   5.846   5.603   5.974  0.7968  2.5033 -0.0463
   89SAPC  C212 8443   5.998   5.591   5.823  0.6158  0.3943 -0.4656
   89SAPC  H12R 8444   5.919   5.607   5.747 -2.3698 -2.8283  1.6106
   89SAPC  C213 8445   6.136   5.543   5.783  0.6511  0.0218  0.7684
   89SAPC  H13R 8446   6.208   5.563   5.865  1.7287  0.0785 -0.1804
   89SAPC  H13S 8447   6.161   5.616   5.704  0.8327 -0.3375  0.4912
   89SAPC  C214 8448   6.134   5.402   5.728  0.1200 -0.0024 -0.7189
   89SAPC  H14R 8449   6.039   5.372   5.682  0.3551  0.9357 -1.8462
   89SAPC  C215 8450   6.243   5.322   5.726  0.1817  0.7968 -0.0091
   89SAPC  H15R 8451   6.231   5.222   5.682 -3.2033  0.4920  1.2874
   89SAPC  C216 8452   6.374   5.344   5.789 -0.3106  0.3158 -0.0414
   89SAPC  H16R 8453   6.358   5.411   5.876 -4.6366  1.1551 -1.2201
   89SAPC  H16S 8454   6.448   5.384   5.716 -0.4902  0.0293 -0.3851
   89SAPC  C217 8455   6.441   5.214   5.848 -0.1114  0.9061 -0.2531
   89SAPC  H17R 8456   6.407   5.137   5.775  0.1143 -1.0541  1.6162
   89SAPC  H17S 8457   6.393   5.193   5.946  0.2148  0.9191 -0.0911
   89SAPC  C218 8458   6.588   5.230   5.863 -0.2501  0.3006 -0.6685
   89SAPC  H18R 8459   6.628   5.266   5.766  0.2475 -0.9145 -0.9351
   89SAPC  H18S 8460   6.637   5.134   5.889  1.3745  1.7056  2.0346
   89SAPC  C219 8461   6.630   5.339   5.971  0.4716  0.1495  0.1945
   89SAPC  H19R 8462   6.601   5.305   6.073 -3.4000  1.8972 -0.1394
   89SAPC  H19S 8463   6.567   5.430   5.956 -1.8630 -1.3430  0.3829
   89SAPC  C220 8464   6.776   5.387   5.957 -0.3396  0.2789 -0.1497
   89SAPC  H20R 8465   6.787   5.454   5.869  1.9930  0.5140  0.2565
   89SAPC  H20S 8466   6.828   5.293   5.929 -1.5855 -0.5757  0.3034
   89SAPC  H20T 8467   6.809   5.440   6.048 -1.3567  0.3982  0.1635
   89SAPC   C33 8468   5.557   5.514   6.591  0.5722  0.0436 -0.4004
   89SAPC   H3X 8469   5.446   5.511   6.597  0.6210 -0.7005  0.4267
   89SAPC   H3Y 8470   5.586   5.409   6.571  0.1489 -0.0103 -0.7322
   89SAPC   C34 8471   5.623   5.604   6.481 -0.2426  0.6797 -0.0275
   89SAPC   H4X 8472   5.732   5.590   6.461  0.1293  1.0906  1.5814
   89SAPC   H4Y 8473   5.585   5.706   6.503 -0.2933  0.7655 -0.4980
   89SAPC   C35 8474   5.564   5.559   6.344 -0.0260 -0.2913 -0.4243
   89SAPC   H5X 8475   5.453   5.559   6.353 -0.1220 -1.7654 -1.2618
   89SAPC   H5Y 8476   5.606   5.461   6.314  1.9390  0.2694  0.3214
   89SAPC   C36 8477   5.594   5.662   6.230  0.3528 -0.3245 -0.1616
   89SAPC   H6X 8478   5.704   5.674   6.222  0.4634 -0.4530  0.9670
   89SAPC   H6Y 8479   5.540   5.755   6.256 -1.8123 -1.5626  0.0472
   89SAPC   C37 8480   5.529   5.621   6.096  0.5214  0.7582 -0.5490
   89SAPC   H7X 8481   5.420   5.608   6.111  0.5816  1.8845  1.2209
   89SAPC   H7Y 8482   5.557   5.520   6.061  0.1404  0.7617 -0.8670
   89SAPC   C38 8483   5.573   5.712   5.983 -0.4852  0.4803  0.3229
   89SAPC   H8X 8484   5.682   5.715   5.961 -0.6537  0.9538 -0.5234
   89SAPC   H8Y 8485   5.551   5.818   6.009 -1.1336  0.6266 -0.7588
   89SAPC   C39 8486   5.508   5.689   5.848 -0.2764  0.3294 -0.2300
   89SAPC   H9X 8487   5.536   5.770   5.779 -1.1183 -0.1239 -1.1260
   89SAPC   H9Y 8488   5.398   5.700   5.848 -0.5171 -1.5883 -0.1791
   89SAPC  C310 8489   5.543   5.553   5.789 -0.0904  0.0271  0.5440
   89SAPC  H10X 8490   5.476   5.471   5.824 -0.9372 -0.3646 -1.7707
   89SAPC  H10Y 8491   5.644   5.527   5.827 -0.3970 -0.4017  1.0793
   89SAPC  C311 8492   5.536   5.549   5.642 -0.2327 -0.2143  0.0413
   89SAPC  H11X 8493   5.606   5.620   5.593  0.4816 -0.5243  0.5729
   89SAPC  H11Y 8494   5.433   5.569   5.607 -0.5435 -0.7019  0.6447
   89SAPC  C312 8495   5.578   5.413   5.575  0.1188  0.4411  0.0572
   89SAPC  H12X 8496   5.640   5.362   5.652  3.2092 -1.0525 -3.1759
   89SAPC  H12Y 8497   5.654   5.428   5.496 -0.1006 -0.8538 -0.4346
   89SAPC  C313 8498   5.471   5.319   5.517  0.3981  0.8683  0.0895
   89SAPC  H13X 8499   5.394   5.376   5.461  0.2646 -1.1424 -1.8790
   89SAPC  H13Y 8500   5.420   5.278   5.607  0.4393 -1.8938 -1.0526
   89SAPC  C314 8501   5.524   5.201   5.432  0.1231 -0.3804  0.0739
   89SAPC  H14X 8502   5.435   5.137   5.413 -0.3313 -0.1492  1.3531
   89SAPC  H14Y 8503   5.603   5.151   5.491  0.1850  0.4648  0.7328
   89SAPC  C315 8504   5.573   5.255   5.297  0.5999 -0.0403 -0.2570
   89SAPC  H15X 8505   5.609   5.168   5.238 -0.5042 -0.9798  0.4269
   89SAPC  H15Y 8506   5.658   5.327   5.303  1.4336 -0.8717 -1.4714
   89SAPC  C316 8507   5.458   5.318   5.214  0.3725 -0.4196  1.2716
   89SAPC  H16X 8508   5.435   5.418   5.256 -0.4398 -0.0642  0.0353
   89SAPC  H16Y 8509   5.366   5.257   5.216 -2.2912  3.2498  0.3829
   89SAPC  C317 8510   5.488   5.351   5.060 -0.1528 -0.4902  0.2730
   89SAPC  H17X 8511   5.399   5.400   5.014 -0.8438 -0.4912  1.5567
   89SAPC  H17Y 8512   5.502   5.255   5.005  1.0314  0.5335 -1.2757
   89SAPC  C318 8513   5.603   5.450   5.034 -0.4384  0.3041 -0.4126
   89SAPC  H18X 8514   5.565   5.548   5.070  0.0192 -0.2071  1.5982
   89SAPC  H18Y 8515   5.617   5.446   4.924  2.1999  0.5295 -0.1641
   89SAPC  H18Z 8516   5.696   5.427   5.091  0.3495  0.1176 -1.7248
   90SAPC     N 8517   2.320   0.875   7.494 -0.0032  0.3355  0.4512
   90SAPC   C12 8518   2.185   0.813   7.523 -0.5109 -0.2343  0.2447
   90SAPC  H12A 8519   2.106   0.883   7.504  0.5549  1.3989  1.5345
   90SAPC  H12B 8520   2.181   0.787   7.628 -1.5068 -0.8986  0.0557
   90SAPC   C13 8521   2.430   0.774   7.504  0.2908  0.4237 -0.2568
   90SAPC  H13A 8522   2.424   0.717   7.596 -1.0849  0.0530 -0.5584
   90SAPC  H13B 8523   2.423   0.698   7.428  0.6984 -1.1492  1.2258
   90SAPC  H13C 8524   2.524   0.822   7.483 -0.1875  0.3118 -2.9767
   90SAPC   C14 8525   2.322   0.927   7.360  0.5712 -0.2264  0.2581
   90SAPC  H14A 8526   2.283   0.865   7.281 -0.9306 -1.6527  2.0166
   90SAPC  H14B 8527   2.246   1.003   7.352  1.1801  0.5887  1.7188
   90SAPC  H14C 8528   2.418   0.974   7.345  0.9458  0.0139  2.8328
   90SAPC   C15 8529   2.349   0.993   7.583 -0.3773  0.2263 -0.4408
   90SAPC  H15A 8530   2.439   1.046   7.555  0.3262 -0.5034  0.3901
   90SAPC  H15B 8531   2.274   1.070   7.575 -2.3861 -1.6287 -0.2842
   90SAPC  H15C 8532   2.340   0.980   7.690 -0.5070  0.4726 -0.4216
   90SAPC   C11 8533   2.145   0.682   7.434 -0.2095  0.1375 -0.4197
   90SAPC  H11A 8534   2.064   0.624   7.483 -0.5810  1.5975  0.7638
   90SAPC  H11B 8535   2.232   0.613   7.429 -0.3013 -0.2230  1.7525
   90SAPC     P 8536   1.976   0.802   7.275  0.1997 -0.3040 -0.0790
   90SAPC   O13 8537   1.862   0.735   7.346  0.5687 -0.1490 -0.1390
   90SAPC   O14 8538   2.001   0.940   7.318  0.6266 -0.0519  0.0387
   90SAPC   O12 8539   2.113   0.725   7.300 -0.4022 -0.2374 -0.3521
   90SAPC   O11 8540   1.942   0.801   7.123 -0.1506 -0.2797  0.1845
   90SAPC    C1 8541   1.998   0.721   7.017  0.0236 -0.3570 -0.3047
   90SAPC    HA 8542   2.041   0.623   7.044 -1.6821 -1.4093 -1.1950
   90SAPC    HB 8543   1.906   0.688   6.963 -0.0864 -1.3562  0.4788
   90SAPC    C2 8544   2.092   0.801   6.914  0.1009  0.0751  0.0504
   90SAPC    HS 8545   2.173   0.844   6.977  0.7239  2.2413 -2.0819
   90SAPC   O21 8546   2.027   0.906   6.838  0.0432 -0.6504  0.6921
   90SAPC   C21 8547   2.104   1.017   6.823 -0.4104  0.1815 -0.4977
   90SAPC   O22 8548   2.214   1.034   6.870 -0.4779  0.5947  0.2078
   90SAPC   C22 8549   2.042   1.107   6.724 -0.5250 -0.1324 -0.1020
   90SAPC   H2R 8550   1.945   1.065   6.688  0.1360  0.0699 -2.2887
   90SAPC   H2S 8551   2.020   1.205   6.770  0.6888  1.0724 -1.9320
   90SAPC    C3 8552   2.174   0.711   6.821  0.1453 -0.4127  0.1761
   90SAPC    HX 8553   2.227   0.638   6.885 -1.5432  0.0797  2.2548
   90SAPC    HY 8554   2.258   0.773   6.784  1.9682 -0.5843  3.6233
   90SAPC   O31 8555   2.097   0.637   6.726 -0.2231  0.4040  0.0479
   90SAPC   C31 8556   2.128   0.624   6.599 -0.5130 -0.4700 -0.2892
   90SAPC   O32 8557   2.217   0.687   6.542  0.0344 -0.0856  0.2914
   90SAPC   C32 8558   2.031   0.528   6.536 -0.1103  0.5459  0.2585
   90SAPC   H2X 8559   1.932   0.577   6.528  0.2163  1.2209  0.2313
   90SAPC   H2Y 8560   2.025   0.439   6.601  1.0037  1.5919  1.8792
   90SAPC   C23 8561   2.135   1.117   6.602  0.4639  0.2757  0.0561
   90SAPC   H3R 8562   2.154   1.014   6.564 -2.2620 -0.2299 -0.1368
   90SAPC   H3S 8563   2.231   1.164   6.632 -0.7916  2.0555  1.4842
   90SAPC   C24 8564   2.068   1.207   6.489  0.1971 -0.7046 -0.2712
   90SAPC   H4R 8565   2.064   1.310   6.529  1.1174 -0.5966 -0.4259
   90SAPC   H4S 8566   1.962   1.174   6.485 -0.3832  1.1846 -1.9669
   90SAPC   C25 8567   2.145   1.200   6.361 -0.0612  0.4687  0.3348
   90SAPC   H5R 8568   2.237   1.260   6.351 -1.3694  2.2913 -1.9335
   90SAPC   C26 8569   2.121   1.124   6.259  0.3480 -0.5817  0.7342
   90SAPC   H6R 8570   2.197   1.120   6.180  0.2485  0.1360  0.5932
   90SAPC   C27 8571   2.012   1.025   6.247 -0.4351 -0.3417 -0.5192
   90SAPC   H7R 8572   1.969   1.068   6.154 -0.5130  1.5872  0.3432
   90SAPC   H7S 8573   1.932   1.041   6.323 -0.7480  1.3543 -1.1584
   90SAPC   C28 8574   2.063   0.886   6.229 -0.5919  0.7881  0.1552
   90SAPC   H8R 8575   2.097   0.835   6.320 -1.1561  0.0145 -0.0540
   90SAPC   C29 8576   2.088   0.820   6.116  0.1808 -0.5428 -0.7277
   90SAPC   H9R 8577   2.124   0.717   6.128 -0.9826 -0.7874  1.0247
   90SAPC  C210 8578   2.076   0.858   5.968  0.8193 -0.4873  0.1990
   90SAPC  H10R 8579   2.179   0.863   5.927  2.0541  2.5946  3.2083
   90SAPC  H10S 8580   2.041   0.963   5.957 -1.3554 -1.0298  1.2721
   90SAPC  C211 8581   1.993   0.767   5.882 -0.4338 -0.4598 -0.1626
   90SAPC  H11R 8582   1.938   0.691   5.939  1.7254 -2.1459 -0.1938
   90SAPC  C212 8583   2.001   0.743   5.752 -0.9977 -0.0568  0.2912
   90SAPC  H12R 8584   1.932   0.668   5.713  2.3805 -2.0154 -2.4835
   90SAPC  C213 8585   2.094   0.805   5.649  0.4852 -0.3149 -0.4468
   90SAPC  H13R 8586   2.183   0.743   5.628  0.0530 -0.5795 -1.6052
   90SAPC  H13S 8587   2.134   0.899   5.692 -0.5265 -0.4312  0.8050
   90SAPC  C214 8588   2.007   0.833   5.528  0.6150 -0.5658  0.4584
   90SAPC  H14R 8589   1.901   0.840   5.555  0.8098 -2.2880  1.9041
   90SAPC  C215 8590   2.051   0.844   5.400 -0.4479 -0.0177 -0.3485
   90SAPC  H15R 8591   1.978   0.859   5.320 -0.2361 -1.4588 -0.8414
   90SAPC  C216 8592   2.193   0.850   5.351 -0.2636  0.7261  0.4231
   90SAPC  H16R 8593   2.215   0.763   5.285 -1.5938  0.3772  0.4119
   90SAPC  H16S 8594   2.266   0.854   5.434 -1.5280 -2.5353  1.8412
   90SAPC  C217 8595   2.226   0.984   5.271  0.1042 -0.6955  0.4193
   90SAPC  H17R 8596   2.332   1.000   5.300  0.4278 -1.0626 -0.5204
   90SAPC  H17S 8597   2.170   1.064   5.324  0.3220 -0.7881  0.7908
   90SAPC  C218 8598   2.200   0.989   5.121 -0.3805 -0.1350 -0.4496
   90SAPC  H18R 8599   2.096   0.958   5.095 -0.1525 -1.2502 -0.1035
   90SAPC  H18S 8600   2.253   0.905   5.071 -0.4304  1.4677 -3.4439
   90SAPC  C219 8601   2.237   1.120   5.055 -0.1194 -0.6618  0.9684
   90SAPC  H19R 8602   2.176   1.202   5.099  0.7396  0.6459 -0.1873
   90SAPC  H19S 8603   2.218   1.124   4.946 -2.0529 -1.5837  1.2352
   90SAPC  C220 8604   2.383   1.160   5.081 -0.3065 -0.0542 -0.3263
   90SAPC  H20R 8605   2.398   1.200   5.183  3.2762  0.1561 -0.8143
   90SAPC  H20S 8606   2.418   1.248   5.023 -0.9146 -0.0644 -0.7105
   90SAPC  H20T 8607   2.446   1.070   5.062  0.4899  0.6531 -1.1734
   90SAPC   C33 8608   2.071   0.513   6.391 -0.0069  0.3605  0.3428
   90SAPC   H3X 8609   2.157   0.444   6.381 -1.3495 -1.1392 -1.3345
   90SAPC   H3Y 8610   2.093   0.615   6.353 -1.0994  0.9648  1.2568
   90SAPC   C34 8611   1.963   0.441   6.309 -0.8788  0.1178 -0.0107
   90SAPC   H4X 8612   1.870   0.502   6.312 -0.6569  0.5048 -0.8213
   90SAPC   H4Y 8613   1.951   0.338   6.350  6.2204 -0.7250  1.0947
   90SAPC   C35 8614   2.000   0.431   6.159 -0.5726 -0.0607  0.4615
   90SAPC   H5X 8615   2.055   0.520   6.122 -0.6681 -0.2044 -0.0327
   90SAPC   H5Y 8616   1.903   0.425   6.106 -0.1542 -2.1011 -0.1426
   90SAPC   C36 8617   2.068   0.301   6.119  0.2153  0.1236  0.2798
   90SAPC   H6X 8618   2.024   0.208   6.161  2.9509 -1.5554 -0.2856
   90SAPC   H6Y 8619   2.167   0.294   6.170 -0.0511  1.1906  0.9765
   90SAPC   C37 8620   2.069   0.293   5.962  0.9254  0.0697 -0.1985
   90SAPC   H7X 8621   1.964   0.305   5.927  0.8695 -1.6888 -0.7013
   90SAPC   H7Y 8622   2.094   0.190   5.930  0.8785  1.4028 -5.5493
   90SAPC   C38 8623   2.144   0.403   5.894 -0.9718  0.1718  0.6157
   90SAPC   H8X 8624   2.249   0.385   5.925 -0.5661  0.1995 -0.6675
   90SAPC   H8Y 8625   2.112   0.506   5.923 -0.7687 -0.3174  2.7119
   90SAPC   C39 8626   2.123   0.393   5.746 -0.5030 -0.5762  0.7389
   90SAPC   H9X 8627   2.158   0.481   5.689  0.5648  0.8717  3.4202
   90SAPC   H9Y 8628   2.013   0.402   5.735 -0.5754 -0.3355  1.5880
   90SAPC  C310 8629   2.169   0.273   5.671  0.5719  0.6365 -0.0434
   90SAPC  H10X 8630   2.123   0.181   5.712  0.6547  0.0885 -1.1317
   90SAPC  H10Y 8631   2.278   0.265   5.689  0.4225  0.6476  0.8853
   90SAPC  C311 8632   2.144   0.272   5.523 -0.0654 -1.1052 -0.3008
   90SAPC  H11X 8633   2.037   0.261   5.496 -1.1740  1.2549  2.5591
   90SAPC  H11Y 8634   2.204   0.184   5.490  0.8180 -0.0411 -1.6161
   90SAPC  C312 8635   2.218   0.382   5.454 -0.4907 -0.6247 -0.2611
   90SAPC  H12X 8636   2.323   0.392   5.491 -0.5897 -0.5750  0.0103
   90SAPC  H12Y 8637   2.163   0.477   5.464 -1.5375 -1.1332 -1.0157
   90SAPC  C313 8638   2.234   0.352   5.305  0.8256  0.0893  0.3240
   90SAPC  H13X 8639   2.265   0.245   5.296  0.4573  0.0744 -1.0036
   90SAPC  H13Y 8640   2.313   0.418   5.264  2.6307 -1.7303  0.6745
   90SAPC  C314 8641   2.108   0.369   5.220 -0.7178 -0.6259  0.4902
   90SAPC  H14X 8642   2.060   0.468   5.235  1.4125  0.2584  2.0962
   90SAPC  H14Y 8643   2.033   0.301   5.265 -1.5231  0.4037  0.7502
   90SAPC  C315 8644   2.136   0.325   5.073 -1.0113 -0.2201  0.0809
   90SAPC  H15X 8645   2.043   0.279   5.035 -1.7967  0.3048  1.3205
   90SAPC  H15Y 8646   2.221   0.253   5.068  0.6700  1.7088 -0.7757
   90SAPC  C316 8647   2.193   0.441   4.999  0.0638  0.3226  0.1552
   90SAPC  H16X 8648   2.291   0.472   5.042 -0.9074  1.5509  1.5952
   90SAPC  H16Y 8649   2.119   0.523   5.008 -2.4944 -1.5720 -2.0529
   90SAPC  C317 8650   2.212   0.416   4.847  0.0458  0.2828  0.4105
   90SAPC  H17X 8651   2.256   0.501   4.791 -0.4708  0.1264 -0.2586
   90SAPC  H17Y 8652   2.109   0.406   4.806  0.8808 -3.2674 -1.2182
   90SAPC  C318 8653   2.289   0.292   4.817 -0.3128 -0.5422  0.2656
   90SAPC  H18X 8654   2.231   0.203   4.850 -0.3957 -0.0410  1.5240
   90SAPC  H18Y 8655   2.385   0.295   4.873 -0.7368 -1.8726  1.1191
   90SAPC  H18Z 8656   2.305   0.292   4.707 -1.8665 -0.7848  0.0089
   91SAPC     N 8657   0.510   1.589   7.190  0.2197 -0.7215  0.2545
   91SAPC   C12 8658   0.459   1.464   7.265  1.0539 -0.8403  0.5283
   91SAPC  H12A 8659   0.548   1.409   7.293  2.7537  2.1402  1.3772
   91SAPC  H12B 8660   0.401   1.408   7.193 -0.7026  1.4411  0.0547
   91SAPC   C13 8661   0.622   1.665   7.259  0.3510  0.2430 -0.7425
   91SAPC  H13A 8662   0.639   1.761   7.212  0.4079  0.2405 -0.7274
   91SAPC  H13B 8663   0.585   1.678   7.360 -0.5444 -0.8783 -0.9098
   91SAPC  H13C 8664   0.709   1.601   7.253  1.5180  1.8065 -1.5008
   91SAPC   C14 8665   0.557   1.547   7.055 -0.0707  0.3916  0.3540
   91SAPC  H14A 8666   0.596   1.631   7.000 -0.0194  0.2256  0.1343
   91SAPC  H14B 8667   0.630   1.467   7.059  1.7274  1.8342 -1.5485
   91SAPC  H14C 8668   0.467   1.519   7.002  0.9833 -1.5373 -0.5458
   91SAPC   C15 8669   0.395   1.688   7.173  0.6016  0.2602 -0.1746
   91SAPC  H15A 8670   0.413   1.792   7.193 -0.4632  0.0126  2.5619
   91SAPC  H15B 8671   0.338   1.665   7.084 -0.5086  0.7042  0.4099
   91SAPC  H15C 8672   0.328   1.663   7.254  1.0637  0.0394  0.1452
   91SAPC   C11 8673   0.375   1.484   7.391  0.5231  0.0680 -0.3585
   91SAPC  H11A 8674   0.435   1.543   7.463 -0.0193 -1.2833  1.2417
   91SAPC  H11B 8675   0.361   1.383   7.436  0.9109  0.6089  1.0203
   91SAPC     P 8676   0.130   1.451   7.317 -0.0793 -0.1043  0.3935
   91SAPC   O13 8677   0.178   1.326   7.252  0.2068  0.0714  0.0273
   91SAPC   O14 8678   0.019   1.441   7.416  0.1301 -0.2912 -0.3405
   91SAPC   O12 8679   0.247   1.542   7.371 -0.0800 -0.3496 -0.1638
   91SAPC   O11 8680   0.081   1.535   7.197  0.1983  0.3511  0.6017
   91SAPC    C1 8681   0.044   1.670   7.194  0.4414  0.1176  0.1062
   91SAPC    HA 8682  -0.045   1.683   7.259  1.5906  0.6657  1.6076
   91SAPC    HB 8683   0.122   1.736   7.237  0.8860 -0.2741 -0.0872
   91SAPC    C2 8684   0.030   1.697   7.047 -0.7600 -0.0897 -0.1825
   91SAPC    HS 8685  -0.048   1.621   7.022 -0.5502 -0.1871 -0.5492
   91SAPC   O21 8686   0.160   1.691   6.981  0.5894  0.4884  0.2305
   91SAPC   C21 8687   0.140   1.644   6.860 -0.5142 -0.8272  0.2844
   91SAPC   O22 8688   0.031   1.627   6.806  0.1856  0.5687 -0.1231
   91SAPC   C22 8689   0.276   1.598   6.808  0.1792 -0.2305 -0.2190
   91SAPC   H2R 8690   0.346   1.684   6.824 -1.0773  0.6890  0.5160
   91SAPC   H2S 8691   0.305   1.520   6.882 -2.5983  0.4046  1.6780
   91SAPC    C3 8692  -0.014   1.846   7.025 -0.5375  0.5654 -0.1175
   91SAPC    HX 8693   0.076   1.911   7.028  0.0026 -0.2108  1.2431
   91SAPC    HY 8694  -0.075   1.863   7.116  1.5156  0.6930  1.2974
   91SAPC   O31 8695  -0.098   1.865   6.919 -0.2160 -0.1738  0.2359
   91SAPC   C31 8696  -0.054   1.949   6.822 -0.0872  0.0869 -0.2713
   91SAPC   O32 8697   0.059   1.996   6.819  0.4199 -0.3462  0.1242
   91SAPC   C32 8698  -0.171   1.994   6.738 -0.1722  0.2182  0.8066
   91SAPC   H2X 8699  -0.167   2.105   6.728  0.5124  0.2692  1.6233
   91SAPC   H2Y 8700  -0.270   1.966   6.779 -1.1784 -0.6167 -1.9699
   91SAPC   C23 8701   0.275   1.536   6.669 -0.3763 -0.3798  0.2067
   91SAPC   H3R 8702   0.277   1.619   6.595  1.8312  1.2757  1.9752
   91SAPC   H3S 8703   0.196   1.460   6.654 -0.5421 -0.4397  1.3345
   91SAPC   C24 8704   0.405   1.459   6.647  0.7323 -0.6266  0.8125
   91SAPC   H4R 8705   0.400   1.422   6.543 -1.7268 -0.1494  0.7008
   91SAPC   H4S 8706   0.408   1.364   6.705 -2.5803 -0.1303  2.0269
   91SAPC   C25 8707   0.533   1.535   6.664 -0.8869  0.3477  0.7171
   91SAPC   H5R 8708   0.556   1.568   6.767  1.5372 -0.5472  0.5213
   91SAPC   C26 8709   0.641   1.531   6.583  0.4563  0.3089 -0.3892
   91SAPC   H6R 8710   0.724   1.595   6.618 -1.0548  1.9133  0.4328
   91SAPC   C27 8711   0.644   1.473   6.442 -0.4488 -0.0174  0.0020
   91SAPC   H7R 8712   0.733   1.512   6.388  0.4983 -0.7002  1.0132
   91SAPC   H7S 8713   0.563   1.510   6.376 -0.6802  2.0665  1.3686
   91SAPC   C28 8714   0.641   1.325   6.440  0.5822  0.9380 -0.1412
   91SAPC   H8R 8715   0.560   1.271   6.492  1.1391  0.8456  0.6530
   91SAPC   C29 8716   0.731   1.232   6.402  0.1223  0.3602  0.0411
   91SAPC   H9R 8717   0.707   1.127   6.423  2.0266  0.1775  1.6353
   91SAPC  C210 8718   0.871   1.258   6.358  0.0870  0.0762 -0.3449
   91SAPC  H10R 8719   0.889   1.367   6.361  1.7214 -0.1981  1.6690
   91SAPC  H10S 8720   0.881   1.227   6.252 -1.5592  0.7653 -0.7302
   91SAPC  C211 8721   0.974   1.197   6.453  0.2614 -0.3188 -0.4546
   91SAPC  H11R 8722   0.934   1.153   6.546  0.9487 -0.4085 -0.1964
   91SAPC  C212 8723   1.109   1.197   6.434  0.2136 -0.2971  0.0525
   91SAPC  H12R 8724   1.177   1.155   6.509  1.0683  3.0449  1.2852
   91SAPC  C213 8725   1.182   1.249   6.316 -0.0911 -0.9665  0.3411
   91SAPC  H13R 8726   1.222   1.347   6.349 -2.0054 -0.3409  0.9451
   91SAPC  H13S 8727   1.125   1.284   6.226  1.5955 -1.0152 -0.7959
   91SAPC  C214 8728   1.294   1.158   6.272  0.2310 -0.2377 -1.0866
   91SAPC  H14R 8729   1.313   1.071   6.337  0.4537  0.8217  0.3240
   91SAPC  C215 8730   1.382   1.179   6.176 -0.3942 -0.2998  0.7533
   91SAPC  H15R 8731   1.454   1.102   6.146 -0.9035  0.0287 -1.5424
   91SAPC  C216 8732   1.382   1.302   6.083  0.5431 -0.0793  0.0581
   91SAPC  H16R 8733   1.485   1.344   6.086 -0.4152  2.3752  2.5417
   91SAPC  H16S 8734   1.319   1.390   6.109  0.6361 -0.1179  0.4093
   91SAPC  C217 8735   1.332   1.274   5.942 -0.5843  0.5673 -0.1375
   91SAPC  H17R 8736   1.354   1.362   5.878 -0.6840  0.8136  0.1602
   91SAPC  H17S 8737   1.221   1.267   5.953 -0.6706  2.5989  0.9750
   91SAPC  C218 8738   1.393   1.149   5.870 -0.1564 -0.5215 -0.8940
   91SAPC  H18R 8739   1.350   1.059   5.918  1.7221 -2.0189 -1.8622
   91SAPC  H18S 8740   1.502   1.147   5.892 -0.1827 -1.4575 -0.7980
   91SAPC  C219 8741   1.357   1.142   5.720 -0.0258  1.1798 -0.1861
   91SAPC  H19R 8742   1.258   1.094   5.706  0.1368 -1.3500  5.1121
   91SAPC  H19S 8743   1.438   1.080   5.677  0.8206  3.1842 -1.6448
   91SAPC  C220 8744   1.352   1.272   5.645  0.0677 -0.4511 -0.3895
   91SAPC  H20R 8745   1.348   1.253   5.536  1.0971 -2.0374 -0.1928
   91SAPC  H20S 8746   1.447   1.329   5.653 -0.2907  0.1143 -0.0678
   91SAPC  H20T 8747   1.264   1.329   5.682  0.2194 -1.0788  1.0096
   91SAPC   C33 8748  -0.158   1.946   6.589  0.3604  0.8423  0.1706
   91SAPC   H3X 8749  -0.259   1.956   6.543  0.0931 -1.2892  0.1818
   91SAPC   H3Y 8750  -0.152   1.836   6.576 -2.1273  0.7132 -0.2666
   91SAPC   C34 8751  -0.046   2.017   6.504 -0.1710  0.0998 -1.1035
   91SAPC   H4X 8752   0.049   2.015   6.561  1.5263 -1.4356 -3.7954
   91SAPC   H4Y 8753  -0.068   2.126   6.513 -0.6960 -0.1588  1.9532
   91SAPC   C35 8754  -0.013   1.960   6.371 -0.1585 -0.1797 -0.1916
   91SAPC   H5X 8755   0.004   1.851   6.385  0.9991  0.0864  0.6420
   91SAPC   H5Y 8756   0.084   1.987   6.324  0.3672 -0.0131  0.9441
   91SAPC   C36 8757  -0.114   1.998   6.270  0.7140  0.8061 -0.3975
   91SAPC   H6X 8758  -0.103   2.103   6.234  3.3306  0.8882  0.4128
   91SAPC   H6Y 8759  -0.216   1.981   6.310  1.4580  1.2406  1.7953
   91SAPC   C37 8760  -0.105   1.909   6.147 -0.4428  0.0789 -0.1052
   91SAPC   H7X 8761  -0.151   1.810   6.170 -0.8779  0.0156 -1.1643
   91SAPC   H7Y 8762   0.000   1.886   6.119 -0.5107  0.5778 -0.8103
   91SAPC   C38 8763  -0.193   1.946   6.019  0.3060  0.1121  0.3269
   91SAPC   H8X 8764  -0.132   2.030   5.980 -0.3100  0.2276 -0.4167
   91SAPC   H8Y 8765  -0.290   1.990   6.050  0.1454 -0.2874  0.4023
   91SAPC   C39 8766  -0.207   1.837   5.917 -1.0023 -0.0337 -0.6024
   91SAPC   H9X 8767  -0.123   1.769   5.942 -0.9598  0.3033  0.1945
   91SAPC   H9Y 8768  -0.211   1.873   5.812  1.9323 -2.5973 -1.7702
   91SAPC  C310 8769  -0.329   1.751   5.946 -0.0650  0.4234 -0.1593
   91SAPC  H10X 8770  -0.416   1.817   5.929 -0.3528  0.0190 -0.2628
   91SAPC  H10Y 8771  -0.326   1.726   6.055  2.1732  1.4321  0.0612
   91SAPC  C311 8772  -0.344   1.631   5.852  0.6307  0.0247 -1.1843
   91SAPC  H11X 8773  -0.429   1.570   5.889  0.3745  0.5003 -0.9740
   91SAPC  H11Y 8774  -0.261   1.558   5.863  0.4948  0.2730  2.4478
   91SAPC  C312 8775  -0.358   1.672   5.711  0.0053 -0.0083  0.0993
   91SAPC  H12X 8776  -0.266   1.729   5.687 -0.3281  0.2194 -0.6653
   91SAPC  H12Y 8777  -0.434   1.746   5.678 -0.3752  0.0595  1.1041
   91SAPC  C313 8778  -0.376   1.549   5.619  0.0025  0.1782  0.2565
   91SAPC  H13X 8779  -0.470   1.500   5.651 -0.4507  0.9777  0.1947
   91SAPC  H13Y 8780  -0.286   1.486   5.635  0.0570  0.4541  1.0686
   91SAPC  C314 8781  -0.396   1.590   5.469 -0.3049 -0.4561 -0.8190
   91SAPC  H14X 8782  -0.296   1.619   5.429 -0.7779 -0.5351 -2.1064
   91SAPC  H14Y 8783  -0.462   1.677   5.452  0.7370  0.1634 -1.8756
   91SAPC  C315 8784  -0.437   1.474   5.376  0.6126  0.2243 -0.4086
   91SAPC  H15X 8785  -0.415   1.511   5.274 -0.5310  0.9751 -0.4054
   91SAPC  H15Y 8786  -0.544   1.451   5.397  1.3488 -2.3426  1.1085
   91SAPC  C316 8787  -0.353   1.348   5.402  0.4462 -0.4310 -0.4612
   91SAPC  H16X 8788  -0.378   1.299   5.498 -2.2449 -2.0371 -1.8682
   91SAPC  H16Y 8789  -0.250   1.390   5.397  1.0260 -1.8862 -1.1390
   91SAPC  C317 8790  -0.345   1.250   5.290 -0.5522  0.3935  0.0546
   91SAPC  H17X 8791  -0.321   1.300   5.194 -0.1284 -0.1236 -0.1121
   91SAPC  H17Y 8792  -0.447   1.211   5.266 -0.9097  1.9940 -1.2083
   91SAPC  C318 8793  -0.254   1.133   5.315  0.0343 -0.0738 -0.9932
   91SAPC  H18X 8794  -0.296   1.075   5.400 -0.6800  1.4441 -0.2623
   91SAPC  H18Y 8795  -0.160   1.179   5.352 -1.2605  0.6703  1.6131
   91SAPC  H18Z 8796  -0.236   1.067   5.227  2.7921 -0.2342 -0.3801
   92SAPC     N 8797   6.752   1.205   7.047  0.0351 -0.0948  0.4805
   92SAPC   C12 8798   6.873   1.274   6.991 -0.4470  0.1495 -0.4738
   92SAPC  H12A 8799   6.959   1.216   7.021 -0.7600 -3.0771 -4.8822
   92SAPC  H12B 8800   6.890   1.367   7.044 -0.0280  1.0207 -2.0787
   92SAPC   C13 8801   6.621   1.275   7.014 -1.1479 -0.1199 -0.2186
   92SAPC  H13A 8802   6.623   1.382   7.031 -1.2974 -0.2263  0.4716
   92SAPC  H13B 8803   6.590   1.252   6.913  0.0262 -0.3066 -0.5564
   92SAPC  H13C 8804   6.549   1.230   7.081 -1.7056  1.3150  0.1950
   92SAPC   C14 8805   6.735   1.071   6.995  0.3816 -0.0495 -0.0457
   92SAPC  H14A 8806   6.756   1.065   6.889  2.6056  1.8789  0.1952
   92SAPC  H14B 8807   6.816   1.011   7.034  1.3731  0.1399 -1.7061
   92SAPC  H14C 8808   6.641   1.028   7.026 -1.5623  2.3863 -2.1093
   92SAPC   C15 8809   6.766   1.201   7.196  0.3263 -0.0287 -0.4547
   92SAPC  H15A 8810   6.670   1.171   7.235  1.0060 -0.9906  0.5725
   92SAPC  H15B 8811   6.820   1.119   7.241 -1.3784  0.6710  3.3295
   92SAPC  H15C 8812   6.798   1.290   7.248  0.7896 -0.0192 -0.7528
   92SAPC   C11 8813   6.878   1.298   6.842  0.1989  0.5769 -0.1845
   92SAPC  H11A 8814   6.966   1.363   6.824  1.1999 -1.1158 -1.6935
   92SAPC  H11B 8815   6.797   1.356   6.793 -2.1052 -1.1384  1.3573
   92SAPC     P 8816   7.048   1.110   6.781 -0.1564 -0.0532  0.2091
   92SAPC   O13 8817   7.117   1.167   6.897  0.2647 -0.1983 -0.0412
   92SAPC   O14 8818   7.039   0.960   6.776 -0.3216 -0.2007 -0.3446
   92SAPC   O12 8819   6.899   1.173   6.765 -0.3616  0.2209 -0.3068
   92SAPC   O11 8820   7.126   1.163   6.656 -0.0348 -0.1140  0.4359
   92SAPC    C1 8821   7.049   1.196   6.540 -0.2239 -0.6019  0.0625
   92SAPC    HA 8822   6.958   1.254   6.565  0.0568 -1.1095  2.5038
   92SAPC    HB 8823   7.111   1.250   6.465  0.2186 -0.8276  0.2613
   92SAPC    C2 8824   7.014   1.072   6.458  0.3236  0.4677 -0.5046
   92SAPC    HS 8825   6.964   0.995   6.521 -0.4115  2.2170  1.1999
   92SAPC   O21 8826   7.135   1.011   6.401 -0.1851  0.0749  0.0350
   92SAPC   C21 8827   7.156   0.886   6.403  0.8355  0.5483 -0.8123
   92SAPC   O22 8828   7.084   0.800   6.456 -0.2846  0.1174 -0.1670
   92SAPC   C22 8829   7.288   0.850   6.331 -0.0436  0.5615 -0.4971
   92SAPC   H2R 8830   7.374   0.858   6.401  1.4004 -0.4603 -2.0938
   92SAPC   H2S 8831   7.279   0.742   6.307 -3.9352  0.5653  0.2351
   92SAPC    C3 8832   6.915   1.111   6.341  0.2816 -0.3459 -0.0218
   92SAPC    HX 8833   6.967   1.177   6.268 -1.3660  1.7953  0.6223
   92SAPC    HY 8834   6.823   1.156   6.385  1.9961  0.5724  2.8727
   92SAPC   O31 8835   6.886   0.995   6.265  0.4348  0.0353  0.5388
   92SAPC   C31 8836   6.788   0.910   6.317 -0.1061 -0.4677 -0.5620
   92SAPC   O32 8837   6.737   0.933   6.422 -0.2580  0.1203 -0.9111
   92SAPC   C32 8838   6.770   0.789   6.225 -0.3100  0.2498 -0.1758
   92SAPC   H2X 8839   6.858   0.723   6.239  0.2720  0.8450 -0.9268
   92SAPC   H2Y 8840   6.769   0.830   6.122  1.3151 -1.7275 -1.0474
   92SAPC   C23 8841   7.314   0.929   6.211 -0.2925 -0.3543  1.4783
   92SAPC   H3R 8842   7.417   0.907   6.175 -0.1980  3.2051 -0.9024
   92SAPC   H3S 8843   7.314   1.038   6.233  2.0257  0.0386 -0.0386
   92SAPC   C24 8844   7.213   0.903   6.097  0.1266 -0.3789  0.2526
   92SAPC   H4R 8845   7.119   0.935   6.147 -0.9555 -2.9262  0.0195
   92SAPC   H4S 8846   7.205   0.795   6.070  0.8073 -0.4645  0.3890
   92SAPC   C25 8847   7.221   0.991   5.981  0.1858 -0.1038  0.1924
   92SAPC   H5R 8848   7.321   1.024   5.948 -0.0755 -0.2684 -0.7935
   92SAPC   C26 8849   7.125   1.004   5.888 -1.1420  0.2421  0.1125
   92SAPC   H6R 8850   7.154   1.058   5.797  1.5959 -1.0116  0.1386
   92SAPC   C27 8851   6.993   0.936   5.894 -0.0885  0.1705  0.9404
   92SAPC   H7R 8852   6.915   1.014   5.907  1.9377  2.5114 -0.2407
   92SAPC   H7S 8853   6.995   0.869   5.983  2.4057 -1.8026 -0.4717
   92SAPC   C28 8854   6.976   0.852   5.765 -0.7564 -0.3523  0.4321
   92SAPC   H8R 8855   7.072   0.817   5.725 -0.4993  2.0498 -1.2121
   92SAPC   C29 8856   6.860   0.835   5.694  0.1539  0.1056  0.0361
   92SAPC   H9R 8857   6.862   0.779   5.599 -0.8866  0.5254 -0.2451
   92SAPC  C210 8858   6.725   0.880   5.735  0.2353  0.5541  0.4359
   92SAPC  H10R 8859   6.695   0.856   5.839 -0.2496 -0.2375  0.1225
   92SAPC  H10S 8860   6.660   0.824   5.664  1.2127 -0.4567  0.3163
   92SAPC  C211 8861   6.707   1.029   5.698  0.0296  0.8196 -0.7958
   92SAPC  H11R 8862   6.773   1.062   5.617  0.7094  0.3919 -0.4277
   92SAPC  C212 8863   6.632   1.116   5.767 -0.0886 -0.0491  0.4395
   92SAPC  H12R 8864   6.621   1.222   5.739  0.5194 -0.4116 -1.3433
   92SAPC  C213 8865   6.548   1.080   5.896 -0.6047 -0.1833 -0.7714
   92SAPC  H13R 8866   6.618   1.084   5.982 -0.9466 -2.1270 -0.3717
   92SAPC  H13S 8867   6.517   0.974   5.888  1.1228 -0.8589  0.6414
   92SAPC  C214 8868   6.434   1.173   5.919 -0.2791 -0.7444  0.4707
   92SAPC  H14R 8869   6.363   1.156   5.838  0.9450 -0.2820 -0.7411
   92SAPC  C215 8870   6.427   1.281   6.002  0.0605 -0.0635  0.0209
   92SAPC  H15R 8871   6.338   1.342   5.981  1.0070  1.5244  0.4932
   92SAPC  C216 8872   6.529   1.329   6.101 -0.8281  0.4327 -0.5013
   92SAPC  H16R 8873   6.514   1.435   6.128  1.2904  0.4144  0.9270
   92SAPC  H16S 8874   6.629   1.322   6.053 -0.4189  0.2630  0.3729
   92SAPC  C217 8875   6.555   1.238   6.228  0.5240  0.1426  0.3889
   92SAPC  H17R 8876   6.629   1.279   6.300 -1.7249  1.0264  2.3561
   92SAPC  H17S 8877   6.575   1.135   6.192 -0.6809 -0.0481  0.2227
   92SAPC  C218 8878   6.422   1.249   6.304 -0.2366  0.2412 -0.0938
   92SAPC  H18R 8879   6.339   1.210   6.241  0.4829 -0.7626 -0.4329
   92SAPC  H18S 8880   6.399   1.355   6.330 -2.1223  0.5204 -2.4921
   92SAPC  C219 8881   6.421   1.165   6.433 -0.3419 -0.2262  0.7740
   92SAPC  H19R 8882   6.496   1.213   6.500  0.9066  0.6119 -1.1386
   92SAPC  H19S 8883   6.457   1.065   6.400  0.5096 -0.3691  2.0559
   92SAPC  C220 8884   6.287   1.174   6.510  0.2860  0.1213 -0.7319
   92SAPC  H20R 8885   6.258   1.279   6.529 -0.2290 -0.4824  2.4171
   92SAPC  H20S 8886   6.293   1.116   6.606  0.7571 -1.1473 -1.4984
   92SAPC  H20T 8887   6.211   1.125   6.445 -0.8676  1.0408 -0.1152
   92SAPC   C33 8888   6.641   0.712   6.251  0.1099 -0.1791 -0.1493
   92SAPC   H3X 8889   6.557   0.782   6.235  0.5381  0.2965 -0.3480
   92SAPC   H3Y 8890   6.637   0.662   6.350 -2.2499 -1.9390 -1.0317
   92SAPC   C34 8891   6.628   0.590   6.158 -0.5554 -0.0790 -0.2268
   92SAPC   H4X 8892   6.527   0.548   6.174 -1.4647  1.0935 -2.4912
   92SAPC   H4Y 8893   6.708   0.518   6.184 -0.9633 -0.9809 -1.4041
   92SAPC   C35 8894   6.637   0.628   6.009  0.2249 -0.7438 -0.2240
   92SAPC   H5X 8895   6.732   0.686   5.997  0.6752 -1.5565 -0.6777
   92SAPC   H5Y 8896   6.554   0.699   5.987  0.5095  0.8025  3.0866
   92SAPC   C36 8897   6.630   0.500   5.930 -0.5584 -0.5442  0.6805
   92SAPC   H6X 8898   6.537   0.442   5.947  1.0024 -2.7116  2.2104
   92SAPC   H6Y 8899   6.720   0.438   5.944  1.3762  1.5088 -1.7127
   92SAPC   C37 8900   6.644   0.531   5.782 -0.0299 -0.0864  0.4434
   92SAPC   H7X 8901   6.750   0.557   5.761  0.1080 -1.5174 -0.7774
   92SAPC   H7Y 8902   6.581   0.615   5.744 -1.0577 -1.3521 -0.7338
   92SAPC   C38 8903   6.611   0.417   5.683  0.2430 -0.9068 -0.1538
   92SAPC   H8X 8904   6.506   0.402   5.715  0.6156  0.1358  1.7037
   92SAPC   H8Y 8905   6.673   0.325   5.699 -0.6310 -1.2904  1.1517
   92SAPC   C39 8906   6.620   0.448   5.533  0.3719  0.3950  0.1913
   92SAPC   H9X 8907   6.721   0.479   5.499  0.2810  0.5084  0.0247
   92SAPC   H9Y 8908   6.555   0.534   5.508  2.3471  1.7458 -0.5968
   92SAPC  C310 8909   6.576   0.328   5.442 -0.1053  0.0286  0.3780
   92SAPC  H10X 8910   6.471   0.309   5.472  1.4264 -3.8924  4.5383
   92SAPC  H10Y 8911   6.635   0.240   5.475  0.6676  0.4332  0.0937
   92SAPC  C311 8912   6.605   0.369   5.298 -0.6630  0.3104 -0.1753
   92SAPC  H11X 8913   6.702   0.421   5.283 -0.2102 -1.0670 -2.3894
   92SAPC  H11Y 8914   6.517   0.431   5.273 -1.7740 -0.2742  2.0099
   92SAPC  C312 8915   6.576   0.261   5.186 -0.0748 -0.0987 -0.1717
   92SAPC  H12X 8916   6.479   0.212   5.212  0.1973 -1.0159 -0.8423
   92SAPC  H12Y 8917   6.653   0.182   5.194  1.2321  1.0264 -1.0619
   92SAPC  C313 8918   6.578   0.321   5.043 -0.0779  0.4466 -0.7751
   92SAPC  H13X 8919   6.674   0.373   5.021  1.2794 -1.4730  0.2636
   92SAPC  H13Y 8920   6.507   0.406   5.043  0.2686  0.7486 -0.0869
   92SAPC  C314 8921   6.555   0.215   4.932 -0.4384 -0.7584  0.2739
   92SAPC  H14X 8922   6.467   0.148   4.939 -0.8683 -0.3098 -0.6429
   92SAPC  H14Y 8923   6.646   0.153   4.948 -0.6174 -1.2560 -0.5425
   92SAPC  C315 8924   6.573   0.289   4.797 -0.1557 -0.2556 -0.4099
   92SAPC  H15X 8925   6.678   0.327   4.791 -0.4734  1.0659  1.5806
   92SAPC  H15Y 8926   6.507   0.378   4.795  0.1114 -0.0595 -1.6786
   92SAPC  C316 8927   6.529   0.196   4.678 -0.7554  0.0348 -0.4729
   92SAPC  H16X 8928   6.420   0.179   4.691 -1.0097  0.5587 -1.7704
   92SAPC  H16Y 8929   6.579   0.098   4.691 -3.2362 -1.4781 -1.5404
   92SAPC  C317 8930   6.530   0.254   4.542  0.2728  0.0230  0.0669
   92SAPC  H17X 8931   6.617   0.324   4.544  0.4627 -0.0491  4.2592
   92SAPC  H17Y 8932   6.440   0.317   4.525 -0.1863 -0.9041 -0.9976
   92SAPC  C318 8933   6.549   0.146   4.438  0.2021 -0.1980 -0.0895
   92SAPC  H18X 8934   6.478   0.159   4.354  1.9807  1.9176 -1.3655
   92SAPC  H18Y 8935   6.537   0.045   4.483 -0.1064 -0.2442 -0.2737
   92SAPC  H18Z 8936   6.653   0.138   4.400  0.7777 -0.1286  1.3775
   93SAPC     N 8937   2.661   2.656   7.409 -0.7468  0.2487  0.2812
   93SAPC   C12 8938   2.573   2.532   7.423  0.2667  0.2433 -0.2644
   93SAPC  H12A 8939   2.471   2.560   7.445  0.3995  0.0608  0.5963
   93SAPC  H12B 8940   2.611   2.471   7.503  1.9259 -1.3382 -2.1282
   93SAPC   C13 8941   2.601   2.741   7.307  0.2469 -1.2996 -0.1063
   93SAPC  H13A 8942   2.662   2.828   7.290  0.7975 -1.5757  0.4048
   93SAPC  H13B 8943   2.591   2.688   7.214 -1.0275  0.9559 -1.3426
   93SAPC  H13C 8944   2.505   2.780   7.336 -0.9385 -2.4873 -2.1901
   93SAPC   C14 8945   2.678   2.737   7.540 -0.3346  0.3374 -0.0449
   93SAPC  H14A 8946   2.585   2.788   7.562 -0.9553 -0.1787 -1.4000
   93SAPC  H14B 8947   2.715   2.670   7.616 -0.7228 -2.2038 -1.9603
   93SAPC  H14C 8948   2.756   2.809   7.520  2.2607 -2.5155 -0.9455
   93SAPC   C15 8949   2.795   2.620   7.360 -0.4576 -0.6915 -0.0049
   93SAPC  H15A 8950   2.848   2.708   7.327 -2.6272  1.6258  2.2462
   93SAPC  H15B 8951   2.850   2.571   7.439 -1.8725  0.3935  1.7468
   93SAPC  H15C 8952   2.805   2.561   7.270 -0.0645 -1.9334  0.8337
   93SAPC   C11 8953   2.564   2.435   7.302 -0.4414  0.0707 -0.3733
   93SAPC  H11A 8954   2.481   2.362   7.315  0.0011 -0.4924 -0.6709
   93SAPC  H11B 8955   2.652   2.370   7.322  0.3021  1.4899  1.1881
   93SAPC     P 8956   2.630   2.453   7.050  0.2216  0.3465  0.0532
   93SAPC   O13 8957   2.767   2.423   7.079  0.0595  0.0916 -0.1376
   93SAPC   O14 8958   2.553   2.348   6.985 -0.3046 -0.1687 -0.3240
   93SAPC   O12 8959   2.552   2.503   7.182 -0.1014  0.3690  0.2565
   93SAPC   O11 8960   2.634   2.590   6.972  0.3380  0.1697  0.6477
   93SAPC    C1 8961   2.543   2.635   6.868 -0.0107  0.0453 -0.5553
   93SAPC    HA 8962   2.442   2.594   6.888 -0.3262  2.0606  2.7316
   93SAPC    HB 8963   2.532   2.744   6.887  1.4674  0.1401 -0.0785
   93SAPC    C2 8964   2.599   2.618   6.720 -0.1547 -0.3392 -0.8594
   93SAPC    HS 8965   2.537   2.676   6.649 -0.5434  0.8450  0.4198
   93SAPC   O21 8966   2.611   2.481   6.674  0.4279  0.0742  0.5211
   93SAPC   C21 8967   2.492   2.416   6.669 -0.4553 -0.4421 -0.3196
   93SAPC   O22 8968   2.383   2.467   6.674 -0.1909 -0.4265  0.5166
   93SAPC   C22 8969   2.516   2.266   6.658 -0.6013 -0.1990 -0.3327
   93SAPC   H2R 8970   2.549   2.225   6.757  0.4836 -1.5723 -1.2229
   93SAPC   H2S 8971   2.417   2.217   6.641  0.4394 -2.3992 -0.4186
   93SAPC    C3 8972   2.741   2.680   6.692  0.5118  0.5940  0.1165
   93SAPC    HX 8973   2.811   2.620   6.753 -0.5465 -2.3701 -1.3965
   93SAPC    HY 8974   2.740   2.784   6.731  1.0369  0.6729 -0.0701
   93SAPC   O31 8975   2.766   2.675   6.548  0.0339 -0.0612  0.0110
   93SAPC   C31 8976   2.831   2.578   6.499 -0.5058 -0.0087 -0.1748
   93SAPC   O32 8977   2.903   2.495   6.558 -0.5057 -0.3985 -0.2681
   93SAPC   C32 8978   2.816   2.570   6.348  0.4682 -0.2492 -0.5240
   93SAPC   H2X 8979   2.756   2.657   6.314  0.4423  0.2598  0.7860
   93SAPC   H2Y 8980   2.744   2.492   6.316 -0.4397  0.0449  0.7682
   93SAPC   C23 8981   2.620   2.233   6.547  0.3728  0.1422  0.4193
   93SAPC   H3R 8982   2.631   2.122   6.554 -1.4636 -0.1632 -0.6986
   93SAPC   H3S 8983   2.713   2.291   6.564 -1.6601  3.9762 -0.3428
   93SAPC   C24 8984   2.570   2.252   6.407 -0.4010  0.0763  1.1373
   93SAPC   H4R 8985   2.553   2.360   6.387 -1.0905  0.1248  1.9600
   93SAPC   H4S 8986   2.473   2.198   6.396  0.4694 -1.1330 -1.5649
   93SAPC   C25 8987   2.668   2.207   6.300  0.6854  0.1370  0.1295
   93SAPC   H5R 8988   2.768   2.251   6.311  1.7696 -1.1462 -3.2082
   93SAPC   C26 8989   2.651   2.127   6.198 -0.1400 -0.1050  0.7062
   93SAPC   H6R 8990   2.730   2.133   6.122 -0.0230  0.7713  0.8936
   93SAPC   C27 8991   2.519   2.054   6.173  0.1969 -0.2557 -0.2568
   93SAPC   H7R 8992   2.440   2.131   6.163  0.5920  0.0371 -1.2777
   93SAPC   H7S 8993   2.499   1.996   6.266 -0.0434  1.3898  0.7585
   93SAPC   C28 8994   2.526   1.962   6.051 -0.2957 -0.2522  0.0491
   93SAPC   H8R 8995   2.569   1.864   6.077  0.1953 -0.4568 -1.4254
   93SAPC   C29 8996   2.470   1.974   5.931 -0.2858 -1.0953  0.2235
   93SAPC   H9R 8997   2.483   1.899   5.851 -0.9880 -2.0158  0.9545
   93SAPC  C210 8998   2.398   2.102   5.879 -0.1388  0.2345  0.8561
   93SAPC  H10R 8999   2.438   2.189   5.934 -0.0088  0.1648  0.8730
   93SAPC  H10S 9000   2.292   2.114   5.908  0.0769  1.5310  1.1644
   93SAPC  C211 9001   2.412   2.125   5.729 -0.3771  0.0812 -0.5381
   93SAPC  H11R 9002   2.365   2.039   5.679 -2.8100 -0.6097  2.6635
   93SAPC  C212 9003   2.472   2.214   5.657 -0.3052 -0.1118  0.2815
   93SAPC  H12R 9004   2.462   2.212   5.548  0.3769 -0.1594  0.2108
   93SAPC  C213 9005   2.541   2.345   5.705  0.6732  1.0011  0.6470
   93SAPC  H13R 9006   2.643   2.362   5.666  1.7724 -1.2076  2.3592
   93SAPC  H13S 9007   2.556   2.331   5.814 -1.3569 -3.3268  0.6048
   93SAPC  C214 9008   2.459   2.466   5.682  0.2944 -0.1073  0.1177
   93SAPC  H14R 9009   2.402   2.491   5.773  1.3661  2.1151  0.2505
   93SAPC  C215 9010   2.440   2.534   5.562  0.2178 -0.1496 -0.3419
   93SAPC  H15R 9011   2.377   2.625   5.559 -0.5283 -0.6432  0.0426
   93SAPC  C216 9012   2.519   2.497   5.437  0.0521 -1.0641 -0.1814
   93SAPC  H16R 9013   2.529   2.387   5.436 -0.5363 -1.1808  1.9257
   93SAPC  H16S 9014   2.619   2.545   5.444  0.2078 -1.3105 -0.7320
   93SAPC  C217 9015   2.461   2.535   5.300  0.6519 -0.0544  0.1948
   93SAPC  H17R 9016   2.370   2.479   5.269 -0.1810  0.8918  0.8657
   93SAPC  H17S 9017   2.536   2.521   5.219  1.0327 -0.7941  0.6566
   93SAPC  C218 9018   2.420   2.682   5.295 -0.4655 -0.8183 -0.5709
   93SAPC  H18R 9019   2.499   2.745   5.342  0.3848 -2.7273  0.6709
   93SAPC  H18S 9020   2.330   2.683   5.359  0.4302  0.0821  0.7401
   93SAPC  C219 9021   2.407   2.726   5.149  0.7985 -0.9294  0.0105
   93SAPC  H19R 9022   2.319   2.665   5.120 -1.4585  0.4772  3.2308
   93SAPC  H19S 9023   2.500   2.693   5.100  1.0363  0.0696 -0.2365
   93SAPC  C220 9024   2.391   2.873   5.126 -0.0383  0.3917  0.1088
   93SAPC  H20R 9025   2.382   2.894   5.017  2.6354 -0.7336 -0.3949
   93SAPC  H20S 9026   2.471   2.929   5.178  0.3507 -1.6904  1.8894
   93SAPC  H20T 9027   2.295   2.915   5.165  0.9192  0.4347  2.5643
   93SAPC   C33 9028   2.949   2.564   6.276 -0.3352 -0.2862  0.1718
   93SAPC   H3X 9029   3.029   2.500   6.318  1.4148 -0.2720 -2.8059
   93SAPC   H3Y 9030   2.998   2.662   6.257 -1.9617  0.2453 -1.6525
   93SAPC   C34 9031   2.937   2.499   6.130 -0.2992  0.3387  0.6427
   93SAPC   H4X 9032   2.868   2.413   6.145  0.0859  0.1615  1.4498
   93SAPC   H4Y 9033   3.036   2.463   6.095 -1.6783 -2.8596 -0.3665
   93SAPC   C35 9034   2.880   2.596   6.020  0.4683 -0.4722 -0.0973
   93SAPC   H5X 9035   2.948   2.684   6.017  0.8174 -0.7620 -0.8156
   93SAPC   H5Y 9036   2.776   2.625   6.044  0.5439  0.1641 -0.5155
   93SAPC   C36 9037   2.865   2.526   5.889  0.1920 -0.4767  0.1596
   93SAPC   H6X 9038   2.807   2.594   5.823  0.2465 -0.1322  0.4626
   93SAPC   H6Y 9039   2.802   2.436   5.903 -0.2076 -0.5617 -1.8183
   93SAPC   C37 9040   2.990   2.483   5.816 -0.7703  0.1031  0.6629
   93SAPC   H7X 9041   2.968   2.408   5.737  0.0568  0.7528 -0.2116
   93SAPC   H7Y 9042   3.055   2.424   5.884  2.6106  3.3593  0.5882
   93SAPC   C38 9043   3.075   2.602   5.764 -0.2432  0.6729  0.2582
   93SAPC   H8X 9044   3.163   2.559   5.712 -0.3237 -0.6581  1.1614
   93SAPC   H8Y 9045   3.114   2.668   5.844 -0.7430 -0.6576  1.6515
   93SAPC   C39 9046   3.011   2.705   5.675  0.4596 -0.0318 -0.6965
   93SAPC   H9X 9047   3.097   2.761   5.632 -0.5025  1.9812 -0.1434
   93SAPC   H9Y 9048   2.939   2.771   5.728  2.1825 -0.2318  2.0310
   93SAPC  C310 9049   2.931   2.659   5.545 -0.2578  0.6311 -0.4595
   93SAPC  H10X 9050   2.871   2.745   5.509 -0.0742  0.4926 -1.1148
   93SAPC  H10Y 9051   2.850   2.593   5.583  0.4303 -0.9101 -1.5632
   93SAPC  C311 9052   3.010   2.582   5.438 -0.3077  0.5577 -0.1000
   93SAPC  H11X 9053   3.060   2.498   5.491 -1.2728 -0.3734 -0.6002
   93SAPC  H11Y 9054   3.087   2.649   5.395  1.3059 -0.2258  1.4611
   93SAPC  C312 9055   2.925   2.508   5.328  0.1887 -0.4511 -0.0135
   93SAPC  H12X 9056   2.871   2.430   5.386 -1.4607  0.5788 -0.0954
   93SAPC  H12Y 9057   2.984   2.449   5.254  0.4198  1.3425 -1.3178
   93SAPC  C313 9058   2.840   2.605   5.243 -0.5296 -0.0314  0.2150
   93SAPC  H13X 9059   2.787   2.675   5.311  0.3289  0.4103  0.4434
   93SAPC  H13Y 9060   2.760   2.548   5.190  0.4863 -1.7172  0.4235
   93SAPC  C314 9061   2.918   2.679   5.124 -0.3275 -0.6792  0.1689
   93SAPC  H14X 9062   2.924   2.603   5.043 -0.7528 -0.7996  0.2499
   93SAPC  H14Y 9063   3.019   2.688   5.170 -0.3827 -1.2736  0.4264
   93SAPC  C315 9064   2.840   2.799   5.089  0.0026 -0.5522 -0.1153
   93SAPC  H15X 9065   2.845   2.865   5.178 -2.3937  0.3194 -0.5684
   93SAPC  H15Y 9066   2.733   2.776   5.070 -0.9954  2.2592  1.6041
   93SAPC  C316 9067   2.886   2.883   4.969 -0.0547  0.3850 -0.1009
   93SAPC  H16X 9068   2.878   2.814   4.882 -1.1544  0.9887 -0.5000
   93SAPC  H16Y 9069   2.993   2.915   4.973  0.2718 -0.5256 -0.9560
   93SAPC  C317 9070   2.780   2.989   4.935  0.7767  0.3773 -0.3841
   93SAPC  H17X 9071   2.782   3.078   5.002  0.6273  0.3936 -0.4016
   93SAPC  H17Y 9072   2.681   2.938   4.937  1.7047 -1.6149  3.4101
   93SAPC  C318 9073   2.806   3.054   4.796 -0.9319 -0.0903  0.2094
   93SAPC  H18X 9074   2.915   3.061   4.778 -0.1882 -3.4773  2.4116
   93SAPC  H18Y 9075   2.757   3.153   4.795 -1.9447 -0.5843 -0.6721
   93SAPC  H18Z 9076   2.749   2.999   4.718 -0.9442  0.3582 -0.0996
   94SAPC     N 9077   6.693   2.403   7.754  0.1468  0.1291  0.3371
   94SAPC   C12 9078   6.768   2.389   7.622  0.1322  0.2080 -0.5808
   94SAPC  H12A 9079   6.788   2.286   7.594 -0.2059  0.5322 -2.1367
   94SAPC  H12B 9080   6.862   2.435   7.646 -1.0054  2.2129  0.2773
   94SAPC   C13 9081   6.780   2.347   7.859 -0.5550  0.5698 -0.3126
   94SAPC  H13A 9082   6.792   2.242   7.840  1.1890  1.1153 -2.6621
   94SAPC  H13B 9083   6.875   2.398   7.859 -0.2498  0.0378  1.1134
   94SAPC  H13C 9084   6.733   2.359   7.956 -0.1867 -0.1739 -0.0362
   94SAPC   C14 9085   6.669   2.546   7.771 -0.3512  0.2941 -0.6921
   94SAPC  H14A 9086   6.602   2.577   7.692 -0.2215 -0.1435 -0.9793
   94SAPC  H14B 9087   6.629   2.561   7.870  1.4723 -0.3135  0.1833
   94SAPC  H14C 9088   6.758   2.607   7.772 -0.6481  0.7429 -1.2982
   94SAPC   C15 9089   6.558   2.342   7.750 -0.2513 -0.5897  0.2933
   94SAPC  H15A 9090   6.513   2.378   7.658  3.7882  0.3320 -1.5345
   94SAPC  H15B 9091   6.562   2.235   7.736  1.2389 -0.2336 -3.0450
   94SAPC  H15C 9092   6.501   2.362   7.840  0.1683 -0.1418  0.4620
   94SAPC   C11 9093   6.704   2.455   7.488 -0.1382 -0.6223 -0.0155
   94SAPC  H11A 9094   6.775   2.460   7.402 -1.3697 -2.1709 -1.1945
   94SAPC  H11B 9095   6.681   2.560   7.518 -2.3422 -0.9883 -0.2547
   94SAPC     P 9096   6.591   2.285   7.338  0.1053  0.0386 -0.0290
   94SAPC   O13 9097   6.700   2.197   7.376  0.2258 -0.4825 -0.1795
   94SAPC   O14 9098   6.463   2.217   7.323  0.1432  0.2943  0.3827
   94SAPC   O12 9099   6.577   2.397   7.450 -0.1564  0.1358 -0.4077
   94SAPC   O11 9100   6.627   2.364   7.207 -0.4156 -0.2286 -0.7045
   94SAPC    C1 9101   6.600   2.499   7.174 -0.0362 -0.1248 -0.3990
   94SAPC    HA 9102   6.491   2.501   7.156 -0.0794  0.6899 -0.1248
   94SAPC    HB 9103   6.618   2.558   7.266  0.9858  1.7041 -1.7062
   94SAPC    C2 9104   6.677   2.555   7.045  0.4796 -0.1762  0.3720
   94SAPC    HS 9105   6.638   2.657   7.023  0.9890  0.0981  0.7423
   94SAPC   O21 9106   6.652   2.466   6.934  0.9422  0.3013  0.1744
   94SAPC   C21 9107   6.544   2.499   6.864 -0.3107 -0.1295  0.0364
   94SAPC   O22 9108   6.473   2.602   6.881  0.0838  0.3130 -0.2551
   94SAPC   C22 9109   6.527   2.394   6.758 -0.2060 -0.2588  0.7365
   94SAPC   H2R 9110   6.524   2.445   6.659  0.9281 -1.7880 -0.1306
   94SAPC   H2S 9111   6.617   2.329   6.761 -1.4530 -1.9873  2.7434
   94SAPC    C3 9112   6.825   2.578   7.077  0.4485  0.9042  0.5115
   94SAPC    HX 9113   6.869   2.480   7.107 -1.5478  0.2848  1.5735
   94SAPC    HY 9114   6.833   2.642   7.168 -0.4738  0.6963  0.7465
   94SAPC   O31 9115   6.907   2.642   6.972  0.3672  0.0349  1.0220
   94SAPC   C31 9116   7.028   2.680   7.013  0.4012 -0.4337  0.1918
   94SAPC   O32 9117   7.078   2.652   7.117  0.2063  0.3343 -0.5291
   94SAPC   C32 9118   7.091   2.778   6.901 -0.1854  0.4747 -0.1954
   94SAPC   H2X 9119   7.069   2.879   6.942 -0.6436 -0.5102  2.1523
   94SAPC   H2Y 9120   7.025   2.761   6.813 -0.2228  0.4695 -0.1661
   94SAPC   C23 9121   6.412   2.293   6.777 -0.3725  0.1320  0.3844
   94SAPC   H3R 9122   6.336   2.341   6.842 -2.1299 -2.2209  0.2201
   94SAPC   H3S 9123   6.451   2.208   6.836  0.1532 -0.3062 -0.5705
   94SAPC   C24 9124   6.357   2.248   6.644  0.1627 -0.1946 -0.2983
   94SAPC   H4R 9125   6.284   2.322   6.606  0.0303 -0.4246 -0.4983
   94SAPC   H4S 9126   6.287   2.168   6.676  2.0730 -0.7192  2.9187
   94SAPC   C25 9127   6.449   2.189   6.540 -0.2155  0.3849  0.2120
   94SAPC   H5R 9128   6.541   2.147   6.585  0.6391  0.3304 -1.5177
   94SAPC   C26 9129   6.456   2.218   6.409  0.0211 -0.2650 -0.0817
   94SAPC   H6R 9130   6.525   2.151   6.356  0.0810 -1.5434  1.5465
   94SAPC   C27 9131   6.348   2.287   6.328  0.4652 -0.9682  0.2725
   94SAPC   H7R 9132   6.389   2.382   6.288 -2.9517  1.9078  2.9562
   94SAPC   H7S 9133   6.268   2.323   6.396  3.4818  2.1187  2.5424
   94SAPC   C28 9134   6.295   2.208   6.215  0.9349  0.0160 -0.0813
   94SAPC   H8R 9135   6.208   2.147   6.244 -0.0334  1.2972 -0.1928
   94SAPC   C29 9136   6.343   2.198   6.089 -0.7639  0.1345 -0.1082
   94SAPC   H9R 9137   6.278   2.149   6.014 -2.0457 -0.4826  1.3482
   94SAPC  C210 9138   6.456   2.270   6.038 -0.1010  1.1173 -0.1184
   94SAPC  H10R 9139   6.540   2.199   6.022  0.2138  1.4731 -0.0829
   94SAPC  H10S 9140   6.498   2.341   6.113 -2.6127 -0.3498  2.8735
   94SAPC  C211 9141   6.418   2.341   5.911 -0.0871 -0.0900  0.2286
   94SAPC  H11R 9142   6.366   2.438   5.920  2.0247  1.0328  0.7972
   94SAPC  C212 9143   6.441   2.291   5.784  0.7139 -0.0015 -0.0278
   94SAPC  H12R 9144   6.410   2.351   5.697  0.7866  0.8336  0.5052
   94SAPC  C213 9145   6.515   2.163   5.746 -1.0042 -0.7359 -0.1825
   94SAPC  H13R 9146   6.558   2.117   5.837 -0.3833 -0.9047 -0.5612
   94SAPC  H13S 9147   6.600   2.188   5.680  0.8962 -0.5708  2.1995
   94SAPC  C214 9148   6.430   2.051   5.685  1.0312 -0.3554  0.1839
   94SAPC  H14R 9149   6.440   1.958   5.744  0.2600  0.7900  2.2117
   94SAPC  C215 9150   6.355   2.048   5.575  0.9883  0.8650  0.3650
   94SAPC  H15R 9151   6.302   1.955   5.549  1.3687  0.7028  0.1549
   94SAPC  C216 9152   6.336   2.164   5.477  0.0815  0.7363 -0.2881
   94SAPC  H16R 9153   6.322   2.259   5.533  0.0025  0.5540  0.0016
   94SAPC  H16S 9154   6.243   2.160   5.417 -0.8893  0.2467  1.2042
   94SAPC  C217 9155   6.455   2.174   5.378 -0.6020  0.1759  0.7219
   94SAPC  H17R 9156   6.548   2.175   5.439 -1.3553  0.1480  1.8815
   94SAPC  H17S 9157   6.443   2.271   5.325 -0.9669 -0.2949 -0.0756
   94SAPC  C218 9158   6.462   2.055   5.273 -0.9525 -0.1653  0.5658
   94SAPC  H18R 9159   6.358   2.036   5.240 -1.4469  1.6557  0.9448
   94SAPC  H18S 9160   6.502   1.964   5.322 -2.3484 -0.8970  0.3891
   94SAPC  C219 9161   6.543   2.085   5.144  1.0294 -0.1413  0.0100
   94SAPC  H19R 9162   6.473   2.146   5.083 -0.9489 -1.0681  1.2503
   94SAPC  H19S 9163   6.565   1.991   5.090  0.0524 -0.3169 -0.0990
   94SAPC  C220 9164   6.671   2.161   5.147 -0.2333 -0.2407 -0.9311
   94SAPC  H20R 9165   6.738   2.101   5.213 -2.0146 -0.9954  0.2871
   94SAPC  H20S 9166   6.669   2.269   5.169  0.0879 -0.4227  0.0558
   94SAPC  H20T 9167   6.712   2.150   5.044 -1.8089 -2.8934 -1.3652
   94SAPC   C33 9168   7.234   2.753   6.863  0.7498 -0.0100  0.1126
   94SAPC   H3X 9169   7.258   2.646   6.848 -1.1194 -0.3129 -1.0057
   94SAPC   H3Y 9170   7.293   2.787   6.951  2.4017 -0.6095 -0.7218
   94SAPC   C34 9171   7.284   2.842   6.744  0.3246 -0.1691 -0.4453
   94SAPC   H4X 9172   7.394   2.830   6.743  0.3278 -0.1407 -0.4375
   94SAPC   H4Y 9173   7.262   2.950   6.754  1.1075 -0.0702  0.2622
   94SAPC   C35 9174   7.216   2.790   6.620 -0.1567 -0.0687  0.1237
   94SAPC   H5X 9175   7.137   2.715   6.643 -2.0314  1.9926  0.6507
   94SAPC   H5Y 9176   7.293   2.744   6.554  0.5616  0.4245  0.6107
   94SAPC   C36 9177   7.149   2.904   6.538 -0.1289  0.5533 -0.1524
   94SAPC   H6X 9178   7.220   2.980   6.499  0.7883  0.4459  1.2340
   94SAPC   H6Y 9179   7.093   2.966   6.612  0.0318  0.0612  0.3921
   94SAPC   C37 9180   7.059   2.854   6.434 -0.4824  0.0172 -0.3819
   94SAPC   H7X 9181   6.985   2.934   6.411 -0.4780 -0.2603 -1.4160
   94SAPC   H7Y 9182   6.998   2.773   6.480 -0.7562 -0.1384 -1.0168
   94SAPC   C38 9183   7.129   2.804   6.306  0.2712 -0.6790 -0.1160
   94SAPC   H8X 9184   7.172   2.702   6.317  1.1222 -0.1374  2.1223
   94SAPC   H8Y 9185   7.211   2.879   6.293  0.7826 -1.2857 -0.4303
   94SAPC   C39 9186   7.031   2.795   6.186 -0.5048  0.0075  0.1402
   94SAPC   H9X 9187   6.979   2.893   6.197  2.7809  1.8034  0.9208
   94SAPC   H9Y 9188   6.970   2.702   6.191  1.1230 -1.1183 -0.2848
   94SAPC  C310 9189   7.109   2.796   6.049 -0.3391 -0.4058  0.3236
   94SAPC  H10X 9190   7.200   2.732   6.044 -1.0077 -1.2838 -0.9739
   94SAPC  H10Y 9191   7.130   2.904   6.037  0.4987 -0.6153 -0.1972
   94SAPC  C311 9192   7.022   2.746   5.929 -0.1376  0.0543 -0.5310
   94SAPC  H11X 9193   6.931   2.809   5.920 -0.7687 -0.9165 -1.1441
   94SAPC  H11Y 9194   6.982   2.645   5.952 -0.8721 -0.0692 -2.2166
   94SAPC  C312 9195   7.095   2.752   5.798  0.0628 -0.3496 -0.3987
   94SAPC  H12X 9196   7.190   2.696   5.785  1.1910  1.4027  0.0258
   94SAPC  H12Y 9197   7.117   2.858   5.777  1.1780 -0.4760  0.0834
   94SAPC  C313 9198   7.010   2.698   5.681  0.3384  0.2761  0.4002
   94SAPC  H13X 9199   6.918   2.751   5.647  0.0684 -1.6163 -2.1621
   94SAPC  H13Y 9200   6.982   2.601   5.727 -0.0161  1.4736  2.8205
   94SAPC  C314 9201   7.095   2.663   5.561  0.1504  0.1914  0.3546
   94SAPC  H14X 9202   7.188   2.619   5.604  0.5617  0.6825 -0.0230
   94SAPC  H14Y 9203   7.128   2.751   5.502  2.3267 -1.1923 -0.6342
   94SAPC  C315 9204   7.035   2.559   5.462 -0.0216  0.3250  0.6151
   94SAPC  H15X 9205   6.940   2.608   5.432  0.6995  0.3313 -1.8379
   94SAPC  H15Y 9206   6.998   2.478   5.529  0.7751 -1.8817 -1.4753
   94SAPC  C316 9207   7.123   2.497   5.351 -0.2665  0.2050 -0.7442
   94SAPC  H16X 9208   7.227   2.486   5.387  0.4224 -0.3314 -2.7431
   94SAPC  H16Y 9209   7.119   2.573   5.270 -0.7842  0.9953  0.0041
   94SAPC  C317 9210   7.083   2.364   5.292  0.5220 -0.6902 -0.1228
   94SAPC  H17X 9211   6.983   2.371   5.244 -0.4015  0.1280  1.8056
   94SAPC  H17Y 9212   7.070   2.291   5.375  1.2839 -2.2235 -1.3109
   94SAPC  C318 9213   7.170   2.325   5.182 -0.6604 -0.8575 -0.0254
   94SAPC  H18X 9214   7.168   2.397   5.098  0.2154  1.2141  1.6410
   94SAPC  H18Y 9215   7.145   2.223   5.143 -1.8586  0.3217 -2.5868
   94SAPC  H18Z 9216   7.276   2.322   5.214  0.3193  0.3098 -2.9291
   95SAPC     N 9217   0.948   4.759   2.774  0.1899  0.1695  0.2004
   95SAPC   C12 9218   0.903   4.797   2.637  0.2305 -0.1698  0.5309
   95SAPC  H12A 9219   0.993   4.808   2.578 -1.0322  1.5999 -1.1835
   95SAPC  H12B 9220   0.853   4.891   2.655  1.1963  0.1474  1.6584
   95SAPC   C13 9221   1.042   4.861   2.817 -0.2813 -0.7884  0.2481
   95SAPC  H13A 9222   1.009   4.964   2.813  3.0986  0.4039 -0.2730
   95SAPC  H13B 9223   1.074   4.839   2.918 -0.2436 -0.0970  0.3885
   95SAPC  H13C 9224   1.127   4.854   2.751  0.9667 -1.2322  1.8236
   95SAPC   C14 9225   0.840   4.741   2.876 -0.0626  0.1453  0.0768
   95SAPC  H14A 9226   0.780   4.658   2.840  1.0491 -0.5140 -0.2905
   95SAPC  H14B 9227   0.886   4.719   2.970 -1.2704 -0.9083  0.4500
   95SAPC  H14C 9228   0.785   4.834   2.880  0.2936  0.4022 -0.7873
   95SAPC   C15 9229   1.027   4.634   2.773 -0.6711  0.3398  0.2326
   95SAPC  H15A 9230   1.125   4.636   2.728  0.3703  0.4063  2.3897
   95SAPC  H15B 9231   1.054   4.606   2.874  2.2241  2.4423  0.1608
   95SAPC  H15C 9232   0.973   4.548   2.737 -0.6100 -0.4205  1.8728
   95SAPC   C11 9233   0.826   4.692   2.552 -0.1890 -0.3680 -0.0660
   95SAPC  H11A 9234   0.774   4.757   2.478 -0.0657  0.0768  0.2360
   95SAPC  H11B 9235   0.760   4.635   2.621  1.1787 -0.2878  1.3587
   95SAPC     P 9236   0.880   4.528   2.361  0.2007  0.2925  0.2609
   95SAPC   O13 9237   0.883   4.621   2.245  0.1895  0.3124  0.5046
   95SAPC   O14 9238   0.960   4.404   2.345  0.3835 -0.2136  0.0749
   95SAPC   O12 9239   0.922   4.605   2.492 -0.1328  0.0334  0.1592
   95SAPC   O11 9240   0.727   4.501   2.379 -0.1780  1.2283  0.8443
   95SAPC    C1 9241   0.676   4.414   2.479 -0.0696  0.8656  0.2333
   95SAPC    HA 9242   0.699   4.308   2.453  1.5698  1.5741 -1.3978
   95SAPC    HB 9243   0.725   4.428   2.577  1.9801 -0.9863 -0.4429
   95SAPC    C2 9244   0.524   4.433   2.504 -0.1906  0.0542  0.2700
   95SAPC    HS 9245   0.469   4.443   2.409 -1.0820 -2.7121  0.4180
   95SAPC   O21 9246   0.518   4.540   2.601 -0.2285 -1.2496 -0.1785
   95SAPC   C21 9247   0.394   4.578   2.625 -0.5345 -0.0417 -0.1515
   95SAPC   O22 9248   0.293   4.539   2.563 -0.6962  0.4426 -0.4426
   95SAPC   C22 9249   0.395   4.685   2.736 -0.1483  0.9584 -0.0024
   95SAPC   H2R 9250   0.457   4.642   2.818  1.7384  0.2051 -1.7287
   95SAPC   H2S 9251   0.456   4.771   2.700 -1.2034  1.1030 -1.5036
   95SAPC    C3 9252   0.460   4.300   2.568  0.3940 -0.2254 -0.3969
   95SAPC    HX 9253   0.529   4.222   2.532  2.7438  1.5893 -0.0501
   95SAPC    HY 9254   0.359   4.284   2.524  0.3589  0.9364 -0.7726
   95SAPC   O31 9255   0.441   4.286   2.709  0.0751  0.5131 -0.3018
   95SAPC   C31 9256   0.552   4.256   2.776 -1.1948  0.1873 -0.4114
   95SAPC   O32 9257   0.662   4.234   2.721 -0.1529 -0.3983  0.1505
   95SAPC   C32 9258   0.534   4.243   2.920  0.0669 -0.2887  0.2409
   95SAPC   H2X 9259   0.639   4.252   2.956  0.1319  2.1203 -0.3657
   95SAPC   H2Y 9260   0.501   4.141   2.949  0.7735  0.1493  2.8360
   95SAPC   C23 9261   0.255   4.736   2.766 -0.1323 -0.1810 -0.5244
   95SAPC   H3R 9262   0.183   4.658   2.797 -1.2845  1.4592  1.1488
   95SAPC   H3S 9263   0.215   4.783   2.673 -0.7215  2.9805  1.1861
   95SAPC   C24 9264   0.243   4.853   2.869  0.1382 -0.0277 -0.1718
   95SAPC   H4R 9265   0.304   4.939   2.832 -1.7104  0.5952 -1.9629
   95SAPC   H4S 9266   0.285   4.818   2.965  0.4328 -0.4696 -0.4574
   95SAPC   C25 9267   0.095   4.883   2.882  0.0479  0.4139 -1.0021
   95SAPC   H5R 9268   0.057   4.901   2.781 -0.1790 -0.5511 -1.1049
   95SAPC   C26 9269   0.023   4.883   2.995 -0.7670 -0.5250 -0.5874
   95SAPC   H6R 9270  -0.087   4.880   2.993 -0.7601 -0.4017 -1.3279
   95SAPC   C27 9271   0.073   4.867   3.140  0.8340  0.3566  0.2849
   95SAPC   H7R 9272   0.041   4.949   3.207 -0.6605 -0.2632  0.3776
   95SAPC   H7S 9273   0.184   4.873   3.141  0.9602  0.0458 -2.6947
   95SAPC   C28 9274   0.027   4.734   3.192  0.6250 -0.0237  0.0318
   95SAPC   H8R 9275   0.008   4.661   3.112  1.5314  1.1245 -1.2856
   95SAPC   C29 9276   0.037   4.691   3.325  0.6048  0.1538 -0.0037
   95SAPC   H9R 9277  -0.013   4.597   3.352  0.1568  0.3289 -0.2115
   95SAPC  C210 9278   0.081   4.786   3.441  0.6742  0.1136 -0.1647
   95SAPC  H10R 9279   0.012   4.767   3.525 -0.1328  0.2403 -0.7895
   95SAPC  H10S 9280   0.070   4.888   3.398 -0.1181 -0.9107 -2.6181
   95SAPC  C211 9281   0.225   4.768   3.471  0.3066  0.5822  0.4992
   95SAPC  H11R 9282   0.288   4.771   3.381  2.0518 -0.6117  1.5956
   95SAPC  C212 9283   0.283   4.740   3.586  0.0421  0.4649 -0.1268
   95SAPC  H12R 9284   0.392   4.729   3.595 -0.0823  0.5396  2.1850
   95SAPC  C213 9285   0.215   4.741   3.720  0.1203 -0.1361 -0.3988
   95SAPC  H13R 9286   0.105   4.755   3.714  0.3900  2.4955 -0.2640
   95SAPC  H13S 9287   0.247   4.822   3.789 -1.0987 -0.8690  1.0877
   95SAPC  C214 9288   0.250   4.616   3.794 -0.1896 -0.2022  0.2544
   95SAPC  H14R 9289   0.254   4.528   3.728  1.7414 -0.2677  0.3892
   95SAPC  C215 9290   0.267   4.596   3.925 -0.5615  0.3957  0.0032
   95SAPC  H15R 9291   0.293   4.491   3.949 -1.2322 -0.3267 -2.2320
   95SAPC  C216 9292   0.286   4.693   4.040 -0.1453 -0.1305 -0.1260
   95SAPC  H16R 9293   0.219   4.676   4.126 -0.9701 -0.6122 -0.8502
   95SAPC  H16S 9294   0.269   4.799   4.010 -0.5779 -0.0696  0.3395
   95SAPC  C217 9295   0.432   4.678   4.087 -0.4505  0.2373 -0.1826
   95SAPC  H17R 9296   0.496   4.684   3.997 -0.0062  0.0225  0.1146
   95SAPC  H17S 9297   0.433   4.581   4.141 -2.9158 -0.0920 -0.6206
   95SAPC  C218 9298   0.487   4.779   4.181 -1.3531 -1.1412  0.6191
   95SAPC  H18R 9299   0.425   4.781   4.273  1.3782 -1.3062  2.5679
   95SAPC  H18S 9300   0.492   4.879   4.134  0.8128 -0.8153  1.4725
   95SAPC  C219 9301   0.628   4.738   4.240 -0.5436  0.0556  0.4187
   95SAPC  H19R 9302   0.624   4.637   4.287 -1.5896 -0.1211 -0.0141
   95SAPC  H19S 9303   0.643   4.798   4.332  0.5865 -1.2220  1.1106
   95SAPC  C220 9304   0.740   4.763   4.142  1.0467  0.1678  0.9068
   95SAPC  H20R 9305   0.716   4.720   4.042 -1.7627  1.8569  0.7506
   95SAPC  H20S 9306   0.840   4.725   4.173  1.1153 -0.9042 -0.5388
   95SAPC  H20T 9307   0.746   4.872   4.122  0.6421 -0.2017 -1.5101
   95SAPC   C33 9308   0.455   4.343   3.004  0.8795  0.1068 -0.2486
   95SAPC   H3X 9309   0.348   4.341   2.977  1.1996 -0.5172 -1.5122
   95SAPC   H3Y 9310   0.479   4.448   2.976 -1.2250  0.2208 -1.8412
   95SAPC   C34 9311   0.478   4.312   3.152  0.3144 -0.3409  0.7491
   95SAPC   H4X 9312   0.584   4.296   3.183  1.3983  3.3803 -0.4982
   95SAPC   H4Y 9313   0.422   4.217   3.168  0.5933 -0.8366 -1.0002
   95SAPC   C35 9314   0.405   4.418   3.234 -0.7275  0.6032 -0.3862
   95SAPC   H5X 9315   0.296   4.395   3.229 -0.4319 -0.6276 -1.7463
   95SAPC   H5Y 9316   0.421   4.518   3.186 -0.9853  0.9089  0.1520
   95SAPC   C36 9317   0.453   4.416   3.378 -0.0735  0.3175 -0.2394
   95SAPC   H6X 9318   0.497   4.315   3.398 -0.5904 -0.0074 -0.7209
   95SAPC   H6Y 9319   0.369   4.429   3.450 -1.2084 -0.4532 -1.3866
   95SAPC   C37 9320   0.550   4.530   3.418  0.1637  0.3708 -0.4675
   95SAPC   H7X 9321   0.505   4.623   3.379 -2.5180 -0.8835 -0.6450
   95SAPC   H7Y 9322   0.646   4.531   3.363  1.2187  0.0624  1.2810
   95SAPC   C38 9323   0.582   4.533   3.571  0.2982  0.2468  0.0085
   95SAPC   H8X 9324   0.492   4.484   3.613 -0.7505  0.7656 -1.5283
   95SAPC   H8Y 9325   0.588   4.637   3.609 -1.1777  0.9796 -1.5765
   95SAPC   C39 9326   0.695   4.445   3.616  0.3629  0.2074  0.2914
   95SAPC   H9X 9327   0.789   4.485   3.574 -0.0805 -0.4141 -1.3907
   95SAPC   H9Y 9328   0.681   4.342   3.577  1.7478 -0.2706  1.0212
   95SAPC  C310 9329   0.711   4.425   3.769 -0.5263  0.7530  0.8503
   95SAPC  H10X 9330   0.636   4.348   3.796 -0.6973  0.5843 -0.0753
   95SAPC  H10Y 9331   0.699   4.517   3.831  0.2806  1.1128  0.4877
   95SAPC  C311 9332   0.842   4.363   3.805  0.1193  0.5018 -1.0211
   95SAPC  H11X 9333   0.925   4.435   3.792  0.9566  0.1062  1.5657
   95SAPC  H11Y 9334   0.855   4.270   3.746 -1.8002  0.9127 -2.1687
   95SAPC  C312 9335   0.854   4.331   3.955 -0.1014 -0.1109 -0.1373
   95SAPC  H12X 9336   0.778   4.255   3.986 -0.9104  1.3414  1.6227
   95SAPC  H12Y 9337   0.840   4.415   4.027 -0.0832 -1.8565  2.0186
   95SAPC  C313 9338   0.995   4.272   3.986  0.8204 -0.6599  0.6943
   95SAPC  H13X 9339   1.066   4.343   3.937 -0.3855  0.6734  0.8031
   95SAPC  H13Y 9340   1.007   4.176   3.931  0.9486  1.2019 -2.8431
   95SAPC  C314 9341   1.025   4.249   4.136 -1.1916  0.3652 -1.4252
   95SAPC  H14X 9342   1.004   4.350   4.178  1.9736 -0.1611  2.0074
   95SAPC  H14Y 9343   1.134   4.230   4.141 -1.2048  0.5108 -0.3432
   95SAPC  C315 9344   0.947   4.139   4.205  0.4035 -0.5491 -0.4233
   95SAPC  H15X 9345   0.967   4.040   4.160 -1.1466 -0.9023 -0.3914
   95SAPC  H15Y 9346   0.840   4.158   4.184  0.2752 -0.7125  0.0720
   95SAPC  C316 9347   0.963   4.129   4.363 -0.0921  0.9658 -0.2371
   95SAPC  H16X 9348   0.880   4.063   4.395  0.9854 -0.3613 -0.0527
   95SAPC  H16Y 9349   0.940   4.226   4.412 -2.7145  0.7249 -0.8764
   95SAPC  C317 9350   1.103   4.088   4.418  0.5151 -0.2965  0.4914
   95SAPC  H17X 9351   1.184   4.150   4.373 -0.2890 -0.0425 -0.6439
   95SAPC  H17Y 9352   1.117   3.981   4.395  2.3665 -0.0877  0.4568
   95SAPC  C318 9353   1.127   4.099   4.566 -0.4579  0.6718 -0.6849
   95SAPC  H18X 9354   1.208   4.037   4.611 -0.1417  0.6226 -1.3139
   95SAPC  H18Y 9355   1.035   4.063   4.618  0.4780 -2.9252 -1.2251
   95SAPC  H18Z 9356   1.143   4.205   4.596  1.3175  0.4762 -0.8417
   96SAPC     N 9357   0.829   5.965   2.596  0.1270 -0.3521 -0.2938
   96SAPC   C12 9358   0.956   6.003   2.518 -0.2635  0.0926  0.2432
   96SAPC  H12A 9359   0.955   6.109   2.500  1.9059  0.0252 -0.5396
   96SAPC  H12B 9360   0.943   5.969   2.416  1.6363 -0.9453  0.3133
   96SAPC   C13 9361   0.712   6.028   2.537  0.2258 -1.0172 -0.2737
   96SAPC  H13A 9362   0.716   6.136   2.543 -0.8775 -1.0094  0.5951
   96SAPC  H13B 9363   0.694   5.993   2.437 -1.0951  0.6354 -0.6770
   96SAPC  H13C 9364   0.616   6.008   2.582  0.7336 -1.7193  0.5245
   96SAPC   C14 9365   0.803   5.816   2.580 -0.3590 -0.6797  0.0500
   96SAPC  H14A 9366   0.716   5.785   2.636  0.7634 -1.5261  1.4041
   96SAPC  H14B 9367   0.771   5.784   2.482 -1.7700 -1.1031  0.6164
   96SAPC  H14C 9368   0.889   5.761   2.615  0.5488  0.5569 -0.1765
   96SAPC   C15 9369   0.840   6.007   2.740  0.3295  0.3036 -0.6886
   96SAPC  H15A 9370   0.871   6.111   2.737  0.2591  0.3148 -1.2066
   96SAPC  H15B 9371   0.753   6.004   2.803  4.1763  0.7760  5.4443
   96SAPC  H15C 9372   0.917   5.947   2.785  0.8128  1.6971  0.4064
   96SAPC   C11 9373   1.092   5.965   2.566  0.0662  0.2362 -0.5222
   96SAPC  H11A 9374   1.168   5.965   2.484  1.6773  0.4709  0.9214
   96SAPC  H11B 9375   1.097   5.858   2.594  0.7294  1.1189  3.1937
   96SAPC     P 9376   1.180   6.194   2.631 -0.0193 -0.1265  0.1042
   96SAPC   O13 9377   1.329   6.184   2.624 -0.2294 -0.4156  0.1635
   96SAPC   O14 9378   1.113   6.249   2.516  0.1899  0.3798  0.6886
   96SAPC   O12 9379   1.126   6.045   2.677 -0.4323  0.2793 -0.2671
   96SAPC   O11 9380   1.140   6.284   2.757  0.2996 -0.3597 -0.3866
   96SAPC    C1 9381   1.124   6.229   2.891 -0.4400 -0.1659  0.4903
   96SAPC    HA 9382   1.084   6.314   2.950 -1.3899  2.2351 -3.2134
   96SAPC    HB 9383   1.052   6.145   2.888  0.0719 -0.6285  1.0418
   96SAPC    C2 9384   1.257   6.173   2.961 -0.1079  0.6059 -0.1840
   96SAPC    HS 9385   1.302   6.091   2.902  0.7843  0.2790  0.9162
   96SAPC   O21 9386   1.223   6.131   3.095  0.5016  0.4331  0.3002
   96SAPC   C21 9387   1.150   6.024   3.101  0.1177 -0.1582  0.0859
   96SAPC   O22 9388   1.119   5.957   3.011  0.0014  0.4760  0.3777
   96SAPC   C22 9389   1.101   6.000   3.242  0.2055 -0.2100  0.2671
   96SAPC   H2R 9390   1.073   6.100   3.280  0.0679 -0.0474 -0.2558
   96SAPC   H2S 9391   1.014   5.931   3.238  1.8325 -2.3643 -0.1047
   96SAPC    C3 9392   1.367   6.280   2.984 -0.4189  0.0276 -0.3107
   96SAPC    HX 9393   1.416   6.311   2.889  1.4280 -0.3069  0.4850
   96SAPC    HY 9394   1.450   6.239   3.045  0.2919  0.6574 -0.8473
   96SAPC   O31 9395   1.308   6.397   3.052 -0.6981 -0.7635  0.0921
   96SAPC   C31 9396   1.353   6.423   3.172  0.7479 -0.8161  0.7255
   96SAPC   O32 9397   1.451   6.374   3.224  0.1288 -0.3008  0.0719
   96SAPC   C32 9398   1.241   6.512   3.236  0.1090 -0.0302  0.1630
   96SAPC   H2X 9399   1.147   6.454   3.249  0.2620 -0.8970 -2.1368
   96SAPC   H2Y 9400   1.213   6.595   3.168 -0.2676  1.1647  1.7259
   96SAPC   C23 9401   1.216   5.930   3.311  0.0511 -0.1754 -0.3323
   96SAPC   H3R 9402   1.292   6.008   3.333 -1.5403  0.9981  1.2624
   96SAPC   H3S 9403   1.262   5.858   3.240  1.3197 -1.1005  1.3407
   96SAPC   C24 9404   1.182   5.846   3.433 -0.7085 -0.4629 -0.1175
   96SAPC   H4R 9405   1.268   5.781   3.461 -0.1298 -1.0744 -3.0205
   96SAPC   H4S 9406   1.106   5.769   3.406 -0.0224 -2.0754  2.2218
   96SAPC   C25 9407   1.147   5.927   3.555  0.2989 -0.3699  0.4035
   96SAPC   H5R 9408   1.097   6.021   3.528  3.1542  1.3424  0.6272
   96SAPC   C26 9409   1.186   5.907   3.679  0.1378 -0.1341 -0.1559
   96SAPC   H6R 9410   1.141   5.968   3.758 -1.4355 -0.3979 -0.8124
   96SAPC   C27 9411   1.266   5.784   3.730 -0.3006 -0.1974  0.4228
   96SAPC   H7R 9412   1.340   5.810   3.809  0.7409 -1.4935 -0.1151
   96SAPC   H7S 9413   1.321   5.735   3.648  1.9512  1.8920  0.5902
   96SAPC   C28 9414   1.181   5.672   3.775  0.3734  1.0321  0.2328
   96SAPC   H8R 9415   1.196   5.575   3.727 -0.6773  1.5435 -1.1992
   96SAPC   C29 9416   1.087   5.664   3.872  0.1685 -0.2098  0.1844
   96SAPC   H9R 9417   1.022   5.575   3.874 -0.1603  0.0245  0.0733
   96SAPC  C210 9418   1.051   5.786   3.965 -0.5839 -0.0627 -0.2524
   96SAPC  H10R 9419   0.957   5.835   3.934  0.1571  2.0505  0.6199
   96SAPC  H10S 9420   1.122   5.871   3.956 -0.4295 -0.3479 -2.1867
   96SAPC  C211 9421   1.031   5.748   4.113  0.1493 -0.0357  0.3451
   96SAPC  H11R 9422   0.926   5.730   4.139 -0.5658  2.0353 -0.8286
   96SAPC  C212 9423   1.132   5.724   4.202  0.1397 -0.1695  0.0409
   96SAPC  H12R 9424   1.115   5.701   4.308  3.6484  0.4672  0.8516
   96SAPC  C213 9425   1.278   5.751   4.164 -0.0093 -0.0047  0.6835
   96SAPC  H13R 9426   1.299   5.757   4.056  0.8814 -0.5313  0.8246
   96SAPC  H13S 9427   1.342   5.665   4.191 -1.1603 -0.5866  1.6585
   96SAPC  C214 9428   1.337   5.873   4.234  0.3898 -0.0497  0.0925
   96SAPC  H14R 9429   1.340   5.964   4.171 -1.6201 -0.3892 -0.5943
   96SAPC  C215 9430   1.392   5.865   4.352  0.5440  0.1209  0.9845
   96SAPC  H15R 9431   1.459   5.947   4.380 -2.0981  2.1411  1.8055
   96SAPC  C216 9432   1.390   5.737   4.436 -0.2232  0.1979 -0.8555
   96SAPC  H16R 9433   1.476   5.669   4.416 -0.7615 -1.2177  1.3503
   96SAPC  H16S 9434   1.296   5.680   4.419  0.7450 -1.7406  0.0243
   96SAPC  C217 9435   1.405   5.782   4.582 -0.7858  0.0134 -0.2539
   96SAPC  H17R 9436   1.321   5.847   4.612 -1.3899 -0.6718 -0.4122
   96SAPC  H17S 9437   1.500   5.839   4.590 -0.0395 -1.4118  2.1690
   96SAPC  C218 9438   1.413   5.659   4.680 -0.5084 -0.4065 -0.1197
   96SAPC  H18R 9439   1.503   5.598   4.659  0.3203  0.3558  1.0853
   96SAPC  H18S 9440   1.330   5.589   4.656 -0.7081 -0.2340  0.0556
   96SAPC  C219 9441   1.433   5.719   4.824  0.1336  0.6099  0.5561
   96SAPC  H19R 9442   1.346   5.781   4.853  0.5767  1.3054  0.4416
   96SAPC  H19S 9443   1.522   5.786   4.813  1.3199 -0.9012  0.5946
   96SAPC  C220 9444   1.462   5.618   4.932 -0.0691 -0.1163  0.7807
   96SAPC  H20R 9445   1.505   5.665   5.023 -1.7654  2.5748  0.3040
   96SAPC  H20S 9446   1.529   5.542   4.886 -0.8415 -0.0622 -0.4481
   96SAPC  H20T 9447   1.374   5.556   4.960  0.5090 -0.9978  0.6943
   96SAPC   C33 9448   1.295   6.569   3.370  0.3861 -0.1897 -0.2143
   96SAPC   H3X 9449   1.256   6.673   3.363  1.6037  0.1673 -2.5790
   96SAPC   H3Y 9450   1.406   6.571   3.372  0.4349 -0.2876 -1.7291
   96SAPC   C34 9451   1.236   6.481   3.482 -0.2873 -0.0879  0.8634
   96SAPC   H4X 9452   1.128   6.476   3.460 -0.3977 -0.1865  1.4132
   96SAPC   H4Y 9453   1.239   6.538   3.577  1.8105 -1.5397  1.7452
   96SAPC   C35 9454   1.298   6.337   3.500 -0.0294  0.9885 -0.3417
   96SAPC   H5X 9455   1.407   6.349   3.516  0.5176 -0.9295 -2.1908
   96SAPC   H5Y 9456   1.294   6.273   3.409  2.5137  1.1818 -0.6492
   96SAPC   C36 9457   1.246   6.247   3.620 -0.2783 -0.3129  0.3215
   96SAPC   H6X 9458   1.296   6.148   3.617 -1.1804 -0.7585 -2.6752
   96SAPC   H6Y 9459   1.137   6.232   3.631 -0.4972  1.4139  0.9339
   96SAPC   C37 9460   1.285   6.323   3.748 -0.1306 -0.6584 -0.2707
   96SAPC   H7X 9461   1.212   6.406   3.755 -0.0716 -0.5166 -1.2415
   96SAPC   H7Y 9462   1.387   6.364   3.738 -1.1530  2.0323 -0.4348
   96SAPC   C38 9463   1.277   6.236   3.882 -0.2910 -0.7610  0.2389
   96SAPC   H8X 9464   1.350   6.153   3.872  0.1849 -0.2318 -0.9174
   96SAPC   H8Y 9465   1.172   6.203   3.896 -0.6041  0.2025  0.2314
   96SAPC   C39 9466   1.325   6.320   4.005  0.1502 -0.5042 -0.3047
   96SAPC   H9X 9467   1.258   6.408   4.015 -0.6178 -1.1848  0.8048
   96SAPC   H9Y 9468   1.427   6.356   3.980  0.0282 -0.8901 -1.4331
   96SAPC  C310 9469   1.316   6.249   4.137  0.5814  0.1841  0.2598
   96SAPC  H10X 9470   1.389   6.167   4.150  0.6638  0.6463  3.7135
   96SAPC  H10Y 9471   1.219   6.198   4.154  0.9760 -0.6856 -0.0348
   96SAPC  C311 9472   1.352   6.339   4.261  0.2378 -0.1599  0.6622
   96SAPC  H11X 9473   1.260   6.402   4.263 -1.1353 -2.1078  1.7880
   96SAPC  H11Y 9474   1.438   6.409   4.252  0.3449  0.0968  2.8967
   96SAPC  C312 9475   1.380   6.263   4.390  0.6890  0.2109 -0.0803
   96SAPC  H12X 9476   1.471   6.199   4.384  0.5234 -0.0009 -0.3370
   96SAPC  H12Y 9477   1.289   6.206   4.418  1.2665 -0.0450  1.3383
   96SAPC  C313 9478   1.396   6.356   4.512  0.6304 -0.0221  0.3122
   96SAPC  H13X 9479   1.315   6.430   4.497 -0.1976 -1.2414 -1.7961
   96SAPC  H13Y 9480   1.492   6.412   4.509  0.2548  0.6111 -0.1277
   96SAPC  C314 9481   1.378   6.275   4.643 -0.0072 -0.4633 -0.1829
   96SAPC  H14X 9482   1.421   6.174   4.621 -0.3574 -0.6423 -0.0462
   96SAPC  H14Y 9483   1.273   6.254   4.671  0.1833  1.2082  2.0452
   96SAPC  C315 9484   1.431   6.357   4.774 -0.0598  0.3815 -0.4719
   96SAPC  H15X 9485   1.338   6.400   4.817  0.3215  0.2272  0.5424
   96SAPC  H15Y 9486   1.497   6.441   4.741 -0.3616  0.7840 -0.0768
   96SAPC  C316 9487   1.504   6.270   4.883  0.4025 -0.7451  0.3119
   96SAPC  H16X 9488   1.577   6.322   4.948 -0.1072 -0.8438  0.9762
   96SAPC  H16Y 9489   1.562   6.199   4.820  0.4680 -0.3148 -0.1178
   96SAPC  C317 9490   1.410   6.187   4.972  0.8430 -0.1880 -0.0330
   96SAPC  H17X 9491   1.351   6.113   4.914  0.7383 -1.1048  1.1977
   96SAPC  H17Y 9492   1.342   6.260   5.021 -1.4851 -1.6910 -0.8316
   96SAPC  C318 9493   1.494   6.110   5.081 -0.0876  0.4198 -0.2594
   96SAPC  H18X 9494   1.534   6.175   5.162  2.8396 -2.3684  0.7405
   96SAPC  H18Y 9495   1.585   6.071   5.032  2.0338  4.3498  0.1408
   96SAPC  H18Z 9496   1.441   6.018   5.114  0.0581  0.1892 -0.6748
   97SAPC     N 9497   5.909   4.301   2.031  0.1027  0.8513 -0.1370
   97SAPC   C12 9498   5.892   4.339   2.171  0.4753  0.1532 -0.8181
   97SAPC  H12A 9499   5.793   4.314   2.204  0.4131  2.7702  1.3640
   97SAPC  H12B 9500   5.906   4.444   2.195  0.2278 -0.0729  0.3842
   97SAPC   C13 9501   5.894   4.152   2.005 -0.4010 -0.4175  0.3826
   97SAPC  H13A 9502   5.959   4.088   2.063  2.0033  0.4570 -1.1856
   97SAPC  H13B 9503   5.792   4.116   2.009 -0.1069 -1.1620  2.8308
   97SAPC  H13C 9504   5.933   4.140   1.905 -0.1127 -0.3069  0.4807
   97SAPC   C14 9505   5.814   4.380   1.948 -0.3555  0.0702 -0.1264
   97SAPC  H14A 9506   5.827   4.487   1.943 -0.2067  0.0949  0.6253
   97SAPC  H14B 9507   5.828   4.356   1.844  0.3490  2.8056 -0.7424
   97SAPC  H14C 9508   5.713   4.354   1.976  0.0452 -3.7663 -1.6587
   97SAPC   C15 9509   6.047   4.339   1.988  0.2805 -0.4278  0.6244
   97SAPC  H15A 9510   6.060   4.301   1.888 -2.2662 -2.2699  0.8944
   97SAPC  H15B 9511   6.068   4.445   1.995  1.2234 -0.6219  0.8618
   97SAPC  H15C 9512   6.120   4.289   2.050  1.4878  0.1454 -0.2853
   97SAPC   C11 9513   5.980   4.266   2.279  0.3518 -0.3140 -0.6670
   97SAPC  H11A 9514   5.968   4.156   2.272  0.5772 -0.4068  0.3099
   97SAPC  H11B 9515   5.934   4.293   2.377 -1.0218 -1.9966 -0.8000
   97SAPC     P 9516   6.166   4.431   2.318  0.3484 -0.3363  0.2559
   97SAPC   O13 9517   6.225   4.507   2.205 -0.1975 -0.4347 -0.0784
   97SAPC   O14 9518   6.049   4.496   2.380  0.0830 -0.4252 -0.1884
   97SAPC   O12 9519   6.114   4.298   2.254 -0.2682  0.0122 -0.6548
   97SAPC   O11 9520   6.279   4.388   2.420  0.2106  0.7039 -0.3994
   97SAPC    C1 9521   6.236   4.322   2.538  0.1028  0.9990 -0.1122
   97SAPC    HA 9522   6.126   4.307   2.541  0.2424 -0.0498 -0.0609
   97SAPC    HB 9523   6.284   4.223   2.526 -0.4062  0.6263  0.8859
   97SAPC    C2 9524   6.269   4.391   2.671  0.6596  0.3477 -0.0953
   97SAPC    HS 9525   6.228   4.493   2.662  0.2548  0.2975  0.9449
   97SAPC   O21 9526   6.408   4.388   2.694  0.3838  0.4567 -0.8787
   97SAPC   C21 9527   6.464   4.505   2.735  0.5371  1.0698 -0.3278
   97SAPC   O22 9528   6.406   4.610   2.753 -0.1008  0.4669 -0.7145
   97SAPC   C22 9529   6.613   4.478   2.748  0.1376 -0.1187 -0.1501
   97SAPC   H2R 9530   6.644   4.381   2.703 -1.3071 -2.2477  3.0692
   97SAPC   H2S 9531   6.664   4.547   2.678 -0.0064  0.3805  0.2381
   97SAPC    C3 9532   6.187   4.330   2.786  0.9377 -0.4898 -0.1579
   97SAPC    HX 9533   6.221   4.233   2.828 -0.5924 -0.0093  2.4247
   97SAPC    HY 9534   6.087   4.302   2.749  0.0769  1.0626  0.8542
   97SAPC   O31 9535   6.190   4.420   2.897 -0.7117 -0.1543 -0.0486
   97SAPC   C31 9536   6.104   4.403   2.994  0.0256  0.0504 -0.2088
   97SAPC   O32 9537   6.032   4.302   3.002  0.4174 -0.3668 -0.1457
   97SAPC   C32 9538   6.123   4.503   3.107 -0.3201 -0.0495 -0.2391
   97SAPC   H2X 9539   6.042   4.576   3.086  0.1977  0.1575 -1.6033
   97SAPC   H2Y 9540   6.227   4.539   3.096 -0.2086 -0.6876 -1.5391
   97SAPC   C23 9541   6.663   4.504   2.889  0.5115 -0.1792  0.2441
   97SAPC   H3R 9542   6.638   4.608   2.917  2.7136  0.6521 -0.6626
   97SAPC   H3S 9543   6.774   4.501   2.882  0.4527  0.2761 -1.4309
   97SAPC   C24 9544   6.610   4.408   2.996  0.1437  0.0374  0.3469
   97SAPC   H4R 9545   6.655   4.309   2.972  1.7231  1.0223 -0.9661
   97SAPC   H4S 9546   6.501   4.399   2.972  0.4919  1.0080 -1.8550
   97SAPC   C25 9547   6.629   4.462   3.134 -0.1511 -0.2574 -0.2366
   97SAPC   H5R 9548   6.670   4.563   3.147  0.1869 -0.4809  0.5369
   97SAPC   C26 9549   6.608   4.389   3.247  0.5211  0.0906 -0.6310
   97SAPC   H6R 9550   6.609   4.443   3.342  2.2660  1.0585 -1.1477
   97SAPC   C27 9551   6.562   4.245   3.241  0.0368 -0.7915  0.1922
   97SAPC   H7R 9552   6.627   4.190   3.313  0.5389 -0.8751 -0.3161
   97SAPC   H7S 9553   6.584   4.193   3.145 -4.1326  1.7165 -2.4851
   97SAPC   C28 9554   6.419   4.221   3.287  0.3948  0.2931 -0.0235
   97SAPC   H8R 9555   6.351   4.205   3.201 -0.5970 -0.1134  0.8120
   97SAPC   C29 9556   6.374   4.219   3.418  0.7143  0.8306  0.1813
   97SAPC   H9R 9557   6.270   4.213   3.453  1.1012  0.4948  1.3184
   97SAPC  C210 9558   6.466   4.242   3.540  0.4577 -0.3540  0.5413
   97SAPC  H10R 9559   6.570   4.263   3.508  0.3451  0.1894  0.5290
   97SAPC  H10S 9560   6.466   4.153   3.607  0.6464 -0.1977  0.7525
   97SAPC  C211 9561   6.429   4.366   3.619  0.5703  0.0440 -0.2270
   97SAPC  H11R 9562   6.403   4.454   3.558  2.2066 -0.2178 -1.3646
   97SAPC  C212 9563   6.406   4.385   3.750  0.0389 -0.4242  0.1879
   97SAPC  H12R 9564   6.375   4.484   3.786 -2.1112 -1.2824  0.8347
   97SAPC  C213 9565   6.414   4.277   3.850 -0.3793  0.3097  0.0310
   97SAPC  H13R 9566   6.384   4.178   3.810 -3.2091  0.6507  1.0957
   97SAPC  H13S 9567   6.335   4.302   3.924 -0.4152  1.6608 -0.4441
   97SAPC  C214 9568   6.545   4.270   3.923  0.1200 -0.0377 -0.1972
   97SAPC  H14R 9569   6.638   4.302   3.874  0.3159 -2.0233 -1.2149
   97SAPC  C215 9570   6.557   4.216   4.045  0.2104 -0.9810 -0.4701
   97SAPC  H15R 9571   6.655   4.199   4.090  0.2939 -1.0839 -0.6903
   97SAPC  C216 9572   6.441   4.170   4.134 -0.3214 -0.4276  0.1489
   97SAPC  H16R 9573   6.483   4.079   4.181  3.1031  0.6213 -0.6013
   97SAPC  H16S 9574   6.356   4.125   4.077 -0.0527 -0.6664 -0.0686
   97SAPC  C217 9575   6.394   4.278   4.236 -0.2943  0.3491 -0.6968
   97SAPC  H17R 9576   6.299   4.321   4.197 -1.6583 -0.8446  1.1595
   97SAPC  H17S 9577   6.475   4.350   4.260 -0.9982  2.0815 -3.0306
   97SAPC  C218 9578   6.351   4.212   4.364  0.3437 -0.0006  0.1164
   97SAPC  H18R 9579   6.298   4.121   4.328  0.6837 -0.6391  1.1941
   97SAPC  H18S 9580   6.272   4.268   4.418 -0.2650  0.0014 -0.7492
   97SAPC  C219 9581   6.465   4.176   4.464 -0.2753  0.2903  0.1933
   97SAPC  H19R 9582   6.518   4.268   4.496  0.2885  0.1985 -0.4700
   97SAPC  H19S 9583   6.532   4.098   4.424 -3.0363 -2.7569  1.0043
   97SAPC  C220 9584   6.425   4.120   4.605  0.5552 -0.3181 -0.7079
   97SAPC  H20R 9585   6.507   4.128   4.680  1.1786 -0.8202 -1.3272
   97SAPC  H20S 9586   6.409   4.010   4.601 -3.5347  0.1095 -0.8828
   97SAPC  H20T 9587   6.332   4.162   4.650  1.2119  0.4738 -0.0584
   97SAPC   C33 9588   6.099   4.436   3.242 -0.0950  0.4974  0.4852
   97SAPC   H3X 9589   6.165   4.349   3.264 -1.0900 -0.3928  0.0460
   97SAPC   H3Y 9590   5.994   4.400   3.235  0.4320 -1.4434  1.6762
   97SAPC   C34 9591   6.131   4.538   3.357  0.3985 -0.8592 -0.4548
   97SAPC   H4X 9592   6.089   4.637   3.329 -3.6068 -2.7080 -1.7019
   97SAPC   H4Y 9593   6.238   4.538   3.386 -0.0462 -2.6447  1.4375
   97SAPC   C35 9594   6.058   4.489   3.482  0.3477 -0.2537  0.3813
   97SAPC   H5X 9595   6.093   4.383   3.493  1.0341  0.0025  0.7553
   97SAPC   H5Y 9596   5.948   4.476   3.475  0.2330  1.2178 -0.8670
   97SAPC   C36 9597   6.088   4.570   3.609  0.3351 -0.1357  0.3079
   97SAPC   H6X 9598   6.005   4.643   3.621  1.1491  0.4408  3.2515
   97SAPC   H6Y 9599   6.193   4.607   3.602  0.9198 -1.5733  0.9664
   97SAPC   C37 9600   6.080   4.481   3.736  0.1173 -0.4051  0.5686
   97SAPC   H7X 9601   6.156   4.400   3.725  1.4635  0.6442  1.8381
   97SAPC   H7Y 9602   5.976   4.442   3.742  0.1698 -0.6610 -0.0636
   97SAPC   C38 9603   6.098   4.567   3.867  0.4430 -0.1971  0.0847
   97SAPC   H8X 9604   6.029   4.654   3.861  1.0658  0.2301 -1.6076
   97SAPC   H8Y 9605   6.197   4.619   3.864 -0.9001  2.5876  0.4733
   97SAPC   C39 9606   6.082   4.491   3.998  1.3485  0.0670  0.2020
   97SAPC   H9X 9607   6.131   4.393   3.977  1.2720  0.3117 -1.2363
   97SAPC   H9Y 9608   5.976   4.467   4.020  1.6334 -0.5640  0.9122
   97SAPC  C310 9609   6.148   4.568   4.108  0.0161  0.4825  0.4351
   97SAPC  H10X 9610   6.129   4.676   4.089 -1.2407 -0.1255 -2.2250
   97SAPC  H10Y 9611   6.257   4.559   4.123  0.7611 -0.1249 -4.1057
   97SAPC  C311 9612   6.086   4.525   4.244  0.2537 -0.2798 -0.1320
   97SAPC  H11X 9613   6.126   4.423   4.265 -0.7153 -0.7016 -0.2947
   97SAPC  H11Y 9614   5.975   4.526   4.237  0.1394 -2.0718  0.8901
   97SAPC  C312 9615   6.146   4.618   4.352  0.3514 -0.6693 -0.0431
   97SAPC  H12X 9616   6.071   4.699   4.359  2.6518  1.6146 -0.3862
   97SAPC  H12Y 9617   6.242   4.659   4.314  0.0282  2.0492  1.8286
   97SAPC  C313 9618   6.179   4.548   4.489  0.0458 -0.1203 -0.0008
   97SAPC  H13X 9619   6.275   4.493   4.482  0.8946  1.1079  1.4173
   97SAPC  H13Y 9620   6.106   4.465   4.487 -0.5315  0.3857 -0.7126
   97SAPC  C314 9621   6.181   4.656   4.598  0.7975  0.4023  0.3603
   97SAPC  H14X 9622   6.090   4.720   4.593  0.9312  0.9352  3.2115
   97SAPC  H14Y 9623   6.261   4.729   4.574  1.2174  0.0511  0.6798
   97SAPC  C315 9624   6.193   4.586   4.728  0.2489  0.2701 -0.3917
   97SAPC  H15X 9625   6.264   4.500   4.720 -1.5198 -1.3481  0.6137
   97SAPC  H15Y 9626   6.097   4.542   4.762  1.5807 -2.5449 -0.0149
   97SAPC  C316 9627   6.251   4.674   4.846  0.1476 -0.1784  0.7744
   97SAPC  H16X 9628   6.357   4.707   4.832  0.0220  0.0042  0.2352
   97SAPC  H16Y 9629   6.255   4.621   4.943 -2.5403  0.5720  1.3582
   97SAPC  C317 9630   6.164   4.803   4.881  0.1017 -0.7859 -0.8504
   97SAPC  H17X 9631   6.140   4.857   4.787 -1.4979  4.5855  2.2286
   97SAPC  H17Y 9632   6.225   4.870   4.945 -3.1578 -0.4096  2.1357
   97SAPC  C318 9633   6.029   4.779   4.959 -0.3874 -0.0064 -0.1154
   97SAPC  H18X 9634   5.976   4.698   4.904  1.2204 -0.0699 -1.6772
   97SAPC  H18Y 9635   5.981   4.878   4.972  0.7124  0.4424  0.7132
   97SAPC  H18Z 9636   6.050   4.743   5.062 -2.0085 -0.8113 -0.0446
   98SAPC     N 9637   2.035   3.586   2.675 -0.0942 -0.3547  0.3994
   98SAPC   C12 9638   1.926   3.689   2.711 -0.4337 -0.3901  0.9270
   98SAPC  H12A 9639   1.836   3.631   2.727 -1.2238  0.4221 -0.4184
   98SAPC  H12B 9640   1.912   3.761   2.633  1.6219 -2.0787 -1.1231
   98SAPC   C13 9641   2.154   3.666   2.605 -0.6168  0.8842  0.4483
   98SAPC  H13A 9642   2.205   3.746   2.656  0.7148  1.0538 -1.0924
   98SAPC  H13B 9643   2.228   3.589   2.588 -1.6917  0.4751 -3.0814
   98SAPC  H13C 9644   2.119   3.698   2.508  0.5132 -1.0506 -0.6556
   98SAPC   C14 9645   2.090   3.513   2.794  0.7516 -0.1284  0.3408
   98SAPC  H14A 9646   2.149   3.576   2.859  0.1209  0.7079  0.1153
   98SAPC  H14B 9647   2.013   3.474   2.859  0.3661 -1.3772 -0.8226
   98SAPC  H14C 9648   2.135   3.417   2.772 -0.1453 -0.4121 -0.3096
   98SAPC   C15 9649   1.983   3.496   2.571  0.4544  0.2257 -0.3475
   98SAPC  H15A 9650   1.897   3.443   2.609  0.7567 -0.1603 -0.2028
   98SAPC  H15B 9651   1.958   3.538   2.475 -0.5400  1.3675  0.3881
   98SAPC  H15C 9652   2.063   3.425   2.556  0.4670 -0.2009  1.4924
   98SAPC   C11 9653   1.965   3.771   2.839 -0.5722  0.2018  0.2769
   98SAPC  H11A 9654   2.003   3.700   2.916  2.4266  0.8171 -0.5000
   98SAPC  H11B 9655   1.877   3.822   2.883  0.2521  0.5429  1.6141
   98SAPC     P 9656   2.043   3.992   2.719 -0.0706  0.2360  0.2560
   98SAPC   O13 9657   2.162   4.019   2.632  0.2999 -0.4262  0.3904
   98SAPC   O14 9658   1.917   3.979   2.641  0.3690 -0.0734 -0.0891
   98SAPC   O12 9659   2.063   3.868   2.815 -0.6925  0.5812 -1.0491
   98SAPC   O11 9660   2.028   4.105   2.822 -0.3169 -0.7320 -0.0476
   98SAPC    C1 9661   2.141   4.161   2.880  0.2682  0.1847 -0.0753
   98SAPC    HA 9662   2.237   4.153   2.825  1.7545  0.8371  2.2854
   98SAPC    HB 9663   2.125   4.271   2.890  1.7393  0.4840 -0.7351
   98SAPC    C2 9664   2.177   4.108   3.027  0.0367 -0.0448  0.6348
   98SAPC    HS 9665   2.205   4.002   3.013  1.3295  0.5502 -1.7240
   98SAPC   O21 9666   2.062   4.131   3.115 -0.4898  0.1798  0.2935
   98SAPC   C21 9667   2.028   4.030   3.200 -0.1239 -1.2375 -0.1467
   98SAPC   O22 9668   2.088   3.928   3.215  0.6377 -0.5151  0.0353
   98SAPC   C22 9669   1.907   4.080   3.281  0.2801  1.2214 -0.4907
   98SAPC   H2R 9670   1.941   4.172   3.333 -1.3828  2.1588 -0.9882
   98SAPC   H2S 9671   1.829   4.102   3.205 -3.4203 -1.9317  2.0513
   98SAPC    C3 9672   2.292   4.199   3.072 -0.0638 -0.6122  0.1405
   98SAPC    HX 9673   2.257   4.304   3.062 -1.6545 -1.2611 -1.6771
   98SAPC    HY 9674   2.376   4.191   2.999 -1.0800  1.5659 -1.3902
   98SAPC   O31 9675   2.334   4.178   3.213  0.4378  0.2691  0.8847
   98SAPC   C31 9676   2.412   4.069   3.232 -0.4096  0.6945 -0.3874
   98SAPC   O32 9677   2.447   3.990   3.145 -0.1104  0.6800 -0.0396
   98SAPC   C32 9678   2.443   4.048   3.382  0.4707  0.0523 -0.3177
   98SAPC   H2X 9679   2.502   4.136   3.417  1.3928 -1.1233  1.2054
   98SAPC   H2Y 9680   2.490   3.949   3.395  0.5946  0.2979  1.2898
   98SAPC   C23 9681   1.861   3.964   3.377 -0.0775  0.0741 -1.0360
   98SAPC   H3R 9682   1.951   3.925   3.430  0.3482 -0.3429 -2.0258
   98SAPC   H3S 9683   1.806   3.882   3.325  0.2460 -1.2317  0.5769
   98SAPC   C24 9684   1.766   4.027   3.485  0.1294 -0.2172  0.0674
   98SAPC   H4R 9685   1.686   4.075   3.426 -1.0275 -1.7214  0.3491
   98SAPC   H4S 9686   1.826   4.108   3.532 -0.1637 -0.1892  0.4005
   98SAPC   C25 9687   1.711   3.912   3.572 -0.1782  0.4062  0.4220
   98SAPC   H5R 9688   1.681   3.828   3.507  0.7404  0.5176 -0.1537
   98SAPC   C26 9689   1.699   3.905   3.699  0.6428  0.3879 -0.2333
   98SAPC   H6R 9690   1.642   3.822   3.743 -3.3012  3.5644  1.2124
   98SAPC   C27 9691   1.732   4.011   3.798  0.1472  0.0625 -0.3997
   98SAPC   H7R 9692   1.649   4.083   3.813 -1.4606 -1.4841 -1.4966
   98SAPC   H7S 9693   1.817   4.078   3.774 -0.7929  1.2289 -0.5763
   98SAPC   C28 9694   1.759   3.946   3.929 -0.8699 -0.3606  0.4339
   98SAPC   H8R 9695   1.791   3.842   3.916  1.4091  0.2044  1.0853
   98SAPC   C29 9696   1.750   3.998   4.053 -0.4330 -0.1086 -0.2243
   98SAPC   H9R 9697   1.774   3.923   4.129  2.2474 -0.5976 -1.4378
   98SAPC  C210 9698   1.730   4.140   4.089 -0.3328  0.3242  0.4425
   98SAPC  H10R 9699   1.685   4.192   4.002  0.4402  1.3554  0.6376
   98SAPC  H10S 9700   1.829   4.189   4.083 -0.6596  0.8646 -0.7117
   98SAPC  C211 9701   1.664   4.168   4.224  0.2554 -0.4186 -0.2645
   98SAPC  H11R 9702   1.732   4.176   4.311  0.9715 -0.4766 -0.8126
   98SAPC  C212 9703   1.540   4.217   4.236  0.4098  0.8347 -0.0541
   98SAPC  H12R 9704   1.490   4.244   4.330  1.0405 -1.0456  0.8729
   98SAPC  C213 9705   1.446   4.234   4.118  0.2815 -0.7820 -0.5733
   98SAPC  H13R 9706   1.343   4.224   4.159  1.3755  1.4565  3.2438
   98SAPC  H13S 9707   1.472   4.151   4.049 -0.6117  0.7142 -2.8113
   98SAPC  C214 9708   1.469   4.370   4.055 -0.3715  0.4974  0.0071
   98SAPC  H14R 9709   1.506   4.452   4.118  0.4538  2.2818 -2.6238
   98SAPC  C215 9710   1.451   4.389   3.923 -0.5103 -0.2894 -0.6782
   98SAPC  H15R 9711   1.454   4.492   3.886 -1.7296 -0.0256 -0.0650
   98SAPC  C216 9712   1.421   4.280   3.824 -0.3256  0.4847 -0.2714
   98SAPC  H16R 9713   1.315   4.248   3.838 -0.5709  1.2643 -0.2972
   98SAPC  H16S 9714   1.498   4.200   3.831 -0.9607 -0.0799  0.4160
   98SAPC  C217 9715   1.429   4.338   3.677  0.3139 -0.7265 -0.5639
   98SAPC  H17R 9716   1.449   4.253   3.609  1.0802 -0.6354 -0.4629
   98SAPC  H17S 9717   1.513   4.411   3.678 -1.3485  1.2847 -0.5531
   98SAPC  C218 9718   1.310   4.411   3.623  0.6893  0.3438  0.4980
   98SAPC  H18R 9719   1.338   4.443   3.520  2.1444  1.9168  1.3297
   98SAPC  H18S 9720   1.283   4.510   3.666  0.1446  0.3105  0.2323
   98SAPC  C219 9721   1.181   4.332   3.623 -0.3935 -0.4176  0.3173
   98SAPC  H19R 9722   1.164   4.303   3.728 -1.5538  2.1155  0.9138
   98SAPC  H19S 9723   1.206   4.236   3.573  0.4952  0.1185 -0.3039
   98SAPC  C220 9724   1.066   4.406   3.552  0.3008 -0.1954 -1.0421
   98SAPC  H20R 9725   0.975   4.343   3.555  1.4817 -1.9176  1.1326
   98SAPC  H20S 9726   1.096   4.433   3.448 -0.1400  2.8662 -0.4770
   98SAPC  H20T 9727   1.053   4.497   3.614  0.2260 -1.3813  0.7514
   98SAPC   C33 9728   2.308   4.051   3.475 -0.5233  0.4456  0.3117
   98SAPC   H3X 9729   2.247   3.962   3.449  2.0654 -0.6558 -2.7610
   98SAPC   H3Y 9730   2.242   4.137   3.450  0.6416  1.0188 -0.9405
   98SAPC   C34 9731   2.354   4.038   3.621  1.2401 -0.1966  0.9072
   98SAPC   H4X 9732   2.409   4.130   3.652  1.0249  1.4658 -3.1197
   98SAPC   H4Y 9733   2.410   3.942   3.630 -0.7723 -1.4770  0.5416
   98SAPC   C35 9734   2.227   4.027   3.705 -0.3056  0.3842  0.1455
   98SAPC   H5X 9735   2.169   3.937   3.676 -0.2980  0.3570  0.2171
   98SAPC   H5Y 9736   2.175   4.123   3.683 -0.7259  0.4277  1.2938
   98SAPC   C36 9737   2.261   4.017   3.857  0.7820  0.5897  0.7650
   98SAPC   H6X 9738   2.314   4.105   3.897 -2.2462  1.7066  2.6729
   98SAPC   H6Y 9739   2.322   3.925   3.875 -1.5134 -0.9248  1.2649
   98SAPC   C37 9740   2.136   3.986   3.946  0.2534  0.0691  1.3622
   98SAPC   H7X 9741   2.067   3.904   3.916  1.8551 -1.9677  2.9073
   98SAPC   H7Y 9742   2.075   4.077   3.964 -0.1284  0.0313  0.2921
   98SAPC   C38 9743   2.187   3.939   4.081 -1.0273 -1.1015 -1.0259
   98SAPC   H8X 9744   2.257   4.021   4.110 -2.5827  0.8551 -2.5069
   98SAPC   H8Y 9745   2.238   3.846   4.050 -2.0914 -2.1275  0.2110
   98SAPC   C39 9746   2.079   3.936   4.186 -0.0083 -0.2413 -0.8834
   98SAPC   H9X 9747   2.004   3.863   4.150 -2.0010  1.6146 -0.6890
   98SAPC   H9Y 9748   2.036   4.037   4.207  0.8673 -0.0511  0.0594
   98SAPC  C310 9749   2.130   3.888   4.326 -0.3338 -0.9337  0.2969
   98SAPC  H10X 9750   2.046   3.876   4.398 -0.0117  1.7511  1.2158
   98SAPC  H10Y 9751   2.183   3.975   4.371 -2.7032  1.3298 -1.0344
   98SAPC  C311 9752   2.223   3.768   4.330 -0.6877 -0.2671  0.1623
   98SAPC  H11X 9753   2.272   3.742   4.427 -1.0451 -1.9843 -0.0750
   98SAPC  H11Y 9754   2.304   3.796   4.260 -1.3237  1.5052  0.0801
   98SAPC  C312 9755   2.147   3.642   4.297 -0.0250 -0.2465  1.0068
   98SAPC  H12X 9756   2.226   3.564   4.289 -1.5358 -2.1254  3.4514
   98SAPC  H12Y 9757   2.097   3.663   4.200  1.2881  1.5449  0.6502
   98SAPC  C313 9758   2.049   3.584   4.408 -0.0572 -0.1601  0.1498
   98SAPC  H13X 9759   1.991   3.666   4.456  0.0303 -0.5840  0.9981
   98SAPC  H13Y 9760   2.122   3.549   4.484  1.1094 -0.6888 -1.1754
   98SAPC  C314 9761   1.959   3.463   4.361 -0.0835 -0.1217  0.0248
   98SAPC  H14X 9762   1.913   3.416   4.450 -0.7708  0.3639 -0.0694
   98SAPC  H14Y 9763   2.016   3.380   4.313  1.4755 -0.4594  2.2765
   98SAPC  C315 9764   1.845   3.509   4.274  0.7929  0.4469 -0.7805
   98SAPC  H15X 9765   1.894   3.548   4.182  1.4134 -0.2229 -0.7399
   98SAPC  H15Y 9766   1.792   3.587   4.333  0.1339  0.2365 -1.0835
   98SAPC  C316 9767   1.738   3.403   4.233 -0.8046 -0.2934  0.1475
   98SAPC  H16X 9768   1.715   3.351   4.329  2.0758 -1.3395  0.3557
   98SAPC  H16Y 9769   1.775   3.334   4.155 -2.4672  0.1820 -1.1114
   98SAPC  C317 9770   1.613   3.468   4.171  0.4591 -0.1817  0.0774
   98SAPC  H17X 9771   1.635   3.525   4.078 -0.6701 -2.0268 -1.3762
   98SAPC  H17Y 9772   1.582   3.546   4.244  0.3463  0.2791 -0.4588
   98SAPC  C318 9773   1.501   3.371   4.137 -0.3883 -0.4849 -0.2898
   98SAPC  H18X 9774   1.524   3.304   4.052  0.4555  0.7115 -1.0307
   98SAPC  H18Y 9775   1.417   3.438   4.110 -0.5034  0.6384  2.4567
   98SAPC  H18Z 9776   1.479   3.306   4.225  2.2461 -2.1197 -0.7271
   99SAPC     N 9777   0.678   1.374   2.232 -0.1511 -0.0402 -0.0621
   99SAPC   C12 9778   0.804   1.301   2.177  0.2483 -0.3938 -0.1209
   99SAPC  H12A 9779   0.855   1.365   2.107 -0.6154 -1.3349 -1.6456
   99SAPC  H12B 9780   0.765   1.223   2.114 -0.6849  1.0799 -1.4059
   99SAPC   C13 9781   0.568   1.389   2.127 -0.1879 -0.5654 -0.2829
   99SAPC  H13A 9782   0.525   1.301   2.082 -2.2826  0.7141 -0.8895
   99SAPC  H13B 9783   0.480   1.434   2.170 -0.1520 -2.4099  1.8977
   99SAPC  H13C 9784   0.604   1.454   2.049  0.9476  0.5520  1.1248
   99SAPC   C14 9785   0.625   1.284   2.337 -0.4582 -0.0040 -0.1555
   99SAPC  H14A 9786   0.592   1.188   2.299 -0.8777  1.0859 -2.7637
   99SAPC  H14B 9787   0.708   1.259   2.401 -0.9853 -1.7915 -0.1107
   99SAPC  H14C 9788   0.542   1.321   2.395 -1.5559 -0.0563 -1.6245
   99SAPC   C15 9789   0.721   1.504   2.296 -0.3423 -0.5934  0.1575
   99SAPC  H15A 9790   0.806   1.493   2.363  0.1477  0.5607 -0.2499
   99SAPC  H15B 9791   0.751   1.579   2.225  0.0830 -1.0914 -0.2012
   99SAPC  H15C 9792   0.639   1.547   2.351  0.1796  0.6465 -0.0162
   99SAPC   C11 9793   0.897   1.232   2.279  0.7618  0.4762 -0.5182
   99SAPC  H11A 9794   0.988   1.190   2.232  0.2754 -0.6617 -0.4553
   99SAPC  H11B 9795   0.843   1.148   2.326 -0.3603  0.7889 -1.2140
   99SAPC     P 9796   1.077   1.330   2.445  0.3117  0.0291 -0.2179
   99SAPC   O13 9797   1.149   1.209   2.413 -0.6762 -0.0544 -0.3000
   99SAPC   O14 9798   1.139   1.455   2.396  0.2969  0.0968  0.1161
   99SAPC   O12 9799   0.933   1.319   2.388 -0.6491  0.4761  0.1984
   99SAPC   O11 9800   1.067   1.329   2.606 -0.1970 -0.6784  0.1017
   99SAPC    C1 9801   0.954   1.256   2.651 -0.4773 -0.3753  0.0591
   99SAPC    HA 9802   0.861   1.308   2.620 -1.4802 -1.9723  0.2775
   99SAPC    HB 9803   0.959   1.149   2.624  0.8750 -0.0814 -0.9562
   99SAPC    C2 9804   0.946   1.258   2.806 -0.1032  0.5115 -0.8290
   99SAPC    HS 9805   0.947   1.366   2.832 -2.2024 -0.0008  1.7288
   99SAPC   O21 9806   1.048   1.188   2.870 -0.8722 -0.3635  0.0975
   99SAPC   C21 9807   1.087   1.234   2.991 -0.2341 -0.6039 -0.2690
   99SAPC   O22 9808   1.075   1.352   3.027 -0.1637 -0.0864 -0.0081
   99SAPC   C22 9809   1.168   1.124   3.063 -0.0363 -0.3391 -0.3018
   99SAPC   H2R 9810   1.101   1.036   3.062 -0.5635  0.0623 -1.2668
   99SAPC   H2S 9811   1.268   1.117   3.015  0.6763  0.8800  0.9066
   99SAPC    C3 9812   0.807   1.202   2.859  0.0281 -0.6296  0.7312
   99SAPC    HX 9813   0.794   1.092   2.846  3.6616 -1.1382  0.3535
   99SAPC    HY 9814   0.737   1.264   2.799  2.1018 -0.2995 -1.5555
   99SAPC   O31 9815   0.795   1.213   2.999  0.3804  0.1373  0.2666
   99SAPC   C31 9816   0.750   1.326   3.045 -0.3668  0.4698  1.1583
   99SAPC   O32 9817   0.701   1.414   2.979  0.0300  0.0185  0.3256
   99SAPC   C32 9818   0.779   1.343   3.195  0.1877 -0.1204  0.1018
   99SAPC   H2X 9819   0.874   1.292   3.220  1.0495  2.3844  2.3596
   99SAPC   H2Y 9820   0.696   1.297   3.252 -0.6727  0.7215 -0.4232
   99SAPC   C23 9821   1.193   1.169   3.208  0.3957  0.7693  0.0470
   99SAPC   H3R 9822   1.101   1.165   3.270  0.9322  2.0297  0.9594
   99SAPC   H3S 9823   1.213   1.276   3.228  1.3514  0.5830  0.1285
   99SAPC   C24 9824   1.299   1.080   3.276 -0.0701 -0.8438 -0.2846
   99SAPC   H4R 9825   1.272   0.973   3.263 -1.8383 -0.4024 -0.4822
   99SAPC   H4S 9826   1.301   1.107   3.384 -0.7416 -1.0005 -0.2269
   99SAPC   C25 9827   1.438   1.109   3.224  0.5600  0.7260  0.3934
   99SAPC   H5R 9828   1.439   1.126   3.115 -1.5362  1.4396  0.4233
   99SAPC   C26 9829   1.543   1.148   3.293 -0.4030 -0.6716  0.4831
   99SAPC   H6R 9830   1.633   1.180   3.239 -1.3863 -0.1582 -0.9155
   99SAPC   C27 9831   1.565   1.134   3.444  0.1789 -0.2139 -0.3017
   99SAPC   H7R 9832   1.673   1.116   3.465  0.0019  0.9219  1.7317
   99SAPC   H7S 9833   1.510   1.046   3.484 -0.6902  1.6453  2.8169
   99SAPC   C28 9834   1.520   1.255   3.516  0.3468 -0.7378 -0.2146
   99SAPC   H8R 9835   1.527   1.350   3.461  0.8455 -1.0640 -0.7217
   99SAPC   C29 9836   1.500   1.273   3.652 -0.6607 -0.1355  0.0060
   99SAPC   H9R 9837   1.457   1.370   3.680 -0.1885  0.0909 -0.0442
   99SAPC  C210 9838   1.482   1.157   3.751  0.0174  0.4489  0.2458
   99SAPC  H10R 9839   1.562   1.167   3.828 -0.7409 -2.2694  1.5069
   99SAPC  H10S 9840   1.501   1.055   3.710 -3.9907  0.1205 -1.1893
   99SAPC  C211 9841   1.351   1.155   3.834  0.6229  0.0298  0.6466
   99SAPC  H11R 9842   1.282   1.069   3.831  1.1778 -0.4053  0.2371
   99SAPC  C212 9843   1.322   1.232   3.938  0.3314  0.0539  0.1340
   99SAPC  H12R 9844   1.234   1.213   4.001 -0.8802 -0.9612 -1.7486
   99SAPC  C213 9845   1.410   1.341   3.991 -0.3533 -0.1872 -0.8298
   99SAPC  H13R 9846   1.366   1.443   3.997  0.0083 -0.1086  0.8133
   99SAPC  H13S 9847   1.509   1.346   3.941  2.0486 -1.1675  3.3768
   99SAPC  C214 9848   1.460   1.308   4.125  0.2890  0.3414 -0.4554
   99SAPC  H14R 9849   1.492   1.203   4.134  2.5307  0.9856 -0.3287
   99SAPC  C215 9850   1.479   1.389   4.230 -0.6587 -0.4124  0.4057
   99SAPC  H15R 9851   1.529   1.350   4.320 -0.0457 -3.5574 -1.1625
   99SAPC  C216 9852   1.469   1.538   4.234  0.0114  0.3425  0.4144
   99SAPC  H16R 9853   1.373   1.573   4.189  0.4604  1.0565 -0.0163
   99SAPC  H16S 9854   1.550   1.582   4.171  1.3413 -0.8232  1.2465
   99SAPC  C217 9855   1.483   1.583   4.384  0.2270  0.2542 -0.1884
   99SAPC  H17R 9856   1.492   1.693   4.376  0.6814  0.1266 -2.0191
   99SAPC  H17S 9857   1.576   1.551   4.434 -0.1346  1.4539  1.3436
   99SAPC  C218 9858   1.371   1.542   4.483 -0.4553 -0.1585 -0.0643
   99SAPC  H18R 9859   1.401   1.594   4.576  0.3449 -1.3117  0.3536
   99SAPC  H18S 9860   1.378   1.433   4.505 -0.5503  0.4762  3.6531
   99SAPC  C219 9861   1.237   1.577   4.424 -0.0873 -0.4350  0.3318
   99SAPC  H19R 9862   1.214   1.515   4.335  0.6410 -1.7536  1.0430
   99SAPC  H19S 9863   1.244   1.685   4.396  2.1397 -0.5861  0.0764
   99SAPC  C220 9864   1.122   1.568   4.520 -0.5044  0.4634 -0.4373
   99SAPC  H20R 9865   1.159   1.613   4.615 -1.2775 -1.4612  0.8402
   99SAPC  H20S 9866   1.078   1.467   4.532  0.4646  0.0409 -0.3750
   99SAPC  H20T 9867   1.034   1.625   4.483  0.6701  1.8139 -1.2483
   99SAPC   C33 9868   0.792   1.492   3.232 -0.6398 -0.4139 -1.1247
   99SAPC   H3X 9869   0.699   1.552   3.218 -0.3942  0.8437  1.8868
   99SAPC   H3Y 9870   0.877   1.524   3.168  1.4968 -1.6914  0.8983
   99SAPC   C34 9871   0.844   1.500   3.378  0.0556  0.2942 -0.3265
   99SAPC   H4X 9872   0.945   1.455   3.379 -0.2222 -0.3496  0.4778
   99SAPC   H4Y 9873   0.783   1.433   3.442  0.0785 -2.8838 -3.3029
   99SAPC   C35 9874   0.857   1.640   3.447 -0.4080 -0.4588 -0.0822
   99SAPC   H5X 9875   0.860   1.720   3.370 -2.0144 -2.4312 -2.3486
   99SAPC   H5Y 9876   0.958   1.636   3.492 -0.6848 -3.4180  0.4590
   99SAPC   C36 9877   0.740   1.681   3.536  0.4532 -0.4213  0.6632
   99SAPC   H6X 9878   0.727   1.596   3.606  1.8775 -3.3216 -2.3098
   99SAPC   H6Y 9879   0.646   1.680   3.477  0.5027  1.5983  0.4742
   99SAPC   C37 9880   0.755   1.815   3.608  0.0871 -0.0984 -0.2648
   99SAPC   H7X 9881   0.790   1.897   3.541  0.8646  2.6234  3.1888
   99SAPC   H7Y 9882   0.840   1.798   3.677  0.8685 -0.7000 -1.3423
   99SAPC   C38 9883   0.628   1.869   3.671  0.3928 -0.1422  0.2126
   99SAPC   H8X 9884   0.563   1.793   3.718 -1.2923  1.5263  0.7390
   99SAPC   H8Y 9885   0.565   1.924   3.598 -1.1131  0.5386  1.9374
   99SAPC   C39 9886   0.660   1.967   3.779 -0.4900  0.0158  0.4860
   99SAPC   H9X 9887   0.582   2.042   3.802 -2.2465 -1.6573  0.2056
   99SAPC   H9Y 9888   0.741   2.029   3.734 -1.4786  0.7525 -0.3181
   99SAPC  C310 9889   0.704   1.897   3.914 -0.9678  0.3796 -0.7986
   99SAPC  H10X 9890   0.742   1.974   3.985  0.2118 -1.9597  1.2704
   99SAPC  H10Y 9891   0.782   1.822   3.888 -0.5496  1.3429 -2.4887
   99SAPC  C311 9892   0.591   1.817   3.978  0.2887 -0.1711 -0.6045
   99SAPC  H11X 9893   0.562   1.729   3.916  0.3432 -0.7065  0.1058
   99SAPC  H11Y 9894   0.498   1.877   3.988  0.1886 -0.6064  1.6855
   99SAPC  C312 9895   0.635   1.772   4.120  0.2599  0.4386  0.3023
   99SAPC  H12X 9896   0.745   1.756   4.124  0.4115  1.3998  0.1964
   99SAPC  H12Y 9897   0.587   1.675   4.147  1.2574  0.3272  1.8117
   99SAPC  C313 9898   0.592   1.871   4.236 -1.1350  0.4205 -0.2782
   99SAPC  H13X 9899   0.485   1.849   4.258 -0.2687 -2.5554  1.5577
   99SAPC  H13Y 9900   0.598   1.969   4.185 -1.1022  0.0368 -1.0286
   99SAPC  C314 9901   0.685   1.864   4.361  0.0927 -0.5317 -0.1976
   99SAPC  H14X 9902   0.711   1.963   4.404 -1.1530 -0.1269 -0.3472
   99SAPC  H14Y 9903   0.779   1.817   4.326  0.3307  0.0477 -0.3414
   99SAPC  C315 9904   0.626   1.781   4.473  0.3025 -0.5172  0.0481
   99SAPC  H15X 9905   0.597   1.679   4.439 -1.7348  0.3963 -1.1052
   99SAPC  H15Y 9906   0.531   1.833   4.494  1.5955  2.0205 -0.0488
   99SAPC  C316 9907   0.715   1.785   4.591 -1.0131 -0.5424  0.7968
   99SAPC  H16X 9908   0.695   1.880   4.645 -1.2160 -0.0393 -0.1434
   99SAPC  H16Y 9909   0.822   1.790   4.562 -0.8939  1.8796  1.4465
   99SAPC  C317 9910   0.683   1.683   4.694 -0.2262  0.5152 -0.1554
   99SAPC  H17X 9911   0.684   1.586   4.640  0.2247 -0.3265  1.2787
   99SAPC  H17Y 9912   0.578   1.686   4.731 -0.1451 -1.6786  0.4548
   99SAPC  C318 9913   0.772   1.688   4.814 -0.2960 -0.6920 -0.5825
   99SAPC  H18X 9914   0.753   1.782   4.870  2.8096  0.4435 -1.2268
   99SAPC  H18Y 9915   0.879   1.678   4.787  0.3333 -0.1993  1.4869
   99SAPC  H18Z 9916   0.746   1.610   4.889 -0.9387 -0.2256 -0.3127
  100SAPC     N 9917   6.038   0.911   2.824 -0.4258 -1.0339  0.5651
  100SAPC   C12 9918   5.964   0.841   2.933 -0.1875  0.0860 -0.7180
  100SAPC  H12A 9919   6.046   0.797   2.988  0.8752  2.4373 -0.2926
  100SAPC  H12B 9920   5.904   0.759   2.895 -0.5082  1.4039 -3.2639
  100SAPC   C13 9921   6.130   1.021   2.886 -0.8072  0.6933 -0.0409
  100SAPC  H13A 9922   6.068   1.098   2.929 -0.6721  0.7422  0.0667
  100SAPC  H13B 9923   6.189   0.979   2.966 -1.1064  0.4112  0.0379
  100SAPC  H13C 9924   6.199   1.066   2.816  0.2940 -0.3798  0.3153
  100SAPC   C14 9925   6.123   0.813   2.744 -0.3007 -0.5030 -0.0272
  100SAPC  H14A 9926   6.071   0.741   2.682  0.2720 -1.4019  0.5235
  100SAPC  H14B 9927   6.186   0.869   2.675 -1.2212  0.7144  0.0803
  100SAPC  H14C 9928   6.179   0.759   2.818  0.2051  1.1528  0.8597
  100SAPC   C15 9929   5.939   0.980   2.727  0.3973  0.0445  0.0767
  100SAPC  H15A 9930   5.892   0.913   2.657  0.6066  1.2462 -1.2755
  100SAPC  H15B 9931   5.857   1.024   2.781  0.6895 -2.6880  2.9951
  100SAPC  H15C 9932   5.984   1.060   2.669  0.4624 -0.8816 -1.1859
  100SAPC   C11 9933   5.874   0.930   3.021 -0.1717  0.3935  0.1265
  100SAPC  H11A 9934   5.943   1.005   3.064  1.0816 -1.3339  1.2392
  100SAPC  H11B 9935   5.843   0.870   3.109 -1.9208  0.5542 -0.3400
  100SAPC     P 9936   5.642   0.867   2.925 -0.0780 -0.4287 -0.1313
  100SAPC   O13 9937   5.543   0.923   2.830 -0.1254  0.4554  0.1474
  100SAPC   O14 9938   5.715   0.741   2.885  0.3391  0.0077  0.3709
  100SAPC   O12 9939   5.752   0.977   2.960  0.1654  0.4228  0.0905
  100SAPC   O11 9940   5.581   0.843   3.070  0.3761 -0.2107  0.0424
  100SAPC    C1 9941   5.495   0.940   3.135 -0.0062 -1.0041  0.0209
  100SAPC    HA 9942   5.457   1.019   3.066  0.3310 -0.8093  0.0522
  100SAPC    HB 9943   5.405   0.890   3.177 -0.5301  0.0974  0.2474
  100SAPC    C2 9944   5.575   1.013   3.245  0.0485 -0.3990 -0.1536
  100SAPC    HS 9945   5.672   1.046   3.203  0.3637  1.3044  1.7696
  100SAPC   O21 9946   5.594   0.934   3.358 -0.0957  0.1643 -0.4861
  100SAPC   C21 9947   5.694   0.962   3.440  0.2544  0.3564 -0.7273
  100SAPC   O22 9948   5.777   1.050   3.425 -0.0400  0.1369  0.0933
  100SAPC   C22 9949   5.688   0.863   3.562  0.1520 -0.0167  0.3354
  100SAPC   H2R 9950   5.610   0.786   3.541 -1.7485  1.6141  1.0234
  100SAPC   H2S 9951   5.787   0.815   3.570 -0.6538 -1.5401  1.8165
  100SAPC    C3 9952   5.514   1.145   3.284  0.0148  0.4853  0.1328
  100SAPC    HX 9953   5.429   1.122   3.352 -0.8955 -1.0578 -1.4252
  100SAPC    HY 9954   5.472   1.195   3.194 -1.2442 -2.0550 -0.7937
  100SAPC   O31 9955   5.603   1.232   3.354 -0.3426 -0.4646  0.2064
  100SAPC   C31 9956   5.553   1.322   3.442 -0.5530 -0.4249 -0.5012
  100SAPC   O32 9957   5.440   1.317   3.483 -0.4370 -0.3581  0.3991
  100SAPC   C32 9958   5.656   1.431   3.470 -0.3627  0.1129  0.5655
  100SAPC   H2X 9959   5.667   1.485   3.374  0.8411  1.1842  1.2839
  100SAPC   H2Y 9960   5.748   1.374   3.495 -1.5216 -1.6019  1.1315
  100SAPC   C23 9961   5.640   0.934   3.697  0.8349 -0.2975  0.1633
  100SAPC   H3R 9962   5.726   0.992   3.738  0.3591 -1.4974  3.1147
  100SAPC   H3S 9963   5.615   0.855   3.772  0.3446  0.1615  0.4924
  100SAPC   C24 9964   5.520   1.037   3.693 -0.2171  0.8832  0.2492
  100SAPC   H4R 9965   5.548   1.116   3.620 -1.7072  0.5947 -0.6877
  100SAPC   H4S 9966   5.514   1.076   3.797 -0.7738 -0.3739  0.7129
  100SAPC   C25 9967   5.396   0.970   3.636  0.2019  0.2390 -0.5776
  100SAPC   H5R 9968   5.397   0.918   3.539 -2.0079  0.2007 -0.6390
  100SAPC   C26 9969   5.277   0.965   3.694 -0.4372 -0.1009 -0.0960
  100SAPC   H6R 9970   5.194   0.934   3.628  1.1491 -2.8262 -0.9405
  100SAPC   C27 9971   5.232   1.027   3.820  0.1494 -0.2364  0.3717
  100SAPC   H7R 9972   5.316   1.070   3.879  0.4755  0.4801 -0.5998
  100SAPC   H7S 9973   5.187   0.951   3.887 -0.8839 -0.2371 -0.3089
  100SAPC   C28 9974   5.125   1.133   3.796 -0.2112 -0.0829 -0.1770
  100SAPC   H8R 9975   5.167   1.229   3.765  1.8506 -0.7622  0.3676
  100SAPC   C29 9976   4.992   1.124   3.818  0.8438  0.2295  0.0396
  100SAPC   H9R 9977   4.929   1.212   3.796  0.6236  0.3073  0.9497
  100SAPC  C210 9978   4.917   1.000   3.850 -0.6711 -0.3556  0.2238
  100SAPC  H10R 9979   4.820   1.021   3.901 -0.1508  0.0816  1.0673
  100SAPC  H10S 9980   4.958   0.939   3.934  0.2774 -0.2657 -0.1638
  100SAPC  C211 9981   4.905   0.910   3.736  0.3320  0.0813  0.0643
  100SAPC  H11R 9982   4.953   0.939   3.641  1.0929 -0.1638  0.3654
  100SAPC  C212 9983   4.830   0.801   3.727 -0.1515  0.1958 -0.5937
  100SAPC  H12R 9984   4.810   0.760   3.627 -0.2896 -1.6659  0.1532
  100SAPC  C213 9985   4.755   0.748   3.846  0.3842  0.1704 -0.3107
  100SAPC  H13R 9986   4.722   0.836   3.905 -1.0435 -1.7346  1.9026
  100SAPC  H13S 9987   4.821   0.695   3.919 -0.8984  0.9314  1.4632
  100SAPC  C214 9988   4.645   0.655   3.821 -0.1514 -0.2460  0.4854
  100SAPC  H14R 9989   4.617   0.648   3.715 -0.3575 -1.5558  0.6085
  100SAPC  C215 9990   4.589   0.574   3.908  0.3817 -0.2946  0.2814
  100SAPC  H15R 9991   4.504   0.513   3.876  0.0888 -0.2215  0.9028
  100SAPC  C216 9992   4.613   0.577   4.057 -0.1915  0.2299  0.0943
  100SAPC  H16R 9993   4.650   0.676   4.092 -1.0164  1.1156 -1.4198
  100SAPC  H16S 9994   4.678   0.495   4.096  0.8017  1.1061  0.3286
  100SAPC  C217 9995   4.480   0.543   4.121 -0.5190 -0.2605 -0.1465
  100SAPC  H17R 9996   4.406   0.611   4.073 -1.4906 -0.3558  1.1609
  100SAPC  H17S 9997   4.495   0.579   4.225  0.5027  1.2620 -0.7959
  100SAPC  C218 9998   4.426   0.403   4.096 -0.2317  0.2861 -0.6391
  100SAPC  H18R 9999   4.513   0.340   4.125 -0.1761  0.2274 -0.9325
  100SAPC  H18S10000   4.424   0.377   3.988  2.2607  0.0878 -0.7037
  100SAPC  C21910001   4.301   0.375   4.183  0.8139 -0.5471  0.7865
  100SAPC  H19R10002   4.212   0.432   4.151  1.0600  0.2919  1.5255
  100SAPC  H19S10003   4.317   0.408   4.288 -0.3867  0.8332  0.5599
  100SAPC  C22010004   4.266   0.223   4.187  0.3710  0.9401 -0.0607
  100SAPC  H20R10005   4.273   0.169   4.090  0.1609 -1.4170  1.1653
  100SAPC  H20S10006   4.163   0.212   4.227  0.6228  3.5919  1.5719
  100SAPC  H20T10007   4.331   0.169   4.258  1.1518  2.5349  0.5014
  100SAPC   C3310008   5.612   1.524   3.584 -0.0810  0.3137 -0.0154
  100SAPC   H3X10009   5.514   1.573   3.567 -0.2729 -0.0759 -0.0229
  100SAPC   H3Y10010   5.677   1.614   3.569  0.0178 -0.0573 -1.9527
  100SAPC   C3410011   5.628   1.464   3.726  0.9365  0.0919  0.8088
  100SAPC   H4X10012   5.664   1.545   3.794  1.4694 -0.9762  1.8344
  100SAPC   H4Y10013   5.678   1.366   3.740 -2.4902 -1.6319  2.1915
  100SAPC   C3510014   5.493   1.440   3.793  0.3081  0.3081 -0.3984
  100SAPC   H5X10015   5.435   1.355   3.750  1.8648 -0.8357 -0.3442
  100SAPC   H5Y10016   5.431   1.532   3.800 -2.6594 -1.6077  0.4123
  100SAPC   C3610017   5.509   1.405   3.941  0.0875  0.1419  0.3950
  100SAPC   H6X10018   5.560   1.494   3.985  2.2289  1.1355 -3.5864
  100SAPC   H6Y10019   5.579   1.322   3.966 -1.4316 -1.1781  0.3838
  100SAPC   C3710020   5.374   1.383   4.007 -0.1895  0.0105  0.0943
  100SAPC   H7X10021   5.314   1.321   3.938 -0.2347 -0.0301  0.1705
  100SAPC   H7Y10022   5.320   1.478   4.027  1.9551  1.7819 -1.8657
  100SAPC   C3810023   5.410   1.315   4.139 -0.2734 -0.5096 -0.9032
  100SAPC   H8X10024   5.475   1.226   4.123  0.5884  0.2906 -2.1037
  100SAPC   H8Y10025   5.312   1.286   4.181 -0.0411  1.3630  1.1303
  100SAPC   C3910026   5.469   1.397   4.258  0.2912 -0.1089  0.3091
  100SAPC   H9X10027   5.570   1.434   4.233 -0.2423 -1.0018 -3.8766
  100SAPC   H9Y10028   5.490   1.333   4.346  0.6645 -0.8604 -0.3104
  100SAPC  C31010029   5.379   1.510   4.307  0.0178  0.5930 -0.7526
  100SAPC  H10X10030   5.274   1.481   4.329  0.3124  0.1061  0.0604
  100SAPC  H10Y10031   5.382   1.593   4.233 -1.5307  0.6798 -0.7496
  100SAPC  C31110032   5.446   1.573   4.439  0.3413 -0.1330  0.4237
  100SAPC  H11X10033   5.543   1.619   4.411  0.7360 -1.0714  0.2044
  100SAPC  H11Y10034   5.460   1.497   4.519 -1.4090 -1.5283 -0.5068
  100SAPC  C31210035   5.356   1.673   4.512  0.1123  0.4584 -0.2064
  100SAPC  H12X10036   5.270   1.613   4.548  0.8166 -0.0929  0.6006
  100SAPC  H12Y10037   5.316   1.756   4.450  0.3928  0.3869 -0.4867
  100SAPC  C31310038   5.425   1.737   4.637 -1.0745  0.6498 -0.1367
  100SAPC  H13X10039   5.511   1.794   4.596  0.2423 -1.2026 -0.0304
  100SAPC  H13Y10040   5.473   1.658   4.698  0.1258  0.9962 -0.6064
  100SAPC  C31410041   5.331   1.824   4.717 -0.0717  0.5188  0.4028
  100SAPC  H14X10042   5.253   1.760   4.764 -0.4166  0.7656  0.1829
  100SAPC  H14Y10043   5.275   1.897   4.653 -2.0188 -1.2996 -0.1077
  100SAPC  C31510044   5.408   1.890   4.830  0.1276  0.1452 -0.3383
  100SAPC  H15X10045   5.483   1.962   4.791 -2.9164  3.1191 -1.2022
  100SAPC  H15Y10046   5.453   1.797   4.873 -2.7643 -0.5447  1.5161
  100SAPC  C31610047   5.324   1.950   4.944 -0.0915 -0.6007  0.2241
  100SAPC  H16X10048   5.234   1.892   4.974 -0.1651 -0.8033 -0.3877
  100SAPC  H16Y10049   5.277   2.046   4.913  0.1895 -0.1364  1.1890
  100SAPC  C31710050   5.400   1.997   5.066 -0.3152  0.3714 -0.4717
  100SAPC  H17X10051   5.427   1.902   5.118  0.0332  0.5560 -0.3078
  100SAPC  H17Y10052   5.318   2.044   5.124  0.0714  0.7481 -0.2197
  100SAPC  C31810053   5.523   2.082   5.040  1.1776 -0.8146  0.1214
  100SAPC  H18X10054   5.577   2.052   4.948 -0.9652 -1.8892 -0.8523
  100SAPC  H18Y10055   5.593   2.074   5.126 -1.1333  0.5223  2.2687
  100SAPC  H18Z10056   5.495   2.189   5.034  2.1552 -0.6096 -1.1968
  101OSM      N10057   5.261   5.614   7.417  0.0769  0.1517  0.0477
  101OSM    C1510058   5.137   5.600   7.510 -0.1590  0.5993  0.1159
  101OSM   H15A10059   5.115   5.695   7.556 -0.7720  0.4789  0.0892
  101OSM   H15B10060   5.157   5.518   7.576 -1.1516 -1.9996 -2.5577
  101OSM   H15C10061   5.054   5.568   7.447  1.3454 -1.1455 -1.0947
  101OSM    C1410062   5.387   5.643   7.492  0.6710  0.2034 -0.2042
  101OSM   H14A10063   5.476   5.614   7.439  0.5410  2.4542 -1.8122
  101OSM   H14B10064   5.394   5.583   7.581  0.3328  1.0593  0.4185
  101OSM   H14C10065   5.394   5.750   7.509  0.6714 -0.0195  1.3989
  101OSM    C1310066   5.276   5.478   7.344 -0.4579 -0.3611 -0.1391
  101OSM   H13A10067   5.377   5.475   7.307  0.0029 -0.6198  1.1123
  101OSM   H13B10068   5.208   5.470   7.260 -0.7075 -2.8108  0.2124
  101OSM   H13C10069   5.259   5.397   7.413 -2.1382 -0.9355 -1.1424
  101OSM    C1210070   5.228   5.726   7.320 -0.2264 -0.0596 -0.2700
  101OSM   H12A10071   5.230   5.813   7.383 -0.3737 -0.7737  0.7506
  101OSM   H12B10072   5.126   5.714   7.288 -0.3826 -0.9181  0.5189
  101OSM    C1110073   5.320   5.745   7.196  0.0139  0.0835 -0.5853
  101OSM   H11A10074   5.283   5.838   7.149 -0.9636  0.0557  0.1132
  101OSM   H11B10075   5.301   5.672   7.114  0.3410  0.8305 -1.3455
  101OSM      P10076   5.527   5.888   7.273 -0.2340  1.0531  0.1930
  101OSM    O1310077   5.481   5.926   7.409  0.2237 -0.4365  0.9599
  101OSM    O1410078   5.677   5.868   7.255 -0.6150 -0.0690  0.3126
  101OSM    O1110079   5.464   5.989   7.170  0.3550  0.3291  0.8191
  101OSM    O1210080   5.461   5.752   7.224 -0.5610 -0.3588 -0.6596
  101OSM    C1S10081   5.548   6.092   7.129  0.1238 -0.6756  0.3961
  101OSM    H1S10082   5.643   6.054   7.087  2.1404  2.8617  1.3965
  101OSM    H1T10083   5.570   6.163   7.212 -1.8554  1.9072 -1.1469
  101OSM     NF10084   5.585   6.284   6.987  0.0356 -0.0318 -0.4999
  101OSM    HNF10085   5.563   6.373   7.026  0.6504 -0.2340  0.3500
  101OSM    C2S10086   5.487   6.185   7.014 -0.3352  0.1488  0.7308
  101OSM    H2S10087   5.458   6.123   6.927  2.6738 -1.7866  0.9710
  101OSM    C3S10088   5.346   6.244   7.055 -0.5473  0.3358 -0.5495
  101OSM    H3S10089   5.358   6.324   7.130 -2.5684  0.4549 -0.3114
  101OSM     O310090   5.248   6.150   7.103 -0.4257  0.0182 -0.7651
  101OSM    HO310091   5.300   6.080   7.143 -0.6324 -1.0553 -2.2784
  101OSM    C4S10092   5.298   6.321   6.928  0.7996  1.1820  0.2262
  101OSM    H4S10093   5.345   6.418   6.908  0.9270  0.8488 -1.2199
  101OSM    C5S10094   5.195   6.294   6.842  0.4647  0.5771  0.2520
  101OSM    H5S10095   5.131   6.210   6.873 -0.4519  0.9671 -0.5190
  101OSM    C6S10096   5.158   6.372   6.719  0.2062 -0.4178 -0.3096
  101OSM    H6S10097   5.178   6.481   6.728  0.9787 -0.1673 -3.8126
  101OSM    H6T10098   5.050   6.366   6.697  0.4591 -0.3319 -1.6418
  101OSM    C7S10099   5.252   6.336   6.604  0.2137  0.4128 -0.0871
  101OSM    H7S10100   5.358   6.355   6.632  1.2180 -1.4357 -2.2910
  101OSM    H7T10101   5.248   6.420   6.530 -0.9347  0.5312  0.0864
  101OSM    C8S10102   5.238   6.195   6.542  0.7160 -0.0877 -0.3891
  101OSM    H8S10103   5.136   6.183   6.501  0.1887  0.3401  0.7605
  101OSM    H8T10104   5.249   6.126   6.628 -0.3675 -1.6913 -1.4696
  101OSM    C9S10105   5.349   6.173   6.444 -0.2383  0.6314  0.5333
  101OSM    H9S10106   5.366   6.066   6.420  1.3181  0.9325  0.1909
  101OSM    H9T10107   5.445   6.213   6.483 -0.3271  0.9715  0.4132
  101OSM   C10S10108   5.320   6.240   6.303 -0.3387 -0.1494 -1.2900
  101OSM   H10S10109   5.301   6.349   6.317 -4.6719 -0.7863 -0.7713
  101OSM   H10T10110   5.232   6.188   6.258  0.3280 -0.0762 -2.7486
  101OSM   C11S10111   5.432   6.217   6.197  0.0896 -0.1858 -0.5659
  101OSM   H11S10112   5.442   6.107   6.188  1.7677 -0.0232 -1.0256
  101OSM   H11T10113   5.521   6.265   6.242 -0.5167  0.2976  0.1483
  101OSM   C12S10114   5.381   6.248   6.059 -0.0887 -0.6038  1.0660
  101OSM   H12S10115   5.355   6.356   6.051  1.4922 -0.3105 -0.8291
  101OSM   H12T10116   5.286   6.193   6.046  0.9205 -2.1946  0.1537
  101OSM   C13S10117   5.475   6.202   5.943  0.0795  0.7040 -0.8015
  101OSM   H13S10118   5.511   6.099   5.964  0.1715  1.0263  0.7432
  101OSM   H13T10119   5.565   6.267   5.948  1.8429 -1.5610 -1.7148
  101OSM   C14S10120   5.424   6.213   5.797  0.4460  0.5001 -0.2573
  101OSM   H14S10121   5.508   6.181   5.733  0.3355 -0.9407  0.2827
  101OSM   H14T10122   5.384   6.309   5.758 -0.7016  1.2242  2.4460
  101OSM   C15S10123   5.308   6.107   5.780 -0.0498  0.0679 -0.3926
  101OSM   H15S10124   5.227   6.148   5.845  0.2554 -1.0509  0.7273
  101OSM   H15T10125   5.337   6.002   5.797  1.4628  0.7283  1.5192
  101OSM   C16S10126   5.253   6.099   5.635 -0.0335 -0.3470  0.0371
  101OSM   H16S10127   5.343   6.092   5.571  0.6329 -1.3119  1.0529
  101OSM   H16T10128   5.213   6.199   5.605  2.9828  0.7827 -0.5505
  101OSM   C17S10129   5.162   5.986   5.602 -0.1792 -0.4509  0.7795
  101OSM   H17S10130   5.065   6.018   5.645  0.2299  0.6780  0.8983
  101OSM   H17T10131   5.209   5.898   5.651 -3.4012 -1.5542  2.1194
  101OSM   C18S10132   5.130   5.959   5.458 -0.3201 -0.8087 -0.3677
  101OSM   H18S10133   5.224   5.943   5.400 -0.5478  1.2361 -1.4016
  101OSM   H18T10134   5.082   6.046   5.408  0.8106 -0.9670 -1.7973
  101OSM   H18U10135   5.069   5.870   5.433  0.3716 -0.9642 -1.6174
  101OSM    C1F10136   5.698   6.254   6.926 -0.6989 -0.0054 -0.2245
  101OSM     OF10137   5.729   6.145   6.885  0.0854  0.5014 -0.6091
  101OSM    C2F10138   5.805   6.359   6.896  0.0784 -0.1593 -0.1471
  101OSM    H2F10139   5.886   6.351   6.971  0.0177  0.6650  0.0224
  101OSM    H2G10140   5.755   6.458   6.906  2.0868  0.9203 -0.1541
  101OSM    C3F10141   5.877   6.361   6.765 -0.1365 -0.5912  0.6069
  101OSM    H3F10142   5.919   6.260   6.742  1.2051 -0.3519  1.8078
  101OSM    H3G10143   5.966   6.428   6.764 -0.2094 -0.5013 -0.0971
  101OSM    C4F10144   5.783   6.389   6.640  0.0124  0.1408 -0.5955
  101OSM    H4F10145   5.733   6.483   6.672 -0.2032 -1.1122  3.3056
  101OSM    H4G10146   5.698   6.318   6.628  0.4786 -0.6948  0.7545
  101OSM    C5F10147   5.865   6.410   6.514  0.2836 -0.3966  0.4519
  101OSM    H5F10148   5.945   6.335   6.501  0.7714 -0.1067  1.6761
  101OSM    H5G10149   5.914   6.510   6.512 -2.3639  1.0366  1.5160
  101OSM    C6F10150   5.777   6.401   6.385  0.1448  0.3904 -0.4558
  101OSM    H6F10151   5.700   6.481   6.383 -0.7388 -0.4519 -1.0868
  101OSM    H6G10152   5.709   6.313   6.390 -3.2430  2.4868 -3.9771
  101OSM    C7F10153   5.852   6.399   6.254  0.4653 -0.3841 -0.6103
  101OSM    H7F10154   5.930   6.322   6.273 -0.4137 -0.6084  2.5610
  101OSM    H7G10155   5.900   6.500   6.249 -1.6184  0.6159 -2.4544
  101OSM    C8F10156   5.780   6.380   6.120  0.0200  0.4434  0.6627
  101OSM    H8F10157   5.738   6.277   6.120  0.6325  0.1882 -0.2372
  101OSM    H8G10158   5.864   6.390   6.048  0.0666  0.7202  0.7551
  101OSM    C9F10159   5.678   6.487   6.078 -0.2669  0.3630 -0.1350
  101OSM    H9F10160   5.589   6.497   6.142 -1.3233 -1.3601 -1.2506
  101OSM   C10F10161   5.676   6.560   5.964 -0.7474  0.2527  0.2526
  101OSM   H10F10162   5.588   6.621   5.940 -1.9879 -2.7451 -3.7018
  101OSM   C11F10163   5.790   6.582   5.868  0.4729 -0.6247  0.7160
  101OSM   H11F10164   5.884   6.593   5.926 -0.1882  1.5417  1.4930
  101OSM   H11G10165   5.776   6.682   5.822 -0.0026 -0.2476  1.6592
  101OSM   C12F10166   5.801   6.468   5.770  0.4666 -0.2709 -0.2501
  101OSM   H12F10167   5.792   6.366   5.814 -1.3640  0.9554  2.4462
  101OSM   H12G10168   5.898   6.462   5.716 -0.1007 -0.9377 -1.2236
  101OSM   C13F10169   5.701   6.472   5.651  0.0710  0.4580  0.3174
  101OSM   H13F10170   5.712   6.557   5.580  0.1258  0.1854 -0.0025
  101OSM   H13G10171   5.595   6.475   5.686  0.3344 -0.1140  1.2130
  101OSM   C14F10172   5.721   6.354   5.558  0.2723 -0.5635  0.2206
  101OSM   H14F10173   5.740   6.254   5.604  0.7958 -0.2106  0.7719
  101OSM   H14G10174   5.808   6.364   5.490 -0.1195 -1.2660 -0.4044
  101OSM   C15F10175   5.598   6.324   5.472 -0.0520  0.4165  0.2869
  101OSM   H15F10176   5.506   6.344   5.531  0.6184 -0.7610  1.8131
  101OSM   H15G10177   5.591   6.214   5.458 -1.0809  0.5136 -0.0430
  101OSM   C16F10178   5.594   6.391   5.336 -0.4445  0.4936 -0.1597
  101OSM   H16F10179   5.669   6.472   5.319  1.5881 -0.9398  1.5350
  101OSM   H16G10180   5.492   6.432   5.319 -1.0533 -0.9249 -0.0435
  101OSM   C17F10181   5.608   6.286   5.224  0.1986 -0.1484 -0.0379
  101OSM   H17F10182   5.523   6.215   5.220 -0.4918  0.6346  0.6091
  101OSM   H17G10183   5.696   6.218   5.235  0.5308  0.1654 -0.6771
  101OSM   C18F10184   5.608   6.349   5.091 -0.4545 -0.3811 -0.0053
  101OSM   H18F10185   5.540   6.435   5.073 -0.0551 -0.3020 -1.1957
  101OSM   H18G10186   5.576   6.267   5.024 -1.4458 -0.1054  0.1146
  101OSM   H18H10187   5.712   6.377   5.062 -1.1903 -0.0590 -2.5815
  102OSM      N10188   4.732   5.554   7.508  0.2845  0.3887 -0.1305
  102OSM    C1510189   4.818   5.466   7.593  0.6788  0.4153 -0.3989
  102OSM   H15A10190   4.910   5.445   7.540  1.3645  2.0785  0.0484
  102OSM   H15B10191   4.771   5.373   7.621  2.1116 -0.2098  0.0273
  102OSM   H15C10192   4.849   5.514   7.685 -2.0761  0.9395  0.3556
  102OSM    C1410193   4.591   5.533   7.554 -0.3750 -0.2201  0.2375
  102OSM   H14A10194   4.516   5.596   7.509 -1.7378 -1.9908 -0.0568
  102OSM   H14B10195   4.586   5.552   7.660  1.2552  0.1126  0.2889
  102OSM   H14C10196   4.553   5.433   7.536 -0.8412 -0.1813  0.9780
  102OSM    C1310197   4.761   5.701   7.521 -0.4515  0.1795 -0.3389
  102OSM   H13A10198   4.755   5.731   7.625  1.3089  1.1440 -0.4701
  102OSM   H13B10199   4.692   5.763   7.466  1.5466  0.8907 -2.1767
  102OSM   H13C10200   4.859   5.726   7.484  0.1164 -0.0995  0.9137
  102OSM    C1210201   4.733   5.503   7.364  0.2572 -0.3839  0.0413
  102OSM   H12A10202   4.656   5.558   7.311 -0.3412 -0.1109  1.1588
  102OSM   H12B10203   4.694   5.403   7.355 -0.0120 -0.2054 -0.8913
  102OSM    C1110204   4.863   5.508   7.285 -1.0259  0.1938 -0.2213
  102OSM   H11A10205   4.903   5.612   7.276  1.2733 -0.7401 -1.5290
  102OSM   H11B10206   4.827   5.481   7.183  1.0035 -0.0240 -0.9251
  102OSM      P10207   4.984   5.286   7.267 -0.0398  0.1629 -0.4055
  102OSM    O1310208   5.105   5.217   7.326 -0.4212  0.1657 -0.0346
  102OSM    O1410209   4.850   5.216   7.269 -0.0050 -0.1333 -0.3025
  102OSM    O1110210   5.026   5.332   7.122  0.8088 -0.3459  0.1525
  102OSM    O1210211   4.966   5.428   7.344 -0.3802 -0.0926  0.4466
  102OSM    C1S10212   5.117   5.255   7.044 -0.0747  0.7800  0.3581
  102OSM    H1S10213   5.086   5.149   7.032  0.5816  0.7780 -1.8483
  102OSM    H1T10214   5.219   5.262   7.087 -0.3712 -0.7334  1.3861
  102OSM     NF10215   5.226   5.238   6.818  0.6118 -0.2037 -0.2170
  102OSM    HNF10216   5.309   5.292   6.805 -0.5750  1.4732 -1.1537
  102OSM    C2S10217   5.125   5.315   6.895 -0.5239 -0.1411  0.2492
  102OSM    H2S10218   5.026   5.297   6.848 -1.0665  0.0534  1.3013
  102OSM    C3S10219   5.150   5.473   6.903  0.8505  1.2524 -0.0798
  102OSM    H3S10220   5.252   5.488   6.944 -0.4274 -0.7368  4.5180
  102OSM     O310221   5.073   5.555   6.994 -0.2855  0.0390 -0.5538
  102OSM    HO310222   5.039   5.489   7.054 -0.1859 -0.9002 -1.4917
  102OSM    C4S10223   5.155   5.539   6.766 -0.5277  0.6397 -0.3048
  102OSM    H4S10224   5.071   5.520   6.697  0.3483 -1.5409 -0.8377
  102OSM    C5S10225   5.247   5.628   6.725  0.0837 -0.1881 -0.1710
  102OSM    H5S10226   5.331   5.646   6.794  1.1687  0.5542 -1.6409
  102OSM    C6S10227   5.244   5.722   6.600 -0.2166  0.9025 -0.5351
  102OSM    H6S10228   5.342   5.713   6.549  1.8222 -2.2758  3.3449
  102OSM    H6T10229   5.220   5.824   6.637 -0.9930  0.3709  0.4919
  102OSM    C7S10230   5.135   5.696   6.495  0.1171  0.4753  0.9628
  102OSM    H7S10231   5.032   5.721   6.528 -0.2782  1.5090 -0.9228
  102OSM    H7T10232   5.134   5.596   6.445  2.1809  0.3302  1.1341
  102OSM    C8S10233   5.151   5.804   6.386  0.2824  0.7192  0.1342
  102OSM    H8S10234   5.260   5.800   6.363  0.2003 -0.6923 -0.1079
  102OSM    H8T10235   5.129   5.902   6.432 -0.8982 -0.1078  1.4438
  102OSM    C9S10236   5.082   5.770   6.251 -0.0453  0.6988  0.2796
  102OSM    H9S10237   4.977   5.735   6.259  0.1765 -0.4577 -1.5120
  102OSM    H9T10238   5.146   5.688   6.211 -0.1382  0.8278 -0.1315
  102OSM   C10S10239   5.090   5.896   6.163 -0.7465  0.3967  0.0982
  102OSM   H10S10240   5.188   5.942   6.187 -0.2792 -0.7198  0.3775
  102OSM   H10T10241   5.013   5.960   6.210  0.1689 -0.4518  2.9641
  102OSM   C11S10242   5.065   5.875   6.015 -0.1180 -0.3817  0.3720
  102OSM   H11S10243   5.127   5.793   5.972  2.2261  0.0608  2.7032
  102OSM   H11T10244   5.074   5.973   5.965 -1.6827  0.6418  1.9766
  102OSM   C12S10245   4.923   5.841   5.986 -0.2207 -0.5667  0.1575
  102OSM   H12S10246   4.848   5.911   6.028 -0.4787 -1.3392  1.0270
  102OSM   H12T10247   4.903   5.746   6.040  1.4872 -0.0491  1.8263
  102OSM   C13S10248   4.894   5.817   5.839 -1.2529 -0.2169 -0.3986
  102OSM   H13S10249   4.965   5.744   5.794  0.0295  1.0763 -0.5720
  102OSM   H13T10250   4.897   5.913   5.783 -0.9014  0.6891  1.1080
  102OSM   C14S10251   4.757   5.766   5.829 -0.1116 -0.5094 -0.8700
  102OSM   H14S10252   4.667   5.812   5.875  1.3504  2.8451 -1.0673
  102OSM   H14T10253   4.758   5.663   5.872  1.2375 -0.8148 -1.5811
  102OSM   C15S10254   4.721   5.751   5.681 -0.1925  0.2101  0.1174
  102OSM   H15S10255   4.785   5.675   5.632 -0.1363  1.1872 -1.3977
  102OSM   H15T10256   4.737   5.850   5.632 -1.8567  0.5685  0.2566
  102OSM   C16S10257   4.577   5.706   5.651  0.5861  0.0795 -0.3527
  102OSM   H16S10258   4.504   5.772   5.702 -1.2984 -1.5596 -0.8307
  102OSM   H16T10259   4.569   5.606   5.698 -1.4863 -0.0278 -0.8584
  102OSM   C17S10260   4.552   5.691   5.506  0.3553  0.3645 -0.0307
  102OSM   H17S10261   4.648   5.671   5.453  1.1866  2.0940  0.7536
  102OSM   H17T10262   4.501   5.778   5.459  1.7497  2.2002  1.7203
  102OSM   C18S10263   4.466   5.560   5.462 -0.2470  0.1965 -0.2701
  102OSM   H18S10264   4.509   5.470   5.512 -0.4856  0.0874 -0.2629
  102OSM   H18T10265   4.470   5.542   5.353 -0.6430 -4.6079  0.2965
  102OSM   H18U10266   4.365   5.574   5.504  0.1202 -0.9322  1.0776
  102OSM    C1F10267   5.215   5.101   6.793 -0.1662  0.7635 -0.2268
  102OSM     OF10268   5.110   5.058   6.757  0.0436 -0.1840  0.2494
  102OSM    C2F10269   5.347   5.026   6.804 -0.0969 -0.1201 -0.1980
  102OSM    H2F10270   5.328   4.938   6.869  0.9323  0.0475  0.3454
  102OSM    H2G10271   5.420   5.092   6.856  0.2450 -1.9286  1.7458
  102OSM    C3F10272   5.404   4.966   6.671  0.6581  0.2922 -0.5534
  102OSM    H3F10273   5.327   4.911   6.613  0.6548 -0.8485  0.5035
  102OSM    H3G10274   5.477   4.887   6.699  0.3307 -0.3483 -1.4557
  102OSM    C4F10275   5.448   5.077   6.578 -0.2121 -0.7458  0.4202
  102OSM    H4F10276   5.558   5.089   6.585 -0.3135  2.5997 -1.4121
  102OSM    H4G10277   5.408   5.177   6.607 -1.9077 -1.7317  1.6876
  102OSM    C5F10278   5.409   5.048   6.430  0.6903  0.7339  0.0673
  102OSM    H5F10279   5.300   5.057   6.409  0.9476  0.9250 -1.3021
  102OSM    H5G10280   5.432   4.941   6.409  0.3405  0.8224 -0.8109
  102OSM    C6F10281   5.483   5.134   6.328  0.3848 -0.2271 -0.3596
  102OSM    H6F10282   5.591   5.134   6.353  0.2659 -0.7781  0.1944
  102OSM    H6G10283   5.446   5.236   6.349  3.1524  1.3094 -2.2609
  102OSM    C7F10284   5.457   5.098   6.179  0.2540 -1.0891 -0.7968
  102OSM    H7F10285   5.348   5.103   6.158  0.4445  0.9441 -1.5586
  102OSM    H7G10286   5.488   4.997   6.147 -2.7277 -1.8759 -1.4784
  102OSM    C8F10287   5.537   5.201   6.093  0.3362  0.4041  0.5461
  102OSM    H8F10288   5.644   5.171   6.097  0.0430 -0.7807 -0.1916
  102OSM    H8G10289   5.530   5.302   6.139  2.3470  0.1126  1.6107
  102OSM    C9F10290   5.466   5.221   5.961  0.4581 -0.0396 -0.1255
  102OSM    H9F10291   5.408   5.314   5.955 -2.4606 -1.7524 -0.8317
  102OSM   C10F10292   5.476   5.138   5.856 -0.0826 -0.3124  0.2009
  102OSM   H10F10293   5.423   5.162   5.763  2.5834  1.4217 -1.0032
  102OSM   C11F10294   5.565   5.011   5.850  0.6533  0.0061  0.2127
  102OSM   H11F10295   5.500   4.921   5.842  0.3436  0.3719 -2.0555
  102OSM   H11G10296   5.644   5.004   5.928  1.6389 -0.2425 -0.7733
  102OSM   C12F10297   5.655   5.001   5.725  0.1733  0.0975  0.5364
  102OSM   H12F10298   5.598   5.006   5.630 -0.2396  2.8274  0.8649
  102OSM   H12G10299   5.705   4.901   5.726 -0.9864 -0.4964  0.8286
  102OSM   C13F10300   5.782   5.091   5.722 -0.0051 -0.7075  0.0884
  102OSM   H13F10301   5.868   5.067   5.788  2.2219  2.5614 -1.3203
  102OSM   H13G10302   5.764   5.197   5.750  0.3295 -0.1424 -1.6720
  102OSM   C14F10303   5.849   5.104   5.584 -0.0030 -0.1043  0.0428
  102OSM   H14F10304   5.903   5.201   5.576  0.0828 -0.0079  1.5914
  102OSM   H14G10305   5.778   5.114   5.498  0.0269  1.9877  0.1984
  102OSM   C15F10306   5.929   4.976   5.540 -1.1139  0.7132  0.0930
  102OSM   H15F10307   5.886   4.913   5.459  2.0943 -0.8912 -0.5388
  102OSM   H15G10308   5.944   4.908   5.627  0.4012  2.3565  1.1740
  102OSM   C16F10309   6.075   5.028   5.503  0.2011 -0.0267  0.6473
  102OSM   H16F10310   6.135   5.031   5.596  0.2880 -0.8668  0.6251
  102OSM   H16G10311   6.053   5.127   5.457 -2.5147 -0.1415  1.4971
  102OSM   C17F10312   6.135   4.925   5.414  0.3867  0.0121 -0.0073
  102OSM   H17F10313   6.073   4.925   5.322  1.1260  2.5477 -0.5896
  102OSM   H17G10314   6.150   4.825   5.461 -0.0417  0.1395  0.4043
  102OSM   C18F10315   6.276   4.978   5.373 -0.1080  0.0087 -0.2104
  102OSM   H18F10316   6.330   5.000   5.467  2.3940 -2.0818 -1.0457
  102OSM   H18G10317   6.278   5.079   5.325  0.5952  0.8277  1.4479
  102OSM   H18H10318   6.326   4.898   5.315 -1.2376 -0.5090 -0.4897
  103OSM      N10319   4.600   4.047   7.287 -0.7378 -0.1971 -0.0576
  103OSM    C1510320   4.666   3.977   7.174 -0.3396  0.3091 -0.0666
  103OSM   H15A10321   4.751   4.032   7.137  1.2890 -2.0625 -0.0571
  103OSM   H15B10322   4.598   3.968   7.091  1.0360  0.3942 -1.2288
  103OSM   H15C10323   4.709   3.881   7.198 -1.0157 -0.2064 -0.8855
  103OSM    C1410324   4.495   3.959   7.343 -0.0717 -0.4163  0.3671
  103OSM   H14A10325   4.442   4.002   7.427  0.8305 -1.8717  1.7387
  103OSM   H14B10326   4.534   3.870   7.392 -1.4378 -1.9626 -1.2128
  103OSM   H14C10327   4.435   3.922   7.261 -0.8476  1.4102  0.0777
  103OSM    C1310328   4.705   4.079   7.394  0.0656  0.8089 -0.1367
  103OSM   H13A10329   4.675   4.135   7.482 -1.2333 -2.0731  1.4098
  103OSM   H13B10330   4.788   4.131   7.349 -0.5797  3.3706  1.4073
  103OSM   H13C10331   4.750   3.990   7.435 -0.4814  0.1170 -1.0039
  103OSM    C1210332   4.538   4.175   7.235 -0.1622  0.1175  0.4175
  103OSM   H12A10333   4.450   4.162   7.175  1.4927 -2.2899 -1.6746
  103OSM   H12B10334   4.603   4.230   7.168 -0.9377 -1.7628 -1.9778
  103OSM    C1110335   4.492   4.288   7.334 -0.0750  1.1477  0.4058
  103OSM   H11A10336   4.445   4.233   7.418 -1.7967  1.1207 -0.5274
  103OSM   H11B10337   4.413   4.348   7.285 -1.0155 -1.2791 -1.3003
  103OSM      P10338   4.666   4.483   7.308  0.4941 -0.1257 -0.2164
  103OSM    O1310339   4.563   4.591   7.319 -0.5263  0.6296  0.1058
  103OSM    O1410340   4.798   4.506   7.361  0.0484  0.0326  0.1597
  103OSM    O1110341   4.685   4.439   7.158  0.0548  0.2356 -0.7816
  103OSM    O1210342   4.605   4.360   7.383 -0.8361 -0.3562  0.3207
  103OSM    C1S10343   4.588   4.460   7.059  0.1899  0.1113  0.5746
  103OSM    H1S10344   4.569   4.569   7.050 -1.0647  0.0077  1.7818
  103OSM    H1T10345   4.497   4.396   7.063  0.4960 -0.2622  3.7633
  103OSM     NF10346   4.566   4.453   6.810 -0.0239  0.0431  0.7575
  103OSM    HNF10347   4.533   4.376   6.756 -0.0533  1.2463 -1.0115
  103OSM    C2S10348   4.659   4.428   6.917  0.0371 -0.0929 -0.7375
  103OSM    H2S10349   4.731   4.512   6.913 -0.4433  0.4105  0.6739
  103OSM    C3S10350   4.738   4.298   6.912  0.1032 -0.4005 -0.5059
  103OSM    H3S10351   4.669   4.212   6.902 -0.4774 -0.1059  0.7262
  103OSM     O310352   4.803   4.262   7.031 -0.0171  0.4378 -0.1864
  103OSM    HO310353   4.777   4.330   7.093 -0.1626  0.1842  0.0323
  103OSM    C4S10354   4.837   4.304   6.798 -0.3307  0.6269  0.2305
  103OSM    H4S10355   4.887   4.401   6.782  0.3865 -0.2204 -3.5960
  103OSM    C5S10356   4.862   4.200   6.710  0.1347  0.1033 -0.3036
  103OSM    H5S10357   4.810   4.103   6.715  0.2937 -0.0201 -0.9588
  103OSM    C6S10358   4.957   4.217   6.592 -0.5687 -0.4900 -1.5049
  103OSM    H6S10359   5.036   4.140   6.607 -0.4564  0.1258  1.5070
  103OSM    H6T10360   5.006   4.316   6.602 -0.9312 -0.5569  2.5979
  103OSM    C7S10361   4.895   4.201   6.447  0.5480  0.1650 -0.2047
  103OSM    H7S10362   4.802   4.262   6.451 -0.5399 -1.2569 -2.0529
  103OSM    H7T10363   4.861   4.095   6.438  2.1805 -0.4230  0.2050
  103OSM    C8S10364   4.996   4.240   6.339 -0.5823 -1.0905  0.1959
  103OSM    H8S10365   5.099   4.204   6.361 -0.4973 -0.0315  1.7086
  103OSM    H8T10366   5.004   4.351   6.333 -2.1619 -1.0055 -4.1201
  103OSM    C9S10367   4.943   4.202   6.198 -0.0227  0.1162  0.3483
  103OSM    H9S10368   4.834   4.218   6.208 -0.4069 -1.3165 -1.1085
  103OSM    H9T10369   4.952   4.092   6.180 -2.5314 -0.4395  1.9733
  103OSM   C10S10370   4.997   4.294   6.084 -0.0535 -0.4984  0.4199
  103OSM   H10S10371   5.108   4.300   6.074 -0.2107  0.5195 -1.0688
  103OSM   H10T10372   4.959   4.394   6.115  2.3321  0.2280  1.3073
  103OSM   C11S10373   4.940   4.254   5.946  0.1482 -0.1551  0.7681
  103OSM   H11S10374   4.829   4.249   5.952 -0.0129 -0.1957 -1.4913
  103OSM   H11T10375   4.983   4.152   5.931  2.8009  1.0831 -0.8530
  103OSM   C12S10376   4.981   4.350   5.835 -0.3482  0.5454 -0.6242
  103OSM   H12S10377   5.091   4.345   5.848 -0.3134  0.0075 -1.0424
  103OSM   H12T10378   4.937   4.448   5.861 -0.7381 -0.1242  1.4514
  103OSM   C13S10379   4.919   4.295   5.701 -0.8340 -0.5164 -0.9931
  103OSM   H13S10380   4.814   4.277   5.732 -0.0170 -0.7198  1.9455
  103OSM   H13T10381   4.969   4.202   5.667  0.1819 -1.7290  3.2068
  103OSM   C14S10382   4.933   4.396   5.589 -0.3313  0.0810 -0.6804
  103OSM   H14S10383   5.036   4.397   5.547  0.1421 -2.3894  0.2226
  103OSM   H14T10384   4.903   4.495   5.627 -0.9831 -1.3094  2.7675
  103OSM   C15S10385   4.834   4.376   5.471  0.4194  0.3012 -0.4677
  103OSM   H15S10386   4.851   4.438   5.380 -2.0303  0.1360 -1.1156
  103OSM   H15T10387   4.732   4.403   5.506  0.3090 -0.7586  0.0444
  103OSM   C16S10388   4.839   4.230   5.425  0.1954 -0.3898 -0.1026
  103OSM   H16S10389   4.815   4.162   5.509 -0.4808 -0.6348 -0.4883
  103OSM   H16T10390   4.938   4.195   5.389 -0.2019 -2.3719  0.5967
  103OSM   C17S10391   4.742   4.203   5.316  0.0776 -0.0474 -0.1081
  103OSM   H17S10392   4.780   4.251   5.224 -1.0400  1.4209  0.1614
  103OSM   H17T10393   4.641   4.243   5.338 -0.2976  0.2644 -2.1689
  103OSM   C18S10394   4.719   4.056   5.292  0.0524 -0.2824 -0.2153
  103OSM   H18S10395   4.694   4.004   5.387 -0.3576  1.4627  0.6819
  103OSM   H18T10396   4.804   4.006   5.242 -1.1481 -2.2304 -0.4542
  103OSM   H18U10397   4.634   4.046   5.220 -0.7284  2.1062  0.2723
  103OSM    C1F10398   4.532   4.584   6.776 -0.1978  0.0157  0.3779
  103OSM     OF10399   4.592   4.683   6.819 -0.2580  0.0561 -0.1275
  103OSM    C2F10400   4.416   4.605   6.676 -0.5577 -0.1814 -0.4130
  103OSM    H2F10401   4.347   4.684   6.710  0.5643  0.7051 -0.1273
  103OSM    H2G10402   4.358   4.510   6.685 -0.5895 -0.2150 -0.9190
  103OSM    C3F10403   4.462   4.634   6.533  0.5440 -0.4988  0.5470
  103OSM    H3F10404   4.548   4.705   6.538  1.6074 -1.8110  1.9126
  103OSM    H3G10405   4.375   4.681   6.482  0.7654  0.5387  1.0944
  103OSM    C4F10406   4.503   4.510   6.450  0.4464 -0.5291  0.1970
  103OSM    H4F10407   4.419   4.437   6.457  0.2951 -0.2050  2.0986
  103OSM    H4G10408   4.591   4.462   6.497 -0.1577 -1.1247  0.7410
  103OSM    C5F10409   4.539   4.561   6.308 -0.3898 -0.1162  0.4286
  103OSM    H5F10410   4.619   4.637   6.310  1.3678 -1.8839  0.3565
  103OSM    H5G10411   4.454   4.610   6.255  0.2191 -0.4983 -0.9529
  103OSM    C6F10412   4.581   4.444   6.217 -0.1682  0.0818  0.2098
  103OSM    H6F10413   4.502   4.366   6.215 -0.3418  0.2634 -0.4584
  103OSM    H6G10414   4.659   4.387   6.272  0.2231 -1.9226 -2.2510
  103OSM    C7F10415   4.639   4.469   6.081 -0.3757  0.4610  0.0898
  103OSM    H7F10416   4.687   4.383   6.030 -0.7930 -0.3749  1.0464
  103OSM    H7G10417   4.722   4.543   6.080  0.3743 -0.2681  2.3802
  103OSM    C8F10418   4.532   4.519   5.983  0.3526  0.0515 -0.2824
  103OSM    H8F10419   4.584   4.582   5.908  0.9238 -1.3100 -1.0645
  103OSM    H8G10420   4.463   4.588   6.036  2.5342  1.8224  0.4484
  103OSM    C9F10421   4.447   4.406   5.920 -0.3484  0.3883  0.2874
  103OSM    H9F10422   4.409   4.328   5.988  0.3096 -0.9229 -0.7914
  103OSM   C10F10423   4.422   4.405   5.791  0.3714 -0.4851  0.7753
  103OSM   H10F10424   4.367   4.314   5.762 -0.3964 -0.7790  2.9299
  103OSM   C11F10425   4.452   4.513   5.686  0.3154  0.7730 -0.0392
  103OSM   H11F10426   4.556   4.550   5.697  0.5944 -0.5853  2.4871
  103OSM   H11G10427   4.381   4.597   5.694 -1.3285 -0.5871  0.3323
  103OSM   C12F10428   4.418   4.454   5.549 -0.0517  0.2204  1.0117
  103OSM   H12F10429   4.443   4.346   5.544  0.6847  0.4154 -3.2484
  103OSM   H12G10430   4.489   4.496   5.475  2.3468 -0.9011  2.5555
  103OSM   C13F10431   4.286   4.495   5.489  0.0126 -0.2515  0.6419
  103OSM   H13F10432   4.262   4.597   5.525  0.8230  1.1020 -2.3665
  103OSM   H13G10433   4.205   4.432   5.532 -0.4254 -0.0816  0.0783
  103OSM   C14F10434   4.285   4.505   5.331  0.5837  0.1987  0.2058
  103OSM   H14F10435   4.359   4.586   5.312 -1.1753  1.8778  0.2049
  103OSM   H14G10436   4.187   4.542   5.294  0.8079  1.8762  1.2123
  103OSM   C15F10437   4.337   4.374   5.259 -0.0765  0.4358 -0.7790
  103OSM   H15F10438   4.258   4.296   5.266  0.8540 -0.5345 -0.8510
  103OSM   H15G10439   4.428   4.329   5.303  0.5904  2.9140  0.5496
  103OSM   C16F10440   4.363   4.399   5.108 -0.0154 -0.4631  0.0520
  103OSM   H16F10441   4.439   4.480   5.100 -0.9979  0.3312 -1.8055
  103OSM   H16G10442   4.265   4.434   5.069  1.1049  2.2878 -0.4995
  103OSM   C17F10443   4.419   4.272   5.041 -0.2797 -0.0144 -0.3841
  103OSM   H17F10444   4.500   4.232   5.105 -0.4786 -3.0355 -1.8610
  103OSM   H17G10445   4.468   4.298   4.945 -3.4660  0.7848 -1.9418
  103OSM   C18F10446   4.320   4.164   4.999  0.0529 -0.4628 -0.1806
  103OSM   H18F10447   4.246   4.199   4.924  2.7613  1.2162 -2.2197
  103OSM   H18G10448   4.270   4.109   5.082  2.3183 -2.1721  0.1515
  103OSM   H18H10449   4.385   4.088   4.950 -0.6389 -2.0304  1.1925
  104OSM      N10450   4.960   0.607   7.517  0.5017 -0.4937 -0.3435
  104OSM    C1510451   4.933   0.662   7.381  0.7117 -0.3698 -0.4179
  104OSM   H15A10452   4.956   0.586   7.308  2.6763 -1.5528  1.3304
  104OSM   H15B10453   4.974   0.762   7.374  1.4148 -0.6317 -0.1398
  104OSM   H15C10454   4.825   0.669   7.382  0.4879 -2.7863  1.7277
  104OSM    C1410455   4.944   0.717   7.612 -0.4023  0.2874  0.2325
  104OSM   H14A10456   4.999   0.801   7.573 -0.7414  0.3954 -0.0218
  104OSM   H14B10457   4.991   0.698   7.707  1.5904  1.5439 -0.4340
  104OSM   H14C10458   4.841   0.751   7.611 -0.9561 -1.3150 -0.1580
  104OSM    C1310459   4.866   0.500   7.551  0.5075 -0.2010 -0.0041
  104OSM   H13A10460   4.767   0.544   7.549 -0.2263 -1.7632 -1.2126
  104OSM   H13B10461   4.893   0.452   7.644 -0.6681 -0.5395  0.1810
  104OSM   H13C10462   4.876   0.431   7.468  1.0343  0.7727 -0.7644
  104OSM    C1210463   5.105   0.569   7.519 -0.9532  1.1528 -0.2132
  104OSM   H12A10464   5.126   0.526   7.616 -1.2986  1.3201 -0.0612
  104OSM   H12B10465   5.168   0.657   7.517  0.0996  0.4266 -0.1365
  104OSM    C1110466   5.154   0.477   7.404  0.1113 -0.2260 -0.3834
  104OSM   H11A10467   5.265   0.467   7.410 -0.0718 -1.9627  0.9020
  104OSM   H11B10468   5.155   0.521   7.302  0.7941  1.4714  0.3040
  104OSM      P10469   5.145   0.221   7.463 -0.1857  0.1846  0.3291
  104OSM    O1310470   5.192   0.242   7.598 -0.9073 -0.2580  0.1267
  104OSM    O1410471   5.044   0.116   7.449 -0.9023 -0.3306  0.0542
  104OSM    O1110472   5.269   0.195   7.370  0.5025  0.4478 -0.5278
  104OSM    O1210473   5.075   0.354   7.407 -0.0422 -0.0553  0.2497
  104OSM    C1S10474   5.252   0.151   7.233  0.4733 -0.6076  0.1819
  104OSM    H1S10475   5.144   0.146   7.208  1.0585 -0.5997 -2.6989
  104OSM    H1T10476   5.283   0.045   7.223 -1.4681 -1.4097  1.8507
  104OSM     NF10477   5.275   0.204   6.990 -0.5150 -0.3035  0.1529
  104OSM    HNF10478   5.346   0.194   6.921  1.1147  0.3858  1.6493
  104OSM    C2S10479   5.312   0.247   7.125 -0.0872  0.4284 -0.3688
  104OSM    H2S10480   5.272   0.349   7.143  1.1430  1.0909 -1.2422
  104OSM    C3S10481   5.462   0.265   7.145  0.3258  0.7376 -0.0893
  104OSM    H3S10482   5.508   0.166   7.125 -0.9254 -0.6528  3.2374
  104OSM     O310483   5.508   0.279   7.286  0.0476  0.9585 -0.0008
  104OSM    HO310484   5.421   0.282   7.327  0.1784  0.4583  0.3214
  104OSM    C4S10485   5.528   0.364   7.064  0.0834  0.3131 -0.1536
  104OSM    H4S10486   5.508   0.471   7.080  1.8398  1.1996 -3.1533
  104OSM    C5S10487   5.621   0.332   6.970 -0.4507  0.1410 -1.0834
  104OSM    H5S10488   5.640   0.227   6.941 -1.5171 -0.1768 -0.7169
  104OSM    C6S10489   5.701   0.429   6.892 -0.3081 -0.7433  0.1586
  104OSM    H6S10490   5.803   0.443   6.933 -0.4096  0.1723  0.1203
  104OSM    H6T10491   5.661   0.533   6.887  1.4608 -0.0330  0.0545
  104OSM    C7S10492   5.711   0.391   6.738 -0.6658  0.2354  0.6716
  104OSM    H7S10493   5.606   0.367   6.710 -1.2584  3.0964  0.0888
  104OSM    H7T10494   5.773   0.302   6.714  0.6404  1.0768  0.7964
  104OSM    C8S10495   5.768   0.514   6.662 -0.1464 -0.3544  0.6311
  104OSM    H8S10496   5.874   0.520   6.695 -0.4966 -0.3960  1.8095
  104OSM    H8T10497   5.709   0.607   6.675 -1.9141 -1.6463  2.4173
  104OSM    C9S10498   5.779   0.482   6.505 -0.1465  1.1134 -0.1556
  104OSM    H9S10499   5.680   0.441   6.478 -0.1726  0.2484  1.1503
  104OSM    H9T10500   5.861   0.408   6.492  0.1477  1.3400  0.3455
  104OSM   C10S10501   5.807   0.608   6.425  0.2316  0.4461  0.3468
  104OSM   H10S10502   5.904   0.653   6.454 -0.9683  1.1971  3.7116
  104OSM   H10T10503   5.739   0.695   6.437  0.4797  0.6358  0.3675
  104OSM   C11S10504   5.824   0.572   6.280  1.1263  0.3679 -0.0870
  104OSM   H11S10505   5.723   0.538   6.249  0.4152  0.5543  1.8918
  104OSM   H11T10506   5.892   0.487   6.259 -2.4914 -2.6411 -0.7454
  104OSM   C12S10507   5.855   0.695   6.190 -0.3408 -0.2285 -0.3842
  104OSM   H12S10508   5.950   0.743   6.222  0.0549 -0.6785 -0.8626
  104OSM   H12T10509   5.773   0.769   6.202 -0.5500 -0.7690  2.0965
  104OSM   C13S10510   5.859   0.649   6.046  0.3175 -0.1931 -0.3200
  104OSM   H13S10511   5.771   0.586   6.026  0.6917 -1.0569  0.6676
  104OSM   H13T10512   5.950   0.591   6.019 -1.1247 -3.1329  0.7689
  104OSM   C14S10513   5.859   0.765   5.938  0.1088  0.3670  0.1701
  104OSM   H14S10514   5.953   0.822   5.955  0.7820 -1.1145  1.8005
  104OSM   H14T10515   5.774   0.832   5.962  0.0113 -0.6079  2.9061
  104OSM   C15S10516   5.869   0.704   5.801 -0.7107 -0.1230  0.2338
  104OSM   H15S10517   5.776   0.644   5.789  0.6192 -1.7705 -3.4013
  104OSM   H15T10518   5.957   0.640   5.782  0.4085  1.0816  1.1938
  104OSM   C16S10519   5.855   0.815   5.692  0.3526 -0.0157  0.5143
  104OSM   H16S10520   5.948   0.876   5.688 -0.4330  1.1718 -0.2930
  104OSM   H16T10521   5.762   0.873   5.711  0.7436  0.4163  1.1295
  104OSM   C17S10522   5.838   0.744   5.553  0.3068  0.0818  0.4696
  104OSM   H17S10523   5.735   0.702   5.560  0.6350 -0.4394  3.0694
  104OSM   H17T10524   5.914   0.664   5.536  1.7509  1.4026  0.4558
  104OSM   C18S10525   5.845   0.843   5.442  0.1029  0.2213  0.2765
  104OSM   H18S10526   5.811   0.944   5.473 -0.3718  0.2520 -0.3072
  104OSM   H18T10527   5.791   0.810   5.350  1.1426  2.3794 -1.1946
  104OSM   H18U10528   5.946   0.863   5.400 -0.5406  0.6548 -1.1601
  104OSM    C1F10529   5.151   0.230   6.942 -0.3630  0.1819 -0.0860
  104OSM     OF10530   5.060   0.272   7.018  0.1999  0.3454  0.7597
  104OSM    C2F10531   5.135   0.207   6.797 -0.3048  0.3413  0.3532
  104OSM    H2F10532   5.139   0.099   6.773  1.6547  0.5207 -0.3207
  104OSM    H2G10533   5.222   0.250   6.742  1.0801 -4.5001 -1.6985
  104OSM    C3F10534   5.010   0.268   6.736 -0.2753  0.3456  0.2005
  104OSM    H3F10535   4.987   0.372   6.766  1.4238  1.3696 -1.7773
  104OSM    H3G10536   4.916   0.217   6.766  0.4153 -0.0590  1.7862
  104OSM    C4F10537   5.022   0.262   6.584  0.1972  0.3024  0.3898
  104OSM    H4F10538   5.011   0.156   6.555 -2.4528  0.8603 -0.9923
  104OSM    H4G10539   5.125   0.298   6.564  0.9778 -1.9396  0.1010
  104OSM    C5F10540   4.917   0.346   6.512  0.0217  1.3304  0.5376
  104OSM    H5F10541   4.925   0.455   6.534  0.1378  1.3833  0.2260
  104OSM    H5G10542   4.815   0.307   6.533  0.7531 -1.0161  0.0763
  104OSM    C6F10543   4.945   0.342   6.359 -1.3673 -0.4140 -0.5271
  104OSM    H6F10544   4.959   0.238   6.321  2.2690 -0.4812  0.6835
  104OSM    H6G10545   5.042   0.389   6.332 -1.6488  1.4191  1.4617
  104OSM    C7F10546   4.849   0.426   6.276 -0.3107 -0.5481 -0.2455
  104OSM    H7F10547   4.830   0.529   6.313 -2.6070 -0.6632 -0.9313
  104OSM    H7G10548   4.755   0.365   6.277 -1.3799  1.0145 -1.0591
  104OSM    C8F10549   4.897   0.443   6.133 -0.6548 -0.3938 -0.0488
  104OSM    H8F10550   5.002   0.477   6.122 -0.8731  0.3305  0.0106
  104OSM    H8G10551   4.831   0.526   6.098 -0.5897 -0.2000  0.2943
  104OSM    C9F10552   4.883   0.323   6.036  0.0945  0.5189  0.1416
  104OSM    H9F10553   4.903   0.223   6.079 -1.2854  0.1522 -0.0491
  104OSM   C10F10554   4.831   0.327   5.909 -0.4168  0.2171 -0.2867
  104OSM   H10F10555   4.828   0.235   5.850 -2.3458 -0.2934  0.5308
  104OSM   C11F10556   4.783   0.438   5.825  0.0709  0.0193  0.0746
  104OSM   H11F10557   4.784   0.529   5.889  1.1093 -2.1704  3.4147
  104OSM   H11G10558   4.676   0.413   5.806 -0.3328  1.4716  0.2982
  104OSM   C12F10559   4.862   0.436   5.691  0.1588  0.0936  0.1930
  104OSM   H12F10560   4.802   0.513   5.638  1.0643  0.9071  0.3176
  104OSM   H12G10561   4.870   0.339   5.637  2.0476  0.3874 -0.1495
  104OSM   C13F10562   5.010   0.493   5.687 -0.4986 -0.0844  0.1440
  104OSM   H13F10563   5.050   0.464   5.588  0.1240  0.0059  0.3643
  104OSM   H13G10564   5.064   0.457   5.777 -2.6540  0.7987  1.8903
  104OSM   C14F10565   5.016   0.645   5.696 -0.1898  0.4200 -0.2427
  104OSM   H14F10566   5.113   0.669   5.744 -0.9365 -0.7941  1.9885
  104OSM   H14G10567   4.930   0.674   5.759 -0.7388 -0.4046 -0.6001
  104OSM   C15F10568   5.015   0.712   5.554 -0.0991 -0.2578  0.3546
  104OSM   H15F10569   4.935   0.661   5.496 -1.7108  0.1287  2.1306
  104OSM   H15G10570   5.112   0.686   5.506  0.3604 -0.1087  1.1919
  104OSM   C16F10571   4.998   0.862   5.551  0.6673  0.9232  0.6147
  104OSM   H16F10572   5.087   0.909   5.598  1.3173 -0.0874  0.4257
  104OSM   H16G10573   4.906   0.890   5.606 -1.5686  0.4144 -2.5918
  104OSM   C17F10574   4.987   0.918   5.408 -0.1458 -0.2602 -0.2724
  104OSM   H17F10575   4.914   0.853   5.355 -1.8037  2.3597 -1.3631
  104OSM   H17G10576   5.086   0.902   5.360 -0.5365  0.0591 -1.2016
  104OSM   C18F10577   4.944   1.067   5.411 -0.1716 -0.2309 -0.3130
  104OSM   H18F10578   4.845   1.084   5.459 -1.8001 -1.5930 -2.9857
  104OSM   H18G10579   4.937   1.094   5.303 -1.1017 -0.3459 -0.2842
  104OSM   H18H10580   5.024   1.126   5.462  0.0953 -2.5510  2.1804
  105OSM      N10581   6.694   5.805   7.541  0.0020 -0.5541  0.2566
  105OSM    C1510582   6.555   5.819   7.589  0.5173  0.6121 -0.2499
  105OSM   H15A10583   6.554   5.889   7.671 -0.4738  0.3809 -0.0544
  105OSM   H15B10584   6.514   5.725   7.624 -0.4376  1.0142 -0.2611
  105OSM   H15C10585   6.496   5.863   7.510  1.1033 -0.4584 -1.3264
  105OSM    C1410586   6.783   5.775   7.655  0.2394 -0.0872  0.2271
  105OSM   H14A10587   6.793   5.868   7.709  0.4899 -0.3717  0.6725
  105OSM   H14B10588   6.879   5.749   7.612  0.5502  2.4671 -0.8064
  105OSM   H14C10589   6.750   5.700   7.725 -0.9615  1.0754  0.9526
  105OSM    C1310590   6.706   5.698   7.445 -0.3607  0.2943 -0.2521
  105OSM   H13A10591   6.657   5.709   7.349  0.1635 -0.2537 -0.5908
  105OSM   H13B10592   6.662   5.614   7.496  0.6027 -0.4170 -0.5773
  105OSM   H13C10593   6.813   5.689   7.432 -0.3248  0.4516 -0.0741
  105OSM    C1210594   6.741   5.936   7.488 -0.0144  0.1975 -0.4629
  105OSM   H12A10595   6.843   5.917   7.458  0.2421  2.2033 -1.0131
  105OSM   H12B10596   6.734   6.014   7.562  0.1292  1.3533 -1.6240
  105OSM    C1110597   6.665   5.997   7.364 -0.2260  0.4196  0.2769
  105OSM   H11A10598   6.705   6.094   7.329 -0.7336 -0.6170 -3.6261
  105OSM   H11B10599   6.561   6.011   7.401 -0.7329 -0.4855 -0.7603
  105OSM      P10600   6.777   5.881   7.153 -0.4633  0.1546  0.4599
  105OSM    O1310601   6.911   5.920   7.202 -0.7016  0.2918  0.3495
  105OSM    O1410602   6.770   5.738   7.114 -0.2387  0.7861  0.0904
  105OSM    O1110603   6.734   5.972   7.034  0.4395 -1.0412  0.0930
  105OSM    O1210604   6.657   5.908   7.254  0.3059  0.0328  0.3825
  105OSM    C1S10605   6.604   6.016   7.003 -0.3640  0.3783 -0.3112
  105OSM    H1S10606   6.576   6.108   7.057  0.1458  1.3890 -1.7108
  105OSM    H1T10607   6.525   5.943   7.030 -1.0814  1.9451  2.1192
  105OSM     NF10608   6.463   6.074   6.819  0.1731  0.2723  0.3696
  105OSM    HNF10609   6.396   6.003   6.800 -0.4563  0.9494  0.0604
  105OSM    C2S10610   6.599   6.039   6.849 -0.1834  0.2175  0.0274
  105OSM    H2S10611   6.670   6.119   6.818  1.8258 -1.0426  1.1340
  105OSM    C3S10612   6.661   5.915   6.772 -0.0647  0.2521  0.8513
  105OSM    H3S10613   6.605   5.820   6.784 -1.5789  1.1998  1.7154
  105OSM     O310614   6.803   5.886   6.800 -0.5056 -0.0595 -0.2951
  105OSM    HO310615   6.822   5.948   6.871 -0.2989  1.5389 -1.6884
  105OSM    C4S10616   6.643   5.948   6.617  0.4685  0.4554 -0.2644
  105OSM    H4S10617   6.565   5.891   6.564  0.8339  0.1003 -0.4262
  105OSM    C5S10618   6.701   6.050   6.552  0.2404 -0.3765  0.5614
  105OSM    H5S10619   6.766   6.121   6.606  1.2537 -2.2049  1.8753
  105OSM    C6S10620   6.673   6.078   6.407 -0.6833  0.3198  0.6408
  105OSM    H6S10621   6.656   6.183   6.379 -2.9066 -0.3583 -0.7659
  105OSM    H6T10622   6.584   6.016   6.385  0.6024 -2.0614  1.7229
  105OSM    C7S10623   6.781   6.011   6.317  0.1450 -0.4938 -0.4590
  105OSM    H7S10624   6.805   5.906   6.343  1.4837  0.1667  1.1622
  105OSM    H7T10625   6.870   6.078   6.323  0.7450 -1.4331  1.9392
  105OSM    C8S10626   6.739   6.018   6.165  0.0912  0.2849  0.5509
  105OSM    H8S10627   6.735   6.122   6.127  2.3419  0.3414  0.3119
  105OSM    H8T10628   6.645   5.964   6.143  0.2869 -0.2272  0.9433
  105OSM    C9S10629   6.832   5.936   6.078 -0.7155 -0.1765 -0.3811
  105OSM    H9S10630   6.807   5.829   6.095 -0.6289 -0.6358 -2.7948
  105OSM    H9T10631   6.939   5.952   6.105 -1.6276  1.8434  2.6368
  105OSM   C10S10632   6.815   5.953   5.925  0.4098  0.4497  0.0007
  105OSM   H10S10633   6.834   6.057   5.890  2.6997  0.5642  1.3613
  105OSM   H10T10634   6.713   5.922   5.893  0.9068 -0.7192 -0.4972
  105OSM   C11S10635   6.919   5.870   5.833  0.4314 -0.7450 -0.8825
  105OSM   H11S10636   6.922   5.764   5.866 -0.0103 -0.8813 -1.2694
  105OSM   H11T10637   7.019   5.918   5.829  0.5302 -0.6977  1.2913
  105OSM   C12S10638   6.869   5.869   5.688  0.1226 -0.2543  0.1682
  105OSM   H12S10639   6.841   5.975   5.667 -0.8262 -0.1149  1.9664
  105OSM   H12T10640   6.771   5.819   5.697  0.1105 -0.1202  0.8446
  105OSM   C13S10641   6.957   5.803   5.577  0.4747  0.8828 -0.2568
  105OSM   H13S10642   6.922   5.698   5.567 -1.1922  1.5206 -1.5639
  105OSM   H13T10643   7.063   5.809   5.608  0.5967 -0.9484 -0.2189
  105OSM   C14S10644   6.939   5.877   5.445 -0.4496  0.7448 -0.0424
  105OSM   H14S10645   6.958   5.983   5.475 -3.1226  1.3722 -0.3007
  105OSM   H14T10646   6.832   5.863   5.420  0.0131  0.9245 -2.3066
  105OSM   C15S10647   7.030   5.818   5.336  0.5611  0.3843 -0.6670
  105OSM   H15S10648   7.013   5.709   5.344 -1.8756  0.8400  2.0116
  105OSM   H15T10649   7.136   5.847   5.357  0.6824  0.1152 -0.9037
  105OSM   C16S10650   6.994   5.867   5.193  0.6939  0.0414 -0.2511
  105OSM   H16S10651   6.997   5.978   5.196 -1.0087  0.1330 -0.9068
  105OSM   H16T10652   6.888   5.836   5.181  0.6012 -0.1942  1.0772
  105OSM   C17S10653   7.098   5.821   5.089 -0.1620 -0.1485  0.0401
  105OSM   H17S10654   7.068   5.726   5.041 -0.0626  0.1706 -0.6710
  105OSM   H17T10655   7.195   5.813   5.144 -1.5290  1.0007  2.7988
  105OSM   C18S10656   7.101   5.919   4.974 -0.1427  0.4982 -0.1226
  105OSM   H18S10657   7.149   6.017   4.996  0.1896  1.3005 -3.7392
  105OSM   H18T10658   7.001   5.936   4.928 -0.5334 -0.7987  0.2277
  105OSM   H18U10659   7.159   5.874   4.890  0.6417  2.5001 -0.7172
  105OSM    C1F10660   6.417   6.192   6.852 -0.2377 -0.3550  0.4040
  105OSM     OF10661   6.490   6.265   6.917  0.3981  0.0145  0.7625
  105OSM    C2F10662   6.281   6.234   6.809  0.2857  0.2575  0.5908
  105OSM    H2F10663   6.224   6.224   6.904 -1.2586 -2.3227 -0.4851
  105OSM    H2G10664   6.243   6.156   6.740  3.4237 -0.8067 -0.0891
  105OSM    C3F10665   6.290   6.375   6.750 -0.1839  0.2166  0.1711
  105OSM    H3F10666   6.359   6.438   6.810  0.3115 -0.6281  0.5019
  105OSM    H3G10667   6.191   6.422   6.733 -0.7150 -1.1551 -0.6514
  105OSM    C4F10668   6.356   6.383   6.612  0.1931  0.7936 -0.7696
  105OSM    H4F10669   6.440   6.311   6.604  0.6458  1.3956 -1.7371
  105OSM    H4G10670   6.392   6.488   6.600 -0.3182  0.8723 -1.7093
  105OSM    C5F10671   6.265   6.347   6.492 -0.9428  0.1436  0.0971
  105OSM    H5F10672   6.193   6.431   6.479  0.4982  1.0505 -2.9242
  105OSM    H5G10673   6.206   6.256   6.516 -3.3715  1.8589  1.0894
  105OSM    C6F10674   6.329   6.332   6.350 -0.2510  0.4374  0.1961
  105OSM    H6F10675   6.402   6.249   6.359  1.6852  2.2461  2.5133
  105OSM    H6G10676   6.378   6.425   6.313 -0.4744  0.5656  0.2208
  105OSM    C7F10677   6.228   6.293   6.244 -0.0776 -0.0457  0.5168
  105OSM    H7F10678   6.156   6.378   6.245  1.4160  1.2930 -0.7671
  105OSM    H7G10679   6.169   6.205   6.280 -0.3049  0.4115  1.2897
  105OSM    C8F10680   6.287   6.281   6.104 -0.4659  0.2879  0.5787
  105OSM    H8F10681   6.382   6.223   6.108 -1.7205 -2.2228 -2.0162
  105OSM    H8G10682   6.325   6.384   6.088  0.1034 -0.1361 -0.9818
  105OSM    C9F10683   6.206   6.227   5.998  0.0307  0.5398 -0.2161
  105OSM    H9F10684   6.176   6.124   6.019 -0.4857  0.8809  0.8104
  105OSM   C10F10685   6.180   6.285   5.876  0.1916  0.3416 -0.6204
  105OSM   H10F10686   6.094   6.237   5.827  0.0337  0.3075 -0.3072
  105OSM   C11F10687   6.220   6.423   5.823 -0.0202 -0.4567  0.0137
  105OSM   H11F10688   6.286   6.474   5.895 -2.4267 -0.1224  2.1275
  105OSM   H11G10689   6.136   6.493   5.803  0.7643 -0.3045 -3.5672
  105OSM   C12F10690   6.288   6.397   5.686  0.1678 -0.5558 -0.5615
  105OSM   H12F10691   6.358   6.310   5.687 -0.3061 -0.9760 -1.6881
  105OSM   H12G10692   6.338   6.486   5.642 -0.5897  0.9115  1.3987
  105OSM   C13F10693   6.187   6.377   5.571 -0.3223 -0.5924  0.0921
  105OSM   H13F10694   6.123   6.467   5.555  1.2128  0.4980 -0.1567
  105OSM   H13G10695   6.124   6.292   5.604  0.2212 -0.9047  0.3284
  105OSM   C14F10696   6.256   6.348   5.440  0.6070  0.3932  0.0902
  105OSM   H14F10697   6.326   6.265   5.463  2.0031  1.0966 -1.3892
  105OSM   H14G10698   6.322   6.431   5.405  0.8813  0.4693  0.7676
  105OSM   C15F10699   6.159   6.286   5.333 -0.7112  0.4415 -0.6423
  105OSM   H15F10700   6.108   6.202   5.384  2.3583 -0.4147  1.2503
  105OSM   H15G10701   6.226   6.243   5.256 -1.2569 -0.0702 -0.8351
  105OSM   C16F10702   6.063   6.378   5.265  0.3129 -0.2128  0.3421
  105OSM   H16F10703   6.105   6.476   5.233  0.5716 -0.7490 -1.0233
  105OSM   H16G10704   5.996   6.405   5.349 -1.2565  2.9246 -1.7512
  105OSM   C17F10705   5.974   6.325   5.158  0.6627  0.5542  0.7386
  105OSM   H17F10706   5.892   6.396   5.135  0.1673 -0.4979 -0.9755
  105OSM   H17G10707   5.915   6.234   5.184 -0.3574  0.8451 -0.4459
  105OSM   C18F10708   6.042   6.299   5.025  0.2755 -0.3260  0.7656
  105OSM   H18F10709   5.977   6.237   4.959  1.5651  0.6602 -1.5560
  105OSM   H18G10710   6.144   6.255   5.024  1.1112  1.5117 -0.6204
  105OSM   H18H10711   6.058   6.400   4.981 -1.2623 -0.3703  0.0126
  106OSM      N10712   5.063   4.776   7.168  0.3063  0.1821 -0.7067
  106OSM    C1510713   5.151   4.789   7.046  0.2911 -0.2373  0.1547
  106OSM   H15A10714   5.222   4.708   7.051  1.7607  0.9800 -0.2063
  106OSM   H15B10715   5.217   4.874   7.041  0.0067  0.1556  2.4279
  106OSM   H15C10716   5.099   4.785   6.951 -1.5950 -0.4803  1.1500
  106OSM    C1410717   5.158   4.771   7.285  0.1794 -0.2479 -1.0682
  106OSM   H14A10718   5.195   4.670   7.297 -0.6214 -0.2694  2.3690
  106OSM   H14B10719   5.100   4.787   7.375 -0.2629 -0.6672 -1.2714
  106OSM   H14C10720   5.241   4.838   7.270  0.9981 -1.7663 -4.2870
  106OSM    C1310721   4.957   4.879   7.182  0.0072 -0.3661 -0.7412
  106OSM   H13A10722   4.866   4.850   7.234 -0.4473 -0.8355 -1.7728
  106OSM   H13B10723   4.932   4.927   7.089 -1.5215  0.3246 -0.0213
  106OSM   H13C10724   4.993   4.954   7.250  0.1212 -1.4433  0.4289
  106OSM    C1210725   4.993   4.644   7.169 -0.0873 -0.4386  0.1966
  106OSM   H12A10726   4.919   4.650   7.091  1.8273 -2.0413 -1.8803
  106OSM   H12B10727   4.939   4.630   7.262 -1.1434 -2.1074 -0.6331
  106OSM    C1110728   5.075   4.520   7.139 -0.1479  0.0978 -0.2742
  106OSM   H11A10729   5.117   4.524   7.036 -1.1646 -1.1987 -0.7675
  106OSM   H11B10730   5.001   4.438   7.123  0.1753 -0.1362 -0.5895
  106OSM      P10731   5.256   4.349   7.218 -0.3409  0.0224  0.5136
  106OSM    O1310732   5.394   4.371   7.269  0.2212  0.4938 -0.0583
  106OSM    O1410733   5.183   4.234   7.282 -0.5400  0.0252  0.2545
  106OSM    O1110734   5.269   4.332   7.058 -0.0859  0.3174 -0.3787
  106OSM    O1210735   5.172   4.484   7.234  0.3585  0.2221  0.3722
  106OSM    C1S10736   5.305   4.207   6.998 -0.0758  0.5503 -0.2316
  106OSM    H1S10737   5.233   4.137   7.045 -0.9749  0.8872 -1.0788
  106OSM    H1T10738   5.406   4.173   7.030 -0.2435 -0.1630 -0.4596
  106OSM     NF10739   5.311   4.074   6.782  1.0116 -0.1256  0.2189
  106OSM    HNF10740   5.407   4.054   6.763  1.8372  3.5387 -0.1139
  106OSM    C2S10741   5.297   4.204   6.845 -0.0794 -0.4246 -0.3057
  106OSM    H2S10742   5.202   4.244   6.805  0.9645  0.9678 -1.4975
  106OSM    C3S10743   5.403   4.303   6.792 -0.2177 -0.1857  1.0694
  106OSM    H3S10744   5.503   4.263   6.819 -0.7551 -1.4929  1.1805
  106OSM     O310745   5.397   4.436   6.846 -0.1309  0.1482  0.1548
  106OSM    HO310746   5.347   4.415   6.926  0.0267  0.7882  0.4332
  106OSM    C4S10747   5.391   4.314   6.640  0.4774  0.0332 -0.4072
  106OSM    H4S10748   5.282   4.310   6.632  0.4075 -1.4800  0.7797
  106OSM    C5S10749   5.476   4.302   6.536 -0.4306  0.8762  0.7025
  106OSM    H5S10750   5.572   4.254   6.560 -1.5749 -1.3911  1.0439
  106OSM    C6S10751   5.430   4.294   6.398 -0.5445 -0.2366 -0.0199
  106OSM    H6S10752   5.496   4.353   6.330 -1.0061 -0.4132 -0.6251
  106OSM    H6T10753   5.329   4.338   6.384 -0.3725  0.5314  0.9892
  106OSM    C7S10754   5.445   4.144   6.349 -0.1094 -0.7282 -0.2899
  106OSM    H7S10755   5.345   4.099   6.368 -2.2573  3.0084 -1.6983
  106OSM    H7T10756   5.508   4.086   6.420 -0.0606  0.2173  0.4692
  106OSM    C8S10757   5.490   4.135   6.204  0.1936  0.0498  1.2654
  106OSM    H8S10758   5.479   4.029   6.172 -0.2123  0.0239  1.4880
  106OSM    H8T10759   5.601   4.136   6.197  0.1281  0.5374  0.2036
  106OSM    C9S10760   5.419   4.229   6.101 -0.2657  0.3788 -0.5645
  106OSM    H9S10761   5.456   4.329   6.130 -2.2428  0.3123  2.7020
  106OSM    H9T10762   5.311   4.228   6.129  0.2523 -1.4737  1.6703
  106OSM   C10S10763   5.454   4.186   5.951 -0.1874  0.4199 -0.3390
  106OSM   H10S10764   5.421   4.080   5.959 -1.2918  0.8950  3.0996
  106OSM   H10T10765   5.564   4.198   5.937 -0.3700  2.1528 -0.4941
  106OSM   C11S10766   5.366   4.259   5.851  1.0252  0.1490 -0.1368
  106OSM   H11S10767   5.369   4.368   5.874 -2.2687  0.3781 -0.3281
  106OSM   H11T10768   5.266   4.210   5.853  1.2835 -0.3666  0.8158
  106OSM   C12S10769   5.422   4.237   5.708  0.7219 -0.4829 -0.4532
  106OSM   H12S10770   5.395   4.131   5.688 -0.2219 -0.0794 -1.4100
  106OSM   H12T10771   5.532   4.246   5.707  0.7080 -0.3437 -0.7320
  106OSM   C13S10772   5.354   4.313   5.604 -0.0604 -0.3673 -1.6073
  106OSM   H13S10773   5.382   4.420   5.609 -2.8158  0.3908 -0.0985
  106OSM   H13T10774   5.245   4.318   5.626  0.3216 -0.5763  0.5593
  106OSM   C14S10775   5.363   4.260   5.460 -0.3284 -0.0530  0.7751
  106OSM   H14S10776   5.469   4.233   5.441  0.5708  0.8204  3.9056
  106OSM   H14T10777   5.346   4.356   5.407  2.8781  0.3183  0.2427
  106OSM   C15S10778   5.247   4.161   5.423  0.2507  0.9221  0.4891
  106OSM   H15S10779   5.151   4.198   5.464  1.4719  1.7156  2.7790
  106OSM   H15T10780   5.264   4.056   5.455 -0.7932  0.7668  0.5550
  106OSM   C16S10781   5.236   4.146   5.268 -0.0119  0.3338  0.2188
  106OSM   H16S10782   5.341   4.142   5.232  1.3921  1.4866  3.7004
  106OSM   H16T10783   5.202   4.244   5.230  1.1462  1.9562  3.0245
  106OSM   C17S10784   5.130   4.042   5.234  0.2054  0.0244  0.2115
  106OSM   H17S10785   5.036   4.078   5.281 -0.0751  2.4338 -1.9281
  106OSM   H17T10786   5.162   3.946   5.280 -0.4911  0.3518  1.4032
  106OSM   C18S10787   5.098   4.032   5.078 -0.2700 -0.4618 -0.6761
  106OSM   H18S10788   5.073   4.132   5.035  0.2064  0.5046  1.2113
  106OSM   H18T10789   5.014   3.962   5.056  0.8133 -1.9578 -0.2067
  106OSM   H18U10790   5.188   4.002   5.021  0.2536 -0.8644  0.3403
  106OSM    C1F10791   5.214   3.985   6.758 -0.3214  0.2758  0.2441
  106OSM     OF10792   5.106   4.009   6.804  0.0211  0.5126 -0.1748
  106OSM    C2F10793   5.254   3.856   6.688 -0.4271  0.3385 -0.6717
  106OSM    H2F10794   5.311   3.793   6.759 -1.5051  0.2565  0.1490
  106OSM    H2G10795   5.332   3.883   6.614 -0.2841 -0.8366 -0.9569
  106OSM    C3F10796   5.143   3.763   6.635 -0.7018 -0.2022 -0.1404
  106OSM    H3F10797   5.079   3.759   6.725  0.3496 -2.3545  0.5780
  106OSM    H3G10798   5.186   3.662   6.620 -0.6394 -0.2358  0.2502
  106OSM    C4F10799   5.059   3.815   6.525 -0.7216  0.4646  0.4875
  106OSM    H4F10800   4.997   3.904   6.551 -2.9281 -1.2209  1.3002
  106OSM    H4G10801   4.988   3.733   6.501 -0.7440  0.1434  1.6268
  106OSM    C5F10802   5.139   3.830   6.398 -0.2927  0.3340 -0.3636
  106OSM    H5F10803   5.210   3.746   6.381  0.3509  1.4599 -4.3711
  106OSM    H5G10804   5.190   3.928   6.394 -2.7703  1.8779  2.2821
  106OSM    C6F10805   5.051   3.831   6.265  0.0917 -0.1824 -0.5404
  106OSM    H6F10806   4.962   3.895   6.282  1.9932  2.2412  1.2101
  106OSM    H6G10807   5.020   3.728   6.239 -0.0132 -0.6550  1.3292
  106OSM    C7F10808   5.132   3.886   6.148 -0.9624 -0.1731 -0.9726
  106OSM    H7F10809   5.236   3.849   6.157 -0.9946  0.2734  2.2449
  106OSM    H7G10810   5.149   3.995   6.160  1.9066 -0.7505  1.2805
  106OSM    C8F10811   5.069   3.855   6.012  0.2137 -0.2666  0.2104
  106OSM    H8F10812   4.970   3.904   6.004 -0.1552 -0.4784  2.7399
  106OSM    H8G10813   5.042   3.748   6.001 -0.7660  0.0659 -0.9411
  106OSM    C9F10814   5.171   3.900   5.906  0.6993 -0.1693 -0.0150
  106OSM    H9F10815   5.268   3.925   5.950 -0.4326  1.2445  1.8397
  106OSM   C10F10816   5.145   3.928   5.772  0.7654  0.2968 -0.2023
  106OSM   H10F10817   5.230   3.959   5.709  0.6734  0.5275 -0.2165
  106OSM   C11F10818   5.009   3.914   5.711  0.3898 -0.2444  0.4663
  106OSM   H11F10819   4.981   3.991   5.636  0.8959 -0.1264  0.3892
  106OSM   H11G10820   4.924   3.912   5.782  1.3634  0.9108  1.7297
  106OSM   C12F10821   5.006   3.790   5.615 -0.0124  0.1588  0.6732
  106OSM   H12F10822   4.971   3.704   5.675  2.6045 -1.1321  0.4607
  106OSM   H12G10823   5.105   3.765   5.572  0.1985  1.3282  0.4486
  106OSM   C13F10824   4.899   3.812   5.502  0.7630 -0.2064 -0.7409
  106OSM   H13F10825   4.913   3.904   5.441  1.0826  0.0377 -0.3107
  106OSM   H13G10826   4.800   3.830   5.550  0.8774  0.3477 -0.7048
  106OSM   C14F10827   4.879   3.694   5.412  0.4432 -0.4160  0.5932
  106OSM   H14F10828   4.803   3.718   5.334  0.6924  0.1478  0.5200
  106OSM   H14G10829   4.833   3.615   5.475 -1.9368  0.2085 -0.2265
  106OSM   C15F10830   5.000   3.648   5.336  0.1321  0.2432  0.1292
  106OSM   H15F10831   5.065   3.604   5.415  0.3287  1.8148  0.8976
  106OSM   H15G10832   5.046   3.737   5.287 -0.4797 -0.4459 -1.7676
  106OSM   C16F10833   4.969   3.561   5.223  0.1976  0.2359 -0.6223
  106OSM   H16F10834   4.942   3.458   5.256 -2.4974  0.2142 -2.5088
  106OSM   H16G10835   5.066   3.554   5.169  0.3281  0.0613 -0.3683
  106OSM   C17F10836   4.857   3.600   5.121 -0.7854 -0.1223 -0.0523
  106OSM   H17F10837   4.880   3.702   5.085 -2.5269  0.3672  0.1154
  106OSM   H17G10838   4.762   3.611   5.178 -0.9528  2.5851 -0.7335
  106OSM   C18F10839   4.833   3.499   5.008  0.5534  0.1131  0.0517
  106OSM   H18F10840   4.755   3.536   4.938 -0.3824  1.4393  1.7415
  106OSM   H18G10841   4.788   3.404   5.045 -1.4619  1.6917  1.9055
  106OSM   H18H10842   4.928   3.488   4.950  0.6292  4.1448 -0.8580
  107OSM      N10843   4.906   3.210   7.394  0.6515 -0.2658  0.6330
  107OSM    C1510844   4.978   3.211   7.531  0.3036  0.0673  0.1081
  107OSM   H15A10845   4.918   3.147   7.593 -1.2975 -1.1466 -2.4922
  107OSM   H15B10846   4.994   3.308   7.575  2.4098  0.1594 -0.7012
  107OSM   H15C10847   5.076   3.165   7.522 -0.2044 -1.1461  0.6590
  107OSM    C1410848   4.890   3.066   7.346 -0.1267 -0.3634 -0.3442
  107OSM   H14A10849   4.979   3.005   7.360 -0.0334 -0.5205 -1.5061
  107OSM   H14B10850   4.871   3.062   7.240 -0.2025  0.1316 -0.3502
  107OSM   H14C10851   4.815   3.014   7.404  0.2251  0.2202  0.6715
  107OSM    C1310852   4.772   3.270   7.413 -0.3362 -0.3921 -0.2367
  107OSM   H13A10853   4.787   3.366   7.461  0.9722 -0.4338 -0.5281
  107OSM   H13B10854   4.710   3.207   7.476 -0.2176 -1.1146 -0.8329
  107OSM   H13C10855   4.723   3.282   7.318  0.8548  0.0044 -0.8224
  107OSM    C1210856   4.997   3.299   7.308  0.4037 -0.1971  0.6971
  107OSM   H12A10857   5.094   3.255   7.317  0.5610 -0.6212 -2.2695
  107OSM   H12B10858   5.011   3.398   7.351 -3.5358  0.2218  1.4851
  107OSM    C1110859   4.958   3.315   7.157 -0.5933 -0.1182 -0.5121
  107OSM   H11A10860   4.920   3.221   7.111 -0.8990 -0.9361  1.3509
  107OSM   H11B10861   5.049   3.348   7.101 -0.3133  1.9698  1.0836
  107OSM      P10862   4.850   3.551   7.142  0.0217  0.3898  0.3093
  107OSM    O1310863   4.712   3.597   7.180  0.3020 -0.1105 -0.4104
  107OSM    O1410864   4.959   3.605   7.220  0.2516  0.0169 -0.2399
  107OSM    O1110865   4.887   3.560   6.993 -0.4181 -0.5374  0.3439
  107OSM    O1210866   4.845   3.399   7.154 -0.4385 -0.1570  0.7633
  107OSM    C1S10867   4.787   3.574   6.893 -0.4577 -0.2919  0.6210
  107OSM    H1S10868   4.726   3.666   6.910  1.1091  0.8428  0.2998
  107OSM    H1T10869   4.717   3.488   6.898 -0.9952  0.1200  0.3540
  107OSM     NF10870   4.739   3.589   6.646  0.7100 -0.0827  0.1053
  107OSM    HNF10871   4.710   3.506   6.599  1.8585  0.0945 -0.9829
  107OSM    C2S10872   4.844   3.569   6.745  0.4859 -0.5500  0.2791
  107OSM    H2S10873   4.913   3.656   6.737  0.1586 -0.0750  2.2669
  107OSM    C3S10874   4.925   3.437   6.723 -0.2381 -0.4829  0.3277
  107OSM    H3S10875   4.850   3.356   6.715 -0.6188 -0.0771 -0.3222
  107OSM     O310876   5.026   3.406   6.818 -0.0052  0.1090 -0.2095
  107OSM    HO310877   5.004   3.456   6.897 -0.7412  1.3551 -1.1591
  107OSM    C4S10878   4.993   3.433   6.585 -0.5945  0.5578 -0.0443
  107OSM    H4S10879   5.040   3.528   6.558 -0.7032  0.4404 -0.6804
  107OSM    C5S10880   4.991   3.327   6.496 -0.5119 -0.4968  0.1996
  107OSM    H5S10881   4.939   3.240   6.539 -1.3420 -0.0511  0.1385
  107OSM    C6S10882   5.059   3.328   6.359  0.1325  0.3723 -0.4661
  107OSM    H6S10883   4.980   3.331   6.281  0.6699  2.0893 -0.9837
  107OSM    H6T10884   5.115   3.233   6.346 -1.0776 -0.1860 -1.8503
  107OSM    C7S10885   5.149   3.443   6.312  0.4025 -0.2630  0.6919
  107OSM    H7S10886   5.220   3.471   6.393  0.4274 -1.4641  1.1160
  107OSM    H7T10887   5.090   3.534   6.290  0.5404 -0.3039  0.1337
  107OSM    C8S10888   5.244   3.412   6.194 -0.0136  0.8263  0.0971
  107OSM    H8S10889   5.324   3.344   6.231  0.6776  0.8245 -1.2986
  107OSM    H8T10890   5.288   3.505   6.152  1.3292 -0.0308 -0.4788
  107OSM    C9S10891   5.177   3.343   6.070  0.9889  0.0334 -0.3664
  107OSM    H9S10892   5.083   3.400   6.056 -0.4860 -2.3327 -0.8196
  107OSM    H9T10893   5.148   3.243   6.109  0.1592  0.3374 -0.1817
  107OSM   C10S10894   5.248   3.338   5.940  0.1872 -0.1197  0.1310
  107OSM   H10S10895   5.354   3.312   5.955  0.1172 -1.0613 -0.8372
  107OSM   H10T10896   5.240   3.440   5.897  0.7495 -0.7663 -1.6278
  107OSM   C11S10897   5.184   3.237   5.845 -0.4007 -0.0953  0.9111
  107OSM   H11S10898   5.086   3.199   5.883 -1.4734 -1.4992 -2.8344
  107OSM   H11T10899   5.259   3.158   5.822 -0.2385 -1.0038  4.0548
  107OSM   C12S10900   5.143   3.307   5.707 -0.1004 -0.0840  0.4827
  107OSM   H12S10901   5.236   3.364   5.686 -1.3890  2.7176  1.8711
  107OSM   H12T10902   5.071   3.388   5.730  0.9733  0.9012  0.4718
  107OSM   C13S10903   5.116   3.199   5.597 -0.0726 -0.4377  0.4630
  107OSM   H13S10904   5.031   3.133   5.625  0.7683 -2.1147 -0.7996
  107OSM   H13T10905   5.212   3.146   5.586  0.1787 -0.3544  2.0584
  107OSM   C14S10906   5.069   3.259   5.456  0.2847  0.1290  0.2865
  107OSM   H14S10907   5.151   3.321   5.412 -1.0153 -0.0310 -2.5364
  107OSM   H14T10908   4.989   3.335   5.469 -0.6328 -1.0093  1.5667
  107OSM   C15S10909   5.029   3.139   5.367 -0.0883 -0.1981 -0.0739
  107OSM   H15S10910   4.939   3.087   5.406 -0.1405  1.3249  2.0050
  107OSM   H15T10911   5.105   3.058   5.374 -2.1914 -2.3622 -0.9908
  107OSM   C16S10912   5.008   3.174   5.219  0.4097  0.3514  0.0872
  107OSM   H16S10913   5.098   3.228   5.183  1.1364  0.1009  1.4481
  107OSM   H16T10914   4.908   3.221   5.205 -0.6797 -1.5795  0.8724
  107OSM   C17S10915   4.999   3.042   5.137 -0.1577 -0.4451  0.5072
  107OSM   H17S10916   4.957   2.954   5.190 -1.1110 -1.3735 -1.6833
  107OSM   H17T10917   5.104   3.026   5.103 -0.1299 -0.5606  0.6502
  107OSM   C18S10918   4.894   3.047   5.025 -0.0659 -0.2898  0.3560
  107OSM   H18S10919   4.907   3.134   4.959  1.0966 -1.0336 -0.4286
  107OSM   H18T10920   4.796   3.048   5.079 -1.4241 -1.4720 -1.9320
  107OSM   H18U10921   4.896   2.950   4.970 -0.7743  0.2998 -0.7392
  107OSM    C1F10922   4.682   3.703   6.632 -0.1535 -0.5324  0.8462
  107OSM     OF10923   4.730   3.809   6.673  0.5226  0.2611  0.5996
  107OSM    C2F10924   4.542   3.701   6.558 -0.4831  0.3036  0.5735
  107OSM    H2F10925   4.478   3.770   6.618  0.0067  1.1756  0.1242
  107OSM    H2G10926   4.511   3.595   6.560 -0.0050  0.1337 -0.5417
  107OSM    C3F10927   4.547   3.748   6.409 -0.3086 -0.0042 -0.2710
  107OSM    H3F10928   4.444   3.746   6.369 -0.5489 -1.2474  0.3460
  107OSM    H3G10929   4.612   3.687   6.343 -1.6370 -2.2557  0.3871
  107OSM    C4F10930   4.602   3.890   6.395  0.0507  0.1563  0.0249
  107OSM    H4F10931   4.709   3.886   6.426  0.4070 -0.5983 -1.1983
  107OSM    H4G10932   4.551   3.965   6.459  0.3413  1.9781 -1.8018
  107OSM    C5F10933   4.631   3.941   6.253  0.3209 -0.1132  0.6240
  107OSM    H5F10934   4.732   3.906   6.224  1.4609  2.0260  1.7007
  107OSM    H5G10935   4.647   4.051   6.259  1.2643 -0.1991 -0.1385
  107OSM    C6F10936   4.522   3.909   6.145  0.0391 -0.4111 -0.5298
  107OSM    H6F10937   4.427   3.932   6.198  0.9896 -0.0211  1.0874
  107OSM    H6G10938   4.546   3.803   6.123 -0.6490 -0.4867 -0.9365
  107OSM    C7F10939   4.527   3.988   6.018 -0.3994 -0.7743  0.2314
  107OSM    H7F10940   4.543   4.095   6.043  2.0576 -1.1535  0.5188
  107OSM    H7G10941   4.432   3.981   5.960 -0.1041  0.0104 -0.3538
  107OSM    C8F10942   4.637   3.931   5.932  0.3403 -0.1000  0.4821
  107OSM    H8F10943   4.607   3.827   5.907 -1.3571 -0.2252  2.6483
  107OSM    H8G10944   4.733   3.927   5.989  0.9853  3.8139 -0.0764
  107OSM    C9F10945   4.669   4.013   5.814 -0.1948  0.0453  0.1090
  107OSM    H9F10946   4.733   4.101   5.826 -0.3492  0.1315  0.3010
  107OSM   C10F10947   4.599   3.990   5.699  0.5751 -0.4854 -0.9406
  107OSM   H10F10948   4.615   4.064   5.619 -2.9767  1.2135 -0.2803
  107OSM   C11F10949   4.489   3.891   5.668  0.4655  0.2146 -0.0150
  107OSM   H11F10950   4.459   3.839   5.762  1.3172 -1.0624 -0.4194
  107OSM   H11G10951   4.527   3.809   5.603  0.7840  0.9820 -0.8162
  107OSM   C12F10952   4.357   3.940   5.599 -0.0996  0.2521 -0.1397
  107OSM   H12F10953   4.326   4.020   5.670 -1.8868  0.3371 -0.9692
  107OSM   H12G10954   4.276   3.865   5.612  1.5815 -1.2431  2.7550
  107OSM   C13F10955   4.368   3.966   5.449 -0.3708 -0.4144  0.0345
  107OSM   H13F10956   4.440   4.048   5.430 -0.6040  0.1684  1.5080
  107OSM   H13G10957   4.271   3.993   5.401  0.8594  0.9859 -1.7779
  107OSM   C14F10958   4.407   3.849   5.366  0.0263 -0.7663  0.5190
  107OSM   H14F10959   4.341   3.762   5.383 -1.1392  0.1580  0.7990
  107OSM   H14G10960   4.512   3.813   5.378  0.5011  0.6948  1.0085
  107OSM   C15F10961   4.374   3.886   5.218  0.1527 -0.5143 -0.3497
  107OSM   H15F10962   4.441   3.972   5.198  0.4783 -0.5270  0.6390
  107OSM   H15G10963   4.277   3.940   5.217  1.3238  1.8380  1.7095
  107OSM   C16F10964   4.405   3.769   5.120 -0.5860  0.4333  0.5190
  107OSM   H16F10965   4.509   3.732   5.122 -0.3013  1.0790 -0.8510
  107OSM   H16G10966   4.396   3.820   5.021 -1.7033 -0.0761  0.3412
  107OSM   C17F10967   4.308   3.656   5.131  0.4505 -0.1208  0.2124
  107OSM   H17F10968   4.214   3.697   5.173  0.6031 -0.8858  1.3784
  107OSM   H17G10969   4.345   3.581   5.205 -1.8951 -1.2409  0.3222
  107OSM   C18F10970   4.272   3.576   5.007 -0.7253 -0.3558 -0.5250
  107OSM   H18F10971   4.363   3.519   4.980 -0.0131 -0.9871  2.8291
  107OSM   H18G10972   4.231   3.645   4.930  0.9327  0.1578 -0.9816
  107OSM   H18H10973   4.189   3.506   5.031 -2.6124  0.6055 -3.5919
  108OSM      N10974   1.432   2.392   7.041 -0.0410  0.3709  0.2357
  108OSM    C1510975   1.573   2.407   7.062 -0.0493  0.4383  0.3078
  108OSM   H15A10976   1.613   2.490   7.006  3.1392 -0.9000  0.3817
  108OSM   H15B10977   1.622   2.319   7.023 -1.9546 -0.7933  0.5957
  108OSM   H15C10978   1.610   2.425   7.162 -0.7910  0.6471  0.5508
  108OSM    C1410979   1.388   2.273   7.122 -0.2409 -0.1286 -0.2180
  108OSM   H14A10980   1.285   2.253   7.098 -1.5628  2.8314  2.3607
  108OSM   H14B10981   1.398   2.303   7.225  1.3423 -2.7621  0.4825
  108OSM   H14C10982   1.446   2.183   7.110 -1.5363 -1.4546  2.6614
  108OSM    C1310983   1.368   2.519   7.095 -0.4041 -0.7878 -0.3793
  108OSM   H13A10984   1.263   2.499   7.107 -0.2094 -0.6460  1.9033
  108OSM   H13B10985   1.391   2.596   7.023  0.9582 -1.7919 -1.0707
  108OSM   H13C10986   1.407   2.557   7.188  0.3173  2.2164 -1.7745
  108OSM    C1210987   1.389   2.380   6.891 -0.3109  0.4416  0.5863
  108OSM   H12A10988   1.441   2.301   6.840 -1.4689  1.2341 -1.9525
  108OSM   H12B10989   1.416   2.472   6.840 -1.5047 -0.0435 -0.9890
  108OSM    C1110990   1.239   2.359   6.855  0.1198  0.4852 -1.0178
  108OSM   H11A10991   1.219   2.266   6.914  1.8391 -1.6084 -3.5288
  108OSM   H11B10992   1.229   2.338   6.747 -0.8198 -0.3465 -0.7886
  108OSM      P10993   1.151   2.604   6.843 -0.1262  0.2718 -0.2896
  108OSM    O1310994   1.087   2.702   6.933 -0.4012  0.0521 -0.0083
  108OSM    O1410995   1.287   2.630   6.797 -0.5236  0.2986 -0.1981
  108OSM    O1110996   1.066   2.601   6.712 -0.0187  0.0434  0.2109
  108OSM    O1210997   1.145   2.459   6.904 -0.0576 -0.0336  0.3315
  108OSM    C1S10998   0.973   2.498   6.676  0.4999 -0.3519  0.1403
  108OSM    H1S10999   0.883   2.507   6.741  1.2966 -0.4140  1.2812
  108OSM    H1T11000   1.008   2.395   6.699 -1.0293 -0.8210  0.4748
  108OSM     NF11001   0.812   2.431   6.515 -0.2318 -0.3570  0.1941
  108OSM    HNF11002   0.826   2.342   6.472 -1.2999 -0.1879 -0.5584
  108OSM    C2S11003   0.928   2.510   6.530 -0.1446 -0.2022 -0.7358
  108OSM    H2S11004   0.893   2.615   6.513  0.3265  0.4089  1.7068
  108OSM    C3S11005   1.057   2.485   6.446  0.9907  0.4542  0.5119
  108OSM    H3S11006   1.081   2.379   6.469 -0.5427  0.0415  0.3097
  108OSM     O311007   1.175   2.544   6.501  0.0847  0.0483  0.5434
  108OSM    HO311008   1.147   2.563   6.591  1.3576 -1.3156  1.2815
  108OSM    C4S11009   1.039   2.513   6.301  0.7622 -0.1692 -0.0222
  108OSM    H4S11010   0.984   2.425   6.262  2.0583 -1.3257  0.6740
  108OSM    C5S11011   1.075   2.618   6.225 -0.3807  0.4413 -0.5061
  108OSM    H5S11012   1.126   2.692   6.289 -2.3233 -1.0969  3.1548
  108OSM    C6S11013   1.055   2.627   6.079 -0.0816  0.3721  0.7019
  108OSM    H6S11014   0.965   2.685   6.049  0.3872  0.2149 -1.1167
  108OSM    H6T11015   1.048   2.527   6.031  3.2735  1.6981 -3.2130
  108OSM    C7S11016   1.178   2.690   6.018 -0.3252 -0.0758  0.6230
  108OSM    H7S11017   1.270   2.631   6.039  1.8704  2.7969 -0.2035
  108OSM    H7T11018   1.188   2.796   6.052 -1.2382  0.4986 -0.8075
  108OSM    C8S11019   1.157   2.697   5.866  0.9640  0.2404  0.3238
  108OSM    H8S11020   1.068   2.757   5.838  2.8261  2.0687 -2.1202
  108OSM    H8T11021   1.119   2.600   5.827 -2.1672  1.8757 -1.0341
  108OSM    C9S11022   1.274   2.742   5.785 -0.2557 -0.0917 -0.2101
  108OSM    H9S11023   1.304   2.849   5.791 -1.1951  0.3308 -2.0781
  108OSM    H9T11024   1.245   2.731   5.678 -0.1981 -0.4916 -0.1871
  108OSM   C10S11025   1.392   2.663   5.826 -0.2869 -0.0770 -0.0760
  108OSM   H10S11026   1.366   2.556   5.838  0.8337 -0.4728 -0.9330
  108OSM   H10T11027   1.421   2.694   5.928  0.1611  1.0418 -0.5178
  108OSM   C11S11028   1.517   2.665   5.734  0.6484  0.0688  0.1069
  108OSM   H11S11029   1.604   2.613   5.779  1.2955  0.5773 -0.5168
  108OSM   H11T11030   1.549   2.771   5.726 -0.4128  0.2599 -3.6497
  108OSM   C12S11031   1.485   2.622   5.590  0.3164 -0.0028 -0.8195
  108OSM   H12S11032   1.476   2.713   5.527 -1.4906  1.6056  1.5522
  108OSM   H12T11033   1.386   2.572   5.598 -1.0146  2.4324 -1.0217
  108OSM   C13S11034   1.584   2.511   5.536 -0.7211 -0.3754  0.1459
  108OSM   H13S11035   1.592   2.439   5.621 -0.2116  1.0098  1.3087
  108OSM   H13T11036   1.682   2.562   5.545 -0.7289 -0.5024  1.0808
  108OSM   C14S11037   1.546   2.454   5.398  0.2111  0.1349  0.1680
  108OSM   H14S11038   1.558   2.521   5.309  1.0059 -0.9711 -0.5849
  108OSM   H14T11039   1.442   2.416   5.406  1.9105 -5.2186  0.5462
  108OSM   C15S11040   1.631   2.322   5.370  0.1260 -1.1159  0.0010
  108OSM   H15S11041   1.719   2.323   5.438 -1.4956 -0.0880  2.1756
  108OSM   H15T11042   1.653   2.308   5.262  1.1469  2.2230 -0.3330
  108OSM   C16S11043   1.571   2.190   5.425  0.4598  0.3146  0.2906
  108OSM   H16S11044   1.493   2.140   5.364 -0.4628  1.4323  0.5173
  108OSM   H16T11045   1.539   2.199   5.531 -1.2386 -2.8802  0.1764
  108OSM   C17S11046   1.687   2.086   5.412  0.8726  0.4080  0.5673
  108OSM   H17S11047   1.757   2.129   5.488  0.3369  0.6834  0.9132
  108OSM   H17T11048   1.720   2.076   5.307  0.7082 -1.6715  0.6786
  108OSM   C18S11049   1.657   1.938   5.447 -0.6419  0.1141 -0.0534
  108OSM   H18S11050   1.608   1.886   5.362  1.2703 -1.6301 -0.1531
  108OSM   H18T11051   1.590   1.948   5.536  1.5907 -0.7296  1.8421
  108OSM   H18U11052   1.743   1.878   5.483 -1.0467 -0.4692 -0.0391
  108OSM    C1F11053   0.685   2.457   6.558 -0.1254 -0.5391  0.1357
  108OSM     OF11054   0.661   2.548   6.632 -0.3686 -0.0608 -0.0948
  108OSM    C2F11055   0.576   2.362   6.528  0.7235 -0.0540  0.1494
  108OSM    H2F11056   0.518   2.359   6.622 -1.5385  4.1970 -0.8300
  108OSM    H2G11057   0.618   2.262   6.507  1.0181  0.0758  0.1228
  108OSM    C3F11058   0.500   2.391   6.399 -0.2706  0.4799  0.0990
  108OSM    H3F11059   0.466   2.496   6.412  1.2168  1.2486 -1.7556
  108OSM    H3G11060   0.411   2.326   6.415  0.3522  0.4644  5.1164
  108OSM    C4F11061   0.584   2.371   6.271  0.9145 -0.2134  0.0564
  108OSM    H4F11062   0.642   2.279   6.294  0.2008 -0.8041 -0.4950
  108OSM    H4G11063   0.662   2.450   6.258  1.6680 -0.9582 -0.0501
  108OSM    C5F11064   0.504   2.344   6.147 -0.0225 -0.3645  0.2392
  108OSM    H5F11065   0.448   2.439   6.132  0.9264  0.3921  1.3471
  108OSM    H5G11066   0.431   2.266   6.176  0.3039 -0.5101  0.6782
  108OSM    C6F11067   0.584   2.294   6.030 -0.4266  1.0060 -0.3506
  108OSM    H6F11068   0.638   2.203   6.065 -0.0078  0.5253 -2.1425
  108OSM    H6G11069   0.650   2.372   5.987 -0.1647  0.2165 -1.4379
  108OSM    C7F11070   0.494   2.267   5.916 -0.3827  0.5869 -0.0236
  108OSM    H7F11071   0.459   2.360   5.865 -1.5765  0.3393  0.3038
  108OSM    H7G11072   0.405   2.218   5.962  1.0354 -0.6689  1.5242
  108OSM    C8F11073   0.557   2.173   5.811  0.1763  0.1409 -1.1127
  108OSM    H8F11074   0.476   2.133   5.747  0.2836 -0.4505 -0.8882
  108OSM    H8G11075   0.597   2.081   5.860 -0.3975 -0.2253 -1.3280
  108OSM    C9F11076   0.656   2.249   5.722  0.1098  0.1951 -0.0129
  108OSM    H9F11077   0.755   2.272   5.762  1.1635 -1.9512 -1.1788
  108OSM   C10F11078   0.636   2.284   5.588  0.0472  0.1198 -0.0018
  108OSM   H10F11079   0.714   2.345   5.539  0.6346  0.1089  0.9082
  108OSM   C11F11080   0.512   2.259   5.503  0.1031 -0.5382 -0.0036
  108OSM   H11F11081   0.516   2.327   5.416  3.0242 -0.5534 -0.0085
  108OSM   H11G11082   0.426   2.282   5.568 -1.5960 -1.4327 -1.8307
  108OSM   C12F11083   0.511   2.116   5.458 -0.7486  0.3427  0.0037
  108OSM   H12F11084   0.417   2.086   5.406 -0.4049 -1.5069  0.4053
  108OSM   H12G11085   0.533   2.043   5.538 -0.6155  0.4079  0.0264
  108OSM   C13F11086   0.619   2.088   5.348  0.2548 -0.2913 -0.0042
  108OSM   H13F11087   0.717   2.124   5.386 -0.0355  1.0857 -0.5245
  108OSM   H13G11088   0.596   2.144   5.255 -0.7515  0.1071  0.4665
  108OSM   C14F11089   0.613   1.940   5.309 -0.3263  0.1269  0.3598
  108OSM   H14F11090   0.510   1.925   5.270  0.1925 -1.1919 -0.6104
  108OSM   H14G11091   0.636   1.876   5.396 -3.9073 -1.1333  0.5308
  108OSM   C15F11092   0.711   1.893   5.199  0.1133  0.3426  0.6239
  108OSM   H15F11093   0.688   1.955   5.110 -0.4864  2.1465  1.9850
  108OSM   H15G11094   0.688   1.785   5.185 -1.0655  0.6308  0.2901
  108OSM   C16F11095   0.856   1.905   5.235  0.0258 -0.0379  1.1517
  108OSM   H16F11096   0.885   1.890   5.341  1.0089  0.3229  0.9448
  108OSM   H16G11097   0.868   2.015   5.233 -1.9738  0.2019  0.6749
  108OSM   C17F11098   0.948   1.833   5.133  0.1771 -0.3074 -0.5199
  108OSM   H17F11099   0.915   1.855   5.029 -2.5210  1.9698  0.6835
  108OSM   H17G11100   0.937   1.723   5.141 -0.0821 -0.2467 -0.0133
  108OSM   C18F11101   1.095   1.867   5.144  0.1252 -0.7327  0.0458
  108OSM   H18F11102   1.168   1.799   5.094  0.5423  0.2422 -0.7070
  108OSM   H18G11103   1.118   1.884   5.251  0.8809  0.8111 -0.3394
  108OSM   H18H11104   1.094   1.961   5.085  0.1309 -1.1804 -0.6948
  109OSM      N11105   4.362   5.165   6.920 -0.9824  0.2621 -0.3870
  109OSM    C1511106   4.334   5.109   7.056 -0.4075 -1.0796 -0.7116
  109OSM   H15A11107   4.397   5.166   7.122 -2.6436  0.1105  0.5209
  109OSM   H15B11108   4.358   5.005   7.075  0.7719 -0.1019  4.4343
  109OSM   H15C11109   4.231   5.121   7.087 -0.3446  0.4299 -1.0098
  109OSM    C1411110   4.323   5.308   6.916  0.4091 -0.2207 -0.1180
  109OSM   H14A11111   4.219   5.318   6.943  0.3506  0.0936 -0.4533
  109OSM   H14B11112   4.357   5.355   6.825 -1.0422  2.6354  0.6937
  109OSM   H14C11113   4.369   5.356   7.002  0.5539  0.4927 -0.5838
  109OSM    C1311114   4.510   5.148   6.896 -0.0191 -0.2981  0.0502
  109OSM   H13A11115   4.549   5.064   6.951  0.5244  0.2535  0.5155
  109OSM   H13B11116   4.569   5.233   6.927  1.1492 -0.7393 -0.9057
  109OSM   H13C11117   4.540   5.130   6.794  2.5106  0.4979  0.5832
  109OSM    C1211118   4.276   5.085   6.819  0.5265 -0.6133  0.1802
  109OSM   H12A11119   4.290   5.118   6.717  2.3037  1.1194  0.9144
  109OSM   H12B11120   4.173   5.113   6.834  0.1891 -2.6866  2.3221
  109OSM    C1111121   4.273   4.929   6.825 -0.3188  0.3180 -0.4085
  109OSM   H11A11122   4.376   4.893   6.845  0.8914  2.5352 -2.2249
  109OSM   H11B11123   4.234   4.892   6.727  0.8510 -1.9009 -0.0929
  109OSM      P11124   4.164   4.740   6.977  0.1523  0.1677  0.0980
  109OSM    O1311125   4.289   4.686   7.029 -0.0745  0.4485  0.1221
  109OSM    O1411126   4.051   4.734   7.077  0.6379 -0.0421  0.6302
  109OSM    O1111127   4.108   4.678   6.842  0.1046 -0.2851  0.6484
  109OSM    O1211128   4.186   4.892   6.938 -0.5069 -0.1999 -0.8188
  109OSM    C1S11129   3.989   4.722   6.777  0.0973 -0.2339  0.2434
  109OSM    H1S11130   3.980   4.832   6.766 -0.5498 -0.4751 -2.6043
  109OSM    H1T11131   3.901   4.689   6.836  0.7354  0.0838  1.4124
  109OSM     NF11132   3.881   4.726   6.541  0.0086  0.2964 -0.7208
  109OSM    HNF11133   3.799   4.672   6.525  0.1930 -0.0358 -0.5343
  109OSM    C2S11134   3.981   4.663   6.625 -0.1183 -0.4653 -0.2167
  109OSM    H2S11135   4.082   4.700   6.598 -0.4504  0.8077  0.2031
  109OSM    C3S11136   3.969   4.500   6.633 -0.9290 -0.0476 -0.0399
  109OSM    H3S11137   3.862   4.484   6.657 -0.7603 -0.4216  0.4744
  109OSM     O311138   4.041   4.428   6.736 -0.1575 -0.1196  0.0755
  109OSM    HO311139   4.091   4.498   6.779 -1.9476 -0.1023  2.2783
  109OSM    C4S11140   3.992   4.442   6.495  0.2977 -0.2894 -0.6167
  109OSM    H4S11141   3.909   4.450   6.424  0.8445 -2.0176 -1.5155
  109OSM    C5S11142   4.109   4.402   6.441 -0.1196 -0.1476 -0.0478
  109OSM    H5S11143   4.200   4.432   6.496 -0.1082 -1.5474  0.7271
  109OSM    C6S11144   4.119   4.365   6.293  0.2486  0.3081  0.5380
  109OSM    H6S11145   4.037   4.297   6.265  0.9470  0.2597 -1.6033
  109OSM    H6T11146   4.206   4.297   6.300 -0.5012 -0.5919  1.4258
  109OSM    C7S11147   4.147   4.461   6.176  0.7715 -0.0422 -0.1728
  109OSM    H7S11148   4.146   4.404   6.081 -2.1617 -1.4867  0.6110
  109OSM    H7T11149   4.242   4.516   6.196 -1.2273  2.7600  2.7535
  109OSM    C8S11150   4.030   4.565   6.175  0.5122  0.5960 -0.3982
  109OSM    H8S11151   4.017   4.609   6.276  0.7389  1.6086 -0.7984
  109OSM    H8T11152   3.932   4.521   6.146  0.7341  0.2480 -0.6293
  109OSM    C9S11153   4.061   4.686   6.082  0.0354 -0.1847 -0.2495
  109OSM    H9S11154   4.113   4.765   6.140 -0.1079 -0.8309  0.7917
  109OSM    H9T11155   3.959   4.719   6.052 -0.0148 -0.2981 -0.2068
  109OSM   C10S11156   4.149   4.645   5.959  0.0994 -0.1330  0.2083
  109OSM   H10S11157   4.099   4.555   5.918 -1.4522  1.0592 -0.6503
  109OSM   H10T11158   4.248   4.611   5.997 -0.2587  0.7731  2.0889
  109OSM   C11S11159   4.177   4.757   5.858  0.2590 -0.1355  0.0873
  109OSM   H11S11160   4.260   4.718   5.796  0.9086 -1.4569  1.7282
  109OSM   H11T11161   4.209   4.847   5.915 -1.0656 -0.3260  1.1868
  109OSM   C12S11162   4.063   4.808   5.759 -0.2169  0.0514  0.2361
  109OSM   H12S11163   4.078   4.918   5.765  1.1995 -0.0053 -1.3650
  109OSM   H12T11164   3.963   4.783   5.800 -0.1858 -0.4505  0.0168
  109OSM   C13S11165   4.070   4.763   5.612 -0.2616  1.1730  0.2555
  109OSM   H13S11166   4.034   4.658   5.609 -1.0816  1.3675  2.1339
  109OSM   H13T11167   4.172   4.767   5.568 -1.0686  3.1050 -1.6030
  109OSM   C14S11168   3.984   4.851   5.525  0.2507  0.0145  0.7169
  109OSM   H14S11169   4.038   4.947   5.510  2.0677 -1.2096 -1.0849
  109OSM   H14T11170   3.891   4.877   5.579 -0.2890  2.7084 -1.2781
  109OSM   C15S11171   3.947   4.791   5.387 -0.3613 -0.1507  0.0952
  109OSM   H15S11172   4.043   4.767   5.337  0.2944  1.6653  0.4369
  109OSM   H15T11173   3.895   4.864   5.322  0.3074  0.6326  0.4308
  109OSM   C16S11174   3.860   4.664   5.392  0.3102 -0.2504  0.0325
  109OSM   H16S11175   3.765   4.687   5.445 -0.3330  0.4318 -1.3558
  109OSM   H16T11176   3.902   4.587   5.460 -1.9534 -1.6961 -0.1250
  109OSM   C17S11177   3.822   4.612   5.254 -0.4521 -0.5470 -0.6323
  109OSM   H17S11178   3.787   4.701   5.198 -2.3923 -0.2374  0.9572
  109OSM   H17T11179   3.739   4.540   5.272 -0.3799 -0.1421  1.5402
  109OSM   C18S11180   3.929   4.539   5.177  0.0009  0.2857  0.0767
  109OSM   H18S11181   3.959   4.449   5.235 -2.8661 -1.9417 -1.5949
  109OSM   H18T11182   4.017   4.605   5.161  1.4849 -1.6967 -0.3457
  109OSM   H18U11183   3.886   4.509   5.079  1.0668 -1.1185  0.0158
  109OSM    C1F11184   3.894   4.850   6.486 -0.2855 -0.3198  0.1168
  109OSM     OF11185   3.987   4.927   6.509 -0.3863 -0.0211 -0.2697
  109OSM    C2F11186   3.781   4.888   6.394 -0.5768 -0.4089  0.7008
  109OSM    H2F11187   3.705   4.938   6.458  2.3428  0.4432  3.7931
  109OSM    H2G11188   3.738   4.795   6.350  0.3036 -0.3455 -0.3253
  109OSM    C3F11189   3.829   4.987   6.279 -0.0184  0.8545 -0.5953
  109OSM    H3F11190   3.918   4.941   6.232 -1.0729 -3.0334  0.8544
  109OSM    H3G11191   3.854   5.078   6.337 -2.2783  0.7940  0.5800
  109OSM    C4F11192   3.726   5.010   6.169 -0.3123  0.0205  0.6650
  109OSM    H4F11193   3.667   5.100   6.198  0.6119  0.7739  0.2684
  109OSM    H4G11194   3.658   4.925   6.148  1.4569 -1.5636  1.0644
  109OSM    C5F11195   3.791   5.039   6.027  0.2314  0.0774 -1.5476
  109OSM    H5F11196   3.854   4.952   6.003  1.4761  0.0661  1.3478
  109OSM    H5G11197   3.852   5.130   6.045  0.5165 -0.5748  1.2758
  109OSM    C6F11198   3.690   5.073   5.916  0.2523  0.2526  0.2127
  109OSM    H6F11199   3.622   5.158   5.939 -3.1573 -2.3298  0.5725
  109OSM    H6G11200   3.614   4.992   5.905  0.7927 -0.1955 -0.2717
  109OSM    C7F11201   3.754   5.096   5.779 -0.2579  0.7787  0.3288
  109OSM    H7F11202   3.815   5.009   5.746  0.2216  1.5846 -0.9828
  109OSM    H7G11203   3.821   5.183   5.791 -1.2697  1.5842  0.2578
  109OSM    C8F11204   3.650   5.136   5.659 -0.5363 -0.3147  0.3509
  109OSM    H8F11205   3.606   5.237   5.678  1.2549  1.1543 -2.5541
  109OSM    H8G11206   3.574   5.057   5.670 -0.3945 -0.5436 -0.2645
  109OSM    C9F11207   3.721   5.148   5.529 -0.6333  0.3992  0.5001
  109OSM    H9F11208   3.790   5.234   5.520  0.2591 -0.3731 -0.2612
  109OSM   C10F11209   3.699   5.069   5.421 -0.4576  0.5159  0.4098
  109OSM   H10F11210   3.752   5.090   5.328 -0.7358 -1.2306 -0.1782
  109OSM   C11F11211   3.592   4.964   5.415 -0.0038 -0.0929  0.1872
  109OSM   H11F11212   3.552   4.931   5.513 -0.6576  1.1813  0.3728
  109OSM   H11G11213   3.636   4.869   5.378  0.5914  0.4273 -0.4687
  109OSM   C12F11214   3.465   5.001   5.336 -0.1133  0.0899  0.0246
  109OSM   H12F11215   3.412   5.087   5.383 -0.0566 -1.3644  3.0268
  109OSM   H12G11216   3.388   4.922   5.353  0.5697 -0.7615 -0.7519
  109OSM   C13F11217   3.491   5.000   5.183  0.5609  0.7448 -0.0695
  109OSM   H13F11218   3.527   4.905   5.138 -1.0812  0.3246 -0.5666
  109OSM   H13G11219   3.550   5.090   5.155 -1.8391  1.7318 -2.4291
  109OSM   C14F11220   3.351   4.993   5.114  0.3348 -0.6674  0.3232
  109OSM   H14F11221   3.291   5.084   5.136 -0.0429 -0.1182 -2.6288
  109OSM   H14G11222   3.294   4.911   5.163  1.6574 -1.5330  0.4598
  109OSM   C15F11223   3.361   4.980   4.958  0.6572  0.2540 -0.5912
  109OSM   H15F11224   3.394   4.880   4.922 -0.7037 -0.7891  0.9206
  109OSM   H15G11225   3.421   5.068   4.926 -0.3069  1.1615  0.0558
  109OSM   C16F11226   3.215   4.985   4.892 -0.3414 -0.6502 -0.0176
  109OSM   H16F11227   3.239   4.995   4.784 -0.4032  0.2041  0.0393
  109OSM   H16G11228   3.150   5.072   4.918 -3.1291 -2.2307 -1.2765
  109OSM   C17F11229   3.126   4.870   4.923  0.4798 -0.0003 -0.3228
  109OSM   H17F11230   3.093   4.878   5.028 -0.0228  0.7099 -0.5274
  109OSM   H17G11231   3.185   4.777   4.908  1.4460  0.6294 -0.5734
  109OSM   C18F11232   2.998   4.867   4.838 -0.4270 -0.6572  0.0197
  109OSM   H18F11233   2.918   4.815   4.895 -0.8594 -0.1046 -0.0677
  109OSM   H18G11234   3.004   4.805   4.746 -0.2972 -0.9083  0.1960
  109OSM   H18H11235   2.971   4.969   4.802  2.2867  0.5281  1.0751
  110OSM      N11236   5.969   2.004   7.456  0.0404 -0.1968 -0.4563
  110OSM    C1511237   6.110   1.972   7.501 -0.1252  0.8161  0.3213
  110OSM   H15A11238   6.099   1.944   7.604 -1.7726 -1.8076 -0.4614
  110OSM   H15B11239   6.181   2.052   7.484 -1.8318  1.7739 -3.1966
  110OSM   H15C11240   6.144   1.885   7.446 -2.6016 -0.1163  0.1312
  110OSM    C1411241   5.872   1.900   7.506 -0.3540 -0.5544  0.7462
  110OSM   H14A11242   5.853   1.907   7.612 -0.3415  0.4196  0.6942
  110OSM   H14B11243   5.908   1.809   7.461  3.1946  1.5806 -1.1801
  110OSM   H14C11244   5.783   1.930   7.452  1.4623  2.4122 -0.8302
  110OSM    C1311245   5.922   2.138   7.518  0.1033  0.0985  0.0695
  110OSM   H13A11246   5.829   2.167   7.471 -2.4953 -0.6570  4.2178
  110OSM   H13B11247   6.013   2.197   7.513  0.3487 -0.1895  0.9827
  110OSM   H13C11248   5.902   2.132   7.624  0.9944  0.6039  0.2792
  110OSM    C1211249   5.965   2.011   7.301  0.6637  0.2461  0.2024
  110OSM   H12A11250   6.040   2.083   7.270  1.6852 -0.9080 -0.0922
  110OSM   H12B11251   5.873   2.051   7.261  2.3675  1.9792 -2.2837
  110OSM    C1111252   5.997   1.875   7.228 -1.0634  0.1908  0.1726
  110OSM   H11A11253   5.977   1.898   7.121 -3.5177  1.6385  0.8573
  110OSM   H11B11254   5.913   1.805   7.250 -1.1815  0.2635 -0.0448
  110OSM      P11255   6.150   1.671   7.278 -0.2161 -0.1525 -0.0273
  110OSM    O1311256   6.295   1.645   7.306  0.2655 -0.2998  0.3121
  110OSM    O1411257   6.054   1.633   7.382  0.4504  0.6042 -0.5255
  110OSM    O1111258   6.121   1.591   7.147 -0.1610 -0.2509  0.1843
  110OSM    O1211259   6.132   1.826   7.238  0.0174 -0.5310 -0.4617
  110OSM    C1S11260   6.184   1.632   7.021  0.2261  0.3645 -0.3478
  110OSM    H1S11261   6.294   1.625   7.036  0.1125  1.2131  1.1346
  110OSM    H1T11262   6.160   1.738   7.001 -1.9661 -0.3835 -2.1436
  110OSM     NF11263   6.245   1.552   6.806  0.0113 -0.7270  0.0104
  110OSM    HNF11264   6.220   1.606   6.726 -0.6710  2.0146  1.9431
  110OSM    C2S11265   6.133   1.548   6.904 -0.0992 -0.2875  0.0828
  110OSM    H2S11266   6.111   1.443   6.932 -0.5374 -0.4825 -0.9365
  110OSM    C3S11267   5.989   1.597   6.866  0.2793  0.1366  0.4026
  110OSM    H3S11268   5.990   1.707   6.849  0.3226  0.7776  3.8659
  110OSM     O311269   5.889   1.577   6.971 -0.1076  0.2103 -0.0866
  110OSM    HO311270   5.934   1.545   7.050 -1.8783 -2.1273  0.0620
  110OSM    C4S11271   5.936   1.536   6.739  0.4818 -0.0295 -0.5374
  110OSM    H4S11272   5.914   1.622   6.675  1.2144  2.1684  1.9920
  110OSM    C5S11273   5.916   1.409   6.696  0.1065  0.7792 -0.3567
  110OSM    H5S11274   5.956   1.323   6.752 -0.1012 -0.5977 -2.2513
  110OSM    C6S11275   5.851   1.386   6.567  0.7162  0.3475  0.3187
  110OSM    H6S11276   5.806   1.475   6.517  0.9989 -0.1682 -0.8884
  110OSM    H6T11277   5.765   1.317   6.574  2.4961 -1.9701  0.4101
  110OSM    C7S11278   5.952   1.327   6.463  0.7720 -0.6978 -0.5653
  110OSM    H7S11279   5.991   1.230   6.499 -0.5149 -1.7926 -2.0034
  110OSM    H7T11280   6.044   1.389   6.457  0.3288  0.2601  1.6467
  110OSM    C8S11281   5.888   1.294   6.327  0.6627 -0.3401 -0.2080
  110OSM    H8S11282   5.833   1.384   6.291 -1.6794 -2.3039 -1.8670
  110OSM    H8T11283   5.821   1.207   6.339 -0.7174  0.2325 -3.0721
  110OSM    C9S11284   6.000   1.276   6.224  0.4153 -0.3577  0.6436
  110OSM    H9S11285   6.075   1.202   6.259 -0.0527 -1.8109 -1.2941
  110OSM    H9T11286   6.056   1.370   6.206 -0.0405 -0.2157 -0.0472
  110OSM   C10S11287   5.944   1.224   6.090  0.1315  0.7744  0.2289
  110OSM   H10S11288   5.887   1.307   6.042  0.7909  1.2686  0.2740
  110OSM   H10T11289   5.874   1.140   6.111  1.1341  0.4661  2.7210
  110OSM   C11S11290   6.060   1.187   6.003 -0.0262 -0.1828  0.0363
  110OSM   H11S11291   6.126   1.116   6.057 -3.5908 -2.6164  1.5569
  110OSM   H11T11292   6.116   1.282   5.986 -5.2911  3.1883 -0.7337
  110OSM   C12S11293   6.029   1.128   5.866 -0.7688 -0.2096  0.2354
  110OSM   H12S11294   5.966   1.036   5.862  0.3371 -0.9218 -2.7948
  110OSM   H12T11295   6.128   1.103   5.824  0.1449  0.3291  1.9566
  110OSM   C13S11296   5.975   1.243   5.780 -0.6728 -0.3135 -0.6680
  110OSM   H13S11297   6.047   1.327   5.775  0.4349 -1.0766  1.2362
  110OSM   H13T11298   5.879   1.267   5.831  0.2118 -0.5410  1.2048
  110OSM   C14S11299   5.938   1.204   5.631  0.4461 -0.1090  0.3823
  110OSM   H14S11300   5.883   1.108   5.633  0.2777 -0.0078  2.0571
  110OSM   H14T11301   6.036   1.178   5.585 -1.5175 -1.9889 -3.1179
  110OSM   C15S11302   5.873   1.312   5.542  0.0161  0.7063  0.3247
  110OSM   H15S11303   5.925   1.410   5.544 -0.8244  1.1541  0.8710
  110OSM   H15T11304   5.770   1.330   5.580  0.6246  2.2246  1.3431
  110OSM   C16S11305   5.857   1.275   5.385 -0.2640  0.1125  0.2823
  110OSM   H16S11306   5.807   1.176   5.380 -0.6354  0.3085  0.0824
  110OSM   H16T11307   5.960   1.276   5.342  1.3975 -1.1090  3.8015
  110OSM   C17S11308   5.779   1.383   5.319 -0.6394 -0.3718 -0.2123
  110OSM   H17S11309   5.819   1.485   5.337 -3.0416  1.1234 -2.6497
  110OSM   H17T11310   5.674   1.392   5.353 -1.2391 -2.7053 -1.2278
  110OSM   C18S11311   5.780   1.353   5.166 -0.8994  0.5733  0.4012
  110OSM   H18S11312   5.744   1.434   5.099 -0.7919 -0.7887 -1.3641
  110OSM   H18T11313   5.712   1.266   5.154 -0.7300  0.3481  1.0327
  110OSM   H18U11314   5.879   1.323   5.125 -2.0485 -1.3725 -1.1428
  110OSM    C1F11315   6.367   1.503   6.828  0.0537 -0.1729  0.6817
  110OSM     OF11316   6.378   1.416   6.907 -0.5042  0.0224 -1.0665
  110OSM    C2F11317   6.493   1.561   6.769  0.3087 -0.3923  0.0455
  110OSM    H2F11318   6.585   1.552   6.830  2.3938  2.9895 -2.2355
  110OSM    H2G11319   6.472   1.666   6.739 -1.3905 -0.8455 -0.4798
  110OSM    C3F11320   6.533   1.479   6.650 -0.2322 -0.4141 -0.3834
  110OSM    H3F11321   6.453   1.473   6.573  0.4691 -0.1330 -1.1562
  110OSM    H3G11322   6.546   1.375   6.686 -2.2110 -1.0227 -1.2720
  110OSM    C4F11323   6.664   1.541   6.586 -0.3894  0.3149 -0.0061
  110OSM    H4F11324   6.742   1.547   6.665  0.3003 -2.3248 -0.3953
  110OSM    H4G11325   6.634   1.640   6.547  0.8978  1.1631  1.0431
  110OSM    C5F11326   6.715   1.463   6.462  0.1547  0.1678  0.9970
  110OSM    H5F11327   6.659   1.494   6.371  2.5382  1.3006 -0.1720
  110OSM    H5G11328   6.708   1.352   6.466  2.4987 -0.0010  1.6999
  110OSM    C6F11329   6.862   1.504   6.427  0.1631 -0.2202 -0.0092
  110OSM    H6F11330   6.932   1.434   6.476  2.1093  1.8496  0.3150
  110OSM    H6G11331   6.879   1.606   6.467  1.2307  0.5644 -2.3142
  110OSM    C7F11332   6.888   1.497   6.279  0.1224  0.1839  0.7180
  110OSM    H7F11333   6.800   1.537   6.224 -0.3087 -0.8544  0.6470
  110OSM    H7G11334   6.891   1.392   6.244  2.0668  0.6578 -0.7188
  110OSM    C8F11335   7.021   1.561   6.233  0.5501 -0.8006 -0.1269
  110OSM    H8F11336   7.056   1.635   6.309  0.4654  0.3461 -1.1763
  110OSM    H8G11337   6.993   1.623   6.145  2.4337  0.6695  0.2457
  110OSM    C9F11338   7.132   1.466   6.201 -0.1850  0.7221  0.3170
  110OSM    H9F11339   7.203   1.450   6.284 -1.0546 -1.8512  0.6717
  110OSM   C10F11340   7.147   1.383   6.091 -0.4649 -0.2009  0.3474
  110OSM   H10F11341   7.244   1.331   6.087  0.6233  1.7459 -0.0967
  110OSM   C11F11342   7.054   1.376   5.974  0.0508 -0.2784  0.0242
  110OSM   H11F11343   6.949   1.388   6.007 -0.0761  0.3126 -0.5707
  110OSM   H11G11344   7.046   1.273   5.934 -0.7494  0.6453 -2.3958
  110OSM   C12F11345   7.070   1.482   5.863 -0.3838  0.1835  0.0911
  110OSM   H12F11346   7.178   1.486   5.838  0.0714  1.5963  2.0091
  110OSM   H12G11347   7.047   1.577   5.916  2.0451  1.2023 -0.5593
  110OSM   C13F11348   7.000   1.461   5.731 -0.3664 -0.0793 -0.5713
  110OSM   H13F11349   7.019   1.554   5.673 -0.0042  0.5461  0.5120
  110OSM   H13G11350   6.890   1.469   5.744  0.0686  2.4856  3.4028
  110OSM   C14F11351   7.052   1.345   5.651 -1.3221 -0.1854 -0.1135
  110OSM   H14F11352   7.060   1.259   5.721  0.4049  0.7850  0.9698
  110OSM   H14G11353   7.155   1.371   5.616 -1.1850  1.2611  1.2142
  110OSM   C15F11354   6.968   1.307   5.530 -0.1353  0.3849  0.4165
  110OSM   H15F11355   6.883   1.379   5.529 -0.4615 -0.0002  0.3969
  110OSM   H15G11356   6.926   1.205   5.535 -2.6932  1.4051  1.8568
  110OSM   C16F11357   7.037   1.331   5.394 -0.1265  0.0905 -0.3625
  110OSM   H16F11358   7.136   1.282   5.400  0.1460  0.3970 -1.8465
  110OSM   H16G11359   7.047   1.440   5.374  1.2141  0.1961  0.7610
  110OSM   C17F11360   6.972   1.243   5.281 -0.6532  0.6735  0.3750
  110OSM   H17F11361   6.876   1.292   5.253 -0.7081  0.9261  0.9961
  110OSM   H17G11362   6.945   1.144   5.324  3.0273 -0.3459  0.6473
  110OSM   C18F11363   7.073   1.223   5.152  0.1632 -0.3003 -0.1457
  110OSM   H18F11364   7.149   1.149   5.184  1.8918  1.7166  0.6764
  110OSM   H18G11365   7.120   1.323   5.134 -0.0302  0.6135  3.6557
  110OSM   H18H11366   7.017   1.198   5.059 -0.2506  1.2375 -0.3332
  111OSM      N11367   1.679   0.112   7.100 -0.3398 -0.6408 -0.4763
  111OSM    C1511368   1.665   0.228   7.002 -0.0136 -0.3071  0.3387
  111OSM   H15A11369   1.640   0.320   7.052  1.1518  0.2106  0.0020
  111OSM   H15B11370   1.583   0.209   6.934 -1.3491  2.6467  0.9797
  111OSM   H15C11371   1.757   0.238   6.946 -0.9450 -0.5001 -1.2777
  111OSM    C1411372   1.790   0.142   7.196 -0.7251 -0.2133  0.2311
  111OSM   H14A11373   1.882   0.151   7.140  0.5219  0.3274  2.2610
  111OSM   H14B11374   1.796   0.065   7.272 -0.7465  0.5116  0.9855
  111OSM   H14C11375   1.777   0.237   7.246  2.9107  1.6091 -1.8840
  111OSM    C1311376   1.557   0.090   7.171  0.0747  0.4035 -0.3238
  111OSM   H13A11377   1.528   0.181   7.222  0.4892 -0.2542  1.1426
  111OSM   H13B11378   1.561   0.008   7.241  2.2731  1.3426  0.7344
  111OSM   H13C11379   1.486   0.053   7.098  0.1315 -0.1029 -0.1253
  111OSM    C1211380   1.715  -0.015   7.020  0.2360  0.4005  0.5362
  111OSM   H12A11381   1.721  -0.088   7.099  1.1151  1.1184  1.1537
  111OSM   H12B11382   1.813   0.007   6.978 -0.1217  2.8481  0.8444
  111OSM    C1111383   1.633  -0.061   6.899 -0.6469  0.2255 -0.3156
  111OSM   H11A11384   1.692  -0.147   6.860  1.5203  1.5566 -0.1255
  111OSM   H11B11385   1.632   0.024   6.827  0.3346  0.5536  0.0514
  111OSM      P11386   1.468  -0.243   6.986 -0.3969  0.7852  0.3150
  111OSM    O1311387   1.585  -0.294   7.058 -0.0608 -0.4159  0.1031
  111OSM    O1411388   1.342  -0.237   7.058  1.0381 -0.3674  0.8688
  111OSM    O1111389   1.447  -0.323   6.855  0.0213  0.1362 -0.0119
  111OSM    O1211390   1.500  -0.100   6.934 -0.4677  0.1100 -0.2091
  111OSM    C1S11391   1.452  -0.263   6.721  0.2996 -0.3472 -0.3893
  111OSM    H1S11392   1.554  -0.236   6.686 -0.4583 -0.6360 -3.0668
  111OSM    H1T11393   1.387  -0.172   6.722 -1.6964 -1.7052  0.4149
  111OSM     NF11394   1.447  -0.330   6.473 -0.6836 -0.4653  0.1070
  111OSM    HNF11395   1.392  -0.274   6.413  1.2156  1.0018 -0.3470
  111OSM    C2S11396   1.398  -0.355   6.605  0.8317  0.2830 -0.1092
  111OSM    H2S11397   1.435  -0.459   6.620 -2.0571 -0.9756 -1.1676
  111OSM    C3S11398   1.245  -0.356   6.606  0.4574  0.7042 -0.0684
  111OSM    H3S11399   1.214  -0.260   6.559 -2.0005  0.7055  1.3595
  111OSM     O311400   1.192  -0.369   6.733 -0.2103 -0.4417 -0.4896
  111OSM    HO311401   1.266  -0.361   6.794  0.4951 -3.5746 -0.7542
  111OSM    C4S11402   1.190  -0.472   6.528  0.0588 -0.1356 -0.4536
  111OSM    H4S11403   1.137  -0.429   6.442  0.0878 -1.2914 -1.0666
  111OSM    C5S11404   1.189  -0.603   6.550 -0.5250  0.6288 -0.0341
  111OSM    H5S11405   1.227  -0.642   6.646 -0.9915  3.2906  1.3210
  111OSM    C6S11406   1.135  -0.709   6.449 -0.3879  0.8589 -0.5582
  111OSM    H6S11407   1.046  -0.754   6.497  1.2326 -0.7342  1.0700
  111OSM    H6T11408   1.198  -0.799   6.432 -1.3319  0.4299 -1.9958
  111OSM    C7S11409   1.087  -0.659   6.313  0.9803  0.2245  0.0514
  111OSM    H7S11410   1.176  -0.640   6.249  0.7146 -0.4927 -0.5393
  111OSM    H7T11411   1.026  -0.567   6.324 -1.9952 -1.5522 -0.5424
  111OSM    C8S11412   1.003  -0.763   6.236 -0.3765  0.4609 -0.8114
  111OSM    H8S11413   0.923  -0.803   6.301  1.3942  0.5514  1.5506
  111OSM    H8T11414   1.072  -0.845   6.206 -0.2527  1.0225 -2.1453
  111OSM    C9S11415   0.937  -0.709   6.106 -0.3933 -0.3366  0.4177
  111OSM    H9S11416   0.878  -0.621   6.139  0.0395  1.5229 -3.2800
  111OSM    H9T11417   0.862  -0.790   6.092 -1.3138 -0.1516  3.5737
  111OSM   C10S11418   1.037  -0.689   5.993 -0.2602  0.0326  0.0488
  111OSM   H10S11419   1.071  -0.791   5.966 -0.7897  0.3028 -1.7185
  111OSM   H10T11420   1.126  -0.629   6.021  0.7702  0.6260 -3.9762
  111OSM   C11S11421   0.974  -0.627   5.867 -0.9463 -0.8899 -0.0568
  111OSM   H11S11422   0.935  -0.525   5.886 -0.5021 -0.4968 -1.1334
  111OSM   H11T11423   0.880  -0.682   5.844 -2.7105  1.9104  0.0902
  111OSM   C12S11424   1.061  -0.622   5.736 -0.8151 -0.0267 -0.4782
  111OSM   H12S11425   1.082  -0.721   5.691 -1.1338  0.2178 -1.1864
  111OSM   H12T11426   1.163  -0.582   5.757 -0.7814 -0.3844  0.0419
  111OSM   C13S11427   1.000  -0.533   5.631  0.3198  0.0585  0.1030
  111OSM   H13S11428   0.981  -0.432   5.673 -0.1808 -1.0969  2.8631
  111OSM   H13T11429   0.898  -0.575   5.621 -0.1565  0.8885  1.2473
  111OSM   C14S11430   1.073  -0.536   5.500  0.4687 -0.5300  0.1401
  111OSM   H14S11431   1.123  -0.634   5.491 -0.8794 -1.4369  2.0152
  111OSM   H14T11432   1.139  -0.451   5.473  2.0993 -2.1211 -1.0980
  111OSM   C15S11433   0.972  -0.527   5.387 -0.7188  0.5787  0.2208
  111OSM   H15S11434   0.929  -0.427   5.412  1.4899  1.5960  0.2201
  111OSM   H15T11435   0.898  -0.609   5.396 -0.9953  0.7561 -0.3713
  111OSM   C16S11436   1.037  -0.538   5.253 -0.2263  0.0913  0.2874
  111OSM   H16S11437   1.092  -0.635   5.249  1.7585  1.1512  0.5784
  111OSM   H16T11438   1.107  -0.454   5.234  0.1314  0.0923  1.5048
  111OSM   C17S11439   0.930  -0.539   5.134  0.5202 -0.0037 -0.2632
  111OSM   H17S11440   0.878  -0.441   5.136 -0.0170 -0.2751 -0.6835
  111OSM   H17T11441   0.865  -0.625   5.158 -1.1588  0.6906 -2.0814
  111OSM   C18S11442   0.999  -0.564   5.003 -0.6138 -0.0145  1.6578
  111OSM   H18S11443   1.063  -0.478   4.975 -0.5599 -0.6400 -0.2771
  111OSM   H18T11444   0.922  -0.573   4.924  0.6137  0.2249  0.4112
  111OSM   H18U11445   1.058  -0.658   5.007 -0.1165  0.1987 -0.0839
  111OSM    C1F11446   1.581  -0.341   6.448  0.0099 -0.2354  0.5062
  111OSM     OF11447   1.657  -0.407   6.520  0.2916 -0.3124 -0.6549
  111OSM    C2F11448   1.615  -0.303   6.305 -0.2740  0.1085 -0.3816
  111OSM    H2F11449   1.718  -0.260   6.300 -0.6805  0.9953 -3.2323
  111OSM    H2G11450   1.557  -0.215   6.270  0.9895  0.5778 -1.3736
  111OSM    C3F11451   1.583  -0.424   6.214 -0.1713  0.4798 -0.7020
  111OSM    H3F11452   1.475  -0.431   6.190 -0.5075  0.3779  0.7593
  111OSM    H3G11453   1.616  -0.517   6.264 -1.7496  0.7695  0.9706
  111OSM    C4F11454   1.649  -0.411   6.072 -0.0430 -0.6900 -0.5459
  111OSM    H4F11455   1.633  -0.507   6.018 -0.1710 -1.0398  0.0963
  111OSM    H4G11456   1.758  -0.393   6.076  0.0690 -1.2893 -0.7574
  111OSM    C5F11457   1.595  -0.296   5.984 -0.4280  0.1124 -0.3908
  111OSM    H5F11458   1.610  -0.197   6.033  1.9500 -0.9190  1.1536
  111OSM    H5G11459   1.488  -0.311   5.958 -0.9647 -2.3521  2.5942
  111OSM    C6F11460   1.665  -0.295   5.851  0.7314  0.5106  0.6187
  111OSM    H6F11461   1.773  -0.319   5.854  0.1124 -3.1281 -0.4769
  111OSM    H6G11462   1.648  -0.197   5.802 -3.0591  0.2692  1.1054
  111OSM    C7F11463   1.600  -0.404   5.758 -0.4606 -1.3415  0.1427
  111OSM    H7F11464   1.495  -0.374   5.738  0.2599 -0.1143 -2.0933
  111OSM    H7G11465   1.591  -0.499   5.815 -0.3794  0.1237  2.7472
  111OSM    C8F11466   1.686  -0.434   5.634 -0.4365  0.0728 -0.2117
  111OSM    H8F11467   1.649  -0.521   5.576  0.2138  0.0454 -0.5860
  111OSM    H8G11468   1.786  -0.462   5.672 -1.3118 -1.9217  0.7580
  111OSM    C9F11469   1.701  -0.312   5.542  0.6258 -0.2777 -0.0665
  111OSM    H9F11470   1.779  -0.238   5.562  0.7506 -0.2945 -0.4703
  111OSM   C10F11471   1.619  -0.287   5.441 -0.3638  0.7180  0.0158
  111OSM   H10F11472   1.654  -0.217   5.363  2.0982 -1.6878 -1.2012
  111OSM   C11F11473   1.502  -0.380   5.402 -0.2236 -0.1254 -0.0314
  111OSM   H11F11474   1.399  -0.357   5.438 -0.9255 -2.3517 -0.4516
  111OSM   H11G11475   1.512  -0.486   5.433 -0.8202 -0.1767  0.0103
  111OSM   C12F11476   1.480  -0.377   5.251 -0.2585 -0.4976  0.0424
  111OSM   H12F11477   1.453  -0.474   5.204 -1.7523 -0.1331  0.0851
  111OSM   H12G11478   1.569  -0.333   5.202  1.4748 -0.6691  2.8377
  111OSM   C13F11479   1.364  -0.278   5.221 -0.5561  0.8691  0.1219
  111OSM   H13F11480   1.387  -0.179   5.266  2.0024  0.9638 -1.2225
  111OSM   H13G11481   1.267  -0.306   5.267 -1.4909  0.4693 -1.9738
  111OSM   C14F11482   1.348  -0.252   5.071 -0.3396  0.1376 -0.0395
  111OSM   H14F11483   1.345  -0.357   5.035  2.6620 -0.1622  0.3200
  111OSM   H14G11484   1.438  -0.214   5.017 -1.5647  0.9043 -1.6086
  111OSM   C15F11485   1.217  -0.176   5.028 -0.2076  0.2263  0.8219
  111OSM   H15F11486   1.130  -0.215   5.085 -1.2941  0.8815 -0.3435
  111OSM   H15G11487   1.193  -0.194   4.921  2.2703  0.8112  0.0875
  111OSM   C16F11488   1.226  -0.025   5.046 -0.5534  0.0330 -0.3666
  111OSM   H16F11489   1.262   0.015   5.143  1.4899 -0.3048 -0.9522
  111OSM   H16G11490   1.120   0.009   5.059 -0.4240  0.8031 -1.1843
  111OSM   C17F11491   1.300   0.050   4.935  1.2075 -0.1306 -0.0526
  111OSM   H17F11492   1.234   0.033   4.848 -0.3338  0.7721  0.8968
  111OSM   H17G11493   1.399  -0.001   4.928 -0.1955 -2.9647 -0.9096
  111OSM   C18F11494   1.326   0.198   4.955 -0.3561 -0.5526 -0.4346
  111OSM   H18F11495   1.419   0.215   5.013 -0.5390  1.9314 -0.7570
  111OSM   H18G11496   1.240   0.251   5.001 -0.5935 -0.3858 -1.0572
  111OSM   H18H11497   1.351   0.259   4.866  1.9759 -0.1612  0.4309
  112OSM      N11498   4.567   2.273   7.325  0.5832 -0.3024  0.3100
  112OSM    C1511499   4.598   2.390   7.408 -0.2562 -0.3987 -0.2843
  112OSM   H15A11500   4.518   2.397   7.481 -0.2304 -2.1365 -0.0507
  112OSM   H15B11501   4.599   2.487   7.361 -1.8370  1.6001  3.3838
  112OSM   H15C11502   4.686   2.381   7.469 -0.2844  2.1481  0.2629
  112OSM    C1411503   4.537   2.148   7.419  0.2970  0.1616 -0.1031
  112OSM   H14A11504   4.486   2.179   7.509  0.3374 -0.9041  0.2968
  112OSM   H14B11505   4.628   2.098   7.448 -0.1834 -1.4182 -1.1914
  112OSM   H14C11506   4.472   2.076   7.371  1.1415 -1.1613  0.6891
  112OSM    C1311507   4.432   2.296   7.272  0.7929 -0.2031  0.9879
  112OSM   H13A11508   4.437   2.393   7.223  0.3508  0.0513  1.4413
  112OSM   H13B11509   4.361   2.294   7.354 -1.8582 -0.9700 -1.1690
  112OSM   H13C11510   4.401   2.226   7.196  0.5599  2.5635 -1.6540
  112OSM    C1211511   4.671   2.239   7.221 -0.3521 -0.1429  0.6379
  112OSM   H12A11512   4.638   2.144   7.181 -1.4462 -0.1826  1.5598
  112OSM   H12B11513   4.769   2.227   7.264 -1.1562 -0.5799  2.4319
  112OSM    C1111514   4.679   2.331   7.092 -0.2659 -0.7265  0.0082
  112OSM   H11A11515   4.577   2.333   7.048 -0.0512  1.0219 -0.4852
  112OSM   H11B11516   4.742   2.290   7.011  0.7121 -0.6623  0.7114
  112OSM      P11517   4.865   2.498   7.083 -0.0065 -0.5622 -0.2074
  112OSM    O1311518   4.887   2.643   7.120  0.3929 -0.5052 -0.4361
  112OSM    O1411519   4.957   2.404   7.143 -0.1593  0.2910  0.2785
  112OSM    O1111520   4.860   2.486   6.929  0.8247  0.1739 -0.6609
  112OSM    O1211521   4.722   2.461   7.131  0.9484 -0.2246  0.1297
  112OSM    C1S11522   4.957   2.425   6.847  0.1339  0.1550  0.5362
  112OSM    H1S11523   4.960   2.315   6.866 -0.1272 -0.1660 -1.1016
  112OSM    H1T11524   5.055   2.476   6.846  1.7268 -2.6629 -1.1350
  112OSM     NF11525   5.011   2.357   6.613  0.4334 -0.7616 -0.3866
  112OSM    HNF11526   5.079   2.415   6.567  0.5961 -1.1137 -0.5928
  112OSM    C2S11527   4.903   2.424   6.697  0.0670  0.0855 -0.4978
  112OSM    H2S11528   4.812   2.361   6.701  1.3098 -1.7128  0.8890
  112OSM    C3S11529   4.862   2.559   6.647  0.2400 -0.7209 -0.0473
  112OSM    H3S11530   4.941   2.637   6.660 -0.6354  0.6727 -2.4075
  112OSM     O311531   4.748   2.598   6.728 -0.2801 -0.5958 -0.0091
  112OSM    HO311532   4.745   2.536   6.801  0.3704 -0.1065  0.4487
  112OSM    C4S11533   4.813   2.551   6.513 -0.0195 -0.0655  0.0086
  112OSM    H4S11534   4.719   2.494   6.507  0.6726 -1.3293  0.7002
  112OSM    C5S11535   4.879   2.594   6.408 -0.9445  0.2302 -1.0464
  112OSM    H5S11536   4.982   2.627   6.432 -0.4484 -2.1098  0.4293
  112OSM    C6S11537   4.823   2.589   6.273 -0.1396  0.4774 -0.2585
  112OSM    H6S11538   4.880   2.519   6.209 -0.4190 -0.2396  0.2560
  112OSM    H6T11539   4.822   2.690   6.228  0.9143  0.3401 -0.6019
  112OSM    C7S11540   4.678   2.534   6.256  0.2025 -0.4308  0.1137
  112OSM    H7S11541   4.609   2.594   6.320 -1.3138 -2.7179  0.7387
  112OSM    H7T11542   4.666   2.428   6.287 -0.1757 -0.6269 -0.6753
  112OSM    C8S11543   4.624   2.541   6.112  0.1821 -0.7109 -0.1480
  112OSM    H8S11544   4.643   2.647   6.084  1.8179 -1.6429 -2.9335
  112OSM    H8T11545   4.513   2.543   6.106  0.2301 -0.5034 -1.2268
  112OSM    C9S11546   4.689   2.454   6.004 -0.0509  0.8284  0.7567
  112OSM    H9S11547   4.661   2.347   6.014 -1.1301  0.7276 -2.1819
  112OSM    H9T11548   4.798   2.460   6.022  0.3689 -1.3807 -0.7062
  112OSM   C10S11549   4.662   2.511   5.859 -0.3428  0.0644 -0.0259
  112OSM   H10S11550   4.678   2.621   5.858  1.2277 -0.1477 -1.1845
  112OSM   H10T11551   4.552   2.500   5.845 -0.0864 -1.2512 -1.1848
  112OSM   C11S11552   4.739   2.454   5.739 -0.0560  0.2537 -0.1209
  112OSM   H11S11553   4.791   2.363   5.776 -0.9955 -0.6772 -1.0341
  112OSM   H11T11554   4.824   2.521   5.711  0.8306 -1.6410 -2.3132
  112OSM   C12S11555   4.652   2.413   5.618  0.8214 -0.4421 -0.5889
  112OSM   H12S11556   4.592   2.502   5.590 -1.1024 -1.5959 -0.2610
  112OSM   H12T11557   4.604   2.319   5.652  0.5156 -1.4778 -3.5638
  112OSM   C13S11558   4.736   2.368   5.502 -0.3762  0.6208  0.3037
  112OSM   H13S11559   4.800   2.280   5.526 -0.0925  1.2453  2.0445
  112OSM   H13T11560   4.804   2.451   5.474 -0.4650 -0.4610 -3.6599
  112OSM   C14S11561   4.649   2.349   5.376 -0.1966 -0.2064 -0.1402
  112OSM   H14S11562   4.579   2.434   5.361  1.9363  1.3352 -2.1051
  112OSM   H14T11563   4.587   2.258   5.388 -2.3456  1.4171  1.9557
  112OSM   C15S11564   4.729   2.330   5.249 -0.4690  0.0523  0.0978
  112OSM   H15S11565   4.802   2.413   5.237 -1.2024  0.6342 -0.4030
  112OSM   H15T11566   4.660   2.329   5.163  1.4284 -0.8467 -1.4827
  112OSM   C16S11567   4.813   2.196   5.250  0.6258  0.4325 -0.2387
  112OSM   H16S11568   4.738   2.115   5.241  0.0155  1.0349 -0.7253
  112OSM   H16T11569   4.854   2.168   5.350 -0.8581  0.3998  0.3787
  112OSM   C17S11570   4.914   2.200   5.139  0.3798  0.0146 -0.2094
  112OSM   H17S11571   4.959   2.100   5.122 -2.6396 -1.9140  2.1419
  112OSM   H17T11572   4.996   2.269   5.168  1.1995 -0.3999 -1.4678
  112OSM   C18S11573   4.861   2.243   5.002 -0.3069 -0.1593 -0.4995
  112OSM   H18S11574   4.782   2.183   4.952 -0.6615  0.1328 -0.2999
  112OSM   H18T11575   4.940   2.251   4.925  0.8141 -1.3445  0.4800
  112OSM   H18U11576   4.816   2.345   5.006  0.7771  0.4182 -2.0827
  112OSM    C1F11577   5.002   2.224   6.584 -0.3213 -0.1141  0.6953
  112OSM     OF11578   4.911   2.157   6.639  0.4186 -0.1883  0.7746
  112OSM    C2F11579   5.117   2.173   6.505  0.2955 -0.5220  0.1018
  112OSM    H2F11580   5.192   2.117   6.564  0.0201 -1.7274 -0.6577
  112OSM    H2G11581   5.152   2.266   6.455  0.4740  0.0203  1.2139
  112OSM    C3F11582   5.076   2.090   6.379  0.5886 -0.4863 -0.2434
  112OSM    H3F11583   4.994   2.020   6.407 -0.1521  0.5154  0.1472
  112OSM    H3G11584   5.170   2.032   6.364  2.3507  2.3235 -0.8117
  112OSM    C4F11585   5.034   2.160   6.250  0.0864  0.1993  0.0652
  112OSM    H4F11586   4.943   2.224   6.253 -0.5099 -0.6543  0.5624
  112OSM    H4G11587   5.018   2.073   6.183 -1.0523 -0.3191  0.9861
  112OSM    C5F11588   5.148   2.250   6.189  0.6867  0.8021  0.1108
  112OSM    H5F11589   5.240   2.187   6.183 -0.7999 -1.5435  0.3753
  112OSM    H5G11590   5.177   2.331   6.260  2.4602  0.9517 -0.7515
  112OSM    C6F11591   5.105   2.316   6.057  0.4693 -0.3292  0.1716
  112OSM    H6F11592   4.995   2.328   6.064  0.7596  2.0398  2.0438
  112OSM    H6G11593   5.111   2.248   5.970 -0.1145  1.0416 -0.9652
  112OSM    C7F11594   5.151   2.459   6.041  1.0095  0.2830  0.0229
  112OSM    H7F11595   5.260   2.455   6.019  1.1079  2.1275  0.0491
  112OSM    H7G11596   5.122   2.507   6.137 -0.4239 -0.3638 -0.0526
  112OSM    C8F11597   5.072   2.540   5.929 -0.2826 -0.8641 -0.7060
  112OSM    H8F11598   4.962   2.526   5.943 -0.7330  3.1098  0.9340
  112OSM    H8G11599   5.093   2.492   5.832  0.0370 -0.8697 -0.6340
  112OSM    C9F11600   5.090   2.694   5.927 -0.1397  0.9285  0.3589
  112OSM    H9F11601   5.078   2.738   6.027 -1.2691  2.2954 -0.3271
  112OSM   C10F11602   5.153   2.774   5.830 -0.5438  0.0050  0.1692
  112OSM   H10F11603   5.159   2.881   5.854 -0.2821  0.0252  0.0222
  112OSM   C11F11604   5.212   2.745   5.696 -0.4052  0.7313 -0.2319
  112OSM   H11F11605   5.254   2.642   5.701  0.8319  1.2618  3.1519
  112OSM   H11G11606   5.297   2.816   5.686  0.4055  0.2278  2.2442
  112OSM   C12F11607   5.108   2.752   5.581 -0.5031  0.7834 -0.0325
  112OSM   H12F11608   5.049   2.845   5.592 -1.4328  0.0931  1.0390
  112OSM   H12G11609   5.034   2.671   5.602  0.4676  0.0843  0.8569
  112OSM   C13F11610   5.177   2.757   5.443  0.0055 -0.2221 -0.5704
  112OSM   H13F11611   5.259   2.683   5.444 -2.0806 -2.7965 -2.8543
  112OSM   H13G11612   5.227   2.855   5.431 -1.5575  0.8547  1.1224
  112OSM   C14F11613   5.093   2.720   5.319 -0.2373 -0.1771  0.1135
  112OSM   H14F11614   5.016   2.799   5.302 -0.7026 -1.0288 -2.0202
  112OSM   H14G11615   5.035   2.629   5.348 -1.2986  1.0236  1.9677
  112OSM   C15F11616   5.163   2.701   5.187  0.7582 -0.3784 -0.4916
  112OSM   H15F11617   5.238   2.620   5.191 -0.1432 -1.2320 -0.5941
  112OSM   H15G11618   5.211   2.800   5.170  0.8378  0.3255  3.1113
  112OSM   C16F11619   5.055   2.662   5.078 -0.5339  0.1042 -0.6312
  112OSM   H16F11620   4.974   2.737   5.093 -0.6187  0.0750 -0.9354
  112OSM   H16G11621   5.016   2.562   5.104 -0.1203 -0.0730 -0.6717
  112OSM   C17F11622   5.101   2.665   4.932 -0.6461 -0.3273  0.3214
  112OSM   H17F11623   5.196   2.606   4.931 -0.6026 -0.2795 -0.9460
  112OSM   H17G11624   5.117   2.772   4.909 -2.3152  0.3020  1.9441
  112OSM   C18F11625   5.005   2.600   4.838  0.4943  0.6257 -0.8327
  112OSM   H18F11626   4.988   2.496   4.873  0.4332  0.4095 -1.4985
  112OSM   H18G11627   5.033   2.605   4.731 -2.2341  3.8207 -1.5731
  112OSM   H18H11628   4.909   2.654   4.845  0.8065  1.4633 -2.5380
  113OSM      N11629   1.842   5.473   7.246  0.2508 -0.2100 -0.3081
  113OSM    C1511630   1.952   5.368   7.259  1.1529 -0.5381  0.1167
  113OSM   H15A11631   1.963   5.342   7.363 -1.4182  1.2050  0.9556
  113OSM   H15B11632   2.048   5.401   7.222  2.3799 -1.7255  2.0628
  113OSM   H15C11633   1.918   5.286   7.198 -0.5586  1.6828 -2.1231
  113OSM    C1411634   1.713   5.430   7.309  0.1401  0.6643 -0.6972
  113OSM   H14A11635   1.718   5.430   7.417  1.0977 -0.0842 -0.7205
  113OSM   H14B11636   1.690   5.329   7.280 -1.3019  0.2151  1.7376
  113OSM   H14C11637   1.634   5.491   7.270 -0.9738 -1.1879 -1.4531
  113OSM    C1311638   1.902   5.595   7.313  0.1696  0.4658 -0.1786
  113OSM   H13A11639   1.839   5.682   7.299  0.0380  0.6528  1.3635
  113OSM   H13B11640   2.000   5.604   7.269  0.2821  0.2520  0.0276
  113OSM   H13C11641   1.913   5.577   7.419 -0.9756  1.2593  0.0958
  113OSM    C1211642   1.808   5.510   7.098 -0.9012  0.1886 -0.3114
  113OSM   H12A11643   1.903   5.520   7.048 -0.8081  1.1607  0.0382
  113OSM   H12B11644   1.757   5.605   7.099 -0.4845  0.4149  0.6444
  113OSM    C1111645   1.732   5.402   7.012 -0.2616 -0.3955 -1.1401
  113OSM   H11A11646   1.723   5.434   6.906  1.3521  2.6127 -0.4680
  113OSM   H11B11647   1.626   5.401   7.045 -0.4056 -1.5336 -1.5904
  113OSM      P11648   1.741   5.148   7.055  0.1431 -0.2716  0.4456
  113OSM    O1311649   1.850   5.055   7.081 -0.2311  0.3413 -0.9499
  113OSM    O1411650   1.637   5.156   7.159 -0.2309 -0.0497  0.5369
  113OSM    O1111651   1.667   5.103   6.926  0.2782 -0.2273  0.2754
  113OSM    O1211652   1.804   5.282   7.015  0.2154  0.3494 -0.1187
  113OSM    C1S11653   1.740   5.066   6.810 -0.3602 -0.4532  0.3325
  113OSM    H1S11654   1.798   4.973   6.828  2.4759  1.1793  0.4129
  113OSM    H1T11655   1.829   5.133   6.798  0.4448 -1.1623  1.9974
  113OSM     NF11656   1.724   5.021   6.572 -0.9829 -0.7072  0.1523
  113OSM    HNF11657   1.752   5.083   6.499 -1.9585  1.2841  1.3891
  113OSM    C2S11658   1.659   5.077   6.682  0.0963 -0.2874 -0.2890
  113OSM    H2S11659   1.565   5.017   6.677 -1.1813  1.6239 -0.0440
  113OSM    C3S11660   1.609   5.223   6.670 -0.3772 -0.1120  0.0995
  113OSM    H3S11661   1.699   5.287   6.679 -0.7945  0.2426  2.7725
  113OSM     O311662   1.522   5.271   6.777  0.0231 -0.7467  0.5689
  113OSM    HO311663   1.549   5.210   6.847 -3.1842  0.1966  2.8648
  113OSM    C4S11664   1.543   5.251   6.538 -0.4590  0.3473 -0.7238
  113OSM    H4S11665   1.612   5.290   6.461 -1.5527  0.1184 -1.8434
  113OSM    C5S11666   1.415   5.219   6.501 -0.2136 -0.2336 -0.1713
  113OSM    H5S11667   1.350   5.167   6.573  0.3522  1.1399  1.3868
  113OSM    C6S11668   1.365   5.248   6.362  0.1150 -0.5203 -0.6133
  113OSM    H6S11669   1.442   5.307   6.306  0.6325  0.2667  0.8726
  113OSM    H6T11670   1.285   5.324   6.362  1.5820  1.1023 -0.4891
  113OSM    C7S11671   1.317   5.133   6.281  0.1558  0.6475 -0.3348
  113OSM    H7S11672   1.221   5.100   6.326  0.7608 -3.0050 -1.4396
  113OSM    H7T11673   1.394   5.054   6.287 -0.2737  0.2877  0.6337
  113OSM    C8S11674   1.286   5.174   6.135 -0.2493  0.7733  0.1790
  113OSM    H8S11675   1.350   5.262   6.114 -0.4121  0.6985 -0.6937
  113OSM    H8T11676   1.182   5.211   6.129 -0.6023  0.0459  1.3280
  113OSM    C9S11677   1.306   5.062   6.033 -0.2839 -0.4418  0.1468
  113OSM    H9S11678   1.271   4.961   6.063 -1.6686 -0.4508 -1.3086
  113OSM    H9T11679   1.416   5.061   6.021 -0.2773  2.3357 -0.7626
  113OSM   C10S11680   1.245   5.097   5.904  0.0740  0.2304  0.0128
  113OSM   H10S11681   1.275   5.200   5.877  0.6989 -0.6458 -3.0230
  113OSM   H10T11682   1.134   5.088   5.902  0.0932  0.0798 -0.5143
  113OSM   C11S11683   1.302   5.012   5.783  0.2782 -0.6699 -0.2709
  113OSM   H11S11684   1.249   4.915   5.773  0.4010 -0.9930  1.7287
  113OSM   H11T11685   1.409   4.986   5.799  0.1673 -0.3936  1.0303
  113OSM   C12S11686   1.295   5.089   5.647  0.3994 -0.8078 -0.1574
  113OSM   H12S11687   1.337   5.191   5.662 -0.2480 -0.1488 -2.4358
  113OSM   H12T11688   1.189   5.115   5.625  0.8344  0.8418 -0.3965
  113OSM   C13S11689   1.356   5.019   5.521 -0.1349  0.3830 -0.3271
  113OSM   H13S11690   1.331   4.911   5.528  1.4077 -0.1654 -2.2338
  113OSM   H13T11691   1.464   5.037   5.535 -0.0976 -0.1045  0.0247
  113OSM   C14S11692   1.324   5.070   5.376 -0.8426 -0.5594  0.6145
  113OSM   H14S11693   1.216   5.054   5.358 -0.5866 -2.0955  0.2612
  113OSM   H14T11694   1.367   4.998   5.302  2.0934  0.8021  0.8470
  113OSM   C15S11695   1.379   5.215   5.338 -0.8189 -0.3479  0.3947
  113OSM   H15S11696   1.490   5.212   5.327 -0.8443 -2.6655  0.4180
  113OSM   H15T11697   1.340   5.279   5.420 -3.1923  0.8553 -1.5352
  113OSM   C16S11698   1.326   5.279   5.206  0.2075 -0.2713 -0.2811
  113OSM   H16S11699   1.370   5.227   5.118 -1.7556  0.9075 -2.0465
  113OSM   H16T11700   1.365   5.383   5.198 -2.1645  0.6009 -1.5149
  113OSM   C17S11701   1.176   5.292   5.190 -0.2402  0.2546 -1.0613
  113OSM   H17S11702   1.140   5.340   5.283 -1.0929  1.0509 -1.7786
  113OSM   H17T11703   1.135   5.189   5.183  2.9870 -1.1379 -1.0157
  113OSM   C18S11704   1.115   5.367   5.066 -0.0071  0.0624  0.2674
  113OSM   H18S11705   1.006   5.349   5.061  0.1752 -1.0109 -0.2191
  113OSM   H18T11706   1.161   5.337   4.969 -0.4658 -2.3228  0.7218
  113OSM   H18U11707   1.132   5.476   5.081 -0.3903  0.3312 -1.1183
  113OSM    C1F11708   1.756   4.898   6.555  0.2536 -0.6513 -0.2509
  113OSM     OF11709   1.691   4.813   6.616  0.5181  0.1345  0.2003
  113OSM    C2F11710   1.866   4.858   6.459 -0.0370  0.2774 -1.3690
  113OSM    H2F11711   1.950   4.819   6.520 -0.7872 -1.1840 -1.2240
  113OSM    H2G11712   1.899   4.948   6.403  1.0628  1.5640  1.1844
  113OSM    C3F11713   1.827   4.755   6.350  0.5255 -0.1557 -0.2502
  113OSM    H3F11714   1.730   4.778   6.300  0.9368  1.8052 -0.2219
  113OSM    H3G11715   1.805   4.657   6.399 -0.2277  1.2023  2.3031
  113OSM    C4F11716   1.939   4.730   6.244 -0.2119  0.0632 -1.0134
  113OSM    H4F11717   2.033   4.707   6.301 -1.3676  1.6986  1.7847
  113OSM    H4G11718   1.964   4.816   6.179 -0.9249  0.3266 -0.9368
  113OSM    C5F11719   1.904   4.617   6.152 -0.7541 -0.2542  0.3512
  113OSM    H5F11720   1.886   4.522   6.206  0.3962 -0.8176 -0.2140
  113OSM    H5G11721   1.994   4.588   6.093 -1.0070 -0.1841 -0.0737
  113OSM    C6F11722   1.794   4.638   6.056  1.1776  0.1351 -0.1150
  113OSM    H6F11723   1.695   4.646   6.106  0.5421 -1.6631 -0.9782
  113OSM    H6G11724   1.788   4.538   6.007 -1.6744 -0.0443  0.4327
  113OSM    C7F11725   1.799   4.753   5.956  0.7466 -0.2172  0.1873
  113OSM    H7F11726   1.903   4.763   5.920  0.0481 -0.1056 -1.9237
  113OSM    H7G11727   1.764   4.847   6.004  0.4987 -0.2539  0.0813
  113OSM    C8F11728   1.702   4.720   5.839 -0.3146  0.1153 -0.0261
  113OSM    H8F11729   1.604   4.674   5.864 -0.6393  1.8077  2.1250
  113OSM    H8G11730   1.760   4.645   5.780 -1.1396  0.8768 -1.8664
  113OSM    C9F11731   1.679   4.840   5.755  0.4304  0.1011  0.2124
  113OSM    H9F11732   1.628   4.926   5.802  0.0572 -0.4544  0.8428
  113OSM   C10F11733   1.710   4.858   5.625  0.0751  0.1791  0.3632
  113OSM   H10F11734   1.697   4.956   5.577  1.4995 -0.0972 -0.6426
  113OSM   C11F11735   1.775   4.760   5.531 -0.7149  0.3369  0.3063
  113OSM   H11F11736   1.834   4.687   5.591 -1.5604  1.3618  2.4944
  113OSM   H11G11737   1.837   4.823   5.465 -0.5894 -0.5676 -0.4502
  113OSM   C12F11738   1.673   4.685   5.442  0.6837  0.4272  0.3205
  113OSM   H12F11739   1.606   4.760   5.395 -0.9690 -1.6090 -0.7613
  113OSM   H12G11740   1.615   4.627   5.517 -1.4542  1.3617 -0.5182
  113OSM   C13F11741   1.718   4.586   5.340  0.9059  0.4733 -0.1579
  113OSM   H13F11742   1.778   4.650   5.272 -0.0992  1.8165  0.1730
  113OSM   H13G11743   1.626   4.555   5.286  0.9529 -0.1814  0.1255
  113OSM   C14F11744   1.794   4.462   5.397  0.2428  0.4817  0.3862
  113OSM   H14F11745   1.721   4.410   5.463  1.7743 -2.0247  0.2257
  113OSM   H14G11746   1.885   4.478   5.460  1.1441  0.9883 -0.9904
  113OSM   C15F11747   1.845   4.377   5.274  0.0547 -0.0765 -0.6228
  113OSM   H15F11748   1.948   4.409   5.244  0.3723 -1.6923 -1.3643
  113OSM   H15G11749   1.793   4.391   5.177  0.1111  0.1159 -0.6273
  113OSM   C16F11750   1.865   4.230   5.310  0.1169 -0.0816 -0.6718
  113OSM   H16F11751   1.777   4.192   5.366  1.7341 -0.4650  1.7790
  113OSM   H16G11752   1.942   4.240   5.390 -0.0639 -0.0651 -0.4983
  113OSM   C17F11753   1.908   4.132   5.205 -0.3741 -0.3392  0.2069
  113OSM   H17F11754   1.836   4.122   5.121 -3.2174  1.3280  2.2336
  113OSM   H17G11755   1.915   4.030   5.248 -3.5841 -0.5405  0.5565
  113OSM   C18F11756   2.049   4.177   5.153 -0.0240  0.1653 -0.5027
  113OSM   H18F11757   2.035   4.278   5.110  3.3288  1.7652  1.7024
  113OSM   H18G11758   2.097   4.109   5.080  2.2027 -0.8622  1.7602
  113OSM   H18H11759   2.124   4.197   5.233  0.2442  2.0884 -1.1861
  114OSM      N11760   1.009   2.025   7.359  0.7661  0.2770 -0.4513
  114OSM    C1511761   0.922   2.104   7.453  0.5197  0.1112  0.0207
  114OSM   H15A11762   0.923   2.211   7.441 -1.1783 -0.0698 -2.5821
  114OSM   H15B11763   0.953   2.086   7.554 -0.9418 -0.5535  0.3832
  114OSM   H15C11764   0.820   2.068   7.442  0.3956 -0.3615  2.2620
  114OSM    C1411765   1.148   2.073   7.380  0.4627  0.4172  0.4210
  114OSM   H14A11766   1.156   2.180   7.372 -0.9925  0.6066  1.1373
  114OSM   H14B11767   1.207   2.025   7.303 -1.4516 -1.0200 -0.2282
  114OSM   H14C11768   1.182   2.048   7.479  0.6088 -1.6524 -0.1014
  114OSM    C1311769   0.998   1.885   7.398 -0.0673  0.0144  0.5713
  114OSM   H13A11770   1.081   1.833   7.355  0.9103  0.0152  2.3755
  114OSM   H13B11771   0.899   1.846   7.378  0.0865  0.1519 -0.5350
  114OSM   H13C11772   1.016   1.873   7.504 -0.8155 -2.4415  0.4824
  114OSM    C1211773   0.969   2.054   7.214 -0.2655 -0.4150 -0.8293
  114OSM   H12A11774   1.052   2.004   7.166  1.3868 -0.5738  1.9308
  114OSM   H12B11775   0.978   2.160   7.197  1.4011 -0.5242 -0.8037
  114OSM    C1111776   0.830   2.000   7.162  0.3448 -0.4263 -0.2998
  114OSM   H11A11777   0.860   1.895   7.140  0.3863 -0.6658  0.8378
  114OSM   H11B11778   0.802   2.052   7.068 -0.8702 -0.6652 -0.0814
  114OSM      P11779   0.611   2.119   7.235  0.0197  0.1144 -0.2061
  114OSM    O1311780   0.515   2.101   7.343  0.1019 -0.0999  0.1308
  114OSM    O1411781   0.667   2.249   7.219 -0.4374 -0.4025 -0.0669
  114OSM    O1111782   0.548   2.066   7.094 -0.4385 -0.4361  0.5730
  114OSM    O1211783   0.728   2.013   7.263  0.3492 -0.0516  0.0526
  114OSM    C1S11784   0.429   2.125   7.043  0.1540  0.0174  0.1895
  114OSM    H1S11785   0.431   2.236   7.051 -2.0947  0.2320 -1.2125
  114OSM    H1T11786   0.341   2.076   7.090  0.5811 -2.2526 -1.2271
  114OSM     NF11787   0.276   2.159   6.843 -0.4969 -0.0819 -0.0871
  114OSM    HNF11788   0.202   2.093   6.836  0.7822 -1.5697 -0.2526
  114OSM    C2S11789   0.399   2.099   6.888 -1.1093  0.0365 -0.2753
  114OSM    H2S11790   0.481   2.155   6.838 -1.1208 -1.5395 -2.2032
  114OSM    C3S11791   0.424   1.947   6.860  0.2724  0.3235  0.6874
  114OSM    H3S11792   0.343   1.897   6.916  0.4557 -0.3649  0.3471
  114OSM     O311793   0.549   1.889   6.907  0.2652  0.3416  0.0126
  114OSM    HO311794   0.589   1.965   6.949  0.4224 -0.5902  1.6569
  114OSM    C4S11795   0.409   1.916   6.709  0.2705 -0.7394  0.2942
  114OSM    H4S11796   0.303   1.908   6.683  0.0674  1.3416  0.2949
  114OSM    C5S11797   0.505   1.898   6.618 -0.0832 -0.1398  0.1443
  114OSM    H5S11798   0.607   1.926   6.646 -0.3405  1.6378 -0.5656
  114OSM    C6S11799   0.466   1.856   6.481 -0.2452 -0.5545  0.3838
  114OSM    H6S11800   0.369   1.802   6.487 -1.3193  1.3026  0.5983
  114OSM    H6T11801   0.541   1.786   6.438 -1.0344 -0.5013 -1.1629
  114OSM    C7S11802   0.440   1.981   6.399 -0.0677 -0.1352  0.3213
  114OSM    H7S11803   0.537   2.028   6.375  0.3870 -0.0441  2.1571
  114OSM    H7T11804   0.376   2.051   6.457  0.8570  1.1581 -0.1816
  114OSM    C8S11805   0.364   1.955   6.269  0.2194 -0.0801  0.5151
  114OSM    H8S11806   0.338   2.043   6.207  1.2557 -1.0625 -1.4457
  114OSM    H8T11807   0.270   1.898   6.285  0.0223  0.1711  0.2559
  114OSM    C9S11808   0.457   1.871   6.172 -0.4732 -0.5456 -0.0281
  114OSM    H9S11809   0.499   1.782   6.224  0.1824 -1.6722 -2.3380
  114OSM    H9T11810   0.550   1.928   6.150 -0.8254 -0.4401 -1.3210
  114OSM   C10S11811   0.392   1.843   6.041 -1.1567  0.2936 -0.3177
  114OSM   H10S11812   0.335   1.931   6.006 -0.8753  0.1494 -1.1546
  114OSM   H10T11813   0.324   1.755   6.049  0.8976 -1.2969  0.8499
  114OSM   C11S11814   0.489   1.794   5.927 -0.7013  0.1386  0.1514
  114OSM   H11S11815   0.541   1.699   5.951  1.8181  0.9088 -1.7716
  114OSM   H11T11816   0.567   1.871   5.909 -0.6806  0.2786  0.8277
  114OSM   C12S11817   0.412   1.766   5.800  0.0709  0.1356 -0.0506
  114OSM   H12S11818   0.362   1.860   5.769  0.0759  0.5256  1.1087
  114OSM   H12T11819   0.330   1.694   5.820  1.1524 -1.2988 -0.5603
  114OSM   C13S11820   0.510   1.723   5.690  0.2302  0.6856 -0.1063
  114OSM   H13S11821   0.568   1.636   5.728  0.5087  0.6502 -0.6054
  114OSM   H13T11822   0.582   1.806   5.671  0.1202  0.6414 -0.7391
  114OSM   C14S11823   0.437   1.676   5.571 -0.0081  0.9254  0.7265
  114OSM   H14S11824   0.387   1.757   5.515  0.2045  0.0207 -0.8250
  114OSM   H14T11825   0.355   1.604   5.590  0.4273 -0.2240 -1.3710
  114OSM   C15S11826   0.530   1.593   5.475  0.0616 -0.1322  0.2122
  114OSM   H15S11827   0.575   1.501   5.517  0.2509  0.6234  1.7195
  114OSM   H15T11828   0.615   1.657   5.443 -0.7775  0.2045 -1.4651
  114OSM   C16S11829   0.457   1.547   5.348  0.3315  0.4455  0.7525
  114OSM   H16S11830   0.388   1.621   5.302  0.3263  0.1101  0.2129
  114OSM   H16T11831   0.381   1.474   5.384 -1.0350  1.2481 -0.4186
  114OSM   C17S11832   0.551   1.495   5.234 -0.3210  0.1251  0.4520
  114OSM   H17S11833   0.644   1.555   5.226  0.7875 -1.7561 -2.0707
  114OSM   H17T11834   0.507   1.517   5.134 -1.2082 -0.8415  0.6029
  114OSM   C18S11835   0.578   1.339   5.255 -0.8233 -0.0710  0.0743
  114OSM   H18S11836   0.651   1.318   5.336  0.0784  3.0927  0.2255
  114OSM   H18T11837   0.613   1.299   5.157 -1.6170  0.8520 -0.6110
  114OSM   H18U11838   0.475   1.304   5.277 -1.3200  0.7394 -0.8952
  114OSM    C1F11839   0.253   2.291   6.833 -0.1008  0.1088  0.7462
  114OSM     OF11840   0.339   2.373   6.856 -0.6128  0.1045 -0.1470
  114OSM    C2F11841   0.113   2.325   6.787 -0.2557 -0.0902  1.2532
  114OSM    H2F11842   0.041   2.332   6.872 -1.8195 -1.2354  0.0818
  114OSM    H2G11843   0.081   2.249   6.713 -2.2365  0.8451  1.0726
  114OSM    C3F11844   0.111   2.462   6.708 -0.0233 -0.7790  0.4091
  114OSM    H3F11845   0.162   2.540   6.770  0.5532  1.0719 -2.2406
  114OSM    H3G11846   0.007   2.499   6.702  0.4289  0.4909  0.1096
  114OSM    C4F11847   0.166   2.457   6.567  0.5932  0.4543 -0.1138
  114OSM    H4F11848   0.270   2.420   6.567  0.6248  0.5374 -0.3795
  114OSM    H4G11849   0.168   2.561   6.529  0.6887  0.0411 -1.2959
  114OSM    C5F11850   0.081   2.374   6.468  0.4857  0.1969  0.3531
  114OSM    H5F11851  -0.025   2.384   6.498  1.1119  0.4881  2.6838
  114OSM    H5G11852   0.113   2.269   6.483  1.4865  0.1724 -1.7391
  114OSM    C6F11853   0.110   2.412   6.319 -0.0619  0.5059  0.8728
  114OSM    H6F11854   0.212   2.376   6.290  0.0454  0.3697  1.4048
  114OSM    H6G11855   0.103   2.522   6.328 -1.2021  0.5823 -0.6489
  114OSM    C7F11856   0.017   2.342   6.221  0.3776  0.3347  0.1246
  114OSM    H7F11857  -0.090   2.343   6.251  0.2635 -0.7063 -0.2139
  114OSM    H7G11858   0.044   2.235   6.205  2.6084  1.0227 -1.1998
  114OSM    C8F11859   0.018   2.422   6.089 -0.2859  0.1245  0.8566
  114OSM    H8F11860   0.120   2.437   6.047 -1.0891  0.9834 -0.8750
  114OSM    H8G11861  -0.010   2.527   6.111 -0.9907  0.2627 -0.5669
  114OSM    C9F11862  -0.081   2.373   5.986 -0.4860 -0.5552 -0.1050
  114OSM    H9F11863  -0.188   2.385   6.007 -0.2139 -1.4758  2.0005
  114OSM   C10F11864  -0.048   2.340   5.860  0.5635 -0.3792  0.2009
  114OSM   H10F11865  -0.129   2.309   5.793 -0.2432  1.1902  0.4120
  114OSM   C11F11866   0.088   2.320   5.801  0.8503 -0.2055 -0.1898
  114OSM   H11F11867   0.161   2.281   5.875 -0.3678 -3.2592 -0.4080
  114OSM   H11G11868   0.133   2.414   5.765 -0.1629  0.5786  0.5176
  114OSM   C12F11869   0.076   2.216   5.686  0.0155  0.3254  0.1149
  114OSM   H12F11870   0.176   2.219   5.639 -1.1684 -0.1685 -2.6702
  114OSM   H12G11871  -0.002   2.249   5.614 -1.0190 -1.4871  0.3262
  114OSM   C13F11872   0.043   2.070   5.739 -0.4460  0.2720  0.8560
  114OSM   H13F11873  -0.055   2.075   5.792 -0.7167 -0.0376  0.3998
  114OSM   H13G11874   0.130   2.035   5.798 -1.2557 -0.1528  1.8159
  114OSM   C14F11875   0.015   1.965   5.621 -0.0511 -0.1945 -0.2408
  114OSM   H14F11876  -0.063   2.015   5.558 -0.5016 -0.4591  0.1033
  114OSM   H14G11877  -0.025   1.869   5.659 -0.4273  0.3182  0.6923
  114OSM   C15F11878   0.139   1.958   5.534  1.0162  0.8907 -0.8683
  114OSM   H15F11879   0.207   1.891   5.590  1.7248  2.7246  0.6125
  114OSM   H15G11880   0.188   2.058   5.535  3.0130 -0.0057  1.4389
  114OSM   C16F11881   0.109   1.897   5.394  1.0976 -0.3850  0.4689
  114OSM   H16F11882   0.208   1.879   5.346  0.4945  2.7469 -2.3000
  114OSM   H16G11883   0.055   1.975   5.336 -3.2780  0.6569  5.2260
  114OSM   C17F11884   0.019   1.775   5.393 -0.2608 -0.3942  0.5474
  114OSM   H17F11885  -0.084   1.802   5.425 -0.5637 -1.5923  0.6191
  114OSM   H17G11886   0.057   1.709   5.474 -1.2750 -1.5646  0.1012
  114OSM   C18F11887   0.007   1.697   5.260 -0.1828  0.9056 -0.3714
  114OSM   H18F11888  -0.061   1.609   5.264 -1.4063  1.8600  0.9865
  114OSM   H18G11889   0.110   1.672   5.226 -0.4668 -0.7549 -0.0910
  114OSM   H18H11890  -0.029   1.762   5.177  1.3952  0.6106 -1.3346
  115OSM      N11891   5.558   6.865   7.521  0.2058 -0.2539 -0.1197
  115OSM    C1511892   5.571   6.946   7.637  0.7745 -0.3393 -0.2404
  115OSM   H15A11893   5.491   6.926   7.707  2.4040 -2.7111  1.0827
  115OSM   H15B11894   5.567   7.051   7.612  3.9341 -0.4715 -1.7349
  115OSM   H15C11895   5.659   6.927   7.696  1.1404  2.7350  0.3572
  115OSM    C1411896   5.582   6.728   7.565 -0.0812  0.7279 -0.7347
  115OSM   H14A11897   5.614   6.667   7.482 -0.7332  0.5344 -0.8505
  115OSM   H14B11898   5.491   6.685   7.604  1.7280 -1.0520  1.8254
  115OSM   H14C11899   5.655   6.730   7.645  0.0934 -0.2988 -0.8599
  115OSM    C1311900   5.427   6.876   7.460  0.4149  0.3942 -0.7425
  115OSM   H13A11901   5.410   6.976   7.424 -1.0850  0.3524 -0.2118
  115OSM   H13B11902   5.351   6.865   7.536  0.6930  1.4409 -0.2980
  115OSM   H13C11903   5.406   6.798   7.388 -1.0975 -0.9521  1.0309
  115OSM    C1211904   5.667   6.909   7.424 -0.4837 -0.2531  0.1399
  115OSM   H12A11905   5.768   6.899   7.460 -0.9041 -1.2585  1.0803
  115OSM   H12B11906   5.648   7.015   7.415 -1.3892 -0.2920  1.2512
  115OSM    C1111907   5.669   6.841   7.287  0.3658  0.3024  0.6452
  115OSM   H11A11908   5.733   6.913   7.231 -0.6268 -1.0035 -2.4245
  115OSM   H11B11909   5.571   6.849   7.236  0.5925  0.5872  0.2496
  115OSM      P11910   5.748   6.642   7.149 -0.2320  0.2389 -0.2912
  115OSM    O1311911   5.870   6.560   7.163  0.3036 -0.5092 -0.4853
  115OSM    O1411912   5.627   6.574   7.097  0.2005 -0.4869 -0.2433
  115OSM    O1111913   5.779   6.766   7.053  0.1857 -0.5865 -0.1922
  115OSM    O1211914   5.709   6.703   7.290 -0.1183 -0.2552  0.2597
  115OSM    C1S11915   5.909   6.810   7.007  0.2839  1.1563 -0.0455
  115OSM    H1S11916   5.991   6.751   7.055  0.0638 -3.3969 -4.4174
  115OSM    H1T11917   5.924   6.917   7.034 -0.1919  0.9674  1.0113
  115OSM     NF11918   6.042   6.833   6.791  0.4005 -0.4395 -0.2122
  115OSM    HNF11919   6.061   6.922   6.750  0.7717 -0.2149  0.4389
  115OSM    C2S11920   5.913   6.797   6.850  0.5769 -0.5583 -0.5918
  115OSM    H2S11921   5.899   6.690   6.825  0.9070 -0.4038 -1.4840
  115OSM    C3S11922   5.800   6.870   6.779 -0.1210 -0.4751 -0.0135
  115OSM    H3S11923   5.807   6.979   6.802  2.2327 -0.5086 -0.3404
  115OSM     O311924   5.673   6.824   6.822 -0.3572 -0.6735  0.5904
  115OSM    HO311925   5.690   6.800   6.913 -0.5054  0.5774  0.9798
  115OSM    C4S11926   5.801   6.854   6.633  0.2266 -0.5716  0.2302
  115OSM    H4S11927   5.789   6.750   6.598  0.9147 -0.2372 -1.0270
  115OSM    C5S11928   5.822   6.953   6.536 -0.1546  0.8136  0.3819
  115OSM    H5S11929   5.833   7.055   6.576 -0.7478 -0.0243  2.8897
  115OSM    C6S11930   5.814   6.939   6.386  0.4515  0.4119  0.3359
  115OSM    H6S11931   5.777   6.840   6.351  1.0654  0.0862  0.5833
  115OSM    H6T11932   5.920   6.950   6.356  0.3435 -1.9365 -1.1345
  115OSM    C7S11933   5.729   7.048   6.309  0.3912 -0.2314 -0.0305
  115OSM    H7S11934   5.783   7.145   6.314  2.4402 -1.3155 -0.2313
  115OSM    H7T11935   5.638   7.047   6.373  0.3578  1.3911  0.0039
  115OSM    C8S11936   5.711   7.010   6.169 -0.0815  1.2160  0.0547
  115OSM    H8S11937   5.608   6.977   6.147 -0.6398  1.5619  2.0069
  115OSM    H8T11938   5.783   6.933   6.133  1.0749  1.8561  0.9411
  115OSM    C9S11939   5.711   7.121   6.071 -0.0792  0.1878 -0.4183
  115OSM    H9S11940   5.806   7.174   6.095  1.2710 -1.6342 -1.5070
  115OSM    H9T11941   5.612   7.173   6.074 -0.2310 -0.1465  0.7681
  115OSM   C10S11942   5.737   7.072   5.925  0.0350 -0.4413 -0.5413
  115OSM   H10S11943   5.647   7.011   5.903 -0.1771 -0.2546 -0.2075
  115OSM   H10T11944   5.835   7.019   5.921  0.1240 -0.3859  0.6291
  115OSM   C11S11945   5.733   7.182   5.821 -0.0221 -0.2238  0.9039
  115OSM   H11S11946   5.836   7.224   5.827  0.0300 -0.1946 -0.0007
  115OSM   H11T11947   5.662   7.258   5.860 -1.4453 -0.9964 -0.0809
  115OSM   C12S11948   5.717   7.139   5.675 -0.3999  0.2486 -0.8745
  115OSM   H12S11949   5.614   7.110   5.647 -0.9282 -0.0309  1.2587
  115OSM   H12T11950   5.782   7.051   5.653 -1.2514 -0.9815  1.2777
  115OSM   C13S11951   5.762   7.257   5.577  0.0597  0.8044 -0.1750
  115OSM   H13S11952   5.867   7.287   5.594  0.1766  0.6764 -0.6582
  115OSM   H13T11953   5.694   7.340   5.608  3.0914  3.5467 -0.2699
  115OSM   C14S11954   5.741   7.216   5.426 -0.1407  0.6674 -0.5132
  115OSM   H14S11955   5.635   7.187   5.408  0.3866 -0.7861 -1.3958
  115OSM   H14T11956   5.799   7.122   5.420 -0.8573  0.0847  1.0481
  115OSM   C15S11957   5.790   7.318   5.332 -0.0356  0.7996 -0.3302
  115OSM   H15S11958   5.892   7.346   5.363  0.6846 -1.6848 -0.2515
  115OSM   H15T11959   5.722   7.405   5.350  1.0160  1.4573  0.6243
  115OSM   C16S11960   5.791   7.271   5.184  0.4048 -0.1402 -0.3607
  115OSM   H16S11961   5.694   7.218   5.169  0.6078 -1.0468  1.2441
  115OSM   H16T11962   5.870   7.201   5.148  0.8219 -0.5147  1.1959
  115OSM   C17S11963   5.803   7.392   5.089  0.4869 -0.5754  0.1734
  115OSM   H17S11964   5.718   7.463   5.100  0.3982 -0.8336  1.2611
  115OSM   H17T11965   5.798   7.362   4.982 -5.1601 -1.0946  0.3052
  115OSM   C18S11966   5.931   7.470   5.117 -0.0760  0.3876  0.0053
  115OSM   H18S11967   5.927   7.542   5.202  0.7640 -0.5232  0.8503
  115OSM   H18T11968   5.947   7.540   5.032 -2.4146  1.8475  0.6792
  115OSM   H18U11969   6.018   7.401   5.117 -0.0491  0.3489 -2.3163
  115OSM    C1F11970   6.152   6.756   6.797  0.4485 -0.1172  0.7647
  115OSM     OF11971   6.144   6.653   6.861  0.5265 -0.0546 -0.2228
  115OSM    C2F11972   6.284   6.797   6.733  0.6277  0.0459 -0.0173
  115OSM    H2F11973   6.352   6.710   6.718 -0.2496 -0.4757 -1.1333
  115OSM    H2G11974   6.335   6.867   6.802  2.0842 -0.7699 -0.2286
  115OSM    C3F11975   6.268   6.851   6.585 -0.4395 -0.8787 -0.5452
  115OSM    H3F11976   6.367   6.885   6.550 -0.1946  0.6806  1.5080
  115OSM    H3G11977   6.206   6.941   6.566  0.1794 -0.3939 -0.3071
  115OSM    C4F11978   6.220   6.736   6.493 -0.1500  0.2072  0.2886
  115OSM    H4F11979   6.123   6.699   6.531  0.7709 -0.9789  1.5954
  115OSM    H4G11980   6.293   6.652   6.500  0.8421  1.1056  1.2232
  115OSM    C5F11981   6.198   6.774   6.349 -0.2124 -0.3835  0.7081
  115OSM    H5F11982   6.294   6.804   6.302 -0.3478 -2.7406 -1.2945
  115OSM    H5G11983   6.135   6.865   6.345 -1.6052 -1.3605 -1.6397
  115OSM    C6F11984   6.144   6.665   6.257  0.2746  0.1378 -0.3280
  115OSM    H6F11985   6.083   6.595   6.318 -0.8812 -0.0589 -1.6584
  115OSM    H6G11986   6.229   6.605   6.219  0.1817 -0.4469  0.3751
  115OSM    C7F11987   6.057   6.714   6.143  0.7703 -0.0961  0.8220
  115OSM    H7F11988   5.970   6.772   6.182 -0.9332 -1.2742 -0.9994
  115OSM    H7G11989   6.015   6.631   6.082  2.0895 -1.0317  1.1570
  115OSM    C8F11990   6.120   6.802   6.039 -0.2136 -0.4761 -0.4670
  115OSM    H8F11991   6.150   6.896   6.090 -0.5163 -1.4241  1.5551
  115OSM    H8G11992   6.041   6.838   5.970  1.8858 -2.2901 -4.0961
  115OSM    C9F11993   6.242   6.744   5.971 -0.1661  0.1139  0.1476
  115OSM    H9F11994   6.307   6.688   6.040 -1.8462 -0.6456  1.1713
  115OSM   C10F11995   6.271   6.756   5.840  0.1786 -0.2131 -0.6140
  115OSM   H10F11996   6.362   6.710   5.799  0.0685  0.0902 -1.2123
  115OSM   C11F11997   6.202   6.833   5.736  0.5847 -0.3651  0.7937
  115OSM   H11F11998   6.280   6.874   5.667 -0.9720  0.0612 -0.7850
  115OSM   H11G11999   6.135   6.910   5.780 -0.7661 -0.7266 -0.5621
  115OSM   C12F12000   6.121   6.738   5.658  0.2681 -0.0006  0.1147
  115OSM   H12F12001   6.053   6.677   5.722  0.0863  0.7520  0.6467
  115OSM   H12G12002   6.194   6.673   5.604  0.0267 -0.0921 -0.1101
  115OSM   C13F12003   6.038   6.797   5.541 -0.2804  0.4798  0.4616
  115OSM   H13F12004   6.114   6.846   5.476 -2.1491  1.9269 -0.7393
  115OSM   H13G12005   5.968   6.878   5.570 -1.4313 -0.1047 -0.5713
  115OSM   C14F12006   5.969   6.692   5.454  0.3011 -0.2816 -0.6159
  115OSM   H14F12007   5.887   6.651   5.516 -1.4586  2.7133 -0.7912
  115OSM   H14G12008   6.027   6.599   5.433  0.2048 -0.9127  1.6779
  115OSM   C15F12009   5.926   6.756   5.326 -0.7409 -0.0556  0.5206
  115OSM   H15F12010   5.899   6.673   5.258 -0.1476 -0.8925  1.2827
  115OSM   H15G12011   5.996   6.830   5.282  0.1255  0.5757  2.7908
  115OSM   C16F12012   5.804   6.843   5.342  0.3015 -0.7449  0.4742
  115OSM   H16F12013   5.831   6.922   5.416  0.4954 -0.7135  0.3706
  115OSM   H16G12014   5.726   6.776   5.384 -0.3478  0.3767  1.1320
  115OSM   C17F12015   5.755   6.900   5.197  0.3118 -0.6320 -0.0018
  115OSM   H17F12016   5.798   6.827   5.125  2.0421  0.2109  0.1201
  115OSM   H17G12017   5.804   6.999   5.184 -1.4281  0.4674  1.3639
  115OSM   C18F12018   5.601   6.901   5.189 -0.5352  0.1493 -0.5123
  115OSM   H18F12019   5.564   6.808   5.238  1.4265  0.4291  1.7013
  115OSM   H18G12020   5.569   6.915   5.084  0.5762  0.8906 -0.7746
  115OSM   H18H12021   5.560   6.986   5.247  0.0510  0.5970 -0.7517
  116OSM      N12022   2.281   3.392   7.274 -0.3291 -0.7433 -0.1975
  116OSM    C1512023   2.360   3.355   7.395  0.0481 -0.0679  0.4576
  116OSM   H15A12024   2.460   3.397   7.398  0.0044 -0.0127  1.5346
  116OSM   H15B12025   2.367   3.248   7.404 -0.1330  0.0301  2.0737
  116OSM   H15C12026   2.317   3.395   7.486 -0.3519 -4.2592  2.3269
  116OSM    C1412027   2.141   3.339   7.288 -0.0784  0.1585 -0.2008
  116OSM   H14A12028   2.090   3.396   7.363  0.4727 -0.8016  0.9367
  116OSM   H14B12029   2.144   3.239   7.330 -0.8576  0.1115 -0.2478
  116OSM   H14C12030   2.090   3.335   7.193 -2.5022 -1.9828  1.0527
  116OSM    C1312031   2.269   3.543   7.262 -0.4723  0.3256 -0.8336
  116OSM   H13A12032   2.205   3.569   7.178 -1.3388 -2.4261 -1.1144
  116OSM   H13B12033   2.370   3.580   7.270  0.0045 -0.7729 -1.5629
  116OSM   H13C12034   2.223   3.580   7.352  1.1293  1.4892 -0.4381
  116OSM    C1212035   2.348   3.341   7.146  0.6908 -0.1377 -0.4521
  116OSM   H12A12036   2.338   3.233   7.146 -2.2774  0.0371  1.0121
  116OSM   H12B12037   2.454   3.360   7.157  0.5325 -0.2908  1.7894
  116OSM    C1112038   2.294   3.373   7.003  0.4239  0.5919  0.1616
  116OSM   H11A12039   2.362   3.315   6.937 -0.1444  1.1166 -0.9088
  116OSM   H11B12040   2.309   3.479   6.972 -1.8139 -0.1076 -4.2189
  116OSM      P12041   2.118   3.190   6.959 -0.2231 -0.3831 -0.0540
  116OSM    O1312042   2.217   3.101   7.030  0.6131  0.0736 -0.7785
  116OSM    O1412043   1.974   3.162   6.987 -0.0936  0.4424 -0.5829
  116OSM    O1112044   2.138   3.165   6.803  0.0169 -0.9581  0.0015
  116OSM    O1212045   2.156   3.334   6.991  0.5709  0.2083  0.0766
  116OSM    C1S12046   2.078   3.262   6.710 -0.2192  0.4373 -0.0809
  116OSM    H1S12047   2.108   3.364   6.740  0.5391  0.1449  0.1814
  116OSM    H1T12048   1.969   3.264   6.729  0.2179 -0.4925  3.0553
  116OSM     NF12049   2.042   3.326   6.475  0.4095  0.2875  0.3255
  116OSM    HNF12050   1.949   3.317   6.440  0.4147  2.9253 -0.5371
  116OSM    C2S12051   2.104   3.227   6.562 -0.2217 -0.2487  0.2537
  116OSM    H2S12052   2.211   3.218   6.535 -0.4328 -0.1368 -0.6577
  116OSM    C3S12053   2.042   3.086   6.537  0.3743 -0.6215 -0.3117
  116OSM    H3S12054   1.932   3.081   6.552  0.5226  0.6655  1.4736
  116OSM     O312055   2.095   2.983   6.624  0.0653 -0.2784 -0.4311
  116OSM    HO312056   2.135   3.031   6.697 -0.5770  2.0839 -1.5218
  116OSM    C4S12057   2.059   3.047   6.393  0.5622 -0.3081  0.2709
  116OSM    H4S12058   1.967   3.001   6.353  0.1909  0.6476  0.0205
  116OSM    C5S12059   2.180   3.028   6.334  0.4373  0.4709  0.6196
  116OSM    H5S12060   2.271   3.039   6.395 -1.5945 -0.7817  4.1978
  116OSM    C6S12061   2.200   2.961   6.195 -0.4560  0.1168 -0.0992
  116OSM    H6S12062   2.253   2.866   6.215 -0.3741  0.4910  1.5552
  116OSM    H6T12063   2.282   3.020   6.150  0.8554 -1.6357 -0.0996
  116OSM    C7S12064   2.071   2.932   6.119 -0.6799 -0.1961 -0.1848
  116OSM    H7S12065   2.006   3.022   6.127  2.8207  2.4622  1.8829
  116OSM    H7T12066   2.025   2.847   6.173  0.8171 -0.3764  0.8720
  116OSM    C8S12067   2.127   2.903   5.977 -0.1795 -0.7063  0.5135
  116OSM    H8S12068   2.203   2.822   5.978  2.6159  1.7229  2.3897
  116OSM    H8T12069   2.179   2.994   5.939  0.1175 -0.2035  2.0442
  116OSM    C9S12070   2.019   2.861   5.879  0.9846  0.2933  0.1801
  116OSM    H9S12071   1.946   2.944   5.868  0.9221  0.4344  1.4759
  116OSM    H9T12072   1.967   2.773   5.924  0.3329  1.2535  1.3439
  116OSM   C10S12073   2.079   2.824   5.742 -0.4605 -0.2505 -0.7198
  116OSM   H10S12074   2.167   2.758   5.762  0.9770  2.1900  1.7088
  116OSM   H10T12075   2.117   2.920   5.702  0.2561 -0.9942 -1.8818
  116OSM   C11S12076   1.980   2.759   5.641 -0.1022  0.5116  0.8036
  116OSM   H11S12077   1.909   2.844   5.630  3.4867  3.6933  0.2167
  116OSM   H11T12078   1.927   2.669   5.678 -0.8377  0.8155  0.5072
  116OSM   C12S12079   2.045   2.719   5.501  0.0608 -0.1177  0.4911
  116OSM   H12S12080   2.106   2.626   5.510  1.0120  0.5341  0.9862
  116OSM   H12T12081   2.111   2.798   5.460  2.6593 -1.5472  1.6518
  116OSM   C13S12082   1.935   2.691   5.402  0.1709 -0.1632  0.4027
  116OSM   H13S12083   1.866   2.777   5.410 -3.0326 -2.6971  3.4112
  116OSM   H13T12084   1.866   2.609   5.432 -1.3485  0.5647 -0.9837
  116OSM   C14S12085   1.985   2.673   5.263 -0.3185 -0.0280 -0.1232
  116OSM   H14S12086   2.066   2.598   5.247  1.1692  1.6801 -0.8638
  116OSM   H14T12087   2.032   2.765   5.223 -0.0944  0.7195  1.7620
  116OSM   C15S12088   1.872   2.633   5.165  0.4124 -0.1028  0.1079
  116OSM   H15S12089   1.795   2.706   5.197  1.7974  0.8479  1.4520
  116OSM   H15T12090   1.827   2.535   5.193  1.5750 -0.5366  0.5394
  116OSM   C16S12091   1.899   2.666   5.024  0.5036 -0.0807  0.0509
  116OSM   H16S12092   1.997   2.623   4.992  0.4802  0.8120 -1.3198
  116OSM   H16T12093   1.898   2.776   5.007 -1.9260  0.0950  0.9906
  116OSM   C17S12094   1.786   2.614   4.928 -0.3790 -0.3770 -0.9791
  116OSM   H17S12095   1.790   2.503   4.925  4.3233 -0.4194 -0.2321
  116OSM   H17T12096   1.808   2.640   4.822  2.6112 -0.8041 -0.5350
  116OSM   C18S12097   1.655   2.670   4.972 -0.2083  0.7301 -0.4817
  116OSM   H18S12098   1.610   2.610   5.055  1.3881  0.1806  0.0271
  116OSM   H18T12099   1.579   2.659   4.891 -0.2487  1.1184 -0.4983
  116OSM   H18U12100   1.649   2.777   5.001  0.8838  0.5227  0.5769
  116OSM    C1F12101   2.095   3.443   6.465 -0.3961 -0.4042  1.3401
  116OSM     OF12102   2.210   3.460   6.508  0.1343 -0.1541 -0.3284
  116OSM    C2F12103   2.018   3.556   6.404  0.2844  0.1760  0.3228
  116OSM    H2F12104   2.012   3.650   6.463  0.0043  0.4823 -0.1892
  116OSM    H2G12105   1.910   3.529   6.399  0.5493 -0.8338 -0.0474
  116OSM    C3F12106   2.075   3.590   6.256 -0.2598 -0.6345 -0.4092
  116OSM    H3F12107   2.186   3.586   6.251 -0.2607  0.4990 -2.1032
  116OSM    H3G12108   2.050   3.696   6.233  0.7014 -0.5396 -1.0589
  116OSM    C4F12109   2.021   3.502   6.138  0.3059  0.4000  0.2790
  116OSM    H4F12110   1.950   3.563   6.079 -0.5565  0.8202  1.6903
  116OSM    H4G12111   1.958   3.420   6.177 -0.5713  0.8085 -0.2682
  116OSM    C5F12112   2.123   3.433   6.048  0.2804  0.7292  0.4839
  116OSM    H5F12113   2.161   3.353   6.114 -0.6795  0.7951  1.1452
  116OSM    H5G12114   2.211   3.499   6.034  0.3537  0.4230 -0.5599
  116OSM    C6F12115   2.066   3.381   5.917  0.5577 -0.2226  0.2974
  116OSM    H6F12116   2.080   3.467   5.849  1.7092  0.2098  1.0475
  116OSM    H6G12117   1.957   3.363   5.932  0.2599 -0.4638 -1.8501
  116OSM    C7F12118   2.120   3.250   5.863 -0.3177  0.6093 -0.6921
  116OSM    H7F12119   2.066   3.170   5.919 -0.0078 -2.0367 -3.8644
  116OSM    H7G12120   2.229   3.245   5.883 -0.2118  0.6969 -1.2265
  116OSM    C8F12121   2.078   3.247   5.720 -0.1323  0.2682 -0.8214
  116OSM    H8F12122   1.977   3.292   5.721  0.3593  1.3920  0.3762
  116OSM    H8G12123   2.071   3.140   5.690 -1.0873  0.2962 -0.7273
  116OSM    C9F12124   2.160   3.327   5.629  0.2161  0.0260  1.0502
  116OSM    H9F12125   2.177   3.431   5.663  2.4710  0.1394 -0.2871
  116OSM   C10F12126   2.231   3.276   5.529 -0.8692 -0.9298  0.1957
  116OSM   H10F12127   2.283   3.349   5.465  1.4416 -2.7016 -0.0841
  116OSM   C11F12128   2.227   3.131   5.481  0.5369 -0.2363 -0.1625
  116OSM   H11F12129   2.216   3.065   5.569  2.5931 -0.4192  0.0063
  116OSM   H11G12130   2.314   3.085   5.429 -1.3686 -1.3354 -2.5849
  116OSM   C12F12131   2.110   3.087   5.392  0.5162  0.8164 -0.0608
  116OSM   H12F12132   2.019   3.116   5.449  1.1435  1.8847  0.4264
  116OSM   H12G12133   2.101   2.977   5.377 -0.8100  0.8773  0.1453
  116OSM   C13F12134   2.125   3.149   5.253  0.6604  0.2565  0.8231
  116OSM   H13F12135   2.213   3.095   5.212 -0.5047 -0.8909 -0.2154
  116OSM   H13G12136   2.142   3.259   5.250  2.9874 -0.0615  0.4357
  116OSM   C14F12137   1.996   3.111   5.174  0.1134 -0.5586  0.2060
  116OSM   H14F12138   1.911   3.149   5.235 -1.0796  0.3147 -1.8820
  116OSM   H14G12139   1.978   3.003   5.159  2.2417 -0.9299  0.0761
  116OSM   C15F12140   1.995   3.180   5.036  0.0887 -0.0445  0.4202
  116OSM   H15F12141   2.086   3.149   4.980  0.1418  2.2045 -0.8701
  116OSM   H15G12142   2.000   3.289   5.061  2.2471 -0.7169  3.5541
  116OSM   C16F12143   1.875   3.141   4.930  0.0489 -0.0117  0.5432
  116OSM   H16F12144   1.895   3.040   4.887 -1.0318 -0.4831  1.1134
  116OSM   H16G12145   1.873   3.205   4.840 -0.4272 -0.6957  0.0565
  116OSM   C17F12146   1.732   3.138   4.987  0.0320 -0.7400 -0.5663
  116OSM   H17F12147   1.722   3.093   5.088 -2.1645  1.0255  0.0983
  116OSM   H17G12148   1.666   3.083   4.917  1.1321 -0.7925 -1.5912
  116OSM   C18F12149   1.671   3.280   4.980  0.3770  0.8210 -0.6966
  116OSM   H18F12150   1.616   3.315   5.070  1.9721  0.3931  0.4832
  116OSM   H18G12151   1.609   3.291   4.888 -2.1801 -0.4835  0.7629
  116OSM   H18H12152   1.758   3.348   4.970  1.2754 -0.4897 -2.1928
  117OSM      N12153   0.433   0.846   6.973  0.5377  0.3800  0.3813
  117OSM    C1512154   0.523   0.958   6.927 -0.0817  0.3912 -0.2525
  117OSM   H15A12155   0.531   1.022   7.014 -2.7417 -0.2354  0.5571
  117OSM   H15B12156   0.479   1.015   6.847  0.1076  0.0413 -0.6084
  117OSM   H15C12157   0.621   0.931   6.891 -0.2505 -1.1632  0.3733
  117OSM    C1412158   0.505   0.776   7.085  0.5671 -0.6189 -0.3952
  117OSM   H14A12159   0.449   0.690   7.119 -1.3766  0.6888 -0.1245
  117OSM   H14B12160   0.503   0.839   7.172 -2.1574 -1.8382  0.5653
  117OSM   H14C12161   0.607   0.753   7.060  1.2774  0.7570  1.0775
  117OSM    C1312162   0.308   0.894   7.033  0.8634 -1.1155 -0.3813
  117OSM   H13A12163   0.232   0.921   6.961  0.3986  0.7092  0.7143
  117OSM   H13B12164   0.307   0.986   7.090 -2.0467 -1.2521 -0.0476
  117OSM   H13C12165   0.261   0.823   7.099 -0.6529  1.6264  1.7066
  117OSM    C1212166   0.400   0.754   6.857 -0.2776  0.2725  0.0687
  117OSM   H12A12167   0.325   0.799   6.794  0.1148  2.2471  0.9472
  117OSM   H12B12168   0.376   0.658   6.901  2.6039 -0.3520  0.4481
  117OSM    C1112169   0.519   0.717   6.758 -0.6725  1.3377 -0.9540
  117OSM   H11A12170   0.560   0.814   6.724  2.7222  0.7587  1.0459
  117OSM   H11B12171   0.474   0.652   6.680  1.3299  0.3464 -1.3536
  117OSM      P12172   0.643   0.501   6.831  0.1219  0.3444  0.2069
  117OSM    O1312173   0.765   0.461   6.903 -0.3533  0.1004 -0.4080
  117OSM    O1412174   0.519   0.445   6.884 -0.1188  1.0043  0.5450
  117OSM    O1112175   0.652   0.465   6.676 -1.0017 -0.4611 -0.4017
  117OSM    O1212176   0.628   0.658   6.829 -0.5020 -0.5376 -0.2804
  117OSM    C1S12177   0.771   0.510   6.603 -0.6059  0.1897 -0.4571
  117OSM    H1S12178   0.855   0.447   6.641  0.4113  0.7312 -1.7199
  117OSM    H1T12179   0.793   0.616   6.626 -1.2949  0.0302  1.0353
  117OSM     NF12180   0.889   0.490   6.374  0.1359  0.1658 -0.2128
  117OSM    HNF12181   0.918   0.583   6.351 -0.6841  0.3255 -0.6351
  117OSM    C2S12182   0.759   0.489   6.449 -0.4202 -0.1428  0.0290
  117OSM    H2S12183   0.705   0.393   6.438  1.6890 -1.4289  0.4865
  117OSM    C3S12184   0.662   0.590   6.387  0.5276  0.2574 -0.0667
  117OSM    H3S12185   0.701   0.693   6.404  2.7418 -0.0082 -2.8629
  117OSM     O312186   0.545   0.597   6.465 -0.0916  0.3811  0.6971
  117OSM    HO312187   0.574   0.555   6.546  1.7537 -1.1620 -0.6512
  117OSM    C4S12188   0.634   0.559   6.244  0.4881 -0.5816  0.1411
  117OSM    H4S12189   0.568   0.477   6.213  0.1969 -0.6655  0.9842
  117OSM    C5S12190   0.685   0.645   6.150  0.0743 -0.1211  0.1707
  117OSM    H5S12191   0.745   0.732   6.180 -0.1127 -0.1747  0.7164
  117OSM    C6S12192   0.679   0.621   5.995 -0.2447  0.4853 -0.0044
  117OSM    H6S12193   0.756   0.681   5.941  0.7966  0.7054  1.6444
  117OSM    H6T12194   0.578   0.630   5.951  0.0946 -1.8210 -1.4367
  117OSM    C7S12195   0.696   0.471   5.968 -0.5359 -0.3973  0.0756
  117OSM    H7S12196   0.612   0.413   6.010  0.9461 -1.0300  2.3286
  117OSM    H7T12197   0.789   0.448   6.025  0.0316  0.3511 -0.5193
  117OSM    C8S12198   0.732   0.448   5.809 -0.4440 -0.0785  0.0845
  117OSM    H8S12199   0.739   0.340   5.782  2.2606  0.2832 -0.8976
  117OSM    H8T12200   0.828   0.497   5.785  0.1927 -0.4026  1.7942
  117OSM    C9S12201   0.622   0.487   5.712 -0.2132  0.4732 -0.3208
  117OSM    H9S12202   0.585   0.592   5.722 -1.4265  0.1315 -1.0226
  117OSM    H9T12203   0.534   0.422   5.729 -0.8250  1.4122  0.1479
  117OSM   C10S12204   0.671   0.491   5.569  0.4790  0.6764  0.4093
  117OSM   H10S12205   0.727   0.397   5.551 -2.3769 -0.7344 -2.0284
  117OSM   H10T12206   0.724   0.585   5.547  1.9554 -0.4235 -0.9104
  117OSM   C11S12207   0.541   0.463   5.485 -0.4541  0.3829  0.7819
  117OSM   H11S12208   0.463   0.539   5.505 -0.5742  1.0148 -1.7379
  117OSM   H11T12209   0.506   0.361   5.508 -0.9036  0.4834  0.5664
  117OSM   C12S12210   0.564   0.470   5.334 -0.3420  0.4763 -0.7394
  117OSM   H12S12211   0.616   0.567   5.317 -1.6130  1.3774  0.3392
  117OSM   H12T12212   0.465   0.470   5.283 -1.6972 -1.0172  1.6942
  117OSM   C13S12213   0.637   0.351   5.271 -0.4505  0.2072 -0.3099
  117OSM   H13S12214   0.587   0.252   5.284  1.6574 -1.3138 -2.6510
  117OSM   H13T12215   0.735   0.336   5.322  0.8637  1.2892 -2.3961
  117OSM   C14S12216   0.666   0.379   5.114  0.2213  0.3606  0.3921
  117OSM   H14S12217   0.724   0.472   5.096 -1.4560  1.5839  1.0116
  117OSM   H14T12218   0.570   0.384   5.058 -0.6954  1.9384  1.9862
  117OSM   C15S12219   0.744   0.253   5.065  0.1693 -0.0355 -0.4961
  117OSM   H15S12220   0.686   0.159   5.056  3.2635 -2.3417  1.3576
  117OSM   H15T12221   0.835   0.220   5.120 -0.4677 -0.7712  0.1243
  117OSM   C16S12222   0.788   0.268   4.918 -0.0137  0.1012 -0.1999
  117OSM   H16S12223   0.702   0.281   4.848 -0.5666 -1.3875  0.1618
  117OSM   H16T12224   0.832   0.171   4.887  1.9848  0.7133  0.5678
  117OSM   C17S12225   0.894   0.370   4.881 -0.1940  0.0502 -0.5567
  117OSM   H17S12226   0.975   0.369   4.957 -0.1034  2.6617 -0.5429
  117OSM   H17T12227   0.844   0.469   4.883 -1.3089 -0.4933 -0.7649
  117OSM   C18S12228   0.959   0.354   4.746 -0.0555  0.5204 -0.0144
  117OSM   H18S12229   1.007   0.254   4.741 -1.9577 -0.4960  1.0224
  117OSM   H18T12230   1.031   0.435   4.721 -0.6968  1.0403 -0.1905
  117OSM   H18U12231   0.883   0.359   4.666  0.5362 -1.3208 -0.7504
  117OSM    C1F12232   0.971   0.394   6.396 -0.9086 -0.6678  0.3525
  117OSM     OF12233   0.939   0.297   6.453 -0.2337 -0.0418  0.1075
  117OSM    C2F12234   1.116   0.410   6.352 -0.0621  0.2290  0.5942
  117OSM    H2F12235   1.186   0.334   6.394 -0.5093  0.3643  1.6200
  117OSM    H2G12236   1.152   0.511   6.381  1.1285 -0.4672  1.6985
  117OSM    C3F12237   1.121   0.400   6.200 -0.5406 -0.4946  0.1038
  117OSM    H3F12238   1.069   0.486   6.154 -0.1337 -1.5165 -2.4389
  117OSM    H3G12239   1.073   0.310   6.156 -0.4725 -0.7096  0.4645
  117OSM    C4F12240   1.260   0.397   6.136 -0.4628 -0.1539 -1.1246
  117OSM    H4F12241   1.329   0.324   6.183 -1.0583  0.4825  0.8112
  117OSM    H4G12242   1.308   0.497   6.139  0.7722 -0.7435  0.5009
  117OSM    C5F12243   1.261   0.366   5.987 -0.0406 -0.5092  0.2806
  117OSM    H5F12244   1.247   0.260   5.957 -1.9499  0.0811 -1.1084
  117OSM    H5G12245   1.363   0.399   5.960 -0.2162 -1.7608 -2.1373
  117OSM    C6F12246   1.168   0.447   5.899  0.2894 -0.0815  0.2144
  117OSM    H6F12247   1.144   0.541   5.953 -0.8219  0.8565 -1.7898
  117OSM    H6G12248   1.072   0.391   5.900  1.4504 -2.2206  2.6132
  117OSM    C7F12249   1.225   0.491   5.757  0.5721  0.5688  0.6903
  117OSM    H7F12250   1.333   0.513   5.775  0.8735 -1.5920  1.8618
  117OSM    H7G12251   1.187   0.584   5.710  3.0060 -0.1237 -3.1628
  117OSM    C8F12252   1.208   0.375   5.660 -0.2980  0.1858  0.1654
  117OSM    H8F12253   1.203   0.287   5.728  1.6874 -1.0939 -1.2361
  117OSM    H8G12254   1.303   0.370   5.604 -0.2310 -1.0057  0.3633
  117OSM    C9F12255   1.079   0.381   5.586  0.2468  0.5036 -0.0705
  117OSM    H9F12256   0.996   0.409   5.652  1.4877  1.4862  1.1186
  117OSM   C10F12257   1.070   0.362   5.451  0.3751 -1.0476  0.1478
  117OSM   H10F12258   0.972   0.385   5.406  0.3750 -1.3239  0.0015
  117OSM   C11F12259   1.183   0.338   5.346  1.5344 -0.1073  0.8866
  117OSM   H11F12260   1.165   0.252   5.278 -2.3141 -1.1936  2.9911
  117OSM   H11G12261   1.275   0.301   5.398  1.0162 -3.1201 -0.1120
  117OSM   C12F12262   1.234   0.454   5.262 -0.0652  0.0044  0.6936
  117OSM   H12F12263   1.327   0.436   5.204 -1.1520  0.6372 -1.3516
  117OSM   H12G12264   1.240   0.542   5.329 -0.7748  0.0998  0.6348
  117OSM   C13F12265   1.127   0.509   5.162  0.8255 -0.3392 -0.1258
  117OSM   H13F12266   1.039   0.538   5.223  0.7755 -0.1300 -0.2953
  117OSM   H13G12267   1.103   0.432   5.085  1.6871 -0.3813 -0.3668
  117OSM   C14F12268   1.187   0.627   5.084  0.5417 -0.5632 -0.6922
  117OSM   H14F12269   1.275   0.600   5.021  1.3097  3.0101 -1.3673
  117OSM   H14G12270   1.207   0.711   5.154 -1.8389  0.2465 -0.8783
  117OSM   C15F12271   1.065   0.687   4.995  0.1512  0.8418 -0.0748
  117OSM   H15F12272   0.981   0.712   5.064  1.0080  2.9453  0.2628
  117OSM   H15G12273   1.036   0.603   4.929  0.3275  0.4446  0.3497
  117OSM   C16F12274   1.097   0.805   4.904 -1.0007  0.6624 -0.2756
  117OSM   H16F12275   1.176   0.793   4.827 -2.0924  1.9196 -1.6214
  117OSM   H16G12276   1.129   0.883   4.977  0.8699 -0.2954  0.0062
  117OSM   C17F12277   0.975   0.848   4.834  0.2625  0.7830  0.2449
  117OSM   H17F12278   0.883   0.848   4.898 -1.1913  0.6870 -1.7527
  117OSM   H17G12279   0.955   0.779   4.749  0.8434 -0.6991  1.2692
  117OSM   C18F12280   0.986   0.990   4.765 -0.6009 -0.1413 -0.1581
  117OSM   H18F12281   0.980   1.075   4.836  0.6773  0.1401 -0.3737
  117OSM   H18G12282   0.913   1.014   4.685  1.0775  0.0332 -1.6768
  117OSM   H18H12283   1.081   0.992   4.709 -0.1165  0.8504  0.6697
  118OSM      N12284   1.441   6.247   7.124  0.4641 -0.0522 -0.4118
  118OSM    C1512285   1.378   6.252   6.989  0.3074 -0.0099  0.3883
  118OSM   H15A12286   1.400   6.343   6.934  1.5871 -2.0186 -2.6901
  118OSM   H15B12287   1.270   6.247   6.994  0.1832 -2.7979 -2.1781
  118OSM   H15C12288   1.414   6.169   6.931  0.3647  0.6703 -0.5787
  118OSM    C1412289   1.379   6.349   7.214 -0.0482  0.2985  0.4437
  118OSM   H14A12290   1.408   6.450   7.190  2.9491 -0.2160  1.4012
  118OSM   H14B12291   1.408   6.341   7.318  1.0607 -1.4370  0.0499
  118OSM   H14C12292   1.272   6.340   7.218 -0.3249  2.6641 -0.5599
  118OSM    C1312293   1.411   6.110   7.171  0.2923  0.1816 -0.0437
  118OSM   H13A12294   1.445   6.046   7.091 -0.6627 -1.1912  0.6022
  118OSM   H13B12295   1.305   6.097   7.189  0.2953  0.9611  0.5629
  118OSM   H13C12296   1.474   6.089   7.256  1.4363 -0.8390 -1.1003
  118OSM    C1212297   1.594   6.257   7.119  0.9040  0.3967 -0.2730
  118OSM   H12A12298   1.634   6.262   7.219  1.0083 -2.1804 -0.1310
  118OSM   H12B12299   1.617   6.351   7.071  1.0393  0.3450 -0.3107
  118OSM    C1112300   1.668   6.145   7.049 -0.5782  0.5634  0.6798
  118OSM   H11A12301   1.768   6.184   7.020  0.6852 -0.0877  3.8201
  118OSM   H11B12302   1.621   6.122   6.951  1.8849  1.0968 -0.7188
  118OSM      P12303   1.760   5.905   7.080 -0.2556 -0.0235  0.0288
  118OSM    O1312304   1.902   5.938   7.051 -0.1980 -0.6492 -0.2863
  118OSM    O1412305   1.734   5.792   7.172 -0.1209 -0.4121  0.2929
  118OSM    O1112306   1.695   5.869   6.943  0.0880  0.2628  0.2284
  118OSM    O1212307   1.682   6.032   7.130  0.1486 -0.1519 -0.7696
  118OSM    C1S12308   1.558   5.815   6.948 -0.6006 -0.0904  0.6747
  118OSM    H1S12309   1.480   5.884   6.988 -0.5157  0.3182  0.1525
  118OSM    H1T12310   1.551   5.718   7.000 -1.8214 -0.6991 -0.5513
  118OSM     NF12311   1.364   5.745   6.817  0.1171  0.4101 -0.4529
  118OSM    HNF12312   1.338   5.653   6.845 -0.2268  0.9025  0.9129
  118OSM    C2S12313   1.505   5.776   6.804  0.4906  0.2525 -0.2372
  118OSM    H2S12314   1.516   5.863   6.735  0.0852  1.3415  1.0157
  118OSM    C3S12315   1.592   5.666   6.741  0.2079 -0.1870  0.2545
  118OSM    H3S12316   1.591   5.572   6.802 -0.8332 -1.5171 -1.7140
  118OSM     O312317   1.729   5.707   6.736  0.0354 -0.3359  0.1837
  118OSM    HO312318   1.739   5.783   6.793 -1.1578 -1.3630  1.8665
  118OSM    C4S12319   1.548   5.629   6.601  0.0640 -0.0968  0.1926
  118OSM    H4S12320   1.494   5.533   6.601  2.3960 -1.5530 -2.3817
  118OSM    C5S12321   1.568   5.684   6.481 -0.3588  0.3739 -0.1080
  118OSM    H5S12322   1.631   5.773   6.468 -0.8040  0.3495 -3.1844
  118OSM    C6S12323   1.532   5.634   6.339  0.0647 -0.1008 -0.3478
  118OSM    H6S12324   1.570   5.531   6.327 -1.0880 -1.0644  3.1418
  118OSM    H6T12325   1.578   5.705   6.267 -0.3124 -0.6245 -1.1064
  118OSM    C7S12326   1.387   5.632   6.309 -0.1667 -0.1116  0.0632
  118OSM    H7S12327   1.333   5.727   6.329  0.2714  0.0297  0.6029
  118OSM    H7T12328   1.357   5.550   6.377 -2.8801  0.9960  0.3376
  118OSM    C8S12329   1.358   5.597   6.160 -1.3096 -0.0009 -0.1234
  118OSM    H8S12330   1.391   5.495   6.132 -0.9317 -0.4625  1.8650
  118OSM    H8T12331   1.417   5.675   6.106  1.5077 -0.8486  1.5451
  118OSM    C9S12332   1.208   5.610   6.128  0.0912 -0.5429  0.3311
  118OSM    H9S12333   1.208   5.721   6.126  4.0742 -0.2508  3.8264
  118OSM    H9T12334   1.150   5.580   6.218 -0.5680  0.8299  0.4020
  118OSM   C10S12335   1.172   5.538   6.002  0.0620  0.3088 -0.1561
  118OSM   H10S12336   1.068   5.558   5.969  0.0194 -0.9418 -0.8284
  118OSM   H10T12337   1.168   5.429   6.023 -1.0603  0.3989  0.1622
  118OSM   C11S12338   1.277   5.566   5.889  0.3696  0.3675 -0.4554
  118OSM   H11S12339   1.378   5.526   5.915 -0.3589  0.6812  3.4786
  118OSM   H11T12340   1.286   5.676   5.871  0.0208  0.1982 -1.7840
  118OSM   C12S12341   1.236   5.496   5.764  0.3306  0.3168  0.8009
  118OSM   H12S12342   1.221   5.388   5.786  0.3134  0.3380  0.8956
  118OSM   H12T12343   1.322   5.486   5.695 -0.7763  2.5561 -1.0352
  118OSM   C13S12344   1.119   5.571   5.696 -0.3854  0.7805  0.3566
  118OSM   H13S12345   1.135   5.668   5.645 -1.1759  1.1831  0.8553
  118OSM   H13T12346   1.040   5.582   5.773 -2.2908  0.7721 -1.5102
  118OSM   C14S12347   1.067   5.476   5.582  0.9223  0.4018  0.0660
  118OSM   H14S12348   1.125   5.382   5.581 -1.4065 -1.1556  1.6948
  118OSM   H14T12349   1.073   5.528   5.484  1.1608  1.0729  0.4314
  118OSM   C15S12350   0.930   5.422   5.607  0.5470  0.1972 -0.0806
  118OSM   H15S12351   0.851   5.498   5.585  0.6616 -0.0506 -1.4249
  118OSM   H15T12352   0.906   5.390   5.711 -1.0397  2.6351  0.3889
  118OSM   C16S12353   0.886   5.323   5.490 -0.2261 -0.0900 -0.5669
  118OSM   H16S12354   0.915   5.375   5.396 -1.3676  0.1380 -0.8077
  118OSM   H16T12355   0.777   5.302   5.488 -0.4679  1.0069  0.3044
  118OSM   C17S12356   0.958   5.190   5.474 -0.7136  0.0873  0.0433
  118OSM   H17S12357   1.068   5.207   5.475 -0.5708  0.0632 -3.5038
  118OSM   H17T12358   0.941   5.134   5.380 -3.1987 -3.1000  2.1427
  118OSM   C18S12359   0.925   5.095   5.589  0.3592 -0.0518 -0.2293
  118OSM   H18S12360   0.820   5.059   5.581  0.9471 -1.7475 -0.6346
  118OSM   H18T12361   0.951   5.142   5.686  1.3681 -3.1520  1.1070
  118OSM   H18U12362   0.999   5.013   5.586 -1.3401 -1.6324 -2.5380
  118OSM    C1F12363   1.264   5.831   6.808  0.3157  0.2734  0.2778
  118OSM     OF12364   1.289   5.949   6.787  0.9755 -0.4712 -0.4032
  118OSM    C2F12365   1.132   5.773   6.839 -0.5628  0.2710 -0.2160
  118OSM    H2F12366   1.078   5.847   6.902 -0.2875  0.5781 -0.3431
  118OSM    H2G12367   1.144   5.673   6.887  0.9776  0.0504 -1.0222
  118OSM    C3F12368   1.042   5.760   6.717  0.0526  0.1077 -0.2573
  118OSM    H3F12369   1.020   5.864   6.683 -0.8304 -0.5206 -1.7213
  118OSM    H3G12370   0.950   5.709   6.752  0.8633 -1.8924 -0.9245
  118OSM    C4F12371   1.092   5.656   6.613 -0.6005 -0.1575  0.3508
  118OSM    H4F12372   1.109   5.569   6.679 -0.4643  0.9661  1.8639
  118OSM    H4G12373   1.181   5.697   6.562  0.0970 -1.3640  0.5667
  118OSM    C5F12374   0.977   5.626   6.513  0.1254  0.0260  0.8371
  118OSM    H5F12375   0.883   5.591   6.560 -1.1890 -0.1875 -1.7911
  118OSM    H5G12376   1.017   5.539   6.457  1.4451 -0.2194  2.1023
  118OSM    C6F12377   0.960   5.738   6.412  0.3186 -0.1537  0.2825
  118OSM    H6F12378   1.055   5.750   6.356  1.7306  1.2748  2.7504
  118OSM    H6G12379   0.942   5.836   6.463  0.4596 -0.9097  1.8665
  118OSM    C7F12380   0.838   5.699   6.321 -0.6997  0.1197 -0.5409
  118OSM    H7F12381   0.738   5.718   6.365  0.2715 -0.5633  2.1065
  118OSM    H7G12382   0.845   5.591   6.296  1.7675  0.5550 -2.0367
  118OSM    C8F12383   0.846   5.788   6.193  0.1196  0.8036 -0.2459
  118OSM    H8F12384   0.948   5.775   6.150  0.8346 -3.6200  2.1752
  118OSM    H8G12385   0.843   5.897   6.213 -2.1403  0.5263  1.2963
  118OSM    C9F12386   0.744   5.743   6.091  0.3166  0.6278  0.1423
  118OSM    H9F12387   0.670   5.680   6.141  0.5225  0.7907  0.6585
  118OSM   C10F12388   0.750   5.758   5.959  0.6677 -0.1906  0.2610
  118OSM   H10F12389   0.666   5.729   5.894  1.0636 -0.1445 -0.2715
  118OSM   C11F12390   0.868   5.830   5.892  0.7421 -0.3001 -0.0202
  118OSM   H11F12391   0.955   5.762   5.896  1.4281  0.4928 -0.8614
  118OSM   H11G12392   0.905   5.913   5.956  0.6240 -0.2374 -0.0321
  118OSM   C12F12393   0.834   5.890   5.757 -0.3083  0.2874  0.3296
  118OSM   H12F12394   0.923   5.956   5.747 -0.5519  0.9013  1.9146
  118OSM   H12G12395   0.737   5.943   5.765 -0.1420  0.4753  1.3105
  118OSM   C13F12396   0.841   5.796   5.634  0.3313  0.1970  0.6767
  118OSM   H13F12397   0.748   5.735   5.638 -0.6163  1.6741  1.7368
  118OSM   H13G12398   0.935   5.736   5.631 -1.0060 -1.9893 -0.9648
  118OSM   C14F12399   0.835   5.875   5.495  0.1057 -0.0122 -0.7040
  118OSM   H14F12400   0.920   5.947   5.497  0.4072 -0.2354 -2.8283
  118OSM   H14G12401   0.745   5.940   5.490  2.0814  2.8749 -1.9066
  118OSM   C15F12402   0.840   5.786   5.364  0.7618 -0.2606 -0.7917
  118OSM   H15F12403   0.931   5.722   5.369  0.6468 -0.3093  1.3771
  118OSM   H15G12404   0.855   5.865   5.287  0.1939  2.8372  2.0461
  118OSM   C16F12405   0.708   5.712   5.337 -0.0973  0.0272 -0.3389
  118OSM   H16F12406   0.619   5.766   5.375  0.1699 -0.0404  0.3971
  118OSM   H16G12407   0.716   5.614   5.390  1.7769  0.4503  0.2215
  118OSM   C17F12408   0.686   5.671   5.186 -0.2378 -0.2476  0.0214
  118OSM   H17F12409   0.678   5.769   5.135  1.0486 -0.2638 -0.2409
  118OSM   H17G12410   0.602   5.599   5.189 -0.2725 -0.1864  0.5734
  118OSM   C18F12411   0.801   5.597   5.117 -0.2917  0.4718  0.8218
  118OSM   H18F12412   0.763   5.570   5.016  0.1843  1.0023  0.4990
  118OSM   H18G12413   0.830   5.499   5.158 -0.3031 -0.8822 -2.1552
  118OSM   H18H12414   0.892   5.660   5.104 -2.3694  3.1996 -2.3172
  119OSM      N12415   3.786   1.897   6.884  0.2406 -0.3295 -0.3201
  119OSM    C1512416   3.811   1.767   6.821 -0.1642  1.1237  0.9925
  119OSM   H15A12417   3.895   1.778   6.755 -0.8317  3.1185  0.3975
  119OSM   H15B12418   3.725   1.726   6.769  1.3529 -1.0147  0.0264
  119OSM   H15C12419   3.838   1.687   6.888  1.4199  0.1821 -0.6943
  119OSM    C1412420   3.726   1.995   6.783  0.5453 -0.3613  0.1272
  119OSM   H14A12421   3.722   2.096   6.820 -0.1160  0.9320 -3.1954
  119OSM   H14B12422   3.629   1.964   6.747  1.5438 -0.2393 -2.8823
  119OSM   H14C12423   3.793   1.993   6.698  0.2540  1.4894 -0.1738
  119OSM    C1312424   3.677   1.890   6.984  0.0160 -0.6751  0.2400
  119OSM   H13A12425   3.676   1.978   7.046  0.7308 -0.6819  0.2672
  119OSM   H13B12426   3.700   1.810   7.053 -0.4745 -0.8128  0.2470
  119OSM   H13C12427   3.585   1.870   6.932 -0.3661  2.0038 -0.2436
  119OSM    C1212428   3.908   1.955   6.953 -0.0183 -0.3445 -0.2502
  119OSM   H12A12429   3.946   1.878   7.020  1.1852  1.4949  1.3021
  119OSM   H12B12430   3.873   2.028   7.024  0.1537 -1.9160  1.5370
  119OSM    C1112431   4.028   1.999   6.866  0.3161  0.3455 -0.1060
  119OSM   H11A12432   4.106   2.035   6.937 -1.5148  1.7806  1.2803
  119OSM   H11B12433   3.998   2.081   6.797 -1.6638  0.5440  0.9021
  119OSM      P12434   4.195   1.793   6.839  0.0520  0.0227 -0.1404
  119OSM    O1312435   4.173   1.765   6.983  0.2714 -0.1114  0.3356
  119OSM    O1412436   4.201   1.680   6.741 -0.1659 -0.6335 -0.4363
  119OSM    O1112437   4.324   1.881   6.820  0.0612 -0.0800 -0.0364
  119OSM    O1212438   4.078   1.887   6.782 -0.4509  0.0990 -0.5113
  119OSM    C1S12439   4.387   1.906   6.698 -0.3147 -0.1687  0.1812
  119OSM    H1S12440   4.370   1.817   6.633  5.9801 -0.7551 -1.2730
  119OSM    H1T12441   4.497   1.913   6.711 -0.0702  0.0677 -1.7201
  119OSM     NF12442   4.399   2.041   6.497  0.7089 -0.8975 -0.5010
  119OSM    HNF12443   4.481   2.086   6.463  0.4296 -0.7051 -0.9172
  119OSM    C2S12444   4.352   2.041   6.637 -0.0636  0.8142  0.5078
  119OSM    H2S12445   4.241   2.037   6.635 -0.0217 -0.5262 -1.1352
  119OSM    C3S12446   4.407   2.153   6.729  0.3184 -0.9977  0.1032
  119OSM    H3S12447   4.518   2.143   6.730  0.5556  0.9097  3.2825
  119OSM     O312448   4.375   2.129   6.868 -0.1094  0.1605 -0.0635
  119OSM    HO312449   4.365   2.034   6.876 -0.6529  0.2859  1.0194
  119OSM    C4S12450   4.369   2.292   6.686 -0.3595  0.4449 -1.2194
  119OSM    H4S12451   4.260   2.299   6.697 -0.2332 -1.4633  3.4743
  119OSM    C5S12452   4.449   2.398   6.662  0.5298 -0.4368 -0.7928
  119OSM    H5S12453   4.558   2.394   6.664  0.5183 -0.7165 -0.5527
  119OSM    C6S12454   4.395   2.534   6.623 -0.6998  0.0093 -0.8587
  119OSM    H6S12455   4.476   2.593   6.576 -0.7151 -0.2835 -1.2669
  119OSM    H6T12456   4.374   2.595   6.713 -1.4055 -1.6127  0.1328
  119OSM    C7S12457   4.275   2.539   6.530  0.4337  0.0295  0.3644
  119OSM    H7S12458   4.239   2.644   6.525  0.7380  0.0959 -0.7858
  119OSM    H7T12459   4.193   2.480   6.577 -1.4472  1.0263 -1.4699
  119OSM    C8S12460   4.304   2.498   6.388  0.0284 -0.1698 -0.4922
  119OSM    H8S12461   4.341   2.393   6.393  0.9623  0.2165  1.2685
  119OSM    H8T12462   4.390   2.554   6.345  1.4293 -0.8086  1.3400
  119OSM    C9S12463   4.175   2.499   6.297 -0.3817 -0.4074 -0.1481
  119OSM    H9S12464   4.117   2.591   6.322 -0.4998 -0.3601 -0.5797
  119OSM    H9T12465   4.107   2.415   6.321 -1.1065 -0.5658 -2.4544
  119OSM   C10S12466   4.187   2.513   6.147  0.2105 -0.3856 -0.8945
  119OSM   H10S12467   4.259   2.436   6.112 -1.2061 -0.8295 -3.0061
  119OSM   H10T12468   4.216   2.616   6.118 -0.8435  0.2822  0.3369
  119OSM   C11S12469   4.048   2.487   6.093 -1.4365  0.1842 -0.8359
  119OSM   H11S12470   3.966   2.551   6.133 -0.3682 -0.2010  2.1918
  119OSM   H11T12471   4.014   2.384   6.115 -1.4200  0.4588  0.6049
  119OSM   C12S12472   4.037   2.499   5.937  0.5251 -0.1220 -0.4655
  119OSM   H12S12473   4.120   2.436   5.899  0.3875 -0.9311  0.5483
  119OSM   H12T12474   4.054   2.606   5.911 -2.8092  1.0805  1.6350
  119OSM   C13S12475   3.894   2.473   5.892  0.0889  0.6213 -0.2353
  119OSM   H13S12476   3.832   2.559   5.925 -1.2481 -0.1215 -0.7251
  119OSM   H13T12477   3.860   2.384   5.949  1.0645  0.6665  0.4416
  119OSM   C14S12478   3.878   2.467   5.739 -0.3447 -0.0531 -0.1922
  119OSM   H14S12479   3.920   2.376   5.690  1.7045 -0.3259  1.9354
  119OSM   H14T12480   3.934   2.553   5.698  0.8181 -1.7986 -2.5138
  119OSM   C15S12481   3.734   2.488   5.685  0.1648 -0.1476  0.7653
  119OSM   H15S12482   3.671   2.559   5.742 -1.0057  0.7098 -1.4543
  119OSM   H15T12483   3.683   2.390   5.683  0.2243 -0.2186 -2.5659
  119OSM   C16S12484   3.746   2.558   5.551  0.2680  0.5407  0.5166
  119OSM   H16S12485   3.794   2.658   5.553 -0.4652  0.9338 -0.8248
  119OSM   H16T12486   3.640   2.572   5.521  0.0233 -1.9166  0.0265
  119OSM   C17S12487   3.807   2.486   5.434 -0.7440  0.1170  0.7094
  119OSM   H17S12488   3.794   2.375   5.439 -0.6031 -0.0680 -1.5940
  119OSM   H17T12489   3.915   2.509   5.447 -0.5338 -0.6045  0.3169
  119OSM   C18S12490   3.763   2.550   5.301  0.5929 -0.7785  0.0291
  119OSM   H18S12491   3.652   2.558   5.304  0.6930  2.2588 -1.2324
  119OSM   H18T12492   3.795   2.508   5.203  1.8061 -0.0325  0.0846
  119OSM   H18U12493   3.799   2.655   5.298 -0.2218 -0.3757  2.4234
  119OSM    C1F12494   4.328   1.986   6.405 -0.6508 -0.6147  0.7099
  119OSM     OF12495   4.227   1.927   6.428  0.5544  0.1496  0.0349
  119OSM    C2F12496   4.375   1.987   6.264 -0.2179 -0.6174 -0.4796
  119OSM    H2F12497   4.368   1.883   6.226  0.1384 -0.3182 -1.3968
  119OSM    H2G12498   4.481   2.019   6.252 -0.5275  0.4886 -0.3810
  119OSM    C3F12499   4.284   2.074   6.174 -0.3045  0.7950  0.4750
  119OSM    H3F12500   4.265   2.161   6.241 -0.0043  1.0736  0.2006
  119OSM    H3G12501   4.185   2.027   6.158 -1.0626  3.0422 -2.0831
  119OSM    C4F12502   4.346   2.119   6.036 -0.4273 -0.0943 -0.4292
  119OSM    H4F12503   4.444   2.169   6.054 -0.1425 -1.0585  0.8766
  119OSM    H4G12504   4.271   2.192   6.000 -0.1103  0.3721 -0.1566
  119OSM    C5F12505   4.354   2.008   5.929 -0.2059  0.1560 -0.1325
  119OSM    H5F12506   4.256   1.959   5.909  0.3678 -1.4816  0.8296
  119OSM    H5G12507   4.410   1.926   5.980 -1.8087 -1.1918 -0.4689
  119OSM    C6F12508   4.421   2.060   5.805 -0.3748  0.2265  0.1309
  119OSM    H6F12509   4.521   2.091   5.841 -1.5563  0.1789  3.9427
  119OSM    H6G12510   4.370   2.153   5.772  0.1151  0.7826  0.9088
  119OSM    C7F12511   4.441   1.954   5.693  0.0306  0.0466 -0.2731
  119OSM    H7F12512   4.390   1.858   5.719  1.0755 -1.3148 -2.9217
  119OSM    H7G12513   4.548   1.923   5.687 -0.1062 -0.5505  0.2445
  119OSM    C8F12514   4.424   1.992   5.545  0.4136 -0.2947 -0.5160
  119OSM    H8F12515   4.472   1.913   5.483  0.4122  0.5784 -1.6602
  119OSM    H8G12516   4.472   2.092   5.536 -0.4440  0.2996  0.9845
  119OSM    C9F12517   4.274   2.002   5.519  0.4029  0.5338 -0.8606
  119OSM    H9F12518   4.213   1.912   5.539 -3.1015  2.9539  0.3871
  119OSM   C10F12519   4.205   2.100   5.461  0.9949  0.2592  0.5521
  119OSM   H10F12520   4.098   2.088   5.439  0.6403  2.3758  0.8750
  119OSM   C11F12521   4.249   2.230   5.407 -0.7451 -0.1807  0.0173
  119OSM   H11F12522   4.358   2.244   5.419 -0.8686 -0.7620  2.3450
  119OSM   H11G12523   4.187   2.311   5.452 -0.4369  0.5328 -0.8124
  119OSM   C12F12524   4.226   2.247   5.253  0.1567 -0.1517  0.1446
  119OSM   H12F12525   4.271   2.164   5.194  0.1959  0.7054 -1.0456
  119OSM   H12G12526   4.269   2.339   5.210  0.0579 -0.3703 -0.4367
  119OSM   C13F12527   4.078   2.249   5.200 -0.5496 -1.1568  0.5474
  119OSM   H13F12528   4.035   2.342   5.243  1.8438 -0.1006  0.8331
  119OSM   H13G12529   4.016   2.165   5.239 -0.7805 -0.5217  1.5984
  119OSM   C14F12530   4.066   2.268   5.045  0.6738  0.2267  0.1807
  119OSM   H14F12531   4.147   2.211   4.996  0.9058  1.6574 -1.1682
  119OSM   H14G12532   4.089   2.375   5.029 -0.4603  0.4827  0.1307
  119OSM   C15F12533   3.936   2.229   4.970  0.2219  0.8221 -0.0974
  119OSM   H15F12534   3.857   2.303   4.994  0.3296  0.7274  0.5752
  119OSM   H15G12535   3.913   2.124   4.998  2.0689  1.0712  2.7613
  119OSM   C16F12536   3.960   2.222   4.817  0.4429 -0.0201 -0.4995
  119OSM   H16F12537   4.019   2.130   4.795  0.2429  0.0329 -1.2773
  119OSM   H16G12538   4.030   2.301   4.781 -1.2534  0.7377 -2.3282
  119OSM   C17F12539   3.833   2.241   4.727 -0.7597 -0.3106 -0.1794
  119OSM   H17F12540   3.868   2.259   4.624  0.4878 -1.0132  0.1040
  119OSM   H17G12541   3.780   2.335   4.754  1.3362  0.3538  2.0038
  119OSM   C18F12542   3.740   2.116   4.732 -0.1847 -0.5319 -0.7857
  119OSM   H18F12543   3.651   2.144   4.671 -1.4241  0.0490  1.2201
  119OSM   H18G12544   3.716   2.091   4.837 -1.1919  1.2352 -0.5615
  119OSM   H18H12545   3.789   2.026   4.687 -0.1571 -0.7105 -0.3962
  120OSM      N12546   5.582   0.801   7.510 -0.1467  0.0847  0.1143
  120OSM    C1512547   5.603   0.706   7.620 -0.3689 -0.7153 -0.1946
  120OSM   H15A12548   5.517   0.642   7.632  0.9209 -2.4199  0.4499
  120OSM   H15B12549   5.626   0.745   7.718 -1.4780 -1.3801  0.3422
  120OSM   H15C12550   5.690   0.646   7.595 -1.1782 -1.5556 -1.1301
  120OSM    C1412551   5.715   0.851   7.456 -0.0944  0.3837  0.1151
  120OSM   H14A12552   5.762   0.916   7.529  0.2963 -1.2714  1.4263
  120OSM   H14B12553   5.697   0.914   7.371 -0.0222 -0.1923 -0.3345
  120OSM   H14C12554   5.783   0.770   7.433  1.4611  0.9317  2.4496
  120OSM    C1312555   5.514   0.727   7.397  0.3178  0.4215  0.3544
  120OSM   H13A12556   5.407   0.737   7.409  0.1870  0.2409 -0.5944
  120OSM   H13B12557   5.532   0.620   7.404 -1.0352  0.1989  0.7817
  120OSM   H13C12558   5.555   0.763   7.304  1.1909 -0.2448  0.4651
  120OSM    C1212559   5.496   0.917   7.555 -0.0096 -0.1489  0.2633
  120OSM   H12A12560   5.469   0.975   7.468 -0.7739  0.6288  1.0010
  120OSM   H12B12561   5.549   0.983   7.622 -0.8209  2.2484 -1.3181
  120OSM    C1112562   5.362   0.879   7.617 -0.1332 -0.3872 -0.6187
  120OSM   H11A12563   5.313   0.958   7.678 -2.0804 -0.9948 -1.3470
  120OSM   H11B12564   5.379   0.807   7.700 -1.0581  0.0903 -0.0076
  120OSM      P12565   5.200   0.917   7.420 -0.2130 -0.0749  0.1907
  120OSM    O1312566   5.066   0.951   7.468  0.0265 -0.0224  0.3150
  120OSM    O1412567   5.293   1.025   7.386 -0.2891  0.1564  0.0558
  120OSM    O1112568   5.188   0.835   7.291 -0.4024 -0.1762 -0.3226
  120OSM    O1212569   5.269   0.823   7.519  0.3480  0.8463 -0.0562
  120OSM    C1S12570   5.133   0.885   7.168 -0.4501  0.6018  0.1632
  120OSM    H1S12571   5.128   0.996   7.167 -1.6759  0.5647 -0.1516
  120OSM    H1T12572   5.034   0.839   7.145  0.6973 -3.0198  1.8303
  120OSM     NF12573   5.176   0.885   6.918  0.2940 -0.2382 -0.1499
  120OSM    HNF12574   5.130   0.818   6.860  0.4033  1.2441 -2.0156
  120OSM    C2S12575   5.229   0.840   7.048  0.3460 -0.0441  0.2650
  120OSM    H2S12576   5.329   0.885   7.064  1.7435 -2.8878  0.0178
  120OSM    C3S12577   5.239   0.688   7.047 -0.0655 -0.0600  0.8179
  120OSM    H3S12578   5.134   0.650   7.043  0.0781 -0.4857  1.0716
  120OSM     O312579   5.306   0.638   7.163  0.2080  0.5449 -0.1934
  120OSM    HO312580   5.283   0.700   7.233  0.1841  1.0453 -0.6403
  120OSM    C4S12581   5.316   0.643   6.924 -0.0109  0.2455  0.4517
  120OSM    H4S12582   5.413   0.693   6.917  0.8706 -1.4371  0.0129
  120OSM    C5S12583   5.280   0.565   6.821  0.6868  0.1639 -0.1415
  120OSM    H5S12584   5.181   0.518   6.813  1.0433 -0.9187  1.3508
  120OSM    C6S12585   5.366   0.529   6.700  0.0640  0.2311  0.3742
  120OSM    H6S12586   5.376   0.419   6.692  2.3162  0.0222  4.0172
  120OSM    H6T12587   5.468   0.572   6.712 -0.2762  1.6149 -1.2476
  120OSM    C7S12588   5.305   0.573   6.565 -0.2988  0.5871 -0.1692
  120OSM    H7S12589   5.287   0.683   6.561 -1.1783  0.4611  0.2077
  120OSM    H7T12590   5.202   0.533   6.558 -0.1208  0.2937 -1.2696
  120OSM    C8S12591   5.396   0.555   6.442 -0.0679 -0.3786 -0.0374
  120OSM    H8S12592   5.430   0.449   6.441  4.2207  0.7828 -0.0315
  120OSM    H8T12593   5.490   0.615   6.437  0.6762 -1.3433  1.6053
  120OSM    C9S12594   5.310   0.574   6.316 -0.0173  0.7353  0.8644
  120OSM    H9S12595   5.256   0.671   6.325 -0.8161  0.3838  0.0546
  120OSM    H9T12596   5.240   0.488   6.309 -0.1410  0.9662 -2.0739
  120OSM   C10S12597   5.400   0.556   6.193 -0.0755 -0.1058  0.3481
  120OSM   H10S12598   5.440   0.457   6.163 -1.8143 -0.8947  0.5019
  120OSM   H10T12599   5.490   0.621   6.198 -1.0768  1.3185  0.3932
  120OSM   C11S12600   5.339   0.606   6.059  0.4548  1.3060  0.4915
  120OSM   H11S12601   5.289   0.705   6.066  1.3590  1.9371 -1.3697
  120OSM   H11T12602   5.252   0.544   6.029  0.8300  1.1841 -0.4109
  120OSM   C12S12603   5.442   0.598   5.944  0.6746 -0.3233 -0.7636
  120OSM   H12S12604   5.467   0.491   5.959 -0.5517 -0.2257  2.9612
  120OSM   H12T12605   5.531   0.663   5.957  2.1920 -2.6449  1.4609
  120OSM   C13S12606   5.387   0.623   5.807  0.7205 -0.3286  0.4204
  120OSM   H13S12607   5.328   0.717   5.814 -0.6595 -1.2756  2.7890
  120OSM   H13T12608   5.316   0.542   5.782  0.1507 -0.0130  0.9759
  120OSM   C14S12609   5.490   0.633   5.697 -0.6363  0.0797 -0.4587
  120OSM   H14S12610   5.532   0.530   5.700  0.7292  0.6315  1.4524
  120OSM   H14T12611   5.573   0.697   5.734 -0.4168 -0.0020 -0.8053
  120OSM   C15S12612   5.442   0.665   5.556  0.6113 -0.6303  0.3413
  120OSM   H15S12613   5.510   0.741   5.512 -0.9698  0.5776 -0.1419
  120OSM   H15T12614   5.345   0.720   5.562  0.6455 -0.6178  0.8149
  120OSM   C16S12615   5.425   0.547   5.459 -0.5277 -0.0801 -0.1790
  120OSM   H16S12616   5.354   0.473   5.503 -1.0037 -0.4883 -1.5801
  120OSM   H16T12617   5.522   0.499   5.431 -1.1086 -1.8280  0.6255
  120OSM   C17S12618   5.360   0.599   5.325 -0.4654 -0.4440  1.3973
  120OSM   H17S12619   5.411   0.690   5.289 -0.4540 -1.3427 -0.9984
  120OSM   H17T12620   5.254   0.624   5.346 -0.3901  0.6567  0.5098
  120OSM   C18S12621   5.369   0.500   5.210 -0.5932 -0.1897  0.7738
  120OSM   H18S12622   5.476   0.471   5.198 -0.3095  0.1553  2.2625
  120OSM   H18T12623   5.339   0.550   5.115  1.4371 -0.8493 -0.2637
  120OSM   H18U12624   5.314   0.404   5.224  2.2351 -2.0316  0.1147
  120OSM    C1F12625   5.170   1.013   6.890  0.3200  0.2175 -0.3205
  120OSM     OF12626   5.249   1.087   6.946  0.3547 -0.0576  0.3744
  120OSM    C2F12627   5.067   1.059   6.791  0.3561 -0.1703 -0.8887
  120OSM    H2F12628   5.023   0.973   6.736  1.0179 -0.3320 -1.1637
  120OSM    H2G12629   5.117   1.128   6.720  1.5273  1.2492  1.2030
  120OSM    C3F12630   4.955   1.131   6.856  0.7556 -0.5228  0.1718
  120OSM    H3F12631   4.983   1.238   6.869  1.0472 -0.6778  0.8595
  120OSM    H3G12632   4.934   1.084   6.955  1.1166  0.5090  0.7550
  120OSM    C4F12633   4.829   1.124   6.764  0.5594  0.0255 -0.3257
  120OSM    H4F12634   4.766   1.204   6.810 -0.8121 -0.1835 -1.7317
  120OSM    H4G12635   4.792   1.020   6.767  2.8564 -0.8176  1.4244
  120OSM    C5F12636   4.841   1.169   6.614 -0.4984 -0.8976  0.0053
  120OSM    H5F12637   4.737   1.169   6.576 -0.7819 -0.4018  0.7449
  120OSM    H5G12638   4.898   1.098   6.551  0.3267 -1.7591  1.6535
  120OSM    C6F12639   4.893   1.320   6.598 -0.1042  0.6356 -1.2362
  120OSM    H6F12640   5.003   1.315   6.608 -0.3534 -0.6249  2.6359
  120OSM    H6G12641   4.867   1.397   6.673  1.5994  1.4217 -1.4116
  120OSM    C7F12642   4.844   1.362   6.460 -0.1605 -0.4438 -0.0579
  120OSM    H7F12643   4.733   1.365   6.470 -0.1126 -1.6265  1.1154
  120OSM    H7G12644   4.863   1.274   6.394 -1.2180  1.4672 -3.1534
  120OSM    C8F12645   4.910   1.488   6.400  0.1493 -0.3298  0.0406
  120OSM    H8F12646   4.884   1.503   6.293  0.1048  0.8976  0.2086
  120OSM    H8G12647   5.021   1.486   6.401  0.1589  0.1608  0.3872
  120OSM    C9F12648   4.872   1.605   6.495  0.0352 -0.2877  0.6430
  120OSM    H9F12649   4.935   1.616   6.584 -0.1433 -1.0291  0.8673
  120OSM   C10F12650   4.763   1.683   6.484 -0.0440 -0.2676 -0.2775
  120OSM   H10F12651   4.755   1.769   6.553  0.6210  0.0079 -0.5335
  120OSM   C11F12652   4.665   1.686   6.375 -0.3354  0.1736  0.2407
  120OSM   H11F12653   4.568   1.699   6.427  0.7825  3.1396  1.8944
  120OSM   H11G12654   4.674   1.593   6.315 -0.0244 -0.7858  1.7317
  120OSM   C12F12655   4.664   1.811   6.284  0.1953  0.2031  0.1063
  120OSM   H12F12656   4.675   1.908   6.337 -1.2459  1.5906 -1.9248
  120OSM   H12G12657   4.562   1.816   6.241  0.5830  1.1073 -0.7513
  120OSM   C13F12658   4.776   1.812   6.178 -0.4272  0.3255 -0.4936
  120OSM   H13F12659   4.759   1.725   6.111 -1.0746  2.0619 -2.7311
  120OSM   H13G12660   4.875   1.800   6.227 -0.9464 -0.4955  0.3843
  120OSM   C14F12661   4.772   1.925   6.077  0.4033  0.2198 -0.2691
  120OSM   H14F12662   4.819   2.016   6.120  2.8168 -0.8999 -0.3584
  120OSM   H14G12663   4.668   1.949   6.047 -0.5976 -0.0092  2.7104
  120OSM   C15F12664   4.858   1.903   5.952  0.4810  0.7793  0.1960
  120OSM   H15F12665   4.843   1.806   5.900  0.6708  0.3485  0.9392
  120OSM   H15G12666   4.956   1.875   5.997  0.7136  0.0352 -0.7420
  120OSM   C16F12667   4.870   2.021   5.858 -0.4383 -0.5775  0.6265
  120OSM   H16F12668   4.876   2.118   5.911  0.1193 -0.3411  0.1401
  120OSM   H16G12669   4.776   2.035   5.801 -0.5731  2.6237  1.4229
  120OSM   C17F12670   4.989   1.992   5.764  0.0371  0.7139  0.2588
  120OSM   H17F12671   4.981   1.888   5.725  0.2747  0.7699  0.0577
  120OSM   H17G12672   5.084   2.016   5.816  0.1119 -2.9964  2.2532
  120OSM   C18F12673   4.985   2.077   5.634 -0.7157  0.0184  0.3289
  120OSM   H18F12674   4.975   2.186   5.654  5.0395  0.8667  0.3810
  120OSM   H18G12675   4.911   2.031   5.565  1.3165 -1.2898 -1.1086
  120OSM   H18H12676   5.079   2.074   5.574 -1.2135  2.4981 -0.7050
  121OSM      N12677   1.911   2.810   7.012 -0.2197  0.3039  0.5221
  121OSM    C1512678   1.877   2.867   6.882  0.0083  0.3277  0.5464
  121OSM   H15A12679   1.912   2.968   6.867  0.7258 -0.2989 -2.6997
  121OSM   H15B12680   1.770   2.866   6.870  0.0609 -2.7311 -0.4239
  121OSM   H15C12681   1.920   2.807   6.804 -2.2204 -0.4450 -0.1691
  121OSM    C1412682   2.055   2.801   7.014  0.8040  0.6007  0.5903
  121OSM   H14A12683   2.095   2.737   6.937 -1.4434 -1.3321  0.8906
  121OSM   H14B12684   2.080   2.754   7.108 -0.8281 -2.0940 -0.2278
  121OSM   H14C12685   2.097   2.900   7.012 -0.5281  1.1780 -0.9821
  121OSM    C1312686   1.852   2.895   7.119 -0.7352  0.2094  0.0209
  121OSM   H13A12687   1.899   2.989   7.093 -0.1574 -0.1315 -0.1811
  121OSM   H13B12688   1.887   2.859   7.215  1.5509  0.1019 -0.7813
  121OSM   H13C12689   1.747   2.915   7.106 -1.4505 -0.5581  3.5098
  121OSM    C1212690   1.843   2.676   7.026 -0.7411  0.3500 -0.4913
  121OSM   H12A12691   1.740   2.690   7.052 -0.4989 -1.1828  1.5711
  121OSM   H12B12692   1.875   2.628   7.118 -0.6834  1.4283  0.0595
  121OSM    C1112693   1.873   2.572   6.918  0.4042 -0.0619 -0.2319
  121OSM   H11A12694   1.847   2.612   6.818  0.6669 -0.7900 -0.6006
  121OSM   H11B12695   1.794   2.496   6.934 -1.1144  1.2846 -1.0156
  121OSM      P12696   2.037   2.381   6.991 -0.8382 -0.2162  0.0488
  121OSM    O1312697   2.179   2.363   6.995 -0.4950 -0.1011 -0.3446
  121OSM    O1412698   1.970   2.366   7.116  0.2090 -0.2376  0.6268
  121OSM    O1112699   1.981   2.277   6.890  0.1078  0.0212  0.3548
  121OSM    O1212700   2.005   2.523   6.928  0.2651  0.4121  0.3992
  121OSM    C1S12701   1.992   2.295   6.755 -0.3634 -0.9277 -0.0438
  121OSM    H1S12702   2.087   2.250   6.720 -0.7814 -1.2623 -0.7775
  121OSM    H1T12703   2.001   2.398   6.714 -1.1951 -1.6933 -2.3253
  121OSM     NF12704   1.885   2.243   6.535  0.1761  0.7209  0.1326
  121OSM    HNF12705   1.811   2.290   6.488 -0.2946 -0.0676  0.0636
  121OSM    C2S12706   1.875   2.227   6.676 -0.0496 -0.0928 -0.2322
  121OSM    H2S12707   1.898   2.120   6.693 -0.5943 -0.3527 -1.0854
  121OSM    C3S12708   1.738   2.265   6.745 -0.6435  0.3198 -0.0974
  121OSM    H3S12709   1.745   2.376   6.733 -0.0113  0.2195 -0.7036
  121OSM     O312710   1.723   2.236   6.880 -0.7036  0.2672  0.1479
  121OSM    HO312711   1.810   2.215   6.914 -0.8618  1.0433  1.0814
  121OSM    C4S12712   1.611   2.222   6.679  0.4851 -0.2388  0.7908
  121OSM    H4S12713   1.573   2.296   6.608  0.7996 -1.7783 -1.0747
  121OSM    C5S12714   1.540   2.109   6.692  0.0713  0.4984 -0.1712
  121OSM    H5S12715   1.583   2.031   6.756 -1.0648 -2.6075 -2.8745
  121OSM    C6S12716   1.407   2.067   6.619 -0.4682 -0.1746  0.1212
  121OSM    H6S12717   1.324   2.060   6.692  0.0368 -1.4821  0.5898
  121OSM    H6T12718   1.405   1.967   6.570 -1.9576 -0.0602 -0.1009
  121OSM    C7S12719   1.352   2.163   6.520 -0.1767 -0.7295  1.0688
  121OSM    H7S12720   1.339   2.264   6.566 -3.2905 -0.6491  0.2315
  121OSM    H7T12721   1.252   2.129   6.486  0.2828 -2.4910  1.3713
  121OSM    C8S12722   1.423   2.163   6.386  0.3493  0.6682  0.2042
  121OSM    H8S12723   1.400   2.067   6.336 -1.2652  1.5021 -0.7340
  121OSM    H8T12724   1.533   2.163   6.397  0.3855 -2.7039  1.1220
  121OSM    C9S12725   1.380   2.278   6.297  0.6681 -0.0986 -0.3875
  121OSM    H9S12726   1.402   2.371   6.354  1.4195  0.2716 -1.2707
  121OSM    H9T12727   1.272   2.293   6.275  0.4668 -1.0776 -0.1209
  121OSM   C10S12728   1.467   2.287   6.169  0.2507  0.8253  0.2317
  121OSM   H10S12729   1.562   2.235   6.192  0.1451 -0.6343 -2.2440
  121OSM   H10T12730   1.484   2.397   6.167 -0.7970  0.9842 -1.1234
  121OSM   C11S12731   1.385   2.243   6.043 -0.8563  0.3240 -0.1552
  121OSM   H11S12732   1.284   2.288   6.035 -0.8838  0.0630 -1.4233
  121OSM   H11T12733   1.357   2.136   6.055 -1.2592 -0.0061 -3.3106
  121OSM   C12S12734   1.456   2.275   5.917  0.0306  0.2513 -0.2753
  121OSM   H12S12735   1.543   2.208   5.899 -0.1604  0.1151 -0.7259
  121OSM   H12T12736   1.488   2.380   5.905 -0.4706  0.1619 -3.3031
  121OSM   C13S12737   1.357   2.236   5.802 -1.0158 -0.6982  0.2655
  121OSM   H13S12738   1.382   2.294   5.709 -0.9559 -2.7122 -1.0313
  121OSM   H13T12739   1.261   2.276   5.841 -0.2653  0.1381  1.3215
  121OSM   C14S12740   1.342   2.089   5.757  0.7225  0.5520 -0.0793
  121OSM   H14S12741   1.321   2.041   5.854  0.7244 -0.7588 -0.7042
  121OSM   H14T12742   1.439   2.052   5.715 -0.1844 -1.4619 -0.5079
  121OSM   C15S12743   1.218   2.076   5.668  0.3363 -0.0031 -0.1264
  121OSM   H15S12744   1.131   2.125   5.715 -1.5548 -1.3151 -2.0425
  121OSM   H15T12745   1.198   1.967   5.662  0.3229 -0.1124  1.5903
  121OSM   C16S12746   1.245   2.118   5.522  0.0626  0.3182 -0.3777
  121OSM   H16S12747   1.309   2.044   5.470  1.2804 -0.9419  2.7030
  121OSM   H16T12748   1.307   2.210   5.533  0.0087  0.0162  4.5545
  121OSM   C17S12749   1.115   2.152   5.438  0.0710  0.3847 -0.0779
  121OSM   H17S12750   1.066   2.241   5.484 -2.5778 -0.5489 -0.9266
  121OSM   H17T12751   1.053   2.060   5.434  1.6463 -0.6916 -0.1319
  121OSM   C18S12752   1.135   2.194   5.292  0.4735  0.1991  0.3387
  121OSM   H18S12753   1.188   2.291   5.298 -0.9905  1.3314 -2.8168
  121OSM   H18T12754   1.046   2.229   5.236  0.2202 -0.9134  0.0092
  121OSM   H18U12755   1.194   2.123   5.230 -1.8093 -0.1924 -1.5446
  121OSM    C1F12756   1.990   2.205   6.460 -0.1671  0.4347 -0.3119
  121OSM     OF12757   2.074   2.126   6.500 -0.0242  1.2326  0.1765
  121OSM    C2F12758   2.005   2.263   6.329 -0.5022  0.1945 -0.6750
  121OSM    H2F12759   1.918   2.331   6.316 -0.9255 -0.2138 -0.0489
  121OSM    H2G12760   2.007   2.187   6.249 -0.1340 -1.0122  0.4425
  121OSM    C3F12761   2.133   2.347   6.298  0.4027 -0.6334 -0.2168
  121OSM    H3F12762   2.220   2.287   6.334  0.7551  1.0675  1.9646
  121OSM    H3G12763   2.129   2.433   6.368 -0.0719 -0.7711 -0.0700
  121OSM    C4F12764   2.137   2.380   6.147  0.1710  0.0020  0.1554
  121OSM    H4F12765   2.041   2.428   6.118  1.1684  0.2996 -3.0240
  121OSM    H4G12766   2.156   2.289   6.087  2.3561  0.2879  0.3274
  121OSM    C5F12767   2.239   2.488   6.100 -0.3882  0.0589 -0.0569
  121OSM    H5F12768   2.203   2.585   6.141 -1.5378 -0.1474 -0.5370
  121OSM    H5G12769   2.226   2.502   5.991 -0.9175  0.3651  0.0437
  121OSM    C6F12770   2.381   2.456   6.143  0.1208 -0.4696  0.0007
  121OSM    H6F12771   2.407   2.362   6.089 -0.7130 -0.9514  0.4126
  121OSM    H6G12772   2.388   2.455   6.254  0.9224  0.2083 -0.0373
  121OSM    C7F12773   2.489   2.555   6.102 -0.1653  0.1274 -0.3642
  121OSM    H7F12774   2.527   2.536   6.000 -1.4862  0.2418 -0.9001
  121OSM    H7G12775   2.572   2.524   6.169 -1.0783 -1.3741  0.1252
  121OSM    C8F12776   2.448   2.706   6.122  0.2286 -0.2913  0.4225
  121OSM    H8F12777   2.420   2.715   6.230 -0.7531 -2.7632  0.4384
  121OSM    H8G12778   2.355   2.737   6.071  0.6107  0.9935  0.4712
  121OSM    C9F12779   2.566   2.796   6.079  0.5661 -0.4852 -0.1986
  121OSM    H9F12780   2.657   2.792   6.141  2.5861  2.2157 -2.6793
  121OSM   C10F12781   2.571   2.865   5.965  0.4000 -0.4678 -0.1801
  121OSM   H10F12782   2.664   2.920   5.944  0.6338 -0.8476 -0.1423
  121OSM   C11F12783   2.470   2.864   5.855 -0.0112  0.4404  0.3830
  121OSM   H11F12784   2.371   2.892   5.898 -0.9570 -0.7582 -0.8865
  121OSM   H11G12785   2.459   2.764   5.807  1.4544  0.6104 -0.3483
  121OSM   C12F12786   2.492   2.963   5.747 -0.5163 -0.1119 -0.1117
  121OSM   H12F12787   2.514   3.060   5.797  0.2714  0.1588 -0.9424
  121OSM   H12G12788   2.402   2.980   5.685  0.2808 -1.3839 -1.6842
  121OSM   C13F12789   2.592   2.921   5.646 -1.2108 -0.3305  0.7485
  121OSM   H13F12790   2.548   2.840   5.583 -0.3829 -1.0493  1.0695
  121OSM   H13G12791   2.688   2.894   5.695 -0.8443 -0.9267 -0.2547
  121OSM   C14F12792   2.626   3.039   5.550  0.1735 -0.1920 -0.1852
  121OSM   H14F12793   2.637   3.128   5.615 -0.0688 -1.4168  1.6350
  121OSM   H14G12794   2.541   3.070   5.486 -2.2685 -3.7726  0.9860
  121OSM   C15F12795   2.753   3.015   5.476 -0.9015  0.4817  1.1333
  121OSM   H15F12796   2.750   2.932   5.402  0.4781  1.0452  0.4065
  121OSM   H15G12797   2.837   2.994   5.546  1.0434 -0.1796 -1.2469
  121OSM   C16F12798   2.807   3.141   5.398  0.7819  0.2964 -0.8707
  121OSM   H16F12799   2.769   3.222   5.464  2.0489 -0.3858  0.7579
  121OSM   H16G12800   2.747   3.141   5.304 -0.6251  0.9335 -0.0079
  121OSM   C17F12801   2.953   3.146   5.371  0.4647 -0.0675  0.2088
  121OSM   H17F12802   2.976   3.063   5.300  0.9399 -0.7839  1.1819
  121OSM   H17G12803   3.001   3.143   5.471 -0.1101 -1.2713  0.4686
  121OSM   C18F12804   2.997   3.273   5.304  0.1677 -0.0004  1.1957
  121OSM   H18F12805   3.108   3.271   5.315  0.4635 -2.0529 -1.2765
  121OSM   H18G12806   2.950   3.358   5.358  1.3734  1.7511 -0.3422
  121OSM   H18H12807   2.970   3.282   5.197  1.5786  1.5293  0.9317
  122OSM      N12808   6.756   0.076   7.304  0.1555 -0.1549 -0.8337
  122OSM    C1512809   6.790   0.163   7.197  0.9728  0.5133 -0.5430
  122OSM   H15A12810   6.758   0.117   7.105  2.0356 -2.1579  0.3223
  122OSM   H15B12811   6.896   0.180   7.195  1.3901 -1.4240  1.2820
  122OSM   H15C12812   6.729   0.252   7.199  1.4927  0.8834 -0.9212
  122OSM    C1412813   6.820  -0.063   7.285  1.2191 -0.0634 -0.1938
  122OSM   H14A12814   6.777  -0.114   7.200 -0.8402  2.6860 -0.9783
  122OSM   H14B12815   6.797  -0.124   7.371 -0.7187 -1.7016 -1.7693
  122OSM   H14C12816   6.926  -0.057   7.263  0.8028 -0.4219 -2.5956
  122OSM    C1312817   6.818   0.141   7.429 -0.8925  0.4898  0.0164
  122OSM   H13A12818   6.809   0.248   7.439 -3.5493  0.4969 -1.4759
  122OSM   H13B12819   6.923   0.118   7.431 -0.7410  1.0065 -1.0182
  122OSM   H13C12820   6.786   0.094   7.520  0.6310 -1.4088 -0.3607
  122OSM    C1212821   6.613   0.054   7.329  0.2940 -0.3284  0.7103
  122OSM   H12A12822   6.608   0.006   7.425  0.7323 -0.0607  0.8702
  122OSM   H12B12823   6.574  -0.003   7.246  2.8404  0.3091 -1.0581
  122OSM    C1112824   6.518   0.178   7.352  1.0519  0.7610  0.0694
  122OSM   H11A12825   6.552   0.230   7.444 -2.3554 -1.5623  2.8986
  122OSM   H11B12826   6.418   0.135   7.377  1.0113  1.3130  0.8795
  122OSM      P12827   6.490   0.407   7.233  0.3012 -0.0263 -0.6978
  122OSM    O1312828   6.351   0.444   7.280 -0.2206 -0.0573 -0.0566
  122OSM    O1412829   6.602   0.470   7.304  0.2218 -0.6173  0.3834
  122OSM    O1112830   6.497   0.448   7.082  0.9216  0.2817  0.2354
  122OSM    O1212831   6.512   0.257   7.232 -0.3271  0.5262  0.2487
  122OSM    C1S12832   6.595   0.411   6.985 -0.2155  0.2399 -0.1718
  122OSM    H1S12833   6.599   0.300   6.981  0.4088  0.0190  3.4075
  122OSM    H1T12834   6.694   0.458   7.004  0.3131  0.1316 -2.3814
  122OSM     NF12835   6.630   0.412   6.742  0.6356  0.3611 -0.1391
  122OSM    HNF12836   6.701   0.476   6.714 -2.6210  3.1350 -3.1615
  122OSM    C2S12837   6.542   0.466   6.849 -0.3710 -0.3999  0.0940
  122OSM    H2S12838   6.436   0.433   6.834 -0.7016 -0.9570  3.0221
  122OSM    C3S12839   6.542   0.628   6.853  0.3960  0.6361  0.3006
  122OSM    H3S12840   6.647   0.661   6.871  0.7503 -0.3778  0.1428
  122OSM     O312841   6.467   0.670   6.964 -0.4632  0.0821 -0.2186
  122OSM    HO312842   6.443   0.589   7.011 -0.8570  0.8279  0.9173
  122OSM    C4S12843   6.490   0.686   6.726  0.3247 -0.6265  0.5443
  122OSM    H4S12844   6.566   0.732   6.660  0.5624 -2.2799 -0.3810
  122OSM    C5S12845   6.361   0.713   6.684  0.5593 -0.3117 -0.0903
  122OSM    H5S12846   6.278   0.674   6.744 -0.8623 -1.4866 -2.6207
  122OSM    C6S12847   6.335   0.786   6.560  0.6142  0.0334  0.0721
  122OSM    H6S12848   6.434   0.803   6.513  0.8872 -2.3772 -0.3615
  122OSM    H6T12849   6.287   0.882   6.589 -0.1199 -0.4562  0.5067
  122OSM    C7S12850   6.247   0.713   6.454 -0.2041  0.0863  0.3039
  122OSM    H7S12851   6.146   0.685   6.493 -1.0172  2.9798  0.4640
  122OSM    H7T12852   6.298   0.617   6.431 -0.5967  0.1757 -1.0219
  122OSM    C8S12853   6.231   0.803   6.340 -0.3165 -0.2404  0.0122
  122OSM    H8S12854   6.310   0.880   6.326  0.2355 -0.7952  0.0585
  122OSM    H8T12855   6.136   0.861   6.344 -1.0655 -1.3973 -0.4440
  122OSM    C9S12856   6.228   0.733   6.202  0.0832 -0.3705 -0.4767
  122OSM    H9S12857   6.137   0.670   6.196  0.6100 -1.1184 -0.7342
  122OSM    H9T12858   6.312   0.660   6.199 -0.4180 -0.9889  0.3296
  122OSM   C10S12859   6.252   0.815   6.076 -0.3448 -0.4016  0.0058
  122OSM   H10S12860   6.357   0.850   6.086 -0.4848 -0.1395  0.6959
  122OSM   H10T12861   6.175   0.896   6.075  0.0917  0.0121 -1.0591
  122OSM   C11S12862   6.249   0.724   5.956 -0.5262  0.5619 -0.6968
  122OSM   H11S12863   6.151   0.671   5.953 -0.7272  0.6436  2.1950
  122OSM   H11T12864   6.331   0.650   5.957 -1.0640 -0.0468 -0.2071
  122OSM   C12S12865   6.255   0.799   5.822  0.0300 -0.5202  0.1531
  122OSM   H12S12866   6.350   0.856   5.826  0.8092 -1.8212  0.6318
  122OSM   H12T12867   6.179   0.879   5.807  0.0057 -0.6984 -0.7115
  122OSM   C13S12868   6.266   0.710   5.694 -0.1931 -0.2342 -0.1631
  122OSM   H13S12869   6.179   0.642   5.688 -1.0290  0.8309 -0.5316
  122OSM   H13T12870   6.352   0.642   5.713  0.3214  0.2452 -0.7083
  122OSM   C14S12871   6.267   0.803   5.568  0.1055 -0.6606 -0.3997
  122OSM   H14S12872   6.355   0.870   5.577 -1.8704  2.1106 -0.4028
  122OSM   H14T12873   6.180   0.870   5.585  2.0279  1.4693  1.7786
  122OSM   C15S12874   6.263   0.718   5.444 -0.7107 -0.0751  0.8124
  122OSM   H15S12875   6.186   0.639   5.461 -0.2198 -0.9638 -0.8381
  122OSM   H15T12876   6.360   0.667   5.431  1.2996  3.4444  0.7488
  122OSM   C16S12877   6.223   0.799   5.321  0.1757 -0.2769  0.1742
  122OSM   H16S12878   6.114   0.786   5.306  0.3837 -1.8164 -0.1688
  122OSM   H16T12879   6.258   0.748   5.228  0.7779  1.3052 -0.4959
  122OSM   C17S12880   6.278   0.942   5.320  0.1822 -0.5375 -0.4642
  122OSM   H17S12881   6.388   0.932   5.313  0.1543 -0.6832 -0.7300
  122OSM   H17T12882   6.253   0.992   5.416  0.0085 -1.2556 -0.1223
  122OSM   C18S12883   6.232   1.012   5.191  0.4292  0.8807  0.3649
  122OSM   H18S12884   6.273   0.969   5.097  1.8406  1.9715  0.4399
  122OSM   H18T12885   6.268   1.117   5.197  0.3326  1.0551 -1.4061
  122OSM   H18U12886   6.122   1.015   5.178  0.6661  1.7343 -1.9625
  122OSM    C1F12887   6.647   0.291   6.708 -0.2274 -0.2707  0.1444
  122OSM     OF12888   6.569   0.203   6.751  0.1220 -0.3019 -0.1848
  122OSM    C2F12889   6.768   0.244   6.622  0.5390 -0.0443 -0.1061
  122OSM    H2F12890   6.816   0.164   6.682 -0.1156 -1.1522 -1.0191
  122OSM    H2G12891   6.838   0.329   6.608  0.6317 -0.2702 -1.0967
  122OSM    C3F12892   6.727   0.201   6.478  0.2021 -0.1364  0.3629
  122OSM    H3F12893   6.655   0.116   6.486 -0.5176  0.5118  0.9992
  122OSM    H3G12894   6.821   0.174   6.427  1.2562 -0.1078  2.1991
  122OSM    C4F12895   6.646   0.306   6.402  0.0479 -0.0702  1.1134
  122OSM    H4F12896   6.709   0.398   6.403 -0.9033  0.6222 -0.1679
  122OSM    H4G12897   6.547   0.336   6.444  0.0357 -0.2462  1.2125
  122OSM    C5F12898   6.625   0.262   6.254  0.3015 -0.2576 -0.1734
  122OSM    H5F12899   6.724   0.247   6.207  0.3503  0.2262 -0.2303
  122OSM    H5G12900   6.561   0.332   6.197  1.8384 -1.0454 -3.0399
  122OSM    C6F12901   6.559   0.133   6.242 -0.5004 -0.2977 -0.1962
  122OSM    H6F12902   6.467   0.137   6.304 -1.5579  1.6209 -1.7772
  122OSM    H6G12903   6.620   0.050   6.283  0.6259 -1.2232 -3.4457
  122OSM    C7F12904   6.510   0.092   6.102  0.3243 -0.3659 -0.1324
  122OSM    H7F12905   6.490   0.182   6.041 -3.4595 -0.4781  0.7357
  122OSM    H7G12906   6.410   0.046   6.116 -0.8732  2.2696  0.6012
  122OSM    C8F12907   6.595  -0.012   6.034 -0.2252 -0.5734 -0.0061
  122OSM    H8F12908   6.530  -0.082   5.977 -0.1446  0.1616 -1.0249
  122OSM    H8G12909   6.628  -0.084   6.112 -1.1443 -0.4653  0.4942
  122OSM    C9F12910   6.709   0.044   5.955 -1.0039  0.8501  0.7105
  122OSM    H9F12911   6.779   0.101   6.017  0.4329 -2.7118  2.6212
  122OSM   C10F12912   6.750   0.005   5.835 -0.1043  0.2495 -0.2013
  122OSM   H10F12913   6.835   0.056   5.788  0.6202 -2.0467 -1.5527
  122OSM   C11F12914   6.682  -0.090   5.734  0.6857 -0.6867  0.5727
  122OSM   H11F12915   6.599  -0.147   5.781 -0.4258 -0.6851 -1.2944
  122OSM   H11G12916   6.753  -0.175   5.717 -0.8531 -1.7991 -0.5548
  122OSM   C12F12917   6.635  -0.030   5.609 -0.2338  0.0202  0.7936
  122OSM   H12F12918   6.719   0.011   5.550 -0.6664  0.0135  0.1624
  122OSM   H12G12919   6.554   0.040   5.639  0.7080  1.1629  0.7377
  122OSM   C13F12920   6.559  -0.130   5.515  0.2162  0.5861 -0.0091
  122OSM   H13F12921   6.483  -0.182   5.577  0.4745 -1.8780 -1.6096
  122OSM   H13G12922   6.628  -0.205   5.470 -0.2183  0.8386 -1.1390
  122OSM   C14F12923   6.484  -0.052   5.402 -0.3503  0.9470  0.3126
  122OSM   H14F12924   6.549   0.028   5.361  0.5051 -0.3273 -0.8935
  122OSM   H14G12925   6.404   0.017   5.437 -3.5261 -1.4727 -1.5535
  122OSM   C15F12926   6.425  -0.147   5.299  0.0910 -0.3870  0.8006
  122OSM   H15F12927   6.354  -0.221   5.342  2.0406 -2.3682  0.7928
  122OSM   H15G12928   6.507  -0.206   5.254 -0.2845 -1.7560  1.8087
  122OSM   C16F12929   6.358  -0.074   5.186  0.3052  0.1927  0.2156
  122OSM   H16F12930   6.436  -0.005   5.145 -0.6307  0.5315 -1.0355
  122OSM   H16G12931   6.281  -0.012   5.237 -0.0689 -0.5459  0.5491
  122OSM   C17F12932   6.298  -0.158   5.074  0.6193 -0.3937  0.1012
  122OSM   H17F12933   6.231  -0.232   5.123  0.9804  0.2572  1.6628
  122OSM   H17G12934   6.367  -0.216   5.010 -0.4903 -0.6162 -0.9212
  122OSM   C18F12935   6.204  -0.073   4.982  0.1356  0.3455  0.3055
  122OSM   H18F12936   6.120  -0.030   5.041 -0.7364 -1.7168  0.6799
  122OSM   H18G12937   6.164  -0.147   4.910  1.2703 -0.9005  0.8935
  122OSM   H18H12938   6.259  -0.003   4.916 -1.2256 -1.4806 -2.9571
  123OSM      N12939   4.997   5.566   2.421  0.2773  0.3728 -0.1354
  123OSM    C1512940   4.921   5.671   2.339 -0.5779  1.2807  0.2273
  123OSM   H15A12941   4.816   5.644   2.335 -0.1964 -0.2673 -0.3241
  123OSM   H15B12942   4.964   5.662   2.240 -0.7570 -0.2926  0.2660
  123OSM   H15C12943   4.935   5.772   2.373  0.6338  1.8075 -1.7050
  123OSM    C1412944   4.981   5.430   2.351 -0.3078  0.5208 -0.3718
  123OSM   H14A12945   4.879   5.397   2.367 -0.9421  2.8086  0.6569
  123OSM   H14B12946   5.040   5.356   2.404 -1.2597  0.9044  1.2846
  123OSM   H14C12947   5.005   5.427   2.246 -1.2035  1.3422 -0.6069
  123OSM    C1312948   5.141   5.598   2.424  0.4197 -0.4524 -0.6173
  123OSM   H13A12949   5.200   5.524   2.477 -1.8724 -1.0478  1.2863
  123OSM   H13B12950   5.163   5.691   2.474 -1.4203  0.2958 -1.1207
  123OSM   H13C12951   5.185   5.589   2.325  1.9528 -1.1726  0.1042
  123OSM    C1212952   4.940   5.559   2.565  0.8483 -0.1904  0.4272
  123OSM   H12A12953   4.938   5.660   2.604  0.1589  0.2944 -0.8215
  123OSM   H12B12954   5.006   5.515   2.638  0.4435  2.0175  2.2508
  123OSM    C1112955   4.795   5.505   2.580 -0.1347 -0.6662  0.3753
  123OSM   H11A12956   4.765   5.486   2.685 -0.8264 -1.6991 -0.0003
  123OSM   H11B12957   4.795   5.408   2.527 -1.7343 -0.6824  0.3571
  123OSM      P12958   4.542   5.596   2.553 -0.4258 -0.7699  0.1616
  123OSM    O1312959   4.491   5.734   2.527  0.0906 -0.1546  0.8297
  123OSM    O1412960   4.473   5.483   2.494  0.5080  0.0247 -0.2501
  123OSM    O1112961   4.557   5.580   2.712 -0.0868  0.0375  0.1766
  123OSM    O1212962   4.695   5.589   2.508 -0.5447 -0.2661 -0.0836
  123OSM    C1S12963   4.433   5.565   2.790  0.2259 -0.0081 -0.3988
  123OSM    H1S12964   4.364   5.488   2.750 -0.3368  0.5048 -0.4231
  123OSM    H1T12965   4.375   5.659   2.793  0.5443  0.1823  2.5456
  123OSM     NF12966   4.359   5.495   3.005 -0.4129 -0.4732  0.1989
  123OSM    HNF12967   4.325   5.568   3.064 -0.7606 -0.4886  0.0222
  123OSM    C2S12968   4.480   5.517   2.930 -0.2201  0.0107 -0.4620
  123OSM    H2S12969   4.532   5.421   2.911  0.4658  0.3679 -0.4322
  123OSM    C3S12970   4.585   5.614   3.000 -0.2676  0.1093 -0.6622
  123OSM    H3S12971   4.524   5.706   3.005 -0.8235 -0.1513 -2.1633
  123OSM     O312972   4.699   5.649   2.926  0.5752  0.1148  0.1026
  123OSM    HO312973   4.676   5.640   2.833  0.7759  1.0807 -0.0509
  123OSM    C4S12974   4.629   5.557   3.131  0.9906  0.4525  0.0143
  123OSM    H4S12975   4.639   5.447   3.131  0.8730  0.4241  1.3776
  123OSM    C5S12976   4.646   5.631   3.241 -0.5119 -0.4093  0.7411
  123OSM    H5S12977   4.630   5.739   3.235  2.8479  0.1204 -0.7205
  123OSM    C6S12978   4.687   5.566   3.368 -0.1096  0.2417  0.4073
  123OSM    H6S12979   4.603   5.512   3.418 -0.8106  1.0490  0.1350
  123OSM    H6T12980   4.731   5.643   3.435 -0.0190  0.3683  0.2028
  123OSM    C7S12981   4.812   5.477   3.349 -0.5215 -0.4116  0.3132
  123OSM    H7S12982   4.897   5.530   3.301  0.2157 -0.7980  1.1709
  123OSM    H7T12983   4.791   5.381   3.296 -0.7108 -1.5274  2.2901
  123OSM    C8S12984   4.873   5.446   3.490 -0.3254 -0.3091  0.2144
  123OSM    H8S12985   4.889   5.526   3.566 -1.2960 -1.4187  1.6376
  123OSM    H8T12986   4.974   5.411   3.462 -0.1801 -0.5974  1.0787
  123OSM    C9S12987   4.793   5.343   3.569 -0.1778  0.8279 -0.3487
  123OSM    H9S12988   4.790   5.253   3.503  4.3455  0.8131 -0.8524
  123OSM    H9T12989   4.692   5.386   3.582 -1.0729 -1.0292 -0.7624
  123OSM   C10S12990   4.862   5.308   3.701  0.7217  0.8961  1.0321
  123OSM   H10S12991   4.963   5.283   3.662  0.6095  2.8941 -0.6835
  123OSM   H10T12992   4.823   5.210   3.735  0.0860  0.3391 -1.1367
  123OSM   C11S12993   4.865   5.416   3.804  0.3045  0.8052 -0.5209
  123OSM   H11S12994   4.782   5.487   3.781 -2.3013 -1.5374  1.1397
  123OSM   H11T12995   4.964   5.468   3.802  2.9408 -3.6839  0.4308
  123OSM   C12S12996   4.845   5.363   3.948  0.3135 -0.1772 -0.1417
  123OSM   H12S12997   4.933   5.298   3.968  2.3689  1.7807 -2.0983
  123OSM   H12T12998   4.746   5.312   3.947  1.2821 -2.1799  0.2234
  123OSM   C13S12999   4.848   5.475   4.054  0.3115  0.3251 -0.0100
  123OSM   H13S13000   4.771   5.551   4.031  0.6055  0.4162 -0.7139
  123OSM   H13T13001   4.945   5.529   4.055 -0.8114  2.5048  2.1281
  123OSM   C14S13002   4.838   5.408   4.195 -0.3877 -0.1344  0.4447
  123OSM   H14S13003   4.755   5.335   4.200  0.4347 -1.1030  0.3022
  123OSM   H14T13004   4.810   5.497   4.255  1.4294  1.4790 -0.9585
  123OSM   C15S13005   4.973   5.349   4.240 -0.2364  1.0958  0.3844
  123OSM   H15S13006   5.042   5.435   4.231 -1.2891  1.8084 -1.3181
  123OSM   H15T13007   5.002   5.265   4.173 -1.4609  0.7501  0.2699
  123OSM   C16S13008   4.991   5.310   4.392  0.3135  0.6691  0.1800
  123OSM   H16S13009   5.096   5.275   4.399  0.1682  0.3027  0.5616
  123OSM   H16T13010   4.934   5.218   4.418  1.7343  0.1587  1.6267
  123OSM   C17S13011   4.958   5.423   4.484 -0.6367  0.1338  0.1232
  123OSM   H17S13012   4.976   5.376   4.583  1.2413 -0.6087 -0.5202
  123OSM   H17T13013   4.856   5.454   4.454 -0.5653 -0.4805 -0.7884
  123OSM   C18S13014   5.044   5.549   4.466  0.2648 -0.5445  0.5633
  123OSM   H18S13015   5.151   5.532   4.443  0.5781 -0.1299  1.6701
  123OSM   H18T13016   5.031   5.614   4.555  0.3794 -0.2626  0.3753
  123OSM   H18U13017   5.021   5.611   4.376 -0.4694 -3.4448 -1.3980
  123OSM    C1F13018   4.272   5.397   2.985  0.0293  0.2546  0.3922
  123OSM     OF13019   4.304   5.298   2.922  0.0103 -0.5779 -0.1677
  123OSM    C2F13020   4.140   5.398   3.045 -0.4241  0.4682  0.3245
  123OSM    H2F13021   4.058   5.363   2.978 -0.4855  1.8506 -0.3594
  123OSM    H2G13022   4.116   5.496   3.092  1.7422  1.7810 -1.1304
  123OSM    C3F13023   4.139   5.305   3.161 -0.4635  0.4795  0.6331
  123OSM    H3F13024   4.198   5.337   3.249 -1.0942 -1.6206  1.8790
  123OSM    H3G13025   4.180   5.205   3.133 -1.2721  0.3909 -0.2712
  123OSM    C4F13026   3.992   5.262   3.212 -0.2118 -0.1956 -0.1312
  123OSM    H4F13027   3.932   5.238   3.121 -0.0008 -1.9929  0.1729
  123OSM    H4G13028   3.958   5.359   3.255 -1.2663 -0.1347 -1.0537
  123OSM    C5F13029   4.006   5.158   3.315 -0.0124  0.2591 -0.1565
  123OSM    H5F13030   4.108   5.126   3.346  0.3376  1.0860 -0.4090
  123OSM    H5G13031   3.965   5.066   3.270  0.0319  0.8960 -1.5396
  123OSM    C6F13032   3.923   5.193   3.442 -0.5158  0.1429  0.0440
  123OSM    H6F13033   3.899   5.100   3.498 -0.0718  0.3208  0.5358
  123OSM    H6G13034   3.837   5.252   3.404  1.2116  1.3802 -2.1426
  123OSM    C7F13035   4.001   5.296   3.530 -0.3239  0.2701 -0.3851
  123OSM    H7F13036   4.030   5.385   3.470  1.3039  0.7160  1.0017
  123OSM    H7G13037   4.102   5.257   3.553  0.1168  0.6796 -1.5481
  123OSM    C8F13038   3.930   5.339   3.656 -0.4695  0.3125 -0.3720
  123OSM    H8F13039   3.904   5.252   3.720  3.0946 -0.5488  0.1083
  123OSM    H8G13040   3.833   5.388   3.631 -1.4112 -1.5216 -0.4757
  123OSM    C9F13041   4.021   5.428   3.739 -0.4992  0.0096  0.8376
  123OSM    H9F13042   4.098   5.482   3.681  0.3574  0.1579  2.0800
  123OSM   C10F13043   4.021   5.452   3.864  0.0663 -0.2592 -0.1954
  123OSM   H10F13044   4.097   5.524   3.898 -0.3634 -0.2129  0.7017
  123OSM   C11F13045   3.944   5.379   3.967  0.6600 -0.0651  0.0455
  123OSM   H11F13046   3.905   5.285   3.923  0.0045  0.8232 -1.3492
  123OSM   H11G13047   3.851   5.429   4.002  1.5192  0.4548  1.7043
  123OSM   C12F13048   4.036   5.368   4.085  0.5706  0.0357 -0.7453
  123OSM   H12F13049   4.057   5.473   4.116  2.2129 -0.8340  1.4288
  123OSM   H12G13050   4.134   5.319   4.063  1.0210  1.2735 -1.6736
  123OSM   C13F13051   3.980   5.299   4.210 -0.3880  0.3647 -0.0604
  123OSM   H13F13052   3.966   5.191   4.186 -1.4029 -0.1346  2.4506
  123OSM   H13G13053   3.877   5.341   4.213 -1.0550 -1.2867  1.5209
  123OSM   C14F13054   4.063   5.334   4.334  0.1929  0.2964  0.6205
  123OSM   H14F13055   4.062   5.445   4.340 -0.8308  0.3325  0.1567
  123OSM   H14G13056   4.166   5.294   4.327 -0.1811 -0.9889  1.9275
  123OSM   C15F13057   3.999   5.271   4.454 -0.5466  0.1256  0.2805
  123OSM   H15F13058   3.961   5.171   4.427 -0.3558  0.2438 -0.4435
  123OSM   H15G13059   3.915   5.332   4.494  0.9849  2.3653  0.3325
  123OSM   C16F13060   4.102   5.248   4.570 -0.2625  0.6553  0.3897
  123OSM   H16F13061   4.190   5.315   4.571 -0.0455  0.3687  1.1066
  123OSM   H16G13062   4.159   5.153   4.556 -1.7367 -0.4108  1.3061
  123OSM   C17F13063   4.039   5.249   4.705  0.8262  0.5136  0.4525
  123OSM   H17F13064   3.956   5.177   4.721 -0.8448  2.0478 -1.0104
  123OSM   H17G13065   3.983   5.343   4.722 -0.9149 -0.9384  3.8593
  123OSM   C18F13066   4.134   5.241   4.830  0.8526 -0.2731 -0.2315
  123OSM   H18F13067   4.082   5.234   4.928  2.6475  1.5923  0.9437
  123OSM   H18G13068   4.185   5.339   4.833  0.4360 -0.0143 -1.2317
  123OSM   H18H13069   4.217   5.167   4.833  1.3693  0.2994  2.8057
  124OSM      N13070   5.992   6.437   2.654  0.2722  0.1336  0.2937
  124OSM    C1513071   5.931   6.298   2.660  0.0403 -0.8842  0.2134
  124OSM   H15A13072   5.886   6.270   2.754  1.1588 -0.6332  0.8413
  124OSM   H15B13073   6.018   6.236   2.651  2.2628  2.0019  0.4117
  124OSM   H15C13074   5.857   6.293   2.581 -0.7956  1.4147  0.7458
  124OSM    C1413075   6.118   6.459   2.729  0.4333 -0.1358 -0.2337
  124OSM   H14A13076   6.118   6.424   2.831  2.0418  0.9929  0.1947
  124OSM   H14B13077   6.138   6.565   2.739  2.2974 -0.4338 -0.4499
  124OSM   H14C13078   6.202   6.407   2.684  2.3151  0.8096  1.9810
  124OSM    C1313079   6.021   6.456   2.504  0.6124  0.2284  0.0116
  124OSM   H13A13080   5.934   6.470   2.442  0.2620 -1.2352  0.1344
  124OSM   H13B13081   6.080   6.370   2.473  0.2222  0.1364 -0.4917
  124OSM   H13C13082   6.078   6.547   2.489  1.5914 -0.3033  0.3734
  124OSM    C1213083   5.897   6.535   2.717 -0.1013  0.1578  0.4031
  124OSM   H12A13084   5.921   6.638   2.696 -2.9126  1.1951  1.7507
  124OSM   H12B13085   5.895   6.526   2.825  0.1629  0.2670  0.4166
  124OSM    C1113086   5.746   6.520   2.664 -0.5926 -0.6702  1.1013
  124OSM   H11A13087   5.686   6.582   2.735 -2.4869 -2.6895  1.3784
  124OSM   H11B13088   5.702   6.419   2.679 -0.1084 -0.9053  0.9656
  124OSM      P13089   5.654   6.701   2.486 -0.2153 -0.2390  0.5050
  124OSM    O1313090   5.743   6.759   2.380  0.1721  0.6264 -0.2994
  124OSM    O1413091   5.513   6.659   2.454  0.2663  0.4456 -0.6630
  124OSM    O1113092   5.654   6.792   2.615 -0.5225  0.4887 -0.2409
  124OSM    O1213093   5.735   6.570   2.527  0.6645 -0.3571 -0.1283
  124OSM    C1S13094   5.556   6.890   2.651  0.3198 -0.2919 -0.0815
  124OSM    H1S13095   5.464   6.877   2.591 -0.0302  0.6489  0.2294
  124OSM    H1T13096   5.600   6.990   2.629  0.2409  0.1101  1.4670
  124OSM     NF13097   5.390   6.943   2.848 -0.2276  0.7726 -0.2335
  124OSM    HNF13098   5.417   7.016   2.911  0.3225 -0.8306  1.4631
  124OSM    C2S13099   5.518   6.875   2.810  0.6455  0.7090  0.3345
  124OSM    H2S13100   5.500   6.767   2.824  0.7334  0.8460  1.6974
  124OSM    C3S13101   5.641   6.907   2.892  0.1036 -0.2698 -0.0365
  124OSM    H3S13102   5.660   7.015   2.874 -1.1923 -0.3086 -1.9459
  124OSM     O313103   5.761   6.844   2.843  0.2856 -0.8061  0.4464
  124OSM    HO313104   5.725   6.817   2.758 -1.6895  0.5763  0.7872
  124OSM    C4S13105   5.626   6.879   3.042  0.1575 -0.4955  0.3521
  124OSM    H4S13106   5.565   6.789   3.061  0.3423 -0.8592 -0.6842
  124OSM    C5S13107   5.663   6.961   3.143  0.2183 -0.1976  0.8063
  124OSM    H5S13108   5.714   7.056   3.117  0.6851 -0.8953 -0.9709
  124OSM    C6S13109   5.659   6.944   3.298 -0.7608  0.2787  0.3674
  124OSM    H6S13110   5.630   6.845   3.338 -1.4205 -0.2366 -1.2843
  124OSM    H6T13111   5.580   7.015   3.332 -0.5643  0.4911  0.3788
  124OSM    C7S13112   5.786   6.998   3.364  0.2599  0.0877 -0.6485
  124OSM    H7S13113   5.808   7.106   3.347  1.3138 -0.1541 -0.8807
  124OSM    H7T13114   5.879   6.954   3.322  2.1396  2.3078  0.9022
  124OSM    C8S13115   5.789   6.957   3.514 -0.0435 -0.1713  0.4194
  124OSM    H8S13116   5.885   6.994   3.555  0.5329 -0.1460 -0.9255
  124OSM    H8T13117   5.796   6.847   3.518 -0.6095 -0.1984  0.9761
  124OSM    C9S13118   5.663   6.998   3.599 -0.5946  0.3466  0.2555
  124OSM    H9S13119   5.574   6.961   3.543  0.5225  1.2595 -2.2799
  124OSM    H9T13120   5.649   7.108   3.604  0.0037  0.5627 -1.8615
  124OSM   C10S13121   5.677   6.938   3.741 -0.1545  0.1016 -0.2287
  124OSM   H10S13122   5.760   6.986   3.797 -0.4106 -0.0063  0.2462
  124OSM   H10T13123   5.694   6.829   3.725 -0.1434  0.3154 -1.9530
  124OSM   C11S13124   5.543   6.958   3.813  0.2108 -0.6053  0.2453
  124OSM   H11S13125   5.459   6.903   3.766  1.1281 -1.9165  0.0546
  124OSM   H11T13126   5.526   7.067   3.817  1.1869 -0.4826  2.4940
  124OSM   C12S13127   5.555   6.922   3.965  0.3465 -0.1894 -0.1085
  124OSM   H12S13128   5.637   6.980   4.012 -0.0917  0.6532 -0.3560
  124OSM   H12T13129   5.570   6.813   3.970  2.1239 -0.0652 -1.6837
  124OSM   C13S13130   5.426   6.963   4.038 -0.3705 -0.0205  0.5006
  124OSM   H13S13131   5.340   6.910   3.993  0.6614 -1.7168  0.4328
  124OSM   H13T13132   5.410   7.073   4.044  1.5465  0.2790  0.6375
  124OSM   C14S13133   5.423   6.940   4.190 -0.0666  0.0066 -0.6843
  124OSM   H14S13134   5.498   7.007   4.237 -1.7676  0.3189  1.8253
  124OSM   H14T13135   5.435   6.831   4.210  2.8605 -0.0160 -2.0810
  124OSM   C15S13136   5.285   6.980   4.245  0.2671  0.3130  0.2622
  124OSM   H15S13137   5.197   6.937   4.193  0.2569 -2.5795  2.4020
  124OSM   H15T13138   5.273   7.090   4.232 -1.3521  0.1362  0.0574
  124OSM   C16S13139   5.267   6.958   4.396 -0.3813 -0.0310 -0.1508
  124OSM   H16S13140   5.176   7.012   4.428 -0.1110  0.4953 -0.2439
  124OSM   H16T13141   5.353   7.018   4.433 -1.7991  2.0965 -0.1699
  124OSM   C17S13142   5.263   6.815   4.440  0.7395  0.1264 -0.8741
  124OSM   H17S13143   5.358   6.765   4.412  0.8821 -1.2442  1.7561
  124OSM   H17T13144   5.178   6.764   4.390  0.8711  0.8990 -1.9184
  124OSM   C18S13145   5.233   6.792   4.591  0.3443  0.1042  0.7363
  124OSM   H18S13146   5.255   6.688   4.623 -0.5151 -1.0305 -2.0437
  124OSM   H18T13147   5.135   6.833   4.625 -0.0386 -0.9483  0.9340
  124OSM   H18U13148   5.307   6.857   4.643 -2.2310  2.3069  1.8728
  124OSM    C1F13149   5.268   6.921   2.800 -0.3075  0.2281 -0.2918
  124OSM     OF13150   5.240   6.819   2.738  0.0802  0.5276  0.3124
  124OSM    C2F13151   5.163   7.022   2.843  0.0200 -0.4322  0.6710
  124OSM    H2F13152   5.070   7.005   2.786  0.6885  1.3274 -1.0719
  124OSM    H2G13153   5.193   7.122   2.805 -2.4508  0.3831  0.7086
  124OSM    C3F13154   5.132   7.021   2.988 -0.1781  0.2241 -0.1223
  124OSM    H3F13155   5.224   7.059   3.038 -0.3801  0.5907 -0.0211
  124OSM    H3G13156   5.123   6.917   3.025  1.9762 -0.0831 -0.3452
  124OSM    C4F13157   5.009   7.110   3.039 -0.2695 -0.0749 -0.0079
  124OSM    H4F13158   4.936   7.109   2.956  0.4485 -0.4792 -0.6445
  124OSM    H4G13159   5.046   7.215   3.046 -0.3457  0.1750 -2.5142
  124OSM    C5F13160   4.948   7.076   3.182  0.3943  0.3806 -0.0281
  124OSM    H5F13161   4.886   7.164   3.208 -0.1266  0.2239 -0.6985
  124OSM    H5G13162   5.030   7.063   3.256  1.1660  0.2127 -0.8852
  124OSM    C6F13163   4.855   6.941   3.185 -0.2219 -0.5748 -0.4226
  124OSM    H6F13164   4.923   6.861   3.148 -0.1868 -2.7762  3.7920
  124OSM    H6G13165   4.775   6.960   3.111  0.4081  2.0405 -0.5412
  124OSM    C7F13166   4.807   6.911   3.330 -0.2900  0.3444  0.0064
  124OSM    H7F13167   4.774   7.009   3.372 -1.3024  0.3707 -0.8197
  124OSM    H7G13168   4.892   6.878   3.394  0.5049  0.8170 -0.7799
  124OSM    C8F13169   4.684   6.823   3.337  0.4520  0.4660 -0.9147
  124OSM    H8F13170   4.617   6.849   3.252 -0.0165  0.6544 -0.4919
  124OSM    H8G13171   4.623   6.850   3.425 -0.5784 -2.4888 -0.6072
  124OSM    C9F13172   4.719   6.674   3.336 -0.4476 -0.2484  0.0077
  124OSM    H9F13173   4.742   6.641   3.233  2.5741  0.8484  0.2379
  124OSM   C10F13174   4.759   6.602   3.439  0.4150  0.6058  0.6539
  124OSM   H10F13175   4.800   6.503   3.415 -1.1570  0.4964 -2.0107
  124OSM   C11F13176   4.757   6.641   3.582 -0.8907 -0.4380  0.6434
  124OSM   H11F13177   4.691   6.725   3.610 -0.4192  0.0367  0.3688
  124OSM   H11G13178   4.858   6.679   3.607  0.8789 -3.2223 -1.5655
  124OSM   C12F13179   4.722   6.530   3.680 -0.2469 -0.0396  0.2156
  124OSM   H12F13180   4.783   6.441   3.654 -1.7042 -1.0614  0.1354
  124OSM   H12G13181   4.621   6.490   3.658  0.8857 -2.3541 -1.2218
  124OSM   C13F13182   4.756   6.557   3.828  0.1442  0.2103  0.1915
  124OSM   H13F13183   4.709   6.656   3.850  1.2752  0.3957  1.9170
  124OSM   H13G13184   4.865   6.575   3.835 -0.2459  2.8060  0.8817
  124OSM   C14F13185   4.694   6.461   3.936 -0.3195  0.0140  0.3612
  124OSM   H14F13186   4.723   6.358   3.907  0.4994  0.8266 -1.8989
  124OSM   H14G13187   4.585   6.483   3.941 -0.0057  1.5051  1.2653
  124OSM   C15F13188   4.748   6.501   4.080  0.7370 -0.4306  0.5879
  124OSM   H15F13189   4.701   6.590   4.127  0.3739  0.8274 -2.0013
  124OSM   H15G13190   4.857   6.516   4.068  0.8930 -0.2620  2.0141
  124OSM   C16F13191   4.726   6.384   4.172 -0.4288  0.3532  0.4517
  124OSM   H16F13192   4.799   6.304   4.150  2.1374  1.8584  2.8612
  124OSM   H16G13193   4.628   6.333   4.163 -0.0271 -0.8725  2.4151
  124OSM   C17F13194   4.731   6.422   4.313 -0.7820 -0.0501 -0.6423
  124OSM   H17F13195   4.641   6.475   4.350  0.6151  0.0359  3.1500
  124OSM   H17G13196   4.813   6.492   4.338  0.3083 -0.2127 -3.4003
  124OSM   C18F13197   4.736   6.303   4.409 -0.3750 -0.4623 -0.0008
  124OSM   H18F13198   4.698   6.327   4.511  0.7891 -0.4045  0.4420
  124OSM   H18G13199   4.838   6.270   4.439 -0.1682  0.1107 -0.0506
  124OSM   H18H13200   4.673   6.221   4.369  1.2828 -3.5460  3.1629
  125OSM      N13201   0.219   3.460   2.158 -0.1420 -0.5545 -0.0992
  125OSM    C1513202   0.293   3.566   2.241  0.5283  0.2571  0.8502
  125OSM   H15A13203   0.287   3.668   2.205  0.9707  0.3843  1.1308
  125OSM   H15B13204   0.398   3.542   2.237  0.9530  1.9387  0.7915
  125OSM   H15C13205   0.262   3.569   2.345  2.3332  0.1574  1.4148
  125OSM    C1413206   0.261   3.468   2.014 -0.2721  0.3307 -0.1658
  125OSM   H14A13207   0.217   3.392   1.951 -2.0589 -0.4255  1.8390
  125OSM   H14B13208   0.369   3.472   2.004 -0.0640 -2.0857  0.3185
  125OSM   H14C13209   0.235   3.566   1.979 -2.0282 -1.2221 -3.6486
  125OSM    C1313210   0.249   3.322   2.209 -0.0178 -0.1275  0.4770
  125OSM   H13A13211   0.195   3.242   2.160  0.2915 -2.1503  3.2071
  125OSM   H13B13212   0.222   3.310   2.313 -1.0462  0.0808  0.2453
  125OSM   H13C13213   0.353   3.296   2.197  0.0352  0.6175 -0.8905
  125OSM    C1213214   0.069   3.496   2.172 -0.6133  0.1410  0.1825
  125OSM   H12A13215   0.013   3.413   2.130  1.0467 -0.2960 -1.2587
  125OSM   H12B13216   0.038   3.583   2.117 -0.3857  0.5557  0.6960
  125OSM    C1113217   0.017   3.511   2.322 -0.3523 -0.8671 -0.0611
  125OSM   H11A13218  -0.089   3.544   2.313  0.0062  0.7429  1.0239
  125OSM   H11B13219   0.067   3.601   2.363 -0.7537 -0.7777  0.2481
  125OSM      P13220  -0.090   3.305   2.425  0.1924 -0.0762 -0.0397
  125OSM    O1313221  -0.166   3.286   2.296  0.7477  0.3067  0.1165
  125OSM    O1413222  -0.043   3.186   2.496 -0.2209 -0.8466  0.1449
  125OSM    O1113223  -0.176   3.404   2.524  0.7342  0.0506 -0.2901
  125OSM    O1213224   0.033   3.395   2.391 -0.2694  0.2917  0.0168
  125OSM    C1S13225  -0.125   3.431   2.654  0.1213 -0.3389 -0.4563
  125OSM    H1S13226  -0.042   3.504   2.646 -1.9026  2.3022  0.9558
  125OSM    H1T13227  -0.081   3.340   2.701  0.8177 -0.5487 -1.4893
  125OSM     NF13228  -0.138   3.507   2.875 -1.1403 -0.1125 -0.2049
  125OSM    HNF13229  -0.143   3.438   2.947  1.4307  1.1957  1.4087
  125OSM    C2S13230  -0.223   3.489   2.760  0.2470 -0.6634 -0.2093
  125OSM    H2S13231  -0.260   3.588   2.724 -0.7933 -1.5927 -1.7968
  125OSM    C3S13232  -0.345   3.385   2.776  0.4628  0.1275 -0.0050
  125OSM    H3S13233  -0.298   3.290   2.807 -1.9287 -1.5299 -1.0830
  125OSM     O313234  -0.408   3.340   2.657  0.6629 -0.2855  0.4141
  125OSM    HO313235  -0.347   3.371   2.590  0.7914 -0.5615  0.4021
  125OSM    C4S13236  -0.440   3.415   2.891  0.3507 -0.0684  0.6623
  125OSM    H4S13237  -0.425   3.353   2.980  1.5626  0.4080  0.8217
  125OSM    C5S13238  -0.540   3.509   2.890  0.7426  0.1904 -0.5042
  125OSM    H5S13239  -0.564   3.571   2.803 -1.3283  1.7298  1.0497
  125OSM    C6S13240  -0.634   3.519   3.004 -0.5409 -0.7562  0.2922
  125OSM    H6S13241  -0.723   3.463   2.969  0.0722  0.0512 -2.8120
  125OSM    H6T13242  -0.665   3.626   3.003  1.6716 -0.0716 -0.6699
  125OSM    C7S13243  -0.589   3.481   3.147  0.6934 -0.0300  0.0588
  125OSM    H7S13244  -0.503   3.543   3.182  0.8828  0.5248 -1.3138
  125OSM    H7T13245  -0.546   3.379   3.139 -1.7111 -1.0068 -1.4307
  125OSM    C8S13246  -0.700   3.480   3.255  1.1666 -0.2921 -0.1809
  125OSM    H8S13247  -0.767   3.395   3.232  1.6122  0.0015 -2.8160
  125OSM    H8T13248  -0.768   3.567   3.259 -2.6734 -3.0545 -0.1429
  125OSM    C9S13249  -0.634   3.454   3.382 -0.5494 -0.0497 -1.4647
  125OSM    H9S13250  -0.564   3.535   3.414 -0.8051  0.1003 -1.2782
  125OSM    H9T13251  -0.565   3.367   3.377  2.1313  1.9548 -1.5026
  125OSM   C10S13252  -0.724   3.426   3.503 -0.0898  0.6723  0.4237
  125OSM   H10S13253  -0.784   3.334   3.488  0.9824  0.0756 -0.3875
  125OSM   H10T13254  -0.785   3.518   3.513  0.7177  1.2903 -0.1703
  125OSM   C11S13255  -0.633   3.410   3.638  0.7716 -0.5201 -0.3876
  125OSM   H11S13256  -0.556   3.491   3.643  0.4292 -0.1409 -1.1450
  125OSM   H11T13257  -0.573   3.316   3.641 -1.4424 -2.0293 -1.1055
  125OSM   C12S13258  -0.709   3.397   3.775 -0.0741 -0.0763  0.0043
  125OSM   H12S13259  -0.789   3.322   3.763 -0.4378  0.3057  0.0334
  125OSM   H12T13260  -0.750   3.497   3.801  0.9555  0.0684  1.1854
  125OSM   C13S13261  -0.617   3.362   3.886 -1.0971  1.3138 -0.0299
  125OSM   H13S13262  -0.532   3.433   3.898 -0.6667  0.7758  0.1691
  125OSM   H13T13263  -0.574   3.262   3.865 -3.0511  0.3433  0.3676
  125OSM   C14S13264  -0.695   3.354   4.019  0.6600 -0.0679  0.7456
  125OSM   H14S13265  -0.775   3.280   4.002 -0.5579  1.3624 -0.0001
  125OSM   H14T13266  -0.741   3.452   4.043  1.6211 -0.2931  4.1400
  125OSM   C15S13267  -0.608   3.324   4.136 -1.0051  0.0487 -0.1324
  125OSM   H15S13268  -0.536   3.406   4.157 -1.8456  0.4663  1.2707
  125OSM   H15T13269  -0.549   3.235   4.104  2.7534  2.3927 -0.2993
  125OSM   C16S13270  -0.679   3.299   4.264  0.7444 -0.3424  0.0873
  125OSM   H16S13271  -0.755   3.218   4.255 -0.8054  1.0522  0.2881
  125OSM   H16T13272  -0.739   3.388   4.292  2.6087  0.8952  0.2978
  125OSM   C17S13273  -0.594   3.273   4.387  0.1918  0.2715  0.3381
  125OSM   H17S13274  -0.544   3.369   4.411 -0.2675  1.3102 -2.4824
  125OSM   H17T13275  -0.514   3.200   4.366  0.8125  0.0978  2.9506
  125OSM   C18S13276  -0.675   3.235   4.516  0.6160 -0.1459 -0.0605
  125OSM   H18S13277  -0.605   3.215   4.600  1.1482 -1.6497 -0.8132
  125OSM   H18T13278  -0.722   3.135   4.501  1.2321 -0.0915 -2.7873
  125OSM   H18U13279  -0.757   3.306   4.539 -0.8545 -1.6031 -0.5896
  125OSM    C1F13280  -0.052   3.607   2.875  0.1475  0.1841 -0.3889
  125OSM     OF13281  -0.050   3.690   2.786  0.1010  0.2874 -0.0689
  125OSM    C2F13282   0.046   3.618   2.985  0.2146 -0.3428 -0.4602
  125OSM    H2F13283   0.133   3.676   2.945  0.1828  1.1057  1.4426
  125OSM    H2G13284   0.086   3.520   3.019  3.3805  1.4327  1.3707
  125OSM    C3F13285   0.003   3.693   3.121 -0.5003  0.3065  1.1742
  125OSM    H3F13286  -0.083   3.649   3.177 -0.8297  0.2089  0.6030
  125OSM    H3G13287  -0.016   3.802   3.112 -0.2163  0.6743  4.0765
  125OSM    C4F13288   0.115   3.685   3.228 -0.0141  0.5285  0.5112
  125OSM    H4F13289   0.206   3.726   3.180  0.7685 -1.6285  0.0488
  125OSM    H4G13290   0.139   3.578   3.246  4.7036  1.3177  0.2208
  125OSM    C5F13291   0.091   3.747   3.361 -0.0122  0.3503 -1.1991
  125OSM    H5F13292  -0.010   3.722   3.400  0.9433 -0.6900  0.7643
  125OSM    H5G13293   0.104   3.857   3.359  1.2360  0.2562 -4.3187
  125OSM    C6F13294   0.199   3.690   3.450  0.9743 -0.2481  0.5081
  125OSM    H6F13295   0.302   3.715   3.416  0.5780  0.7918  0.0457
  125OSM    H6G13296   0.196   3.579   3.459 -2.8710 -0.1164  2.9948
  125OSM    C7F13297   0.172   3.735   3.593  0.2546  0.7309 -0.1683
  125OSM    H7F13298   0.073   3.694   3.623  1.1201 -0.5611  1.0222
  125OSM    H7G13299   0.154   3.845   3.588 -2.4965  0.3649 -0.2908
  125OSM    C8F13300   0.265   3.698   3.703 -0.2644 -0.1099 -0.5233
  125OSM    H8F13301   0.237   3.759   3.792  1.5941  1.6924 -1.0876
  125OSM    H8G13302   0.367   3.737   3.681  0.4518 -1.2675  0.5996
  125OSM    C9F13303   0.273   3.554   3.727  0.6151  0.4255 -0.7113
  125OSM    H9F13304   0.218   3.487   3.660 -0.7662 -0.3634  1.1379
  125OSM   C10F13305   0.339   3.502   3.836 -0.9306 -0.1735  0.1850
  125OSM   H10F13306   0.349   3.394   3.850  1.6233 -0.3430 -2.0441
  125OSM   C11F13307   0.436   3.579   3.918 -0.1343  0.4845  0.2060
  125OSM   H11F13308   0.476   3.677   3.886 -0.2772  0.9572  1.4210
  125OSM   H11G13309   0.524   3.518   3.949 -1.4303 -1.1305  0.8751
  125OSM   C12F13310   0.372   3.612   4.051  0.2655 -0.7654  0.4128
  125OSM   H12F13311   0.280   3.667   4.022 -0.6850 -1.2872  2.2509
  125OSM   H12G13312   0.438   3.682   4.108  1.6942 -2.1566  0.5147
  125OSM   C13F13313   0.335   3.494   4.142  0.0030  0.3040 -0.5410
  125OSM   H13F13314   0.426   3.432   4.150 -0.2952 -0.2064 -1.0127
  125OSM   H13G13315   0.263   3.428   4.089 -0.3010  0.5035 -0.3834
  125OSM   C14F13316   0.310   3.535   4.289  0.4061 -0.6417 -0.3186
  125OSM   H14F13317   0.401   3.568   4.344  0.0498  1.8480 -1.1015
  125OSM   H14G13318   0.275   3.442   4.338  1.1896 -1.4604 -1.2856
  125OSM   C15F13319   0.198   3.636   4.284 -0.1073 -0.2536 -0.1506
  125OSM   H15F13320   0.110   3.596   4.231  0.7365 -1.1003 -0.9547
  125OSM   H15G13321   0.223   3.731   4.230  0.6160  0.4640  1.3812
  125OSM   C16F13322   0.167   3.670   4.430  0.0693  0.9173 -0.5660
  125OSM   H16F13323   0.245   3.732   4.480  0.0002  1.4606 -1.1201
  125OSM   H16G13324   0.156   3.575   4.486 -1.9053  1.0979 -0.5882
  125OSM   C17F13325   0.035   3.745   4.450  0.4961  0.2850 -0.4608
  125OSM   H17F13326   0.025   3.825   4.374 -2.4368 -0.8195 -1.3795
  125OSM   H17G13327   0.035   3.801   4.545  3.7136  0.4773 -0.4689
  125OSM   C18F13328  -0.097   3.667   4.433  0.4142  0.2815  0.0160
  125OSM   H18F13329  -0.178   3.744   4.436  0.8775  0.7436  1.7344
  125OSM   H18G13330  -0.117   3.588   4.508 -0.3416  0.0346 -0.4364
  125OSM   H18H13331  -0.108   3.623   4.332 -1.8709 -2.8663  1.4702
  126OSM      N13332   5.249   3.169   2.364  0.2228  0.0368  0.0292
  126OSM    C1513333   5.155   3.094   2.276  0.3914 -0.2349 -0.1695
  126OSM   H15A13334   5.177   3.121   2.174 -0.1300 -0.0497 -0.2380
  126OSM   H15B13335   5.057   3.106   2.320  1.2616  0.9533  1.5507
  126OSM   H15C13336   5.167   2.987   2.283 -1.0061 -0.4940 -1.1865
  126OSM    C1413337   5.388   3.139   2.307 -0.1485 -0.0638 -0.1768
  126OSM   H14A13338   5.403   3.033   2.287  0.8416  0.1087 -0.4029
  126OSM   H14B13339   5.466   3.174   2.372  0.1184  0.8068 -0.9568
  126OSM   H14C13340   5.402   3.192   2.214  0.4933  2.1455  1.1126
  126OSM    C1313341   5.239   3.316   2.347 -0.0714 -0.2777 -0.1675
  126OSM   H13A13342   5.266   3.356   2.444 -1.3824 -1.6400  0.8004
  126OSM   H13B13343   5.139   3.352   2.329  0.1406 -0.3507 -1.6530
  126OSM   H13C13344   5.298   3.366   2.271 -1.6235  1.8135 -0.0762
  126OSM    C1213345   5.225   3.128   2.509 -0.1150  0.0551 -0.2577
  126OSM   H12A13346   5.306   3.170   2.567 -0.5457 -0.2024  0.5486
  126OSM   H12B13347   5.230   3.022   2.525 -0.0890  0.2795  1.3995
  126OSM    C1113348   5.092   3.171   2.578  0.0617 -0.5269  0.0002
  126OSM   H11A13349   5.081   3.282   2.581  1.8766 -0.2866 -0.8418
  126OSM   H11B13350   5.098   3.132   2.681  0.2322 -1.8036 -0.4781
  126OSM      P13351   4.832   3.144   2.576 -0.0220 -0.1711 -0.1054
  126OSM    O1313352   4.740   3.188   2.464  0.1160  0.2482  0.1458
  126OSM    O1413353   4.798   3.023   2.655  0.4151  0.7578 -0.3945
  126OSM    O1113354   4.859   3.270   2.667  0.2593  0.3817  0.0173
  126OSM    O1213355   4.975   3.116   2.507 -0.5599 -0.8055 -0.0335
  126OSM    C1S13356   4.760   3.292   2.784 -0.8453  0.4434  0.0719
  126OSM    H1S13357   4.684   3.212   2.788  0.9061 -1.2717  0.6686
  126OSM    H1T13358   4.701   3.386   2.774 -0.0413  1.0679  1.0661
  126OSM     NF13359   4.746   3.282   3.036  0.3945 -0.2251  0.8519
  126OSM    HNF13360   4.725   3.375   3.067  1.6004  0.7097 -0.9950
  126OSM    C2S13361   4.839   3.280   2.923  0.3313  0.0082 -0.7119
  126OSM    H2S13362   4.892   3.182   2.921  0.6951  0.1699  0.1927
  126OSM    C3S13363   4.940   3.396   2.939  0.8240 -1.0687  0.7812
  126OSM    H3S13364   4.869   3.482   2.935  0.2795 -1.4678  1.5824
  126OSM     O313365   5.021   3.410   2.823 -0.5367 -0.1927 -0.0656
  126OSM    HO313366   5.000   3.338   2.763  1.0870 -1.7297  1.1049
  126OSM    C4S13367   5.024   3.411   3.065  0.1936  0.5804  0.4698
  126OSM    H4S13368   4.994   3.487   3.139 -2.3700 -0.0436  0.1802
  126OSM    C5S13369   5.135   3.345   3.093 -0.5272  0.0089 -0.6535
  126OSM    H5S13370   5.175   3.279   3.014 -1.1254  1.4624 -2.2249
  126OSM    C6S13371   5.227   3.377   3.214 -0.3536 -0.3003 -0.2133
  126OSM    H6S13372   5.189   3.333   3.309 -0.1965 -1.1783 -0.5465
  126OSM    H6T13373   5.236   3.485   3.240  1.5553 -0.9102  1.9195
  126OSM    C7S13374   5.373   3.332   3.196 -0.2631  0.6467  0.0776
  126OSM    H7S13375   5.440   3.376   3.273  3.0675 -0.9631 -1.7324
  126OSM    H7T13376   5.405   3.371   3.098  0.1436  1.3245  0.4704
  126OSM    C8S13377   5.383   3.175   3.191 -0.3988  0.0986 -0.1713
  126OSM    H8S13378   5.490   3.152   3.171 -0.5127  0.8032 -1.7370
  126OSM    H8T13379   5.335   3.119   3.109  0.1045 -1.9832  0.8912
  126OSM    C9S13380   5.348   3.104   3.324 -0.0643  0.1852 -0.5799
  126OSM    H9S13381   5.375   2.997   3.306  1.5370 -0.0532  2.5336
  126OSM    H9T13382   5.240   3.118   3.343 -0.2329 -1.0564 -0.5213
  126OSM   C10S13383   5.431   3.157   3.450  0.6006 -0.1809 -0.1863
  126OSM   H10S13384   5.411   3.266   3.463  0.2865 -0.0633 -1.5694
  126OSM   H10T13385   5.542   3.152   3.450  0.6334 -0.3375  1.8354
  126OSM   C11S13386   5.390   3.079   3.576 -0.0909 -0.0034  0.6590
  126OSM   H11S13387   5.394   2.971   3.551  0.5679  0.2912 -0.6037
  126OSM   H11T13388   5.286   3.110   3.599 -0.0350  1.9877 -1.4116
  126OSM   C12S13389   5.489   3.113   3.687 -0.6876  0.8181 -0.3932
  126OSM   H12S13390   5.525   3.216   3.668  0.3462  0.3670 -0.9586
  126OSM   H12T13391   5.578   3.047   3.690  0.1940  1.9858  0.0980
  126OSM   C13S13392   5.424   3.114   3.829 -0.9460  0.1258  0.0844
  126OSM   H13S13393   5.329   3.057   3.825 -1.0886  0.3745 -0.1022
  126OSM   H13T13394   5.399   3.219   3.857  0.2001 -0.2173  2.7278
  126OSM   C14S13395   5.506   3.053   3.941 -0.8131 -0.2607 -0.2541
  126OSM   H14S13396   5.598   3.115   3.945 -1.3207  0.4254  1.7505
  126OSM   H14T13397   5.533   2.945   3.935 -0.0111 -0.2531  2.0712
  126OSM   C15S13398   5.436   3.072   4.081 -0.3884  0.2230  0.3681
  126OSM   H15S13399   5.352   2.999   4.081 -2.0034  1.8280  4.2584
  126OSM   H15T13400   5.393   3.172   4.100 -1.9694 -0.6795  1.7119
  126OSM   C16S13401   5.522   3.034   4.206  0.3017 -0.1740 -0.1774
  126OSM   H16S13402   5.552   2.929   4.186 -2.1670 -0.6549 -1.8745
  126OSM   H16T13403   5.450   3.010   4.287  0.8475  3.8474  1.6974
  126OSM   C17S13404   5.633   3.128   4.252 -0.1276  0.1374 -0.1193
  126OSM   H17S13405   5.583   3.222   4.285  1.7215 -0.0343  3.6924
  126OSM   H17T13406   5.703   3.135   4.166 -1.8677 -0.6189 -1.6545
  126OSM   C18S13407   5.698   3.078   4.385  0.1215  0.3277  0.5424
  126OSM   H18S13408   5.760   3.146   4.447  0.4959  0.3621  0.1379
  126OSM   H18T13409   5.749   2.982   4.360 -0.2850  0.3801 -0.5437
  126OSM   H18U13410   5.623   3.049   4.461 -0.2575  0.4787  0.2282
  126OSM    C1F13411   4.658   3.195   3.064  0.2319  0.6364 -0.7312
  126OSM     OF13412   4.646   3.093   2.994  0.2025  0.0849  0.1415
  126OSM    C2F13413   4.576   3.227   3.187 -0.0644 -0.4145  0.4829
  126OSM    H2F13414   4.597   3.336   3.191 -1.6482 -0.1085  1.0358
  126OSM    H2G13415   4.614   3.178   3.279 -1.3140  0.9417  1.7532
  126OSM    C3F13416   4.432   3.195   3.155 -0.2025 -0.0491 -0.3967
  126OSM    H3F13417   4.418   3.085   3.149  3.1310 -0.6598  0.7632
  126OSM    H3G13418   4.383   3.239   3.066  1.2372 -1.0580 -1.7320
  126OSM    C4F13419   4.353   3.252   3.278  0.3066 -0.0291  0.4047
  126OSM    H4F13420   4.391   3.355   3.287 -0.0950  0.1251  0.3694
  126OSM    H4G13421   4.356   3.201   3.377 -0.3455  1.6069  1.2960
  126OSM    C5F13422   4.198   3.254   3.249  0.0829  0.6056 -0.2862
  126OSM    H5F13423   4.162   3.149   3.243  2.2466 -0.1359 -1.2851
  126OSM    H5G13424   4.185   3.304   3.151  1.0851  2.1683  0.3282
  126OSM    C6F13425   4.118   3.332   3.361 -0.2095  0.4271 -0.2436
  126OSM    H6F13426   4.012   3.327   3.328 -0.5398  0.9071  0.7071
  126OSM    H6G13427   4.154   3.437   3.374  1.9174 -0.2479 -0.1913
  126OSM    C7F13428   4.099   3.255   3.492  0.2267  0.2010 -0.5465
  126OSM    H7F13429   4.186   3.192   3.521  0.3137  0.6819  0.2713
  126OSM    H7G13430   4.010   3.190   3.489 -0.0303  0.4392  0.9883
  126OSM    C8F13431   4.078   3.346   3.614 -0.0349  0.4255 -0.4742
  126OSM    H8F13432   3.989   3.411   3.598  2.0892  3.3727 -1.1626
  126OSM    H8G13433   4.163   3.415   3.628 -0.0390  0.3318  0.0387
  126OSM    C9F13434   4.049   3.267   3.741 -0.3299 -1.0204  0.4187
  126OSM    H9F13435   3.946   3.228   3.741 -0.7907  0.1044 -1.5037
  126OSM   C10F13436   4.131   3.249   3.845  0.5790 -0.2746  0.0635
  126OSM   H10F13437   4.098   3.181   3.925 -0.3623  0.5635  0.4101
  126OSM   C11F13438   4.274   3.298   3.866 -0.2522  0.1361 -0.2908
  126OSM   H11F13439   4.282   3.393   3.809 -2.9661 -0.6287 -2.1643
  126OSM   H11G13440   4.353   3.232   3.824  1.7194  1.2976  1.4163
  126OSM   C12F13441   4.297   3.323   4.018  0.0498 -1.1742 -0.3348
  126OSM   H12F13442   4.405   3.301   4.030  0.0853 -1.4542 -1.0883
  126OSM   H12G13443   4.257   3.241   4.080  0.5694 -0.7290  0.6075
  126OSM   C13F13444   4.247   3.466   4.070  0.2625 -0.6074  0.2545
  126OSM   H13F13445   4.154   3.481   4.011  0.1709 -2.1985 -0.0499
  126OSM   H13G13446   4.312   3.552   4.047  0.5631  0.0508  3.1404
  126OSM   C14F13447   4.207   3.459   4.215  0.1662 -0.7429 -0.2735
  126OSM   H14F13448   4.296   3.448   4.281 -0.9106 -2.0652  1.0253
  126OSM   H14G13449   4.140   3.373   4.234  1.4916 -1.3714  1.9553
  126OSM   C15F13450   4.144   3.588   4.266 -0.5724 -0.2345  0.0607
  126OSM   H15F13451   4.048   3.598   4.211  2.0223 -0.4510 -5.0919
  126OSM   H15G13452   4.212   3.669   4.231  1.2663 -2.0820 -0.8320
  126OSM   C16F13453   4.114   3.597   4.418 -0.3163  0.2028 -0.1166
  126OSM   H16F13454   4.079   3.498   4.453  0.8308 -0.5818 -1.1143
  126OSM   H16G13455   4.028   3.665   4.438 -0.8322 -0.5291  0.1654
  126OSM   C17F13456   4.224   3.636   4.519 -0.2867 -0.1544  0.0304
  126OSM   H17F13457   4.281   3.719   4.472  2.5186 -2.3267 -0.6471
  126OSM   H17G13458   4.290   3.548   4.534 -0.4832 -0.0455  1.8421
  126OSM   C18F13459   4.176   3.687   4.654 -0.6572  0.0136 -0.3330
  126OSM   H18F13460   4.261   3.703   4.725 -1.2704 -3.0343  1.2613
  126OSM   H18G13461   4.124   3.602   4.702  0.4655 -0.8943 -0.6713
  126OSM   H18H13462   4.110   3.776   4.647  0.0852  0.7604  1.4564
  127OSM      N13463   4.810   6.012   2.671 -0.2700 -0.0982 -0.3860
  127OSM    C1513464   4.793   6.161   2.693  0.3149 -0.0321  0.1698
  127OSM   H15A13465   4.885   6.211   2.722 -0.7215  1.9446  0.1977
  127OSM   H15B13466   4.725   6.176   2.775 -0.0403  0.1946 -0.1654
  127OSM   H15C13467   4.743   6.211   2.612  0.3621 -1.4387 -0.7472
  127OSM    C1413468   4.891   5.987   2.546  0.3921  0.3378 -0.8641
  127OSM   H14A13469   4.924   5.884   2.543 -0.5600 -0.0029 -0.1748
  127OSM   H14B13470   4.968   6.060   2.526  0.7067  0.5733  1.0658
  127OSM   H14C13471   4.816   5.992   2.468 -0.4605  1.3409  0.0026
  127OSM    C1313472   4.889   5.965   2.795 -0.3217  0.0247  0.4929
  127OSM   H13A13473   4.975   6.022   2.826 -1.9159  0.9582  3.5864
  127OSM   H13B13474   4.937   5.871   2.770  5.3082  2.3807  1.0156
  127OSM   H13C13475   4.819   5.944   2.875  0.0595  1.2991  1.1847
  127OSM    C1213476   4.674   5.946   2.650  0.3264 -0.4164  0.1981
  127OSM   H12A13477   4.685   5.843   2.619  0.5168 -0.4552  0.3917
  127OSM   H12B13478   4.624   5.996   2.568  2.6112  1.1749 -0.3139
  127OSM    C1113479   4.570   5.945   2.757 -0.0490  0.1793 -0.3913
  127OSM   H11A13480   4.600   5.883   2.845  1.4226 -0.1562 -1.0901
  127OSM   H11B13481   4.484   5.891   2.712  0.8354 -1.6467  0.0440
  127OSM      P13482   4.427   6.161   2.703  0.6268 -0.0320 -0.3394
  127OSM    O1313483   4.406   6.297   2.755  0.2689  0.5710 -0.3479
  127OSM    O1413484   4.448   6.142   2.558  0.9472 -0.0393 -0.4354
  127OSM    O1113485   4.291   6.071   2.732 -0.2115  0.3555 -0.6915
  127OSM    O1213486   4.534   6.082   2.786  0.0193 -0.3160  0.1139
  127OSM    C1S13487   4.250   6.079   2.868  0.2095  0.1406 -0.4587
  127OSM    H1S13488   4.217   6.182   2.892 -0.6163 -0.0623 -0.6853
  127OSM    H1T13489   4.329   6.049   2.940 -0.5295 -1.6064 -0.3240
  127OSM     NF13490   4.105   5.988   3.042  0.2181  0.3563 -0.1479
  127OSM    HNF13491   4.134   5.904   3.088 -1.2386 -0.1441 -0.0908
  127OSM    C2S13492   4.136   5.976   2.900  0.5404 -0.0904 -0.1344
  127OSM    H2S13493   4.047   6.017   2.847  0.6616  0.6606  0.2425
  127OSM    C3S13494   4.165   5.831   2.851  0.2247 -0.4744 -0.0705
  127OSM    H3S13495   4.256   5.789   2.899 -0.5498 -0.8552  1.1193
  127OSM     O313496   4.175   5.817   2.709  0.3302 -0.3067  0.1326
  127OSM    HO313497   4.193   5.905   2.673 -0.3154 -0.1722  0.1328
  127OSM    C4S13498   4.058   5.733   2.899  0.1637  0.1761  0.2670
  127OSM    H4S13499   4.082   5.663   2.981  1.1206 -0.3699 -0.4560
  127OSM    C5S13500   3.929   5.723   2.867 -0.7570 -1.0051  1.0575
  127OSM    H5S13501   3.890   5.789   2.787  3.2507 -0.0340 -0.3416
  127OSM    C6S13502   3.825   5.626   2.910 -0.6998 -0.1062 -0.5796
  127OSM    H6S13503   3.853   5.527   2.953 -1.6605 -0.5986 -1.0609
  127OSM    H6T13504   3.755   5.616   2.824 -0.5170 -0.9418 -0.6393
  127OSM    C7S13505   3.769   5.703   3.031  0.5234  0.5747  0.3072
  127OSM    H7S13506   3.675   5.646   3.047  0.6211  0.2151 -0.3886
  127OSM    H7T13507   3.748   5.809   3.006  1.2955  0.7247  0.2591
  127OSM    C8S13508   3.852   5.687   3.156 -0.0212 -0.9193 -0.5547
  127OSM    H8S13509   3.918   5.777   3.150  0.4003 -1.2033 -0.1915
  127OSM    H8T13510   3.912   5.594   3.161  0.3512 -0.6155  1.1689
  127OSM    C9S13511   3.755   5.704   3.292 -0.5917  0.5493 -0.1545
  127OSM    H9S13512   3.674   5.629   3.297 -0.9040  0.4601 -3.6979
  127OSM    H9T13513   3.699   5.798   3.277 -0.1267  1.0521  1.1061
  127OSM   C10S13514   3.831   5.721   3.421 -0.0595  0.3816 -0.0331
  127OSM   H10S13515   3.911   5.797   3.422  2.3540 -1.9687 -0.9475
  127OSM   H10T13516   3.878   5.625   3.453 -0.5483 -0.2975 -1.2887
  127OSM   C11S13517   3.733   5.766   3.529 -1.2337 -0.0798 -0.2968
  127OSM   H11S13518   3.646   5.697   3.529 -2.2553  1.1383 -1.7205
  127OSM   H11T13519   3.688   5.866   3.510 -1.6310  0.3690  2.5431
  127OSM   C12S13520   3.786   5.766   3.673  0.6137  0.1051 -0.2190
  127OSM   H12S13521   3.855   5.851   3.688 -0.2842  0.7686  0.2259
  127OSM   H12T13522   3.840   5.673   3.701  1.1352  0.1032 -1.1830
  127OSM   C13S13523   3.666   5.771   3.773 -0.4577 -0.5243  0.0500
  127OSM   H13S13524   3.590   5.690   3.763  1.6615 -2.4933 -1.1551
  127OSM   H13T13525   3.618   5.871   3.765  2.1815  0.9718  1.7198
  127OSM   C14S13526   3.709   5.764   3.921 -1.0566  0.2191  0.0255
  127OSM   H14S13527   3.772   5.855   3.930 -0.7098 -0.0970  0.9036
  127OSM   H14T13528   3.769   5.670   3.916  0.0722  0.8032  1.6827
  127OSM   C15S13529   3.600   5.760   4.025  0.3019 -0.4455  0.5461
  127OSM   H15S13530   3.553   5.659   4.023 -0.8294  0.0779 -1.8885
  127OSM   H15T13531   3.520   5.834   4.007 -0.5481 -1.6888 -0.9852
  127OSM   C16S13532   3.648   5.772   4.163 -0.1876  0.3955 -0.8542
  127OSM   H16S13533   3.565   5.772   4.236  1.4265 -0.7658  1.0833
  127OSM   H16T13534   3.694   5.873   4.171  0.5578 -0.0002  0.0045
  127OSM   C17S13535   3.753   5.668   4.200  0.0346 -0.0740 -0.5850
  127OSM   H17S13536   3.844   5.681   4.138 -1.4888  1.0650 -2.7274
  127OSM   H17T13537   3.716   5.565   4.180 -1.7226  0.6855 -1.4597
  127OSM   C18S13538   3.775   5.666   4.354 -0.0012  0.0861 -0.1154
  127OSM   H18S13539   3.857   5.598   4.385  0.2625  0.1333 -0.6930
  127OSM   H18T13540   3.693   5.642   4.425  0.8787 -0.5339  0.7296
  127OSM   H18U13541   3.824   5.761   4.386  0.5642 -0.0269 -0.6170
  127OSM    C1F13542   4.050   6.089   3.107  0.0455  0.2531  0.2539
  127OSM     OF13543   4.005   6.183   3.043 -0.0454  0.1694  0.4712
  127OSM    C2F13544   4.044   6.074   3.259  0.5918 -0.1876  0.2923
  127OSM    H2F13545   4.108   5.990   3.293 -0.8317 -1.3996  0.0974
  127OSM    H2G13546   3.942   6.043   3.290 -0.1218  1.3901 -0.3812
  127OSM    C3F13547   4.080   6.211   3.327 -0.6326 -0.0606  0.4109
  127OSM    H3F13548   4.027   6.302   3.290  2.1228  0.6162 -2.2925
  127OSM    H3G13549   4.184   6.217   3.289 -0.4292  2.0388  1.1549
  127OSM    C4F13550   4.086   6.210   3.478  0.2188 -0.6133  0.4962
  127OSM    H4F13551   4.149   6.297   3.504 -0.0827 -0.0242 -0.6904
  127OSM    H4G13552   4.141   6.118   3.510 -0.5265 -0.6876  1.6353
  127OSM    C5F13553   3.942   6.227   3.547  0.3129 -0.0617  0.2174
  127OSM    H5F13554   3.875   6.147   3.508  0.1621 -0.4408  1.2391
  127OSM    H5G13555   3.902   6.326   3.515 -1.9875 -0.8458  0.4824
  127OSM    C6F13556   3.951   6.224   3.698 -0.0193 -0.2420  0.1762
  127OSM    H6F13557   4.004   6.316   3.731 -0.3520 -0.3631  1.0517
  127OSM    H6G13558   4.025   6.145   3.723 -1.8732 -1.3319  2.6534
  127OSM    C7F13559   3.820   6.202   3.765 -0.1884 -0.4006  0.3934
  127OSM    H7F13560   3.794   6.097   3.739  0.9611 -1.6951  3.9020
  127OSM    H7G13561   3.751   6.275   3.717  1.7806  0.5109 -1.2007
  127OSM    C8F13562   3.821   6.211   3.919  0.1142  0.1427  0.1596
  127OSM    H8F13563   3.721   6.189   3.961  0.2838 -0.3236  0.3268
  127OSM    H8G13564   3.851   6.315   3.944 -1.1788  0.1773  1.7386
  127OSM    C9F13565   3.927   6.128   3.980  0.2978 -0.2412 -0.7792
  127OSM    H9F13566   3.981   6.069   3.904  2.7543 -0.1979  0.8485
  127OSM   C10F13567   3.960   6.125   4.111  0.2377 -0.0169 -0.1380
  127OSM   H10F13568   4.033   6.048   4.141  0.8761  1.1312  1.4156
  127OSM   C11F13569   3.897   6.203   4.227  0.4118  0.1025  0.3242
  127OSM   H11F13570   3.788   6.215   4.212 -0.2026 -3.5343  0.9075
  127OSM   H11G13571   3.936   6.306   4.234 -0.4873  0.3799  1.4926
  127OSM   C12F13572   3.928   6.134   4.361  0.8999 -0.2083  0.0018
  127OSM   H12F13573   4.036   6.133   4.385  1.1987 -0.0272 -1.2931
  127OSM   H12G13574   3.886   6.032   4.347  0.4667  0.0271 -0.4236
  127OSM   C13F13575   3.862   6.198   4.485  0.0489 -0.1782  0.5026
  127OSM   H13F13576   3.752   6.186   4.493  0.1830 -1.1891  1.0898
  127OSM   H13G13577   3.880   6.307   4.472 -2.5496  0.2444 -0.1455
  127OSM   C14F13578   3.921   6.135   4.606 -0.1467  0.2855 -0.4244
  127OSM   H14F13579   3.864   6.173   4.694 -0.2046  1.7663 -1.0694
  127OSM   H14G13580   4.024   6.167   4.633 -0.6267  0.3658  1.4841
  127OSM   C15F13581   3.917   5.985   4.603  0.4663  0.3043  0.2753
  127OSM   H15F13582   3.997   5.954   4.534  2.5851  0.5106  2.4916
  127OSM   H15G13583   3.823   5.947   4.557  0.6468  0.7062 -0.4384
  127OSM   C16F13584   3.933   5.922   4.747  0.2853 -0.3665 -0.4108
  127OSM   H16F13585   3.847   5.960   4.806 -0.7334 -0.3589 -1.8492
  127OSM   H16G13586   4.032   5.951   4.789 -0.3082 -0.4306  1.0903
  127OSM   C17F13587   3.908   5.770   4.748 -0.5876  0.1499  0.2452
  127OSM   H17F13588   3.808   5.765   4.699  0.8720 -1.8932 -2.8700
  127OSM   H17G13589   3.891   5.728   4.849 -2.9789 -1.9697 -0.9063
  127OSM   C18F13590   3.998   5.685   4.657 -0.2343 -0.1574  0.6946
  127OSM   H18F13591   3.989   5.577   4.682  0.8423 -0.2517  0.7254
  127OSM   H18G13592   4.100   5.694   4.700 -0.4822 -2.7324  2.0327
  127OSM   H18H13593   3.993   5.701   4.548 -0.6138 -2.4373  0.3419
  128OSM      N13594   3.821   4.356   2.779  0.0064  0.0263 -0.0422
  128OSM    C1513595   3.863   4.274   2.666 -0.4167  0.0181  0.4476
  128OSM   H15A13596   3.793   4.195   2.644  1.1013 -1.8273  1.8750
  128OSM   H15B13597   3.946   4.212   2.697 -0.9872 -0.4481  1.0608
  128OSM   H15C13598   3.892   4.323   2.574  0.0779 -1.0620  0.0051
  128OSM    C1413599   3.801   4.269   2.904  0.0699  0.0219 -0.0814
  128OSM   H14A13600   3.782   4.331   2.990 -0.9884  1.9942 -1.6578
  128OSM   H14B13601   3.888   4.209   2.928  0.2810  0.7861  1.1480
  128OSM   H14C13602   3.724   4.193   2.892  0.1456 -0.2404  0.9796
  128OSM    C1313603   3.926   4.447   2.815 -0.2968 -0.1532 -0.6032
  128OSM   H13A13604   3.900   4.499   2.906 -1.3495 -1.3223 -0.2015
  128OSM   H13B13605   3.949   4.531   2.751 -0.6786  3.2647  3.3230
  128OSM   H13C13606   4.018   4.391   2.828 -0.4476 -0.2765 -0.0172
  128OSM    C1213607   3.693   4.431   2.745  0.5700 -0.4833 -0.2738
  128OSM   H12A13608   3.620   4.366   2.699 -0.8457  0.5240  0.4485
  128OSM   H12B13609   3.719   4.499   2.666 -0.4139 -0.7417 -0.8340
  128OSM    C1113610   3.613   4.499   2.858 -0.0192 -0.0446 -0.0198
  128OSM   H11A13611   3.617   4.430   2.945  1.5948 -0.5993 -0.5091
  128OSM   H11B13612   3.506   4.509   2.828 -0.1287 -0.2029  0.3028
  128OSM      P13613   3.640   4.713   3.012 -0.1674  0.1836 -0.4875
  128OSM    O1313614   3.639   4.858   2.982  0.7186 -0.5985  0.1264
  128OSM    O1413615   3.514   4.661   3.069 -0.6016 -0.4386 -0.2103
  128OSM    O1113616   3.760   4.671   3.104 -0.2560 -0.1144 -0.0703
  128OSM    O1213617   3.675   4.627   2.888 -0.4419 -0.3296 -0.0351
  128OSM    C1S13618   3.892   4.721   3.079 -0.2421  0.1860  0.3083
  128OSM    H1S13619   3.898   4.791   2.993  1.6500 -0.7872 -0.4266
  128OSM    H1T13620   3.956   4.633   3.056 -1.1701 -0.6580  0.8683
  128OSM     NF13621   4.089   4.815   3.182  0.0771 -0.0147 -0.0652
  128OSM    HNF13622   4.137   4.742   3.230 -1.2229 -1.2050 -0.5451
  128OSM    C2S13623   3.947   4.798   3.198 -0.3210 -0.2769  0.5421
  128OSM    H2S13624   3.893   4.895   3.194 -0.2568 -0.2766 -1.0349
  128OSM    C3S13625   3.918   4.719   3.333  0.0007  0.1732  0.7534
  128OSM    H3S13626   3.968   4.621   3.323  1.8229  1.1339 -0.0467
  128OSM     O313627   3.789   4.673   3.354  0.2276 -0.4848 -0.6075
  128OSM    HO313628   3.744   4.667   3.270 -1.9498 -1.8496  0.5766
  128OSM    C4S13629   3.966   4.800   3.451 -0.1467 -0.2327  0.0856
  128OSM    H4S13630   3.909   4.893   3.460  0.3158 -0.1525  3.1966
  128OSM    C5S13631   4.054   4.762   3.547  0.7339 -0.3339 -0.3352
  128OSM    H5S13632   4.112   4.669   3.554 -0.8747 -1.2401  2.2349
  128OSM    C6S13633   4.089   4.842   3.669 -0.4556  0.4523  0.0153
  128OSM    H6S13634   4.078   4.953   3.660 -0.6550  0.4395  0.0924
  128OSM    H6T13635   4.197   4.823   3.688 -0.6482 -1.4922 -0.6774
  128OSM    C7S13636   4.004   4.795   3.789  0.3336 -0.0859  0.0326
  128OSM    H7S13637   4.034   4.691   3.811 -1.0624 -0.2658  1.2325
  128OSM    H7T13638   3.897   4.804   3.759  0.3498 -1.8661 -0.6681
  128OSM    C8S13639   4.034   4.873   3.919 -0.9622 -0.1726 -0.0077
  128OSM    H8S13640   4.028   4.984   3.919  0.2926 -0.0342  2.3460
  128OSM    H8T13641   4.140   4.848   3.941 -1.5049 -0.5329  2.4727
  128OSM    C9S13642   3.956   4.803   4.032 -0.8318 -0.4966  0.3627
  128OSM    H9S13643   3.974   4.693   4.037 -3.3023 -0.9182  1.7414
  128OSM    H9T13644   3.847   4.817   4.014 -0.6273  0.3871 -0.2424
  128OSM   C10S13645   3.987   4.862   4.176  0.4263  0.2875  0.2593
  128OSM   H10S13646   3.977   4.973   4.181  0.9150  0.4442 -1.6011
  128OSM   H10T13647   4.094   4.849   4.201  0.6400 -0.2034 -0.8613
  128OSM   C11S13648   3.885   4.800   4.280  0.6311  0.7222 -0.1824
  128OSM   H11S13649   3.899   4.691   4.299 -2.2370  0.3549  0.2777
  128OSM   H11T13650   3.786   4.821   4.236 -1.1082 -1.4224  2.3719
  128OSM   C12S13651   3.882   4.873   4.417 -0.4486  0.1232  0.5354
  128OSM   H12S13652   3.899   4.983   4.406 -0.0912  0.1037  0.8965
  128OSM   H12T13653   3.969   4.833   4.474 -0.4594 -2.4341 -1.1094
  128OSM   C13S13654   3.757   4.865   4.508  0.2286 -0.4362  0.3980
  128OSM   H13S13655   3.746   4.759   4.537  0.6480 -0.4076  0.6721
  128OSM   H13T13656   3.662   4.900   4.463  0.0633  0.2900  1.2956
  128OSM   C14S13657   3.777   4.942   4.636 -0.1507  0.0474 -0.1814
  128OSM   H14S13658   3.750   5.047   4.613 -0.2737  0.0757  0.0896
  128OSM   H14T13659   3.883   4.936   4.669 -0.5860 -0.4466  1.2253
  128OSM   C15S13660   3.695   4.890   4.753  0.0430  0.1931  0.6263
  128OSM   H15S13661   3.717   4.784   4.775 -1.6390 -0.0090  1.4841
  128OSM   H15T13662   3.594   4.899   4.707  0.9707  3.8917 -1.0731
  128OSM   C16S13663   3.722   4.973   4.874  0.6639  0.4554 -0.7859
  128OSM   H16S13664   3.653   4.944   4.955  1.1672 -0.5968 -0.7203
  128OSM   H16T13665   3.707   5.082   4.856  0.6172  0.6013  0.1103
  128OSM   C17S13666   3.861   4.963   4.938  0.3185  0.3674 -0.3379
  128OSM   H17S13667   3.927   5.033   4.881  0.0401 -1.3596 -2.9435
  128OSM   H17T13668   3.899   4.860   4.923 -0.7719  0.2520 -2.8226
  128OSM   C18S13669   3.867   5.003   5.089 -0.5004 -0.7127 -1.1327
  128OSM   H18S13670   3.962   4.984   5.144 -0.4327  2.4417  0.0852
  128OSM   H18T13671   3.781   4.956   5.141  0.2125 -0.5534  0.2355
  128OSM   H18U13672   3.872   5.112   5.112 -1.0790 -0.9247  0.0805
  128OSM    C1F13673   4.127   4.895   3.086 -0.4913  0.5449  0.1327
  128OSM     OF13674   4.053   4.973   3.029 -0.0540  0.0129 -0.5762
  128OSM    C2F13675   4.266   4.877   3.030  0.4864  0.2205  0.5470
  128OSM    H2F13676   4.250   4.899   2.922 -0.2628  0.7168  0.7476
  128OSM    H2G13677   4.293   4.770   3.036 -2.9579 -0.7587  0.7569
  128OSM    C3F13678   4.379   4.977   3.082  0.5929 -0.3535 -0.5527
  128OSM    H3F13679   4.359   5.077   3.039 -2.1630 -0.7428 -0.3643
  128OSM    H3G13680   4.471   4.948   3.028  2.4144  1.2330  1.5183
  128OSM    C4F13681   4.394   4.985   3.232  0.0478 -0.2664 -0.0757
  128OSM    H4F13682   4.451   4.899   3.274 -0.1566 -0.9327 -1.1457
  128OSM    H4G13683   4.291   4.977   3.274 -1.1775  1.3152 -2.5163
  128OSM    C5F13684   4.476   5.101   3.274  0.0270  0.8233  0.3684
  128OSM    H5F13685   4.421   5.189   3.236  1.5772  1.2270 -1.0713
  128OSM    H5G13686   4.578   5.110   3.231 -0.5365  0.5195 -1.0935
  128OSM    C6F13687   4.492   5.105   3.426  0.0060  0.3993  0.5261
  128OSM    H6F13688   4.534   5.204   3.457  1.0500  0.5779 -1.2976
  128OSM    H6G13689   4.566   5.032   3.465 -0.9966 -0.2799  1.1714
  128OSM    C7F13690   4.359   5.101   3.505  0.3217 -0.2601  0.5608
  128OSM    H7F13691   4.298   5.015   3.469 -0.5108  0.9491 -1.0456
  128OSM    H7G13692   4.301   5.191   3.475 -1.6582 -1.7050 -0.1789
  128OSM    C8F13693   4.368   5.074   3.652  0.3431  0.8548 -0.8516
  128OSM    H8F13694   4.425   4.980   3.668 -1.3495 -0.2199 -0.7970
  128OSM    H8G13695   4.263   5.052   3.684  0.9738  1.3655  1.8348
  128OSM    C9F13696   4.440   5.183   3.737 -0.3166 -0.2699  0.0440
  128OSM    H9F13697   4.494   5.257   3.676 -0.0782 -0.0914  0.4610
  128OSM   C10F13698   4.454   5.189   3.868 -0.0490  0.1798  0.1970
  128OSM   H10F13699   4.509   5.271   3.917 -1.3300  2.7350 -2.3436
  128OSM   C11F13700   4.398   5.084   3.960  0.5604  0.1483  0.5189
  128OSM   H11F13701   4.447   4.990   3.928  2.1610  1.4679 -1.1757
  128OSM   H11G13702   4.288   5.068   3.956  0.4059  1.2095  0.2098
  128OSM   C12F13703   4.438   5.102   4.108  0.1555  0.5017 -0.1966
  128OSM   H12F13704   4.379   5.191   4.140  0.4089  0.2983  0.8828
  128OSM   H12G13705   4.547   5.116   4.125  0.0154  0.6326  0.6698
  128OSM   C13F13706   4.391   4.970   4.172 -0.4591  0.5684 -0.2709
  128OSM   H13F13707   4.468   4.893   4.148 -0.2464  0.6066  0.2925
  128OSM   H13G13708   4.294   4.935   4.129  1.4057 -1.8912 -2.8706
  128OSM   C14F13709   4.363   4.975   4.325  0.4773  0.4360 -0.1055
  128OSM   H14F13710   4.324   4.877   4.357  1.2114  0.3110  0.4498
  128OSM   H14G13711   4.288   5.056   4.339 -0.7097 -0.0937 -2.7061
  128OSM   C15F13712   4.487   4.994   4.414  0.4325 -0.6197  0.4156
  128OSM   H15F13713   4.543   5.071   4.358 -0.6181 -1.8226 -2.5384
  128OSM   H15G13714   4.546   4.900   4.416 -1.4649 -1.8955 -0.0738
  128OSM   C16F13715   4.465   5.034   4.561  0.3082 -0.0835  0.7100
  128OSM   H16F13716   4.396   4.976   4.625 -0.3338  1.6984  1.7166
  128OSM   H16G13717   4.439   5.140   4.583  0.7282 -0.2009  1.8392
  128OSM   C17F13718   4.604   5.029   4.631  0.3629  0.5101 -0.4276
  128OSM   H17F13719   4.672   5.084   4.562 -0.6503  0.3845 -1.5724
  128OSM   H17G13720   4.633   4.922   4.632 -0.5606  0.2449  1.1086
  128OSM   C18F13721   4.611   5.079   4.778 -0.3105  0.2620 -0.1595
  128OSM   H18F13722   4.578   5.185   4.785  2.0571  1.0922 -0.7868
  128OSM   H18G13723   4.708   5.067   4.830 -0.2733 -4.2529 -0.8132
  128OSM   H18H13724   4.540   5.013   4.832  0.0789  0.8482  1.1103
  129OSM      N13725   0.151   4.088   1.798 -0.3774 -0.5904 -0.0346
  129OSM    C1513726   0.060   4.160   1.709 -0.4124 -0.0108  1.2716
  129OSM   H15A13727   0.114   4.207   1.628  2.0493  0.7212  3.2253
  129OSM   H15B13728   0.010   4.238   1.764 -1.0541 -0.2550  1.0494
  129OSM   H15C13729  -0.018   4.096   1.670 -0.4153  1.2703 -0.9636
  129OSM    C1413730   0.214   3.976   1.724  0.5297 -0.4210  0.4686
  129OSM   H14A13731   0.270   4.009   1.638  2.9806 -1.1774  1.6693
  129OSM   H14B13732   0.144   3.907   1.681 -0.3463 -0.4263  1.8218
  129OSM   H14C13733   0.274   3.913   1.787  0.1581 -0.3110  0.9403
  129OSM    C1313734   0.260   4.176   1.835  0.3601  0.5100  0.3571
  129OSM   H13A13735   0.311   4.224   1.754 -1.0589  4.2088  1.4292
  129OSM   H13B13736   0.330   4.125   1.900  0.7421  2.6431  1.7003
  129OSM   H13C13737   0.217   4.258   1.891  0.2171 -0.2043  1.3324
  129OSM    C1213738   0.071   4.045   1.921 -0.7000 -0.5143  0.5898
  129OSM   H12A13739  -0.020   4.011   1.875  0.1088 -1.5651 -0.2877
  129OSM   H12B13740   0.040   4.129   1.982 -2.1714 -0.4832 -0.1476
  129OSM    C1113741   0.124   3.934   2.015 -0.7748 -0.1219  0.4190
  129OSM   H11A13742   0.139   3.838   1.961 -2.8717 -0.4431  0.3252
  129OSM   H11B13743   0.042   3.899   2.082  1.5731  0.0236  3.6036
  129OSM      P13744   0.223   4.042   2.229  0.1037  0.5156 -0.1035
  129OSM    O1313745   0.352   4.090   2.271 -0.1552  0.0257 -0.1188
  129OSM    O1413746   0.117   4.144   2.225  0.2290 -0.3065  0.2600
  129OSM    O1113747   0.177   3.916   2.311 -0.4877  0.1694 -0.1722
  129OSM    O1213748   0.242   3.976   2.082  0.1496 -0.2344 -0.0305
  129OSM    C1S13749   0.188   3.903   2.449  0.2833 -0.3774  0.1508
  129OSM    H1S13750   0.276   3.956   2.493  0.8152 -2.3053  1.5516
  129OSM    H1T13751   0.213   3.796   2.463  0.3609 -0.4363 -0.3847
  129OSM     NF13752   0.068   3.934   2.660 -0.0320  0.6002 -0.4151
  129OSM    HNF13753   0.034   3.855   2.710  0.5104  0.7583  0.2308
  129OSM    C2S13754   0.050   3.928   2.520 -0.1484 -0.1617 -0.2221
  129OSM    H2S13755   0.018   4.030   2.490 -1.3339 -0.2278  0.7322
  129OSM    C3S13756  -0.064   3.842   2.479 -0.4541  0.7000  0.5179
  129OSM    H3S13757  -0.026   3.739   2.496 -0.4962  0.9052  2.0014
  129OSM     O313758  -0.082   3.837   2.333  0.1301 -0.3970  0.1675
  129OSM    HO313759  -0.000   3.880   2.309 -0.0754 -0.6612 -1.0798
  129OSM    C4S13760  -0.190   3.867   2.555  0.5215 -0.4323 -0.1262
  129OSM    H4S13761  -0.208   3.787   2.628  0.8311 -0.8193 -0.4658
  129OSM    C5S13762  -0.275   3.965   2.529 -0.1446 -0.1957  0.1195
  129OSM    H5S13763  -0.250   4.034   2.447  2.8473 -0.5173  0.6434
  129OSM    C6S13764  -0.413   3.987   2.592  0.1727 -0.1061 -0.5573
  129OSM    H6S13765  -0.483   3.973   2.507 -0.2967 -0.8064 -0.0702
  129OSM    H6T13766  -0.426   4.092   2.628  1.9595  0.1068 -0.4558
  129OSM    C7S13767  -0.449   3.901   2.718  0.6182 -0.3114 -0.0673
  129OSM    H7S13768  -0.439   3.793   2.694  0.5528  0.3691 -3.5818
  129OSM    H7T13769  -0.554   3.925   2.747  0.6032 -0.2449 -0.1793
  129OSM    C8S13770  -0.367   3.938   2.848 -0.0654  0.0358  0.2838
  129OSM    H8S13771  -0.394   4.043   2.872 -0.7030  0.5588 -2.4389
  129OSM    H8T13772  -0.259   3.927   2.823  0.2472  0.9707  1.1434
  129OSM    C9S13773  -0.393   3.841   2.960 -0.1318  0.3741 -0.9727
  129OSM    H9S13774  -0.359   3.737   2.941 -3.1378 -0.7806 -0.4768
  129OSM    H9T13775  -0.499   3.814   2.978  0.6294 -2.1879  0.1284
  129OSM   C10S13776  -0.336   3.897   3.094 -0.2721  0.4120 -0.3381
  129OSM   H10S13777  -0.388   3.994   3.112  0.8312  0.5810  2.5138
  129OSM   H10T13778  -0.228   3.924   3.091  0.3640 -1.7496  1.1701
  129OSM   C11S13779  -0.343   3.798   3.213 -0.4932 -0.4601 -0.8688
  129OSM   H11S13780  -0.296   3.701   3.183  1.3182 -0.4636  1.6534
  129OSM   H11T13781  -0.447   3.771   3.241 -0.2125 -0.8634 -0.1911
  129OSM   C12S13782  -0.277   3.852   3.338 -0.8113 -0.1001 -0.1334
  129OSM   H12S13783  -0.322   3.952   3.355  0.9653  0.4420  1.8853
  129OSM   H12T13784  -0.170   3.864   3.310 -0.0995  0.8276  2.5989
  129OSM   C13S13785  -0.282   3.762   3.466 -0.6312 -1.4245  0.1639
  129OSM   H13S13786  -0.234   3.662   3.457  2.0079 -0.3687  1.4608
  129OSM   H13T13787  -0.389   3.748   3.493 -0.3028  0.3181  2.7049
  129OSM   C14S13788  -0.205   3.836   3.576 -0.0673 -0.0342  0.9327
  129OSM   H14S13789  -0.256   3.931   3.602  0.0350  0.2161  0.2368
  129OSM   H14T13790  -0.102   3.857   3.538  0.0404 -1.0084  0.6760
  129OSM   C15S13791  -0.183   3.744   3.701  0.2873 -0.3062  0.0330
  129OSM   H15S13792  -0.142   3.651   3.656 -0.0773 -0.3335 -0.2525
  129OSM   H15T13793  -0.282   3.737   3.750 -0.1024  3.3917  0.0824
  129OSM   C16S13794  -0.100   3.811   3.807  0.3443 -0.1741  0.5010
  129OSM   H16S13795  -0.143   3.909   3.838 -0.7445 -0.1792 -0.9042
  129OSM   H16T13796  -0.003   3.843   3.764  0.7196 -0.5075  1.0877
  129OSM   C17S13797  -0.090   3.718   3.927  0.2525 -0.0647 -0.8303
  129OSM   H17S13798  -0.025   3.628   3.922 -0.3125 -0.5946  0.5534
  129OSM   H17T13799  -0.195   3.693   3.954  0.3908 -0.6709 -0.8441
  129OSM   C18S13800  -0.036   3.800   4.049 -0.4857  0.1321  0.2214
  129OSM   H18S13801  -0.105   3.879   4.085  0.1981  1.2347 -0.7862
  129OSM   H18T13802   0.059   3.855   4.028 -0.7815  1.0088  1.1049
  129OSM   H18U13803  -0.018   3.734   4.137 -1.6252 -2.8892 -1.6794
  129OSM    C1F13804   0.155   4.014   2.728 -0.4364 -0.0303 -0.2342
  129OSM     OF13805   0.212   4.108   2.672  0.0408  0.1884  0.7983
  129OSM    C2F13806   0.171   3.989   2.878  0.5435  0.1019 -0.2255
  129OSM    H2F13807   0.278   3.962   2.893  0.4027 -1.4671 -1.7494
  129OSM    H2G13808   0.107   3.901   2.902 -0.0372  0.5254 -0.2039
  129OSM    C3F13809   0.125   4.109   2.964  0.4646 -0.4170  0.2145
  129OSM    H3F13810   0.023   4.142   2.935  0.2938 -2.0395 -1.1884
  129OSM    H3G13811   0.196   4.193   2.950 -0.5182  0.4682  0.4106
  129OSM    C4F13812   0.115   4.077   3.110  0.0706 -0.9348 -0.1954
  129OSM    H4F13813   0.216   4.035   3.128  0.9776 -0.0237 -2.7262
  129OSM    H4G13814   0.044   3.994   3.131 -0.7968  0.1364  1.3542
  129OSM    C5F13815   0.070   4.193   3.205 -0.2727 -0.4776  0.0055
  129OSM    H5F13816  -0.027   4.233   3.169  1.2782  2.2542 -1.4185
  129OSM    H5G13817   0.149   4.268   3.186 -2.1986  1.6238 -0.1685
  129OSM    C6F13818   0.066   4.145   3.351  0.1928 -0.5025 -0.1538
  129OSM    H6F13819   0.148   4.072   3.370 -0.5092 -0.9263  1.4103
  129OSM    H6G13820  -0.023   4.079   3.338 -0.3262  0.1578 -0.0157
  129OSM    C7F13821   0.044   4.257   3.457  0.3780  0.3588 -0.2883
  129OSM    H7F13822  -0.030   4.322   3.404  0.4569  0.1342 -0.6766
  129OSM    H7G13823   0.143   4.304   3.474  1.6490 -2.6159  1.3527
  129OSM    C8F13824  -0.028   4.214   3.589 -0.0315  0.3869 -0.6025
  129OSM    H8F13825   0.022   4.128   3.640 -1.0126  1.5370  2.5113
  129OSM    H8G13826  -0.127   4.167   3.569 -0.4043  0.9807 -0.1611
  129OSM    C9F13827  -0.038   4.332   3.676  0.4675 -0.1464 -0.4612
  129OSM    H9F13828  -0.118   4.401   3.642  1.6089  0.7584 -1.3858
  129OSM   C10F13829   0.022   4.352   3.795 -0.3074  0.4959 -0.0738
  129OSM   H10F13830  -0.001   4.436   3.861 -3.3083 -1.4011  1.5576
  129OSM   C11F13831   0.121   4.253   3.861 -0.6260 -1.0470  0.0918
  129OSM   H11F13832   0.220   4.299   3.879 -1.8655  1.0665  1.9467
  129OSM   H11G13833   0.137   4.160   3.801 -0.4901 -2.1186  1.7178
  129OSM   C12F13834   0.072   4.190   3.995  0.1896 -0.2328  0.1782
  129OSM   H12F13835   0.150   4.122   4.036 -1.1240 -0.9361  1.6122
  129OSM   H12G13836  -0.024   4.138   3.978  0.0996  0.7813 -3.3336
  129OSM   C13F13837   0.059   4.292   4.107  0.1316  0.4184  0.2311
  129OSM   H13F13838  -0.034   4.346   4.081 -0.3525  0.0007  1.0525
  129OSM   H13G13839   0.147   4.360   4.100 -0.9571  1.7845 -0.5254
  129OSM   C14F13840   0.060   4.223   4.248 -0.3834  0.4704  0.3252
  129OSM   H14F13841   0.142   4.149   4.259  0.1459  1.2566  2.0141
  129OSM   H14G13842  -0.030   4.163   4.272 -1.8194  2.3289 -0.1530
  129OSM   C15F13843   0.061   4.321   4.367  0.0109  0.2595 -0.0743
  129OSM   H15F13844  -0.037   4.374   4.368 -0.7108 -1.0538  0.0701
  129OSM   H15G13845   0.140   4.396   4.341  0.7565  0.0302  1.4336
  129OSM   C16F13846   0.109   4.253   4.493  0.4893 -0.4109 -0.0344
  129OSM   H16F13847   0.153   4.327   4.563 -1.4313 -1.7920  2.8580
  129OSM   H16G13848   0.183   4.177   4.457 -0.1126  0.3509 -3.1589
  129OSM   C17F13849  -0.003   4.189   4.573 -0.0812 -0.1688 -0.2297
  129OSM   H17F13850  -0.046   4.096   4.531 -1.0159 -0.8508  2.0613
  129OSM   H17G13851  -0.084   4.266   4.575  0.1535  0.0743  0.1974
  129OSM   C18F13852   0.040   4.160   4.720 -0.2150 -0.1713 -0.2422
  129OSM   H18F13853  -0.044   4.141   4.790  0.0855 -1.9063 -0.3030
  129OSM   H18G13854   0.086   4.253   4.759  0.8075 -0.4512 -0.7424
  129OSM   H18H13855   0.120   4.083   4.726 -2.3764 -2.7679 -2.1869
  130OSM      N13856   5.763   5.516   2.165 -0.5732  0.5436  0.0778
  130OSM    C1513857   5.779   5.376   2.106  0.1137  0.2794 -0.4555
  130OSM   H15A13858   5.827   5.319   2.185 -1.9351 -1.0136 -0.0765
  130OSM   H15B13859   5.840   5.378   2.017  2.4787  2.5619  1.0672
  130OSM   H15C13860   5.679   5.340   2.086 -0.4007 -0.1826  2.4958
  130OSM    C1413861   5.893   5.584   2.197 -0.6261  0.2273  0.6160
  130OSM   H14A13862   5.878   5.678   2.248  0.9104  1.0440 -0.3660
  130OSM   H14B13863   5.966   5.603   2.120 -1.2472  1.7571  0.3599
  130OSM   H14C13864   5.946   5.516   2.262 -0.1717 -0.2991 -0.2856
  130OSM    C1313865   5.696   5.596   2.053 -0.8408  0.5122  0.1178
  130OSM   H13A13866   5.589   5.581   2.042 -0.7369 -0.0635 -0.1571
  130OSM   H13B13867   5.742   5.574   1.958 -1.7215 -0.1078 -0.1818
  130OSM   H13C13868   5.706   5.702   2.069  1.1561  0.4797 -0.6908
  130OSM    C1213869   5.680   5.512   2.289  0.7685 -0.1419 -0.3202
  130OSM   H12A13870   5.578   5.502   2.256  0.5892  3.8975 -1.4766
  130OSM   H12B13871   5.679   5.608   2.338 -0.3370 -0.1342 -0.3352
  130OSM    C1113872   5.723   5.406   2.402 -0.0677  0.2439 -0.4755
  130OSM   H11A13873   5.690   5.308   2.362 -1.3676  0.3045  0.4148
  130OSM   H11B13874   5.655   5.438   2.484 -0.8906  0.9224 -1.3830
  130OSM      P13875   5.924   5.497   2.533 -0.0002 -0.0353  0.0483
  130OSM    O1313876   6.071   5.481   2.525  0.4026  0.2796  0.3420
  130OSM    O1413877   5.881   5.636   2.504  1.0406  0.3831  0.2848
  130OSM    O1113878   5.876   5.452   2.675  0.5188  0.3192  0.3776
  130OSM    O1213879   5.856   5.395   2.433  0.1087 -0.3912  0.0340
  130OSM    C1S13880   5.968   5.408   2.779 -0.3581  0.1467 -0.8670
  130OSM    H1S13881   6.023   5.496   2.820 -0.5647  0.2766 -0.8632
  130OSM    H1T13882   6.034   5.325   2.748 -1.8573 -1.0929 -0.8249
  130OSM     NF13883   5.978   5.331   3.021 -0.0391  0.2686 -0.1643
  130OSM    HNF13884   6.015   5.238   3.023 -1.7361 -0.4606 -0.3980
  130OSM    C2S13885   5.892   5.346   2.905 -0.0474  0.1087 -0.5514
  130OSM    H2S13886   5.815   5.419   2.938 -0.9943  0.5861 -3.5050
  130OSM    C3S13887   5.820   5.214   2.866  0.1178  0.5219 -0.1618
  130OSM    H3S13888   5.899   5.142   2.835 -0.9718 -0.6510 -0.2650
  130OSM     O313889   5.730   5.242   2.760 -0.1344 -0.2443  0.4835
  130OSM    HO313890   5.754   5.332   2.735 -1.2956  0.1871  0.8658
  130OSM    C4S13891   5.754   5.157   2.986 -0.5641 -0.7015 -0.5422
  130OSM    H4S13892   5.813   5.086   3.046 -3.5094 -2.0007  1.0356
  130OSM    C5S13893   5.634   5.195   3.041  0.3725  0.5559  0.6967
  130OSM    H5S13894   5.560   5.256   2.987 -1.1923 -1.3945  0.5228
  130OSM    C6S13895   5.578   5.147   3.178 -0.9392 -1.1140  0.0759
  130OSM    H6S13896   5.487   5.089   3.152 -1.3904  0.3720 -1.9588
  130OSM    H6T13897   5.558   5.235   3.243 -1.8695 -1.2193 -0.0561
  130OSM    C7S13898   5.668   5.065   3.271 -0.6913 -0.1106  0.1141
  130OSM    H7S13899   5.705   4.976   3.215  1.1660  0.1490  0.8529
  130OSM    H7T13900   5.616   5.025   3.361 -0.6630  1.7338  0.9840
  130OSM    C8S13901   5.780   5.151   3.324 -0.0878 -0.6311  0.4780
  130OSM    H8S13902   5.752   5.227   3.400  4.2915  3.3950 -1.3539
  130OSM    H8T13903   5.833   5.202   3.240 -0.2424  1.2768  1.4701
  130OSM    C9S13904   5.903   5.071   3.373  0.2733  0.9196 -0.0267
  130OSM    H9S13905   5.996   5.131   3.380  2.1233 -1.7518 -0.1507
  130OSM    H9T13906   5.920   5.004   3.286 -2.2224  0.9871 -0.6420
  130OSM   C10S13907   5.876   4.995   3.505  0.0465  0.5662 -0.8493
  130OSM   H10S13908   5.924   4.895   3.498 -1.5117 -0.4096  1.3030
  130OSM   H10T13909   5.766   4.975   3.505 -0.0604  0.4419  3.1852
  130OSM   C11S13910   5.916   5.064   3.642 -0.6171  0.5275  0.0597
  130OSM   H11S13911   5.857   5.159   3.646 -1.3072  0.1867 -1.2524
  130OSM   H11T13912   6.024   5.086   3.649 -0.7701  1.1420  0.6430
  130OSM   C12S13913   5.881   4.971   3.762  0.4036  0.9984 -1.0929
  130OSM   H12S13914   5.933   4.873   3.757  0.4707  1.0428 -1.2487
  130OSM   H12T13915   5.773   4.950   3.751  0.7037  0.1645 -2.8318
  130OSM   C13S13916   5.902   5.040   3.900 -0.1360  0.2202 -1.1027
  130OSM   H13S13917   5.868   5.146   3.894  3.5534  1.6008 -0.3585
  130OSM   H13T13918   6.009   5.048   3.929 -0.3886  0.3498 -0.1388
  130OSM   C14S13919   5.827   4.960   4.009  0.7639  0.2326 -0.3791
  130OSM   H14S13920   5.856   4.853   3.999 -4.6742 -1.6246  0.6760
  130OSM   H14T13921   5.718   4.961   3.992  0.8383 -3.4050 -1.8166
  130OSM   C15S13922   5.873   5.009   4.149  1.3628  0.7871 -0.1974
  130OSM   H15S13923   5.887   5.119   4.145 -2.6192  1.4388 -0.0116
  130OSM   H15T13924   5.969   4.958   4.174 -0.3128 -2.5712 -0.0570
  130OSM   C16S13925   5.772   4.973   4.253  0.1879 -0.0759  0.1601
  130OSM   H16S13926   5.733   4.872   4.231 -2.3123  0.8214  0.1114
  130OSM   H16T13927   5.686   5.033   4.216 -0.1296 -1.1758 -0.9226
  130OSM   C17S13928   5.821   4.988   4.400 -0.8128 -0.4687  0.1797
  130OSM   H17S13929   5.854   5.092   4.422  0.5333 -1.4485  3.3859
  130OSM   H17T13930   5.908   4.921   4.414 -1.5450 -1.1193  2.0014
  130OSM   C18S13931   5.712   4.944   4.496  0.7643 -0.1679 -0.5545
  130OSM   H18S13932   5.724   4.837   4.522 -1.1847  0.0491  1.5482
  130OSM   H18T13933   5.607   4.968   4.468  0.5107  0.6936  1.0174
  130OSM   H18U13934   5.724   5.007   4.587  0.9618 -0.1591 -0.5865
  130OSM    C1F13935   6.044   5.423   3.090 -0.1331 -0.0838 -0.0132
  130OSM     OF13936   6.036   5.541   3.059 -0.4647 -0.0880 -0.1062
  130OSM    C2F13937   6.137   5.369   3.194  0.1790  0.0700  0.5059
  130OSM    H2F13938   6.202   5.292   3.148 -0.5063 -0.2394  0.0343
  130OSM    H2G13939   6.087   5.317   3.279  2.0759 -0.3601  1.4220
  130OSM    C3F13940   6.224   5.477   3.268 -0.2138  0.2218  0.0066
  130OSM    H3F13941   6.168   5.550   3.329 -0.9512 -1.8324  1.9200
  130OSM    H3G13942   6.263   5.542   3.188  0.9592 -0.6972 -0.1996
  130OSM    C4F13943   6.340   5.402   3.341  0.5585 -0.1200  0.3825
  130OSM    H4F13944   6.392   5.333   3.271  0.1035 -1.7317  1.5803
  130OSM    H4G13945   6.295   5.334   3.415 -1.1216  0.3026 -0.2123
  130OSM    C5F13946   6.445   5.499   3.400  0.3279 -0.1664  0.5523
  130OSM    H5F13947   6.391   5.582   3.449  3.6603  0.8905  2.7439
  130OSM    H5G13948   6.506   5.549   3.322 -1.4766  0.4694 -0.5217
  130OSM    C6F13949   6.525   5.434   3.506 -0.0090  0.0706  0.3202
  130OSM    H6F13950   6.621   5.410   3.456  0.4968  0.9615  0.8344
  130OSM    H6G13951   6.477   5.345   3.552  0.7965  1.2945  3.8619
  130OSM    C7F13952   6.570   5.520   3.624  0.6702 -1.0498  0.6409
  130OSM    H7F13953   6.479   5.577   3.653  1.1154  0.0432 -0.0603
  130OSM    H7G13954   6.639   5.600   3.591  0.5104 -0.9709  0.4945
  130OSM    C8F13955   6.625   5.434   3.740  0.1204  0.0745  0.0278
  130OSM    H8F13956   6.675   5.350   3.687  1.6617  0.3836  0.9288
  130OSM    H8G13957   6.532   5.396   3.787  1.6742 -0.8931  2.4774
  130OSM    C9F13958   6.706   5.509   3.836 -0.5017  0.3420  0.0614
  130OSM    H9F13959   6.789   5.568   3.795  1.0876 -0.8301  1.4046
  130OSM   C10F13960   6.688   5.518   3.970 -0.9637  0.0604  0.3365
  130OSM   H10F13961   6.768   5.575   4.018  0.2876 -2.3754  1.3098
  130OSM   C11F13962   6.578   5.459   4.058 -0.6268 -0.8658  0.3153
  130OSM   H11F13963   6.522   5.379   4.006  0.2953 -1.3547  0.0519
  130OSM   H11G13964   6.507   5.532   4.103  0.2791  1.1465 -1.3131
  130OSM   C12F13965   6.639   5.383   4.181 -0.0993 -0.2285  0.1187
  130OSM   H12F13966   6.708   5.310   4.134  0.0576 -1.0016  1.5163
  130OSM   H12G13967   6.562   5.314   4.223  0.7703 -1.2075  0.1280
  130OSM   C13F13968   6.714   5.457   4.284 -0.2669 -0.1650 -0.2305
  130OSM   H13F13969   6.651   5.533   4.336  0.0126 -0.3708  0.4332
  130OSM   H13G13970   6.803   5.516   4.250  0.4945 -0.2666  1.4525
  130OSM   C14F13971   6.769   5.372   4.400  0.6703  0.0598  0.2821
  130OSM   H14F13972   6.847   5.302   4.363  2.2439  2.1379 -0.5351
  130OSM   H14G13973   6.683   5.319   4.446  0.2894  0.9322  0.6086
  130OSM   C15F13974   6.817   5.461   4.509 -0.2916  0.4499 -0.7764
  130OSM   H15F13975   6.744   5.542   4.529 -0.8803  0.2942 -2.1375
  130OSM   H15G13976   6.914   5.502   4.474  1.0527 -1.2846  0.7343
  130OSM   C16F13977   6.855   5.383   4.633  0.3678  0.2901  0.5638
  130OSM   H16F13978   6.960   5.396   4.666 -0.1180 -0.2105  2.4481
  130OSM   H16G13979   6.848   5.275   4.609 -0.0896  0.5489 -0.5201
  130OSM   C17F13980   6.777   5.408   4.762  0.0170  0.7245  0.8884
  130OSM   H17F13981   6.807   5.335   4.840  1.1230  1.1851  0.9129
  130OSM   H17G13982   6.674   5.388   4.725  0.2218  1.3445 -0.0398
  130OSM   C18F13983   6.769   5.550   4.819  0.0201 -0.4595  0.0027
  130OSM   H18F13984   6.682   5.563   4.887 -0.4117  0.2173 -0.6769
  130OSM   H18G13985   6.760   5.618   4.732 -1.3726  0.5484  0.9051
  130OSM   H18H13986   6.861   5.569   4.879 -0.9054  0.4548  1.1873
  131OSM      N13987   5.349   5.021   2.226 -0.9194  0.7591 -0.5568
  131OSM    C1513988   5.462   5.028   2.127 -0.0233 -0.7056 -0.6347
  131OSM   H15A13989   5.560   5.033   2.172  0.0481  3.3156 -0.8329
  131OSM   H15B13990   5.457   5.124   2.078 -3.5080  1.0523  2.6117
  131OSM   H15C13991   5.450   4.955   2.049 -1.3943 -0.5314 -0.6112
  131OSM    C1413992   5.364   5.130   2.333  0.6804  0.4266  0.2555
  131OSM   H14A13993   5.272   5.131   2.389  0.3798 -0.7840 -0.1863
  131OSM   H14B13994   5.372   5.230   2.294 -2.3704  0.9101  0.6302
  131OSM   H14C13995   5.446   5.102   2.399  0.4447 -1.0681 -0.0379
  131OSM    C1313996   5.218   5.030   2.160 -0.3807  0.1685  0.3219
  131OSM   H13A13997   5.134   5.031   2.228 -1.2280 -0.4718 -0.6815
  131OSM   H13B13998   5.207   4.945   2.093 -3.2019  1.6750 -1.3160
  131OSM   H13C13999   5.216   5.116   2.095 -1.0982  0.4939  0.7627
  131OSM    C1214000   5.357   4.885   2.296  0.0754 -0.3722 -1.8003
  131OSM   H12A14001   5.460   4.869   2.324 -0.1205  0.0537 -0.7730
  131OSM   H12B14002   5.327   4.806   2.229  0.3134 -0.5976 -1.6431
  131OSM    C1114003   5.271   4.862   2.422  0.2636  0.0607  0.0789
  131OSM   H11A14004   5.296   4.934   2.503  0.5463  0.1211 -0.0592
  131OSM   H11B14005   5.297   4.760   2.457 -0.9761 -0.0736  0.6671
  131OSM      P14006   5.036   4.753   2.425 -0.1003  0.7883  0.4706
  131OSM    O1314007   4.894   4.788   2.431  0.4876 -0.0524 -0.0749
  131OSM    O1414008   5.081   4.652   2.325  0.2882 -0.5158 -0.1867
  131OSM    O1114009   5.077   4.701   2.573 -0.1251 -0.1810 -0.2696
  131OSM    O1214010   5.131   4.881   2.398  0.4705 -0.0372 -0.1539
  131OSM    C1S14011   5.091   4.796   2.680 -0.0206 -0.4659 -0.2467
  131OSM    H1S14012   5.013   4.874   2.672  0.7868  0.4739  0.7822
  131OSM    H1T14013   5.196   4.831   2.689  0.8576 -2.8163 -0.4741
  131OSM     NF14014   5.042   4.820   2.931  0.2729 -0.0509  0.1370
  131OSM    HNF14015   5.118   4.802   2.994  1.2375 -1.8360 -1.4376
  131OSM    C2S14016   5.038   4.728   2.815 -0.4925  0.4777 -0.1138
  131OSM    H2S14017   4.932   4.695   2.810 -0.1936 -0.5326  0.0049
  131OSM    C3S14018   5.128   4.603   2.841 -0.1889 -0.0511  0.0676
  131OSM    H3S14019   5.235   4.631   2.848  0.8011 -3.0135 -1.4451
  131OSM     O314020   5.135   4.510   2.738 -0.4977 -0.1858 -0.0974
  131OSM    HO314021   5.112   4.577   2.672 -0.2519 -0.8653 -0.8985
  131OSM    C4S14022   5.083   4.537   2.970 -0.2440 -0.0081  0.0857
  131OSM    H4S14023   5.152   4.541   3.056  0.0035  0.7918 -0.1359
  131OSM    C5S14024   4.969   4.474   2.984  0.2476 -0.4455 -0.6644
  131OSM    H5S14025   4.902   4.468   2.897  2.2007  1.2557 -2.3694
  131OSM    C6S14026   4.922   4.407   3.116 -0.0457 -0.1049 -0.4400
  131OSM    H6S14027   4.925   4.296   3.106  0.0344 -0.2283  0.7696
  131OSM    H6T14028   4.815   4.427   3.135  0.0943 -0.8787  1.3161
  131OSM    C7S14029   5.000   4.440   3.243 -0.6723 -0.9874 -0.5205
  131OSM    H7S14030   5.020   4.549   3.246  1.1423 -1.2977  0.5146
  131OSM    H7T14031   5.104   4.402   3.239 -0.3321 -0.2472  0.6744
  131OSM    C8S14032   4.934   4.417   3.376  0.0932 -0.1033 -0.3455
  131OSM    H8S14033   4.913   4.308   3.383 -0.4784  0.0400  0.1872
  131OSM    H8T14034   4.836   4.469   3.382 -2.0379 -3.8648  0.8503
  131OSM    C9S14035   5.024   4.468   3.494  0.8186 -0.1053  0.5106
  131OSM    H9S14036   5.051   4.575   3.503  0.7775 -0.2907  4.1468
  131OSM    H9T14037   5.116   4.405   3.490  0.8679 -0.1094  1.5535
  131OSM   C10S14038   4.967   4.431   3.635  0.5015  0.2450  0.7324
  131OSM   H10S14039   4.927   4.328   3.642 -0.2882  0.3236 -1.6425
  131OSM   H10T14040   4.884   4.503   3.650 -0.7801 -1.5555  2.6270
  131OSM   C11S14041   5.065   4.469   3.746 -0.3757  0.1290 -0.8417
  131OSM   H11S14042   5.101   4.574   3.752  0.2405 -0.1653  1.9957
  131OSM   H11T14043   5.153   4.405   3.725 -0.9146 -0.8685 -0.1421
  131OSM   C12S14044   5.021   4.421   3.881 -0.6334  0.2606  0.0765
  131OSM   H12S14045   4.996   4.313   3.878 -0.4857  0.2509 -1.9661
  131OSM   H12T14046   4.936   4.487   3.910  0.2299  0.8126  1.4796
  131OSM   C13S14047   5.131   4.445   3.991 -0.7326  0.6630 -0.3419
  131OSM   H13S14048   5.161   4.551   3.980 -1.7429  1.1101  1.0407
  131OSM   H13T14049   5.224   4.386   3.975 -1.8096 -0.8705 -1.2156
  131OSM   C14S14050   5.090   4.395   4.128 -0.4078 -0.1182  0.4481
  131OSM   H14S14051   5.117   4.289   4.147  0.9850  0.4950  2.1343
  131OSM   H14T14052   4.981   4.409   4.146 -0.3073  2.0907 -0.3426
  131OSM   C15S14053   5.165   4.475   4.234  0.0744  0.4067  0.6289
  131OSM   H15S14054   5.166   4.583   4.211 -1.0109  0.5323  1.1396
  131OSM   H15T14055   5.274   4.454   4.247  0.1240 -0.4151 -0.8923
  131OSM   C16S14056   5.102   4.457   4.367  0.2893  0.0196  0.1102
  131OSM   H16S14057   5.096   4.347   4.381  0.9536 -0.0280  0.0214
  131OSM   H16T14058   4.997   4.492   4.373  0.1800 -0.5522  2.1759
  131OSM   C17S14059   5.187   4.499   4.486  0.3508  0.3131 -0.5828
  131OSM   H17S14060   5.176   4.609   4.498  0.5421  0.2496  0.2367
  131OSM   H17T14061   5.294   4.473   4.472  0.2106 -0.7514  0.2345
  131OSM   C18S14062   5.137   4.439   4.613 -0.4368  0.1353 -0.4963
  131OSM   H18S14063   5.182   4.476   4.707 -2.8796 -0.9407  1.2070
  131OSM   H18T14064   5.155   4.329   4.612 -1.4842 -0.0538 -0.2721
  131OSM   H18U14065   5.027   4.449   4.624 -0.5399 -1.1114 -0.1317
  131OSM    C1F14066   4.941   4.910   2.961 -0.2836 -0.1349 -0.6690
  131OSM     OF14067   4.844   4.922   2.882 -0.4767  0.1575  0.0090
  131OSM    C2F14068   4.946   4.974   3.102  0.3926 -0.3872 -0.1546
  131OSM    H2F14069   4.851   5.031   3.110  0.2786 -0.4061 -1.2225
  131OSM    H2G14070   5.026   5.049   3.122  0.1329 -0.3773  0.9020
  131OSM    C3F14071   4.945   4.863   3.211  0.5208 -0.3704  0.2849
  131OSM    H3F14072   5.048   4.844   3.249  1.6918  1.2831 -1.8505
  131OSM    H3G14073   4.893   4.772   3.174  0.2534  0.5998 -1.9112
  131OSM    C4F14074   4.878   4.928   3.335 -0.4018  0.4347  0.0565
  131OSM    H4F14075   4.768   4.929   3.319 -0.2457 -0.1017 -1.1194
  131OSM    H4G14076   4.910   5.034   3.338  0.9621  0.0453 -0.0754
  131OSM    C5F14077   4.908   4.853   3.461 -0.1512 -0.9628 -0.9705
  131OSM    H5F14078   5.018   4.849   3.478 -0.3753  2.9890  3.5149
  131OSM    H5G14079   4.865   4.751   3.453  1.3784 -1.9677  1.9964
  131OSM    C6F14080   4.850   4.926   3.587  0.3616  0.4585  0.5408
  131OSM    H6F14081   4.750   4.966   3.558  0.2654  0.2841  0.6369
  131OSM    H6G14082   4.911   5.017   3.607 -0.7740  0.9932  1.7828
  131OSM    C7F14083   4.849   4.839   3.707 -0.2609 -1.0445  0.0544
  131OSM    H7F14084   4.954   4.813   3.734  0.6179  1.4433 -0.7253
  131OSM    H7G14085   4.800   4.740   3.694 -1.1024 -0.5303 -0.8090
  131OSM    C8F14086   4.796   4.907   3.833 -0.6140 -0.3896  0.0355
  131OSM    H8F14087   4.698   4.955   3.814 -1.8747 -3.0038 -0.4836
  131OSM    H8G14088   4.870   4.985   3.862 -1.7613  0.8705 -0.3221
  131OSM    C9F14089   4.767   4.807   3.943 -0.3512  0.2322  0.3750
  131OSM    H9F14090   4.685   4.734   3.942  1.0657 -1.4219  0.4834
  131OSM   C10F14091   4.850   4.794   4.057  0.3843  0.0107  0.2662
  131OSM   H10F14092   4.819   4.713   4.125 -0.6670  0.3428  0.2061
  131OSM   C11F14093   4.976   4.876   4.092  0.3142 -0.1730 -0.2248
  131OSM   H11F14094   5.001   4.964   4.028  2.4389  0.7531  1.7307
  131OSM   H11G14095   5.062   4.807   4.077 -1.9881 -3.3263  0.1621
  131OSM   C12F14096   4.971   4.939   4.234  1.0664 -0.5893 -0.0039
  131OSM   H12F14097   4.875   4.994   4.229  1.4254  0.1145  0.5713
  131OSM   H12G14098   5.061   4.999   4.260  1.3616 -2.4440  3.9083
  131OSM   C13F14099   4.966   4.825   4.333  0.0543 -0.6404  0.7377
  131OSM   H13F14100   5.063   4.772   4.332  0.7292  0.5316 -1.2106
  131OSM   H13G14101   4.877   4.763   4.311 -3.8148  2.8681  4.4846
  131OSM   C14F14102   4.932   4.880   4.476 -0.4769 -0.6348 -0.0729
  131OSM   H14F14103   4.923   4.784   4.531 -0.5001 -1.8236 -2.0415
  131OSM   H14G14104   4.832   4.929   4.471 -0.8885 -1.4055  0.3483
  131OSM   C15F14105   5.029   4.972   4.550 -0.5770 -0.6821  0.7749
  131OSM   H15F14106   5.066   5.054   4.484 -0.4370 -1.3708 -0.0233
  131OSM   H15G14107   5.119   4.922   4.592  0.4727  0.8112  0.3785
  131OSM   C16F14108   4.969   5.049   4.671 -0.5753 -0.3288  0.0791
  131OSM   H16F14109   4.938   4.970   4.742  1.2617 -0.2237  1.0467
  131OSM   H16G14110   4.886   5.115   4.635 -0.4944 -0.5955 -0.6155
  131OSM   C17F14111   5.072   5.147   4.730  0.4861 -0.0027 -0.0664
  131OSM   H17F14112   5.006   5.212   4.792 -0.3329 -0.2150 -0.7068
  131OSM   H17G14113   5.110   5.208   4.645 -0.8925  0.2047 -0.5609
  131OSM   C18F14114   5.175   5.092   4.820  0.4483 -0.1066 -0.0086
  131OSM   H18F14115   5.150   5.011   4.892  3.2516 -2.2843 -1.2798
  131OSM   H18G14116   5.206   5.167   4.895  1.8686 -0.2260 -0.4250
  131OSM   H18H14117   5.266   5.067   4.760 -0.6412  0.8921 -2.1900
  132OSM      N14118   2.983   4.271   2.460  0.4061 -1.2589 -0.0840
  132OSM    C1514119   3.056   4.404   2.459  0.0138  0.1805 -0.0430
  132OSM   H15A14120   3.008   4.474   2.525 -2.2266 -0.8660 -0.4804
  132OSM   H15B14121   3.064   4.445   2.360 -0.2185 -0.4012 -0.3056
  132OSM   H15C14122   3.157   4.380   2.491 -0.4423 -2.3354 -0.3029
  132OSM    C1414123   2.995   4.219   2.598  0.2457 -0.2963  0.6002
  132OSM   H14A14124   2.938   4.129   2.615 -2.7600  1.1259 -1.1170
  132OSM   H14B14125   2.943   4.287   2.663  1.2964 -0.8670  2.0977
  132OSM   H14C14126   3.101   4.205   2.614  1.3189  2.5443 -2.7079
  132OSM    C1314127   2.838   4.286   2.426  0.2887  0.0743 -0.6566
  132OSM   H13A14128   2.773   4.218   2.478  0.1022  0.2994 -0.5925
  132OSM   H13B14129   2.822   4.276   2.319  0.7923  1.6320 -0.9046
  132OSM   H13C14130   2.810   4.386   2.458 -0.2990 -0.4384  0.4788
  132OSM    C1214131   3.051   4.179   2.354  0.4349  0.4151  0.0270
  132OSM   H12A14132   3.065   4.228   2.259  2.0972 -1.3204 -0.6983
  132OSM   H12B14133   2.986   4.092   2.347 -1.3560  1.5284  1.8956
  132OSM    C1114134   3.194   4.123   2.386  0.5804 -0.1464 -0.1559
  132OSM   H11A14135   3.222   4.068   2.294  1.8018 -0.3452  0.3063
  132OSM   H11B14136   3.182   4.046   2.466  3.9305 -0.5200  0.1377
  132OSM      P14137   3.393   4.201   2.545  0.2358 -0.0033  0.0996
  132OSM    O1314138   3.458   4.070   2.529 -0.7658 -0.0855 -0.5636
  132OSM    O1414139   3.476   4.322   2.554  0.1862  0.1147 -0.1178
  132OSM    O1114140   3.300   4.183   2.673 -0.3013  0.2322  0.5902
  132OSM    O1214141   3.285   4.222   2.428 -0.0406 -0.5034  0.2551
  132OSM    C1S14142   3.305   4.288   2.774  0.4330  0.5213 -0.2944
  132OSM    H1S14143   3.223   4.356   2.744  0.6888  0.8874 -0.1733
  132OSM    H1T14144   3.393   4.356   2.771 -0.7700  2.3017  1.4853
  132OSM     NF14145   3.259   4.327   3.008 -0.3136  0.3160 -0.6929
  132OSM    HNF14146   3.323   4.356   3.079  0.0332  1.4819 -1.4503
  132OSM    C2S14147   3.295   4.222   2.917  0.0893  0.5226  0.5282
  132OSM    H2S14148   3.212   4.148   2.921  1.6037 -1.2285  0.6489
  132OSM    C3S14149   3.424   4.150   2.954 -0.0779 -0.4109  1.4266
  132OSM    H3S14150   3.513   4.213   2.978 -0.0638 -0.4276  1.4199
  132OSM     O314151   3.470   4.060   2.856 -0.0591 -0.0814  0.5119
  132OSM    HO314152   3.404   4.077   2.788 -0.6212  0.7837  1.2444
  132OSM    C4S14153   3.406   4.077   3.078 -0.1745  0.0302  0.1496
  132OSM    H4S14154   3.464   4.130   3.155  0.5341  1.2414 -1.1668
  132OSM    C5S14155   3.327   3.972   3.116 -0.2028 -0.3781  0.0052
  132OSM    H5S14156   3.267   3.927   3.035 -0.0268 -1.0975  0.2624
  132OSM    C6S14157   3.305   3.917   3.253  0.1813  0.6267 -0.3112
  132OSM    H6S14158   3.380   3.838   3.276 -1.6589 -1.2122 -0.2788
  132OSM    H6T14159   3.213   3.859   3.274  0.8422 -0.2120  0.3849
  132OSM    C7S14160   3.325   4.022   3.366 -0.0703 -0.2856  0.1628
  132OSM    H7S14161   3.270   4.117   3.353  1.1815  0.3309 -0.8361
  132OSM    H7T14162   3.435   4.036   3.363  0.3539 -3.1761 -1.4728
  132OSM    C8S14163   3.275   3.967   3.506 -0.3113 -0.3233 -0.1851
  132OSM    H8S14164   3.324   3.868   3.519 -1.7389 -1.4741 -2.7903
  132OSM    H8T14165   3.166   3.948   3.511 -0.0656 -1.7272  4.4634
  132OSM    C9S14166   3.316   4.057   3.627 -0.0870  0.2487  0.3258
  132OSM    H9S14167   3.297   4.156   3.581  1.1212  0.3962  0.1188
  132OSM    H9T14168   3.424   4.035   3.635 -0.0720 -0.9073 -2.1244
  132OSM   C10S14169   3.233   4.019   3.753  0.8903  0.5533  0.0982
  132OSM   H10S14170   3.228   3.908   3.747  1.0598  0.4733  1.3037
  132OSM   H10T14171   3.127   4.051   3.750  0.8557  0.5249  0.9566
  132OSM   C11S14172   3.313   4.062   3.873  0.1478  0.3662  0.5697
  132OSM   H11S14173   3.342   4.169   3.873  0.5662  0.2806 -1.2504
  132OSM   H11T14174   3.410   4.008   3.860 -0.5703 -0.7341 -0.3720
  132OSM   C12S14175   3.251   4.006   4.003 -0.1257  0.3373  0.2482
  132OSM   H12S14176   3.251   3.895   4.000 -0.8740  0.3298 -3.0211
  132OSM   H12T14177   3.149   4.048   4.012 -0.2266  0.0552  0.4428
  132OSM   C13S14178   3.328   4.053   4.131 -0.1397 -0.2423  0.5267
  132OSM   H13S14179   3.344   4.163   4.133  1.8661 -0.4736 -0.1884
  132OSM   H13T14180   3.427   4.004   4.122 -0.1480  0.0214 -1.5137
  132OSM   C14S14181   3.262   4.010   4.261 -0.0402 -0.1475 -0.4173
  132OSM   H14S14182   3.269   3.900   4.278 -0.4274 -0.0859  0.1738
  132OSM   H14T14183   3.153   4.027   4.250 -0.0861 -0.8493 -1.1028
  132OSM   C15S14184   3.327   4.072   4.388 -0.1214 -0.1965  0.0905
  132OSM   H15S14185   3.306   4.181   4.380 -1.2917 -0.4391 -0.3124
  132OSM   H15T14186   3.435   4.045   4.391 -0.0309  0.0932 -0.3507
  132OSM   C16S14187   3.260   4.021   4.521  0.4162  0.0146  0.1359
  132OSM   H16S14188   3.273   3.911   4.524 -0.7447 -0.1602 -0.6448
  132OSM   H16T14189   3.152   4.046   4.520  0.3664 -0.1352 -1.5198
  132OSM   C17S14190   3.321   4.080   4.642 -0.5352  0.0675  0.5654
  132OSM   H17S14191   3.313   4.190   4.653  3.7192  0.8658 -1.9580
  132OSM   H17T14192   3.429   4.065   4.619 -0.0112  1.4083  1.9480
  132OSM   C18S14193   3.280   4.011   4.767  0.0566 -0.1420 -0.3035
  132OSM   H18S14194   3.170   3.997   4.776 -0.1323  2.0079  1.6516
  132OSM   H18T14195   3.314   4.060   4.861 -2.1935  0.0447  0.4654
  132OSM   H18U14196   3.318   3.907   4.771  1.2941  0.3475  1.9382
  132OSM    C1F14197   3.146   4.390   3.015  0.1557 -0.5964  0.3916
  132OSM     OF14198   3.055   4.360   2.944 -0.2529  0.0585 -0.0421
  132OSM    C2F14199   3.141   4.507   3.110  0.0026  0.5236  0.6998
  132OSM    H2F14200   3.235   4.566   3.101 -0.4283  0.8816 -2.4608
  132OSM    H2G14201   3.136   4.473   3.216 -1.5149  2.8977  1.4794
  132OSM    C3F14202   3.012   4.592   3.095  0.2936  0.2320 -0.0014
  132OSM    H3F14203   2.920   4.530   3.096  1.2635 -1.2761 -0.4097
  132OSM    H3G14204   3.018   4.654   3.003  1.9006 -0.2347 -0.2346
  132OSM    C4F14205   3.009   4.697   3.205  0.1456 -0.4534 -0.3942
  132OSM    H4F14206   2.975   4.794   3.162 -0.5121  0.3079  1.7050
  132OSM    H4G14207   3.110   4.715   3.246  1.1030 -1.6367 -2.1211
  132OSM    C5F14208   2.913   4.673   3.327  0.0990  0.1021  0.0617
  132OSM    H5F14209   2.923   4.574   3.378  2.1832  1.1180  1.7627
  132OSM    H5G14210   2.812   4.693   3.283 -0.2605  0.1357  0.8959
  132OSM    C6F14211   2.926   4.787   3.435 -0.8994 -0.4324  0.0619
  132OSM    H6F14212   2.831   4.828   3.475  0.2237  0.1174  2.3436
  132OSM    H6G14213   2.988   4.870   3.395 -1.7616  0.4417  0.5162
  132OSM    C7F14214   3.013   4.740   3.560 -0.1821 -0.4045  0.6984
  132OSM    H7F14215   3.109   4.716   3.509 -0.3657  4.0762 -2.3656
  132OSM    H7G14216   2.952   4.661   3.608 -0.5691  0.1824  1.1801
  132OSM    C8F14217   3.031   4.864   3.659  0.0835  0.2486 -0.2195
  132OSM    H8F14218   2.929   4.899   3.684  0.0726 -0.9065  1.4872
  132OSM    H8G14219   3.066   4.946   3.593 -2.6264  1.2895 -0.5036
  132OSM    C9F14220   3.117   4.828   3.772  0.4048  0.6836  0.6280
  132OSM    H9F14221   3.224   4.839   3.750  0.4079 -0.8709 -0.2583
  132OSM   C10F14222   3.079   4.789   3.891  0.1772  0.1223  0.7141
  132OSM   H10F14223   3.156   4.795   3.969 -0.0911 -0.1112  1.0014
  132OSM   C11F14224   2.938   4.766   3.939 -0.6069 -0.0999 -0.6235
  132OSM   H11F14225   2.914   4.660   3.962  2.4279 -1.0905 -1.5645
  132OSM   H11G14226   2.860   4.786   3.862 -1.0025  3.1228  0.4411
  132OSM   C12F14227   2.933   4.858   4.066  0.7106  0.9057 -0.2953
  132OSM   H12F14228   2.830   4.896   4.081  1.4263  1.9386  2.6685
  132OSM   H12G14229   2.987   4.955   4.077 -0.0999  1.2622  0.7118
  132OSM   C13F14230   2.959   4.777   4.192  1.1423 -0.0471  0.6684
  132OSM   H13F14231   3.068   4.758   4.189  1.3742  1.3196 -0.2217
  132OSM   H13G14232   2.907   4.680   4.175 -1.0080  1.4832 -2.4445
  132OSM   C14F14233   2.916   4.843   4.323 -0.5015 -0.7446  0.1538
  132OSM   H14F14234   2.807   4.864   4.323 -0.5944 -1.1850 -0.5591
  132OSM   H14G14235   2.959   4.945   4.328 -0.3772 -0.7940  0.0948
  132OSM   C15F14236   2.964   4.758   4.438 -0.2026  0.5158  0.2291
  132OSM   H15F14237   2.938   4.652   4.416 -2.2472  0.9694  0.2840
  132OSM   H15G14238   2.906   4.779   4.530  1.8165 -0.8963  1.9251
  132OSM   C16F14239   3.121   4.747   4.469 -0.7961 -0.7073  0.8341
  132OSM   H16F14240   3.156   4.676   4.391 -0.9149  0.4523 -0.3136
  132OSM   H16G14241   3.124   4.699   4.569  0.6421 -0.1842  1.0746
  132OSM   C17F14242   3.200   4.879   4.468  0.3893 -0.2956  0.5358
  132OSM   H17F14243   3.146   4.962   4.517  0.6900  1.6181 -2.1729
  132OSM   H17G14244   3.195   4.918   4.364  0.5830  2.1801  1.3944
  132OSM   C18F14245   3.346   4.878   4.517  0.8389  0.1940 -0.4835
  132OSM   H18F14246   3.412   4.824   4.446  1.3543 -0.4691  0.4817
  132OSM   H18G14247   3.352   4.837   4.620 -3.3102  1.6170  0.5505
  132OSM   H18H14248   3.385   4.980   4.537 -0.9746  0.7023  0.7246
  133OSM      N14249   2.205   5.363   2.303 -0.3175  0.6336  0.1424
  133OSM    C1514250   2.351   5.356   2.325 -0.0167  0.1658 -0.4577
  133OSM   H15A14251   2.377   5.426   2.403 -1.5955 -0.2283  0.4776
  133OSM   H15B14252   2.407   5.369   2.234 -1.4054 -1.5440 -1.6133
  133OSM   H15C14253   2.376   5.259   2.366  0.9627  1.0184  1.0899
  133OSM    C1414254   2.182   5.494   2.244 -0.3720  0.0257 -0.0658
  133OSM   H14A14255   2.081   5.503   2.207 -0.3854  0.9255  0.1558
  133OSM   H14B14256   2.240   5.502   2.153 -1.3588 -2.0163 -0.9182
  133OSM   H14C14257   2.203   5.582   2.303  1.8696 -0.2768 -0.2990
  133OSM    C1314258   2.178   5.255   2.202  0.0381  0.0188  0.0542
  133OSM   H13A14259   2.251   5.261   2.123  1.6998  1.3491  1.5931
  133OSM   H13B14260   2.083   5.276   2.156 -0.9582 -2.8508  0.5552
  133OSM   H13C14261   2.168   5.151   2.230 -0.3241 -0.9671 -3.3824
  133OSM    C1214262   2.127   5.342   2.436 -0.4420 -0.1772  0.1443
  133OSM   H12A14263   2.163   5.249   2.479  0.5104 -0.4935 -1.2709
  133OSM   H12B14264   2.020   5.333   2.424 -0.4478  1.5350 -1.4179
  133OSM    C1114265   2.135   5.446   2.548 -0.0652 -0.4165  0.0584
  133OSM   H11A14266   2.242   5.467   2.567 -0.1994  1.6696 -1.2430
  133OSM   H11B14267   2.088   5.398   2.636  1.4103  2.1249  2.3513
  133OSM      P14268   1.928   5.607   2.542 -0.1684 -0.1583  0.2762
  133OSM    O1314269   1.893   5.730   2.458 -0.1107 -0.1453 -0.2400
  133OSM    O1414270   1.839   5.492   2.526 -0.5036  0.1584  0.1887
  133OSM    O1114271   1.937   5.640   2.696 -0.4323 -0.1058  0.5104
  133OSM    O1214272   2.076   5.567   2.503 -0.0801 -0.1884 -0.1969
  133OSM    C1S14273   2.018   5.753   2.729  0.8730  0.1171  0.3468
  133OSM    H1S14274   1.983   5.844   2.675 -1.3126 -0.3413  0.8951
  133OSM    H1T14275   2.124   5.726   2.710  0.4438 -0.8780 -0.7915
  133OSM     NF14276   2.070   5.896   2.922  0.3634  0.1419 -0.1487
  133OSM    HNF14277   2.159   5.885   2.967  1.2783 -1.6452 -2.2536
  133OSM    C2S14278   2.003   5.768   2.881 -0.0358 -0.1715  0.0148
  133OSM    H2S14279   1.895   5.781   2.907 -0.6391 -2.8607 -0.8420
  133OSM    C3S14280   2.063   5.649   2.947 -0.1560  0.5301  0.1433
  133OSM    H3S14281   2.167   5.636   2.909 -0.6052 -0.4409 -0.7912
  133OSM     O314282   2.001   5.525   2.924  0.4752 -0.1856 -0.1192
  133OSM    HO314283   1.950   5.532   2.843 -0.5961 -2.6260  0.2413
  133OSM    C4S14284   2.049   5.658   3.096 -0.4955 -0.3230  0.3683
  133OSM    H4S14285   1.949   5.675   3.139 -0.7249 -2.3596  0.7667
  133OSM    C5S14286   2.150   5.649   3.182 -0.7233  0.4688  0.0469
  133OSM    H5S14287   2.252   5.637   3.144 -0.4109  0.4461  0.8673
  133OSM    C6S14288   2.121   5.678   3.327 -0.4369 -0.0692  0.1110
  133OSM    H6S14289   2.019   5.718   3.344  0.2055  0.8881  2.0153
  133OSM    H6T14290   2.183   5.766   3.356  0.2168 -0.0876 -1.1475
  133OSM    C7S14291   2.136   5.558   3.425 -0.6886  0.5410 -0.1881
  133OSM    H7S14292   2.074   5.470   3.397  1.5621 -1.5281  0.9590
  133OSM    H7T14293   2.098   5.594   3.523 -1.9547  1.2080 -0.8944
  133OSM    C8S14294   2.276   5.508   3.443 -0.7061  0.3995  0.0544
  133OSM    H8S14295   2.336   5.591   3.487 -0.0189 -1.1984  2.3237
  133OSM    H8T14296   2.313   5.482   3.342 -2.2609  0.3229 -0.5319
  133OSM    C9S14297   2.277   5.388   3.541 -0.1247  0.9608  0.3396
  133OSM    H9S14298   2.378   5.344   3.556 -0.0763  0.1104 -2.1100
  133OSM    H9T14299   2.227   5.307   3.485  0.1090  2.2366 -1.8112
  133OSM   C10S14300   2.214   5.411   3.680 -0.7263 -0.9259  0.3967
  133OSM   H10S14301   2.117   5.360   3.663 -1.3308  0.2087  0.3269
  133OSM   H10T14302   2.183   5.514   3.707  0.3735 -1.1821  2.8856
  133OSM   C11S14303   2.293   5.367   3.801  0.2413  0.7508  0.0174
  133OSM   H11S14304   2.392   5.417   3.808  1.1493 -0.7142 -1.4806
  133OSM   H11T14305   2.311   5.258   3.787  2.9896  1.2252 -0.8324
  133OSM   C12S14306   2.219   5.385   3.931  0.1437 -1.1389 -0.4797
  133OSM   H12S14307   2.127   5.323   3.933  0.0775 -1.1284 -1.9121
  133OSM   H12T14308   2.191   5.492   3.944  2.4854 -0.6722  1.6214
  133OSM   C13S14309   2.305   5.348   4.051 -0.3743  0.1080 -0.0062
  133OSM   H13S14310   2.399   5.405   4.064  0.2015 -1.0672  1.3166
  133OSM   H13T14311   2.342   5.244   4.038 -1.1885 -0.0376 -1.3077
  133OSM   C14S14312   2.226   5.341   4.180 -0.7937  0.2885 -0.1490
  133OSM   H14S14313   2.134   5.281   4.166  1.3438 -2.8327 -1.9606
  133OSM   H14T14314   2.203   5.440   4.225 -2.8962 -1.0706  2.0392
  133OSM   C15S14315   2.293   5.250   4.284  0.8424 -0.3475  0.7319
  133OSM   H15S14316   2.398   5.285   4.295  0.0225  3.2680 -1.2305
  133OSM   H15T14317   2.287   5.145   4.249  0.0132  0.5652 -2.1900
  133OSM   C16S14318   2.229   5.264   4.424  0.2710  0.0023  0.3287
  133OSM   H16S14319   2.119   5.262   4.408  0.3702 -0.6447 -0.2715
  133OSM   H16T14320   2.255   5.364   4.465  1.4868  0.0744 -0.5636
  133OSM   C17S14321   2.277   5.154   4.516 -0.1492 -0.0671 -0.1838
  133OSM   H17S14322   2.384   5.174   4.541 -0.0952  1.3743 -1.4065
  133OSM   H17T14323   2.260   5.062   4.455 -0.2746 -0.8851  1.0580
  133OSM   C18S14324   2.197   5.132   4.636 -0.1554  0.7171 -0.1625
  133OSM   H18S14325   2.086   5.126   4.631 -0.1160 -1.5398  0.4346
  133OSM   H18T14326   2.216   5.217   4.705  0.9567  0.3083  0.0616
  133OSM   H18U14327   2.224   5.034   4.683 -1.2823  0.3354 -0.2790
  133OSM    C1F14328   2.008   6.007   2.898 -0.3911  0.0766  1.2876
  133OSM     OF14329   1.891   6.002   2.858 -0.2652 -0.4096  0.1321
  133OSM    C2F14330   2.089   6.136   2.917 -0.4361 -0.4168  1.0310
  133OSM    H2F14331   2.076   6.206   2.832  1.1405 -1.6286 -0.2748
  133OSM    H2G14332   2.195   6.114   2.945 -1.0000 -1.1630  2.7002
  133OSM    C3F14333   2.021   6.213   3.032 -0.6850 -0.7165 -0.6546
  133OSM    H3F14334   2.011   6.143   3.118 -1.0756  1.8788  1.5810
  133OSM    H3G14335   1.918   6.240   2.998 -0.4643  0.2225 -0.6173
  133OSM    C4F14336   2.085   6.342   3.081  0.0275  0.2415  0.1735
  133OSM    H4F14337   2.014   6.390   3.152  1.0116  1.0654  0.6225
  133OSM    H4G14338   2.106   6.407   2.994  1.7210 -1.8702 -1.0828
  133OSM    C5F14339   2.209   6.322   3.160 -0.3003 -0.7549 -0.0542
  133OSM    H5F14340   2.293   6.296   3.093  0.9254  0.8196  0.8069
  133OSM    H5G14341   2.192   6.234   3.227 -0.9653 -2.5711 -2.4542
  133OSM    C6F14342   2.240   6.442   3.254 -0.4428 -0.1033  0.5363
  133OSM    H6F14343   2.145   6.460   3.309 -0.2621  1.7406  0.3019
  133OSM    H6G14344   2.270   6.529   3.192 -1.0265 -0.5297 -0.3661
  133OSM    C7F14345   2.355   6.420   3.358  0.0406 -0.2720 -0.0997
  133OSM    H7F14346   2.406   6.517   3.370  2.6125 -1.6967  1.2430
  133OSM    H7G14347   2.435   6.352   3.321 -0.4851 -2.1376  1.9524
  133OSM    C8F14348   2.300   6.350   3.481 -0.5969  0.1723 -0.4346
  133OSM    H8F14349   2.263   6.255   3.437 -0.2496 -0.1145 -0.1214
  133OSM    H8G14350   2.219   6.411   3.527 -1.8216 -1.4921 -0.2875
  133OSM    C9F14351   2.407   6.304   3.578 -0.1240  0.7710 -0.2282
  133OSM    H9F14352   2.483   6.239   3.533 -0.9892 -1.2576  1.0918
  133OSM   C10F14353   2.429   6.329   3.713 -0.2348 -0.3614  0.3770
  133OSM   H10F14354   2.513   6.276   3.762  0.9745  1.0349 -0.0984
  133OSM   C11F14355   2.349   6.415   3.800  0.1121 -0.0503  0.6130
  133OSM   H11F14356   2.246   6.419   3.759  0.7835  0.1080 -1.1364
  133OSM   H11G14357   2.374   6.523   3.790 -2.2974  0.9750  3.8283
  133OSM   C12F14358   2.353   6.386   3.952 -0.4591  0.2316 -0.9484
  133OSM   H12F14359   2.456   6.411   3.984 -1.0919  0.1295  1.3694
  133OSM   H12G14360   2.331   6.278   3.967  0.2572  0.1360 -0.5376
  133OSM   C13F14361   2.255   6.479   4.027  0.1176 -0.3934 -0.1358
  133OSM   H13F14362   2.152   6.464   3.988 -0.4808 -1.8926  1.8626
  133OSM   H13G14363   2.298   6.579   4.005 -0.0599 -0.7499 -2.3068
  133OSM   C14F14364   2.252   6.459   4.175 -0.2587 -0.1430 -0.8155
  133OSM   H14F14365   2.200   6.541   4.229 -0.9290 -1.4623  0.6001
  133OSM   H14G14366   2.353   6.447   4.221 -0.9033 -0.1143  0.6533
  133OSM   C15F14367   2.185   6.324   4.222  0.2241  0.4403  0.0897
  133OSM   H15F14368   2.235   6.238   4.172  3.2197  1.6210  0.8322
  133OSM   H15G14369   2.077   6.326   4.196  0.2879 -1.4759 -0.5308
  133OSM   C16F14370   2.204   6.299   4.370 -0.2209  0.6051 -0.3608
  133OSM   H16F14371   2.309   6.316   4.400 -1.2554  1.8589  3.0717
  133OSM   H16G14372   2.195   6.189   4.382  1.3349 -0.2190 -4.6624
  133OSM   C17F14373   2.119   6.387   4.461 -0.2465 -0.3211  0.4436
  133OSM   H17F14374   2.012   6.398   4.434 -0.3860 -0.3073  0.9869
  133OSM   H17G14375   2.164   6.488   4.448  1.2481 -0.9301  0.6959
  133OSM   C18F14376   2.120   6.341   4.604 -0.2415 -0.2742  0.3973
  133OSM   H18F14377   2.223   6.310   4.633 -0.3304 -0.8674  0.0952
  133OSM   H18G14378   2.048   6.257   4.608 -0.9928  0.3729  0.8688
  133OSM   H18H14379   2.085   6.424   4.669  0.0422 -1.3797  2.0206
  134OSM      N14380   6.285   0.256   2.450  0.8020 -0.2295  0.0077
  134OSM    C1514381   6.406   0.338   2.414  0.6247 -1.0558 -0.4647
  134OSM   H15A14382   6.437   0.323   2.312  1.0007  3.7694 -1.2910
  134OSM   H15B14383   6.489   0.338   2.482 -0.2251  3.2834  0.8811
  134OSM   H15C14384   6.387   0.444   2.412 -1.9420 -1.4520 -1.0682
  134OSM    C1414385   6.181   0.269   2.348 -0.8226 -0.3310 -0.4924
  134OSM   H14A14386   6.084   0.237   2.383 -1.2085 -0.7044 -1.8267
  134OSM   H14B14387   6.205   0.220   2.254 -1.0956  1.4444 -1.5329
  134OSM   H14C14388   6.172   0.374   2.323  1.4428  0.2114  0.6842
  134OSM    C1314389   6.327   0.110   2.466  0.9204  0.4669  0.1104
  134OSM   H13A14390   6.408   0.113   2.537  0.7366  0.6073  0.3154
  134OSM   H13B14391   6.371   0.062   2.380 -2.1288 -0.9245 -0.8073
  134OSM   H13C14392   6.251   0.054   2.520  1.1055  1.6093  1.6189
  134OSM    C1214393   6.238   0.310   2.592 -0.1719 -0.5736  0.1005
  134OSM   H12A14394   6.130   0.306   2.583 -0.1175  0.0431 -1.0825
  134OSM   H12B14395   6.250   0.417   2.584  1.8355 -0.7854 -0.1242
  134OSM    C1114396   6.306   0.262   2.715 -0.5902 -0.5198  0.3463
  134OSM   H11A14397   6.296   0.152   2.727 -3.0148 -0.4118 -0.1671
  134OSM   H11B14398   6.244   0.292   2.802 -1.5072 -0.3067 -0.3621
  134OSM      P14399   6.555   0.217   2.791 -0.2111 -0.0273 -0.2908
  134OSM    O1314400   6.540   0.079   2.741 -0.5780 -0.1289  0.3198
  134OSM    O1414401   6.682   0.286   2.751  0.4909 -0.1875  0.0998
  134OSM    O1114402   6.535   0.195   2.947  0.4503 -0.0943 -0.4972
  134OSM    O1214403   6.433   0.312   2.737  0.2988  0.4973  0.0409
  134OSM    C1S14404   6.435   0.130   3.015 -0.1350 -0.1336 -0.0329
  134OSM    H1S14405   6.358   0.083   2.951 -2.8746  0.6131  2.5014
  134OSM    H1T14406   6.379   0.202   3.078 -0.3530 -0.5163  0.2148
  134OSM     NF14407   6.401  -0.057   3.179 -0.1149  0.0779  0.3346
  134OSM    HNF14408   6.387  -0.048   3.277  1.5583  0.7839  0.5348
  134OSM    C2S14409   6.502   0.033   3.117  0.0258  0.2278  0.7222
  134OSM    H2S14410   6.569  -0.027   3.052  0.4469  1.3908  0.0390
  134OSM    C3S14411   6.597   0.109   3.213 -1.1072  0.4526 -0.0666
  134OSM    H3S14412   6.543   0.184   3.275 -1.0465 -0.5394  1.2331
  134OSM     O314413   6.701   0.188   3.144  0.7577 -0.3395 -0.4315
  134OSM    HO314414   6.664   0.192   3.056  0.6715 -2.1796 -0.5203
  134OSM    C4S14415   6.657   0.020   3.326 -0.1742  0.2649 -0.1732
  134OSM    H4S14416   6.599   0.034   3.418 -2.3992  1.4283 -1.6605
  134OSM    C5S14417   6.773  -0.046   3.334 -0.1383 -0.3216  0.0650
  134OSM    H5S14418   6.838  -0.041   3.245  0.9165  1.4919  0.8954
  134OSM    C6S14419   6.831  -0.115   3.462 -0.6219 -0.3114 -0.6282
  134OSM    H6S14420   6.924  -0.064   3.495 -0.2424 -1.4736  0.1254
  134OSM    H6T14421   6.852  -0.222   3.442  0.7915 -0.5531  1.8247
  134OSM    C7S14422   6.732  -0.125   3.575 -1.2234 -0.2218 -0.4269
  134OSM    H7S14423   6.640  -0.175   3.538 -0.2232 -0.0154 -3.3757
  134OSM    H7T14424   6.695  -0.025   3.609 -0.9211  0.4755 -2.0479
  134OSM    C8S14425   6.784  -0.206   3.689 -0.4407  1.2676  0.1484
  134OSM    H8S14426   6.859  -0.138   3.735 -0.1652  0.9528  0.1743
  134OSM    H8T14427   6.834  -0.298   3.653 -1.2794  0.5739  0.7139
  134OSM    C9S14428   6.680  -0.236   3.796  0.4344  0.2601  0.0580
  134OSM    H9S14429   6.604  -0.311   3.765  0.8387 -0.4842  0.8557
  134OSM    H9T14430   6.630  -0.137   3.805  0.2228  0.4182 -2.1231
  134OSM   C10S14431   6.740  -0.290   3.926  0.5658 -0.4851 -0.1211
  134OSM   H10S14432   6.749  -0.199   3.990  0.5847  0.0670 -0.9045
  134OSM   H10T14433   6.846  -0.320   3.909  0.7761 -0.6628  1.3550
  134OSM   C11S14434   6.664  -0.404   4.000  0.6689 -0.4490  0.0473
  134OSM   H11S14435   6.622  -0.468   3.919 -2.2307 -0.6208  1.5479
  134OSM   H11T14436   6.574  -0.370   4.055 -2.2052 -0.3556 -4.2392
  134OSM   C12S14437   6.760  -0.485   4.093 -0.3718 -0.3550  0.6064
  134OSM   H12S14438   6.853  -0.502   4.034 -1.7341  0.6884 -2.0113
  134OSM   H12T14439   6.727  -0.591   4.097 -2.2579  0.1832  0.3577
  134OSM   C13S14440   6.768  -0.447   4.239 -0.6347  0.4397  0.2010
  134OSM   H13S14441   6.669  -0.471   4.284 -0.0078 -1.0408  0.8419
  134OSM   H13T14442   6.790  -0.338   4.244  0.4903  0.1924  1.1447
  134OSM   C14S14443   6.878  -0.520   4.308 -1.1998 -0.3143 -0.3822
  134OSM   H14S14444   6.978  -0.509   4.262 -1.5692  0.7616 -0.9691
  134OSM   H14T14445   6.840  -0.624   4.318 -0.0411 -0.7629 -0.4875
  134OSM   C15S14446   6.907  -0.485   4.456  1.0987  0.0486 -0.2842
  134OSM   H15S14447   6.916  -0.582   4.510  0.0740 -0.2921 -0.6930
  134OSM   H15T14448   6.818  -0.446   4.509  0.5982 -0.4476 -0.7417
  134OSM   C16S14449   7.024  -0.396   4.483 -0.6447 -0.1122  0.3769
  134OSM   H16S14450   7.004  -0.297   4.437  0.4985  0.0016  0.0803
  134OSM   H16T14451   7.109  -0.431   4.420 -2.6762 -0.9571 -2.0378
  134OSM   C17S14452   7.073  -0.360   4.622  0.5201 -0.4534  0.9485
  134OSM   H17S14453   6.991  -0.298   4.665  0.4499  1.7820 -2.0966
  134OSM   H17T14454   7.155  -0.285   4.609 -1.0204  0.8834 -2.1042
  134OSM   C18S14455   7.096  -0.480   4.714 -0.8508  0.0354 -0.5974
  134OSM   H18S14456   7.166  -0.548   4.660  2.1529  2.3656  0.0834
  134OSM   H18T14457   6.997  -0.520   4.744  0.4017 -2.6176  0.2824
  134OSM   H18U14458   7.148  -0.454   4.808 -1.7028 -1.7587  0.4270
  134OSM    C1F14459   6.348  -0.157   3.116 -0.1065 -0.4174  0.2550
  134OSM     OF14460   6.378  -0.175   2.995  0.0273  0.1801  0.1168
  134OSM    C2F14461   6.251  -0.247   3.190 -0.2806 -0.9693 -0.0362
  134OSM    H2F14462   6.287  -0.238   3.295  2.0134 -1.5438 -0.7139
  134OSM    H2G14463   6.271  -0.352   3.160  1.1464 -0.4447 -1.0927
  134OSM    C3F14464   6.104  -0.224   3.172 -0.1469  0.0835 -0.2579
  134OSM    H3F14465   6.072  -0.213   3.066 -1.1474  0.7117  0.0917
  134OSM    H3G14466   6.081  -0.125   3.218  1.9258  0.2308  0.5835
  134OSM    C4F14467   6.017  -0.330   3.244 -0.0332  0.3892  0.4054
  134OSM    H4F14468   6.073  -0.424   3.265  1.6559  1.3662  0.4569
  134OSM    H4G14469   5.931  -0.365   3.184  0.1479 -1.9728  1.4266
  134OSM    C5F14470   5.949  -0.275   3.375 -0.7686 -1.0826  0.3260
  134OSM    H5F14471   5.874  -0.196   3.354 -1.7525 -1.7391  1.2818
  134OSM    H5G14472   6.031  -0.235   3.439 -0.6867  0.4571 -0.6680
  134OSM    C6F14473   5.873  -0.374   3.461 -0.8002 -0.5454 -0.3039
  134OSM    H6F14474   5.932  -0.468   3.457 -1.4984 -1.0312  0.3929
  134OSM    H6G14475   5.779  -0.398   3.407  0.2144 -1.4370 -1.7648
  134OSM    C7F14476   5.836  -0.325   3.598 -1.2840  0.4131 -0.3941
  134OSM    H7F14477   5.780  -0.230   3.587 -0.5526  0.7171 -1.5994
  134OSM    H7G14478   5.928  -0.293   3.649 -1.9959  2.0039 -0.0606
  134OSM    C8F14479   5.738  -0.419   3.675  0.0573 -0.9517  0.1229
  134OSM    H8F14480   5.664  -0.460   3.604 -0.0200  1.2749 -1.1719
  134OSM    H8G14481   5.693  -0.357   3.756  0.7534  1.1029 -0.9880
  134OSM    C9F14482   5.831  -0.532   3.724 -0.2168  0.2679  0.0353
  134OSM    H9F14483   5.900  -0.567   3.647  0.0427  1.2171 -0.1769
  134OSM   C10F14484   5.838  -0.601   3.846 -0.2303 -0.0188  0.4754
  134OSM   H10F14485   5.910  -0.683   3.859  1.8526  1.7722  0.7069
  134OSM   C11F14486   5.747  -0.563   3.961  0.0001  0.2268 -0.6215
  134OSM   H11F14487   5.691  -0.653   3.993  1.3430 -0.5365 -0.3506
  134OSM   H11G14488   5.675  -0.482   3.938  0.4880  0.1836 -2.5271
  134OSM   C12F14489   5.824  -0.536   4.094  0.2324  0.4445 -0.0425
  134OSM   H12F14490   5.880  -0.440   4.094  0.3713  0.4281  2.2937
  134OSM   H12G14491   5.906  -0.608   4.117 -1.0702 -2.1954 -3.0034
  134OSM   C13F14492   5.729  -0.526   4.209 -0.0002  0.1185 -0.5475
  134OSM   H13F14493   5.667  -0.618   4.217  0.7394 -0.3159  0.6844
  134OSM   H13G14494   5.655  -0.445   4.194 -2.5173 -1.9492  0.0666
  134OSM   C14F14495   5.801  -0.507   4.344  0.1532 -0.3669  0.0179
  134OSM   H14F14496   5.846  -0.407   4.354 -0.0527 -0.4100  1.5104
  134OSM   H14G14497   5.873  -0.591   4.354 -2.4394 -3.3054 -3.1939
  134OSM   C15F14498   5.703  -0.513   4.455 -0.0552  0.2091 -0.9183
  134OSM   H15F14499   5.622  -0.589   4.444  1.1272 -1.2013 -0.1858
  134OSM   H15G14500   5.652  -0.414   4.458 -2.2336 -0.8247 -1.8782
  134OSM   C16F14501   5.768  -0.536   4.594 -0.1027 -0.5932 -0.2890
  134OSM   H16F14502   5.845  -0.461   4.619 -0.4779 -0.6221  1.0191
  134OSM   H16G14503   5.826  -0.631   4.595 -1.7835 -1.6886 -1.1530
  134OSM   C17F14504   5.684  -0.556   4.718  0.5320  0.0754 -0.0452
  134OSM   H17F14505   5.605  -0.477   4.726  1.6394  1.3932 -1.4716
  134OSM   H17G14506   5.751  -0.545   4.806 -2.2590 -1.3368  2.4309
  134OSM   C18F14507   5.619  -0.694   4.731  0.1996  0.4026 -0.1928
  134OSM   H18F14508   5.698  -0.773   4.731 -2.5242 -2.5442  0.0516
  134OSM   H18G14509   5.563  -0.709   4.637  2.6570  0.3729 -1.7349
  134OSM   H18H14510   5.551  -0.695   4.819  1.7190  0.9095  1.0318
  135OSM      N14511   4.066   6.316   2.552  0.6016 -0.1174  0.5841
  135OSM    C1514512   4.186   6.373   2.476  0.7268  0.3262 -0.9168
  135OSM   H15A14513   4.156   6.386   2.373 -0.3168  0.2410 -0.6286
  135OSM   H15B14514   4.274   6.310   2.478  1.5266  1.4299  0.2675
  135OSM   H15C14515   4.211   6.469   2.517  0.6437 -0.0255 -0.0367
  135OSM    C1414516   4.088   6.318   2.700  0.2013 -0.0981  0.7526
  135OSM   H14A14517   4.127   6.415   2.727  1.2845 -0.1672 -0.4692
  135OSM   H14B14518   4.163   6.245   2.729  0.9377  1.2290  2.3523
  135OSM   H14C14519   4.001   6.301   2.761  0.8199  0.0791  1.7172
  135OSM    C1314520   3.951   6.405   2.498 -0.2903  0.8463  0.0734
  135OSM   H13A14521   3.857   6.364   2.534  0.6269 -0.7490  0.7125
  135OSM   H13B14522   3.955   6.402   2.390 -0.3314 -1.6000  0.0894
  135OSM   H13C14523   3.952   6.510   2.525 -1.4245  0.5982  1.2286
  135OSM    C1214524   4.045   6.172   2.506  0.1010 -0.1086 -0.0465
  135OSM   H12A14525   4.125   6.107   2.536 -0.7584 -1.3812 -0.4164
  135OSM   H12B14526   4.035   6.154   2.400  1.5819  0.3666 -0.2847
  135OSM    C1114527   3.916   6.105   2.559 -0.1529 -0.9979  0.4759
  135OSM   H11A14528   3.912   6.105   2.670 -1.1194 -1.4070  0.4507
  135OSM   H11B14529   3.922   5.998   2.528 -0.9165 -1.4576  1.8160
  135OSM      P14530   3.662   6.094   2.503 -0.1051  0.3757  0.6189
  135OSM    O1314531   3.556   6.200   2.484  0.7366 -0.1475  0.3763
  135OSM    O1414532   3.661   5.985   2.405 -0.1177  0.4687 -0.2819
  135OSM    O1114533   3.653   6.041   2.647 -0.1810 -0.5801  0.0620
  135OSM    O1214534   3.804   6.167   2.496 -0.4106  0.2175 -0.9760
  135OSM    C1S14535   3.527   5.992   2.695  0.0082 -0.2535 -0.0815
  135OSM    H1S14536   3.483   5.905   2.641  0.3720 -1.1884  1.0736
  135OSM    H1T14537   3.442   6.064   2.690 -0.1524 -0.4776 -4.8275
  135OSM     NF14538   3.422   5.881   2.893  0.6161  0.5737  1.0079
  135OSM    HNF14539   3.341   5.927   2.926 -0.2711  0.4120 -0.8097
  135OSM    C2S14540   3.536   5.957   2.843  0.5294  0.5044  0.2057
  135OSM    H2S14541   3.618   5.886   2.867 -1.6066 -1.1835  3.0672
  135OSM    C3S14542   3.576   6.081   2.932  0.2225  0.0214  0.1753
  135OSM    H3S14543   3.486   6.146   2.922  0.7509  0.4503 -3.0925
  135OSM     O314544   3.685   6.153   2.875 -0.1187  0.3467  0.1667
  135OSM    HO314545   3.697   6.113   2.789  1.9644  0.9195  0.1208
  135OSM    C4S14546   3.613   6.059   3.079  0.0134  0.6576  0.1587
  135OSM    H4S14547   3.683   5.975   3.096  0.2274  0.6437 -0.7254
  135OSM    C5S14548   3.570   6.125   3.193  0.0014  0.3041  0.3496
  135OSM    H5S14549   3.512   6.216   3.174  3.2734  2.0708 -2.4401
  135OSM    C6S14550   3.595   6.087   3.337 -0.4462  0.3815 -0.2406
  135OSM    H6S14551   3.680   6.148   3.375  0.3713 -0.2091 -1.1031
  135OSM    H6T14552   3.601   5.979   3.360  0.0449  0.0745 -1.7554
  135OSM    C7S14553   3.479   6.138   3.430 -0.0945  0.0320  0.0801
  135OSM    H7S14554   3.381   6.104   3.391 -0.2156  1.1781 -0.7024
  135OSM    H7T14555   3.485   6.249   3.439 -0.4513  0.0092  0.6454
  135OSM    C8S14556   3.507   6.083   3.565 -0.1476 -0.2975 -0.7348
  135OSM    H8S14557   3.603   6.108   3.614 -0.6437  0.2861 -0.0329
  135OSM    H8T14558   3.512   5.972   3.557 -0.9749 -0.2875 -1.6518
  135OSM    C9S14559   3.406   6.120   3.667  0.4148 -1.0658  0.4019
  135OSM    H9S14560   3.306   6.077   3.647 -0.4617 -0.0227  2.3167
  135OSM    H9T14561   3.387   6.228   3.652  0.4820 -1.1237 -0.1273
  135OSM   C10S14562   3.438   6.090   3.812  0.3819  0.1665  0.6406
  135OSM   H10S14563   3.545   6.116   3.820  0.5161  0.3526 -1.3060
  135OSM   H10T14564   3.422   5.981   3.829 -2.5841 -0.3459 -3.6794
  135OSM   C11S14565   3.355   6.183   3.903 -0.0681  0.6470  0.3979
  135OSM   H11S14566   3.249   6.158   3.880  0.3640  0.3811 -1.5016
  135OSM   H11T14567   3.375   6.285   3.863  1.5236  0.0329 -0.4600
  135OSM   C12S14568   3.396   6.186   4.047  0.2997  0.6584 -0.2022
  135OSM   H12S14569   3.498   6.214   4.081  0.7881 -2.1178  0.8646
  135OSM   H12T14570   3.381   6.082   4.082 -1.4832  2.0975  3.9161
  135OSM   C13S14571   3.304   6.252   4.162 -0.1594 -0.0691 -0.0162
  135OSM   H13S14572   3.207   6.200   4.166 -0.0282 -0.2666  0.6106
  135OSM   H13T14573   3.293   6.362   4.152  2.1133  0.3905  1.6963
  135OSM   C14S14574   3.370   6.232   4.300  0.8864 -0.0729 -0.7669
  135OSM   H14S14575   3.305   6.268   4.383  1.5764  1.5417 -0.8903
  135OSM   H14T14576   3.465   6.288   4.312  0.7083  0.0916 -0.0747
  135OSM   C15S14577   3.401   6.090   4.337  0.9008  0.6051  0.0819
  135OSM   H15S14578   3.486   6.060   4.273  1.8965 -1.0524  2.0619
  135OSM   H15T14579   3.308   6.034   4.312  0.4914  0.6604  1.4014
  135OSM   C16S14580   3.446   6.078   4.485  0.0028 -0.7374  0.1624
  135OSM   H16S14581   3.360   6.086   4.555  2.0320 -0.4657  2.7836
  135OSM   H16T14582   3.525   6.150   4.515 -0.0345 -0.9655  0.8325
  135OSM   C17S14583   3.506   5.940   4.507 -0.1505 -0.1869 -0.4068
  135OSM   H17S14584   3.604   5.917   4.460  0.6029  0.1007  0.9786
  135OSM   H17T14585   3.423   5.874   4.473 -3.8547  3.4500  0.7170
  135OSM   C18S14586   3.538   5.922   4.665  0.3535  0.2450  0.3302
  135OSM   H18S14587   3.595   6.005   4.711  0.6302 -1.0359  2.4331
  135OSM   H18T14588   3.591   5.828   4.695  1.8740  1.5891  2.1143
  135OSM   H18U14589   3.439   5.920   4.715  1.5915  0.6260  2.9900
  135OSM    C1F14590   3.407   5.755   2.840 -0.5888  0.5903 -0.0819
  135OSM     OF14591   3.495   5.698   2.778  0.3922 -0.3066 -0.1952
  135OSM    C2F14592   3.273   5.697   2.843 -0.4756  0.6161 -0.2136
  135OSM    H2F14593   3.237   5.683   2.739 -0.3525 -0.4873 -0.1231
  135OSM    H2G14594   3.196   5.756   2.897  1.1705  1.3224  1.4894
  135OSM    C3F14595   3.271   5.549   2.901  0.3736  0.0165  0.1524
  135OSM    H3F14596   3.325   5.486   2.828  3.0313  0.0225  1.9997
  135OSM    H3G14597   3.166   5.513   2.910  0.3896 -0.1760 -0.3946
  135OSM    C4F14598   3.345   5.535   3.034  0.6802  0.1826  0.2874
  135OSM    H4F14599   3.454   5.533   3.011  0.2854  0.6862 -1.7808
  135OSM    H4G14600   3.323   5.439   3.086  0.5660 -0.7282 -1.3752
  135OSM    C5F14601   3.325   5.638   3.147  0.7424  0.3757 -0.7028
  135OSM    H5F14602   3.325   5.740   3.102  0.0839  0.6819 -0.0256
  135OSM    H5G14603   3.402   5.638   3.227 -0.9926  1.2125  1.0362
  135OSM    C6F14604   3.190   5.631   3.231  0.0204 -0.5779 -0.5264
  135OSM    H6F14605   3.179   5.538   3.292  0.2498  0.8343  1.7868
  135OSM    H6G14606   3.112   5.629   3.152  0.5440  2.2601 -1.2095
  135OSM    C7F14607   3.170   5.750   3.324 -0.0005  0.6380  0.0249
  135OSM    H7F14608   3.078   5.732   3.384  1.3224 -0.2184  1.9387
  135OSM    H7G14609   3.162   5.838   3.258  0.3208  0.7645  0.1520
  135OSM    C8F14610   3.287   5.771   3.422 -0.0523  0.3919  0.3857
  135OSM    H8F14611   3.264   5.854   3.492  0.9330  0.1150  1.0672
  135OSM    H8G14612   3.376   5.809   3.367  0.2596  0.3245  0.8316
  135OSM    C9F14613   3.324   5.647   3.500  0.7517  0.7555 -0.5100
  135OSM    H9F14614   3.381   5.574   3.441 -1.2053 -2.6410  1.5161
  135OSM   C10F14615   3.297   5.611   3.630 -0.7986  0.3177  0.3753
  135OSM   H10F14616   3.351   5.522   3.664  1.9129  1.5509 -0.4443
  135OSM   C11F14617   3.219   5.698   3.726 -0.6710  0.1449  0.6573
  135OSM   H11F14618   3.109   5.683   3.717 -0.6974  0.3359  0.6480
  135OSM   H11G14619   3.231   5.808   3.711 -2.3314  0.4463  1.2453
  135OSM   C12F14620   3.251   5.664   3.873  0.2625  1.0015 -1.0031
  135OSM   H12F14621   3.362   5.665   3.883  0.5203  1.9164 -3.4397
  135OSM   H12G14622   3.226   5.558   3.898  1.2591  0.5874 -1.6897
  135OSM   C13F14623   3.191   5.772   3.961 -0.1578 -0.8233 -0.7068
  135OSM   H13F14624   3.080   5.760   3.958 -0.0999 -1.5036 -0.4100
  135OSM   H13G14625   3.217   5.875   3.928  0.5473 -0.4725  0.8234
  135OSM   C14F14626   3.225   5.773   4.106 -0.2996  0.1473 -0.3154
  135OSM   H14F14627   3.331   5.795   4.129 -0.1772 -0.6085 -0.1100
  135OSM   H14G14628   3.204   5.667   4.135  0.1652 -0.0388 -0.6534
  135OSM   C15F14629   3.136   5.863   4.192 -0.8125  0.7620  0.3933
  135OSM   H15F14630   3.026   5.854   4.176 -0.7632 -0.6164  0.7067
  135OSM   H15G14631   3.170   5.969   4.186 -0.5735  0.6248 -0.7402
  135OSM   C16F14632   3.144   5.830   4.345  0.5666 -0.0943 -0.4006
  135OSM   H16F14633   3.251   5.844   4.372  0.7553  2.7148 -2.1998
  135OSM   H16G14634   3.114   5.723   4.356  1.4998 -0.3092  0.1599
  135OSM   C17F14635   3.048   5.910   4.435 -0.1393 -0.1481  0.2309
  135OSM   H17F14636   2.941   5.887   4.421 -0.5202 -0.4301  3.0555
  135OSM   H17G14637   3.048   6.019   4.413 -0.2836 -0.4776 -1.5435
  135OSM   C18F14638   3.091   5.887   4.583 -0.3705 -0.1570  0.0575
  135OSM   H18F14639   3.171   5.963   4.598 -1.0142  0.6087 -0.3284
  135OSM   H18G14640   3.134   5.787   4.605  0.2820 -0.0012 -0.4801
  135OSM   H18H14641   3.000   5.908   4.643 -0.5808 -0.5236 -0.1268
  136OSM      N14642   0.366   1.631   2.712  0.2326  0.7205 -0.3247
  136OSM    C1514643   0.322   1.735   2.622  0.3476 -0.3896  0.1844
  136OSM   H15A14644   0.386   1.821   2.638  1.1521 -0.8381 -0.5794
  136OSM   H15B14645   0.219   1.758   2.643  1.0709  1.9520  1.5492
  136OSM   H15C14646   0.335   1.706   2.519  1.3858  0.5580  0.0232
  136OSM    C1414647   0.276   1.513   2.692  0.6067  0.4087  0.0441
  136OSM   H14A14648   0.289   1.445   2.775  0.6347 -0.3971 -0.6031
  136OSM   H14B14649   0.291   1.469   2.595 -1.0872 -2.2642  0.8947
  136OSM   H14C14650   0.173   1.545   2.698  0.1246 -0.6719 -1.7855
  136OSM    C1314651   0.511   1.587   2.694  0.1830 -0.7262 -0.3398
  136OSM   H13A14652   0.543   1.521   2.774 -0.6333 -1.8249 -0.8991
  136OSM   H13B14653   0.578   1.671   2.684  0.0613 -0.6407 -0.4260
  136OSM   H13C14654   0.514   1.523   2.607  0.1724  0.2465 -1.0723
  136OSM    C1214655   0.342   1.686   2.854 -0.1451  0.1090  0.5035
  136OSM   H12A14656   0.412   1.761   2.885 -1.7468  1.1500  1.7664
  136OSM   H12B14657   0.368   1.608   2.924 -3.9107 -1.3354  0.5488
  136OSM    C1114658   0.199   1.721   2.894 -0.4745  0.8470 -0.3195
  136OSM   H11A14659   0.164   1.813   2.841 -0.7700  0.4255 -0.8609
  136OSM   H11B14660   0.198   1.761   2.998 -2.4990  0.2680 -0.0783
  136OSM      P14661  -0.052   1.666   2.858 -0.2596  0.1918  0.0590
  136OSM    O1314662  -0.061   1.742   2.733 -0.1448 -0.3215 -0.1628
  136OSM    O1414663  -0.142   1.549   2.866  0.0772  0.5623 -0.0579
  136OSM    O1114664  -0.073   1.767   2.980  0.2546 -0.1921  0.4086
  136OSM    O1214665   0.100   1.614   2.880  0.7385 -0.7267 -0.8053
  136OSM    C1S14666  -0.132   1.731   3.106  0.0350  0.2813  0.2113
  136OSM    H1S14667  -0.198   1.643   3.103  1.7686 -1.1320  1.3561
  136OSM    H1T14668  -0.206   1.810   3.132 -1.0449 -0.9598  0.9796
  136OSM     NF14669  -0.090   1.649   3.330 -0.6222  0.0512 -0.4045
  136OSM    HNF14670  -0.132   1.701   3.404 -2.0650 -2.7619  0.8901
  136OSM    C2S14671  -0.032   1.727   3.222  0.3094 -0.2641  0.2376
  136OSM    H2S14672   0.066   1.687   3.189  1.1621  1.4686  0.5717
  136OSM    C3S14673   0.016   1.877   3.246 -0.4404  0.0458  0.6884
  136OSM    H3S14674  -0.072   1.942   3.263 -1.1172 -0.9693  1.1982
  136OSM     O314675   0.089   1.937   3.144  0.4011  0.2387 -0.2131
  136OSM    HO314676   0.058   1.890   3.065  2.1333  0.3343 -0.9944
  136OSM    C4S14677   0.110   1.879   3.361 -0.3997 -0.0168  0.3749
  136OSM    H4S14678   0.216   1.864   3.334 -1.0605 -0.9235 -2.0703
  136OSM    C5S14679   0.077   1.917   3.487 -1.0290 -0.4505  0.1208
  136OSM    H5S14680  -0.030   1.928   3.512 -0.4088  0.4192  2.6246
  136OSM    C6S14681   0.171   1.946   3.597 -0.2336 -0.2871 -0.3829
  136OSM    H6S14682   0.140   2.044   3.639  0.4568 -0.8271  1.5031
  136OSM    H6T14683   0.272   1.967   3.554 -0.0606  1.5839  0.8159
  136OSM    C7S14684   0.163   1.844   3.716 -0.5967  0.6167  0.0704
  136OSM    H7S14685   0.187   1.738   3.693 -3.0449  0.2316 -0.9939
  136OSM    H7T14686   0.054   1.848   3.737 -1.2601  2.8106 -3.1364
  136OSM    C8S14687   0.242   1.889   3.844  0.7036  0.4871 -0.4214
  136OSM    H8S14688   0.290   1.987   3.826  2.3018  0.3554  2.5031
  136OSM    H8T14689   0.318   1.810   3.862 -1.0407 -0.8377  1.5776
  136OSM    C9S14690   0.147   1.904   3.970  0.1785 -0.3181  0.6516
  136OSM    H9S14691   0.072   1.822   3.960  1.1453 -1.2028  0.4786
  136OSM    H9T14692   0.091   1.999   3.959  0.1543 -0.4941 -0.8875
  136OSM   C10S14693   0.211   1.882   4.105  0.4745  0.3810 -1.3216
  136OSM   H10S14694   0.291   1.959   4.113 -0.8237  1.5483  2.1412
  136OSM   H10T14695   0.248   1.777   4.099  0.4054  0.4318 -3.9296
  136OSM   C11S14696   0.104   1.903   4.216  0.3663  0.3764 -0.3938
  136OSM   H11S14697   0.048   1.807   4.212 -0.8365  1.0407 -0.0153
  136OSM   H11T14698   0.037   1.991   4.201  1.5500  1.3614 -0.0078
  136OSM   C12S14699   0.164   1.902   4.359  0.7321 -0.3746  0.5158
  136OSM   H12S14700   0.225   1.995   4.358 -0.7607  0.6535 -1.0470
  136OSM   H12T14701   0.233   1.817   4.376  3.3104  1.2220 -1.2466
  136OSM   C13S14702   0.051   1.910   4.469  0.2270  0.9825 -0.0148
  136OSM   H13S14703   0.009   1.813   4.504  3.9491 -1.2738 -1.2143
  136OSM   H13T14704  -0.030   1.975   4.429 -2.0812 -1.3740  0.4980
  136OSM   C14S14705   0.119   1.961   4.594 -0.3770  0.6626 -0.7323
  136OSM   H14S14706   0.034   1.984   4.662 -2.0816  0.3656 -2.6440
  136OSM   H14T14707   0.177   2.053   4.572  0.8181  0.0805 -0.1170
  136OSM   C15S14708   0.216   1.853   4.654 -0.1135 -0.0439 -0.2119
  136OSM   H15S14709   0.317   1.869   4.610 -1.2102  2.3501 -2.1128
  136OSM   H15T14710   0.192   1.752   4.614  2.0917 -0.6497 -0.1720
  136OSM   C16S14711   0.216   1.857   4.805 -0.2291  0.5509  0.0590
  136OSM   H16S14712   0.124   1.821   4.857 -1.2371  0.3567 -1.7744
  136OSM   H16T14713   0.246   1.961   4.828  0.4269 -0.0804  2.3088
  136OSM   C17S14714   0.340   1.772   4.871 -0.0562 -0.2871  0.5707
  136OSM   H17S14715   0.429   1.804   4.813  0.2736  1.0101  1.7278
  136OSM   H17T14716   0.316   1.665   4.854 -0.2890 -0.1592  0.0845
  136OSM   C18S14717   0.356   1.796   5.024 -0.1812 -0.4115 -0.0181
  136OSM   H18S14718   0.406   1.721   5.088  0.0417  0.3083  0.6635
  136OSM   H18T14719   0.258   1.807   5.075  1.2690 -1.2212  3.1437
  136OSM   H18U14720   0.418   1.886   5.044  1.5210 -1.0604 -2.0581
  136OSM    C1F14721  -0.100   1.518   3.332  0.3874  0.5984  0.6748
  136OSM     OF14722  -0.041   1.439   3.259  0.0047  0.3461 -0.4202
  136OSM    C2F14723  -0.197   1.460   3.436  0.0578 -0.6360 -0.4472
  136OSM    H2F14724  -0.295   1.512   3.430 -0.8072 -1.4638  3.4680
  136OSM    H2G14725  -0.158   1.495   3.534  0.4598  1.5796 -1.3312
  136OSM    C3F14726  -0.199   1.308   3.425 -0.1766 -0.1770 -0.2314
  136OSM    H3F14727  -0.095   1.269   3.437  0.2071  0.9899  0.4448
  136OSM    H3G14728  -0.250   1.276   3.332 -0.6878  1.1597 -0.4285
  136OSM    C4F14729  -0.262   1.234   3.544 -0.1211 -0.3321 -0.7246
  136OSM    H4F14730  -0.263   1.129   3.507 -0.2192 -0.3801 -0.5864
  136OSM    H4G14731  -0.370   1.260   3.554  0.3198  1.2119  0.3019
  136OSM    C5F14732  -0.197   1.237   3.682 -0.7890  0.7044  1.1564
  136OSM    H5F14733  -0.167   1.344   3.678  0.5689  0.3768  2.0140
  136OSM    H5G14734  -0.101   1.182   3.681 -1.2107 -0.0816 -0.7156
  136OSM    C6F14735  -0.281   1.195   3.797 -0.3751 -0.0164 -0.1558
  136OSM    H6F14736  -0.298   1.085   3.802  2.1166 -0.4521 -0.2781
  136OSM    H6G14737  -0.382   1.241   3.794 -0.8007 -0.8898  0.4632
  136OSM    C7F14738  -0.212   1.241   3.926 -0.3444 -0.6962  0.4769
  136OSM    H7F14739  -0.184   1.347   3.907 -0.8302 -1.0102 -2.4292
  136OSM    H7G14740  -0.121   1.180   3.942 -1.1214 -2.3224 -1.0238
  136OSM    C8F14741  -0.290   1.237   4.058  0.3013  0.0480 -0.2573
  136OSM    H8F14742  -0.374   1.307   4.039  0.1486 -0.3678 -1.1634
  136OSM    H8G14743  -0.215   1.282   4.127  2.0991 -0.2792 -1.9075
  136OSM    C9F14744  -0.341   1.102   4.091 -0.0806  0.9520  0.1448
  136OSM    H9F14745  -0.432   1.079   4.034 -1.4376 -0.9592  2.8581
  136OSM   C10F14746  -0.291   1.021   4.187 -0.1435 -0.0097  0.1887
  136OSM   H10F14747  -0.334   0.922   4.209 -2.9084  0.8200 -1.1519
  136OSM   C11F14748  -0.167   1.049   4.274 -0.5434  0.4953 -0.1991
  136OSM   H11F14749  -0.114   1.138   4.234  0.8068  0.3048  1.0891
  136OSM   H11G14750  -0.105   0.957   4.268 -2.4405 -1.2884  3.7301
  136OSM   C12F14751  -0.177   1.062   4.429  0.2611  0.2765  0.5856
  136OSM   H12F14752  -0.073   1.061   4.469  0.5906 -2.2266 -0.1439
  136OSM   H12G14753  -0.224   0.969   4.469  0.7873  0.9534  2.9692
  136OSM   C13F14754  -0.264   1.176   4.475 -0.0032 -0.2704  0.2811
  136OSM   H13F14755  -0.367   1.164   4.435  0.7177  1.5490 -2.3921
  136OSM   H13G14756  -0.237   1.272   4.426  1.9962 -1.4618 -1.0937
  136OSM   C14F14757  -0.290   1.192   4.631  0.0295 -0.7560  0.1144
  136OSM   H14F14758  -0.336   1.093   4.653 -2.4828  0.7047  2.0176
  136OSM   H14G14759  -0.365   1.269   4.659 -0.3499 -0.5302 -1.4214
  136OSM   C15F14760  -0.160   1.205   4.710  0.8798  0.7007 -0.0047
  136OSM   H15F14761  -0.069   1.155   4.670 -0.1448 -0.8471 -0.4749
  136OSM   H15G14762  -0.176   1.154   4.808  1.9610  0.0842 -0.1273
  136OSM   C16F14763  -0.120   1.347   4.738 -0.1941  0.1321  0.6134
  136OSM   H16F14764  -0.202   1.396   4.794 -0.3798  2.3906 -1.4812
  136OSM   H16G14765  -0.095   1.406   4.647  2.3982  2.0473  2.3913
  136OSM   C17F14766  -0.002   1.342   4.828  0.1896 -0.4454  0.8138
  136OSM   H17F14767   0.070   1.268   4.786  0.3133  0.2309 -0.2001
  136OSM   H17G14768  -0.035   1.295   4.923 -0.1485  0.2477  1.0459
  136OSM   C18F14769   0.066   1.479   4.861  0.2706  0.4105 -0.2484
  136OSM   H18F14770  -0.002   1.541   4.924 -1.4698 -0.7034 -0.9640
  136OSM   H18G14771   0.077   1.525   4.761  0.9229  0.7287 -0.0347
  136OSM   H18H14772   0.166   1.469   4.907 -1.0619  0.8837  3.0655
  137OSM      N14773   4.765   2.053   2.246  0.5359  0.7138  0.4438
  137OSM    C1514774   4.691   1.971   2.146 -0.2245  0.3539  0.4282
  137OSM   H15A14775   4.678   2.033   2.059  2.2530  1.5425  0.8141
  137OSM   H15B14776   4.597   1.929   2.177 -1.3455  1.7919 -0.9184
  137OSM   H15C14777   4.748   1.885   2.111 -1.8305 -1.1830  1.4434
  137OSM    C1414778   4.895   2.089   2.196  0.5199  0.0889  0.0142
  137OSM   H14A14779   4.905   2.170   2.127  1.5689  0.2915  0.3849
  137OSM   H14B14780   4.947   2.004   2.154  1.1832  0.6533 -0.3339
  137OSM   H14C14781   4.966   2.111   2.274 -0.8142  3.7444  0.3830
  137OSM    C1314782   4.681   2.170   2.287 -0.2849 -0.7803 -0.6911
  137OSM   H13A14783   4.652   2.228   2.200  0.8071  0.2559 -0.3983
  137OSM   H13B14784   4.729   2.239   2.355  0.2872 -0.3864 -1.4709
  137OSM   H13C14785   4.597   2.131   2.342 -0.0546 -0.2940  0.0223
  137OSM    C1214786   4.782   1.967   2.365 -0.4166 -0.0517  0.0769
  137OSM   H12A14787   4.831   1.879   2.326 -3.0134 -0.6964 -2.0542
  137OSM   H12B14788   4.687   1.942   2.410 -1.5666  2.7858 -0.5418
  137OSM    C1114789   4.872   2.013   2.481  1.0253  0.1960  0.3105
  137OSM   H11A14790   4.847   1.935   2.556  0.4897 -1.5633 -1.5945
  137OSM   H11B14791   4.841   2.107   2.530  0.5280 -1.0499  2.5126
  137OSM      P14792   5.091   1.879   2.446 -0.6083 -0.3125 -0.1756
  137OSM    O1314793   5.025   1.767   2.379 -0.1366 -0.4939 -0.3618
  137OSM    O1414794   5.229   1.908   2.403  0.3840 -0.1379 -0.2069
  137OSM    O1114795   5.082   1.855   2.601 -0.0385 -0.3421  0.0295
  137OSM    O1214796   5.006   2.014   2.442 -0.2053 -0.8691 -0.2189
  137OSM    C1S14797   5.101   1.949   2.706  0.6398  0.0885 -0.1729
  137OSM    H1S14798   5.034   2.036   2.692 -2.2158 -1.8812  0.5517
  137OSM    H1T14799   5.207   1.983   2.709  0.5668  0.2592  0.5011
  137OSM     NF14800   5.118   1.987   2.954  0.5874  0.3177 -0.9676
  137OSM    HNF14801   5.189   1.951   3.015  1.3271  0.9123 -1.4507
  137OSM    C2S14802   5.060   1.894   2.848  0.0472 -0.2239 -1.0514
  137OSM    H2S14803   4.951   1.896   2.871  0.1739  0.9877 -0.5018
  137OSM    C3S14804   5.093   1.743   2.856  0.2727 -0.0237  0.1566
  137OSM    H3S14805   5.187   1.732   2.799  0.7945 -0.4567  1.0822
  137OSM     O314806   5.006   1.662   2.779 -0.4784  0.9303  0.4279
  137OSM    HO314807   4.957   1.733   2.737  0.9603 -0.0471 -3.3099
  137OSM    C4S14808   5.117   1.694   3.001  0.5483 -0.3448 -0.5824
  137OSM    H4S14809   5.033   1.711   3.070  2.1457  0.8051  1.1830
  137OSM    C5S14810   5.225   1.642   3.060  0.0822 -0.0435 -0.3259
  137OSM    H5S14811   5.316   1.623   3.002 -0.9164 -0.5481 -1.7736
  137OSM    C6S14812   5.250   1.586   3.199  0.3765  0.1441 -0.7207
  137OSM    H6S14813   5.341   1.637   3.235 -0.2574  0.9526 -0.2415
  137OSM    H6T14814   5.268   1.476   3.195  1.7721  0.2431  1.3357
  137OSM    C7S14815   5.136   1.621   3.306  0.6659  0.0069  0.1975
  137OSM    H7S14816   5.032   1.599   3.274 -0.8936  3.0329  2.5753
  137OSM    H7T14817   5.132   1.731   3.326  1.6482 -0.4395  3.4710
  137OSM    C8S14818   5.158   1.552   3.441 -0.0725  0.9417  0.0101
  137OSM    H8S14819   5.262   1.580   3.470  0.0985 -0.9737  1.4750
  137OSM    H8T14820   5.161   1.443   3.418 -1.5520  1.2529 -1.9924
  137OSM    C9S14821   5.066   1.593   3.556  0.2625  0.1434  0.5026
  137OSM    H9S14822   4.961   1.570   3.528  0.2730  0.1278  0.4766
  137OSM    H9T14823   5.085   1.701   3.574  1.0007 -0.1179  1.3578
  137OSM   C10S14824   5.097   1.522   3.692 -0.7386  0.1953 -0.3438
  137OSM   H10S14825   5.206   1.531   3.712 -0.6132  1.1682 -1.3661
  137OSM   H10T14826   5.068   1.415   3.678  1.7359 -0.6877  0.6719
  137OSM   C11S14827   5.015   1.575   3.810 -0.0285  0.2818 -0.2378
  137OSM   H11S14828   4.908   1.558   3.784  0.0607 -0.0911 -0.3720
  137OSM   H11T14829   5.026   1.682   3.838 -0.2604  0.2110  0.1304
  137OSM   C12S14830   5.047   1.493   3.935  0.1170  0.2381  0.0932
  137OSM   H12S14831   5.134   1.536   3.988 -2.0068  0.7727  3.4265
  137OSM   H12T14832   5.078   1.389   3.912  0.2994 -0.4073  2.9134
  137OSM   C13S14833   4.949   1.496   4.053 -0.6706 -0.0603  0.7148
  137OSM   H13S14834   4.864   1.430   4.025  0.4532 -0.4610 -2.1751
  137OSM   H13T14835   4.912   1.600   4.061 -0.0683  0.0888  1.6661
  137OSM   C14S14836   5.007   1.442   4.183 -0.7258  0.4781 -0.2514
  137OSM   H14S14837   4.936   1.468   4.265  0.0111 -0.7375  0.8187
  137OSM   H14T14838   5.100   1.496   4.211  0.1932 -0.5117 -1.3141
  137OSM   C15S14839   5.007   1.292   4.186 -1.1622 -0.0530 -0.0102
  137OSM   H15S14840   5.096   1.255   4.130  0.9029 -0.8216  3.4447
  137OSM   H15T14841   4.914   1.245   4.147 -0.4029 -1.9855  0.3820
  137OSM   C16S14842   5.027   1.244   4.333  0.5875 -0.4218 -0.0575
  137OSM   H16S14843   4.956   1.300   4.398  0.6837 -1.5433  1.0448
  137OSM   H16T14844   5.125   1.285   4.368 -1.3980  4.0736  1.0428
  137OSM   C17S14845   5.023   1.090   4.341  0.5661 -0.3939 -0.0664
  137OSM   H17S14846   5.094   1.055   4.263  1.3892  2.1811 -0.5552
  137OSM   H17T14847   4.921   1.054   4.313  0.3519  0.8698 -0.9542
  137OSM   C18S14848   5.079   1.030   4.472  0.1404 -0.1193 -0.0740
  137OSM   H18S14849   5.176   1.081   4.493  0.5718  0.2848 -2.7584
  137OSM   H18T14850   5.095   0.922   4.454  1.2443 -0.1021  0.7157
  137OSM   H18U14851   5.015   1.043   4.562  0.1115  1.2492 -0.2761
  137OSM    C1F14852   5.072   2.110   2.974  0.3298  0.2987 -0.7763
  137OSM     OF14853   5.004   2.170   2.896  0.0924  0.4127 -0.0376
  137OSM    C2F14854   5.139   2.173   3.098 -0.6055 -0.2034  0.8375
  137OSM    H2F14855   5.220   2.239   3.061 -0.2348 -1.3826 -0.5521
  137OSM    H2G14856   5.175   2.095   3.168 -0.8962 -1.8103 -0.7214
  137OSM    C3F14857   5.047   2.257   3.187  0.1231 -0.9099 -0.5790
  137OSM    H3F14858   5.016   2.359   3.155  2.4949  0.2869  0.6497
  137OSM    H3G14859   5.118   2.276   3.270  1.0863 -0.5176 -1.4630
  137OSM    C4F14860   4.921   2.178   3.233 -0.1302 -0.7262 -0.4085
  137OSM    H4F14861   4.869   2.137   3.144  0.3024  2.1897 -2.1653
  137OSM    H4G14862   4.855   2.252   3.283 -0.4355 -0.0711 -1.7308
  137OSM    C5F14863   4.945   2.063   3.338  0.7378 -0.2868 -0.0139
  137OSM    H5F14864   5.018   1.994   3.291  1.1265  2.5797 -4.2614
  137OSM    H5G14865   4.857   1.998   3.359  0.1571  0.6781  0.6658
  137OSM    C6F14866   5.001   2.115   3.474  0.1051 -0.0356  0.6483
  137OSM    H6F14867   5.103   2.152   3.452 -0.0997 -1.3336 -3.3520
  137OSM    H6G14868   5.003   2.025   3.540 -0.4230 -0.3251  0.2836
  137OSM    C7F14869   4.910   2.219   3.539  0.0482  0.1235  0.2463
  137OSM    H7F14870   4.805   2.184   3.537 -0.2793  1.1047 -1.1936
  137OSM    H7G14871   4.910   2.309   3.475  1.1820  0.2187  0.3596
  137OSM    C8F14872   4.953   2.255   3.688  0.1092 -0.8469  0.2291
  137OSM    H8F14873   4.933   2.364   3.697  0.7534 -0.3411 -3.0735
  137OSM    H8G14874   5.063   2.253   3.676 -0.0666  0.4414 -2.3019
  137OSM    C9F14875   4.915   2.153   3.789  0.3147 -0.6092 -0.1599
  137OSM    H9F14876   4.944   2.052   3.759 -0.2256 -0.7868 -0.1077
  137OSM   C10F14877   4.851   2.175   3.900 -0.0308 -0.1657 -0.0390
  137OSM   H10F14878   4.835   2.089   3.966  2.5054 -0.7831 -0.1261
  137OSM   C11F14879   4.817   2.313   3.957 -0.3673  0.0016 -0.5105
  137OSM   H11F14880   4.709   2.339   3.952 -0.4638  0.0277  1.1096
  137OSM   H11G14881   4.866   2.399   3.906 -1.3522  1.0025  0.1715
  137OSM   C12F14882   4.850   2.321   4.110  0.0998 -0.6900  0.3100
  137OSM   H12F14883   4.784   2.257   4.172  0.3859 -2.0469 -0.7154
  137OSM   H12G14884   4.836   2.422   4.152 -0.6006 -1.4679  2.0539
  137OSM   C13F14885   4.999   2.290   4.149  0.1408  0.2267  0.0021
  137OSM   H13F14886   5.071   2.361   4.101  1.9859 -2.1674 -1.0023
  137OSM   H13G14887   5.027   2.189   4.111 -0.5356 -0.0959  0.3452
  137OSM   C14F14888   5.032   2.300   4.302  0.1114  0.5793 -0.1115
  137OSM   H14F14889   4.963   2.249   4.372  2.1608 -1.6970  0.3582
  137OSM   H14G14890   5.018   2.408   4.327 -1.3450 -0.0108  1.9036
  137OSM   C15F14891   5.175   2.260   4.335 -0.5954 -0.1766  0.3843
  137OSM   H15F14892   5.248   2.324   4.281 -1.8030  0.3457 -0.6480
  137OSM   H15G14893   5.199   2.160   4.292  1.6070  0.7379 -0.6375
  137OSM   C16F14894   5.216   2.272   4.483 -0.4915  0.1192  0.5134
  137OSM   H16F14895   5.311   2.215   4.491 -1.8703 -3.7474 -4.8745
  137OSM   H16G14896   5.147   2.221   4.554 -0.9783  1.0421  0.7209
  137OSM   C17F14897   5.219   2.423   4.528 -0.1878 -0.0306 -0.9658
  137OSM   H17F14898   5.114   2.457   4.515 -0.5323 -1.3477 -1.7429
  137OSM   H17G14899   5.289   2.462   4.451  0.5743 -1.4149 -1.0064
  137OSM   C18F14900   5.275   2.443   4.672  0.0403 -0.4086 -0.2183
  137OSM   H18F14901   5.284   2.552   4.690 -1.0639 -0.4197  0.5142
  137OSM   H18G14902   5.369   2.387   4.688  0.2024  0.0115  0.3229
  137OSM   H18H14903   5.193   2.393   4.728 -0.2868 -0.2213 -0.5162
  138OSM      N14904   3.606   0.917   2.778 -0.4511 -0.7550  0.7888
  138OSM    C1514905   3.696   0.898   2.906  0.0734  0.0204  0.1392
  138OSM   H15A14906   3.647   0.927   2.997 -0.2609  0.8538 -0.2906
  138OSM   H15B14907   3.786   0.956   2.891 -0.8691  1.5208  0.0873
  138OSM   H15C14908   3.716   0.792   2.917  0.8490  0.1406 -0.0994
  138OSM    C1414909   3.477   0.839   2.810  0.2199  0.1560  0.6633
  138OSM   H14A14910   3.413   0.902   2.871  0.0808  0.5652  0.0979
  138OSM   H14B14911   3.489   0.738   2.846 -1.6932 -1.8279 -3.5911
  138OSM   H14C14912   3.426   0.830   2.715  0.5412 -0.3936  0.5434
  138OSM    C1314913   3.570   1.066   2.768 -0.0740  0.2568 -0.2603
  138OSM   H13A14914   3.519   1.102   2.857  0.7900 -0.0999  0.3984
  138OSM   H13B14915   3.492   1.075   2.694  0.4358  1.8814 -0.6216
  138OSM   H13C14916   3.657   1.124   2.743 -0.2327 -0.1285 -1.7762
  138OSM    C1214917   3.678   0.882   2.650 -0.5908 -0.5703 -0.6230
  138OSM   H12A14918   3.616   0.914   2.567 -0.2339  3.5446  0.4678
  138OSM   H12B14919   3.688   0.775   2.643  2.1718 -0.3238 -1.5567
  138OSM    C1114920   3.821   0.935   2.622  0.8678 -0.1512 -0.4071
  138OSM   H11A14921   3.857   0.922   2.517  0.5416  4.5541 -1.3082
  138OSM   H11B14922   3.891   0.885   2.692 -0.3504 -0.6666  0.4764
  138OSM      P14923   3.957   1.152   2.619  0.2467  0.4396  0.4621
  138OSM    O1314924   4.072   1.077   2.677 -0.1988 -0.5600  0.4189
  138OSM    O1414925   3.960   1.188   2.472  0.6814  0.7285 -0.1102
  138OSM    O1114926   3.936   1.283   2.700 -0.0568  0.4604 -0.5698
  138OSM    O1214927   3.825   1.075   2.651  0.0999  0.4182  0.0035
  138OSM    C1S14928   3.884   1.257   2.837 -0.0863 -0.2945 -0.3132
  138OSM    H1S14929   3.925   1.165   2.885 -0.0100  0.3405  0.8675
  138OSM    H1T14930   3.774   1.243   2.827 -0.2612  0.9889 -0.2533
  138OSM     NF14931   3.861   1.342   3.059 -0.0121  0.0358 -0.1263
  138OSM    HNF14932   3.773   1.375   3.092 -1.4643 -0.8227 -2.8414
  138OSM    C2S14933   3.900   1.382   2.929 -0.7017 -0.4043  0.5599
  138OSM    H2S14934   4.007   1.411   2.924 -0.9510  0.3496 -0.6137
  138OSM    C3S14935   3.818   1.505   2.872 -0.3444  0.6527  0.1551
  138OSM    H3S14936   3.707   1.492   2.874 -0.8900  4.4205  1.0995
  138OSM     O314937   3.837   1.526   2.734  0.5550  0.0149 -0.1051
  138OSM    HO314938   3.885   1.448   2.706  0.3417  0.2903 -1.3120
  138OSM    C4S14939   3.838   1.622   2.969  0.6270 -0.2484  0.4274
  138OSM    H4S14940   3.940   1.654   2.996  0.8932  0.1558 -0.9894
  138OSM    C5S14941   3.735   1.697   3.014  0.4269 -0.5964  0.1414
  138OSM    H5S14942   3.637   1.670   2.971  0.2209  0.9368 -0.3924
  138OSM    C6S14943   3.737   1.821   3.093  0.1986  0.4224  0.1789
  138OSM    H6S14944   3.683   1.909   3.051 -1.2878 -0.2266  0.6540
  138OSM    H6T14945   3.845   1.848   3.098  0.3924 -0.4979  1.7788
  138OSM    C7S14946   3.684   1.811   3.235 -0.5853 -0.1432  0.0626
  138OSM    H7S14947   3.576   1.786   3.243 -0.5860 -0.4152 -0.7463
  138OSM    H7T14948   3.693   1.907   3.290 -2.5054  0.7889 -1.1481
  138OSM    C8S14949   3.758   1.701   3.311 -0.0122  0.0650  0.6967
  138OSM    H8S14950   3.868   1.704   3.300 -0.1846 -0.5055 -1.9469
  138OSM    H8T14951   3.733   1.601   3.271  0.8091 -0.1333  0.6748
  138OSM    C9S14952   3.720   1.712   3.463 -0.5802  0.2511  0.7497
  138OSM    H9S14953   3.704   1.814   3.505 -1.2901 -0.0866  1.2958
  138OSM    H9T14954   3.803   1.668   3.521 -1.3122 -0.0524  1.5845
  138OSM   C10S14955   3.601   1.618   3.495 -0.5186  0.3220  0.3003
  138OSM   H10S14956   3.648   1.519   3.479  0.8020  0.7862  1.1760
  138OSM   H10T14957   3.525   1.639   3.416  1.4315  1.6235 -1.3290
  138OSM   C11S14958   3.538   1.633   3.630  0.3312 -0.5924 -0.2561
  138OSM   H11S14959   3.465   1.550   3.644 -0.1037 -0.4651 -1.6282
  138OSM   H11T14960   3.484   1.730   3.635 -1.2018 -0.9593 -5.1172
  138OSM   C12S14961   3.637   1.628   3.749  0.8925 -0.0330  0.0028
  138OSM   H12S14962   3.719   1.704   3.742 -0.0769  1.1042  0.7122
  138OSM   H12T14963   3.680   1.526   3.761 -0.3663 -0.9206 -2.4546
  138OSM   C13S14964   3.558   1.661   3.880 -0.0586  0.5580 -0.3190
  138OSM   H13S14965   3.481   1.583   3.899  0.1006 -0.1921 -2.5084
  138OSM   H13T14966   3.519   1.765   3.882 -0.0099  0.5765  1.8437
  138OSM   C14S14967   3.643   1.638   4.004 -0.1471 -0.4510  0.4771
  138OSM   H14S14968   3.724   1.715   4.000 -0.1834 -0.4518 -2.3668
  138OSM   H14T14969   3.699   1.543   3.989  0.2182 -0.2633  0.6232
  138OSM   C15S14970   3.577   1.669   4.139  0.1305  0.1255 -0.1211
  138OSM   H15S14971   3.513   1.586   4.176 -0.8530  0.3066 -1.3440
  138OSM   H15T14972   3.514   1.755   4.109  0.3267  0.8283  1.4196
  138OSM   C16S14973   3.681   1.708   4.247 -0.2462  0.0705  0.4146
  138OSM   H16S14974   3.751   1.791   4.220  0.7096  0.4937  3.6943
  138OSM   H16T14975   3.745   1.617   4.245  0.3596  0.4820 -1.8252
  138OSM   C17S14976   3.627   1.741   4.386 -0.7095 -0.4951 -0.5160
  138OSM   H17S14977   3.561   1.658   4.420 -0.6387 -1.1321 -1.8377
  138OSM   H17T14978   3.573   1.838   4.389  0.2369  0.0382  2.8376
  138OSM   C18S14979   3.740   1.756   4.486 -0.1873  0.2059  0.1173
  138OSM   H18S14980   3.802   1.664   4.484 -0.1833  0.1941  0.5663
  138OSM   H18T14981   3.705   1.767   4.591 -0.8266  1.4804 -0.2073
  138OSM   H18U14982   3.802   1.846   4.467 -0.6953  0.7268  0.8750
  138OSM    C1F14983   3.942   1.268   3.137  0.2521  0.1145  0.5654
  138OSM     OF14984   4.045   1.210   3.094  0.2930  0.1137 -0.1379
  138OSM    C2F14985   3.895   1.238   3.281 -0.2269 -0.5844 -0.1673
  138OSM    H2F14986   3.906   1.130   3.306 -1.3634 -1.4498 -3.0222
  138OSM    H2G14987   3.788   1.263   3.298  0.5194  2.3647  0.6514
  138OSM    C3F14988   3.973   1.326   3.382 -0.0949  0.5324  0.5250
  138OSM    H3F14989   3.976   1.433   3.351  1.2492  0.7063  1.1599
  138OSM    H3G14990   4.078   1.290   3.377 -0.4430 -0.3157 -0.8483
  138OSM    C4F14991   3.909   1.311   3.520 -0.2828 -0.5665 -0.7179
  138OSM    H4F14992   3.882   1.206   3.544 -1.0551 -0.2063  0.0686
  138OSM    H4G14993   3.815   1.368   3.540 -0.6792 -1.7071  0.9494
  138OSM    C5F14994   4.002   1.372   3.629  0.4963 -0.6520 -0.3086
  138OSM    H5F14995   3.989   1.482   3.633 -1.1792 -0.8514  0.8634
  138OSM    H5G14996   4.106   1.352   3.596  0.3536 -1.7887 -0.1258
  138OSM    C6F14997   3.973   1.324   3.770 -0.0221 -0.4215  0.1169
  138OSM    H6F14998   3.945   1.216   3.770  1.2404 -0.7653 -0.7753
  138OSM    H6G14999   3.885   1.383   3.803  0.2147 -0.3365  0.6029
  138OSM    C7F15000   4.097   1.337   3.866  0.3165  0.1803  0.1297
  138OSM    H7F15001   4.161   1.426   3.847 -0.3461  0.3936 -1.2137
  138OSM    H7G15002   4.165   1.252   3.844  0.2866  0.1146  0.2905
  138OSM    C8F15003   4.064   1.341   4.017  0.9809 -0.5563 -0.2091
  138OSM    H8F15004   4.158   1.313   4.069  1.3990 -1.9027 -1.6215
  138OSM    H8G15005   3.985   1.272   4.051  0.1729  0.0008 -0.9049
  138OSM    C9F15006   4.020   1.479   4.053 -0.0767 -0.0508 -0.1430
  138OSM    H9F15007   3.957   1.540   3.986 -0.8904  1.0242  1.5172
  138OSM   C10F15008   4.021   1.539   4.174 -0.8408 -0.3824  0.2760
  138OSM   H10F15009   3.960   1.628   4.197 -1.2830 -0.3957 -0.7824
  138OSM   C11F15010   4.092   1.486   4.294  0.1789 -0.6571 -0.1089
  138OSM   H11F15011   4.173   1.557   4.319  2.0676 -2.8220  0.2476
  138OSM   H11G15012   4.121   1.379   4.283  1.1887 -0.4130  0.0610
  138OSM   C12F15013   4.012   1.490   4.427 -0.3020 -0.2012 -0.3316
  138OSM   H12F15014   3.911   1.450   4.401  0.0666 -1.7114  0.4290
  138OSM   H12G15015   3.997   1.594   4.464 -0.8223 -0.2038 -0.5281
  138OSM   C13F15016   4.078   1.415   4.536  0.7301  0.1124  0.2647
  138OSM   H13F15017   4.165   1.469   4.580 -0.3914  0.6047  1.9965
  138OSM   H13G15018   4.123   1.324   4.491  0.2521 -0.2505  0.5220
  138OSM   C14F15019   3.980   1.379   4.657  0.6472  0.3687  0.7710
  138OSM   H14F15020   3.885   1.334   4.619  0.0462  1.6108  0.7706
  138OSM   H14G15021   3.945   1.468   4.713 -0.6465  0.2004  0.2615
  138OSM   C15F15022   4.056   1.278   4.746 -0.2972 -0.7245  0.0248
  138OSM   H15F15023   4.143   1.322   4.799 -1.2520 -0.4625  1.4393
  138OSM   H15G15024   4.094   1.200   4.677 -0.7519  0.1959 -1.2878
  138OSM   C16F15025   3.962   1.226   4.852 -0.1863 -0.2409 -0.1513
  138OSM   H16F15026   3.865   1.211   4.799 -2.2462  1.0131  2.9528
  138OSM   H16G15027   3.954   1.306   4.928  0.5285 -0.2038 -0.1096
  138OSM   C17F15028   3.999   1.095   4.923 -0.0808  0.2540  0.2835
  138OSM   H17F15029   4.022   1.033   4.834  0.7535  1.4380 -0.3561
  138OSM   H17G15030   3.913   1.056   4.981 -1.6584 -1.1584 -2.8061
  138OSM   C18F15031   4.123   1.109   5.009 -0.0458 -0.0586 -0.0742
  138OSM   H18F15032   4.214   1.130   4.948  0.6362 -0.0434  0.9267
  138OSM   H18G15033   4.150   1.021   5.071  2.2781 -0.5151 -1.5664
  138OSM   H18H15034   4.114   1.190   5.084  1.8223 -1.0766  1.3413
  139OSM      N15035   2.298   4.675   2.189  0.1273 -0.8397 -0.1815
  139OSM    C1515036   2.372   4.795   2.134 -0.1705  0.7112  0.3238
  139OSM   H15A15037   2.386   4.782   2.028  0.8056  1.2997  0.3597
  139OSM   H15B15038   2.472   4.813   2.171 -0.4702  4.3041 -0.2223
  139OSM   H15C15039   2.321   4.887   2.157  1.1650  1.6348 -0.2476
  139OSM    C1415040   2.158   4.675   2.134  0.1871  0.2027 -0.5674
  139OSM   H14A15041   2.094   4.730   2.202  1.2556  1.9214 -0.8977
  139OSM   H14B15042   2.122   4.573   2.128  0.5438  0.0856 -0.6965
  139OSM   H14C15043   2.159   4.715   2.034  0.4348  1.4925 -0.0705
  139OSM    C1315044   2.360   4.551   2.130 -0.0318 -0.3909 -0.2747
  139OSM   H13A15045   2.376   4.561   2.023  0.4963 -1.8147 -0.3374
  139OSM   H13B15046   2.303   4.464   2.155 -2.5832  0.6819 -1.8882
  139OSM   H13C15047   2.453   4.531   2.180  0.1386 -1.6680 -1.0606
  139OSM    C1215048   2.284   4.671   2.341 -0.7132 -0.0030  0.7893
  139OSM   H12A15049   2.378   4.686   2.393 -1.1697 -1.7287  2.1968
  139OSM   H12B15050   2.267   4.570   2.375 -3.0118 -0.5494 -1.6427
  139OSM    C1115051   2.186   4.767   2.408 -0.9533  0.3256  0.3729
  139OSM   H11A15052   2.194   4.753   2.518 -1.2278  0.5111  0.4165
  139OSM   H11B15053   2.085   4.727   2.384 -0.0947 -1.5029 -0.4048
  139OSM      P15054   2.321   4.969   2.447  0.0784 -0.0061 -0.4906
  139OSM    O1315055   2.373   4.883   2.553 -0.0637 -0.5610  0.4238
  139OSM    O1415056   2.422   5.016   2.346 -0.3496 -0.0120 -0.4491
  139OSM    O1115057   2.254   5.094   2.519  0.1951 -0.3171  0.2108
  139OSM    O1215058   2.194   4.904   2.374 -0.2499 -0.4522 -0.0066
  139OSM    C1S15059   2.164   5.076   2.630  0.4452  0.6521  0.4636
  139OSM    H1S15060   2.106   4.981   2.622 -0.4513  1.1329  1.0458
  139OSM    H1T15061   2.081   5.150   2.635 -0.8629 -0.6257 -0.9677
  139OSM     NF15062   2.145   5.055   2.882 -0.3067 -0.1535  0.9792
  139OSM    HNF15063   2.105   5.133   2.930  0.6589  1.3885 -0.5956
  139OSM    C2S15064   2.236   5.082   2.777 -0.0937  0.0420 -0.0086
  139OSM    H2S15065   2.314   5.002   2.779 -0.1907 -0.1783 -2.1587
  139OSM    C3S15066   2.318   5.214   2.787 -0.8321  0.2576 -0.2213
  139OSM    H3S15067   2.247   5.299   2.797 -0.0356  0.8059  1.1300
  139OSM     O315068   2.395   5.241   2.668  0.5340 -0.4665  0.3178
  139OSM    HO315069   2.341   5.190   2.606 -0.4247 -0.7670  1.3602
  139OSM    C4S15070   2.407   5.223   2.913 -0.1097  0.4623 -0.2251
  139OSM    H4S15071   2.488   5.153   2.886 -2.0573 -0.8337 -3.1025
  139OSM    C5S15072   2.406   5.308   3.023  0.1213 -0.2623 -0.3753
  139OSM    H5S15073   2.325   5.383   3.028  1.0460  0.7810 -0.5126
  139OSM    C6S15074   2.507   5.302   3.140  0.4777  0.0778 -0.2875
  139OSM    H6S15075   2.525   5.393   3.201  1.6222  0.5883 -1.3449
  139OSM    H6T15076   2.600   5.259   3.099  0.7451  1.7957 -1.6166
  139OSM    C7S15077   2.460   5.197   3.245 -0.6811  0.6100 -0.2257
  139OSM    H7S15078   2.453   5.099   3.195 -0.3397 -1.0288  2.6979
  139OSM    H7T15079   2.360   5.220   3.290 -2.3975  1.0996 -3.9509
  139OSM    C8S15080   2.553   5.199   3.364 -0.2678 -0.2072 -0.1652
  139OSM    H8S15081   2.572   5.303   3.397  0.6637 -0.3781 -0.1461
  139OSM    H8T15082   2.654   5.169   3.328  0.6067  0.3176  1.7067
  139OSM    C9S15083   2.520   5.113   3.488  0.6421  0.1915 -0.6096
  139OSM    H9S15084   2.517   5.003   3.469 -1.7222 -0.7601  3.9630
  139OSM    H9T15085   2.413   5.127   3.514  0.5952 -0.8436 -0.1763
  139OSM   C10S15086   2.619   5.154   3.602 -0.4452  0.8077  0.3280
  139OSM   H10S15087   2.600   5.263   3.619 -0.9716  1.2608 -2.6491
  139OSM   H10T15088   2.721   5.133   3.566 -0.1641 -1.8561  2.3542
  139OSM   C11S15089   2.585   5.082   3.738  0.2584 -0.2022 -0.2131
  139OSM   H11S15090   2.578   4.972   3.721  1.0777  0.0611 -2.5799
  139OSM   H11T15091   2.480   5.105   3.766 -0.7561 -2.7054 -1.6067
  139OSM   C12S15092   2.675   5.135   3.853 -0.0024  0.0720 -0.1074
  139OSM   H12S15093   2.664   5.245   3.852 -2.7702 -0.1272 -0.0675
  139OSM   H12T15094   2.779   5.103   3.829  0.2142  1.2798 -0.8676
  139OSM   C13S15095   2.634   5.086   3.998  0.2778 -0.4952  0.2693
  139OSM   H13S15096   2.633   4.975   3.998  0.4177 -0.5003 -0.5026
  139OSM   H13T15097   2.530   5.126   4.004  0.1666 -0.6359 -0.6614
  139OSM   C14S15098   2.715   5.151   4.107 -0.5780 -0.4472  0.0953
  139OSM   H14S15099   2.704   5.259   4.084  1.2466 -0.2918 -0.1963
  139OSM   H14T15100   2.823   5.126   4.100 -0.6541 -0.3737 -1.7372
  139OSM   C15S15101   2.656   5.119   4.246  0.5261  0.1063 -0.5455
  139OSM   H15S15102   2.641   5.010   4.262 -2.6002  0.3525 -1.1077
  139OSM   H15T15103   2.551   5.152   4.264  1.2570  1.5555  1.4436
  139OSM   C16S15104   2.739   5.176   4.367  0.3299 -0.2772 -0.5864
  139OSM   H16S15105   2.727   5.286   4.381  2.9417 -0.1103  0.8662
  139OSM   H16T15106   2.846   5.150   4.354 -0.3245 -2.6689 -1.7811
  139OSM   C17S15107   2.685   5.106   4.498  0.1883 -0.0967  0.2907
  139OSM   H17S15108   2.693   4.996   4.485  1.8453  0.1641 -1.1931
  139OSM   H17T15109   2.577   5.129   4.512  0.6343  1.9430  0.6765
  139OSM   C18S15110   2.757   5.152   4.623  0.4435  0.1708 -0.5289
  139OSM   H18S15111   2.863   5.120   4.611 -0.5932 -3.0933 -2.2573
  139OSM   H18T15112   2.722   5.101   4.715  1.6011  2.5618  1.3525
  139OSM   H18U15113   2.760   5.261   4.643 -1.8704  0.1236  0.4571
  139OSM    C1F15114   2.099   4.935   2.916 -0.6768  0.3927  0.1607
  139OSM     OF15115   2.131   4.836   2.848 -0.1092  0.4086 -0.0459
  139OSM    C2F15116   2.019   4.928   3.043 -0.7413  0.1234  0.3506
  139OSM    H2F15117   1.911   4.931   3.016 -0.4196  0.6251 -0.9967
  139OSM    H2G15118   2.044   5.015   3.107  0.2030  0.8309 -0.9126
  139OSM    C3F15119   2.030   4.792   3.120 -0.4383  0.2598 -0.0361
  139OSM    H3F15120   2.003   4.711   3.050  0.2032 -0.1900  0.2200
  139OSM    H3G15121   1.970   4.787   3.213 -0.4819  1.6217  0.0320
  139OSM    C4F15122   2.175   4.752   3.148  0.4522  0.7549  1.2866
  139OSM    H4F15123   2.228   4.728   3.054 -1.7512 -0.8757  0.3626
  139OSM    H4G15124   2.187   4.650   3.191  0.1584 -1.1572 -2.7448
  139OSM    C5F15125   2.259   4.856   3.227 -0.6634 -0.7066  0.1774
  139OSM    H5F15126   2.301   4.931   3.157  0.3136 -1.3077  0.0907
  139OSM    H5G15127   2.348   4.800   3.265 -0.7540 -1.4631 -0.6832
  139OSM    C6F15128   2.187   4.916   3.356 -0.0153 -0.7255  0.9804
  139OSM    H6F15129   2.096   4.962   3.312 -0.2431 -2.6620 -0.7286
  139OSM    H6G15130   2.255   4.992   3.402  1.8425 -1.4562 -0.4400
  139OSM    C7F15131   2.140   4.806   3.460 -0.3430  0.1561 -0.7286
  139OSM    H7F15132   2.227   4.787   3.526 -1.7582  0.6464  1.3772
  139OSM    H7G15133   2.113   4.709   3.413 -2.4015 -0.7589  2.0184
  139OSM    C8F15134   2.011   4.844   3.542  0.1513  0.3130  0.4440
  139OSM    H8F15135   1.977   4.768   3.617  1.2392  0.3932  1.0310
  139OSM    H8G15136   1.933   4.860   3.465 -0.4313 -1.9390  0.4794
  139OSM    C9F15137   2.017   4.974   3.619  0.1019  0.6596  0.4726
  139OSM    H9F15138   1.955   5.058   3.585  1.0131  1.1143 -0.0956
  139OSM   C10F15139   2.099   5.000   3.724  0.6486 -0.4850 -0.2059
  139OSM   H10F15140   2.112   5.105   3.752  1.1812 -0.2358 -1.3417
  139OSM   C11F15141   2.189   4.912   3.796  0.2037  0.0265  1.1129
  139OSM   H11F15142   2.289   4.933   3.752 -0.7178 -0.8280 -1.5867
  139OSM   H11G15143   2.157   4.813   3.758  1.4421 -0.6584  1.7671
  139OSM   C12F15144   2.188   4.917   3.944  0.3829 -0.6752 -0.1896
  139OSM   H12F15145   2.085   4.891   3.977  0.5744  0.0654  1.0684
  139OSM   H12G15146   2.200   5.018   3.988 -0.3304 -1.8195  2.9155
  139OSM   C13F15147   2.290   4.821   3.999 -0.0399 -0.6833 -0.3271
  139OSM   H13F15148   2.379   4.833   3.933 -1.4750  1.5235 -2.0142
  139OSM   H13G15149   2.267   4.713   3.995 -1.5793 -0.3745 -0.4962
  139OSM   C14F15150   2.337   4.858   4.140 -0.0294 -0.2626  0.0658
  139OSM   H14F15151   2.334   4.967   4.159  2.0995 -0.2915  0.8626
  139OSM   H14G15152   2.445   4.829   4.148 -0.2418 -0.9684  0.5072
  139OSM   C15F15153   2.275   4.781   4.261  0.4890 -0.4528  0.7407
  139OSM   H15F15154   2.269   4.672   4.242  1.4957 -0.5680  1.0010
  139OSM   H15G15155   2.176   4.828   4.279  0.4877 -1.4963  4.2545
  139OSM   C16F15156   2.351   4.800   4.387 -0.1512 -0.3302  0.0642
  139OSM   H16F15157   2.284   4.762   4.467  0.1783 -1.2357 -0.0714
  139OSM   H16G15158   2.362   4.910   4.401  0.4639 -0.1940 -1.2839
  139OSM   C17F15159   2.486   4.728   4.391  0.2721 -0.1590 -0.4620
  139OSM   H17F15160   2.551   4.775   4.315 -1.2027  1.2299 -0.8974
  139OSM   H17G15161   2.470   4.619   4.372 -0.1309 -0.4346  1.2622
  139OSM   C18F15162   2.543   4.735   4.536  0.0808 -0.7532  0.1604
  139OSM   H18F15163   2.558   4.840   4.569  2.3384 -0.7205 -0.7523
  139OSM   H18G15164   2.640   4.681   4.530  1.7555  2.0020  0.7413
  139OSM   H18H15165   2.460   4.687   4.591 -1.5143  0.6407 -0.9457
  140OSM      N15166   2.525   2.316   2.568  0.1935 -0.0085  0.5524
  140OSM    C1515167   2.629   2.231   2.510 -0.0984  0.1603 -0.5635
  140OSM   H15A15168   2.597   2.172   2.425 -0.8464 -1.1317  0.5882
  140OSM   H15B15169   2.664   2.160   2.583 -0.7646 -0.7781 -1.1271
  140OSM   H15C15170   2.716   2.291   2.489  0.1095 -0.4096 -1.3922
  140OSM    C1415171   2.583   2.391   2.688 -0.1995  0.7067  0.5906
  140OSM   H14A15172   2.616   2.330   2.770  0.0713  0.4241  0.2751
  140OSM   H14B15173   2.515   2.471   2.715  1.2436  1.8806  0.9260
  140OSM   H14C15174   2.675   2.443   2.663  1.0076 -1.2813  0.7028
  140OSM    C1315175   2.482   2.416   2.457  0.1659  0.2071 -0.2787
  140OSM   H13A15176   2.562   2.458   2.397 -1.2747  0.2725 -2.2603
  140OSM   H13B15177   2.418   2.489   2.503  1.3310  0.2986  1.2626
  140OSM   H13C15178   2.423   2.366   2.382  0.4640 -1.7650  0.7209
  140OSM    C1215179   2.411   2.232   2.617  0.1058  0.7917 -0.8200
  140OSM   H12A15180   2.460   2.156   2.675 -2.2451 -0.6535 -0.5907
  140OSM   H12B15181   2.365   2.169   2.542  1.0023 -0.9982  0.0751
  140OSM    C1115182   2.307   2.300   2.702  0.3842 -0.0978  0.0672
  140OSM   H11A15183   2.245   2.362   2.633 -0.8341 -2.0873 -0.7160
  140OSM   H11B15184   2.348   2.358   2.787 -1.2978  1.8503 -0.3466
  140OSM      P15185   2.068   2.174   2.707 -0.3655 -0.0626 -0.1156
  140OSM    O1315186   2.067   2.160   2.561  0.5874 -0.0465  0.2542
  140OSM    O1415187   2.036   2.054   2.783  0.0144  0.4869  0.0064
  140OSM    O1115188   1.991   2.308   2.750 -0.1245  0.0875 -0.7395
  140OSM    O1215189   2.213   2.207   2.754  0.5184 -0.0762 -0.2342
  140OSM    C1S15190   1.940   2.323   2.877  0.1893  0.0229 -0.8392
  140OSM    H1S15191   1.911   2.226   2.922 -0.2692  0.1852 -0.7780
  140OSM    H1T15192   1.849   2.384   2.860  0.0981  0.1080 -0.0544
  140OSM     NF15193   1.942   2.405   3.105  0.9178  0.8056 -0.1139
  140OSM    HNF15194   1.878   2.477   3.128  0.1605 -0.6787  3.0154
  140OSM    C2S15195   2.023   2.396   2.988 -0.3437  0.4258 -0.6594
  140OSM    H2S15196   2.115   2.336   3.004  0.2872  1.2400 -1.1299
  140OSM    C3S15197   2.071   2.541   2.933 -0.0134  0.1837 -0.8315
  140OSM    H3S15198   1.974   2.595   2.931 -0.1797 -0.0758 -0.1224
  140OSM     O315199   2.102   2.542   2.795  0.2831  0.0647 -0.1787
  140OSM    HO315200   2.068   2.456   2.772 -1.6379  0.2399  1.6966
  140OSM    C4S15201   2.162   2.617   3.022 -0.2873  0.0579  0.5734
  140OSM    H4S15202   2.104   2.673   3.096 -2.2885  0.3371 -1.1031
  140OSM    C5S15203   2.294   2.649   3.005  0.3076 -0.8156  0.7053
  140OSM    H5S15204   2.350   2.617   2.916 -1.6445  0.1251 -0.9480
  140OSM    C6S15205   2.372   2.744   3.092 -0.5275  0.4832 -0.1502
  140OSM    H6S15206   2.423   2.827   3.038 -0.4581 -0.4150 -1.5255
  140OSM    H6T15207   2.460   2.689   3.131  0.8336  2.2196 -0.6335
  140OSM    C7S15208   2.292   2.805   3.210  0.0098 -0.0430 -0.1654
  140OSM    H7S15209   2.254   2.723   3.276 -2.9191  0.7241 -0.7580
  140OSM    H7T15210   2.210   2.867   3.168  0.2215 -0.5611 -1.3839
  140OSM    C8S15211   2.367   2.896   3.308  0.6493 -0.2862 -0.4616
  140OSM    H8S15212   2.419   2.971   3.245  0.8163  1.1540  1.2928
  140OSM    H8T15213   2.445   2.832   3.354 -1.6564 -2.2590  0.9597
  140OSM    C9S15214   2.270   2.943   3.407  0.2958  0.2283  0.2262
  140OSM    H9S15215   2.219   2.852   3.444 -0.7818 -0.1129 -1.9710
  140OSM    H9T15216   2.197   3.017   3.368 -0.0967 -0.5586 -0.5439
  140OSM   C10S15217   2.346   2.997   3.528  0.1199 -0.2090 -0.5559
  140OSM   H10S15218   2.391   3.097   3.514  1.5152 -0.4143  1.9628
  140OSM   H10T15219   2.420   2.920   3.560  0.3784  0.7290  1.2325
  140OSM   C11S15220   2.256   3.018   3.647 -0.2482 -0.5018  0.0036
  140OSM   H11S15221   2.207   2.923   3.676  0.6418 -0.4800  1.6697
  140OSM   H11T15222   2.180   3.094   3.619  0.3486  0.0353 -0.1838
  140OSM   C12S15223   2.325   3.070   3.775  0.0684  0.0058 -0.9600
  140OSM   H12S15224   2.345   3.178   3.758 -0.5562  0.0457 -1.4806
  140OSM   H12T15225   2.427   3.027   3.786  0.2232  0.7367  0.7993
  140OSM   C13S15226   2.241   3.054   3.900  0.3543  1.0847 -0.4185
  140OSM   H13S15227   2.221   2.945   3.903  0.0135  1.1649  0.4102
  140OSM   H13T15228   2.140   3.100   3.891 -1.1978 -1.4754  2.2926
  140OSM   C14S15229   2.306   3.091   4.037 -0.0802 -0.5324 -0.3016
  140OSM   H14S15230   2.346   3.194   4.030 -0.0587 -0.5603 -0.6475
  140OSM   H14T15231   2.387   3.030   4.083  1.8987  2.7278  0.8452
  140OSM   C15S15232   2.202   3.094   4.158  0.8636 -0.2813 -0.8411
  140OSM   H15S15233   2.185   2.989   4.191 -2.6483  0.6665  0.8947
  140OSM   H15T15234   2.106   3.137   4.122  0.7472 -0.5486 -0.8557
  140OSM   C16S15235   2.254   3.165   4.287  0.2679 -0.3228  0.4210
  140OSM   H16S15236   2.171   3.148   4.359 -1.3817 -3.2226 -1.8865
  140OSM   H16T15237   2.276   3.272   4.271  0.3695 -0.2668  0.9333
  140OSM   C17S15238   2.385   3.109   4.349  0.2066  0.3819 -0.2225
  140OSM   H17S15239   2.411   3.171   4.437  2.5686  1.3966 -1.5311
  140OSM   H17T15240   2.473   3.124   4.282 -0.3119 -0.9483 -1.2601
  140OSM   C18S15241   2.392   2.959   4.383 -0.9106 -0.1740  0.1602
  140OSM   H18S15242   2.316   2.920   4.454 -1.9625 -0.4268 -1.0703
  140OSM   H18T15243   2.493   2.931   4.418 -0.4470 -1.6687 -2.1518
  140OSM   H18U15244   2.379   2.895   4.293 -0.4001  0.2158 -0.1889
  140OSM    C1F15245   1.925   2.291   3.176  0.4980 -0.8331  0.8612
  140OSM     OF15246   1.996   2.199   3.145 -0.1052  0.5093 -0.0275
  140OSM    C2F15247   1.820   2.276   3.281  0.7358 -0.6493 -0.0650
  140OSM    H2F15248   1.716   2.284   3.243  0.1838  3.2524  1.7856
  140OSM    H2G15249   1.838   2.366   3.344  0.1547  0.6944 -1.7245
  140OSM    C3F15250   1.836   2.154   3.370 -0.3318 -0.3731 -0.2134
  140OSM    H3F15251   1.938   2.144   3.413 -0.9717 -3.2753  0.8853
  140OSM    H3G15252   1.816   2.057   3.320  1.3635 -1.1061  0.4575
  140OSM    C4F15253   1.739   2.157   3.490 -0.3317  0.8008 -0.5530
  140OSM    H4F15254   1.752   2.061   3.543 -1.0250 -0.2367 -2.1763
  140OSM    H4G15255   1.638   2.168   3.446  0.2560  1.1516 -1.8694
  140OSM    C5F15256   1.762   2.271   3.585  0.5712  0.3391  0.4643
  140OSM    H5F15257   1.730   2.370   3.545 -2.4615 -0.3242  0.9771
  140OSM    H5G15258   1.873   2.264   3.588  0.6650 -0.4499 -2.4031
  140OSM    C6F15259   1.669   2.242   3.714 -0.3004 -0.0573  0.5206
  140OSM    H6F15260   1.691   2.138   3.745  0.0036 -1.1390 -2.9391
  140OSM    H6G15261   1.558   2.245   3.704 -0.6242 -1.2828  3.0411
  140OSM    C7F15262   1.695   2.347   3.822  0.4508  0.7863  1.1169
  140OSM    H7F15263   1.611   2.347   3.894 -1.3623  2.9715 -0.8521
  140OSM    H7G15264   1.691   2.447   3.774 -1.2477  0.8886  1.4178
  140OSM    C8F15265   1.833   2.328   3.888  0.4204  0.1456  0.2500
  140OSM    H8F15266   1.867   2.425   3.930  0.9097  0.0295  0.1337
  140OSM    H8G15267   1.901   2.302   3.805 -1.8670 -0.4004 -1.5593
  140OSM    C9F15268   1.826   2.215   3.992  0.2045  0.2095  0.0756
  140OSM    H9F15269   1.805   2.116   3.949  0.5502 -0.0228  0.4418
  140OSM   C10F15270   1.835   2.229   4.123  0.3164  0.4736 -0.6389
  140OSM   H10F15271   1.829   2.144   4.192  0.4007  0.0413 -1.1534
  140OSM   C11F15272   1.848   2.359   4.201 -0.0192  0.1925  0.3075
  140OSM   H11F15273   1.828   2.445   4.133 -1.4692 -1.6881 -1.8167
  140OSM   H11G15274   1.954   2.362   4.234  0.3880 -0.6129 -0.8648
  140OSM   C12F15275   1.758   2.353   4.325 -0.3191 -0.0510 -0.7251
  140OSM   H12F15276   1.658   2.313   4.298 -0.4138  0.5017 -1.2153
  140OSM   H12G15277   1.737   2.460   4.349 -0.7065  0.1498 -1.9001
  140OSM   C13F15278   1.806   2.272   4.448  0.2547  0.1812  0.1289
  140OSM   H13F15279   1.910   2.308   4.464  0.8496 -1.6101  0.4430
  140OSM   H13G15280   1.799   2.164   4.426 -3.1874  0.3354 -0.0088
  140OSM   C14F15281   1.737   2.303   4.586  0.2127 -0.4469  0.0760
  140OSM   H14F15282   1.626   2.303   4.582  0.1963 -1.1623  0.4407
  140OSM   H14G15283   1.760   2.411   4.599  0.0566 -0.0714 -2.3926
  140OSM   C15F15284   1.788   2.227   4.714 -0.4914  0.1961 -0.0741
  140OSM   H15F15285   1.869   2.292   4.752 -0.4745  0.1622 -0.0508
  140OSM   H15G15286   1.836   2.128   4.698 -1.3473 -0.3986  0.9145
  140OSM   C16F15287   1.679   2.206   4.822  0.2747  0.6688 -0.2658
  140OSM   H16F15288   1.611   2.119   4.806  1.1793 -0.5935  2.1684
  140OSM   H16G15289   1.616   2.297   4.822  0.3398  0.7626 -2.3417
  140OSM   C17F15290   1.728   2.205   4.969 -0.7538  0.6985 -0.5405
  140OSM   H17F15291   1.634   2.202   5.028 -1.3175 -0.9142 -1.4656
  140OSM   H17G15292   1.801   2.285   4.994  2.5300 -2.1168 -0.3799
  140OSM   C18F15293   1.808   2.079   5.007  0.1880  0.0958  0.1719
  140OSM   H18F15294   1.831   2.077   5.116  1.2444 -1.2675 -0.0442
  140OSM   H18G15295   1.905   2.091   4.953  1.1781  0.6954  1.9958
  140OSM   H18H15296   1.760   1.984   4.975  0.9619  0.5096 -2.4504
  141OSM      N15297   5.603   1.625   2.709 -0.3480 -0.6063 -0.2985
  141OSM    C1515298   5.481   1.570   2.636  0.0557 -0.2869 -0.9935
  141OSM   H15A15299   5.479   1.557   2.528 -1.3240  1.1703 -1.1809
  141OSM   H15B15300   5.394   1.619   2.676 -0.1669 -0.1785 -1.5901
  141OSM   H15C15301   5.469   1.465   2.660  0.7881 -0.1254  0.1234
  141OSM    C1415302   5.595   1.600   2.858 -0.1732 -0.4249 -0.4028
  141OSM   H14A15303   5.660   1.671   2.908  2.2258 -1.5111 -1.8162
  141OSM   H14B15304   5.635   1.503   2.882  0.4504 -0.4625 -1.5218
  141OSM   H14C15305   5.496   1.607   2.899 -0.2169  0.8586 -0.6834
  141OSM    C1315306   5.730   1.554   2.669 -1.2098 -0.9369  0.5135
  141OSM   H13A15307   5.809   1.588   2.735 -2.0239 -0.4797  1.2875
  141OSM   H13B15308   5.757   1.576   2.567  2.0867 -0.3314  1.4069
  141OSM   H13C15309   5.722   1.447   2.678 -0.2931 -1.2124 -1.4515
  141OSM    C1215310   5.617   1.775   2.688 -0.4245 -0.0696 -0.1438
  141OSM   H12A15311   5.650   1.795   2.587  2.8841 -0.2353  0.7881
  141OSM   H12B15312   5.691   1.822   2.751  1.2119  0.5367 -2.4008
  141OSM    C1115313   5.493   1.862   2.715  0.4326 -0.1431 -0.6555
  141OSM   H11A15314   5.448   1.864   2.817  0.7805  3.2745 -0.4769
  141OSM   H11B15315   5.405   1.818   2.663 -0.0751  1.2700 -1.0303
  141OSM      P15316   5.571   2.122   2.748 -0.4065  0.1225 -0.1777
  141OSM    O1315317   5.710   2.146   2.717  0.0444 -0.6153  0.1874
  141OSM    O1415318   5.479   2.229   2.712  0.0686 -0.1169 -0.7778
  141OSM    O1115319   5.562   2.092   2.903  0.3213 -0.0874 -0.2441
  141OSM    O1215320   5.515   1.994   2.664  0.0344  1.0411 -0.2238
  141OSM    C1S15321   5.670   2.033   2.971 -0.0509 -0.0761 -0.2526
  141OSM    H1S15322   5.761   2.097   2.978  1.1814 -1.7773  0.0246
  141OSM    H1T15323   5.717   1.952   2.911  3.1697  2.0281 -0.8193
  141OSM     NF15324   5.753   1.953   3.202  0.3851 -0.1213 -0.3576
  141OSM    HNF15325   5.756   1.855   3.223  0.5128  0.0562  0.5034
  141OSM    C2S15326   5.636   1.996   3.124  0.4579  0.8547  0.3864
  141OSM    H2S15327   5.615   2.095   3.171  0.2460  0.4657  1.1124
  141OSM    C3S15328   5.510   1.904   3.131 -0.7569  0.3341  0.1349
  141OSM    H3S15329   5.536   1.804   3.093 -0.0144  1.0212 -1.2420
  141OSM     O315330   5.399   1.938   3.056 -0.0772  0.0308 -0.1575
  141OSM    HO315331   5.431   2.007   2.997  2.9047 -0.7767  0.3543
  141OSM    C4S15332   5.476   1.884   3.274  0.5763 -0.4249 -0.4779
  141OSM    H4S15333   5.525   1.797   3.320 -0.1555 -1.7448 -2.0862
  141OSM    C5S15334   5.377   1.943   3.348 -0.2551 -0.5410  0.3562
  141OSM    H5S15335   5.317   2.024   3.304 -1.0265 -0.8350  0.8537
  141OSM    C6S15336   5.348   1.903   3.490  0.3965  0.2067 -0.0104
  141OSM    H6S15337   5.292   1.807   3.491 -1.7837  1.4238  0.1508
  141OSM    H6T15338   5.264   1.961   3.534 -0.7749 -0.7185 -0.9472
  141OSM    C7S15339   5.467   1.923   3.585 -0.1368  0.0449  0.6841
  141OSM    H7S15340   5.469   2.031   3.611 -0.7957  0.2840 -0.2191
  141OSM    H7T15341   5.563   1.886   3.541 -0.5469  0.3579 -0.4934
  141OSM    C8S15342   5.446   1.853   3.725 -0.2355  0.8711  0.6154
  141OSM    H8S15343   5.532   1.868   3.794  0.4818  2.3869 -0.5595
  141OSM    H8T15344   5.440   1.745   3.701 -0.0760  1.5223 -2.8603
  141OSM    C9S15345   5.309   1.876   3.795 -0.0018 -0.5531 -0.5917
  141OSM    H9S15346   5.224   1.841   3.733 -1.0075  0.7888 -0.0010
  141OSM    H9T15347   5.300   1.986   3.803 -0.7536 -0.6535 -0.0008
  141OSM   C10S15348   5.306   1.822   3.937  0.4259  0.1390  0.4106
  141OSM   H10S15349   5.392   1.837   4.006  0.4837  0.8106  0.2069
  141OSM   H10T15350   5.300   1.711   3.932 -1.3699  0.1716  0.9887
  141OSM   C11S15351   5.190   1.884   4.020 -0.2373 -0.5353  0.7199
  141OSM   H11S15352   5.098   1.874   3.958  2.2891 -2.2107 -3.1809
  141OSM   H11T15353   5.223   1.988   4.038  0.3481 -0.4581 -0.6702
  141OSM   C12S15354   5.178   1.820   4.157 -0.0927  0.3791  0.5021
  141OSM   H12S15355   5.257   1.862   4.224 -2.2840  2.1659  2.0972
  141OSM   H12T15356   5.168   1.709   4.159 -2.4990  0.5191 -0.5696
  141OSM   C13S15357   5.050   1.849   4.229  0.4662 -0.0410  0.5075
  141OSM   H13S15358   4.972   1.789   4.178  0.8567 -0.3436  0.2591
  141OSM   H13T15359   5.031   1.958   4.228 -0.1549 -0.1299  1.4531
  141OSM   C14S15360   5.049   1.806   4.373 -0.0632 -0.1312 -0.2159
  141OSM   H14S15361   5.108   1.879   4.432 -0.0619  1.4867 -2.1195
  141OSM   H14T15362   5.093   1.704   4.378  0.6605  0.2028  0.2768
  141OSM   C15S15363   4.906   1.799   4.430  0.2968 -0.4588  0.2504
  141OSM   H15S15364   4.908   1.740   4.524 -0.0076 -1.3875 -0.3158
  141OSM   H15T15365   4.838   1.745   4.361 -0.1596  0.8515 -0.3560
  141OSM   C16S15366   4.859   1.941   4.445 -0.6559 -0.4298 -0.1872
  141OSM   H16S15367   4.840   1.991   4.347  1.1943 -3.1921 -2.0913
  141OSM   H16T15368   4.940   1.998   4.494 -1.5304  2.2174 -1.6070
  141OSM   C17S15369   4.732   1.960   4.525  0.2994 -0.2337  0.6940
  141OSM   H17S15370   4.737   1.929   4.631 -2.3011  1.5244  1.4463
  141OSM   H17T15371   4.660   1.896   4.469 -2.0726  1.7721  1.2651
  141OSM   C18S15372   4.685   2.105   4.523  0.3102 -0.0587 -0.2419
  141OSM   H18S15373   4.601   2.117   4.594  1.4071  0.9610  0.9240
  141OSM   H18T15374   4.664   2.149   4.423 -0.3252  0.9834  0.3401
  141OSM   H18U15375   4.768   2.161   4.570 -1.8709  2.1017  1.2608
  141OSM    C1F15376   5.848   2.038   3.225 -0.1246  0.2421 -0.0423
  141OSM     OF15377   5.846   2.150   3.175  0.0270 -0.3789  0.3617
  141OSM    C2F15378   5.960   1.995   3.311  0.2907  0.2824  0.8509
  141OSM    H2F15379   5.989   2.085   3.369 -0.6254 -0.8860  3.2649
  141OSM    H2G15380   6.047   1.957   3.254  0.6121  2.3029 -0.1054
  141OSM    C3F15381   5.918   1.889   3.425 -0.2144  0.0836 -0.3989
  141OSM    H3F15382   5.879   1.799   3.373 -1.3437 -0.3493  1.1510
  141OSM    H3G15383   5.836   1.945   3.475 -1.1975 -2.1920  0.6858
  141OSM    C4F15384   6.046   1.843   3.501 -0.6176 -0.1104 -0.5744
  141OSM    H4F15385   6.084   1.929   3.561  1.0977  1.5622 -3.7831
  141OSM    H4G15386   6.133   1.821   3.435  0.2421  2.1505 -0.2780
  141OSM    C5F15387   6.026   1.726   3.603  0.5129  0.2885  0.4662
  141OSM    H5F15388   6.121   1.714   3.660  0.3679 -1.0475  0.4613
  141OSM    H5G15389   6.003   1.630   3.551 -0.2618  0.2328  0.8843
  141OSM    C6F15390   5.909   1.750   3.703 -0.2170  0.0319  0.6548
  141OSM    H6F15391   5.859   1.650   3.710  0.3868 -0.3447 -0.2863
  141OSM    H6G15392   5.834   1.819   3.660 -1.7320 -1.1597  1.2651
  141OSM    C7F15393   5.948   1.809   3.836 -0.0119 -0.1497 -0.5761
  141OSM    H7F15394   6.012   1.896   3.810  1.4006 -1.2548 -0.9036
  141OSM    H7G15395   6.016   1.740   3.890  0.8243  1.1280  0.0654
  141OSM    C8F15396   5.838   1.850   3.939 -0.8947 -0.0337 -0.0005
  141OSM    H8F15397   5.776   1.933   3.899 -0.9989  0.1445  0.5180
  141OSM    H8G15398   5.893   1.907   4.017 -0.4900  0.0975 -0.3804
  141OSM    C9F15399   5.740   1.751   3.997 -0.0297  0.0983 -0.0318
  141OSM    H9F15400   5.666   1.707   3.928 -1.5842  1.4193  0.7173
  141OSM   C10F15401   5.732   1.705   4.120 -0.1325  0.8072 -0.2824
  141OSM   H10F15402   5.655   1.632   4.149 -0.2413  1.5776  1.4806
  141OSM   C11F15403   5.810   1.742   4.243  0.9535  0.6243  0.7977
  141OSM   H11F15404   5.743   1.773   4.326  0.6013 -0.8491  1.1060
  141OSM   H11G15405   5.881   1.826   4.228  0.4078  1.2112  1.4333
  141OSM   C12F15406   5.890   1.626   4.306  0.5608  0.0827  0.0210
  141OSM   H12F15407   5.985   1.604   4.251  0.8351 -2.4240  1.3536
  141OSM   H12G15408   5.822   1.539   4.295 -0.4471  0.5846  1.9275
  141OSM   C13F15409   5.918   1.637   4.452 -0.1033 -0.2334 -0.1668
  141OSM   H13F15410   5.980   1.725   4.479  0.4066 -0.6326 -0.0131
  141OSM   H13G15411   5.984   1.555   4.488  0.7909 -0.3461 -1.9421
  141OSM   C14F15412   5.799   1.632   4.553 -0.0455 -0.1725  0.3000
  141OSM   H14F15413   5.752   1.533   4.537 -0.2928 -0.2265  1.2832
  141OSM   H14G15414   5.719   1.703   4.519  2.1357  2.2993  0.0164
  141OSM   C15F15415   5.842   1.667   4.694  0.1086  0.3932 -0.0265
  141OSM   H15F15416   5.880   1.771   4.702 -0.4664  0.5069  1.6910
  141OSM   H15G15417   5.924   1.597   4.720 -0.5079  0.2999  1.7789
  141OSM   C16F15418   5.720   1.657   4.790  0.1039  0.1148 -0.5548
  141OSM   H16F15419   5.674   1.557   4.776 -0.6747  0.1365  1.4842
  141OSM   H16G15420   5.655   1.744   4.765  0.1193  0.4566  0.5136
  141OSM   C17F15421   5.772   1.666   4.936  0.1537  0.3559 -0.0142
  141OSM   H17F15422   5.850   1.746   4.932  3.5220 -2.6990 -0.4540
  141OSM   H17G15423   5.830   1.576   4.964  0.3490 -0.5083 -2.8897
  141OSM   C18F15424   5.673   1.699   5.043 -0.0094  0.1705  0.6077
  141OSM   H18F15425   5.598   1.617   5.051  0.5372 -0.2695  1.3256
  141OSM   H18G15426   5.632   1.799   5.016  2.8211  1.0310 -0.8585
  141OSM   H18H15427   5.728   1.716   5.137  1.0575  1.3936 -0.2073
  142OSM      N15428   5.276   4.101   2.193  0.3858  0.0488 -0.3771
  142OSM    C1515429   5.273   4.130   2.050  0.1065  0.2831 -0.9705
  142OSM   H15A15430   5.371   4.132   2.003 -0.2381  0.3590 -1.7017
  142OSM   H15B15431   5.228   4.223   2.020  2.0086  1.4901 -0.2776
  142OSM   H15C15432   5.222   4.049   2.000 -1.9907 -0.5664  2.2298
  142OSM    C1415433   5.136   4.097   2.237 -0.7996  0.0829  0.0533
  142OSM   H14A15434   5.092   4.017   2.179  0.7572 -1.1213  0.4534
  142OSM   H14B15435   5.084   4.189   2.217 -0.1520  0.2148 -1.1241
  142OSM   H14C15436   5.119   4.079   2.342 -4.5882  1.4105 -0.1979
  142OSM    C1315437   5.336   3.961   2.204  0.4437  0.1033  0.8141
  142OSM   H13A15438   5.356   3.927   2.304  2.2292 -0.6409  0.2446
  142OSM   H13B15439   5.432   3.963   2.156  0.6474 -0.9795  1.1559
  142OSM   H13C15440   5.266   3.891   2.160 -1.4683  0.8463  2.4721
  142OSM    C1215441   5.360   4.204   2.267 -0.8362  0.0885  0.9297
  142OSM   H12A15442   5.309   4.299   2.272 -1.8763 -0.4463  0.7587
  142OSM   H12B15443   5.448   4.222   2.208 -1.3382 -1.1496 -0.2463
  142OSM    C1115444   5.405   4.170   2.412  0.0785  0.0425 -0.1063
  142OSM   H11A15445   5.319   4.150   2.479  1.4799  0.3952  1.8638
  142OSM   H11B15446   5.447   4.260   2.462 -0.9433  0.6786 -0.3344
  142OSM      P15447   5.643   4.089   2.358 -0.4385 -0.0286  0.1733
  142OSM    O1315448   5.675   3.991   2.253  0.2516  0.0029  0.1156
  142OSM    O1415449   5.644   4.230   2.320 -0.0843 -0.0783  0.8735
  142OSM    O1115450   5.727   4.062   2.489 -0.1174 -0.4363 -0.4054
  142OSM    O1215451   5.502   4.061   2.413  0.5883 -0.3889 -0.7748
  142OSM    C1S15452   5.729   4.158   2.595  0.1154 -0.7109 -0.2593
  142OSM    H1S15453   5.627   4.199   2.608  0.2035 -0.6545  0.2819
  142OSM    H1T15454   5.810   4.234   2.589  0.4257 -0.8306  1.5833
  142OSM     NF15455   5.745   4.197   2.839 -0.1734  0.0493 -0.2154
  142OSM    HNF15456   5.825   4.247   2.873 -0.8908  0.0197  1.6161
  142OSM    C2S15457   5.767   4.094   2.732 -0.1334  0.1855 -0.2566
  142OSM    H2S15458   5.702   4.010   2.765 -1.5295  2.1860  2.5216
  142OSM    C3S15459   5.917   4.042   2.710 -0.5740  0.5946 -0.6256
  142OSM    H3S15460   5.976   4.129   2.675 -0.1188  1.0472  1.2095
  142OSM     O315461   5.929   3.948   2.598 -0.0775  0.0821  0.3702
  142OSM    HO315462   5.852   3.958   2.542 -0.0852 -0.7805  0.2119
  142OSM    C4S15463   5.963   3.991   2.844  0.6447  0.3463 -0.7431
  142OSM    H4S15464   5.969   4.067   2.922 -1.7374 -0.9436  0.8200
  142OSM    C5S15465   5.988   3.864   2.886 -0.0286 -0.7018  0.2311
  142OSM    H5S15466   5.975   3.788   2.807  1.7601  0.6919 -1.5034
  142OSM    C6S15467   6.020   3.819   3.028  0.1468 -0.0667  0.3112
  142OSM    H6S15468   6.128   3.832   3.050  0.9859  1.5237 -3.7392
  142OSM    H6T15469   5.995   3.711   3.037 -2.2105  0.5774  2.6815
  142OSM    C7S15470   5.929   3.893   3.124 -0.1860 -0.0503  0.6902
  142OSM    H7S15471   5.826   3.901   3.085 -0.1923  0.8223  0.8576
  142OSM    H7T15472   5.965   3.998   3.134 -0.4007  0.0300  0.6257
  142OSM    C8S15473   5.927   3.839   3.262  0.5102 -0.0020  0.9699
  142OSM    H8S15474   5.921   3.728   3.256  1.6950 -0.0177 -2.1383
  142OSM    H8T15475   5.837   3.888   3.302 -0.9349  0.2952 -2.3446
  142OSM    C9S15476   6.048   3.881   3.344 -0.2985 -0.0228 -0.0478
  142OSM    H9S15477   6.068   3.990   3.338  0.6134 -0.1449  0.6550
  142OSM    H9T15478   6.141   3.832   3.307  0.2253 -1.1689  2.5503
  142OSM   C10S15479   6.050   3.841   3.486 -1.0375 -0.0986  0.1947
  142OSM   H10S15480   6.044   3.730   3.489 -3.3253 -0.0622 -0.9369
  142OSM   H10T15481   5.954   3.875   3.529 -0.3543  1.2911  0.6721
  142OSM   C11S15482   6.160   3.899   3.572 -0.0578 -0.1451  0.0143
  142OSM   H11S15483   6.137   4.008   3.581  0.7636  0.3511 -2.7825
  142OSM   H11T15484   6.253   3.889   3.513 -0.2831 -1.3319 -0.1564
  142OSM   C12S15485   6.170   3.826   3.709 -0.6036 -0.1505  0.3777
  142OSM   H12S15486   6.211   3.726   3.685 -1.5862 -0.7313  1.0800
  142OSM   H12T15487   6.067   3.812   3.748  0.0434 -0.0608  2.2026
  142OSM   C13S15488   6.272   3.873   3.805  0.4449 -0.2507  0.5395
  142OSM   H13S15489   6.245   3.974   3.844  0.7168 -0.0485  0.2139
  142OSM   H13T15490   6.366   3.888   3.747 -0.6388  0.6875 -1.0633
  142OSM   C14S15491   6.293   3.776   3.922  0.0024 -0.1232 -0.5424
  142OSM   H14S15492   6.317   3.671   3.896  0.3357 -0.3055  0.4515
  142OSM   H14T15493   6.201   3.777   3.984  0.3780 -1.1835  0.0470
  142OSM   C15S15494   6.411   3.818   4.008 -0.6131  0.4014 -0.1573
  142OSM   H15S15495   6.388   3.913   4.059 -1.2508  0.7159 -1.0004
  142OSM   H15T15496   6.497   3.831   3.939  0.4878 -1.2078  0.8349
  142OSM   C16S15497   6.461   3.719   4.117 -0.2314 -0.0836  0.2560
  142OSM   H16S15498   6.569   3.730   4.141  0.2321 -1.2955 -1.0949
  142OSM   H16T15499   6.466   3.622   4.063 -0.0313  0.3134 -0.4610
  142OSM   C17S15500   6.381   3.714   4.245 -0.3263 -0.1730  0.4378
  142OSM   H17S15501   6.409   3.636   4.320 -0.7656  0.3315  1.1479
  142OSM   H17T15502   6.274   3.688   4.227  0.3134 -2.5806 -0.1753
  142OSM   C18S15503   6.385   3.852   4.320  0.1549 -0.0326 -0.2801
  142OSM   H18S15504   6.306   3.920   4.282 -0.6085 -1.2197 -0.8447
  142OSM   H18T15505   6.486   3.895   4.300 -0.2838  1.6810  0.9853
  142OSM   H18U15506   6.375   3.838   4.430 -1.3033 -1.2129 -0.5409
  142OSM    C1F15507   5.623   4.225   2.890 -0.6141 -0.3406  0.6182
  142OSM     OF15508   5.523   4.164   2.860  0.4160 -0.1249 -0.5465
  142OSM    C2F15509   5.619   4.340   2.988  0.3094  0.1668  0.0162
  142OSM    H2F15510   5.532   4.408   2.971 -1.2091 -1.5207  0.6971
  142OSM    H2G15511   5.714   4.397   2.989  0.3660  0.1216  2.4759
  142OSM    C3F15512   5.612   4.295   3.141 -0.1421  0.4144  0.0292
  142OSM    H3F15513   5.512   4.250   3.162  0.3465 -0.5825  0.2277
  142OSM    H3G15514   5.602   4.381   3.211  1.6272 -0.8742  1.9950
  142OSM    C4F15515   5.715   4.196   3.186 -0.0061  0.2566  0.3691
  142OSM    H4F15516   5.803   4.191   3.119 -0.3604 -0.5180 -0.0564
  142OSM    H4G15517   5.669   4.094   3.191  1.5777 -0.4206  2.9654
  142OSM    C5F15518   5.774   4.210   3.327  0.0315 -0.9075  0.3903
  142OSM    H5F15519   5.784   4.318   3.353 -1.7535 -0.5632 -0.2080
  142OSM    H5G15520   5.878   4.172   3.322  0.3784  0.1335 -0.8685
  142OSM    C6F15521   5.708   4.147   3.449  0.1633 -0.2565  0.4264
  142OSM    H6F15522   5.718   4.037   3.443  3.4586  0.0112 -0.5689
  142OSM    H6G15523   5.600   4.175   3.451  0.1127 -0.4132 -0.0337
  142OSM    C7F15524   5.780   4.189   3.587 -0.4718  0.6969 -0.0984
  142OSM    H7F15525   5.771   4.300   3.587  0.9778  0.8419 -0.7705
  142OSM    H7G15526   5.888   4.165   3.581 -0.0845  1.9691  1.1491
  142OSM    C8F15527   5.719   4.119   3.709  0.4074  0.2021 -0.1731
  142OSM    H8F15528   5.610   4.123   3.686  0.8198 -1.8876 -2.9561
  142OSM    H8G15529   5.745   4.182   3.797 -1.8413  0.7381  0.1736
  142OSM    C9F15530   5.767   3.976   3.726 -0.3658 -0.2850  0.4116
  142OSM    H9F15531   5.773   3.918   3.633  0.4857 -1.0677  0.9180
  142OSM   C10F15532   5.818   3.924   3.840 -0.2473 -0.4848  0.1226
  142OSM   H10F15533   5.834   3.816   3.852  0.1457 -0.2354  2.2304
  142OSM   C11F15534   5.827   3.998   3.972  0.1786  0.3356  0.0210
  142OSM   H11F15535   5.784   3.937   4.054  0.6815  1.9036  1.5096
  142OSM   H11G15536   5.765   4.090   3.973 -1.6907 -0.8645  0.7916
  142OSM   C12F15537   5.975   4.036   4.010  0.1334 -0.5759 -0.6825
  142OSM   H12F15538   6.010   4.096   3.924 -2.1865 -2.7184 -3.3293
  142OSM   H12G15539   6.033   3.941   4.014  1.2122  0.1072  2.0045
  142OSM   C13F15540   5.985   4.115   4.142  0.1204  0.2275  0.3765
  142OSM   H13F15541   5.942   4.216   4.126 -0.6456 -0.4358 -2.0471
  142OSM   H13G15542   6.093   4.131   4.163 -0.0221  0.5031  0.9322
  142OSM   C14F15543   5.924   4.061   4.269  0.8328  0.6730  0.9927
  142OSM   H14F15544   5.925   3.951   4.263  2.6713  0.7465 -2.1914
  142OSM   H14G15545   5.816   4.084   4.281  0.1682 -1.4766 -0.3455
  142OSM   C15F15546   5.996   4.113   4.395  0.6031  0.3103  0.0974
  142OSM   H15F15547   6.023   4.220   4.383  1.3371  0.0578 -0.5093
  142OSM   H15G15548   6.098   4.070   4.404  0.3190 -0.3849  0.0375
  142OSM   C16F15549   5.913   4.096   4.522 -0.9466  0.0495 -0.6140
  142OSM   H16F15550   5.858   4.000   4.507  0.8485 -1.0037 -0.6936
  142OSM   H16G15551   5.845   4.182   4.536  0.4457  1.4210 -1.9845
  142OSM   C17F15552   6.012   4.084   4.641  0.5048  0.2708  0.1249
  142OSM   H17F15553   6.052   4.187   4.653 -0.0485  0.4649  0.3328
  142OSM   H17G15554   6.093   4.012   4.617  0.8894  0.7005  0.1061
  142OSM   C18F15555   5.954   4.056   4.778 -0.8977 -0.0940 -0.7259
  142OSM   H18F15556   6.030   4.048   4.859 -1.0697  1.5668 -0.3631
  142OSM   H18G15557   5.906   3.956   4.781  3.0079 -2.2763  4.1867
  142OSM   H18H15558   5.886   4.139   4.806  0.4082  0.7953 -0.1050
  143OSM      N15559   5.221   2.321   2.480 -0.4154  0.6479  0.3853
  143OSM    C1515560   5.132   2.268   2.585 -0.1593  0.5228  0.2857
  143OSM   H15A15561   5.080   2.177   2.563  0.4350  0.1394  0.4415
  143OSM   H15B15562   5.065   2.340   2.630 -0.3071 -0.0761  1.0398
  143OSM   H15C15563   5.194   2.233   2.666 -0.0688 -0.4744 -0.2053
  143OSM    C1415564   5.313   2.207   2.430 -0.0797 -0.4349  0.2975
  143OSM   H14A15565   5.364   2.256   2.348  1.1834 -3.4599 -0.8703
  143OSM   H14B15566   5.259   2.117   2.404  2.4293 -2.3359  1.2844
  143OSM   H14C15567   5.392   2.187   2.500  1.6243  0.2935 -1.3068
  143OSM    C1315568   5.136   2.373   2.366 -0.2555  0.3416 -0.8693
  143OSM   H13A15569   5.170   2.473   2.347  0.2087 -0.1437 -2.7745
  143OSM   H13B15570   5.035   2.353   2.399 -0.1486  2.8301  1.2553
  143OSM   H13C15571   5.165   2.315   2.279 -1.0189 -0.3565 -0.6760
  143OSM    C1215572   5.306   2.429   2.539 -0.5241 -0.7262 -0.4816
  143OSM   H12A15573   5.376   2.389   2.611  1.2649  0.6702 -1.3696
  143OSM   H12B15574   5.251   2.505   2.592  2.4183  1.6569 -0.6197
  143OSM    C1115575   5.393   2.511   2.434  0.4409  0.1741  0.3548
  143OSM   H11A15576   5.455   2.438   2.378  0.2675 -0.1084  0.5257
  143OSM   H11B15577   5.462   2.577   2.491  1.5918  0.1050 -0.9233
  143OSM      P15578   5.282   2.736   2.360 -0.1588  0.4605 -0.0971
  143OSM    O1315579   5.406   2.820   2.333  0.1945 -0.1273  0.0698
  143OSM    O1415580   5.164   2.766   2.272  0.0646  0.2361 -0.3733
  143OSM    O1115581   5.244   2.743   2.513  0.2899  0.3854 -0.3403
  143OSM    O1215582   5.319   2.590   2.343  0.2279  0.7148  0.0593
  143OSM    C1S15583   5.112   2.714   2.556  0.0020 -0.0832  0.5940
  143OSM    H1S15584   5.077   2.611   2.532  0.0951  0.1606 -0.6378
  143OSM    H1T15585   5.035   2.786   2.521 -0.2207 -2.0793 -3.6218
  143OSM     NF15586   4.951   2.705   2.760  0.1756  0.1401 -0.3836
  143OSM    HNF15587   4.919   2.786   2.808  0.9969  0.5948 -0.5891
  143OSM    C2S15588   5.096   2.716   2.712  0.2447 -0.5680  0.5470
  143OSM    H2S15589   5.160   2.634   2.752  1.8750  0.3326 -0.1052
  143OSM    C3S15590   5.159   2.845   2.774  0.1785 -0.3042 -0.1137
  143OSM    H3S15591   5.092   2.932   2.756  0.0474  0.4871  3.4325
  143OSM     O315592   5.283   2.891   2.725  0.1784 -0.4209 -0.2075
  143OSM    HO315593   5.302   2.830   2.654 -0.6667  0.5878 -1.3502
  143OSM    C4S15594   5.173   2.834   2.924  0.5934  0.2793  0.6887
  143OSM    H4S15595   5.092   2.889   2.974  0.1532  0.1087  0.1710
  143OSM    C5S15596   5.273   2.773   2.989  0.3975  0.2335 -0.5731
  143OSM    H5S15597   5.354   2.728   2.930  1.2437 -0.4967  1.0723
  143OSM    C6S15598   5.290   2.763   3.136  0.3195  0.5996 -0.3355
  143OSM    H6S15599   5.197   2.806   3.180 -0.3023 -2.2794  1.3815
  143OSM    H6T15600   5.383   2.814   3.170  0.2359  0.9184 -0.5765
  143OSM    C7S15601   5.296   2.623   3.184 -0.6490 -0.1511 -0.4425
  143OSM    H7S15602   5.365   2.564   3.120  0.8346 -0.6158  1.4939
  143OSM    H7T15603   5.198   2.570   3.189 -0.6175 -0.1034  1.0992
  143OSM    C8S15604   5.350   2.603   3.330  0.1219  0.2960  0.3907
  143OSM    H8S15605   5.276   2.655   3.394  1.6121 -0.4692  2.8693
  143OSM    H8T15606   5.450   2.649   3.346  0.5081 -0.7830  1.1580
  143OSM    C9S15607   5.348   2.455   3.374  0.3740  0.4633  0.2511
  143OSM    H9S15608   5.436   2.400   3.334  0.9806  2.0814 -0.7508
  143OSM    H9T15609   5.257   2.412   3.326 -1.0023  2.5162  0.9030
  143OSM   C10S15610   5.336   2.441   3.527  0.6894  0.5479 -0.1155
  143OSM   H10S15611   5.287   2.343   3.544 -0.9548  1.0786 -1.4641
  143OSM   H10T15612   5.267   2.518   3.568 -0.7320  0.1834 -1.6841
  143OSM   C11S15613   5.476   2.436   3.604  0.9030  0.2000  0.1424
  143OSM   H11S15614   5.537   2.527   3.585  1.2168 -0.3461 -1.6419
  143OSM   H11T15615   5.540   2.359   3.557 -0.7346 -0.9295 -0.3294
  143OSM   C12S15616   5.481   2.396   3.753  0.7907 -0.9081 -0.3536
  143OSM   H12S15617   5.410   2.465   3.805 -2.0376 -1.5926 -3.0262
  143OSM   H12T15618   5.586   2.421   3.778  1.1898 -1.6148 -1.2763
  143OSM   C13S15619   5.449   2.256   3.790 -0.4845 -0.9113  0.4798
  143OSM   H13S15620   5.542   2.199   3.773 -1.7348 -3.3873  1.3568
  143OSM   H13T15621   5.375   2.212   3.719  0.0588 -1.1067  0.0273
  143OSM   C14S15622   5.422   2.241   3.940  0.1023  0.1941  0.2588
  143OSM   H14S15623   5.332   2.176   3.943  0.4860 -0.3381  0.3447
  143OSM   H14T15624   5.393   2.334   3.994  0.6520 -0.2927  1.4274
  143OSM   C15S15625   5.533   2.161   4.023  1.5118 -0.6471  0.2675
  143OSM   H15S15626   5.635   2.203   4.005  0.8899 -0.2049 -2.6184
  143OSM   H15T15627   5.536   2.063   3.971  0.9766 -1.1917  1.2213
  143OSM   C16S15628   5.497   2.147   4.173 -0.8771 -0.7392 -0.0239
  143OSM   H16S15629   5.392   2.111   4.175 -2.0679  2.3936  0.1466
  143OSM   H16T15630   5.501   2.253   4.206 -2.9727 -0.6131 -0.0480
  143OSM   C17S15631   5.595   2.058   4.253 -0.3336 -0.1639 -0.4435
  143OSM   H17S15632   5.701   2.088   4.237 -0.0204 -1.1914 -0.3661
  143OSM   H17T15633   5.583   1.955   4.212 -1.4030 -0.1723 -0.1319
  143OSM   C18S15634   5.564   2.045   4.406 -0.6304 -0.3833 -0.3033
  143OSM   H18S15635   5.595   1.952   4.460 -0.2301 -0.4822 -0.7007
  143OSM   H18T15636   5.455   2.038   4.424 -0.2407  0.2628  2.9961
  143OSM   H18U15637   5.592   2.140   4.456 -0.7546  0.1363 -1.2071
  143OSM    C1F15638   4.868   2.601   2.741 -0.5105  0.1446 -0.2021
  143OSM     OF15639   4.913   2.495   2.696 -0.5508 -0.0025 -0.0069
  143OSM    C2F15640   4.728   2.610   2.782  0.5076 -0.0400 -0.1224
  143OSM    H2F15641   4.655   2.612   2.697 -2.3922  0.3935  2.2016
  143OSM    H2G15642   4.700   2.696   2.845  0.1945  0.3372 -0.7630
  143OSM    C3F15643   4.691   2.486   2.867  0.3993  0.1925  0.3841
  143OSM    H3F15644   4.688   2.385   2.821  1.8965 -0.9688  2.6400
  143OSM    H3G15645   4.587   2.509   2.896 -0.4080 -0.3670 -1.8642
  143OSM    C4F15646   4.771   2.482   2.995  0.2439 -0.2220 -0.0872
  143OSM    H4F15647   4.881   2.465   2.987  0.2843  0.1532 -0.3236
  143OSM    H4G15648   4.749   2.396   3.062  0.6532  1.4250  2.2809
  143OSM    C5F15649   4.755   2.607   3.083 -0.0193  0.2276  0.0022
  143OSM    H5F15650   4.646   2.628   3.085 -0.3686 -1.4178 -0.5362
  143OSM    H5G15651   4.805   2.699   3.044 -0.7540  0.9573  0.7366
  143OSM    C6F15652   4.790   2.571   3.227  0.4437 -0.3452 -0.5745
  143OSM    H6F15653   4.899   2.579   3.245  0.4377 -0.3880 -0.5195
  143OSM    H6G15654   4.745   2.473   3.255  0.0814  0.1827  0.8012
  143OSM    C7F15655   4.728   2.672   3.323  0.0432  0.6084 -0.6724
  143OSM    H7F15656   4.772   2.645   3.421 -0.5010 -1.4812 -0.9621
  143OSM    H7G15657   4.618   2.659   3.333  0.1803  0.7887  1.6124
  143OSM    C8F15658   4.753   2.820   3.305 -0.1143  0.4378  0.3345
  143OSM    H8F15659   4.690   2.853   3.219  0.7968  1.4488  0.0435
  143OSM    H8G15660   4.857   2.836   3.270 -0.0667 -1.1457 -0.3589
  143OSM    C9F15661   4.729   2.905   3.425  0.3615  0.0201 -0.2209
  143OSM    H9F15662   4.635   2.962   3.426  0.3987  0.0755  0.3203
  143OSM   C10F15663   4.820   2.932   3.521 -0.6196  0.0373 -0.0769
  143OSM   H10F15664   4.799   3.004   3.602 -0.1157  1.0790 -0.8387
  143OSM   C11F15665   4.960   2.873   3.518  0.5128  0.4917 -0.1395
  143OSM   H11F15666   5.035   2.954   3.505  0.4730  0.4061 -0.9769
  143OSM   H11G15667   4.982   2.806   3.432  0.5325  0.2967  0.0158
  143OSM   C12F15668   4.989   2.806   3.647 -0.3514  0.2360 -0.7132
  143OSM   H12F15669   4.928   2.714   3.656 -3.4712  2.1056 -1.5351
  143OSM   H12G15670   4.967   2.866   3.738  2.4105  3.2888 -1.8702
  143OSM   C13F15671   5.139   2.764   3.661 -0.1995 -0.3300 -0.2509
  143OSM   H13F15672   5.203   2.854   3.673 -0.9938  0.1474  0.5518
  143OSM   H13G15673   5.172   2.710   3.570  3.1321  2.9456 -1.2620
  143OSM   C14F15674   5.143   2.666   3.780  0.1022  0.3515 -0.2550
  143OSM   H14F15675   5.230   2.597   3.790 -1.5744 -1.5297  3.0789
  143OSM   H14G15676   5.065   2.588   3.770 -2.6740  1.8509  5.3774
  143OSM   C15F15677   5.152   2.735   3.914 -0.3088  0.5901  0.0444
  143OSM   H15F15678   5.049   2.763   3.945 -0.8474  0.1037 -1.2277
  143OSM   H15G15679   5.205   2.832   3.912  0.8681 -0.0449 -0.6008
  143OSM   C16F15680   5.244   2.656   4.018  0.1034 -0.6403 -0.2591
  143OSM   H16F15681   5.347   2.642   3.979 -0.1128 -0.4031 -0.9299
  143OSM   H16G15682   5.209   2.554   4.045  2.9205 -0.6657  4.5204
  143OSM   C17F15683   5.245   2.730   4.154  0.2438 -0.4546  0.1139
  143OSM   H17F15684   5.144   2.726   4.199  0.1992  1.3166  0.2269
  143OSM   H17G15685   5.260   2.838   4.134  0.2299 -0.1786  1.5328
  143OSM   C18F15686   5.354   2.686   4.248  0.3444 -0.4757 -0.5441
  143OSM   H18F15687   5.345   2.575   4.258  3.8402 -0.7605  1.1159
  143OSM   H18G15688   5.358   2.734   4.348  0.0668 -0.3189 -0.6069
  143OSM   H18H15689   5.455   2.694   4.201  0.1280 -1.0629 -1.1309
  144OSM      N15690   3.540   3.005   2.228  0.4423  0.0620  0.1332
  144OSM    C1515691   3.437   3.110   2.264 -0.1192 -0.8682 -0.0791
  144OSM   H15A15692   3.355   3.114   2.194 -0.2177 -1.1734  0.0194
  144OSM   H15B15693   3.493   3.203   2.263 -1.2160 -0.1737  0.9752
  144OSM   H15C15694   3.389   3.085   2.357 -2.5731  2.1916 -0.3581
  144OSM    C1415695   3.625   3.046   2.110  0.5192  0.2647 -0.5206
  144OSM   H14A15696   3.685   2.961   2.081 -2.3263 -1.8343 -0.7481
  144OSM   H14B15697   3.677   3.138   2.130  1.0258 -0.2391  0.5787
  144OSM   H14C15698   3.555   3.075   2.033  1.1793  0.3679 -1.0844
  144OSM    C1315699   3.632   2.981   2.345 -0.1376  0.2486  0.3127
  144OSM   H13A15700   3.679   2.884   2.345 -2.2327 -0.8332 -0.4553
  144OSM   H13B15701   3.568   2.981   2.433 -1.2445  1.4923 -0.4577
  144OSM   H13C15702   3.715   3.049   2.340  1.1473 -1.1228  1.8034
  144OSM    C1215703   3.477   2.879   2.190  0.2554  0.9219  0.1635
  144OSM   H12A15704   3.560   2.817   2.158 -0.2141  0.2286  0.2714
  144OSM   H12B15705   3.429   2.901   2.096  0.7306 -0.0229 -0.3139
  144OSM    C1115706   3.378   2.790   2.271  0.2370 -0.3220  0.3473
  144OSM   H11A15707   3.340   2.710   2.204  1.5145 -1.8350  1.3479
  144OSM   H11B15708   3.287   2.841   2.307  0.5127  0.2971  0.1891
  144OSM      P15709   3.532   2.606   2.377  0.0354  0.0371 -0.2315
  144OSM    O1315710   3.457   2.496   2.311  0.2385 -0.1895  0.0698
  144OSM    O1415711   3.664   2.632   2.324 -0.4442  0.4623 -0.3960
  144OSM    O1115712   3.547   2.594   2.539 -0.0495  1.2385  0.4254
  144OSM    O1215713   3.452   2.741   2.378 -0.5243 -0.5279  0.6043
  144OSM    C1S15714   3.629   2.679   2.614  0.2194 -0.4045 -0.1807
  144OSM    H1S15715   3.628   2.785   2.580 -2.0863  0.3233  1.8782
  144OSM    H1T15716   3.737   2.655   2.604  0.0842 -1.2653  0.3473
  144OSM     NF15717   3.660   2.783   2.837  0.4153  0.6507 -0.1676
  144OSM    HNF15718   3.728   2.744   2.898 -0.6726 -1.4358 -0.2107
  144OSM    C2S15719   3.585   2.680   2.756  0.2277  0.0828 -0.5603
  144OSM    H2S15720   3.479   2.711   2.755 -0.4570 -1.5862  2.8952
  144OSM    C3S15721   3.575   2.533   2.810 -0.1928 -0.2354  0.0085
  144OSM    H3S15722   3.682   2.508   2.821  0.1464  0.7845 -0.8073
  144OSM     O315723   3.520   2.433   2.730  0.2891 -0.0201  0.5610
  144OSM    HO315724   3.505   2.476   2.645  2.0691  0.4650  0.4508
  144OSM    C4S15725   3.508   2.526   2.949  0.0568  0.3367  0.4080
  144OSM    H4S15726   3.412   2.579   2.951 -1.1285 -1.6500 -0.1953
  144OSM    C5S15727   3.545   2.452   3.056  0.5170  0.3672 -0.2190
  144OSM    H5S15728   3.640   2.396   3.051  1.9214  2.6082 -0.1299
  144OSM    C6S15729   3.479   2.441   3.189 -0.3655 -0.8089  0.4492
  144OSM    H6S15730   3.466   2.336   3.223  1.5852 -1.5621 -0.9270
  144OSM    H6T15731   3.383   2.497   3.192  0.4308  0.5632  3.1125
  144OSM    C7S15732   3.572   2.529   3.278 -0.3418  0.5199 -0.5844
  144OSM    H7S15733   3.572   2.635   3.245  1.2636  0.3299 -1.2808
  144OSM    H7T15734   3.678   2.500   3.262 -0.2648 -0.3666  1.2812
  144OSM    C8S15735   3.534   2.517   3.426 -0.6881 -0.4933  0.5590
  144OSM    H8S15736   3.551   2.415   3.465  0.7416 -0.6232 -0.3043
  144OSM    H8T15737   3.425   2.534   3.435 -1.1703 -1.9120 -1.7412
  144OSM    C9S15738   3.603   2.605   3.530 -0.0776  0.1583  0.2449
  144OSM    H9S15739   3.606   2.713   3.503  0.4094 -0.5625 -2.9441
  144OSM    H9T15740   3.710   2.580   3.540 -0.4494 -0.9945  1.7612
  144OSM   C10S15741   3.532   2.586   3.664  0.2035 -0.2536 -0.5326
  144OSM   H10S15742   3.528   2.478   3.688  1.8340 -0.2577 -0.1473
  144OSM   H10T15743   3.427   2.620   3.656  0.6822  1.1824 -1.1290
  144OSM   C11S15744   3.619   2.644   3.778 -0.3695 -0.0653 -0.4719
  144OSM   H11S15745   3.668   2.731   3.729 -1.9338  0.2723 -1.5132
  144OSM   H11T15746   3.692   2.568   3.812 -0.6303  0.6280  1.8710
  144OSM   C12S15747   3.529   2.689   3.897 -0.3630 -0.6895 -0.1557
  144OSM   H12S15748   3.442   2.736   3.846 -1.1081  0.7109  2.2664
  144OSM   H12T15749   3.574   2.774   3.952 -0.7389  1.6686 -3.1803
  144OSM   C13S15750   3.476   2.584   3.992 -0.7919 -0.7393 -0.2534
  144OSM   H13S15751   3.544   2.529   4.059 -1.9380  1.8850  3.3870
  144OSM   H13T15752   3.433   2.512   3.919  0.5946 -0.2185 -1.6478
  144OSM   C14S15753   3.352   2.636   4.068  0.1635 -0.2773  0.5339
  144OSM   H14S15754   3.263   2.571   4.061  0.4900 -0.7046  0.2851
  144OSM   H14T15755   3.339   2.737   4.023  0.6887 -0.4213  0.0527
  144OSM   C15S15756   3.372   2.657   4.222  0.6880 -0.1313 -0.0745
  144OSM   H15S15757   3.433   2.748   4.239  0.5669 -0.0823  0.1041
  144OSM   H15T15758   3.425   2.567   4.258 -0.6369 -0.5250  0.9713
  144OSM   C16S15759   3.236   2.676   4.301 -0.0833  0.4316 -0.3245
  144OSM   H16S15760   3.165   2.591   4.289  0.3852  0.1819 -1.4769
  144OSM   H16T15761   3.181   2.762   4.258  0.2592  0.5065 -0.6172
  144OSM   C17S15762   3.252   2.706   4.444  0.5927 -0.4641  0.0809
  144OSM   H17S15763   3.337   2.776   4.456 -1.9505  2.8603  0.0105
  144OSM   H17T15764   3.273   2.606   4.488  3.5345 -1.1066 -2.4271
  144OSM   C18S15765   3.136   2.777   4.510 -0.4695  0.3826  0.6900
  144OSM   H18S15766   3.117   2.881   4.475 -2.0976 -0.2229 -0.3490
  144OSM   H18T15767   3.155   2.786   4.619 -0.0072  1.2480  0.5462
  144OSM   H18U15768   3.036   2.733   4.492 -1.3663  2.1548  1.1423
  144OSM    C1F15769   3.639   2.912   2.823 -0.1582  0.5401 -0.1711
  144OSM     OF15770   3.542   2.952   2.759 -0.3645 -0.5762 -0.0626
  144OSM    C2F15771   3.729   3.007   2.903  0.0651  0.5403  0.8181
  144OSM    H2F15772   3.780   3.078   2.835 -0.5055  0.7802  0.6370
  144OSM    H2G15773   3.817   2.954   2.947 -0.4275  0.2423  1.4603
  144OSM    C3F15774   3.656   3.082   3.012 -0.1345  0.0627 -0.3714
  144OSM    H3F15775   3.619   3.003   3.080 -1.2770  0.5540 -0.3968
  144OSM    H3G15776   3.583   3.152   2.965 -0.0458  0.9035  0.7176
  144OSM    C4F15777   3.755   3.174   3.091  0.4911  0.2908  0.2062
  144OSM    H4F15778   3.790   3.255   3.024  2.1409 -1.3879 -1.0917
  144OSM    H4G15779   3.849   3.119   3.114  0.3334  0.0902  0.3774
  144OSM    C5F15780   3.695   3.232   3.218 -0.1318 -0.3828  0.1856
  144OSM    H5F15781   3.584   3.235   3.206 -0.1508  0.0441  0.4428
  144OSM    H5G15782   3.735   3.335   3.211  3.4494 -1.7290 -1.3645
  144OSM    C6F15783   3.735   3.164   3.353  0.1593 -0.1751  0.5647
  144OSM    H6F15784   3.842   3.190   3.368 -0.0954  1.5950 -0.4563
  144OSM    H6G15785   3.723   3.053   3.346 -0.8180 -0.0771  0.5338
  144OSM    C7F15786   3.660   3.215   3.476  0.3469  0.1466 -0.3390
  144OSM    H7F15787   3.550   3.207   3.466  0.3671  0.8774 -1.3295
  144OSM    H7G15788   3.676   3.325   3.481 -0.2434  0.2583 -0.8718
  144OSM    C8F15789   3.694   3.129   3.595 -0.1297 -0.2063  0.0364
  144OSM    H8F15790   3.797   3.087   3.595 -0.6791 -1.6514 -0.8559
  144OSM    H8G15791   3.640   3.033   3.579 -1.9961  1.0217 -1.3824
  144OSM    C9F15792   3.647   3.208   3.716 -0.1204  0.5513  0.3700
  144OSM    H9F15793   3.587   3.296   3.689  0.6150  1.4400  1.5227
  144OSM   C10F15794   3.648   3.162   3.842  0.2859  0.6026 -0.3635
  144OSM   H10F15795   3.598   3.219   3.921 -0.1764 -0.1707 -0.0910
  144OSM   C11F15796   3.710   3.035   3.884 -0.1601  0.0655  0.0189
  144OSM   H11F15797   3.799   3.029   3.819 -0.1875  0.8076 -0.1000
  144OSM   H11G15798   3.644   2.953   3.851  3.5344 -2.8889 -0.7263
  144OSM   C12F15799   3.755   3.024   4.024 -0.3748 -0.1498 -0.9361
  144OSM   H12F15800   3.819   2.934   4.024  0.6527  0.5455 -2.5095
  144OSM   H12G15801   3.678   3.011   4.103 -0.8962 -0.0371 -1.4178
  144OSM   C13F15802   3.853   3.137   4.070  0.6032 -0.2057  0.4371
  144OSM   H13F15803   3.791   3.228   4.087 -1.1697 -0.3531 -3.8775
  144OSM   H13G15804   3.915   3.167   3.983  0.4469 -2.7474 -0.6435
  144OSM   C14F15805   3.926   3.094   4.196  0.2850  0.2364 -0.4359
  144OSM   H14F15806   3.855   3.064   4.276  2.3346 -0.1012  1.3506
  144OSM   H14G15807   3.983   3.181   4.236 -0.9614  0.4540  0.9750
  144OSM   C15F15808   4.034   2.986   4.172  0.7252 -1.1047  0.3582
  144OSM   H15F15809   4.107   3.025   4.097 -0.1759  0.3209  0.1835
  144OSM   H15G15810   3.992   2.889   4.138 -1.2627 -0.7218  1.5707
  144OSM   C16F15811   4.108   2.940   4.299  0.6111  0.0855  0.1565
  144OSM   H16F15812   4.171   2.851   4.278 -0.2432 -0.6204  0.5087
  144OSM   H16G15813   4.031   2.913   4.374  1.4201 -0.0852  0.9458
  144OSM   C17F15814   4.202   3.037   4.360 -0.7238 -0.2966 -0.9871
  144OSM   H17F15815   4.163   3.055   4.462  0.4399 -2.0683 -0.1747
  144OSM   H17G15816   4.184   3.134   4.309 -0.5035 -0.4182 -1.3008
  144OSM   C18F15817   4.346   2.998   4.349  0.3982 -0.5801 -0.1839
  144OSM   H18F15818   4.365   2.904   4.406 -0.0157 -1.2879 -1.1814
  144OSM   H18G15819   4.420   3.073   4.382  0.2362  0.4541 -2.0237
  144OSM   H18H15820   4.391   2.972   4.251  1.4597  0.2924  0.0618
  145SAPE     N15821   3.127   4.347   6.955 -0.0003  0.0019 -0.1214
  145SAPE   HN115822   3.205   4.393   6.904 -1.9734  3.2683 -0.4677
  145SAPE   HN215823   3.079   4.419   7.013 -1.1643  0.3345 -1.4483
  145SAPE   HN315824   3.170   4.274   7.016  0.3730 -0.6291 -1.1157
  145SAPE   C1215825   3.030   4.265   6.872 -0.0288 -0.1886 -0.1642
  145SAPE  H12A15826   3.007   4.329   6.784  0.2775 -0.0784 -0.1625
  145SAPE  H12B15827   2.940   4.249   6.936 -1.7991  1.4719 -2.0965
  145SAPE   C1115828   3.097   4.136   6.823 -0.7339  0.5130 -0.3862
  145SAPE  H11A15829   3.198   4.159   6.783 -0.3595  1.1748  0.8738
  145SAPE  H11B15830   3.036   4.091   6.742 -0.6071 -0.5301  0.0844
  145SAPE     P15831   3.006   3.929   6.955  0.0260 -0.1861  0.2026
  145SAPE   O1315832   3.049   3.830   7.058 -0.4432 -0.0713  0.0343
  145SAPE   O1415833   2.880   4.006   6.981  0.5665  0.4361  0.4854
  145SAPE   O1215834   3.118   4.047   6.930  0.6245 -0.1238 -0.0383
  145SAPE   O1115835   2.993   3.853   6.818 -0.6167  0.1451  0.5332
  145SAPE    C115836   3.122   3.815   6.764 -0.5467 -0.2393  0.2696
  145SAPE    HA15837   3.182   3.905   6.740 -2.4021  1.3411  1.2043
  145SAPE    HB15838   3.176   3.745   6.832 -2.1626 -1.0090  0.8193
  145SAPE    C215839   3.103   3.737   6.629 -0.1125 -0.1365  0.3964
  145SAPE    HS15840   3.195   3.751   6.567 -1.4901  1.6934 -1.4077
  145SAPE   O2115841   2.997   3.794   6.551 -0.0780 -0.7232 -0.0053
  145SAPE   C2115842   3.021   3.918   6.493 -0.0507  0.2135 -0.3209
  145SAPE   O2215843   3.127   3.974   6.497  0.6337  0.9618  0.4572
  145SAPE   C2215844   2.891   3.970   6.429 -0.4211 -0.5974 -0.4718
  145SAPE   H2R15845   2.856   3.894   6.355 -4.0277 -1.2516  1.6864
  145SAPE   H2S15846   2.807   3.964   6.501  0.8441  1.6984  1.3349
  145SAPE    C315847   3.073   3.591   6.666  0.3543 -0.6014 -0.4684
  145SAPE    HX15848   3.009   3.596   6.757 -1.0818 -1.4024 -1.3886
  145SAPE    HY15849   3.166   3.539   6.699 -0.0307 -1.7559 -1.1423
  145SAPE   O3115850   3.026   3.515   6.552 -0.9790 -0.3935 -0.1142
  145SAPE   C3115851   2.888   3.499   6.552 -0.2443 -0.3209 -0.5002
  145SAPE   O3215852   2.812   3.535   6.644 -0.1406  0.2862 -0.1297
  145SAPE   C3215853   2.852   3.420   6.431  0.0771  0.1685 -0.4490
  145SAPE   H2X15854   2.758   3.362   6.443  0.1166  0.2340  0.1966
  145SAPE   H2Y15855   2.932   3.344   6.417 -0.4923 -0.1387 -2.2953
  145SAPE   C2315856   2.899   4.111   6.353 -0.8606  0.7126  0.0843
  145SAPE   H3R15857   2.826   4.123   6.269 -0.7377 -0.5739 -0.2288
  145SAPE   H3S15858   2.998   4.138   6.310 -0.3450  0.5974  1.1810
  145SAPE   C2415859   2.847   4.221   6.448  0.7477 -0.1995 -0.1184
  145SAPE   H4R15860   2.892   4.318   6.418 -0.4352  0.5087  0.3457
  145SAPE   H4S15861   2.890   4.191   6.547  2.2983  0.5432 -0.5372
  145SAPE   C2515862   2.692   4.237   6.473 -0.2375 -0.5059  0.4924
  145SAPE   H5R15863   2.646   4.151   6.524  0.5673 -1.2920 -0.0761
  145SAPE   C2615864   2.609   4.333   6.428 -0.5591  0.3696  0.3451
  145SAPE   H6R15865   2.502   4.340   6.453 -0.2780  1.5344  1.2929
  145SAPE   C2715866   2.658   4.448   6.343 -0.0245 -0.0691  1.3518
  145SAPE   H7R15867   2.762   4.473   6.374  0.6288  0.3505 -1.0057
  145SAPE   H7S15868   2.593   4.538   6.348 -0.5930 -0.4033  0.1229
  145SAPE   C2815869   2.661   4.414   6.196  0.4996 -0.2207 -0.3960
  145SAPE   H8R15870   2.763   4.401   6.155  0.7575  1.6215 -0.3820
  145SAPE   C2915871   2.559   4.393   6.111  0.2510 -0.4081  0.0550
  145SAPE   H9R15872   2.593   4.369   6.009  3.0728  1.7003  0.3748
  145SAPE  C21015873   2.408   4.404   6.146 -0.3928 -0.5031  0.8319
  145SAPE  H10R15874   2.365   4.503   6.119  1.8745  0.0202 -1.2323
  145SAPE  H10S15875   2.396   4.403   6.257 -0.8468 -0.0181  0.7877
  145SAPE  C21115876   2.337   4.287   6.085  0.2110  0.0192  0.0310
  145SAPE  H11R15877   2.326   4.201   6.152  0.2603 -0.3613 -0.4418
  145SAPE  C21215878   2.264   4.289   5.968  0.9834  0.4232 -0.1218
  145SAPE  H12R15879   2.214   4.195   5.939  2.9060 -1.5563  2.4034
  145SAPE  C21315880   2.258   4.404   5.874  0.2616 -0.5918 -0.3366
  145SAPE  H13R15881   2.343   4.402   5.803  0.4430  1.7202 -0.2866
  145SAPE  H13S15882   2.272   4.498   5.932  0.6931 -0.0034 -1.3591
  145SAPE  C21415883   2.121   4.413   5.807 -0.6286 -0.4314 -0.7159
  145SAPE  H14R15884   2.039   4.446   5.872  1.6504  1.6532  1.3337
  145SAPE  C21515885   2.086   4.352   5.686  0.4240  0.6556  0.0854
  145SAPE  H15R15886   1.986   4.365   5.643  0.4993 -0.7041 -0.5745
  145SAPE  C21615887   2.184   4.278   5.594  0.2177 -0.8580  0.3703
  145SAPE  H16R15888   2.134   4.183   5.564  1.0103 -1.5803  1.2429
  145SAPE  H16S15889   2.282   4.255   5.641  0.1643 -1.6262  0.1279
  145SAPE  C21715890   2.216   4.363   5.465  0.5948  0.5570 -0.3097
  145SAPE  H17R15891   2.125   4.386   5.405  1.0461 -1.4605 -1.8805
  145SAPE  H17S15892   2.280   4.300   5.398  0.9990 -1.0277  1.4845
  145SAPE  C21815893   2.288   4.497   5.502 -0.3358 -0.0158 -0.6757
  145SAPE  H18R15894   2.368   4.484   5.578 -1.1374  0.9294  0.3637
  145SAPE  H18S15895   2.204   4.557   5.544 -1.9012 -1.9979 -0.7825
  145SAPE  C21915896   2.345   4.567   5.373  0.0718  0.6164  0.8279
  145SAPE  H19R15897   2.254   4.594   5.315 -1.3426 -3.8857  0.5774
  145SAPE  H19S15898   2.396   4.502   5.299  0.2630  2.6945 -0.9599
  145SAPE  C22015899   2.429   4.688   5.409 -0.2969  0.2202 -1.1257
  145SAPE  H20R15900   2.522   4.666   5.466 -0.3864 -0.4758 -1.2327
  145SAPE  H20S15901   2.370   4.753   5.476  0.1660  0.6645 -1.1467
  145SAPE  H20T15902   2.462   4.747   5.320 -3.2197  0.9585 -1.8008
  145SAPE   C3315903   2.843   3.515   6.309 -0.1830 -0.8464  0.3017
  145SAPE   H3X15904   2.788   3.611   6.318 -0.3034 -1.0676  2.6828
  145SAPE   H3Y15905   2.789   3.463   6.227 -2.0719 -0.1802  1.0627
  145SAPE   C3415906   2.981   3.538   6.256 -0.1037  0.4939  0.1761
  145SAPE   H4X15907   3.044   3.448   6.272  0.0890  0.6148  0.1080
  145SAPE   H4Y15908   3.030   3.622   6.311  1.2314  0.3452 -0.7505
  145SAPE   C3515909   2.980   3.569   6.103  0.3471 -0.7254 -0.7516
  145SAPE   H5X15910   2.950   3.474   6.055  0.6427 -1.3942  0.3609
  145SAPE   H5Y15911   3.085   3.580   6.069 -0.2143  2.7332 -1.7809
  145SAPE   C3615912   2.903   3.692   6.055 -0.0678  0.0073 -0.5628
  145SAPE   H6X15913   2.964   3.782   6.076  0.6246 -0.7725  0.8641
  145SAPE   H6Y15914   2.813   3.702   6.119 -0.9565 -1.2627 -1.5689
  145SAPE   C3715915   2.862   3.676   5.909 -1.1028  0.6398  0.4647
  145SAPE   H7X15916   2.805   3.766   5.875 -0.7048  2.0039  3.1931
  145SAPE   H7Y15917   2.812   3.580   5.883  1.9712 -0.3894 -2.2877
  145SAPE   C3815918   2.983   3.678   5.815  0.1173  0.3201  0.4302
  145SAPE   H8X15919   3.042   3.585   5.831  2.3509  1.2130 -1.8585
  145SAPE   H8Y15920   3.054   3.759   5.844  0.7338 -1.0395  3.1179
  145SAPE   C3915921   2.936   3.699   5.669 -0.1326  0.1269  0.6045
  145SAPE   H9X15922   2.876   3.793   5.672  0.5921  0.5943  0.5689
  145SAPE   H9Y15923   2.859   3.623   5.644 -0.3581  0.7628 -0.7095
  145SAPE  C31015924   3.046   3.695   5.559 -0.1688  0.5199 -0.4895
  145SAPE  H10X15925   3.112   3.608   5.575 -1.8563 -0.3225  2.7275
  145SAPE  H10Y15926   3.123   3.772   5.583 -0.5303  0.6593  0.2386
  145SAPE  C31115927   2.995   3.695   5.418 -0.1116 -0.0228  0.1000
  145SAPE  H11X15928   2.907   3.762   5.412 -1.0599 -1.2292  0.0827
  145SAPE  H11Y15929   2.952   3.595   5.397  1.3606 -0.3714 -1.4407
  145SAPE  C31215930   3.100   3.739   5.319 -0.9652  0.2437  0.7167
  145SAPE  H12X15931   3.189   3.672   5.329 -0.6819  0.7412  1.7134
  145SAPE  H12Y15932   3.139   3.838   5.351 -1.1865  0.1704  1.2198
  145SAPE  C31315933   3.055   3.728   5.168 -0.0086  0.1965  0.1505
  145SAPE  H13X15934   2.999   3.633   5.151  1.2292 -1.3110  3.5429
  145SAPE  H13Y15935   3.151   3.715   5.114  0.4919 -1.4278  1.3301
  145SAPE  C31415936   2.983   3.854   5.122  0.2992  0.3864  0.4244
  145SAPE  H14X15937   3.047   3.944   5.136 -2.5472  2.6161  0.0666
  145SAPE  H14Y15938   2.895   3.886   5.183 -0.7461  2.1962 -1.8693
  145SAPE  C31515939   2.935   3.837   4.974 -0.0597 -0.3961 -0.1335
  145SAPE  H15X15940   2.846   3.770   4.973  0.3616 -1.1201 -3.4017
  145SAPE  H15Y15941   3.021   3.788   4.923 -0.2283 -1.6525  0.7305
  145SAPE  C31615942   2.893   3.970   4.916 -0.0855  0.6504 -0.3280
  145SAPE  H16X15943   2.979   4.035   4.888  0.2913  0.5098  0.4768
  145SAPE  H16Y15944   2.828   4.029   4.983 -2.6268 -0.2104 -1.8892
  145SAPE  C31715945   2.805   3.954   4.793  0.6115  0.3641 -0.3553
  145SAPE  H17X15946   2.767   4.056   4.772 -2.5386 -0.4999  0.5367
  145SAPE  H17Y15947   2.719   3.894   4.832  0.5142  0.5927 -0.2136
  145SAPE  C31815948   2.861   3.902   4.668 -0.3465  0.5388 -0.3689
  145SAPE  H18X15949   2.906   3.803   4.695 -1.0078  0.7371  1.6331
  145SAPE  H18Y15950   2.942   3.975   4.645  0.3366 -0.2863 -0.6494
  145SAPE  H18Z15951   2.789   3.877   4.587 -1.2414 -0.1914  0.6359
  146SAPE     N15952   6.692   5.604   6.881 -0.3686 -0.3032  0.3576
  146SAPE   HN115953   6.606   5.655   6.907 -0.6131 -0.7134  0.3719
  146SAPE   HN215954   6.766   5.627   6.950 -0.7457 -2.1108  1.4221
  146SAPE   HN315955   6.719   5.643   6.788 -0.1646 -0.0451  0.5223
  146SAPE   C1215956   6.679   5.457   6.878 -0.2976 -0.5281  0.8202
  146SAPE  H12A15957   6.773   5.410   6.845  0.2939 -0.0040  1.6877
  146SAPE  H12B15958   6.609   5.430   6.796 -0.5255 -0.5905  1.0332
  146SAPE   C1115959   6.634   5.410   7.019 -0.2072  0.4687 -0.0525
  146SAPE  H11A15960   6.682   5.458   7.107  1.8754 -0.1673 -0.7798
  146SAPE  H11B15961   6.669   5.305   7.031 -1.9371 -0.0180  1.0242
  146SAPE     P15962   6.410   5.537   7.072  0.0400  0.1242 -0.2377
  146SAPE   O1315963   6.435   5.546   7.215  0.7755 -0.1022  0.6604
  146SAPE   O1415964   6.449   5.655   6.987 -0.1595 -0.3769  0.7914
  146SAPE   O1215965   6.487   5.408   7.024  0.1694  0.4534  0.6165
  146SAPE   O1115966   6.260   5.501   7.038 -0.3765 -0.0587  0.1068
  146SAPE    C115967   6.221   5.405   6.938 -0.3122  0.0802  0.8000
  146SAPE    HA15968   6.300   5.339   6.895  0.1868 -0.0028  1.8096
  146SAPE    HB15969   6.152   5.339   6.994  0.1652 -0.6960  0.4770
  146SAPE    C215970   6.150   5.478   6.823  0.2204 -0.2571  0.2350
  146SAPE    HS15971   6.122   5.401   6.748  0.2996  0.3124 -0.3906
  146SAPE   O2115972   6.234   5.581   6.754  0.0344  0.3637  0.0631
  146SAPE   C2115973   6.334   5.520   6.687 -1.0134  0.7773  0.5751
  146SAPE   O2215974   6.359   5.404   6.672  0.0292 -0.0098 -0.3507
  146SAPE   C2215975   6.412   5.630   6.622  0.6187 -0.0613 -0.3015
  146SAPE   H2R15976   6.449   5.691   6.707 -0.6837  0.2639  0.0597
  146SAPE   H2S15977   6.504   5.594   6.572  0.6400 -0.7431  0.2154
  146SAPE    C315978   6.008   5.536   6.858 -0.6133 -0.3018 -0.1254
  146SAPE    HX15979   6.030   5.604   6.943 -0.2022 -1.5412  0.7873
  146SAPE    HY15980   5.953   5.451   6.903 -0.0230  0.3006  1.8498
  146SAPE   O3115981   5.941   5.597   6.748  0.0325 -0.5778 -0.1419
  146SAPE   C3115982   5.972   5.727   6.724  0.0310  0.5646 -0.3672
  146SAPE   O3215983   6.042   5.788   6.803 -0.2980 -0.5583 -0.3805
  146SAPE   C3215984   5.910   5.774   6.595  0.7675  0.2633 -0.4393
  146SAPE   H2X15985   5.801   5.784   6.610  0.8493  1.5557 -0.6035
  146SAPE   H2Y15986   5.937   5.707   6.511  2.6021  1.3667 -0.7854
  146SAPE   C2315987   6.317   5.726   6.544 -0.0934  0.8143  0.1318
  146SAPE   H3R15988   6.381   5.810   6.510  1.0195  0.2522  0.8049
  146SAPE   H3S15989   6.239   5.771   6.610  1.4226  1.2422  1.7262
  146SAPE   C2415990   6.246   5.664   6.429 -0.1519 -0.2456 -0.5225
  146SAPE   H4R15991   6.205   5.754   6.378  0.9913  0.6237  0.0575
  146SAPE   H4S15992   6.152   5.619   6.469 -0.0559  0.3048  0.3461
  146SAPE   C2515993   6.332   5.589   6.328 -0.5122 -0.3567  0.1504
  146SAPE   H5R15994   6.339   5.482   6.350 -2.1905 -0.5490 -0.1215
  146SAPE   C2615995   6.383   5.643   6.224 -0.5790  0.4249 -0.4596
  146SAPE   H6R15996   6.430   5.574   6.152  0.6260 -2.0955  2.5265
  146SAPE   C2715997   6.364   5.788   6.180 -0.4204  0.4985  0.4694
  146SAPE   H7R15998   6.468   5.821   6.161  0.6703 -2.6709  0.2811
  146SAPE   H7S15999   6.333   5.844   6.271 -0.3815 -0.4035  1.0540
  146SAPE   C2816000   6.267   5.800   6.061 -0.3469 -0.1666  0.1663
  146SAPE   H8R16001   6.161   5.809   6.089 -0.4627 -0.7590 -0.0674
  146SAPE   C2916002   6.302   5.812   5.930  0.0847 -0.2184  0.3565
  146SAPE   H9R16003   6.219   5.804   5.857  0.5911 -0.3193 -0.2107
  146SAPE  C21016004   6.441   5.815   5.871  0.1682  0.2088 -0.3433
  146SAPE  H10R16005   6.517   5.812   5.952 -0.9410 -1.9286  0.7159
  146SAPE  H10S16006   6.453   5.913   5.820 -0.0877  0.9783  1.0462
  146SAPE  C21116007   6.483   5.714   5.771 -0.0816  0.4456 -0.3015
  146SAPE  H11R16008   6.558   5.643   5.809  0.5528  1.0859 -0.3285
  146SAPE  C21216009   6.467   5.713   5.638  0.3682  0.1262 -0.1102
  146SAPE  H12R16010   6.532   5.645   5.581  1.1240 -0.0106  0.8788
  146SAPE  C21316011   6.376   5.804   5.553 -0.2208 -0.5556 -0.6830
  146SAPE  H13R16012   6.301   5.854   5.618  0.4693 -0.2136 -0.1519
  146SAPE  H13S16013   6.329   5.736   5.478  1.9997 -0.9897 -1.7743
  146SAPE  C21416014   6.455   5.917   5.483  0.2579 -0.0980  0.3396
  146SAPE  H14R16015   6.453   6.007   5.546  0.1803  0.7200 -0.7995
  146SAPE  C21516016   6.511   5.915   5.358  0.8161  0.6023  0.4710
  146SAPE  H15R16017   6.557   6.007   5.318  1.7595  0.0498  0.2482
  146SAPE  C21616018   6.488   5.810   5.255  0.1842  0.1273  0.0979
  146SAPE  H16R16019   6.491   5.707   5.296 -1.1035  0.4993  1.1687
  146SAPE  H16S16020   6.571   5.802   5.180  0.8100 -3.4839  0.9844
  146SAPE  C21716021   6.360   5.850   5.184 -0.1675  0.1542  0.3330
  146SAPE  H17R16022   6.382   5.945   5.130  0.5390 -0.7708 -1.0899
  146SAPE  H17S16023   6.278   5.857   5.258  0.3971 -0.6663  1.0561
  146SAPE  C21816024   6.331   5.734   5.078 -0.0618 -0.3999  0.8271
  146SAPE  H18R16025   6.326   5.642   5.139 -0.4897 -0.9863 -0.0743
  146SAPE  H18S16026   6.410   5.722   5.001  2.2068 -1.1264  3.1303
  146SAPE  C21916027   6.202   5.768   5.009 -0.0385  0.6884 -0.2618
  146SAPE  H19R16028   6.207   5.846   4.930  0.9948  0.2609 -0.6407
  146SAPE  H19S16029   6.128   5.809   5.081 -0.3161  2.2545 -1.3843
  146SAPE  C22016030   6.139   5.638   4.955  0.2006  0.3659  0.5855
  146SAPE  H20R16031   6.210   5.588   4.885 -1.7405 -1.1148 -0.4225
  146SAPE  H20S16032   6.043   5.655   4.903  0.8551 -0.7008 -1.0485
  146SAPE  H20T16033   6.128   5.565   5.039  0.6426 -0.6692 -0.2246
  146SAPE   C3316034   5.950   5.922   6.565  0.8993 -0.0792  0.2118
  146SAPE   H3X16035   6.056   5.938   6.538  1.5368 -3.0598  0.5811
  146SAPE   H3Y16036   5.915   5.983   6.650 -0.1192  0.2242 -0.4054
  146SAPE   C3416037   5.874   5.995   6.451 -0.2194  0.0050  0.3671
  146SAPE   H4X16038   5.898   6.104   6.447  2.0444 -0.4897 -0.5294
  146SAPE   H4Y16039   5.765   5.980   6.465 -0.1731 -0.0353  0.7041
  146SAPE   C3516040   5.909   5.932   6.312  0.3594  0.0611 -0.3862
  146SAPE   H5X16041   5.902   5.822   6.307  0.3802  0.0061  0.5632
  146SAPE   H5Y16042   6.012   5.974   6.300  0.0567  0.8403 -0.3293
  146SAPE   C3616043   5.840   6.012   6.196 -0.2355 -0.1512 -0.1781
  146SAPE   H6X16044   5.871   6.116   6.222 -3.1214  0.6437  0.4025
  146SAPE   H6Y16045   5.730   6.020   6.202 -0.1685 -0.4587  2.4788
  146SAPE   C3716046   5.890   5.964   6.059  0.1809 -0.4250  0.2672
  146SAPE   H7X16047   5.852   5.862   6.038  0.3214 -0.1559 -1.4747
  146SAPE   H7Y16048   6.000   5.979   6.069  0.5750 -1.6732 -1.7012
  146SAPE   C3816049   5.843   6.050   5.942 -0.1215 -0.1499  0.2202
  146SAPE   H8X16050   5.860   6.159   5.955 -2.7916  0.3057  0.3963
  146SAPE   H8Y16051   5.736   6.030   5.923 -0.1465 -1.0573  1.1968
  146SAPE   C3916052   5.919   5.990   5.817  0.1026 -0.1475 -0.1030
  146SAPE   H9X16053   5.893   5.882   5.812 -2.1037  0.2242  1.6582
  146SAPE   H9Y16054   6.027   6.006   5.838  0.7844 -0.2941 -3.1544
  146SAPE  C31016055   5.891   6.061   5.683 -1.0026 -0.1099  0.0118
  146SAPE  H10X16056   5.930   6.164   5.695 -0.3141 -0.6164  2.8310
  146SAPE  H10Y16057   5.780   6.055   5.671 -1.1597 -1.2225  1.6474
  146SAPE  C31116058   5.950   5.999   5.556  0.4509  0.0278  0.6937
  146SAPE  H11X16059   6.060   5.989   5.568  0.8425  1.5445 -1.1157
  146SAPE  H11Y16060   5.938   6.071   5.472  0.5523 -1.3414 -0.5292
  146SAPE  C31216061   5.882   5.861   5.525  0.0496  0.2030  0.7704
  146SAPE  H12X16062   5.779   5.878   5.488 -0.2100  0.0598  1.4111
  146SAPE  H12Y16063   5.881   5.796   5.615  1.1556  2.1945  2.3228
  146SAPE  C31316064   5.949   5.777   5.415  0.9109  0.5410  0.4670
  146SAPE  H13X16065   6.047   5.828   5.410  1.0574  0.4528  2.0183
  146SAPE  H13Y16066   5.904   5.797   5.315  1.1500 -1.0293  0.0259
  146SAPE  C31416067   5.941   5.623   5.432  0.2556 -0.2576 -0.2296
  146SAPE  H14X16068   5.834   5.610   5.460  0.2723  0.2007  0.0534
  146SAPE  H14Y16069   5.998   5.603   5.525 -0.5019  1.7304  0.7293
  146SAPE  C31516070   5.983   5.551   5.310  0.1308 -0.6851  0.4403
  146SAPE  H15X16071   6.091   5.567   5.288  0.2385 -2.0983 -0.1503
  146SAPE  H15Y16072   5.922   5.592   5.226 -0.8619 -0.3783  1.2975
  146SAPE  C31616073   5.977   5.392   5.313  0.9283 -0.4219 -0.4869
  146SAPE  H16X16074   5.870   5.366   5.325  0.9545 -0.2015  0.2580
  146SAPE  H16Y16075   6.044   5.344   5.387  2.8304  0.2556 -1.6756
  146SAPE  C31716076   6.012   5.335   5.172  0.0196  0.8538  0.3819
  146SAPE  H17X16077   6.122   5.342   5.157  0.2254 -1.0971  0.6245
  146SAPE  H17Y16078   5.969   5.404   5.097 -0.9563 -1.0524 -0.9037
  146SAPE  C31816079   5.960   5.194   5.136  0.4495  0.7749 -0.6008
  146SAPE  H18X16080   5.967   5.188   5.025 -0.3516  0.5687 -0.6468
  146SAPE  H18Y16081   5.857   5.185   5.175  0.2417  1.1266 -1.0598
  146SAPE  H18Z16082   6.027   5.120   5.186 -2.6803 -2.0509 -0.2228
  147SAPE     N16083   5.643   2.973   6.817  0.4279  0.3646  0.2547
  147SAPE   HN116084   5.688   3.053   6.769 -3.0975  2.3684 -0.0810
  147SAPE   HN216085   5.551   2.995   6.860  0.0571  2.6914 -1.5232
  147SAPE   HN316086   5.712   2.952   6.892  2.0521 -0.4276 -1.3760
  147SAPE   C1216087   5.623   2.858   6.718  0.2525 -0.9944 -1.0366
  147SAPE  H12A16088   5.716   2.839   6.660  1.7231  1.7687  0.2311
  147SAPE  H12B16089   5.542   2.897   6.653 -0.2788 -0.6058 -0.1558
  147SAPE   C1116090   5.577   2.732   6.801 -0.0138 -0.4523  0.1993
  147SAPE  H11A16091   5.672   2.695   6.844  0.0350 -2.2886 -1.3539
  147SAPE  H11B16092   5.541   2.666   6.720 -1.3380  0.1202  0.2922
  147SAPE     P16093   5.349   2.650   6.915  0.1070  0.5464  0.0244
  147SAPE   O1316094   5.397   2.517   6.879 -0.9497 -0.3949 -0.1504
  147SAPE   O1416095   5.284   2.668   7.046  0.2385 -0.0537 -0.3824
  147SAPE   O1216096   5.472   2.750   6.904 -0.2377  0.0059  0.5661
  147SAPE   O1116097   5.245   2.685   6.797  0.1398 -0.5377 -0.6187
  147SAPE    C116098   5.211   2.820   6.774 -0.2224  0.3205  0.1737
  147SAPE    HA16099   5.109   2.824   6.818 -0.6535 -1.0802 -0.6411
  147SAPE    HB16100   5.278   2.891   6.827 -2.8639  1.1614  2.7078
  147SAPE    C216101   5.192   2.845   6.627  0.3399 -0.1904  0.9860
  147SAPE    HS16102   5.121   2.769   6.587 -1.1510  1.4718  0.3525
  147SAPE   O2116103   5.320   2.826   6.567 -0.3025 -0.5920  0.3628
  147SAPE   C2116104   5.322   2.806   6.427  0.9400  0.2939 -1.0197
  147SAPE   O2216105   5.228   2.794   6.357  0.1314 -0.4208 -0.4220
  147SAPE   C2216106   5.469   2.763   6.398  0.0427  0.4918 -0.1693
  147SAPE   H2R16107   5.536   2.847   6.426 -0.5793  0.7850  0.4812
  147SAPE   H2S16108   5.494   2.684   6.472 -1.2167 -0.1570 -0.4048
  147SAPE    C316109   5.135   2.989   6.605 -0.3555  0.9487 -0.4389
  147SAPE    HX16110   5.219   3.045   6.651  1.3090 -0.2342 -1.8602
  147SAPE    HY16111   5.043   2.998   6.665 -1.4521 -2.1589 -1.4300
  147SAPE   O3116112   5.112   3.009   6.460  0.2929  0.4578 -0.0916
  147SAPE   C3116113   4.997   2.963   6.419  0.0121  0.0570  0.0350
  147SAPE   O3216114   4.908   2.918   6.484 -0.0758  0.0472  0.0466
  147SAPE   C3216115   4.986   2.980   6.271 -0.2068  0.1007 -0.0590
  147SAPE   H2X16116   4.999   2.888   6.210 -0.3292  1.1226 -1.6881
  147SAPE   H2Y16117   5.057   3.058   6.237  0.5775  1.2703  3.7132
  147SAPE   C2316118   5.484   2.701   6.257 -0.1693  0.3134 -0.5229
  147SAPE   H3R16119   5.426   2.765   6.186 -0.8591  1.3350  0.9144
  147SAPE   H3S16120   5.427   2.607   6.271 -0.2304  0.5717  1.1986
  147SAPE   C2416121   5.627   2.671   6.208  0.1978 -0.0148  0.6591
  147SAPE   H4R16122   5.626   2.589   6.134 -1.1576  1.1809 -0.7091
  147SAPE   H4S16123   5.672   2.626   6.299 -0.1539 -0.5404  0.5763
  147SAPE   C2516124   5.715   2.786   6.161  0.2450  0.6163  0.5272
  147SAPE   H5R16125   5.805   2.785   6.224  0.1752 -2.8808  0.7988
  147SAPE   C2616126   5.702   2.854   6.042  0.0998 -0.0045 -1.1401
  147SAPE   H6R16127   5.779   2.928   6.018 -0.2111  0.5792 -0.3833
  147SAPE   C2716128   5.594   2.841   5.935  0.2428 -0.1749  0.0314
  147SAPE   H7R16129   5.609   2.935   5.877  0.9193 -0.8853 -0.9832
  147SAPE   H7S16130   5.500   2.844   5.993 -0.3631 -0.7524 -0.8873
  147SAPE   C2816131   5.592   2.714   5.851 -0.1166 -0.3837 -0.1558
  147SAPE   H8R16132   5.543   2.631   5.903  2.0999 -1.4670  0.3396
  147SAPE   C2916133   5.622   2.704   5.722 -0.5621  0.4298 -0.4975
  147SAPE   H9R16134   5.595   2.608   5.675  1.2007  0.1576 -1.0097
  147SAPE  C21016135   5.680   2.814   5.635  0.4051  0.4269 -0.0609
  147SAPE  H10R16136   5.785   2.781   5.618  0.9453  1.6788  0.6816
  147SAPE  H10S16137   5.672   2.910   5.691 -2.0029 -0.4342  1.2098
  147SAPE  C21116138   5.598   2.830   5.509  0.1854  0.2449  0.2137
  147SAPE  H11R16139   5.506   2.888   5.524 -0.5237 -1.0588  1.0804
  147SAPE  C21216140   5.611   2.775   5.387  0.4291  0.9763 -0.0278
  147SAPE  H12R16141   5.537   2.809   5.314 -1.2110  0.7214  1.4473
  147SAPE  C21316142   5.715   2.679   5.343 -0.3565  0.0810 -0.3178
  147SAPE  H13R16143   5.772   2.655   5.435 -2.0861 -3.6993 -0.0756
  147SAPE  H13S16144   5.784   2.722   5.266  0.5714 -1.2101 -0.2336
  147SAPE  C21416145   5.674   2.546   5.301  0.1568  0.2501  0.4261
  147SAPE  H14R16146   5.675   2.469   5.379  1.3297 -0.5753 -0.3775
  147SAPE  C21516147   5.646   2.509   5.176  0.2712  0.6234  0.2243
  147SAPE  H15R16148   5.614   2.404   5.163  1.8336  0.0987  0.4235
  147SAPE  C21616149   5.632   2.596   5.053 -0.1055  0.3938 -0.0806
  147SAPE  H16R16150   5.687   2.543   4.972  0.9216 -1.4508  1.6922
  147SAPE  H16S16151   5.682   2.695   5.061 -0.7082  0.8531 -1.7431
  147SAPE  C21716152   5.491   2.608   4.994 -0.1871  0.3419  0.4060
  147SAPE  H17R16153   5.417   2.606   5.076 -0.3417 -2.0454  0.2858
  147SAPE  H17S16154   5.472   2.521   4.927 -1.0189  0.4481  0.4923
  147SAPE  C21816155   5.473   2.726   4.898 -0.6925 -0.2222 -0.1428
  147SAPE  H18R16156   5.505   2.816   4.954  0.4286 -0.2432 -0.7394
  147SAPE  H18S16157   5.364   2.735   4.875 -0.9494 -2.4012 -0.0502
  147SAPE  C21916158   5.545   2.700   4.764  0.1149  0.2564  0.0871
  147SAPE  H19R16159   5.487   2.618   4.716 -1.5915  1.3896  0.1193
  147SAPE  H19S16160   5.647   2.657   4.777 -0.5964 -1.2948  0.7776
  147SAPE  C22016161   5.553   2.816   4.672 -0.0787 -0.5942 -0.2934
  147SAPE  H20R16162   5.457   2.871   4.657 -0.5352 -1.3300 -0.1137
  147SAPE  H20S16163   5.577   2.774   4.572  1.0149  1.2867 -0.8690
  147SAPE  H20T16164   5.633   2.885   4.706 -1.3883  0.1113  1.5462
  147SAPE   C3316165   4.834   3.027   6.247  0.2824 -0.1650  0.5030
  147SAPE   H3X16166   4.816   3.118   6.308 -1.0428  0.4404 -0.7574
  147SAPE   H3Y16167   4.753   2.959   6.281 -0.7180  1.5651  1.6904
  147SAPE   C3416168   4.796   3.074   6.104 -0.3429  0.6488  0.3297
  147SAPE   H4X16169   4.860   3.157   6.068 -0.6090  1.6256  2.0051
  147SAPE   H4Y16170   4.687   3.095   6.105 -0.7596 -1.3119  0.5726
  147SAPE   C3516171   4.814   2.952   6.004  0.3323 -0.0875  0.0532
  147SAPE   H5X16172   4.744   2.873   6.038  0.1401  0.0221 -0.0837
  147SAPE   H5Y16173   4.921   2.922   6.016  0.3216 -0.7982 -1.3764
  147SAPE   C3616174   4.801   2.990   5.858  0.3281 -0.1132  0.9730
  147SAPE   H6X16175   4.888   3.038   5.808 -0.9252  1.6816  0.3875
  147SAPE   H6Y16176   4.718   3.064   5.859  0.4080 -0.0246  1.0459
  147SAPE   C3716177   4.749   2.881   5.764 -0.0006 -0.2778 -0.0081
  147SAPE   H7X16178   4.662   2.828   5.809  0.0367 -0.9053 -0.6665
  147SAPE   H7Y16179   4.827   2.802   5.764  0.7484  0.3972 -2.4120
  147SAPE   C3816180   4.715   2.924   5.617  0.2902  0.1095  0.6643
  147SAPE   H8X16181   4.808   2.983   5.601  0.6918 -0.4236  0.9863
  147SAPE   H8Y16182   4.619   2.979   5.614 -0.7690 -1.6831  0.6987
  147SAPE   C3916183   4.711   2.805   5.517  0.1169  0.6841 -0.0406
  147SAPE   H9X16184   4.614   2.755   5.538 -0.3417  1.8451  0.6793
  147SAPE   H9Y16185   4.792   2.729   5.515 -0.5930 -0.0753 -1.3373
  147SAPE  C31016186   4.709   2.837   5.370 -0.1122 -0.4024  0.5765
  147SAPE  H10X16187   4.796   2.889   5.325 -0.1295 -0.5007  0.4285
  147SAPE  H10Y16188   4.626   2.909   5.364  2.2870  2.6727  1.6083
  147SAPE  C31116189   4.682   2.714   5.279  0.3685  0.8754 -0.0091
  147SAPE  H11X16190   4.608   2.646   5.326 -0.1892  0.4845 -1.3836
  147SAPE  H11Y16191   4.774   2.652   5.265 -0.6753 -0.7158 -0.1313
  147SAPE  C31216192   4.632   2.747   5.140 -0.2327 -0.2732 -0.2977
  147SAPE  H12X16193   4.710   2.799   5.080 -0.1417 -1.1212 -0.9426
  147SAPE  H12Y16194   4.547   2.817   5.154  0.3954 -0.0127  2.9787
  147SAPE  C31316195   4.594   2.621   5.057  0.9666  0.8261  0.2258
  147SAPE  H13X16196   4.507   2.582   5.115 -0.1788  1.6278 -0.9025
  147SAPE  H13Y16197   4.678   2.548   5.051  0.9765  0.6541  1.9035
  147SAPE  C31416198   4.538   2.650   4.915 -0.5761  0.2533 -0.0649
  147SAPE  H14X16199   4.614   2.709   4.860  0.7091 -1.3313 -0.0572
  147SAPE  H14Y16200   4.453   2.718   4.935  0.3553  1.0331  1.4736
  147SAPE  C31516201   4.505   2.527   4.828  0.5151 -0.2565  0.0203
  147SAPE  H15X16202   4.601   2.471   4.826  0.4960 -0.4040 -3.3757
  147SAPE  H15Y16203   4.475   2.559   4.725  0.2488  1.3648  0.5777
  147SAPE  C31616204   4.402   2.439   4.892  0.7766 -0.1291 -0.3774
  147SAPE  H16X16205   4.316   2.509   4.887  2.3136  1.8717 -0.3422
  147SAPE  H16Y16206   4.431   2.422   4.998  2.3472 -0.0331 -0.7651
  147SAPE  C31716207   4.387   2.305   4.828 -0.1624 -0.2779 -0.1051
  147SAPE  H17X16208   4.293   2.258   4.864 -0.0487  0.9531  1.9482
  147SAPE  H17Y16209   4.470   2.233   4.846 -0.5351 -1.0481 -1.3181
  147SAPE  C31816210   4.374   2.320   4.675 -0.3128 -0.4444  0.2473
  147SAPE  H18X16211   4.311   2.409   4.653  1.0044  0.3358 -0.5078
  147SAPE  H18Y16212   4.311   2.236   4.640  0.0536 -0.6764  0.1358
  147SAPE  H18Z16213   4.472   2.329   4.623 -0.2129 -0.3273  0.4540
  148SAPE     N16214   4.201   0.711   7.343 -0.3692  0.4257  0.2440
  148SAPE   HN116215   4.127   0.687   7.275 -1.2905  1.2473  0.9246
  148SAPE   HN216216   4.168   0.699   7.441  1.4711  1.4649  1.0515
  148SAPE   HN316217   4.227   0.812   7.344  0.7006  0.1682 -0.3420
  148SAPE   C1216218   4.326   0.635   7.314 -0.1280 -0.5634  0.3653
  148SAPE  H12A16219   4.288   0.530   7.308 -1.1074 -0.1548 -0.8627
  148SAPE  H12B16220   4.384   0.628   7.408 -0.7597  0.2244  0.8296
  148SAPE   C1116221   4.400   0.689   7.197  0.8248  0.1948  0.3557
  148SAPE  H11A16222   4.322   0.710   7.122  2.6784 -0.5837 -1.8984
  148SAPE  H11B16223   4.458   0.602   7.158 -3.1555 -1.8518 -1.6687
  148SAPE     P16224   4.621   0.816   7.274  0.0201  0.1255  0.1156
  148SAPE   O1316225   4.665   0.956   7.265  0.4267  0.2799  0.1381
  148SAPE   O1416226   4.617   0.751   7.407  0.2360  0.2297 -0.0567
  148SAPE   O1216227   4.471   0.808   7.218 -0.4687 -0.3530  0.0864
  148SAPE   O1116228   4.703   0.731   7.166 -0.1182  0.4033 -0.2824
  148SAPE    C116229   4.682   0.767   7.027  0.3606 -0.2851 -0.3904
  148SAPE    HA16230   4.587   0.730   6.985  0.8228 -0.8780 -0.9215
  148SAPE    HB16231   4.696   0.875   7.007  4.5428 -0.6027 -0.0303
  148SAPE    C216232   4.781   0.702   6.934  0.1663  0.1909 -0.6265
  148SAPE    HS16233   4.878   0.724   6.984 -0.3954  0.9202  0.1503
  148SAPE   O2116234   4.766   0.764   6.808 -0.3341  0.4213  0.4611
  148SAPE   C2116235   4.866   0.743   6.725 -0.8556  1.0974  0.2101
  148SAPE   O2216236   4.973   0.683   6.744  0.7298  0.2095 -0.1821
  148SAPE   C2216237   4.839   0.787   6.580 -0.0579 -0.3223  1.7615
  148SAPE   H2R16238   4.757   0.719   6.551 -1.0322  1.0290  1.2349
  148SAPE   H2S16239   4.792   0.888   6.580  0.2051 -0.1275 -0.9486
  148SAPE    C316240   4.764   0.546   6.926  0.1098 -0.0792 -0.0749
  148SAPE    HX16241   4.780   0.524   7.034 -0.5135  0.1487  0.0705
  148SAPE    HY16242   4.850   0.507   6.867  0.1286  1.1071 -0.8625
  148SAPE   O3116243   4.633   0.507   6.889  0.1172 -0.9421  0.0162
  148SAPE   C3116244   4.621   0.492   6.758  0.5600  0.5080 -0.2528
  148SAPE   O3216245   4.699   0.511   6.672  0.0547 -0.2122  0.2504
  148SAPE   C3216246   4.467   0.464   6.739 -0.7499 -0.4507  0.0851
  148SAPE   H2X16247   4.418   0.523   6.820 -1.0876  0.3950 -0.7178
  148SAPE   H2Y16248   4.450   0.355   6.742  0.0437 -0.5652  0.9302
  148SAPE   C2316249   4.952   0.758   6.471 -0.2477  0.2615 -0.4891
  148SAPE   H3R16250   4.961   0.652   6.439  2.9662  0.6341 -1.0783
  148SAPE   H3S16251   5.056   0.781   6.503 -0.0664 -0.7537 -0.3124
  148SAPE   C2416252   4.924   0.840   6.342  0.0780 -0.2550  0.9438
  148SAPE   H4R16253   4.903   0.946   6.367 -2.6188 -0.6580  0.6642
  148SAPE   H4S16254   4.828   0.818   6.291  1.3699  2.6095 -3.2666
  148SAPE   C2516255   5.036   0.823   6.242 -0.1692 -0.4838  0.5473
  148SAPE   H5R16256   5.075   0.721   6.223  0.2791 -0.5423  1.6618
  148SAPE   C2616257   5.094   0.921   6.171 -0.3840 -0.7564 -0.9494
  148SAPE   H6R16258   5.180   0.897   6.107  0.2375 -1.0539 -0.0210
  148SAPE   C2716259   5.071   1.070   6.175 -0.3721  0.4228  0.1140
  148SAPE   H7R16260   5.154   1.134   6.140 -1.1437  1.4033  0.0076
  148SAPE   H7S16261   5.068   1.097   6.283  0.4176  1.3967 -0.0962
  148SAPE   C2816262   4.945   1.125   6.116 -0.0617 -0.2179  0.3410
  148SAPE   H8R16263   4.852   1.089   6.161  0.1306 -0.9762  0.1333
  148SAPE   C2916264   4.944   1.204   6.007  0.0960  0.5616 -0.5022
  148SAPE   H9R16265   4.844   1.232   5.970 -1.7744 -2.5026  1.7373
  148SAPE  C21016266   5.060   1.251   5.919 -0.0624 -0.4844 -0.8162
  148SAPE  H10R16267   5.146   1.180   5.921 -0.9663 -1.5866  0.0640
  148SAPE  H10S16268   5.087   1.355   5.949 -0.6900 -0.1307 -1.4581
  148SAPE  C21116269   5.003   1.261   5.776 -0.0608  0.2148 -0.0535
  148SAPE  H11R16270   5.008   1.166   5.721 -0.5233 -0.1559  0.5392
  148SAPE  C21216271   4.944   1.365   5.727  0.4647  0.0085 -0.0616
  148SAPE  H12R16272   4.898   1.355   5.628 -0.5847  0.3450  0.3682
  148SAPE  C21316273   4.918   1.493   5.795 -1.1847 -0.1068 -0.1641
  148SAPE  H13R16274   4.979   1.577   5.756 -1.7697  0.5587  0.3258
  148SAPE  H13S16275   4.941   1.480   5.903 -2.3573  0.8594  0.2340
  148SAPE  C21416276   4.780   1.543   5.812 -0.5109 -0.3711 -0.4546
  148SAPE  H14R16277   4.737   1.480   5.891  3.5228 -1.3939  1.1763
  148SAPE  C21516278   4.715   1.644   5.749  0.4929  0.2188 -0.0150
  148SAPE  H15R16279   4.610   1.665   5.771  0.0375 -1.4590 -0.4766
  148SAPE  C21616280   4.773   1.727   5.632  0.4749  0.0301  0.2820
  148SAPE  H16R16281   4.883   1.720   5.634  0.4825  0.1854  0.3948
  148SAPE  H16S16282   4.751   1.836   5.638  1.3303  0.5034 -3.0596
  148SAPE  C21716283   4.714   1.667   5.503  0.1943  0.0367  0.2067
  148SAPE  H17R16284   4.614   1.708   5.474  1.0773  1.1501 -1.4484
  148SAPE  H17S16285   4.703   1.557   5.499 -2.2067  0.1972  0.5452
  148SAPE  C21816286   4.813   1.700   5.378  0.6332  1.1056 -0.5004
  148SAPE  H18R16287   4.817   1.810   5.362  0.8934  1.0884 -0.5614
  148SAPE  H18S16288   4.755   1.664   5.290 -2.5175  0.9349  1.4883
  148SAPE  C21916289   4.943   1.623   5.382 -0.4436 -0.1491  0.7144
  148SAPE  H19R16290   5.004   1.625   5.475  1.6188  2.3493 -0.5668
  148SAPE  H19S16291   5.007   1.677   5.309 -0.3049  3.9431  3.5167
  148SAPE  C22016292   4.936   1.479   5.334 -0.1434 -0.2446 -1.3540
  148SAPE  H20R16293   4.840   1.431   5.361 -0.6201  0.9536 -0.8088
  148SAPE  H20S16294   5.015   1.419   5.383  1.0631  0.4803 -2.3376
  148SAPE  H20T16295   4.950   1.465   5.225  1.5442 -1.4273 -1.0211
  148SAPE   C3316296   4.424   0.516   6.600  0.7000  0.1687  0.5792
  148SAPE   H3X16297   4.493   0.595   6.566  0.4965 -0.3259 -1.0902
  148SAPE   H3Y16298   4.327   0.570   6.608  1.2248  1.0730  0.8947
  148SAPE   C3416299   4.414   0.404   6.494 -0.1084 -0.1236 -0.4178
  148SAPE   H4X16300   4.312   0.361   6.488 -0.5918  0.9455 -0.1906
  148SAPE   H4Y16301   4.489   0.324   6.513  0.0412  0.4367  1.5180
  148SAPE   C3516302   4.436   0.460   6.357 -0.0924 -0.3604 -0.6236
  148SAPE   H5X16303   4.535   0.510   6.349 -0.7460  0.7763 -1.8352
  148SAPE   H5Y16304   4.361   0.539   6.338 -0.1954 -0.7469 -1.9039
  148SAPE   C3616305   4.424   0.364   6.241 -0.1670 -0.0309 -0.1165
  148SAPE   H6X16306   4.332   0.301   6.236  0.7113 -1.3103 -0.9524
  148SAPE   H6Y16307   4.505   0.288   6.241  0.2558  0.4036 -1.0822
  148SAPE   C3716308   4.416   0.432   6.103  0.2623  0.8188 -0.4143
  148SAPE   H7X16309   4.516   0.475   6.082  1.5235 -2.7950 -2.5831
  148SAPE   H7Y16310   4.342   0.515   6.108  0.7009  1.1758  0.5703
  148SAPE   C3816311   4.384   0.340   5.982 -0.0701  0.2330 -0.1201
  148SAPE   H8X16312   4.285   0.290   5.982 -1.6764  3.1094 -1.6545
  148SAPE   H8Y16313   4.471   0.271   5.975 -0.8012 -1.3403  3.7398
  148SAPE   C3916314   4.388   0.426   5.849 -0.1500 -0.3073 -0.3568
  148SAPE   H9X16315   4.475   0.496   5.842 -0.1476 -0.0960  1.3051
  148SAPE   H9Y16316   4.297   0.489   5.849  1.4651  2.3025 -3.0232
  148SAPE  C31016317   4.395   0.331   5.727 -0.3453  0.5187  0.3323
  148SAPE  H10X16318   4.300   0.276   5.708 -0.2984  0.1420  1.1849
  148SAPE  H10Y16319   4.479   0.259   5.734 -0.2156  0.7469  1.1688
  148SAPE  C31116320   4.429   0.415   5.600 -0.4731  0.6388  0.2820
  148SAPE  H11X16321   4.506   0.492   5.624  0.5521 -0.4269  0.4954
  148SAPE  H11Y16322   4.338   0.474   5.576 -1.7333 -1.6522 -0.8709
  148SAPE  C31216323   4.483   0.327   5.492  0.2506  0.9698  0.0940
  148SAPE  H12X16324   4.431   0.230   5.491  0.5425  0.6960  2.8272
  148SAPE  H12Y16325   4.592   0.307   5.506 -0.2855 -2.4061  0.1251
  148SAPE  C31316326   4.473   0.397   5.360 -0.4141 -0.2002 -0.0743
  148SAPE  H13X16327   4.561   0.464   5.354  0.9098 -1.4584  3.3685
  148SAPE  H13Y16328   4.381   0.453   5.332  0.1233  0.1714 -1.1558
  148SAPE  C31416329   4.466   0.303   5.240  0.0268 -0.3296  0.0674
  148SAPE  H14X16330   4.368   0.250   5.238  0.7445 -1.7913  1.3547
  148SAPE  H14Y16331   4.545   0.227   5.252 -1.3599 -1.5982  1.6812
  148SAPE  C31516332   4.468   0.365   5.099 -0.5185  0.4358  0.0877
  148SAPE  H15X16333   4.560   0.428   5.092  1.2871 -1.9238  1.0585
  148SAPE  H15Y16334   4.381   0.431   5.079 -1.4005 -0.3459  1.2440
  148SAPE  C31616335   4.491   0.257   4.984 -1.1320  0.5752 -0.1067
  148SAPE  H16X16336   4.434   0.162   4.988  1.2919 -0.9060  2.0583
  148SAPE  H16Y16337   4.593   0.218   5.000 -0.8537  1.9284  1.7465
  148SAPE  C31716338   4.499   0.327   4.850  0.0725 -0.3299 -0.3761
  148SAPE  H17X16339   4.586   0.394   4.864 -0.3832 -0.1805  2.0895
  148SAPE  H17Y16340   4.407   0.388   4.852 -0.9838 -1.6817 -2.8165
  148SAPE  C31816341   4.505   0.236   4.732  0.1397 -0.0229 -0.2495
  148SAPE  H18X16342   4.602   0.183   4.720 -1.2585 -2.7440 -0.5186
  148SAPE  H18Y16343   4.478   0.284   4.635  0.1485  0.3110 -0.0877
  148SAPE  H18Z16344   4.429   0.156   4.746  0.4723 -0.1147  1.1841
  149SAPE     N16345   2.670   6.111   7.142  0.3769  0.2808 -0.4519
  149SAPE   HN116346   2.593   6.043   7.157 -0.1699  0.8349 -0.6958
  149SAPE   HN216347   2.734   6.094   7.222 -0.2299  3.2570  0.7925
  149SAPE   HN316348   2.632   6.207   7.150 -0.7078 -0.1944  0.5099
  149SAPE   C1216349   2.737   6.093   7.010  0.0704 -0.0159 -0.1111
  149SAPE  H12A16350   2.847   6.107   7.014  0.4243 -1.5336 -2.5857
  149SAPE  H12B16351   2.692   6.162   6.935 -0.2828  0.8659  0.8935
  149SAPE   C1116352   2.718   5.958   6.950  0.7785  0.4475  0.0742
  149SAPE  H11A16353   2.785   5.945   6.863 -1.2872 -1.1492 -1.3943
  149SAPE  H11B16354   2.615   5.948   6.908  1.2790 -0.3506 -1.0048
  149SAPE     P16355   2.805   5.729   7.032  0.1210 -0.1984  0.3126
  149SAPE   O1316356   2.948   5.750   7.045  0.5518 -0.1279  0.1417
  149SAPE   O1416357   2.752   5.630   7.127  0.4759 -0.5311  0.2842
  149SAPE   O1216358   2.737   5.863   7.047  0.5063 -0.2838 -0.1785
  149SAPE   O1116359   2.774   5.676   6.881 -0.3264 -0.4459 -0.0847
  149SAPE    C116360   2.641   5.637   6.856 -0.0418  0.7008  0.4315
  149SAPE    HA16361   2.563   5.705   6.895 -0.8223 -0.3134  0.6834
  149SAPE    HB16362   2.618   5.643   6.747 -0.3238  1.6584  0.5374
  149SAPE    C216363   2.610   5.485   6.891 -0.2387 -0.3984 -0.5855
  149SAPE    HS16364   2.642   5.464   6.995 -0.1198 -0.6455 -0.6709
  149SAPE   O2116365   2.681   5.400   6.795 -1.2602  0.0121 -0.3773
  149SAPE   C2116366   2.695   5.276   6.837 -0.3026  0.5267  0.0234
  149SAPE   O2216367   2.664   5.230   6.947  0.0730 -0.0078 -0.6042
  149SAPE   C2216368   2.776   5.183   6.740  0.0155 -0.7256 -0.5633
  149SAPE   H2R16369   2.834   5.250   6.672 -1.4672  0.4804 -0.7023
  149SAPE   H2S16370   2.844   5.127   6.807  0.2696  0.3738  0.1293
  149SAPE    C316371   2.457   5.450   6.886  0.1649 -0.2578 -0.1310
  149SAPE    HX16372   2.400   5.504   6.964  2.0103 -0.5851  1.5300
  149SAPE    HY16373   2.447   5.345   6.922 -2.5543  0.2026  0.6947
  149SAPE   O3116374   2.404   5.469   6.757  0.2447  0.7378  0.2208
  149SAPE   C3116375   2.350   5.366   6.690 -0.1619  0.1749 -0.3018
  149SAPE   O3216376   2.345   5.252   6.735  0.5624  0.5358 -0.2822
  149SAPE   C3216377   2.297   5.400   6.557 -0.1883  0.2753 -0.5412
  149SAPE   H2X16378   2.259   5.505   6.562  0.4216  0.5043 -0.7022
  149SAPE   H2Y16379   2.224   5.325   6.520 -0.4077  1.0060 -1.6505
  149SAPE   C2316380   2.700   5.084   6.643  0.6511  1.0946  0.6540
  149SAPE   H3R16381   2.643   5.135   6.563  0.4891  0.1769  0.1744
  149SAPE   H3S16382   2.617   5.026   6.690  1.3996 -0.4035  0.1952
  149SAPE   C2416383   2.798   4.979   6.583  0.5043  0.0642  0.0314
  149SAPE   H4R16384   2.749   4.894   6.531  0.0413 -1.4817  2.7841
  149SAPE   H4S16385   2.840   4.928   6.672 -3.3047 -0.1269  1.9535
  149SAPE   C2516386   2.907   5.042   6.503 -0.2751  0.0620 -0.1240
  149SAPE   H5R16387   2.989   5.088   6.561 -1.1810  0.0051  1.2647
  149SAPE   C2616388   2.928   5.029   6.371 -1.0442 -0.2597 -0.0736
  149SAPE   H6R16389   3.011   5.075   6.315 -1.7051 -0.7031 -1.4562
  149SAPE   C2716390   2.822   4.976   6.268 -0.6292 -0.3694 -0.2735
  149SAPE   H7R16391   2.825   5.041   6.179  0.1219  1.3184  0.9450
  149SAPE   H7S16392   2.714   4.975   6.294 -0.4059  0.4869  0.7216
  149SAPE   C2816393   2.864   4.841   6.210 -0.0749  0.3682  0.0263
  149SAPE   H8R16394   2.937   4.784   6.271 -1.0107 -0.6373  0.2318
  149SAPE   C2916395   2.818   4.780   6.099  0.0989 -0.4720  0.0519
  149SAPE   H9R16396   2.842   4.673   6.089  0.3834 -0.4746  0.7160
  149SAPE  C21016397   2.715   4.829   6.001  0.5692  0.4958  0.3572
  149SAPE  H10R16398   2.772   4.858   5.910 -0.4745  2.1100  0.1777
  149SAPE  H10S16399   2.676   4.929   6.028 -0.6929 -0.3342  1.7546
  149SAPE  C21116400   2.593   4.755   5.956 -0.3857 -0.0954 -0.2896
  149SAPE  H11R16401   2.506   4.782   6.016  1.0286 -0.0402  1.8566
  149SAPE  C21216402   2.580   4.665   5.860  0.2863 -0.5608  0.2616
  149SAPE  H12R16403   2.479   4.621   5.855 -0.1840 -0.2733  4.1183
  149SAPE  C21316404   2.688   4.628   5.757  0.3083  0.3736  0.8299
  149SAPE  H13R16405   2.778   4.590   5.810  1.3700  1.2980 -0.2450
  149SAPE  H13S16406   2.703   4.720   5.696  1.6509 -0.7531 -0.5900
  149SAPE  C21416407   2.656   4.512   5.661 -0.2900  0.0804  0.5235
  149SAPE  H14R16408   2.555   4.467   5.668 -0.2445 -0.0286  0.4954
  149SAPE  C21516409   2.733   4.486   5.556  1.1186 -0.7277  0.0602
  149SAPE  H15R16410   2.689   4.416   5.485  1.5540  0.2240 -1.1826
  149SAPE  C21616411   2.861   4.544   5.512 -0.6277  0.0979  0.7113
  149SAPE  H16R16412   2.934   4.462   5.497 -2.8447 -2.1016  1.3673
  149SAPE  H16S16413   2.907   4.599   5.597  0.7870  1.6147 -0.9230
  149SAPE  C21716414   2.852   4.644   5.392 -0.7043 -0.5655  0.3018
  149SAPE  H17R16415   2.940   4.713   5.394 -0.5322 -0.7939  0.8324
  149SAPE  H17S16416   2.763   4.708   5.409 -0.2408 -0.1906  1.4620
  149SAPE  C21816417   2.831   4.582   5.256 -0.0556 -0.1423 -0.4605
  149SAPE  H18R16418   2.725   4.552   5.240 -0.4069  1.6240 -1.7946
  149SAPE  H18S16419   2.897   4.497   5.225 -0.4786 -0.2078 -1.2216
  149SAPE  C21916420   2.845   4.683   5.139 -0.1014  0.3773 -0.2569
  149SAPE  H19R16421   2.868   4.624   5.048 -1.0186 -0.9739  0.3575
  149SAPE  H19S16422   2.928   4.753   5.167  0.1305 -1.0762  3.1750
  149SAPE  C22016423   2.713   4.751   5.109 -0.3126 -0.4911 -0.2906
  149SAPE  H20R16424   2.727   4.825   5.027  1.1261  0.1421  0.4886
  149SAPE  H20S16425   2.663   4.801   5.195  1.9912  0.1164  0.7856
  149SAPE  H20T16426   2.639   4.679   5.069 -1.2370 -0.3837  1.1581
  149SAPE   C3316427   2.413   5.415   6.459  0.2246  0.7364  0.5183
  149SAPE   H3X16428   2.487   5.334   6.478  3.7126  3.5228 -0.1685
  149SAPE   H3Y16429   2.470   5.509   6.476  0.7384  0.6375 -0.5651
  149SAPE   C3416430   2.371   5.401   6.310 -0.0710 -0.1035  0.1809
  149SAPE   H4X16431   2.305   5.314   6.287  3.0551 -2.1659 -1.7317
  149SAPE   H4Y16432   2.469   5.395   6.259  0.9221 -0.5305  2.0400
  149SAPE   C3516433   2.302   5.522   6.262 -0.2369  0.1865  0.2057
  149SAPE   H5X16434   2.371   5.607   6.279  0.2790 -0.1888  0.0013
  149SAPE   H5Y16435   2.211   5.547   6.322  0.6032  0.1121  1.5362
  149SAPE   C3616436   2.265   5.509   6.115 -0.1245 -0.4750  0.0403
  149SAPE   H6X16437   2.206   5.595   6.076  1.4372  0.7889  0.3834
  149SAPE   H6Y16438   2.193   5.425   6.105 -0.9676  0.4520 -2.8260
  149SAPE   C3716439   2.375   5.482   6.015 -0.3815  0.3021 -0.2725
  149SAPE   H7X16440   2.442   5.406   6.061 -0.6012  1.2943  1.8011
  149SAPE   H7Y16441   2.435   5.574   5.999 -0.5216  0.8387  1.9146
  149SAPE   C3816442   2.320   5.436   5.883  0.9312  0.4396  0.2445
  149SAPE   H8X16443   2.260   5.524   5.852  1.7450  0.4653 -1.3456
  149SAPE   H8Y16444   2.247   5.352   5.883  0.7741  0.5469 -1.2039
  149SAPE   C3916445   2.430   5.410   5.777  0.5718 -0.5464  0.9347
  149SAPE   H9X16446   2.496   5.327   5.809 -0.0120 -0.1960  3.2344
  149SAPE   H9Y16447   2.497   5.498   5.774 -0.5318  0.2897 -0.3089
  149SAPE  C31016448   2.388   5.391   5.628 -0.1867  0.3565  0.9263
  149SAPE  H10X16449   2.320   5.304   5.617  0.0921  0.3607 -1.3290
  149SAPE  H10Y16450   2.484   5.380   5.574  0.8604  2.2595  2.2850
  149SAPE  C31116451   2.334   5.520   5.573  0.6897 -0.2522  0.0331
  149SAPE  H11X16452   2.393   5.604   5.617  0.7309  0.6234 -1.5945
  149SAPE  H11Y16453   2.227   5.531   5.601  1.1750 -0.5591  2.2389
  149SAPE  C31216454   2.360   5.529   5.416 -0.2277  0.0104  0.1218
  149SAPE  H12X16455   2.282   5.598   5.375 -0.9235  0.3484  1.9330
  149SAPE  H12Y16456   2.342   5.432   5.365  2.2370 -0.2385 -0.3937
  149SAPE  C31316457   2.503   5.578   5.394  0.6708 -0.3013 -0.3314
  149SAPE  H13X16458   2.568   5.539   5.475  0.3809 -0.9527 -0.4096
  149SAPE  H13Y16459   2.491   5.687   5.414 -2.8674 -0.7515  0.8474
  149SAPE  C31416460   2.557   5.547   5.255  0.7276  0.2306 -0.3510
  149SAPE  H14X16461   2.481   5.583   5.182  1.4870 -0.3183 -1.4393
  149SAPE  H14Y16462   2.579   5.439   5.240  0.1427  0.3610 -2.4308
  149SAPE  C31516463   2.690   5.620   5.220  0.2558  0.4561 -0.0559
  149SAPE  H15X16464   2.777   5.586   5.281 -0.8084  1.7833  2.3544
  149SAPE  H15Y16465   2.684   5.724   5.260  3.3178  1.0221 -0.7833
  149SAPE  C31616466   2.730   5.622   5.073  0.3575 -0.1224  0.0555
  149SAPE  H16X16467   2.644   5.657   5.012 -0.6211 -2.3107  0.0806
  149SAPE  H16Y16468   2.757   5.523   5.031 -0.9640 -1.7562  2.7059
  149SAPE  C31716469   2.855   5.716   5.053  0.4864  0.2882  0.5255
  149SAPE  H17X16470   2.939   5.671   5.110  0.9960 -0.3016 -0.6506
  149SAPE  H17Y16471   2.851   5.816   5.103 -0.3501  0.1339  0.7795
  149SAPE  C31816472   2.909   5.727   4.905  0.3773  0.6839 -0.3823
  149SAPE  H18X16473   3.018   5.718   4.886  0.6881  0.9125  1.1414
  149SAPE  H18Y16474   2.876   5.827   4.868  0.4691  0.7522 -0.2816
  149SAPE  H18Z16475   2.856   5.651   4.844 -1.8002  0.6645  1.3871
  150SAPE     N16476   1.762   4.228   7.229  0.3659  0.2485 -0.1581
  150SAPE   HN116477   1.812   4.139   7.251 -1.4419 -0.2702  2.3050
  150SAPE   HN216478   1.750   4.227   7.125  0.2570  3.5422 -0.2821
  150SAPE   HN316479   1.822   4.307   7.261 -0.0231 -0.0833  1.4937
  150SAPE   C1216480   1.619   4.243   7.274  0.6948  0.6766  0.1804
  150SAPE  H12A16481   1.584   4.334   7.222  1.8293  0.4514 -1.0386
  150SAPE  H12B16482   1.621   4.258   7.384 -0.7139 -0.7495  0.4339
  150SAPE   C1116483   1.541   4.121   7.225 -0.2589  0.5069 -0.4608
  150SAPE  H11A16484   1.440   4.124   7.270 -0.4535  0.0331 -0.8604
  150SAPE  H11B16485   1.587   4.024   7.252 -2.1240 -0.2917 -0.0327
  150SAPE     P16486   1.469   4.018   6.998 -0.2236 -0.0664  0.3991
  150SAPE   O1316487   1.488   4.073   6.858  0.2882  0.4647 -0.3264
  150SAPE   O1416488   1.536   3.888   7.029  0.5774 -0.2570  0.4363
  150SAPE   O1216489   1.529   4.132   7.085 -0.2143 -0.7383  0.3650
  150SAPE   O1116490   1.315   4.013   7.037  0.7115  0.0936  0.3480
  150SAPE    C116491   1.245   3.902   7.083  0.0075 -0.1164 -0.4310
  150SAPE    HA16492   1.300   3.806   7.095 -0.9699 -0.6362 -0.0017
  150SAPE    HB16493   1.207   3.922   7.186  0.3307  0.8656 -0.4976
  150SAPE    C216494   1.111   3.880   7.005 -0.1972 -0.2220  0.0844
  150SAPE    HS16495   1.057   3.797   7.056  1.0732 -0.5752  0.9015
  150SAPE   O2116496   1.144   3.853   6.867 -0.1440  0.1479 -0.4340
  150SAPE   C2116497   1.195   3.723   6.863 -0.5306  0.4289 -0.8923
  150SAPE   O2216498   1.180   3.649   6.958  0.4358 -0.8159 -0.2812
  150SAPE   C2216499   1.245   3.681   6.735  0.2033 -0.2614  0.4641
  150SAPE   H2R16500   1.248   3.571   6.724  0.3680 -0.1601 -0.5899
  150SAPE   H2S16501   1.176   3.718   6.655  2.0200 -1.1626 -1.6209
  150SAPE    C316502   1.030   4.014   7.008  0.3935  0.3321 -0.0522
  150SAPE    HX16503   1.091   4.089   6.953 -0.8968  1.3244 -0.1759
  150SAPE    HY16504   1.018   4.039   7.116 -0.5596 -2.5965  0.6164
  150SAPE   O3116505   0.896   4.001   6.954 -0.1660 -0.4972 -0.1304
  150SAPE   C3116506   0.881   4.012   6.826 -0.3386  0.3358  0.3855
  150SAPE   O3216507   0.958   4.074   6.756  0.3691  0.4419  0.2585
  150SAPE   C3216508   0.742   3.953   6.784  0.0971 -0.2170 -0.3110
  150SAPE   H2X16509   0.666   4.026   6.820  1.1452  0.6403  0.2216
  150SAPE   H2Y16510   0.723   3.862   6.843  0.2205 -1.5644 -2.2505
  150SAPE   C2316511   1.389   3.717   6.694 -0.5243 -0.1963 -0.5550
  150SAPE   H3R16512   1.459   3.706   6.780 -0.6049 -3.6295 -0.8180
  150SAPE   H3S16513   1.395   3.826   6.671  0.0603  0.3046  1.6974
  150SAPE   C2416514   1.433   3.643   6.566  0.4571  0.1741 -0.6430
  150SAPE   H4R16515   1.359   3.679   6.491 -1.7780 -1.9644  0.3805
  150SAPE   H4S16516   1.404   3.538   6.588  0.8610  0.4333  1.3631
  150SAPE   C2516517   1.579   3.661   6.535  0.4289  1.1093  0.2579
  150SAPE   H5R16518   1.648   3.676   6.619 -0.3498  1.1198  0.9047
  150SAPE   C2616519   1.623   3.672   6.405 -0.3803 -0.0993  0.2578
  150SAPE   H6R16520   1.730   3.669   6.379 -0.4480 -1.3408  0.0707
  150SAPE   C2716521   1.535   3.666   6.278 -0.7926 -0.5770 -0.0363
  150SAPE   H7R16522   1.428   3.676   6.304 -0.6869  1.6127 -0.2344
  150SAPE   H7S16523   1.553   3.560   6.250  1.3903 -0.7849  1.8279
  150SAPE   C2816524   1.578   3.757   6.161 -0.8976 -0.5706  0.0444
  150SAPE   H8R16525   1.619   3.854   6.195 -1.8066 -0.3870  0.6577
  150SAPE   C2916526   1.584   3.723   6.032  0.2986 -0.1568  0.3149
  150SAPE   H9R16527   1.617   3.796   5.957 -0.8033  2.3127  2.0908
  150SAPE  C21016528   1.523   3.591   5.977 -0.2965  0.0246 -0.0970
  150SAPE  H10R16529   1.419   3.587   6.016 -0.5885 -0.1051 -0.8612
  150SAPE  H10S16530   1.569   3.500   6.021 -1.2014 -1.1347 -1.4664
  150SAPE  C21116531   1.513   3.585   5.824 -0.3058  0.0847 -0.1108
  150SAPE  H11R16532   1.412   3.599   5.784 -0.2017  2.7997  0.4252
  150SAPE  C21216533   1.616   3.568   5.733  1.1504 -0.2725 -0.4891
  150SAPE  H12R16534   1.587   3.579   5.627  1.1582  2.4492 -0.2801
  150SAPE  C21316535   1.765   3.571   5.749 -0.0178 -0.5783 -0.0295
  150SAPE  H13R16536   1.806   3.477   5.707 -1.0483  0.0032 -2.5127
  150SAPE  H13S16537   1.783   3.566   5.859 -1.7533 -0.4018  0.2945
  150SAPE  C21416538   1.841   3.683   5.690  0.1469  0.3307 -0.2204
  150SAPE  H14R16539   1.861   3.768   5.757 -0.3853 -0.8942  1.5873
  150SAPE  C21516540   1.900   3.683   5.569  0.1766  0.2599  0.1016
  150SAPE  H15R16541   1.949   3.776   5.538  0.8240 -0.8787 -2.5888
  150SAPE  C21616542   1.903   3.574   5.464 -0.4028  0.4436 -0.4808
  150SAPE  H16R16543   1.851   3.481   5.496 -1.1533  1.1196  0.3256
  150SAPE  H16S16544   2.011   3.552   5.447 -0.5329  0.6218 -1.6368
  150SAPE  C21716545   1.838   3.607   5.330  0.0407  0.5481  0.3750
  150SAPE  H17R16546   1.732   3.630   5.353  0.0981  1.0355  0.1637
  150SAPE  H17S16547   1.856   3.514   5.271  1.2614 -0.0608  1.6384
  150SAPE  C21816548   1.911   3.725   5.260  0.0686  0.2562 -0.0181
  150SAPE  H18R16549   2.020   3.718   5.277 -0.3031  0.8662  3.1594
  150SAPE  H18S16550   1.880   3.825   5.297 -1.4310  0.9305 -2.8022
  150SAPE  C21916551   1.882   3.729   5.110  0.8620 -0.3742  0.3192
  150SAPE  H19R16552   1.896   3.628   5.066 -0.5634 -0.9728  1.1835
  150SAPE  H19S16553   1.962   3.793   5.067  0.9478 -0.1877  0.7554
  150SAPE  C22016554   1.734   3.772   5.068 -0.0981 -0.2043  0.0152
  150SAPE  H20R16555   1.714   3.769   4.959  1.0255 -1.2259 -0.1832
  150SAPE  H20S16556   1.719   3.878   5.098  1.8760  0.4781 -1.1792
  150SAPE  H20T16557   1.660   3.713   5.126 -0.9067 -0.8722 -1.6400
  150SAPE   C3316558   0.717   3.932   6.634 -0.2118 -0.5995 -0.2700
  150SAPE   H3X16559   0.803   3.973   6.578  0.8075 -0.8803  1.0376
  150SAPE   H3Y16560   0.626   3.991   6.608  0.0554 -1.1247 -2.6231
  150SAPE   C3416561   0.694   3.789   6.594  0.1205  0.4123  0.5073
  150SAPE   H4X16562   0.624   3.739   6.664 -2.6938  2.5642 -0.5825
  150SAPE   H4Y16563   0.787   3.728   6.602 -0.4778 -1.0668 -2.4663
  150SAPE   C3516564   0.632   3.771   6.458 -0.2350 -0.3019 -0.3685
  150SAPE   H5X16565   0.682   3.827   6.376  0.8878  0.4973  0.8268
  150SAPE   H5Y16566   0.529   3.811   6.463  0.2743  1.1933 -1.2321
  150SAPE   C3616567   0.634   3.624   6.426  0.1071  0.0726  0.0463
  150SAPE   H6X16568   0.616   3.561   6.515 -0.9049  0.1183 -0.1129
  150SAPE   H6Y16569   0.736   3.593   6.396  0.2400  0.3666  0.1907
  150SAPE   C3716570   0.546   3.597   6.301 -0.3702 -0.0315  0.1988
  150SAPE   H7X16571   0.440   3.628   6.319 -0.4501  1.2292 -2.0258
  150SAPE   H7Y16572   0.543   3.489   6.279  3.6508  0.1341 -2.1277
  150SAPE   C3816573   0.595   3.656   6.171  0.2423 -1.0505 -0.2245
  150SAPE   H8X16574   0.706   3.658   6.159  0.4257 -1.3190  1.2535
  150SAPE   H8Y16575   0.558   3.760   6.160  0.0515 -1.2429 -1.6630
  150SAPE   C3916576   0.531   3.591   6.053  0.6491 -0.0077  0.6634
  150SAPE   H9X16577   0.420   3.589   6.053  0.5923 -0.7682 -1.8914
  150SAPE   H9Y16578   0.560   3.485   6.039 -1.4981 -0.2563 -4.2508
  150SAPE  C31016579   0.574   3.672   5.926  0.2273  0.4246 -0.2283
  150SAPE  H10X16580   0.680   3.653   5.901 -0.2809 -3.2334 -0.1628
  150SAPE  H10Y16581   0.544   3.776   5.952 -0.4463  0.1076  0.2790
  150SAPE  C31116582   0.495   3.614   5.811  0.8716  0.4689 -0.1999
  150SAPE  H11X16583   0.386   3.634   5.816  0.5378 -1.2756  0.2062
  150SAPE  H11Y16584   0.516   3.505   5.819  1.9105  0.6969  0.4239
  150SAPE  C31216585   0.552   3.630   5.668 -0.2829 -0.3483  0.4961
  150SAPE  H12X16586   0.663   3.624   5.667 -0.2681  0.0262 -0.3436
  150SAPE  H12Y16587   0.519   3.729   5.630 -1.2860 -1.4447 -1.6369
  150SAPE  C31316588   0.494   3.524   5.572 -0.0065  1.0242  0.0359
  150SAPE  H13X16589   0.388   3.501   5.594  0.5920 -0.8450  1.2392
  150SAPE  H13Y16590   0.553   3.431   5.588 -0.5656  0.6993  0.2467
  150SAPE  C31416591   0.518   3.564   5.427  0.7713 -0.1147 -0.9338
  150SAPE  H14X16592   0.623   3.544   5.397  1.2778  0.8521  0.1022
  150SAPE  H14Y16593   0.509   3.673   5.409 -1.2181 -0.0597  0.2023
  150SAPE  C31516594   0.425   3.491   5.326 -0.6774 -0.6751  0.5520
  150SAPE  H15X16595   0.410   3.548   5.232  1.3096 -3.1478 -1.3860
  150SAPE  H15Y16596   0.322   3.481   5.365 -0.8700 -0.8741 -0.0016
  150SAPE  C31616597   0.461   3.357   5.273  0.2553  0.6458 -0.0907
  150SAPE  H16X16598   0.381   3.281   5.257  2.1924 -1.7763  1.0180
  150SAPE  H16Y16599   0.538   3.311   5.339 -1.9112 -1.6080  1.0404
  150SAPE  C31716600   0.535   3.372   5.141 -0.5033 -0.4081  0.0298
  150SAPE  H17X16601   0.633   3.424   5.144  1.0396 -3.0955 -0.7153
  150SAPE  H17Y16602   0.469   3.422   5.066  2.1310  1.1223 -1.4366
  150SAPE  C31816603   0.555   3.234   5.076  0.3806  0.1347  0.2138
  150SAPE  H18X16604   0.457   3.208   5.031 -0.1236  2.4279 -0.1368
  150SAPE  H18Y16605   0.591   3.155   5.145 -2.4894 -1.6869 -0.2179
  150SAPE  H18Z16606   0.623   3.241   4.988 -0.5156  0.2119 -0.4931
  151SAPE     N16607   6.054   4.704   7.459  0.4124  0.3486  0.2594
  151SAPE   HN116608   5.953   4.699   7.435  0.4685 -0.1721  0.1258
  151SAPE   HN216609   6.090   4.607   7.455 -0.6030 -0.0765  0.9651
  151SAPE   HN316610   6.062   4.734   7.558 -1.1401  2.1210 -0.0793
  151SAPE   C1216611   6.101   4.783   7.337 -0.0816  0.5376  0.2068
  151SAPE  H12A16612   6.209   4.809   7.338 -0.0952  0.5852  0.4107
  151SAPE  H12B16613   6.060   4.885   7.329  0.6552  0.8374  0.1654
  151SAPE   C1116614   6.049   4.718   7.204  0.1960 -0.2373 -0.2839
  151SAPE  H11A16615   6.098   4.623   7.173 -1.8292 -0.4921 -3.0921
  151SAPE  H11B16616   6.070   4.795   7.127 -0.5086  2.3390  1.9476
  151SAPE     P16617   5.804   4.745   7.125 -0.2935  0.0587 -0.4432
  151SAPE   O1316618   5.695   4.643   7.141  0.4215  0.6670 -0.6805
  151SAPE   O1416619   5.784   4.891   7.155 -0.8167  0.2173 -0.1021
  151SAPE   O1216620   5.911   4.699   7.228 -0.2807  0.1385 -0.3216
  151SAPE   O1116621   5.877   4.730   6.984 -0.1647 -0.1894 -0.0678
  151SAPE    C116622   5.809   4.756   6.861  0.1220 -0.2238 -0.3425
  151SAPE    HA16623   5.699   4.759   6.877  0.4258 -1.6984  2.7366
  151SAPE    HB16624   5.830   4.858   6.822 -2.8721  1.0041  0.9540
  151SAPE    C216625   5.839   4.654   6.753 -0.7623 -0.0143  0.0849
  151SAPE    HS16626   5.940   4.674   6.712 -1.3444  1.2229 -0.8181
  151SAPE   O2116627   5.737   4.648   6.648 -0.0485 -0.2500  0.0095
  151SAPE   C2116628   5.766   4.736   6.542 -0.0334 -0.2549  0.0368
  151SAPE   O2216629   5.865   4.801   6.537  0.8368  0.1442  0.5184
  151SAPE   C2216630   5.653   4.732   6.441 -0.1348  0.7393 -0.2419
  151SAPE   H2R16631   5.647   4.622   6.433  0.3295  0.6949 -0.0457
  151SAPE   H2S16632   5.558   4.774   6.480 -0.8154  1.5214 -2.5894
  151SAPE    C316633   5.836   4.508   6.804 -0.4148 -0.6905  0.9265
  151SAPE    HX16634   5.727   4.493   6.811 -0.6216 -0.2931 -0.8866
  151SAPE    HY16635   5.881   4.489   6.904 -0.3227 -0.7216  0.8799
  151SAPE   O3116636   5.898   4.427   6.706 -0.4695  0.1602 -0.2071
  151SAPE   C3116637   5.944   4.301   6.738 -0.8389 -0.1354 -0.6933
  151SAPE   O3216638   5.949   4.262   6.852  0.6882  0.9000  0.1809
  151SAPE   C3216639   6.002   4.240   6.612  0.0492  0.0753  0.1346
  151SAPE   H2X16640   6.070   4.155   6.638 -1.0536 -0.9805 -0.3180
  151SAPE   H2Y16641   6.062   4.322   6.568 -0.7864 -0.0736 -1.3391
  151SAPE   C2316642   5.695   4.796   6.311 -0.0204  0.7528  0.2536
  151SAPE   H3R16643   5.752   4.889   6.332  0.8368  1.0883 -2.9861
  151SAPE   H3S16644   5.607   4.822   6.249  0.8840  0.8319 -1.0480
  151SAPE   C2416645   5.788   4.705   6.225 -0.2438  0.0694  0.3758
  151SAPE   H4R16646   5.879   4.691   6.287 -0.4276  0.6448  0.7863
  151SAPE   H4S16647   5.829   4.759   6.137 -1.5362  1.4915  0.5976
  151SAPE   C2516648   5.736   4.565   6.192  0.1519  0.2225 -0.2392
  151SAPE   H5R16649   5.744   4.483   6.264 -2.1151 -0.1038 -0.2880
  151SAPE   C2616650   5.725   4.525   6.066 -0.0794 -0.1342 -0.4925
  151SAPE   H6R16651   5.677   4.427   6.053  0.2488 -0.1296 -1.9166
  151SAPE   C2716652   5.730   4.599   5.937  0.5358 -0.1265  0.0492
  151SAPE   H7R16653   5.732   4.710   5.947  0.1624  0.0423 -1.4315
  151SAPE   H7S16654   5.634   4.569   5.889  1.8953 -1.2958 -2.1148
  151SAPE   C2816655   5.847   4.562   5.853  0.2008  0.2826 -0.1205
  151SAPE   H8R16656   5.932   4.523   5.911  0.3664 -0.9395 -1.1460
  151SAPE   C2916657   5.864   4.575   5.723 -0.2751  1.1083  0.1359
  151SAPE   H9R16658   5.961   4.550   5.677 -0.2098  1.0871  0.2844
  151SAPE  C21016659   5.762   4.603   5.622 -0.0022 -0.5391 -0.3398
  151SAPE  H10R16660   5.804   4.668   5.542  1.8498  0.7003  1.5281
  151SAPE  H10S16661   5.691   4.669   5.677  0.6271 -1.1202  1.2455
  151SAPE  C21116662   5.695   4.474   5.573  0.2438 -0.1189  1.0904
  151SAPE  H11R16663   5.644   4.406   5.643 -2.4818  1.1880  0.4742
  151SAPE  C21216664   5.673   4.452   5.441 -0.1744 -0.2097 -0.6034
  151SAPE  H12R16665   5.613   4.361   5.425  0.9032 -1.1834  0.6541
  151SAPE  C21316666   5.750   4.510   5.323 -0.5200  0.5817 -0.0737
  151SAPE  H13R16667   5.854   4.538   5.350 -0.3346  1.2302 -1.3592
  151SAPE  H13S16668   5.707   4.608   5.293 -0.8219 -0.2769 -2.7330
  151SAPE  C21416669   5.752   4.407   5.210 -0.0465 -0.6963  0.2804
  151SAPE  H14R16670   5.654   4.363   5.186 -1.6650  2.3077  0.8674
  151SAPE  C21516671   5.866   4.365   5.144 -0.4833  0.1364  0.3070
  151SAPE  H15R16672   5.858   4.273   5.085 -0.8965  0.3787 -0.0214
  151SAPE  C21616673   6.004   4.425   5.156 -0.5818  0.4698  0.2809
  151SAPE  H16R16674   6.001   4.535   5.168 -1.4939  0.2181  2.8912
  151SAPE  H16S16675   6.062   4.401   5.064  1.0879  0.3628  1.3244
  151SAPE  C21716676   6.074   4.354   5.275 -0.1470 -0.3738 -0.1381
  151SAPE  H17R16677   6.008   4.372   5.362 -2.1910 -4.1435 -0.6992
  151SAPE  H17S16678   6.168   4.410   5.295 -0.1557 -1.0144  1.8555
  151SAPE  C21816679   6.097   4.206   5.254 -0.1317  0.7267 -0.0164
  151SAPE  H18R16680   6.005   4.148   5.276  1.0114 -2.2841 -2.5021
  151SAPE  H18S16681   6.161   4.179   5.341  0.8516  1.5674 -0.4572
  151SAPE  C21916682   6.164   4.163   5.123  0.4874 -0.0698 -0.1534
  151SAPE  H19R16683   6.258   4.220   5.108 -0.4464  1.1315 -1.9467
  151SAPE  H19S16684   6.099   4.193   5.037 -0.8272  0.5422  1.0111
  151SAPE  C22016685   6.190   4.011   5.115 -0.0476 -0.0170 -0.0794
  151SAPE  H20R16686   6.257   3.991   5.028 -0.9328 -0.1765 -0.7298
  151SAPE  H20S16687   6.094   3.957   5.120 -0.5718  0.9896  1.2525
  151SAPE  H20T16688   6.252   3.984   5.203  1.0533 -0.4764 -0.9601
  151SAPE   C3316689   5.891   4.199   6.517  0.5655  0.3282 -0.2974
  151SAPE   H3X16690   5.826   4.287   6.496  0.3965  1.0450  2.6705
  151SAPE   H3Y16691   5.823   4.120   6.557  1.1626 -0.5835 -1.0525
  151SAPE   C3416692   5.958   4.145   6.389  0.2975  0.3217 -0.6533
  151SAPE   H4X16693   6.024   4.055   6.397  3.0753  2.3602  1.2378
  151SAPE   H4Y16694   6.024   4.230   6.363  0.0880  0.2679 -1.3785
  151SAPE   C3516695   5.851   4.122   6.276 -0.0843 -0.2333  0.8945
  151SAPE   H5X16696   5.801   4.216   6.244 -2.2759 -1.6512  0.0074
  151SAPE   H5Y16697   5.775   4.049   6.309  0.9168  0.1517  4.4673
  151SAPE   C3616698   5.909   4.041   6.155 -0.7386 -1.0334 -0.1569
  151SAPE   H6X16699   5.825   3.986   6.107 -1.8793  2.0282 -1.9958
  151SAPE   H6Y16700   5.975   3.961   6.195 -0.8731 -0.6714  0.8268
  151SAPE   C3716701   5.973   4.125   6.040 -0.1602  0.1235 -0.3712
  151SAPE   H7X16702   6.052   4.180   6.095 -0.0075 -0.3177 -0.1476
  151SAPE   H7Y16703   5.897   4.196   6.001 -0.4208  0.0518  0.0111
  151SAPE   C3816704   6.040   4.038   5.932 -0.2082 -0.1748  0.6300
  151SAPE   H8X16705   6.053   3.936   5.974  1.2085  0.1416  0.9925
  151SAPE   H8Y16706   6.142   4.076   5.915  0.8925 -2.3319  1.9731
  151SAPE   C3916707   5.955   4.033   5.805  0.0278 -0.4195 -0.0326
  151SAPE   H9X16708   5.848   4.034   5.834  0.4751  0.0748  1.7510
  151SAPE   H9Y16709   5.980   3.936   5.757  2.1011 -1.0903  2.1780
  151SAPE  C31016710   5.980   4.155   5.716 -0.6086 -0.4851  1.0051
  151SAPE  H10X16711   6.080   4.164   5.669 -0.8182  1.4756  0.8904
  151SAPE  H10Y16712   5.978   4.243   5.783 -0.5183 -0.9898  1.6860
  151SAPE  C31116713   5.870   4.160   5.607  0.2152  0.4790  0.7411
  151SAPE  H11X16714   5.899   4.230   5.525  1.7285  0.7693  1.4841
  151SAPE  H11Y16715   5.774   4.200   5.646  0.5372 -0.5472  2.7123
  151SAPE  C31216716   5.840   4.026   5.536  0.6664 -0.0930  0.7323
  151SAPE  H12X16717   5.800   3.951   5.606  1.2185 -0.0732  1.0686
  151SAPE  H12Y16718   5.935   3.981   5.501 -0.4578 -0.8251 -1.6280
  151SAPE  C31316719   5.736   4.046   5.421 -0.2151  0.5223  0.0704
  151SAPE  H13X16720   5.760   4.134   5.358  0.7749 -1.2790 -2.2125
  151SAPE  H13Y16721   5.641   4.066   5.477 -2.0297 -2.5685 -1.6176
  151SAPE  C31416722   5.713   3.922   5.338  0.1267  0.1663  0.2081
  151SAPE  H14X16723   5.622   3.933   5.276  0.7331  0.5276 -0.6381
  151SAPE  H14Y16724   5.699   3.841   5.413  2.4764 -0.1212  0.4258
  151SAPE  C31516725   5.829   3.889   5.243 -0.3178 -0.3598  0.2225
  151SAPE  H15X16726   5.926   3.871   5.294 -0.4190 -0.8187  0.2578
  151SAPE  H15Y16727   5.840   3.972   5.170 -1.6286 -1.7772 -1.6895
  151SAPE  C31616728   5.797   3.771   5.154 -0.1172  0.7297  0.0168
  151SAPE  H16X16729   5.689   3.761   5.132  0.5107 -1.0952 -2.6949
  151SAPE  H16Y16730   5.810   3.672   5.203 -3.4435 -0.4258 -1.1365
  151SAPE  C31716731   5.860   3.774   5.018 -0.0697 -0.4291  0.3746
  151SAPE  H17X16732   5.962   3.817   5.023  0.4011 -1.5579  0.8807
  151SAPE  H17Y16733   5.797   3.846   4.962  1.3477  1.9913  1.7000
  151SAPE  C31816734   5.851   3.632   4.955 -0.0534  0.1984  0.6600
  151SAPE  H18X16735   5.939   3.573   4.985  0.2143  1.3392  2.2275
  151SAPE  H18Y16736   5.841   3.640   4.844  1.0134  2.6648  0.6575
  151SAPE  H18Z16737   5.759   3.586   4.997 -1.0328  0.8094 -0.7028
  152SAPE     N16738   1.755   4.645   7.050  0.1681 -0.1064 -0.1650
  152SAPE   HN116739   1.795   4.655   6.954  0.3632  1.2910  0.0334
  152SAPE   HN216740   1.830   4.626   7.120 -0.1728 -0.3618  0.1314
  152SAPE   HN316741   1.697   4.559   7.049  0.6119 -0.5515  2.6291
  152SAPE   C1216742   1.670   4.765   7.080  0.5579  0.7144  0.1036
  152SAPE  H12A16743   1.676   4.843   7.002 -0.4791  1.0610  0.3503
  152SAPE  H12B16744   1.701   4.818   7.173  2.6222  1.9978 -1.2369
  152SAPE   C1116745   1.524   4.721   7.098  0.1423 -0.3465  0.0965
  152SAPE  H11A16746   1.518   4.648   7.182  2.2843  0.2835  0.8682
  152SAPE  H11B16747   1.488   4.675   7.004 -0.6789  0.1931  0.1392
  152SAPE     P16748   1.295   4.826   7.189  0.5227  0.1558  0.3790
  152SAPE   O1316749   1.228   4.696   7.153  0.2186  0.1083  0.1090
  152SAPE   O1416750   1.297   4.876   7.329  0.8792  0.1333  0.0844
  152SAPE   O1216751   1.444   4.837   7.133 -0.1187  0.1617 -0.8216
  152SAPE   O1116752   1.220   4.930   7.094  0.3858  0.0139  0.3468
  152SAPE    C116753   1.271   5.050   7.041 -0.2290  0.4699  0.7188
  152SAPE    HA16754   1.211   5.138   7.073 -1.3643 -0.3027  0.8064
  152SAPE    HB16755   1.377   5.060   7.073 -0.4063  1.9792  0.8985
  152SAPE    C216756   1.272   5.038   6.884  0.0533  0.3206 -0.1913
  152SAPE    HS16757   1.317   5.133   6.848 -0.8669  1.2227  0.9453
  152SAPE   O2116758   1.143   5.022   6.829 -0.2866  0.0080 -0.1983
  152SAPE   C2116759   1.065   5.132   6.831 -0.5424 -0.4502  0.0229
  152SAPE   O2216760   1.098   5.241   6.874 -0.0634 -0.0196 -0.2896
  152SAPE   C2216761   0.933   5.098   6.758 -0.1474 -0.7942 -0.6940
  152SAPE   H2R16762   0.906   5.007   6.816  2.6761 -0.6215  1.1137
  152SAPE   H2S16763   0.856   5.176   6.773  0.4312 -0.3573  0.0860
  152SAPE    C316764   1.360   4.925   6.839 -0.0608  0.4028  0.3374
  152SAPE    HX16765   1.323   4.827   6.877  0.3785  0.8114  1.8856
  152SAPE    HY16766   1.464   4.949   6.871  1.0595 -3.6891  0.4288
  152SAPE   O3116767   1.368   4.916   6.695 -0.5824 -0.3672 -0.4309
  152SAPE   C3116768   1.384   4.798   6.643  0.3064  0.1106 -0.5264
  152SAPE   O3216769   1.384   4.689   6.700  0.1183 -0.3784 -0.3248
  152SAPE   C3216770   1.391   4.826   6.493  0.4937 -0.6412 -0.0516
  152SAPE   H2X16771   1.481   4.886   6.467 -1.1292  1.5831 -0.8428
  152SAPE   H2Y16772   1.293   4.869   6.465 -0.6809 -1.5820  2.3101
  152SAPE   C2316773   0.962   5.071   6.608  0.2504 -0.0127  0.1181
  152SAPE   H3R16774   0.895   5.002   6.553 -0.1116 -1.8913  2.7467
  152SAPE   H3S16775   1.056   5.011   6.613 -0.1661 -0.8649 -1.4136
  152SAPE   C2416776   0.993   5.204   6.536  0.9129  0.4828  0.3421
  152SAPE   H4R16777   1.043   5.171   6.442  0.3359  0.8248 -0.0899
  152SAPE   H4S16778   1.076   5.238   6.601  0.2534  0.9686  0.9410
  152SAPE   C2516779   0.865   5.289   6.513  0.5855 -0.0383  0.6070
  152SAPE   H5R16780   0.832   5.346   6.601 -0.8921  0.3453 -0.1612
  152SAPE   C2616781   0.816   5.327   6.392 -0.3809 -0.2755 -0.0670
  152SAPE   H6R16782   0.726   5.390   6.396 -0.2307 -0.0973  3.0265
  152SAPE   C2716783   0.860   5.261   6.259 -0.2623  0.3845 -0.2912
  152SAPE   H7R16784   0.825   5.155   6.263  1.3190 -0.3078 -2.6989
  152SAPE   H7S16785   0.970   5.245   6.259 -0.2736  0.1593 -1.7782
  152SAPE   C2816786   0.830   5.342   6.138 -0.0665 -0.1719  0.4109
  152SAPE   H8R16787   0.862   5.447   6.142 -0.6420  0.0359 -0.1635
  152SAPE   C2916788   0.771   5.298   6.023 -0.0565 -0.1493  0.5018
  152SAPE   H9R16789   0.738   5.379   5.956 -2.1858  0.5841  2.3213
  152SAPE  C21016790   0.721   5.168   5.995 -0.5098  0.0558  0.3899
  152SAPE  H10R16791   0.702   5.117   6.092 -0.3276 -2.0193 -0.6090
  152SAPE  H10S16792   0.791   5.113   5.929 -0.4765  1.4101 -0.7383
  152SAPE  C21116793   0.583   5.174   5.925  0.3887  0.5585 -0.2163
  152SAPE  H11R16794   0.522   5.259   5.959  1.9218  1.2757  0.9210
  152SAPE  C21216795   0.527   5.087   5.841  0.4216  0.4712  0.3459
  152SAPE  H12R16796   0.429   5.112   5.800  1.0562  0.2456 -1.3958
  152SAPE  C21316797   0.596   4.959   5.800  0.1940  0.3450 -0.2867
  152SAPE  H13R16798   0.642   4.905   5.885  1.6869  0.8983 -0.7173
  152SAPE  H13S16799   0.672   4.977   5.720  0.3691 -0.6270 -0.3594
  152SAPE  C21416800   0.499   4.863   5.739 -0.3171  0.0910  0.2943
  152SAPE  H14R16801   0.460   4.792   5.814 -0.2919  0.6343  0.8317
  152SAPE  C21516802   0.456   4.861   5.612  0.4740 -0.2939  0.0877
  152SAPE  H15R16803   0.378   4.789   5.585  1.5507 -1.2007 -0.6853
  152SAPE  C21616804   0.491   4.962   5.507 -0.7420  0.3434  0.0615
  152SAPE  H16R16805   0.514   5.059   5.556 -1.0766  1.4033 -1.7936
  152SAPE  H16S16806   0.406   4.969   5.437 -1.5855 -0.4168  0.9730
  152SAPE  C21716807   0.606   4.901   5.433 -0.0216 -0.5117  0.5605
  152SAPE  H17R16808   0.570   4.809   5.383 -0.2591  0.2000 -0.6141
  152SAPE  H17S16809   0.697   4.895   5.496  0.0445 -0.6558  0.4521
  152SAPE  C21816810   0.641   4.985   5.313  0.0447 -0.2586 -0.2989
  152SAPE  H18R16811   0.679   5.086   5.338  1.1992 -1.0896  1.5679
  152SAPE  H18S16812   0.555   4.999   5.244  0.2044  0.1015 -0.4303
  152SAPE  C21916813   0.747   4.924   5.217  0.9718  0.2557 -0.3050
  152SAPE  H19R16814   0.837   4.891   5.272  0.8236 -2.4630 -1.5699
  152SAPE  H19S16815   0.774   5.008   5.148  1.4364  0.1906 -0.2093
  152SAPE  C22016816   0.699   4.799   5.142  0.6192  0.1258 -0.3403
  152SAPE  H20R16817   0.602   4.810   5.089  1.4328  0.4165 -1.8216
  152SAPE  H20S16818   0.695   4.712   5.211  1.7751 -0.4575 -0.9861
  152SAPE  H20T16819   0.775   4.780   5.064  0.6905  0.3356 -0.3217
  152SAPE   C3316820   1.412   4.705   6.398 -0.0749  0.1623 -0.5913
  152SAPE   H3X16821   1.332   4.632   6.424 -0.2093  0.4928 -0.0743
  152SAPE   H3Y16822   1.509   4.651   6.388 -0.3892 -0.5578  0.1399
  152SAPE   C3416823   1.384   4.743   6.256 -0.6097  0.3130 -0.5267
  152SAPE   H4X16824   1.473   4.801   6.224  0.2106 -0.7495 -0.2275
  152SAPE   H4Y16825   1.301   4.815   6.247 -0.9804 -0.1708 -1.0282
  152SAPE   C3516826   1.352   4.619   6.174  0.0778  0.0566 -0.2487
  152SAPE   H5X16827   1.264   4.564   6.212  1.9353 -2.1877  1.0487
  152SAPE   H5Y16828   1.445   4.558   6.175 -0.7016 -1.2065 -1.4170
  152SAPE   C3616829   1.334   4.642   6.026 -0.4430  0.1147  0.1569
  152SAPE   H6X16830   1.415   4.702   5.980 -2.2605  1.2592 -1.7463
  152SAPE   H6Y16831   1.242   4.703   6.010 -1.8449 -2.2757 -1.3692
  152SAPE   C3716832   1.320   4.510   5.933 -0.1626  0.5809 -0.2186
  152SAPE   H7X16833   1.212   4.483   5.937  0.1765 -0.8112  0.2437
  152SAPE   H7Y16834   1.377   4.426   5.978 -0.1102 -0.6847 -2.5096
  152SAPE   C3816835   1.377   4.514   5.788 -0.1971  0.2852  0.5861
  152SAPE   H8X16836   1.485   4.490   5.791 -0.0813  0.8639  1.9471
  152SAPE   H8Y16837   1.364   4.616   5.747 -0.8237 -0.6470 -1.6814
  152SAPE   C3916838   1.320   4.411   5.696 -0.6863  0.2883  0.4180
  152SAPE   H9X16839   1.220   4.450   5.666 -0.6882  0.7945  1.0682
  152SAPE   H9Y16840   1.324   4.310   5.741 -1.1216 -0.8321 -1.8932
  152SAPE  C31016841   1.394   4.403   5.555 -0.4345 -0.5084  0.4428
  152SAPE  H10X16842   1.504   4.408   5.570 -0.7396  2.0784  2.6577
  152SAPE  H10Y16843   1.381   4.498   5.500 -3.3750 -0.4476  1.0783
  152SAPE  C31116844   1.344   4.288   5.462 -0.0288 -0.7006 -0.1522
  152SAPE  H11X16845   1.236   4.299   5.438  0.0893  1.0290 -0.0269
  152SAPE  H11Y16846   1.367   4.193   5.516  2.3841 -0.6638 -0.9920
  152SAPE  C31216847   1.419   4.279   5.331  0.3773  0.4126 -0.0394
  152SAPE  H12X16848   1.524   4.248   5.352  0.2021  0.3673  0.7873
  152SAPE  H12Y16849   1.417   4.377   5.278 -1.5943  0.0843 -0.6641
  152SAPE  C31316850   1.369   4.168   5.230 -0.8797  0.3226 -0.0595
  152SAPE  H13X16851   1.264   4.186   5.198 -0.3723  0.4988 -1.7013
  152SAPE  H13Y16852   1.381   4.067   5.276  1.5337  1.6841  2.5627
  152SAPE  C31416853   1.457   4.168   5.100 -0.4655  0.0889  0.0120
  152SAPE  H14X16854   1.556   4.124   5.124 -0.3209 -0.2110 -1.0983
  152SAPE  H14Y16855   1.472   4.271   5.063 -0.9509 -0.0022 -0.4543
  152SAPE  C31516856   1.385   4.085   4.992 -0.2912  0.5557  0.1337
  152SAPE  H15X16857   1.453   4.097   4.905  0.1037  1.7057  0.5905
  152SAPE  H15Y16858   1.288   4.132   4.968 -1.0308 -1.3342 -0.8508
  152SAPE  C31616859   1.378   3.939   5.026 -0.5741  0.0736  0.6478
  152SAPE  H16X16860   1.297   3.930   5.102  1.5169 -1.4212  2.8102
  152SAPE  H16Y16861   1.471   3.905   5.075 -1.6895 -2.3889  1.2364
  152SAPE  C31716862   1.370   3.838   4.907 -0.3817 -0.2937  0.2361
  152SAPE  H17X16863   1.464   3.847   4.847 -0.1992  0.8815  0.6709
  152SAPE  H17Y16864   1.285   3.852   4.838 -0.7900  0.2587  0.8419
  152SAPE  C31816865   1.364   3.693   4.956  0.1635  0.5775  0.4205
  152SAPE  H18X16866   1.345   3.622   4.872 -0.3906  0.1406  0.9074
  152SAPE  H18Y16867   1.279   3.675   5.025  0.2874 -0.5457  0.3002
  152SAPE  H18Z16868   1.457   3.675   5.014 -0.0684 -0.5071  0.4614
  153SAPE     N16869   1.011   4.635   6.978  0.0233  0.6024 -0.0465
  153SAPE   HN116870   1.042   4.615   6.880 -1.2762 -1.7889 -0.0369
  153SAPE   HN216871   1.086   4.640   7.049 -0.7487  0.9230  0.7571
  153SAPE   HN316872   0.954   4.551   6.998  0.4650  0.0370 -1.0629
  153SAPE   C1216873   0.909   4.749   6.985 -0.8585 -0.0086  0.2393
  153SAPE  H12A16874   0.864   4.764   6.884  1.4929  1.6822 -0.6571
  153SAPE  H12B16875   0.969   4.840   7.007 -0.7829  0.1692 -0.6365
  153SAPE   C1116876   0.807   4.730   7.098 -0.2034  0.1268  0.6888
  153SAPE  H11A16877   0.756   4.824   7.127  0.2544  0.2024  1.2651
  153SAPE  H11B16878   0.853   4.698   7.194  0.4606  0.6841  0.5702
  153SAPE     P16879   0.553   4.659   7.024 -0.2428  0.2216  0.0152
  153SAPE   O1316880   0.498   4.530   7.057  0.4350 -0.1365  0.6322
  153SAPE   O1416881   0.510   4.774   7.109  0.3918  0.6383  0.2949
  153SAPE   O1216882   0.711   4.634   7.050  0.0945 -0.0336  0.1165
  153SAPE   O1116883   0.540   4.696   6.868  0.4349  0.0555  0.2605
  153SAPE    C116884   0.652   4.668   6.775  0.3620  0.1898 -0.2564
  153SAPE    HA16885   0.707   4.764   6.764  1.5553 -0.4253  0.1397
  153SAPE    HB16886   0.726   4.592   6.809  0.2400 -0.4034 -1.2705
  153SAPE    C216887   0.596   4.628   6.634  0.1351 -0.0721  0.4493
  153SAPE    HS16888   0.690   4.605   6.579  0.3947  0.9611  0.4395
  153SAPE   O2116889   0.526   4.748   6.579 -0.4946  0.0054  0.5119
  153SAPE   C2116890   0.603   4.822   6.502  0.1850 -0.1412 -0.7076
  153SAPE   O2216891   0.723   4.820   6.499 -0.3834 -0.1800 -0.3700
  153SAPE   C2216892   0.512   4.918   6.425 -0.0835  0.2286  0.7063
  153SAPE   H2R16893   0.443   4.850   6.370  2.0054 -1.6449  0.2343
  153SAPE   H2S16894   0.455   4.972   6.504 -0.6810  1.5054 -0.5603
  153SAPE    C316895   0.504   4.500   6.638  0.1385  0.1164 -0.1209
  153SAPE    HX16896   0.410   4.548   6.673 -0.1538 -1.5036  1.4395
  153SAPE    HY16897   0.531   4.431   6.721 -1.8068  0.3675  0.7827
  153SAPE   O3116898   0.482   4.442   6.509 -0.0166  0.6269  0.0280
  153SAPE   C3116899   0.568   4.347   6.491  0.0643  0.3728  0.9184
  153SAPE   O3216900   0.655   4.316   6.569  0.0580 -0.6195 -0.0117
  153SAPE   C3216901   0.537   4.282   6.359  0.3065 -0.4156 -0.5092
  153SAPE   H2X16902   0.576   4.349   6.279  1.1456 -2.1561 -1.6359
  153SAPE   H2Y16903   0.427   4.274   6.351 -0.2194  3.2938  0.9618
  153SAPE   C2316904   0.591   5.020   6.341  0.2114 -0.7702  0.1656
  153SAPE   H3R16905   0.636   4.969   6.253  0.3472  0.7358 -0.6637
  153SAPE   H3S16906   0.663   5.067   6.411 -0.3767 -0.9178  0.8839
  153SAPE   C2416907   0.501   5.133   6.291  0.5264 -0.1236 -0.0302
  153SAPE   H4R16908   0.431   5.088   6.219  1.9059 -1.9366 -0.3289
  153SAPE   H4S16909   0.567   5.211   6.247  3.2092 -1.2799  1.6174
  153SAPE   C2516910   0.427   5.196   6.405 -0.5546  1.1057 -0.8796
  153SAPE   H5R16911   0.492   5.206   6.494  2.2526 -0.7512 -2.5214
  153SAPE   C2616912   0.304   5.234   6.411  0.1805 -0.4209  0.4323
  153SAPE   H6R16913   0.268   5.277   6.506 -0.3161  2.2881 -0.8575
  153SAPE   C2716914   0.200   5.237   6.300  0.3429  0.3387 -0.0628
  153SAPE   H7R16915   0.246   5.245   6.200  1.0949 -0.5938  0.1860
  153SAPE   H7S16916   0.129   5.322   6.303  0.4968  0.4505  0.7251
  153SAPE   C2816917   0.121   5.108   6.304  0.4191  0.0977 -0.4201
  153SAPE   H8R16918   0.122   5.069   6.406 -0.9862  0.0724 -0.3989
  153SAPE   C2916919   0.053   5.035   6.209 -0.3594  0.4268  0.2723
  153SAPE   H9R16920   0.010   4.937   6.234 -2.7124  1.5618  0.9647
  153SAPE  C21016921   0.047   5.068   6.061  0.8950 -0.3066  0.1911
  153SAPE  H10R16922   0.061   5.178   6.051  1.2801 -0.4900 -1.5857
  153SAPE  H10S16923  -0.053   5.043   6.022  0.8374 -1.8173  1.2402
  153SAPE  C21116924   0.147   4.982   5.986 -0.7131 -0.1985 -0.1355
  153SAPE  H11R16925   0.209   4.916   6.049 -1.5697 -0.5741  0.3382
  153SAPE  C21216926   0.182   4.999   5.854  0.0060  0.5049 -0.2421
  153SAPE  H12R16927   0.272   4.950   5.816  1.3070  1.2114  1.7355
  153SAPE  C21316928   0.110   5.093   5.758 -0.8299  0.2453  0.3769
  153SAPE  H13R16929   0.180   5.106   5.673  0.5292  3.2440  1.8015
  153SAPE  H13S16930   0.093   5.190   5.809  2.7237  0.9259  0.5051
  153SAPE  C21416931  -0.028   5.044   5.723 -0.6695  1.1538 -0.2389
  153SAPE  H14R16932  -0.076   4.985   5.802  1.8529 -1.4534 -0.5107
  153SAPE  C21516933  -0.107   5.073   5.623  0.0034  0.1989  0.3664
  153SAPE  H15R16934  -0.213   5.050   5.635 -0.5577  2.5609  0.4719
  153SAPE  C21616935  -0.068   5.146   5.490  0.4599  0.6210  0.0353
  153SAPE  H16R16936  -0.079   5.063   5.417  1.5577 -0.4465  1.0406
  153SAPE  H16S16937   0.040   5.171   5.484  1.1184 -1.5040  1.7330
  153SAPE  C21716938  -0.143   5.267   5.436 -0.5465  0.2313 -0.2559
  153SAPE  H17R16939  -0.100   5.316   5.347  0.4414  1.2301  0.7330
  153SAPE  H17S16940  -0.143   5.343   5.517  0.1195  1.0839 -1.0305
  153SAPE  C21816941  -0.283   5.217   5.400  0.3512  0.0363  0.8297
  153SAPE  H18R16942  -0.341   5.184   5.489 -2.2774  1.5949 -0.1978
  153SAPE  H18S16943  -0.284   5.133   5.328 -0.0086  0.6227  0.1463
  153SAPE  C21916944  -0.365   5.336   5.338 -0.6666  0.0467  0.2636
  153SAPE  H19R16945  -0.324   5.362   5.239 -1.6366 -0.0264 -0.1734
  153SAPE  H19S16946  -0.345   5.428   5.397 -1.5532  1.7496 -1.9627
  153SAPE  C22016947  -0.511   5.311   5.306  0.5134 -0.0611 -0.1670
  153SAPE  H20R16948  -0.572   5.294   5.397 -0.6078  1.0626 -0.6733
  153SAPE  H20S16949  -0.509   5.225   5.235 -2.2535 -0.8900  0.6359
  153SAPE  H20T16950  -0.565   5.398   5.261 -1.5596 -1.9018 -1.4849
  153SAPE   C3316951   0.593   4.137   6.350  1.1569  0.8330  1.4058
  153SAPE   H3X16952   0.525   4.068   6.405  1.9747  0.1603  1.6005
  153SAPE   H3Y16953   0.690   4.136   6.404  2.6967  1.9500 -1.1358
  153SAPE   C3416954   0.629   4.089   6.201  0.5926 -0.2428  0.1495
  153SAPE   H4X16955   0.647   3.979   6.197  1.7486 -0.0890 -4.1426
  153SAPE   H4Y16956   0.726   4.136   6.175  1.0231 -0.1831  1.7437
  153SAPE   C3516957   0.529   4.110   6.090  0.4019 -0.8491 -0.4951
  153SAPE   H5X16958   0.492   4.214   6.099  0.1665 -0.9939  0.3518
  153SAPE   H5Y16959   0.445   4.039   6.104 -0.4304  0.3371  0.7811
  153SAPE   C3616960   0.586   4.089   5.947  0.0483  0.5153  0.9456
  153SAPE   H6X16961   0.650   3.999   5.946  0.4904  0.8143 -0.5589
  153SAPE   H6Y16962   0.641   4.183   5.922 -1.2023  1.5772  1.9998
  153SAPE   C3716963   0.469   4.071   5.834 -0.3916  0.1577 -0.1288
  153SAPE   H7X16964   0.410   4.163   5.818 -1.3294 -0.6032 -1.1795
  153SAPE   H7Y16965   0.406   3.982   5.854  0.7327 -0.6014  0.1616
  153SAPE   C3816966   0.532   4.035   5.691  0.6024 -0.2599 -0.2941
  153SAPE   H8X16967   0.560   3.927   5.692  0.3603 -0.3380  1.3570
  153SAPE   H8Y16968   0.623   4.096   5.674 -0.5139  0.7436 -3.4525
  153SAPE   C3916969   0.433   4.050   5.573  0.2702  0.0218  0.3683
  153SAPE   H9X16970   0.403   4.153   5.547  1.5339  0.3513  0.1246
  153SAPE   H9Y16971   0.338   4.004   5.605 -1.4039  3.3662  0.6080
  153SAPE  C31016972   0.477   3.980   5.447 -0.3551  0.0455 -0.4043
  153SAPE  H10X16973   0.529   3.886   5.475  2.3871  1.9532  1.4481
  153SAPE  H10Y16974   0.555   4.039   5.393 -0.7157 -1.0098 -2.1712
  153SAPE  C31116975   0.365   3.954   5.350 -0.1986 -0.2905  0.1040
  153SAPE  H11X16976   0.317   4.054   5.338 -0.0808 -0.4321 -1.9509
  153SAPE  H11Y16977   0.301   3.883   5.406  0.3918  0.1562  1.3817
  153SAPE  C31216978   0.427   3.904   5.215  1.1125  0.0903  0.6286
  153SAPE  H12X16979   0.491   3.815   5.232  1.0760  0.1505  1.0728
  153SAPE  H12Y16980   0.490   3.980   5.166  0.9775 -0.0036  0.3035
  153SAPE  C31316981   0.313   3.870   5.118 -0.5354 -0.4269  0.3516
  153SAPE  H13X16982   0.255   3.963   5.102 -0.9161 -1.1864 -3.9713
  153SAPE  H13Y16983   0.257   3.800   5.185 -1.0504  0.1520  0.5350
  153SAPE  C31416984   0.369   3.820   4.987  0.6399  0.3652  0.5586
  153SAPE  H14X16985   0.442   3.741   5.012  1.5335  0.6727 -0.9657
  153SAPE  H14Y16986   0.408   3.895   4.915  0.7741 -0.5263 -0.3222
  153SAPE  C31516987   0.247   3.764   4.902  0.5805 -0.0147 -0.0085
  153SAPE  H15X16988   0.186   3.852   4.876  0.8376 -0.0836 -0.8899
  153SAPE  H15Y16989   0.187   3.691   4.961 -1.5641  1.0075 -0.8546
  153SAPE  C31616990   0.294   3.690   4.779  0.9101 -0.1478  0.3766
  153SAPE  H16X16991   0.376   3.744   4.728  1.4608 -1.4191 -0.1385
  153SAPE  H16Y16992   0.209   3.672   4.710 -0.3376  2.0105  1.2437
  153SAPE  C31716993   0.342   3.551   4.818 -0.1632 -0.1185  0.4093
  153SAPE  H17X16994   0.254   3.493   4.854 -0.1248  0.6370  1.7718
  153SAPE  H17Y16995   0.414   3.559   4.902  0.0700 -1.6388  0.3964
  153SAPE  C31816996   0.411   3.479   4.695  0.0452  0.5521 -0.0600
  153SAPE  H18X16997   0.493   3.410   4.721 -0.0507  0.7562  0.8135
  153SAPE  H18Y16998   0.461   3.561   4.638 -1.1272  0.6740 -0.9500
  153SAPE  H18Z16999   0.334   3.427   4.635  0.1978 -0.8851  0.9591
  154SAPE     N17000   5.106   3.811   7.199  0.6769  0.6159  0.0581
  154SAPE   HN117001   5.048   3.898   7.193 -0.3568 -0.1388 -2.6855
  154SAPE   HN217002   5.051   3.724   7.209 -0.8829  1.1047 -2.8987
  154SAPE   HN317003   5.187   3.823   7.262  0.8773  0.1721 -0.1113
  154SAPE   C1217004   5.155   3.780   7.060  0.6042  0.0696 -0.1945
  154SAPE  H12A17005   5.226   3.862   7.037 -1.3972  2.2112  0.8333
  154SAPE  H12B17006   5.061   3.780   7.002  0.2772 -0.7029  0.3170
  154SAPE   C1117007   5.217   3.637   7.042  0.2771  0.0523 -0.4761
  154SAPE  H11A17008   5.217   3.638   6.931  2.2469 -0.3944 -0.5269
  154SAPE  H11B17009   5.151   3.558   7.082  0.7055  0.5184  1.2332
  154SAPE     P17010   5.481   3.639   6.999  0.3232  0.0096 -0.3714
  154SAPE   O1317011   5.524   3.781   7.008  0.3536  0.6255 -0.4859
  154SAPE   O1417012   5.579   3.543   7.047 -0.3208 -0.6478  0.1639
  154SAPE   O1217013   5.350   3.620   7.094  0.2199  0.1741  0.6379
  154SAPE   O1117014   5.441   3.614   6.845  0.0032  0.4354  0.7866
  154SAPE    C117015   5.396   3.483   6.805 -0.5646  0.5453 -0.3684
  154SAPE    HA17016   5.427   3.400   6.872 -0.9376  0.5225 -0.2165
  154SAPE    HB17017   5.285   3.470   6.804 -0.2054 -5.1005  0.3585
  154SAPE    C217018   5.450   3.446   6.668  0.3335  0.1873  0.0573
  154SAPE    HS17019   5.555   3.414   6.687  0.0586 -0.5016  0.4451
  154SAPE   O2117020   5.443   3.565   6.589  0.3830  0.4087  0.1206
  154SAPE   C2117021   5.564   3.602   6.538  0.3810  0.7630  0.2674
  154SAPE   O2217022   5.667   3.539   6.545 -0.3928 -0.3737 -0.3939
  154SAPE   C2217023   5.538   3.727   6.468  0.2129 -0.7010 -0.3564
  154SAPE   H2R17024   5.438   3.731   6.421  1.1987 -0.1339 -2.5918
  154SAPE   H2S17025   5.535   3.799   6.553 -1.0680 -0.4243 -0.6214
  154SAPE    C317026   5.360   3.335   6.599  0.0394 -0.4105  0.3833
  154SAPE    HX17027   5.264   3.387   6.578 -0.4208 -0.8276  1.3749
  154SAPE    HY17028   5.333   3.258   6.675 -1.1213  0.8211  1.2807
  154SAPE   O3117029   5.416   3.297   6.475  0.4217  0.0831 -0.0503
  154SAPE   C3117030   5.516   3.214   6.488  0.1430  0.4611  0.1344
  154SAPE   O3217031   5.561   3.175   6.593  0.2910  0.5198 -0.0884
  154SAPE   C3217032   5.570   3.165   6.354  0.1996  0.3795 -0.1893
  154SAPE   H2X17033   5.490   3.134   6.283  0.1828 -0.9237  0.3729
  154SAPE   H2Y17034   5.627   3.071   6.365 -0.3231  0.1058  0.2240
  154SAPE   C2317035   5.654   3.774   6.378  0.1594 -0.4608  0.6065
  154SAPE   H3R17036   5.755   3.767   6.425 -0.1896  1.2700  1.6925
  154SAPE   H3S17037   5.631   3.880   6.356 -2.2316 -0.9155  0.6794
  154SAPE   C2417038   5.662   3.696   6.244 -0.0920 -0.9498 -0.1783
  154SAPE   H4R17039   5.681   3.588   6.265 -0.1718 -1.2562 -1.6195
  154SAPE   H4S17040   5.748   3.735   6.185 -1.1039  0.7141 -0.5979
  154SAPE   C2517041   5.535   3.714   6.168  0.5695  0.3520 -0.1403
  154SAPE   H5R17042   5.447   3.661   6.208  1.0234 -3.0812 -3.1826
  154SAPE   C2617043   5.515   3.773   6.050 -0.3741 -0.8762  0.8504
  154SAPE   H6R17044   5.415   3.781   6.005 -0.5266 -0.3704  1.2718
  154SAPE   C2717045   5.629   3.840   5.965 -0.0861 -0.0761 -0.0233
  154SAPE   H7R17046   5.710   3.763   5.968 -0.4888 -0.4784  0.6520
  154SAPE   H7S17047   5.659   3.932   6.020 -2.1766 -0.6154  2.1971
  154SAPE   C2817048   5.598   3.877   5.818 -0.0254  0.9729 -0.1306
  154SAPE   H8R17049   5.595   3.986   5.810 -0.1358  1.1462  1.7089
  154SAPE   C2917050   5.561   3.792   5.720 -0.1215 -0.1687 -0.0314
  154SAPE   H9R17051   5.548   3.819   5.614  1.7236 -2.6883 -1.0294
  154SAPE  C21017052   5.544   3.644   5.733  0.2523 -0.3738  0.1869
  154SAPE  H10R17053   5.551   3.613   5.839  0.0676 -0.1920  0.2512
  154SAPE  H10S17054   5.621   3.585   5.678 -1.3011 -3.5769  1.1477
  154SAPE  C21117055   5.407   3.605   5.683 -0.7838 -0.5639 -0.3057
  154SAPE  H11R17056   5.334   3.588   5.763 -1.8823  2.1005 -0.6430
  154SAPE  C21217057   5.368   3.588   5.557 -0.3542  0.5828  0.0704
  154SAPE  H12R17058   5.261   3.565   5.543 -0.0702 -1.1741  0.5952
  154SAPE  C21317059   5.460   3.591   5.436  0.3383 -0.5459 -0.3784
  154SAPE  H13R17060   5.449   3.489   5.394  2.8165 -0.3513 -1.6674
  154SAPE  H13S17061   5.568   3.600   5.459  0.2170  0.0625 -0.0231
  154SAPE  C21417062   5.421   3.708   5.351 -0.2881 -0.6101 -0.4371
  154SAPE  H14R17063   5.433   3.802   5.407 -0.4653 -2.1349  2.3697
  154SAPE  C21517064   5.388   3.710   5.219  0.0546  0.2074  0.0535
  154SAPE  H15R17065   5.334   3.798   5.181 -0.5583 -0.0751  0.2574
  154SAPE  C21617066   5.384   3.582   5.140 -0.4707 -0.2841 -0.2051
  154SAPE  H16R17067   5.293   3.521   5.159 -0.2212 -0.2533  1.2121
  154SAPE  H16S17068   5.471   3.516   5.158 -1.1549 -0.4657  3.1040
  154SAPE  C21717069   5.378   3.628   4.993 -0.6892  0.1860 -0.3501
  154SAPE  H17R17070   5.419   3.545   4.932 -1.5783  0.6728 -1.6529
  154SAPE  H17S17071   5.445   3.714   4.973  1.1180 -0.9232  0.6546
  154SAPE  C21817072   5.242   3.665   4.934  0.3296  0.3103  0.1108
  154SAPE  H18R17073   5.193   3.749   4.989  0.3169  1.4434 -1.5715
  154SAPE  H18S17074   5.189   3.572   4.965 -2.1746  1.7211  0.2962
  154SAPE  C21917075   5.243   3.678   4.780  0.2356  0.1000 -0.3228
  154SAPE  H19R17076   5.309   3.600   4.737 -0.9566 -1.6208  0.8394
  154SAPE  H19S17077   5.303   3.768   4.754  2.4741 -1.3225 -0.3568
  154SAPE  C22017078   5.103   3.675   4.725  0.1639  0.0825  0.0199
  154SAPE  H20R17079   5.108   3.676   4.614 -2.8821  1.0179 -0.2175
  154SAPE  H20S17080   5.057   3.771   4.756  0.1637 -0.8163  3.1641
  154SAPE  H20T17081   5.042   3.591   4.765  0.7200 -0.5208 -0.3703
  154SAPE   C3317082   5.654   3.280   6.283  0.7579 -0.3580  0.5037
  154SAPE   H3X17083   5.741   3.288   6.352  0.5431 -2.9312  1.1777
  154SAPE   H3Y17084   5.604   3.379   6.276  2.6688  0.5859 -0.6514
  154SAPE   C3417085   5.715   3.235   6.148  0.4872 -0.3580 -0.3917
  154SAPE   H4X17086   5.741   3.127   6.151 -1.5112 -0.8606  0.5940
  154SAPE   H4Y17087   5.807   3.294   6.128  0.7201 -0.4883  0.2730
  154SAPE   C3517088   5.615   3.258   6.030 -0.0083  0.3864 -0.3909
  154SAPE   H5X17089   5.581   3.360   6.057  0.2871 -0.2133  2.6113
  154SAPE   H5Y17090   5.543   3.179   6.061  3.3982 -1.7360  2.9674
  154SAPE   C3617091   5.665   3.247   5.886  0.4410 -0.4564  0.1949
  154SAPE   H6X17092   5.734   3.160   5.876 -0.4070 -1.0733 -0.4886
  154SAPE   H6Y17093   5.727   3.333   5.856  1.1215 -1.6279 -1.9490
  154SAPE   C3717094   5.552   3.237   5.788 -0.5195  0.0415 -0.0715
  154SAPE   H7X17095   5.492   3.330   5.797  0.2802  0.3705  2.7588
  154SAPE   H7Y17096   5.487   3.152   5.815 -0.2404  0.9152  3.9664
  154SAPE   C3817097   5.607   3.213   5.647  0.1607 -0.2256 -0.2037
  154SAPE   H8X17098   5.667   3.120   5.655 -0.6282 -0.6901  0.3913
  154SAPE   H8Y17099   5.673   3.295   5.612 -0.3496 -0.7762 -2.6629
  154SAPE   C3917100   5.499   3.188   5.541 -0.2606 -0.0536 -0.1570
  154SAPE   H9X17101   5.438   3.281   5.538  0.9603  0.7576 -0.7937
  154SAPE   H9Y17102   5.444   3.099   5.577  0.5753 -0.6737 -0.3946
  154SAPE  C31017103   5.549   3.173   5.394  0.2834  0.5435 -0.6407
  154SAPE  H10X17104   5.602   3.075   5.402 -2.8231 -1.1459  1.1668
  154SAPE  H10Y17105   5.614   3.257   5.360  1.2342 -0.1660 -0.6284
  154SAPE  C31117106   5.440   3.145   5.284 -0.3186  0.2317 -0.0380
  154SAPE  H11X17107   5.392   3.242   5.258  0.0243  0.6760  0.9375
  154SAPE  H11Y17108   5.359   3.085   5.331 -0.0909  0.7755  1.1008
  154SAPE  C31217109   5.492   3.083   5.152  0.3883 -0.0739  0.2226
  154SAPE  H12X17110   5.410   3.080   5.077  1.0615  0.1460 -0.5371
  154SAPE  H12Y17111   5.525   2.980   5.177  3.1947  1.1329  2.0047
  154SAPE  C31317112   5.604   3.162   5.087 -0.0248 -0.5350 -0.7807
  154SAPE  H13X17113   5.686   3.194   5.155 -0.4681  2.6546 -1.5925
  154SAPE  H13Y17114   5.563   3.259   5.052  0.9028  0.6602  1.2193
  154SAPE  C31417115   5.672   3.091   4.971  0.2225 -0.3473  0.2135
  154SAPE  H14X17116   5.603   3.029   4.911  2.0849 -0.1420 -2.3172
  154SAPE  H14Y17117   5.752   3.025   5.013  1.5600 -0.1081 -1.7968
  154SAPE  C31517118   5.741   3.187   4.880 -0.3607  0.9040  0.2463
  154SAPE  H15X17119   5.780   3.264   4.950 -1.8720  0.6204  1.4724
  154SAPE  H15Y17120   5.670   3.236   4.811 -1.4532  0.5145  1.0647
  154SAPE  C31617121   5.835   3.114   4.779  0.1985  0.1769  0.1728
  154SAPE  H16X17122   5.769   3.065   4.704  0.5246 -0.5273  0.3408
  154SAPE  H16Y17123   5.896   3.049   4.845  1.7166  1.4663  0.0948
  154SAPE  C31717124   5.921   3.222   4.717 -0.8423 -0.7374  0.1375
  154SAPE  H17X17125   5.982   3.165   4.644  0.0923  0.1374  0.2189
  154SAPE  H17Y17126   5.987   3.250   4.802 -2.0141  0.3210  0.7338
  154SAPE  C31817127   5.850   3.346   4.651 -0.2177  0.9520 -0.0142
  154SAPE  H18X17128   5.777   3.303   4.579  2.4107 -3.0081 -0.6901
  154SAPE  H18Y17129   5.922   3.408   4.593  2.6785 -0.1602  2.1224
  154SAPE  H18Z17130   5.799   3.411   4.725  0.7404  1.3408  0.3247
  155SAPE     N17131   6.686   3.845   7.108 -0.1151 -0.5297 -0.3855
  155SAPE   HN117132   6.627   3.929   7.125 -1.3644 -1.5951  0.8746
  155SAPE   HN217133   6.618   3.769   7.129  0.3051  0.0666  4.1513
  155SAPE   HN317134   6.761   3.832   7.178  0.6676  0.3907 -1.0293
  155SAPE   C1217135   6.747   3.843   6.969 -0.1570  0.8936  0.9229
  155SAPE  H12A17136   6.759   3.948   6.935 -0.5484  0.6681  0.0609
  155SAPE  H12B17137   6.676   3.789   6.902 -0.6016  1.8493  0.6094
  155SAPE   C1117138   6.879   3.760   6.981  0.3009 -0.6260 -0.3656
  155SAPE  H11A17139   6.910   3.743   6.876 -1.2909 -0.0999 -0.9489
  155SAPE  H11B17140   6.859   3.662   7.030  1.2873 -0.2112  0.9461
  155SAPE     P17141   7.024   3.826   7.185 -0.2948  0.0980 -0.5581
  155SAPE   O1317142   7.150   3.910   7.191  0.1733  0.2986  0.2483
  155SAPE   O1417143   6.911   3.864   7.273  0.2704  0.6183  0.2504
  155SAPE   O1217144   6.985   3.838   7.030 -0.3835  0.2454 -0.5188
  155SAPE   O1117145   7.055   3.672   7.204 -0.3807  0.1463 -0.8763
  155SAPE    C117146   7.187   3.618   7.187  0.6063  0.6390  0.1288
  155SAPE    HA17147   7.263   3.698   7.180  0.7650  0.6290  1.3642
  155SAPE    HB17148   7.212   3.544   7.267 -1.7262  2.0174  2.2905
  155SAPE    C217149   7.208   3.540   7.047 -0.0915 -0.5953 -0.0297
  155SAPE    HS17150   7.315   3.516   7.030 -0.2940  0.3589 -3.3176
  155SAPE   O2117151   7.160   3.621   6.943 -0.5588 -0.1707 -0.4188
  155SAPE   C2117152   7.236   3.712   6.900 -0.6341  0.0940 -0.6086
  155SAPE   O2217153   7.353   3.731   6.940  0.5172  1.1650 -0.3898
  155SAPE   C2217154   7.175   3.794   6.784  0.0643 -0.2468  0.2879
  155SAPE   H2R17155   7.226   3.750   6.695  0.4310  2.4882 -0.9471
  155SAPE   H2S17156   7.065   3.775   6.776  0.0275  0.5847 -1.6610
  155SAPE    C317157   7.128   3.405   7.042  0.5813 -0.1855 -0.3687
  155SAPE    HX17158   7.025   3.433   7.072  0.7924 -0.1481  0.3320
  155SAPE    HY17159   7.156   3.342   7.129  2.9407  0.4044 -0.6231
  155SAPE   O3117160   7.136   3.339   6.907 -0.2038 -0.2765 -0.5798
  155SAPE   C3117161   7.022   3.336   6.844 -0.0172  0.4419 -0.3194
  155SAPE   O3217162   6.912   3.350   6.898  0.3483 -0.3629 -0.1880
  155SAPE   C3217163   7.045   3.316   6.698 -0.7164  0.2480  0.3208
  155SAPE   H2X17164   6.967   3.251   6.652 -0.9353 -0.8484  2.1722
  155SAPE   H2Y17165   7.136   3.255   6.678 -1.3233 -0.4293 -0.4369
  155SAPE   C2317166   7.211   3.942   6.798 -0.1613 -0.8364  0.0719
  155SAPE   H3R17167   7.319   3.953   6.773  0.1609 -1.3179  1.1460
  155SAPE   H3S17168   7.197   3.969   6.905 -1.9247 -0.5496 -0.1974
  155SAPE   C2417169   7.153   4.035   6.699  0.0854 -0.8732  0.2430
  155SAPE   H4R17170   7.156   3.983   6.601  0.0999  0.7422 -0.6488
  155SAPE   H4S17171   7.210   4.129   6.683 -1.2433  0.0295  0.6386
  155SAPE   C2517172   7.009   4.068   6.732 -0.4681  0.3257  0.1969
  155SAPE   H5R17173   7.001   4.150   6.805 -0.9110 -0.9758  1.6608
  155SAPE   C2617174   6.895   4.023   6.675  0.0072 -1.2160  0.0618
  155SAPE   H6R17175   6.800   4.073   6.699  0.7659  0.4897 -0.3552
  155SAPE   C2717176   6.885   3.925   6.558 -0.0678  0.5070 -0.0673
  155SAPE   H7R17177   6.790   3.869   6.572  0.7802 -0.5969  1.6624
  155SAPE   H7S17178   6.959   3.842   6.557 -1.5504 -0.8541 -0.5651
  155SAPE   C2817179   6.897   4.003   6.430  0.4895  0.1152 -0.2670
  155SAPE   H8R17180   6.846   4.101   6.440 -1.3639 -0.8965  0.7041
  155SAPE   C2917181   6.965   3.977   6.317 -0.3132  0.2665 -0.6172
  155SAPE   H9R17182   6.956   4.044   6.231 -2.0485  0.5013 -0.2809
  155SAPE  C21017183   7.052   3.852   6.284  0.0303  0.3463 -0.0789
  155SAPE  H10R17184   7.102   3.808   6.373 -0.8135 -0.5589 -0.0413
  155SAPE  H10S17185   7.135   3.891   6.220  1.3172 -0.3871  1.0920
  155SAPE  C21117186   6.984   3.736   6.225  0.4171 -0.1250  0.5597
  155SAPE  H11R17187   6.934   3.666   6.293 -0.1212  0.8704  1.2218
  155SAPE  C21217188   6.987   3.709   6.096 -0.2574 -0.1067 -0.0333
  155SAPE  H12R17189   6.950   3.610   6.067 -1.4289  0.4947 -0.6688
  155SAPE  C21317190   7.063   3.785   5.996 -0.1828  0.3864  0.0106
  155SAPE  H13R17191   7.140   3.716   5.954  0.7155  1.8365 -0.8425
  155SAPE  H13S17192   7.108   3.881   6.028 -0.3508  0.4099  0.1708
  155SAPE  C21417193   6.970   3.824   5.883  1.0960 -0.0967 -0.3290
  155SAPE  H14R17194   6.923   3.923   5.886 -0.3477 -0.7612  1.6234
  155SAPE  C21517195   6.934   3.751   5.774 -0.0908  0.2365  0.6421
  155SAPE  H15R17196   6.887   3.817   5.701 -0.3329  0.4785  1.0110
  155SAPE  C21617197   6.959   3.611   5.732 -0.6422 -0.1981  0.3553
  155SAPE  H16R17198   6.875   3.542   5.752 -0.4799 -0.7474 -0.7351
  155SAPE  H16S17199   7.052   3.568   5.775  0.1867 -0.2507 -1.3935
  155SAPE  C21717200   6.994   3.607   5.579  0.2593 -0.5876 -0.2842
  155SAPE  H17R17201   7.030   3.504   5.560  1.1198 -0.3285 -0.0768
  155SAPE  H17S17202   7.084   3.671   5.570 -2.5396  4.0692  0.9222
  155SAPE  C21817203   6.883   3.667   5.482 -0.0696 -0.1802 -0.6193
  155SAPE  H18R17204   6.890   3.777   5.489  1.2807 -0.2388 -0.7239
  155SAPE  H18S17205   6.785   3.634   5.522  1.3970 -1.3255  2.3436
  155SAPE  C21917206   6.899   3.629   5.333  0.2976  0.8400 -0.6627
  155SAPE  H19R17207   7.002   3.655   5.299  0.9322 -1.0644 -0.3093
  155SAPE  H19S17208   6.827   3.690   5.274 -0.3895 -0.1541 -0.8597
  155SAPE  C22017209   6.873   3.482   5.293  0.1527  0.1160 -0.0424
  155SAPE  H20R17210   6.939   3.411   5.346  0.0615 -0.9459 -1.3289
  155SAPE  H20S17211   6.885   3.474   5.183  1.4477 -1.8723  0.2001
  155SAPE  H20T17212   6.772   3.458   5.335  0.2717  1.7935  1.3186
  155SAPE   C3317213   7.057   3.454   6.623  0.2080 -0.4255  0.1347
  155SAPE   H3X17214   7.105   3.524   6.696 -1.3378  1.0870 -0.2289
  155SAPE   H3Y17215   6.954   3.484   6.594  0.3696  0.6941  0.6745
  155SAPE   C3417216   7.134   3.454   6.493  1.2916  0.7673  0.6014
  155SAPE   H4X17217   7.227   3.393   6.507  0.0166 -1.7655 -1.1754
  155SAPE   H4Y17218   7.150   3.561   6.466 -1.6333  1.6889  2.1778
  155SAPE   C3517219   7.058   3.363   6.400  0.4737  0.2464  0.1852
  155SAPE   H5X17220   6.962   3.415   6.383  0.8699  1.6277  1.8797
  155SAPE   H5Y17221   7.036   3.260   6.436 -1.8284 -0.8815 -3.7998
  155SAPE   C3617222   7.135   3.340   6.266  0.0527  0.1702 -0.4925
  155SAPE   H6X17223   7.227   3.286   6.295 -2.3240 -2.0023  4.1916
  155SAPE   H6Y17224   7.159   3.444   6.233  0.1247  0.2542 -0.1778
  155SAPE   C3717225   7.058   3.269   6.158  0.1760  0.3179 -0.4811
  155SAPE   H7X17226   6.962   3.324   6.151  0.6692  1.1239 -1.0717
  155SAPE   H7Y17227   7.021   3.170   6.191  1.5075 -0.0719 -0.0878
  155SAPE   C3817228   7.137   3.265   6.023 -0.1598  0.1071  0.1745
  155SAPE   H8X17229   7.236   3.218   6.038  1.2372  3.0589  0.7445
  155SAPE   H8Y17230   7.158   3.370   5.997  0.1312 -0.2911 -1.2718
  155SAPE   C3917231   7.054   3.188   5.921 -0.4578  0.2806  0.2467
  155SAPE   H9X17232   6.948   3.219   5.919 -0.7268 -0.4944  1.4615
  155SAPE   H9Y17233   7.068   3.083   5.953  0.9635  1.3194  3.4783
  155SAPE  C31017234   7.112   3.203   5.778 -0.2809 -0.3124  0.0046
  155SAPE  H10X17235   7.214   3.163   5.762 -0.3047  0.2416 -1.7560
  155SAPE  H10Y17236   7.103   3.312   5.757  0.3537  0.3073  2.5216
  155SAPE  C31117237   7.009   3.140   5.681 -0.6934 -0.6952 -0.9702
  155SAPE  H11X17238   6.918   3.203   5.692 -0.1847 -0.3222  1.7541
  155SAPE  H11Y17239   6.995   3.034   5.711  1.0940 -0.4822  0.8565
  155SAPE  C31217240   7.067   3.138   5.540  0.4855  0.2891  0.8569
  155SAPE  H12X17241   7.165   3.087   5.537 -0.4331 -1.5028 -1.5585
  155SAPE  H12Y17242   7.074   3.241   5.500  0.4173 -0.1103 -0.1948
  155SAPE  C31317243   6.988   3.055   5.435  1.0105 -0.7197 -0.1519
  155SAPE  H13X17244   6.894   3.113   5.424  1.0762 -0.4872  0.4741
  155SAPE  H13Y17245   6.963   2.951   5.466  1.4595 -0.5036  0.9762
  155SAPE  C31417246   7.055   3.048   5.296 -0.0712 -0.3111 -0.7094
  155SAPE  H14X17247   7.145   2.984   5.307  1.0290  1.4025  0.7837
  155SAPE  H14Y17248   7.090   3.152   5.281  0.2734 -0.3101  0.0760
  155SAPE  C31517249   6.969   2.990   5.182 -0.1460 -0.1846 -0.3597
  155SAPE  H15X17250   7.024   3.008   5.087 -0.4639 -1.9940 -0.9200
  155SAPE  H15Y17251   6.870   3.039   5.172 -1.7419 -2.9915  0.4355
  155SAPE  C31617252   6.947   2.840   5.203  0.5119 -0.1707 -0.2125
  155SAPE  H16X17253   6.908   2.816   5.305  0.6769 -1.8945 -0.5421
  155SAPE  H16Y17254   7.043   2.786   5.209  2.6639  3.3967  0.4087
  155SAPE  C31717255   6.850   2.777   5.105  0.1188 -0.3109  0.8255
  155SAPE  H17X17256   6.746   2.806   5.134 -0.2995  2.4327 -2.6330
  155SAPE  H17Y17257   6.846   2.667   5.116 -1.7662 -0.8930 -3.5528
  155SAPE  C31817258   6.871   2.816   4.957  0.4323  0.3246  0.2948
  155SAPE  H18X17259   6.795   2.764   4.895 -0.3977  0.4980  1.1547
  155SAPE  H18Y17260   6.963   2.770   4.915  0.2267  0.4198 -0.2749
  155SAPE  H18Z17261   6.866   2.923   4.927 -2.6374 -0.2580 -1.7060
  156SAPE     N17262   2.621   3.721   7.012  0.3819 -0.1498  0.1794
  156SAPE   HN117263   2.521   3.715   6.982  0.6904  0.0597 -0.9066
  156SAPE   HN217264   2.671   3.717   6.922  0.1992  0.7575  0.0316
  156SAPE   HN317265   2.643   3.642   7.076 -1.8056 -0.3271  0.8097
  156SAPE   C1217266   2.637   3.860   7.072  0.3742 -1.1111 -0.0360
  156SAPE  H12A17267   2.616   3.928   6.986 -1.2141  0.2342  1.3456
  156SAPE  H12B17268   2.734   3.869   7.124  0.0668 -2.1118  0.7398
  156SAPE   C1117269   2.527   3.886   7.183  0.0717 -0.0931  0.0741
  156SAPE  H11A17270   2.579   3.952   7.256  0.4238  1.5615 -1.5795
  156SAPE  H11B17271   2.511   3.789   7.236  1.9654  0.7871  2.4499
  156SAPE     P17272   2.300   3.905   7.032 -0.0385  0.2801  0.0956
  156SAPE   O1317273   2.348   3.782   6.964 -0.0999  0.0388 -0.3781
  156SAPE   O1417274   2.179   3.891   7.122 -0.4927 -0.1041  0.5676
  156SAPE   O1217275   2.417   3.962   7.123 -0.2234 -0.0698  0.1462
  156SAPE   O1117276   2.279   4.016   6.923 -0.1264 -0.1509  0.1459
  156SAPE    C117277   2.354   4.135   6.897 -0.1188  0.3691  0.1693
  156SAPE    HA17278   2.349   4.201   6.986 -0.4954  0.0574  0.3855
  156SAPE    HB17279   2.459   4.106   6.874  0.0079  0.6748  0.3595
  156SAPE    C217280   2.293   4.215   6.778  0.5711 -0.2290  0.4288
  156SAPE    HS17281   2.193   4.250   6.812  0.0405 -0.2902 -1.0086
  156SAPE   O2117282   2.251   4.128   6.670  0.3874 -0.4223 -0.6156
  156SAPE   C2117283   2.342   4.039   6.626  0.0669 -0.3517 -0.4436
  156SAPE   O2217284   2.463   4.031   6.652  0.1885  0.2808 -0.0772
  156SAPE   C2217285   2.277   3.943   6.526 -0.0815 -0.0212  0.2919
  156SAPE   H2R17286   2.195   3.899   6.587  1.4780  1.2492  3.5346
  156SAPE   H2S17287   2.247   4.010   6.443  1.7116  0.3707 -0.0880
  156SAPE    C317288   2.373   4.333   6.724 -0.3175  0.4042  0.5869
  156SAPE    HX17289   2.471   4.301   6.682 -0.5886  1.6082 -1.0577
  156SAPE    HY17290   2.394   4.403   6.807 -3.0652  0.1425  1.6023
  156SAPE   O3117291   2.307   4.394   6.617 -0.2178 -0.3265  0.3902
  156SAPE   C3117292   2.211   4.473   6.653 -0.2437  0.2054  0.5145
  156SAPE   O3217293   2.194   4.514   6.767 -0.0426  0.5248 -0.2683
  156SAPE   C3217294   2.135   4.526   6.532  0.0276  0.2650 -0.7184
  156SAPE   H2X17295   2.209   4.554   6.454  1.6261 -2.3193 -0.2804
  156SAPE   H2Y17296   2.087   4.622   6.561  2.1174  1.7204 -1.7892
  156SAPE   C2317297   2.376   3.822   6.491 -0.3938 -1.0768  0.8401
  156SAPE   H3R17298   2.339   3.730   6.541  0.5177 -1.5742  0.6218
  156SAPE   H3S17299   2.477   3.841   6.531  0.5563 -0.0922 -1.7867
  156SAPE   C2417300   2.400   3.800   6.343  0.3851 -0.5287  0.6244
  156SAPE   H4R17301   2.301   3.800   6.292  0.1537  0.6399  1.0448
  156SAPE   H4S17302   2.443   3.700   6.321  0.3570 -0.3137 -0.5019
  156SAPE   C2517303   2.488   3.895   6.273  0.4598  0.3101 -0.4019
  156SAPE   H5R17304   2.564   3.942   6.337  0.8825 -1.3507  0.3874
  156SAPE   C2617305   2.494   3.916   6.145  0.3881  0.0997  0.7545
  156SAPE   H6R17306   2.562   3.996   6.114  3.0000 -2.4320 -0.6115
  156SAPE   C2717307   2.415   3.849   6.033 -0.2727 -0.7073  0.6283
  156SAPE   H7R17308   2.409   3.738   6.043 -2.7175 -0.8229 -1.1891
  156SAPE   H7S17309   2.474   3.862   5.939 -1.1988  0.9166  0.2354
  156SAPE   C2817310   2.278   3.902   6.015  0.8502 -0.3502 -0.3140
  156SAPE   H8R17311   2.233   3.942   6.107  1.5321  1.3040 -0.6728
  156SAPE   C2917312   2.203   3.908   5.904  0.1294  0.1059  0.5341
  156SAPE   H9R17313   2.099   3.939   5.919 -0.0845 -0.8989  1.2488
  156SAPE  C21017314   2.254   3.876   5.767 -0.2458  0.4241  0.2674
  156SAPE  H10R17315   2.162   3.842   5.714  0.1405 -0.5108  0.1679
  156SAPE  H10S17316   2.319   3.786   5.773 -2.1190 -1.2146 -1.9848
  156SAPE  C21117317   2.323   3.988   5.688  0.0105  0.4485  0.0779
  156SAPE  H11R17318   2.325   4.082   5.745 -2.6362  0.3797  0.3972
  156SAPE  C21217319   2.354   4.002   5.554 -0.1058  0.3740 -0.0414
  156SAPE  H12R17320   2.415   4.090   5.527  2.2493 -1.4043 -0.8846
  156SAPE  C21317321   2.341   3.900   5.445  0.2519  0.0847 -1.0842
  156SAPE  H13R17322   2.254   3.923   5.379 -0.2856 -0.7976 -0.6935
  156SAPE  H13S17323   2.300   3.806   5.487 -1.2411  1.2746  0.2403
  156SAPE  C21417324   2.471   3.873   5.379 -0.2891 -0.6123 -0.1132
  156SAPE  H14R17325   2.549   3.828   5.443  0.5953 -1.1053 -1.4715
  156SAPE  C21517326   2.482   3.852   5.243 -0.1971 -0.3262 -0.1922
  156SAPE  H15R17327   2.582   3.828   5.205 -0.5455 -1.2578 -0.5506
  156SAPE  C21617328   2.378   3.885   5.136 -0.6493 -0.0391 -0.6115
  156SAPE  H16R17329   2.289   3.927   5.187 -1.3114 -0.4500 -1.4015
  156SAPE  H16S17330   2.344   3.789   5.092 -0.5730 -0.9402  1.2201
  156SAPE  C21717331   2.424   3.971   5.020  0.4614  0.2310  0.4324
  156SAPE  H17R17332   2.339   3.971   4.948 -3.2296  2.9881  4.3105
  156SAPE  H17S17333   2.505   3.916   4.967 -0.9854 -1.9215  0.2920
  156SAPE  C21817334   2.455   4.110   5.067 -0.5808  0.1661 -0.2153
  156SAPE  H18R17335   2.539   4.102   5.139  1.1078 -0.5999 -2.1683
  156SAPE  H18S17336   2.360   4.156   5.101 -1.0948 -1.0872  0.0862
  156SAPE  C21917337   2.509   4.203   4.953 -0.5993  0.2601 -0.1919
  156SAPE  H19R17338   2.433   4.197   4.873  0.0407 -0.3079 -0.7768
  156SAPE  H19S17339   2.595   4.161   4.895  0.1806 -0.7189  1.5795
  156SAPE  C22017340   2.525   4.341   5.009 -0.1291 -0.3515  0.3733
  156SAPE  H20R17341   2.615   4.336   5.075  0.2407  0.5033 -0.0408
  156SAPE  H20S17342   2.443   4.367   5.079  0.5140  1.7940  0.4113
  156SAPE  H20T17343   2.534   4.418   4.929  0.1772  0.8802  1.5459
  156SAPE   C3317344   2.044   4.409   6.474  0.0907  1.0225 -0.0475
  156SAPE   H3X17345   1.964   4.443   6.405  0.5319 -1.1150 -1.7063
  156SAPE   H3Y17346   1.990   4.342   6.545 -2.0571  2.7212  0.0084
  156SAPE   C3417347   2.127   4.326   6.378 -0.8126 -0.0771  0.0280
  156SAPE   H4X17348   2.213   4.287   6.436 -0.7352 -0.1955 -0.1673
  156SAPE   H4Y17349   2.175   4.383   6.296  1.5777 -1.1789  0.5820
  156SAPE   C3517350   2.047   4.220   6.308  0.1845  0.0626  0.6023
  156SAPE   H5X17351   1.991   4.163   6.385 -0.1962 -1.1257 -0.5040
  156SAPE   H5Y17352   2.127   4.155   6.267  0.5589  0.2213  1.0670
  156SAPE   C3617353   1.955   4.265   6.193  0.6164 -0.7870  0.0953
  156SAPE   H6X17354   2.014   4.345   6.144  0.7293 -0.7684  0.2576
  156SAPE   H6Y17355   1.867   4.303   6.250  0.4704  2.0386 -1.7898
  156SAPE   C3717356   1.908   4.163   6.085  0.8825 -0.3279  0.0284
  156SAPE   H7X17357   1.864   4.073   6.134  0.7993  0.1640  0.8738
  156SAPE   H7Y17358   2.002   4.125   6.040  0.4770 -3.4872  1.5572
  156SAPE   C3817359   1.811   4.229   5.985  0.8040 -0.2879  0.3243
  156SAPE   H8X17360   1.862   4.321   5.950  1.9907 -0.9288  0.3341
  156SAPE   H8Y17361   1.721   4.257   6.045  0.8660 -0.6386  0.5859
  156SAPE   C3917362   1.788   4.149   5.863  0.7784  0.0647  0.1370
  156SAPE   H9X17363   1.726   4.062   5.895  0.6921  0.2546  0.4904
  156SAPE   H9Y17364   1.889   4.121   5.827  0.7926  0.7758 -0.4114
  156SAPE  C31017365   1.705   4.220   5.751  0.1296 -1.5521  0.0264
  156SAPE  H10X17366   1.763   4.303   5.706 -0.7615 -1.0849 -0.2815
  156SAPE  H10Y17367   1.603   4.252   5.781 -0.1115 -0.8546 -1.4442
  156SAPE  C31117368   1.673   4.129   5.628  0.1050  1.1948  0.5982
  156SAPE  H11X17369   1.764   4.070   5.604 -1.0697 -0.8234  0.8973
  156SAPE  H11Y17370   1.638   4.181   5.537 -2.1027 -0.6080  0.3402
  156SAPE  C31217371   1.555   4.035   5.664  0.3906 -0.3023 -0.2364
  156SAPE  H12X17372   1.465   4.099   5.679 -0.3498 -1.7098  1.8263
  156SAPE  H12Y17373   1.568   3.969   5.753 -0.0999 -0.6287 -0.4084
  156SAPE  C31317374   1.523   3.937   5.549 -0.1219 -0.8705 -0.4176
  156SAPE  H13X17375   1.593   3.852   5.560  2.6153  1.3110  0.2555
  156SAPE  H13Y17376   1.552   3.978   5.450 -0.9569 -1.0299 -0.7358
  156SAPE  C31417377   1.371   3.893   5.540 -0.8175 -1.2110 -0.3130
  156SAPE  H14X17378   1.306   3.983   5.526  0.2738 -0.1873  0.9298
  156SAPE  H14Y17379   1.342   3.847   5.637 -0.1120 -1.4231 -0.1950
  156SAPE  C31517380   1.356   3.789   5.423  0.1694  0.5792  0.4808
  156SAPE  H15X17381   1.394   3.833   5.328  0.1496  0.2084  0.3011
  156SAPE  H15Y17382   1.244   3.791   5.419  0.1482 -0.3158  0.4486
  156SAPE  C31617383   1.400   3.644   5.435 -0.1780 -0.2273  0.2676
  156SAPE  H16X17384   1.352   3.592   5.521 -1.1760 -0.1482 -0.2191
  156SAPE  H16Y17385   1.511   3.645   5.439 -0.0356  0.3183 -2.0687
  156SAPE  C31717386   1.391   3.551   5.314  0.7639  0.0119  0.0919
  156SAPE  H17X17387   1.445   3.589   5.225  0.6501  0.3552  0.1670
  156SAPE  H17Y17388   1.287   3.555   5.275  1.4662  0.2716 -1.8851
  156SAPE  C31817389   1.423   3.409   5.354  0.2170 -0.1553 -0.5551
  156SAPE  H18X17390   1.410   3.328   5.279  0.1884 -0.4525 -0.2345
  156SAPE  H18Y17391   1.370   3.385   5.448  2.2266  2.8509  1.5457
  156SAPE  H18Z17392   1.530   3.397   5.384  0.3191 -1.1911 -1.2626
  157SAPE     N17393   1.977   1.835   6.957  0.7568  0.1202 -0.0867
  157SAPE   HN117394   1.929   1.758   7.009 -0.0106  0.1731 -0.6870
  157SAPE   HN217395   1.989   1.805   6.858  1.0768 -1.1172  0.3019
  157SAPE   HN317396   2.075   1.848   6.989  2.0472  0.2735 -3.6033
  157SAPE   C1217397   1.893   1.954   6.973  0.4787 -1.2473 -0.1967
  157SAPE  H12A17398   1.811   1.950   6.898  1.4774  0.2675 -1.4289
  157SAPE  H12B17399   1.951   2.047   6.955  0.3514 -0.7958  1.5386
  157SAPE   C1117400   1.822   1.951   7.110  0.6927 -0.2122 -0.1728
  157SAPE  H11A17401   1.764   2.039   7.146  0.4690 -0.0297 -0.9704
  157SAPE  H11B17402   1.905   1.949   7.185 -1.6814  0.9689  2.7028
  157SAPE     P17403   1.580   1.835   7.121  0.2402  0.3951  0.1148
  157SAPE   O1317404   1.527   1.717   7.189 -0.0680 -0.0317  0.0443
  157SAPE   O1417405   1.522   1.966   7.160 -0.1160 -0.3832 -0.1387
  157SAPE   O1217406   1.740   1.833   7.133  0.3925 -0.1578  0.1942
  157SAPE   O1117407   1.562   1.803   6.970 -0.4576  0.1573 -0.4220
  157SAPE    C117408   1.640   1.707   6.891  0.3010  0.1150 -0.0688
  157SAPE    HA17409   1.747   1.736   6.888  0.2314  0.9779  2.5926
  157SAPE    HB17410   1.641   1.609   6.944  0.7347 -0.4920 -1.1896
  157SAPE    C217411   1.574   1.686   6.756  0.4952 -0.4010 -0.0674
  157SAPE    HS17412   1.605   1.585   6.721  0.0639 -0.2604 -0.8756
  157SAPE   O2117413   1.603   1.791   6.660 -0.0854  0.0504 -0.0043
  157SAPE   C2117414   1.725   1.778   6.605  0.0806 -0.1599  0.0727
  157SAPE   O2217415   1.808   1.696   6.647  0.2340  0.4115 -0.0930
  157SAPE   C2217416   1.751   1.877   6.490  0.5576 -0.1827 -0.8276
  157SAPE   H2R17417   1.688   1.966   6.515 -1.7006 -1.4911 -1.5898
  157SAPE   H2S17418   1.860   1.895   6.479  0.5395 -0.3458 -1.2854
  157SAPE    C317419   1.415   1.678   6.768  0.4724 -0.0093 -0.2239
  157SAPE    HX17420   1.383   1.780   6.798 -3.7915 -0.4572 -2.4611
  157SAPE    HY17421   1.375   1.606   6.842  1.6651 -2.0342 -1.4268
  157SAPE   O3117422   1.365   1.644   6.638 -0.1626  0.0377  0.9921
  157SAPE   C3117423   1.241   1.679   6.607 -0.4111  0.3242  0.3102
  157SAPE   O3217424   1.160   1.734   6.679 -0.1337  0.5841  0.2225
  157SAPE   C3217425   1.215   1.649   6.454 -0.4604  0.1584  0.5706
  157SAPE   H2X17426   1.108   1.671   6.434 -0.7599 -0.8096  1.0591
  157SAPE   H2Y17427   1.212   1.539   6.437  0.6922 -0.2468  2.7145
  157SAPE   C2317428   1.712   1.824   6.350  0.0866 -0.6191  0.6819
  157SAPE   H3R17429   1.604   1.804   6.341  0.5255 -2.1938 -2.3110
  157SAPE   H3S17430   1.769   1.729   6.344 -0.3842 -0.8212 -3.2730
  157SAPE   C2417431   1.761   1.919   6.238  0.1525  0.3301 -0.0123
  157SAPE   H4R17432   1.738   2.028   6.236 -0.8725  0.1128 -0.4031
  157SAPE   H4S17433   1.696   1.893   6.152 -1.1740  2.6138  0.2322
  157SAPE   C2517434   1.908   1.917   6.202 -0.1677  0.5697  0.5303
  157SAPE   H5R17435   1.979   1.941   6.283  0.1157  0.7127  0.2413
  157SAPE   C2617436   1.964   1.909   6.079 -0.3143 -0.1654  0.1332
  157SAPE   H6R17437   2.074   1.902   6.085 -0.2289  1.4749  1.3776
  157SAPE   C2717438   1.881   1.891   5.951  0.6120  1.1656 -0.1440
  157SAPE   H7R17439   1.788   1.950   5.964  0.1977  0.4512  0.2413
  157SAPE   H7S17440   1.852   1.785   5.935  0.7397  0.3861  3.7197
  157SAPE   C2817441   1.953   1.945   5.831  0.1975  0.8698  0.6465
  157SAPE   H8R17442   1.937   2.053   5.816 -0.3390  0.5103 -1.7197
  157SAPE   C2917443   2.030   1.877   5.744 -0.1659 -1.2572  0.0829
  157SAPE   H9R17444   2.079   1.930   5.661 -0.9641 -3.0496 -1.6269
  157SAPE  C21017445   2.049   1.726   5.754 -0.1680  0.6504  0.4513
  157SAPE  H10R17446   2.002   1.682   5.663 -0.2031  1.8405 -0.1181
  157SAPE  H10S17447   1.999   1.672   5.837  0.8059 -2.2317 -0.6986
  157SAPE  C21117448   2.202   1.705   5.752  0.5680 -0.0986 -0.8806
  157SAPE  H11R17449   2.247   1.703   5.852 -0.1913 -0.2950 -0.5349
  157SAPE  C21217450   2.282   1.664   5.649 -0.0639 -0.6070  0.6915
  157SAPE  H12R17451   2.390   1.666   5.666 -0.1526 -1.1625  1.3743
  157SAPE  C21317452   2.236   1.637   5.509 -0.4175  0.0760  1.6860
  157SAPE  H13R17453   2.329   1.625   5.450 -1.3466 -1.2024  0.4247
  157SAPE  H13S17454   2.195   1.734   5.474 -0.1485 -1.1894 -2.7442
  157SAPE  C21417455   2.133   1.532   5.485 -0.6038  0.0362  0.1335
  157SAPE  H14R17456   2.130   1.448   5.556  0.2126  0.5757  0.8267
  157SAPE  C21517457   2.039   1.535   5.390 -0.0948  0.5035  0.9482
  157SAPE  H15R17458   1.973   1.447   5.383  0.8343 -0.0972 -1.6048
  157SAPE  C21617459   2.014   1.648   5.286  0.4185  0.2232  0.4789
  157SAPE  H16R17460   2.044   1.745   5.330  1.3562  0.1528  0.0090
  157SAPE  H16S17461   1.907   1.645   5.255  0.3518  0.7426  0.6602
  157SAPE  C21717462   2.110   1.629   5.162 -0.1956 -0.4842  0.5798
  157SAPE  H17R17463   2.100   1.527   5.120  1.4734  0.1234 -1.4596
  157SAPE  H17S17464   2.216   1.641   5.192  0.0658 -0.5118 -0.2848
  157SAPE  C21817465   2.067   1.729   5.052 -0.1809  0.1800  0.6185
  157SAPE  H18R17466   2.069   1.833   5.092 -2.6354 -0.1113  1.6630
  157SAPE  H18S17467   1.962   1.709   5.021  0.6913  0.3457 -2.9186
  157SAPE  C21917468   2.166   1.715   4.935 -0.3145  0.5076 -0.1927
  157SAPE  H19R17469   2.201   1.610   4.933 -1.9868 -0.0655 -1.9567
  157SAPE  H19S17470   2.255   1.781   4.950 -0.1634  0.4879 -0.9813
  157SAPE  C22017471   2.102   1.744   4.808  0.2753  0.2104  0.2792
  157SAPE  H20R17472   2.177   1.762   4.728 -1.1288  1.6631 -0.7630
  157SAPE  H20S17473   2.049   1.841   4.809 -0.5604 -0.1331 -2.5839
  157SAPE  H20T17474   2.027   1.668   4.777 -0.4810  1.3784 -0.8391
  157SAPE   C3317475   1.308   1.732   6.359  0.2327  0.7806  0.4488
  157SAPE   H3X17476   1.409   1.723   6.405  0.2352  0.7201  0.4333
  157SAPE   H3Y17477   1.280   1.837   6.338  0.6519  0.9868  0.9066
  157SAPE   C3417478   1.331   1.660   6.220  1.4117  0.5853  0.1756
  157SAPE   H4X17479   1.232   1.652   6.172  0.6508 -2.9070  2.0017
  157SAPE   H4Y17480   1.364   1.556   6.243 -1.8779 -0.8946 -1.2533
  157SAPE   C3517481   1.440   1.718   6.133 -0.0364 -0.1183 -0.6886
  157SAPE   H5X17482   1.541   1.708   6.179 -0.2711 -0.5165 -0.2505
  157SAPE   H5Y17483   1.424   1.828   6.136 -3.0469 -0.4490 -1.6255
  157SAPE   C3617484   1.436   1.678   5.986  0.5156  0.2797 -0.1404
  157SAPE   H6X17485   1.350   1.732   5.940 -0.3320  0.4373  1.5637
  157SAPE   H6Y17486   1.410   1.571   5.990 -0.5057  0.5368  0.5189
  157SAPE   C3717487   1.571   1.715   5.905  0.7609  1.1286  0.2897
  157SAPE   H7X17488   1.643   1.677   5.979  1.8001  2.1512 -0.1719
  157SAPE   H7Y17489   1.589   1.824   5.893  4.6364  0.3635 -2.9869
  157SAPE   C3817490   1.565   1.643   5.776  0.5416 -0.4049 -0.2894
  157SAPE   H8X17491   1.534   1.537   5.792  1.6699 -0.7503 -0.3042
  157SAPE   H8Y17492   1.665   1.659   5.731  1.1475  0.1642  1.1979
  157SAPE   C3917493   1.468   1.712   5.676 -0.5420  0.2166  0.1577
  157SAPE   H9X17494   1.483   1.821   5.687  2.2311  0.0199 -0.8540
  157SAPE   H9Y17495   1.364   1.695   5.713 -0.9942  0.9714 -0.7276
  157SAPE  C31017496   1.485   1.652   5.541  0.6559 -0.1138 -0.6963
  157SAPE  H10X17497   1.471   1.543   5.557 -0.5877  0.2715  1.2246
  157SAPE  H10Y17498   1.591   1.663   5.509  1.1965 -1.5856  0.4797
  157SAPE  C31117499   1.386   1.705   5.439 -0.0647  0.6196 -0.1808
  157SAPE  H11X17500   1.400   1.813   5.416 -3.4906  1.4820  1.1478
  157SAPE  H11Y17501   1.283   1.708   5.483  0.7164  2.0154  1.7364
  157SAPE  C31217502   1.382   1.629   5.312  0.3000 -0.9339  0.7184
  157SAPE  H12X17503   1.480   1.631   5.261  0.4330 -0.4061  0.9853
  157SAPE  H12Y17504   1.300   1.670   5.248  1.8967  2.8697  0.8142
  157SAPE  C31317505   1.341   1.482   5.344 -0.4697 -0.1714  0.5078
  157SAPE  H13X17506   1.257   1.492   5.416 -0.4078  1.9852  0.3357
  157SAPE  H13Y17507   1.427   1.425   5.385  0.1575  0.4643  0.1050
  157SAPE  C31417508   1.271   1.411   5.222 -1.3696  0.2798  0.0301
  157SAPE  H14X17509   1.186   1.471   5.185 -1.7789 -0.3303 -0.0437
  157SAPE  H14Y17510   1.221   1.319   5.260 -1.6070  0.2432 -0.3761
  157SAPE  C31517511   1.355   1.385   5.096  0.0909  0.5330  0.0318
  157SAPE  H15X17512   1.441   1.320   5.122 -2.8781 -2.6950  2.9899
  157SAPE  H15Y17513   1.392   1.475   5.044  0.5638 -0.1383 -0.8197
  157SAPE  C31617514   1.263   1.314   4.999 -0.0613  0.0636  0.2045
  157SAPE  H16X17515   1.169   1.374   5.002  0.4336  0.8916 -0.5358
  157SAPE  H16Y17516   1.244   1.211   5.037  2.0902 -0.1784  0.7649
  157SAPE  C31717517   1.305   1.304   4.852 -0.3480  0.5937 -0.9603
  157SAPE  H17X17518   1.320   1.403   4.803  1.6482 -0.4646 -2.6513
  157SAPE  H17Y17519   1.219   1.258   4.798 -1.3697 -1.3365  2.0713
  157SAPE  C31817520   1.428   1.220   4.825 -0.0044  0.5918  0.1448
  157SAPE  H18X17521   1.443   1.218   4.715 -0.2447  0.5334  0.1122
  157SAPE  H18Y17522   1.418   1.117   4.866  1.9487 -0.0815 -0.9209
  157SAPE  H18Z17523   1.514   1.271   4.874  1.3335 -1.6076  0.2482
  158SAPE     N17524   4.148   0.831   6.624  0.9131  0.8654  0.1621
  158SAPE   HN117525   4.181   0.828   6.722 -0.4952  2.0228  0.7202
  158SAPE   HN217526   4.127   0.739   6.581  5.5043  0.0761 -0.9521
  158SAPE   HN317527   4.213   0.883   6.562  0.7151 -1.6928 -2.3974
  158SAPE   C1217528   4.026   0.913   6.618 -0.5468  0.0551 -0.3413
  158SAPE  H12A17529   3.947   0.860   6.676  0.9220  0.6614  2.3761
  158SAPE  H12B17530   3.996   0.928   6.512 -0.3287 -2.4419 -0.8288
  158SAPE   C1117531   4.068   1.046   6.682 -0.0843 -0.8862 -0.0533
  158SAPE  H11A17532   3.969   1.093   6.694  0.0582 -0.6626  0.2461
  158SAPE  H11B17533   4.125   1.100   6.602  0.6202 -0.0887  0.9567
  158SAPE     P17534   4.160   1.172   6.882  0.2551  0.4556 -0.0091
  158SAPE   O1317535   4.024   1.223   6.900  0.4325  0.3341 -0.2006
  158SAPE   O1417536   4.228   1.149   7.014  0.7644 -0.0980 -0.5378
  158SAPE   O1217537   4.139   1.033   6.807 -0.2691  0.0013 -0.1210
  158SAPE   O1117538   4.251   1.259   6.799  0.1020 -0.0879  0.3219
  158SAPE    C117539   4.400   1.248   6.798 -0.2276 -0.0047 -0.1909
  158SAPE    HA17540   4.431   1.354   6.804 -0.5311  0.0520  0.3884
  158SAPE    HB17541   4.442   1.210   6.894 -1.4988 -1.2174 -0.0883
  158SAPE    C217542   4.469   1.186   6.674 -0.6551  0.5026  0.5111
  158SAPE    HS17543   4.572   1.229   6.668  0.1351 -1.5238 -1.7913
  158SAPE   O2117544   4.385   1.202   6.555 -0.1675 -0.4809 -0.5628
  158SAPE   C2117545   4.393   1.324   6.502  0.0574 -0.1117 -0.1059
  158SAPE   O2217546   4.475   1.411   6.533  0.2922  0.5045  0.2681
  158SAPE   C2217547   4.292   1.346   6.389  0.5887  0.1304  0.5905
  158SAPE   H2R17548   4.194   1.325   6.437  1.0097 -0.3156  1.2742
  158SAPE   H2S17549   4.293   1.447   6.344  2.4056  0.7402  1.8655
  158SAPE    C317550   4.495   1.034   6.692  0.7215  0.6024  0.4756
  158SAPE    HX17551   4.397   0.987   6.715 -0.1283  2.8140  1.7135
  158SAPE    HY17552   4.560   1.033   6.783 -0.6350 -0.6750  1.4732
  158SAPE   O3117553   4.556   0.978   6.575 -0.1077  0.9021 -0.0430
  158SAPE   C3117554   4.479   0.932   6.480 -0.5460 -0.2021  0.5944
  158SAPE   O3217555   4.358   0.937   6.479 -0.3124 -0.8630  0.4646
  158SAPE   C3217556   4.564   0.872   6.368  0.3017  0.0893 -0.8624
  158SAPE   H2X17557   4.606   0.777   6.406  0.5181 -0.4301 -2.3135
  158SAPE   H2Y17558   4.641   0.946   6.338  0.4826  0.1466 -0.2587
  158SAPE   C2317559   4.319   1.244   6.263 -0.5599  0.4856  0.3342
  158SAPE   H3R17560   4.226   1.236   6.204  0.0937 -1.5342 -0.5283
  158SAPE   H3S17561   4.343   1.141   6.299 -1.4051 -0.1965 -0.9605
  158SAPE   C2417562   4.452   1.272   6.184  0.2074  0.2073  1.1554
  158SAPE   H4R17563   4.474   1.180   6.125 -1.3640 -0.5858  1.7264
  158SAPE   H4S17564   4.526   1.293   6.264  2.2627 -0.0149 -0.5969
  158SAPE   C2517565   4.453   1.388   6.097 -0.1124  0.3903  0.4847
  158SAPE   H5R17566   4.446   1.481   6.155  2.0496  1.8467 -1.3859
  158SAPE   C2617567   4.453   1.401   5.963  0.2684 -0.3437 -0.0462
  158SAPE   H6R17568   4.445   1.502   5.921  0.3340 -0.0757  0.5751
  158SAPE   C2717569   4.446   1.282   5.868 -0.0657  0.0379  0.7173
  158SAPE   H7R17570   4.385   1.308   5.778  2.4152 -1.5382 -1.5562
  158SAPE   H7S17571   4.386   1.206   5.922 -0.1460 -0.7863 -0.4913
  158SAPE   C2817572   4.576   1.219   5.827  0.2539 -0.0937 -0.2443
  158SAPE   H8R17573   4.647   1.234   5.910 -0.9306 -1.0145  0.9854
  158SAPE   C2917574   4.624   1.180   5.706  0.1151  0.3424  0.3460
  158SAPE   H9R17575   4.730   1.151   5.693 -0.6722 -1.9067 -1.7895
  158SAPE  C21017576   4.540   1.182   5.578 -0.1566 -0.3153 -0.0515
  158SAPE  H10R17577   4.431   1.162   5.585 -0.2618 -0.6402 -2.1048
  158SAPE  H10S17578   4.575   1.095   5.519 -3.8788 -0.2515 -2.7376
  158SAPE  C21117579   4.550   1.302   5.502 -0.1903  0.5633  0.9403
  158SAPE  H11R17580   4.553   1.392   5.565  1.9801 -0.2273  2.0463
  158SAPE  C21217581   4.563   1.312   5.366  0.0270 -0.4744  0.4914
  158SAPE  H12R17582   4.572   1.415   5.329  0.0940 -0.8963 -0.7368
  158SAPE  C21317583   4.582   1.198   5.270  0.2941  0.2206  0.9161
  158SAPE  H13R17584   4.538   1.106   5.313  0.7545  0.3846  1.7747
  158SAPE  H13S17585   4.692   1.179   5.274  0.4402  0.4610 -1.0664
  158SAPE  C21417586   4.526   1.215   5.131 -0.5573 -0.2558 -0.6191
  158SAPE  H14R17587   4.420   1.245   5.132 -0.3496  0.5439 -1.8099
  158SAPE  C21517588   4.578   1.176   5.010 -0.6668 -0.9429  0.3868
  158SAPE  H15R17589   4.511   1.196   4.925  0.5794 -1.0987 -0.6587
  158SAPE  C21617590   4.704   1.095   4.978 -0.0352  0.0345 -0.5512
  158SAPE  H16R17591   4.676   1.015   4.906 -0.1292 -2.0255  1.6492
  158SAPE  H16S17592   4.745   1.047   5.070  1.6672  1.4838 -0.4863
  158SAPE  C21717593   4.803   1.185   4.899  0.1618  0.5078 -0.2944
  158SAPE  H17R17594   4.776   1.179   4.791  0.6676 -3.5376 -0.3494
  158SAPE  H17S17595   4.904   1.139   4.911 -0.4023 -0.5062  0.7456
  158SAPE  C21817596   4.818   1.324   4.954 -0.6182 -0.2370  0.0437
  158SAPE  H18R17597   4.855   1.339   5.058  1.0987 -1.8746 -0.2508
  158SAPE  H18S17598   4.727   1.386   4.943  0.4407  1.2690 -0.6563
  158SAPE  C21917599   4.940   1.391   4.876 -0.0908  0.3931  0.7250
  158SAPE  H19R17600   4.927   1.385   4.766  2.1138 -1.1493  0.4875
  158SAPE  H19S17601   5.026   1.326   4.900 -1.4791 -2.4612 -1.4000
  158SAPE  C22017602   4.976   1.541   4.925 -0.1523 -0.1781 -0.4013
  158SAPE  H20R17603   4.962   1.611   4.840 -4.4469  0.7098  0.7590
  158SAPE  H20S17604   5.081   1.534   4.959 -0.3387  1.4974  0.6174
  158SAPE  H20T17605   4.913   1.563   5.014 -0.4806 -1.0252 -0.4060
  158SAPE   C3317606   4.470   0.843   6.253  0.3947 -1.1486 -0.2264
  158SAPE   H3X17607   4.390   0.915   6.225 -0.0327 -1.9315 -1.0785
  158SAPE   H3Y17608   4.403   0.756   6.270  0.7231 -1.4988 -0.6932
  158SAPE   C3417609   4.563   0.819   6.124  0.0986  0.0593 -0.5392
  158SAPE   H4X17610   4.612   0.721   6.141 -1.5394 -0.9728 -1.4542
  158SAPE   H4Y17611   4.648   0.889   6.110 -1.6677  2.2273 -1.0457
  158SAPE   C3517612   4.481   0.807   5.994 -0.1176  0.0085 -0.2137
  158SAPE   H5X17613   4.435   0.904   5.967 -0.7393 -0.5219 -1.1199
  158SAPE   H5Y17614   4.399   0.733   6.006 -0.6018  0.5606 -0.0900
  158SAPE   C3617615   4.564   0.776   5.873 -0.2695 -0.5387 -0.0649
  158SAPE   H6X17616   4.587   0.668   5.879  1.0027 -0.3290 -0.6037
  158SAPE   H6Y17617   4.666   0.822   5.872  0.0965 -1.3030  0.9452
  158SAPE   C3717618   4.499   0.809   5.743  0.3004  0.1869 -0.3662
  158SAPE   H7X17619   4.487   0.919   5.738 -0.5489  0.1022 -0.2682
  158SAPE   H7Y17620   4.399   0.760   5.749  0.2912  0.3578  4.1612
  158SAPE   C3817621   4.584   0.771   5.619  0.3430  0.2683 -1.1947
  158SAPE   H8X17622   4.621   0.666   5.623  2.3416  0.9561  0.2669
  158SAPE   H8Y17623   4.670   0.840   5.631  0.9340 -0.9070  3.3623
  158SAPE   C3917624   4.511   0.790   5.488 -0.3187 -0.4047 -0.5561
  158SAPE   H9X17625   4.477   0.896   5.490 -0.4513 -0.4543  0.6950
  158SAPE   H9Y17626   4.425   0.719   5.486  1.2238 -2.3306 -2.1806
  158SAPE  C31017627   4.599   0.765   5.367  1.3606 -0.2317 -0.1102
  158SAPE  H10X17628   4.643   0.664   5.375  0.7092 -0.3948  2.0129
  158SAPE  H10Y17629   4.669   0.851   5.367 -1.0767  1.9056 -0.4076
  158SAPE  C31117630   4.518   0.772   5.237 -0.2414 -0.2558  0.1653
  158SAPE  H11X17631   4.482   0.876   5.224  0.6720 -0.1564 -2.1131
  158SAPE  H11Y17632   4.439   0.695   5.247 -0.0108 -0.5769 -0.4378
  158SAPE  C31217633   4.613   0.732   5.119  0.2068 -0.0871  0.7892
  158SAPE  H12X17634   4.640   0.624   5.125  0.6144 -0.1110 -0.9285
  158SAPE  H12Y17635   4.703   0.797   5.115 -0.4034  0.7376 -1.5679
  158SAPE  C31317636   4.536   0.752   4.982  0.0936 -0.4714  0.0422
  158SAPE  H13X17637   4.508   0.860   4.980  0.8435 -0.2870 -0.5642
  158SAPE  H13Y17638   4.440   0.696   4.982  0.6867 -1.5238  0.3556
  158SAPE  C31417639   4.623   0.727   4.863  0.2627  0.0627  0.3197
  158SAPE  H14X17640   4.674   0.629   4.874 -0.3654 -0.2551  0.5116
  158SAPE  H14Y17641   4.697   0.809   4.870 -1.2537  1.4079  1.0900
  158SAPE  C31517642   4.540   0.729   4.736 -0.1870  0.2821  0.8202
  158SAPE  H15X17643   4.485   0.826   4.731  1.9325  1.4834 -1.2980
  158SAPE  H15Y17644   4.470   0.643   4.733 -1.8238  1.4561  2.5043
  158SAPE  C31617645   4.643   0.731   4.629  0.8061  0.6163  0.2842
  158SAPE  H16X17646   4.683   0.627   4.623 -1.1780 -0.2362  1.2029
  158SAPE  H16Y17647   4.723   0.804   4.652  1.0690  0.2574  0.5249
  158SAPE  C31717648   4.588   0.756   4.485 -0.3252 -0.5190 -0.3769
  158SAPE  H17X17649   4.560   0.863   4.479  2.4721  0.2631 -1.1357
  158SAPE  H17Y17650   4.505   0.687   4.459 -0.2992 -0.0074 -1.8816
  158SAPE  C31817651   4.703   0.739   4.379 -0.6267 -0.5586 -0.3858
  158SAPE  H18X17652   4.738   0.634   4.374 -0.4555 -0.6985  2.2524
  158SAPE  H18Y17653   4.785   0.812   4.398 -0.8757 -0.5614  0.7834
  158SAPE  H18Z17654   4.672   0.767   4.276  1.0703  2.3698 -0.2326
  159SAPE     N17655   1.248   0.177   2.363 -0.2141 -0.1879  0.2947
  159SAPE   HN117656   1.321   0.249   2.345  0.8064 -1.1254  0.5478
  159SAPE   HN217657   1.262   0.099   2.295  2.4605 -0.9830  1.6121
  159SAPE   HN317658   1.150   0.211   2.360 -0.0233  0.3477 -2.3306
  159SAPE   C1217659   1.285   0.129   2.497  0.1246  0.2419 -0.7425
  159SAPE  H12A17660   1.192   0.082   2.536  0.7964  0.3855  1.1339
  159SAPE  H12B17661   1.316   0.215   2.559  1.8496 -1.6481  1.1681
  159SAPE   C1117662   1.403   0.029   2.474 -0.3825  0.4033 -0.1342
  159SAPE  H11A17663   1.428  -0.021   2.570  1.1521  3.6351  1.2891
  159SAPE  H11B17664   1.489   0.091   2.440 -1.2551  1.6368 -0.1851
  159SAPE     P17665   1.272  -0.195   2.408  0.1275 -0.0633 -0.0842
  159SAPE   O1317666   1.133  -0.162   2.396 -0.1304 -0.8743 -0.0904
  159SAPE   O1417667   1.324  -0.309   2.328  0.0991  0.0401  0.7030
  159SAPE   O1217668   1.366  -0.072   2.382  0.3311  0.8232 -0.3473
  159SAPE   O1117669   1.295  -0.211   2.564 -0.3420 -0.0153 -0.1684
  159SAPE    C117670   1.247  -0.309   2.654 -0.8041 -0.3101 -1.1394
  159SAPE    HA17671   1.141  -0.340   2.641 -1.8011  0.7096  3.0834
  159SAPE    HB17672   1.308  -0.400   2.638  0.5823  0.3115  0.2831
  159SAPE    C217673   1.283  -0.262   2.798 -0.1728  0.6931  0.3823
  159SAPE    HS17674   1.257  -0.351   2.860  0.0425  0.2017 -0.2177
  159SAPE   O2117675   1.227  -0.139   2.817  0.2787  0.1897 -0.2635
  159SAPE   C2117676   1.098  -0.151   2.849 -0.1326  0.2736 -0.1816
  159SAPE   O2217677   1.033  -0.256   2.845 -0.3714 -0.0331 -0.3103
  159SAPE   C2217678   1.038  -0.016   2.902 -0.8256  0.0892  0.5482
  159SAPE   H2R17679   1.115   0.026   2.970 -0.4930  1.2810 -0.5441
  159SAPE   H2S17680   1.030   0.053   2.815 -0.7637 -0.8735 -0.2412
  159SAPE    C317681   1.439  -0.249   2.807 -0.1246 -0.2018  0.2332
  159SAPE    HX17682   1.467  -0.155   2.754 -0.2217 -0.0037  0.5309
  159SAPE    HY17683   1.483  -0.335   2.753  1.8772  0.8620  0.0771
  159SAPE   O3117684   1.476  -0.230   2.945 -0.2236 -0.8030  0.1365
  159SAPE   C3117685   1.604  -0.255   2.968 -0.2296 -0.0547 -0.3036
  159SAPE   O3217686   1.693  -0.276   2.883  0.3756 -0.1793 -0.0120
  159SAPE   C3217687   1.632  -0.243   3.120  0.3348 -0.0206  0.5336
  159SAPE   H2X17688   1.539  -0.258   3.180 -0.4257  2.6988  0.2087
  159SAPE   H2Y17689   1.660  -0.136   3.135 -1.7509  1.0366 -2.1655
  159SAPE   C2317690   0.904  -0.023   2.971 -0.0026 -0.0337 -0.0742
  159SAPE   H3R17691   0.833  -0.086   2.912 -0.4971 -0.2671  0.7503
  159SAPE   H3S17692   0.872   0.083   2.980  2.1140  0.6547 -0.1571
  159SAPE   C2417693   0.900  -0.084   3.111  0.0961 -0.1634  0.2267
  159SAPE   H4R17694   0.978  -0.161   3.125  2.7205  2.3130  0.2825
  159SAPE   H4S17695   0.802  -0.136   3.109 -1.5575  2.7081 -1.9369
  159SAPE   C2517696   0.900   0.015   3.222 -0.1572  0.3091 -0.0574
  159SAPE   H5R17697   0.918   0.119   3.191  0.0715 -0.0444 -1.1578
  159SAPE   C2617698   0.897  -0.024   3.350 -0.1074  0.2829  0.1266
  159SAPE   H6R17699   0.905   0.060   3.420  1.8462  1.5764 -1.5315
  159SAPE   C2717700   0.889  -0.167   3.407  0.4174 -0.5008 -0.5609
  159SAPE   H7R17701   0.990  -0.200   3.439  1.1762 -0.8473 -3.0685
  159SAPE   H7S17702   0.868  -0.236   3.322 -0.3323 -0.8201 -0.1315
  159SAPE   C2817703   0.788  -0.184   3.517  1.0424 -0.7266 -0.0400
  159SAPE   H8R17704   0.699  -0.243   3.491 -1.2317  1.5471  1.9854
  159SAPE   C2917705   0.784  -0.160   3.645 -0.7872  0.5279  0.8196
  159SAPE   H9R17706   0.695  -0.193   3.700 -0.8378 -1.2996 -0.2967
  159SAPE  C21017707   0.892  -0.083   3.727  0.2103 -0.2903 -0.5164
  159SAPE  H10R17708   0.853  -0.026   3.814 -1.2890 -0.5968 -0.9655
  159SAPE  H10S17709   0.932  -0.002   3.663 -3.2644  0.7978 -1.5283
  159SAPE  C21117710   1.021  -0.150   3.766 -0.3225  0.4470 -0.4549
  159SAPE  H11R17711   1.073  -0.186   3.676 -1.3126 -1.4152 -0.3365
  159SAPE  C21217712   1.077  -0.149   3.889  0.2016 -0.1239 -0.4904
  159SAPE  H12R17713   1.172  -0.206   3.890 -1.2800 -2.7833  1.4354
  159SAPE  C21317714   1.016  -0.115   4.026  0.5764  0.1125  0.3547
  159SAPE  H13R17715   0.906  -0.120   4.018  0.6044  2.0537 -3.3914
  159SAPE  H13S17716   1.042  -0.008   4.043  0.6361  0.6483 -2.6441
  159SAPE  C21417717   1.068  -0.214   4.127 -0.5510  0.2136 -0.0283
  159SAPE  H14R17718   1.072  -0.318   4.093  0.4995  0.7918 -1.8100
  159SAPE  C21517719   1.106  -0.187   4.244  0.6290 -0.2783 -0.0047
  159SAPE  H15R17720   1.155  -0.269   4.299  3.2199  1.6046  0.6981
  159SAPE  C21617721   1.096  -0.054   4.308  0.0777 -0.2676 -0.3199
  159SAPE  H16R17722   1.006  -0.065   4.373 -0.3012  1.0290 -0.6050
  159SAPE  H16S17723   1.067   0.028   4.239  1.2699  0.3098 -0.1500
  159SAPE  C21717724   1.215  -0.000   4.388  0.3057  0.6873  0.2368
  159SAPE  H17R17725   1.171   0.081   4.448 -0.2912  1.8927 -1.7245
  159SAPE  H17S17726   1.275   0.065   4.321 -0.2428  2.9515  1.8174
  159SAPE  C21817727   1.295  -0.101   4.470  0.8530 -0.6459 -0.3095
  159SAPE  H18R17728   1.326  -0.175   4.394 -1.2988 -2.0099  0.0712
  159SAPE  H18S17729   1.219  -0.150   4.534  3.2451 -0.8767  2.6026
  159SAPE  C21917730   1.411  -0.053   4.560  0.2391  0.3538 -0.4397
  159SAPE  H19R17731   1.372   0.028   4.626 -1.7762 -0.2932 -0.7616
  159SAPE  H19S17732   1.480  -0.009   4.484  1.0176 -0.0697  0.0142
  159SAPE  C22017733   1.474  -0.167   4.636  0.5313 -0.2721 -0.1635
  159SAPE  H20R17734   1.422  -0.181   4.734  2.1552 -1.8837  0.5143
  159SAPE  H20S17735   1.581  -0.144   4.655  0.9229 -1.6178 -0.6820
  159SAPE  H20T17736   1.471  -0.261   4.578 -1.0944 -0.3638  0.0030
  159SAPE   C3317737   1.742  -0.330   3.160 -0.5392  1.1222 -0.3998
  159SAPE   H3X17738   1.820  -0.359   3.086  0.9925 -0.7171  1.8001
  159SAPE   H3Y17739   1.694  -0.423   3.197 -0.0721 -0.2089 -2.9695
  159SAPE   C3417740   1.808  -0.268   3.287  0.2562 -0.0569 -0.3174
  159SAPE   H4X17741   1.842  -0.167   3.257  1.7492 -0.8768 -1.5460
  159SAPE   H4Y17742   1.895  -0.335   3.304 -0.6402 -1.1522  0.1243
  159SAPE   C3517743   1.706  -0.256   3.403 -0.2881 -0.2232 -0.1933
  159SAPE   H5X17744   1.668  -0.358   3.421  0.2187 -0.1002  1.8440
  159SAPE   H5Y17745   1.619  -0.191   3.377  0.3518  1.0905  0.8313
  159SAPE   C3617746   1.776  -0.218   3.538  0.4985  0.3105  0.2712
  159SAPE   H6X17747   1.828  -0.123   3.512 -0.5599  0.2849 -2.1988
  159SAPE   H6Y17748   1.859  -0.288   3.563  0.3154  0.2811  0.8049
  159SAPE   C3717749   1.678  -0.184   3.654  0.3656  0.3145 -0.1822
  159SAPE   H7X17750   1.598  -0.114   3.619  1.0255  0.2995 -1.8087
  159SAPE   H7Y17751   1.742  -0.141   3.734  0.8423 -0.2646 -0.2496
  159SAPE   C3817752   1.611  -0.301   3.704 -0.3324 -0.3848 -0.2708
  159SAPE   H8X17753   1.685  -0.379   3.730 -2.9410 -1.5774  5.0677
  159SAPE   H8Y17754   1.555  -0.343   3.618  1.0727 -0.4552 -1.1736
  159SAPE   C3917755   1.516  -0.261   3.821 -0.3518  0.3736 -0.2602
  159SAPE   H9X17756   1.437  -0.339   3.826  0.2334 -0.1651  0.8853
  159SAPE   H9Y17757   1.475  -0.162   3.790 -1.1882 -0.0533 -0.5432
  159SAPE  C31017758   1.586  -0.270   3.958 -0.0683  0.3826 -0.0356
  159SAPE  H10X17759   1.680  -0.211   3.951  0.2466  0.6771  4.0622
  159SAPE  H10Y17760   1.617  -0.374   3.980 -1.1453 -0.0862 -0.6276
  159SAPE  C31117761   1.507  -0.211   4.084 -0.2780 -0.1956  0.3510
  159SAPE  H11X17762   1.411  -0.259   4.110 -0.2971  0.7396  2.1052
  159SAPE  H11Y17763   1.489  -0.106   4.054 -1.0391  0.1055  1.7906
  159SAPE  C31217764   1.596  -0.205   4.205  0.7564  0.3627  0.2189
  159SAPE  H12X17765   1.604  -0.308   4.245 -2.0583  0.5289  1.4403
  159SAPE  H12Y17766   1.542  -0.153   4.287 -0.6324  0.3736 -0.6735
  159SAPE  C31317767   1.730  -0.132   4.196 -0.2234  0.0619 -0.3401
  159SAPE  H13X17768   1.719  -0.035   4.143  2.3932  1.3103  1.1871
  159SAPE  H13Y17769   1.792  -0.200   4.134  1.2036  1.4580 -0.4952
  159SAPE  C31417770   1.814  -0.123   4.324 -0.3518  0.2824 -0.5096
  159SAPE  H14X17771   1.837  -0.223   4.368 -1.9657  1.7442  4.1394
  159SAPE  H14Y17772   1.747  -0.073   4.396  2.7339  1.0327  2.1064
  159SAPE  C31517773   1.950  -0.047   4.320  0.3647  0.0600 -0.1814
  159SAPE  H15X17774   1.942   0.062   4.304  1.2136  0.0699 -0.5994
  159SAPE  H15Y17775   2.005  -0.098   4.238 -0.7326 -0.6829 -0.4810
  159SAPE  C31617776   2.044  -0.069   4.444 -0.0825  0.5066  0.2252
  159SAPE  H16X17777   2.152  -0.055   4.419  0.1874  1.2063  1.6418
  159SAPE  H16Y17778   2.040  -0.174   4.478 -0.2590  0.3440 -0.2900
  159SAPE  C31717779   2.004   0.024   4.552 -0.1465  0.0522 -0.6893
  159SAPE  H17X17780   1.897   0.002   4.571 -0.4269 -0.2631 -2.4552
  159SAPE  H17Y17781   2.017   0.127   4.512  3.2629  0.6090  1.4202
  159SAPE  C31817782   2.095   0.009   4.676 -0.3095  0.1778 -0.1237
  159SAPE  H18X17783   2.042   0.068   4.754  1.6188  0.9986  0.6007
  159SAPE  H18Y17784   2.189   0.067   4.665  0.5606 -1.0707  0.5081
  159SAPE  H18Z17785   2.114  -0.097   4.704  2.4318  0.5663 -0.2922
  160SAPE     N17786   1.682   5.313   2.655 -0.2206  0.7401  0.2282
  160SAPE   HN117787   1.726   5.379   2.588  1.1003  0.1448  0.4614
  160SAPE   HN217788   1.646   5.235   2.597  0.0454  0.8696 -0.1149
  160SAPE   HN317789   1.609   5.357   2.714 -0.0094  1.6697 -0.1831
  160SAPE   C1217790   1.771   5.260   2.759 -0.1253 -0.5889  0.7573
  160SAPE  H12A17791   1.809   5.336   2.830  2.2374 -1.4116  0.4779
  160SAPE  H12B17792   1.853   5.213   2.700  1.1640  1.7005  0.6466
  160SAPE   C1117793   1.701   5.157   2.848  0.2786 -0.2451  0.2069
  160SAPE  H11A17794   1.622   5.211   2.904 -0.7881 -1.1346 -0.3923
  160SAPE  H11B17795   1.772   5.115   2.922 -0.0825  0.1946  0.8154
  160SAPE     P17796   1.700   4.932   2.715 -0.3507  0.1750  0.2117
  160SAPE   O1317797   1.597   4.845   2.656  0.0330  0.2154 -0.1964
  160SAPE   O1417798   1.809   4.969   2.630  0.5259 -0.2860  0.2746
  160SAPE   O1217799   1.627   5.063   2.769 -0.2513 -0.2406 -0.0108
  160SAPE   O1117800   1.757   4.867   2.846 -0.3478 -0.2959  0.2540
  160SAPE    C117801   1.701   4.754   2.914  0.0522 -0.0382 -0.4671
  160SAPE    HA17802   1.649   4.682   2.846  0.7362  0.5953 -1.6935
  160SAPE    HB17803   1.787   4.691   2.945 -0.9558 -1.7950 -1.1069
  160SAPE    C217804   1.613   4.786   3.041 -0.1022  0.7212  0.4094
  160SAPE    HS17805   1.524   4.838   3.001 -0.7179  0.6825  1.7015
  160SAPE   O2117806   1.689   4.873   3.132 -0.5586 -0.9651  0.3497
  160SAPE   C2117807   1.630   4.980   3.174  0.3949  0.0259  0.5283
  160SAPE   O2217808   1.523   5.025   3.131  0.1213 -0.6604 -0.2478
  160SAPE   C2217809   1.719   5.047   3.282 -0.2575 -0.1455 -0.2962
  160SAPE   H2R17810   1.709   4.985   3.373  2.3608 -0.7068 -0.3061
  160SAPE   H2S17811   1.823   5.031   3.247  0.5006 -1.0685  2.2014
  160SAPE    C317812   1.556   4.670   3.121  0.0873  0.7862  0.0315
  160SAPE    HX17813   1.484   4.612   3.060 -2.2047  1.0725  2.2903
  160SAPE    HY17814   1.500   4.704   3.211  1.5639 -0.9553  1.7168
  160SAPE   O3117815   1.660   4.580   3.160  0.1213 -0.0287 -0.0643
  160SAPE   C3117816   1.679   4.569   3.291 -0.2986  0.8059 -0.1097
  160SAPE   O3217817   1.622   4.631   3.376  0.1784 -0.1878 -0.1182
  160SAPE   C3217818   1.808   4.479   3.319  0.6837  0.2559  0.0668
  160SAPE   H2X17819   1.892   4.527   3.264  0.6754 -0.7504 -0.8703
  160SAPE   H2Y17820   1.794   4.378   3.275 -0.9290  0.4854  0.0028
  160SAPE   C2317821   1.694   5.198   3.307 -0.3738 -0.0558 -0.0023
  160SAPE   H3R17822   1.595   5.208   3.357 -2.9298  0.0021 -4.5174
  160SAPE   H3S17823   1.679   5.239   3.205  0.1669  1.0436  0.3475
  160SAPE   C2417824   1.813   5.262   3.381  0.2316 -0.5577 -0.6748
  160SAPE   H4R17825   1.907   5.244   3.324  0.9372  0.6765  0.0735
  160SAPE   H4S17826   1.820   5.211   3.479 -0.1865 -0.4064 -0.5639
  160SAPE   C2517827   1.798   5.413   3.393 -0.5887  0.3045 -0.2297
  160SAPE   H5R17828   1.821   5.467   3.300 -2.0021 -0.2475 -0.9285
  160SAPE   C2617829   1.775   5.490   3.498 -0.3512 -0.7971 -0.1828
  160SAPE   H6R17830   1.758   5.596   3.476 -3.4529 -1.7681 -3.5256
  160SAPE   C2717831   1.732   5.446   3.634  0.4910 -0.2773 -0.6878
  160SAPE   H7R17832   1.717   5.338   3.651 -1.1177 -0.0393 -0.4392
  160SAPE   H7S17833   1.631   5.491   3.649  1.6056  3.6656 -3.3870
  160SAPE   C2817834   1.834   5.495   3.736  0.0568  0.5655  0.4850
  160SAPE   H8R17835   1.932   5.520   3.692  0.6093 -0.4806  1.0502
  160SAPE   C2917836   1.809   5.524   3.857  0.2622 -1.1008  0.0644
  160SAPE   H9R17837   1.891   5.568   3.916  2.2342 -2.6069 -1.3647
  160SAPE  C21017838   1.677   5.519   3.932 -0.1754 -0.7354  0.0081
  160SAPE  H10R17839   1.658   5.425   3.989 -1.6172 -0.8070 -0.5329
  160SAPE  H10S17840   1.601   5.513   3.851  0.6431  2.7828 -1.2176
  160SAPE  C21117841   1.626   5.646   4.009 -0.7990 -0.1049  0.6242
  160SAPE  H11R17842   1.571   5.726   3.956 -0.2989  1.8256  2.8269
  160SAPE  C21217843   1.638   5.668   4.140 -0.2755 -0.3839  0.1062
  160SAPE  H12R17844   1.604   5.761   4.188  0.6110 -0.1263  0.2579
  160SAPE  C21317845   1.723   5.578   4.231 -0.6933  0.3527 -0.1903
  160SAPE  H13R17846   1.766   5.501   4.164  1.3342  1.0820  0.2154
  160SAPE  H13S17847   1.660   5.527   4.307  0.1384  1.4488  1.2743
  160SAPE  C21417848   1.838   5.644   4.306  0.1523  0.0059  0.3620
  160SAPE  H14R17849   1.889   5.726   4.252  0.5378 -0.7543 -0.4523
  160SAPE  C21517850   1.886   5.589   4.421  0.2562  0.1187 -0.5078
  160SAPE  H15R17851   1.969   5.648   4.461 -0.2219  0.8400 -0.5574
  160SAPE  C21617852   1.840   5.466   4.490  0.3463  0.1456  0.3397
  160SAPE  H16R17853   1.892   5.376   4.452 -1.6640 -1.9188  2.1348
  160SAPE  H16S17854   1.730   5.457   4.479  0.3727 -0.2414  0.3766
  160SAPE  C21717855   1.867   5.463   4.642  0.4696 -0.5704  0.3069
  160SAPE  H17R17856   1.822   5.559   4.675  0.0726 -0.7672  0.3329
  160SAPE  H17S17857   1.976   5.453   4.665  0.7070 -0.9976 -0.9309
  160SAPE  C21817858   1.810   5.351   4.727  0.4194  0.3930  0.6079
  160SAPE  H18R17859   1.858   5.265   4.675 -0.5483  0.8551 -1.1143
  160SAPE  H18S17860   1.701   5.331   4.722  0.7855 -1.6215 -0.9000
  160SAPE  C21917861   1.855   5.360   4.871  0.3856 -0.1055  0.2829
  160SAPE  H19R17862   1.774   5.317   4.934 -2.1490  2.6356 -0.8915
  160SAPE  H19S17863   1.856   5.468   4.896  3.1693  0.1417 -0.4877
  160SAPE  C22017864   1.996   5.295   4.894  0.9126 -0.5643 -0.3931
  160SAPE  H20R17865   1.991   5.189   4.861  2.4712 -1.3855  1.7871
  160SAPE  H20S17866   2.010   5.290   5.004  0.0405  1.9331 -0.1044
  160SAPE  H20T17867   2.069   5.356   4.837  0.5986  2.5448  2.2379
  160SAPE   C3317868   1.847   4.483   3.471 -0.3187 -0.1678  0.2603
  160SAPE   H3X17869   1.781   4.406   3.516  3.4000 -1.4155  4.2988
  160SAPE   H3Y17870   1.834   4.583   3.517  2.8430  1.0672 -1.2268
  160SAPE   C3417871   1.988   4.432   3.487 -0.2962  0.3160  0.9420
  160SAPE   H4X17872   2.043   4.493   3.411 -0.6650 -2.1760 -1.5071
  160SAPE   H4Y17873   1.994   4.326   3.455 -0.8630  0.0549  1.6780
  160SAPE   C3517874   2.057   4.450   3.625  0.3922  0.3450 -0.4234
  160SAPE   H5X17875   2.057   4.560   3.639  1.8274  0.4257 -0.9165
  160SAPE   H5Y17876   2.163   4.419   3.615  0.2892  0.3026 -1.5759
  160SAPE   C3617877   1.985   4.368   3.734  0.6036  0.2580  0.1511
  160SAPE   H6X17878   1.985   4.265   3.692  1.4382  0.4859 -0.4249
  160SAPE   H6Y17879   1.882   4.399   3.762 -0.0108  1.0542 -2.6767
  160SAPE   C3717880   2.077   4.371   3.864  1.0600  0.2242  0.3466
  160SAPE   H7X17881   2.183   4.350   3.837  1.2223  0.8890  0.4438
  160SAPE   H7Y17882   2.036   4.291   3.929 -1.6061  1.6613  0.5756
  160SAPE   C3817883   2.052   4.500   3.943 -0.2935 -0.6289  0.0649
  160SAPE   H8X17884   1.944   4.524   3.951 -0.1815 -0.3057  0.6348
  160SAPE   H8Y17885   2.087   4.585   3.881 -0.5939 -1.1708 -0.8615
  160SAPE   C3917886   2.108   4.491   4.086  0.1529 -0.2270 -0.3680
  160SAPE   H9X17887   2.096   4.594   4.127  1.2878  0.3550 -1.4271
  160SAPE   H9Y17888   2.215   4.461   4.079  0.2897  0.5177 -1.9415
  160SAPE  C31017889   2.018   4.406   4.180 -0.1348 -0.0350 -0.2501
  160SAPE  H10X17890   2.025   4.298   4.154 -1.8769 -0.2141 -0.1080
  160SAPE  H10Y17891   1.912   4.438   4.191 -0.0644  1.0037 -2.1259
  160SAPE  C31117892   2.071   4.412   4.325 -0.0432 -0.0177 -0.1629
  160SAPE  H11X17893   2.042   4.511   4.365  0.3727  0.0439 -0.0126
  160SAPE  H11Y17894   2.182   4.407   4.331  0.1987  0.7074 -2.6768
  160SAPE  C31217895   2.003   4.307   4.423  0.2293 -0.4221 -0.5139
  160SAPE  H12X17896   2.027   4.200   4.403  1.6352 -0.3936  0.8947
  160SAPE  H12Y17897   1.895   4.320   4.399 -0.0357 -1.0254  0.2979
  160SAPE  C31317898   2.041   4.327   4.576 -0.2829  0.9128 -0.1160
  160SAPE  H13X17899   1.983   4.256   4.638  1.4763  0.3946  1.0118
  160SAPE  H13Y17900   2.023   4.434   4.603  3.2708  1.9103 -1.0891
  160SAPE  C31417901   2.191   4.319   4.608  0.4650  0.5920 -0.6238
  160SAPE  H14X17902   2.234   4.400   4.546  0.4168  1.0569 -0.0608
  160SAPE  H14Y17903   2.226   4.225   4.560  0.7080  0.8720 -1.0053
  160SAPE  C31517904   2.225   4.346   4.761  0.1797  0.0174  0.2601
  160SAPE  H15X17905   2.331   4.380   4.771 -0.1152  0.9470  0.2899
  160SAPE  H15Y17906   2.208   4.251   4.815 -0.1154 -0.4675 -0.6754
  160SAPE  C31617907   2.156   4.457   4.839  0.6277  0.0132  0.8422
  160SAPE  H16X17908   2.046   4.444   4.853  0.0723  3.5342  0.6882
  160SAPE  H16Y17909   2.180   4.549   4.782  2.6305 -1.1689 -0.3333
  160SAPE  C31717910   2.217   4.496   4.973  0.7786  0.2451 -0.4138
  160SAPE  H17X17911   2.325   4.521   4.966  1.2604 -1.9698 -2.2059
  160SAPE  H17Y17912   2.220   4.406   5.039  0.0723  1.5588  1.4848
  160SAPE  C31817913   2.142   4.615   5.040  0.5737 -0.2839 -1.1934
  160SAPE  H18X17914   2.052   4.585   5.098 -0.0158  2.1888 -0.7281
  160SAPE  H18Y17915   2.108   4.675   4.953 -2.0364  1.2560  0.7579
  160SAPE  H18Z17916   2.201   4.677   5.110 -3.1070  1.8636  0.3169
  161SAPE     N17917   6.286   5.624   2.565  0.0623  0.5762  0.2060
  161SAPE   HN117918   6.255   5.716   2.529  0.3884  0.9206  0.7823
  161SAPE   HN217919   6.379   5.601   2.525  0.9551 -0.4772  2.6808
  161SAPE   HN317920   6.212   5.555   2.538 -1.3233  1.8940  0.5209
  161SAPE   C1217921   6.302   5.629   2.715  0.0586 -0.0828  0.7363
  161SAPE  H12A17922   6.410   5.631   2.741  0.3563  1.5484 -0.3999
  161SAPE  H12B17923   6.248   5.540   2.751 -0.0455 -0.4763 -0.3632
  161SAPE   C1117924   6.233   5.751   2.780 -0.2881 -1.1046 -0.2345
  161SAPE  H11A17925   6.249   5.730   2.887 -1.0879 -1.7031 -0.2236
  161SAPE  H11B17926   6.127   5.745   2.746 -0.0352  0.8744 -1.5618
  161SAPE     P17927   6.216   6.016   2.772 -0.8262  0.2693  0.2904
  161SAPE   O1317928   6.249   6.113   2.659 -0.2598  0.8018 -0.4710
  161SAPE   O1417929   6.076   5.976   2.781 -0.3224 -0.3041  0.2680
  161SAPE   O1217930   6.303   5.878   2.751  0.6365  0.1902  0.0267
  161SAPE   O1117931   6.253   6.077   2.915  0.0145  0.4841  0.1702
  161SAPE    C117932   6.289   5.996   3.026 -0.1682 -0.1361  0.0943
  161SAPE    HA17933   6.366   5.924   2.991  0.1444 -1.3228  2.9673
  161SAPE    HB17934   6.345   6.059   3.099  0.8502  0.9668 -1.5695
  161SAPE    C217935   6.174   5.925   3.084  0.6148 -0.2503  0.2535
  161SAPE    HS17936   6.109   5.877   3.008 -0.8461 -1.0028  1.9089
  161SAPE   O2117937   6.093   6.017   3.161 -0.1333 -0.4069 -0.3929
  161SAPE   C2117938   5.959   6.000   3.181  0.0045 -0.5030  0.3869
  161SAPE   O2217939   5.895   5.910   3.134  0.6735 -0.3487  0.0466
  161SAPE   C2217940   5.917   6.129   3.250  0.4659 -0.3257  0.7511
  161SAPE   H2R17941   5.971   6.131   3.347 -0.9732  0.0743  1.5839
  161SAPE   H2S17942   5.940   6.214   3.181  0.2435 -1.4478 -0.7579
  161SAPE    C317943   6.229   5.816   3.180  0.5211  0.5904  0.5079
  161SAPE    HX17944   6.303   5.749   3.130  2.6657  4.2306 -1.6450
  161SAPE    HY17945   6.139   5.754   3.200 -0.2322  1.2166 -0.8209
  161SAPE   O3117946   6.297   5.870   3.294 -0.1435 -0.3645 -0.4046
  161SAPE   C3117947   6.222   5.903   3.395 -0.4546  0.2449  0.2285
  161SAPE   O3217948   6.099   5.893   3.405  0.0148 -0.6195  0.2996
  161SAPE   C3217949   6.315   5.959   3.505  1.0234  0.2798 -0.6396
  161SAPE   H2X17950   6.369   6.049   3.471 -0.7781  1.1810 -1.2280
  161SAPE   H2Y17951   6.388   5.882   3.538  0.1027 -0.0200  0.8083
  161SAPE   C2317952   5.764   6.128   3.290  0.7259  0.3461  0.2800
  161SAPE   H3R17953   5.699   6.121   3.200  0.8572  2.7314 -0.0727
  161SAPE   H3S17954   5.750   6.229   3.333  0.0573  0.7149 -0.7485
  161SAPE   C2417955   5.712   6.008   3.379  0.2223  0.1858  0.1239
  161SAPE   H4R17956   5.718   5.917   3.316  1.3100  1.8570 -2.3605
  161SAPE   H4S17957   5.603   6.021   3.396 -0.4653 -2.9489 -1.2015
  161SAPE   C2517958   5.786   5.990   3.504 -0.0484 -0.7266 -0.3161
  161SAPE   H5R17959   5.895   5.980   3.492 -0.0082 -0.7574  0.0697
  161SAPE   C2617960   5.742   5.973   3.633  0.1050  0.0866 -0.4400
  161SAPE   H6R17961   5.812   5.953   3.715 -0.2246  0.4490 -0.0589
  161SAPE   C2717962   5.594   5.973   3.678 -0.5780 -0.2421  0.1243
  161SAPE   H7R17963   5.520   5.983   3.595  0.0296 -0.8706 -0.5112
  161SAPE   H7S17964   5.568   6.064   3.736 -0.7750 -0.0257 -0.2966
  161SAPE   C2817965   5.553   5.859   3.765 -0.0007 -0.6939 -0.3770
  161SAPE   H8R17966   5.493   5.786   3.708 -0.1997 -0.0427 -1.0183
  161SAPE   C2917967   5.593   5.831   3.891 -0.0467 -0.2281  0.9289
  161SAPE   H9R17968   5.534   5.750   3.936  0.0017 -1.7829 -1.6061
  161SAPE  C21017969   5.669   5.929   3.980  0.2614 -0.2219 -0.5127
  161SAPE  H10R17970   5.624   6.030   3.974  0.5991  0.1155  1.6060
  161SAPE  H10S17971   5.773   5.939   3.945  0.3207 -0.1730 -0.3229
  161SAPE  C21117972   5.668   5.881   4.123  0.1747  0.1035 -1.3315
  161SAPE  H11R17973   5.756   5.819   4.148 -1.0685 -2.0040 -1.9027
  161SAPE  C21217974   5.577   5.911   4.225 -0.9619 -0.2655 -0.3111
  161SAPE  H12R17975   5.597   5.875   4.327 -1.0059  2.2901  0.6646
  161SAPE  C21317976   5.464   5.998   4.200  0.0418 -0.4720 -0.0878
  161SAPE  H13R17977   5.392   5.949   4.131 -1.0397 -0.7502  1.2104
  161SAPE  H13S17978   5.506   6.082   4.140  0.0205  1.6193  2.6067
  161SAPE  C21417979   5.383   6.054   4.317 -0.5400 -0.0198 -0.1569
  161SAPE  H14R17980   5.375   6.163   4.320  1.4315  0.1440  1.1046
  161SAPE  C21517981   5.324   5.993   4.421  0.7648  0.3231  0.3081
  161SAPE  H15R17982   5.278   6.051   4.503 -2.1849 -1.1464 -0.1721
  161SAPE  C21617983   5.311   5.843   4.431 -0.5575 -0.3671 -0.3893
  161SAPE  H16R17984   5.323   5.795   4.332  1.8309 -0.1332 -0.2712
  161SAPE  H16S17985   5.206   5.816   4.455  0.4346 -2.0151  2.7009
  161SAPE  C21717986   5.391   5.764   4.534  0.2638 -0.5945 -0.2345
  161SAPE  H17R17987   5.488   5.816   4.545 -0.3069  0.5681 -0.5391
  161SAPE  H17S17988   5.401   5.660   4.495 -1.5989 -0.7350 -0.4426
  161SAPE  C21817989   5.327   5.754   4.673  0.8101  0.3416 -0.5329
  161SAPE  H18R17990   5.219   5.732   4.662  1.1753 -1.9562 -0.0835
  161SAPE  H18S17991   5.336   5.854   4.722  0.0462 -0.5107  1.4364
  161SAPE  C21917992   5.381   5.637   4.761 -0.1740  0.1334 -0.3521
  161SAPE  H19R17993   5.342   5.635   4.865 -0.3232  0.0436 -0.4090
  161SAPE  H19S17994   5.488   5.667   4.769 -0.5470  0.9417  2.3807
  161SAPE  C22017995   5.381   5.498   4.699  1.1269 -0.5024  0.2283
  161SAPE  H20R17996   5.421   5.495   4.596  0.7477 -0.2462  0.0720
  161SAPE  H20S17997   5.284   5.445   4.697  1.4116 -1.0000 -1.6476
  161SAPE  H20T17998   5.449   5.430   4.755  1.6330  0.6029  0.9957
  161SAPE   C3317999   6.245   6.006   3.639 -0.1817 -0.2033  0.2226
  161SAPE   H3X18000   6.152   6.066   3.626  0.0712  0.1481  0.0225
  161SAPE   H3Y18001   6.319   6.063   3.698 -1.6293 -0.2397  2.1553
  161SAPE   C3418002   6.215   5.883   3.723 -0.3578 -0.3428 -0.1782
  161SAPE   H4X18003   6.292   5.803   3.722 -0.8006 -0.7692 -0.2001
  161SAPE   H4Y18004   6.120   5.842   3.681 -1.2765  1.4693  0.0184
  161SAPE   C3518005   6.189   5.916   3.874 -0.0773 -0.4398 -0.6966
  161SAPE   H5X18006   6.158   6.023   3.872  0.0113 -0.3988 -0.0118
  161SAPE   H5Y18007   6.283   5.909   3.932  1.8172 -1.5185 -3.6743
  161SAPE   C3618008   6.078   5.836   3.932  0.7293 -0.2343 -0.1339
  161SAPE   H6X18009   6.091   5.727   3.916 -0.1190 -0.5171  1.0113
  161SAPE   H6Y18010   5.984   5.866   3.882  1.5055  1.2870 -0.7654
  161SAPE   C3718011   6.056   5.866   4.085 -0.3125  0.2200 -0.2265
  161SAPE   H7X18012   6.144   5.833   4.144  1.1914  3.7045 -0.3162
  161SAPE   H7Y18013   5.973   5.796   4.111  0.8699 -1.2863 -0.3392
  161SAPE   C3818014   6.020   6.004   4.133  0.3702 -0.5363  0.1306
  161SAPE   H8X18015   5.918   6.030   4.097  0.1907  1.5719  1.8917
  161SAPE   H8Y18016   6.088   6.082   4.093 -1.7152  2.1603  1.4372
  161SAPE   C3918017   6.031   6.026   4.284  0.5512  0.5167  0.0071
  161SAPE   H9X18018   5.998   6.128   4.310 -0.3569  0.3011 -0.2631
  161SAPE   H9Y18019   6.136   6.021   4.320  1.0932  0.3504 -1.5105
  161SAPE  C31018020   5.940   5.926   4.369 -0.0743 -0.5734  0.0044
  161SAPE  H10X18021   5.956   5.818   4.348 -2.2494 -0.8073 -0.6829
  161SAPE  H10Y18022   5.835   5.953   4.342  0.3503  1.5554  0.3380
  161SAPE  C31118023   5.957   5.949   4.522  0.1810 -0.2491 -0.6181
  161SAPE  H11X18024   5.944   6.059   4.537 -2.3780 -0.3133 -1.7921
  161SAPE  H11Y18025   6.052   5.913   4.566  0.1884 -0.3227 -0.6934
  161SAPE  C31218026   5.848   5.877   4.602  0.0985  0.1860 -0.1931
  161SAPE  H12X18027   5.843   5.771   4.572  0.1730  0.6668 -2.0611
  161SAPE  H12Y18028   5.747   5.917   4.579 -0.6540 -0.0622  2.3865
  161SAPE  C31318029   5.869   5.900   4.748  0.4892  0.2535 -0.0202
  161SAPE  H13X18030   5.886   6.008   4.771 -1.5131  0.7159 -0.5188
  161SAPE  H13Y18031   5.945   5.836   4.796 -1.3847 -0.8533  1.6363
  161SAPE  C31418032   5.742   5.853   4.828 -0.3259  0.1905  0.3034
  161SAPE  H14X18033   5.745   5.742   4.835  0.5403 -0.0074 -2.1569
  161SAPE  H14Y18034   5.644   5.872   4.779  0.5209 -0.0495 -1.6016
  161SAPE  C31518035   5.751   5.925   4.963  0.4669  0.0285  0.1867
  161SAPE  H15X18036   5.739   6.035   4.956 -1.8851  0.0516  2.8178
  161SAPE  H15Y18037   5.851   5.909   5.008 -0.3087  0.3852  2.1326
  161SAPE  C31618038   5.647   5.874   5.066 -0.4461  0.6759  0.0612
  161SAPE  H16X18039   5.666   5.911   5.169  1.2735  2.1275 -0.7297
  161SAPE  H16Y18040   5.667   5.765   5.078  2.6230  1.0039 -1.2214
  161SAPE  C31718041   5.495   5.895   5.036 -0.1818  0.3117 -0.5862
  161SAPE  H17X18042   5.467   5.833   4.948 -0.3755 -0.6649  0.1513
  161SAPE  H17Y18043   5.477   6.002   5.016  0.3822  0.8748  1.6595
  161SAPE  C31818044   5.406   5.862   5.154 -0.6927 -0.4126 -0.0845
  161SAPE  H18X18045   5.301   5.897   5.140 -1.6214 -2.4894  1.0780
  161SAPE  H18Y18046   5.442   5.918   5.243  0.0121  1.9563 -1.7876
  161SAPE  H18Z18047   5.403   5.753   5.177 -1.5955 -0.2116  0.8257
  162SAPE     N18048   0.692   3.749   2.536 -0.0084 -0.6217 -0.4915
  162SAPE   HN118049   0.634   3.667   2.562 -0.1325 -0.5775 -0.6259
  162SAPE   HN218050   0.704   3.811   2.618 -3.8181 -1.3482  0.8126
  162SAPE   HN318051   0.644   3.799   2.459 -2.3392 -1.1328  0.5505
  162SAPE   C1218052   0.820   3.701   2.489  0.1923 -0.1908 -0.1385
  162SAPE  H12A18053   0.898   3.775   2.518 -1.5449  0.1822  4.5657
  162SAPE  H12B18054   0.816   3.686   2.379  0.1493 -0.8025 -0.0556
  162SAPE   C1118055   0.853   3.568   2.570 -0.0160  0.4718  0.8368
  162SAPE  H11A18056   0.856   3.597   2.677  2.8131  1.8742  0.4785
  162SAPE  H11B18057   0.956   3.534   2.546 -0.0731 -0.9446  2.3986
  162SAPE     P18058   0.644   3.415   2.626 -0.3505  0.2105 -0.2776
  162SAPE   O1318059   0.571   3.307   2.563 -0.2404 -0.1074  1.0936
  162SAPE   O1418060   0.693   3.390   2.763 -0.3798  0.1199 -0.0203
  162SAPE   O1218061   0.762   3.468   2.531  0.0569  0.3025 -0.1677
  162SAPE   O1118062   0.544   3.536   2.622  0.6030 -0.1422 -0.0251
  162SAPE    C118063   0.399   3.522   2.599  0.3396  0.6749  0.0483
  162SAPE    HA18064   0.368   3.612   2.542 -2.3710 -1.3055 -1.8545
  162SAPE    HB18065   0.376   3.437   2.532 -0.2032 -0.0513  1.1104
  162SAPE    C218066   0.317   3.497   2.735 -0.5503  0.1266 -0.3987
  162SAPE    HS18067   0.215   3.540   2.724  0.3166  2.4898  0.1440
  162SAPE   O2118068   0.385   3.551   2.852  0.4490 -0.5554  0.1884
  162SAPE   C2118069   0.407   3.679   2.862 -0.0868  0.6895 -0.0234
  162SAPE   O2218070   0.381   3.760   2.776 -0.0814 -0.6465 -0.6158
  162SAPE   C2218071   0.478   3.710   2.992  0.7234 -0.1645  0.6165
  162SAPE   H2R18072   0.439   3.636   3.065 -0.0813  0.5615  0.9290
  162SAPE   H2S18073   0.588   3.699   2.980  0.4592 -0.1437 -2.3075
  162SAPE    C318074   0.285   3.348   2.749  0.0551  0.5359  0.2902
  162SAPE    HX18075   0.383   3.297   2.745  0.8717  1.8460  2.1373
  162SAPE    HY18076   0.218   3.311   2.669  1.2072  0.3131 -0.5943
  162SAPE   O3118077   0.230   3.313   2.884  0.2110  0.3081  0.0367
  162SAPE   C3118078   0.228   3.178   2.900 -0.5583  0.1673 -0.2173
  162SAPE   O3218079   0.243   3.094   2.809  0.2765 -0.0718  0.4219
  162SAPE   C3218080   0.204   3.138   3.043 -0.3524  0.3403 -0.0420
  162SAPE   H2X18081   0.168   3.033   3.046 -4.4170  1.5791  1.2209
  162SAPE   H2Y18082   0.113   3.197   3.068 -2.2140 -2.7952  1.2538
  162SAPE   C2318083   0.466   3.856   3.048 -0.0506  0.3333  0.1933
  162SAPE   H3R18084   0.356   3.869   3.053 -0.0313  1.2161 -1.1356
  162SAPE   H3S18085   0.498   3.931   2.973 -1.9004  1.8147  0.8007
  162SAPE   C2418086   0.522   3.867   3.190 -0.1767 -0.8271  0.2254
  162SAPE   H4R18087   0.476   3.779   3.242 -2.3857  0.2123  0.1632
  162SAPE   H4S18088   0.475   3.948   3.250  0.2342 -1.3212  1.2411
  162SAPE   C2518089   0.671   3.865   3.186 -0.5828  0.1709  0.6308
  162SAPE   H5R18090   0.706   3.782   3.122  0.1470  1.1977 -0.3318
  162SAPE   C2618091   0.755   3.960   3.217  0.5917 -0.5311  0.2779
  162SAPE   H6R18092   0.865   3.955   3.207  1.2309  1.3419  4.3167
  162SAPE   C2718093   0.718   4.075   3.302  0.2846 -0.9888  0.6001
  162SAPE   H7R18094   0.610   4.101   3.312  0.3665 -0.9521  1.4743
  162SAPE   H7S18095   0.766   4.168   3.263 -0.1937 -0.7514  0.5656
  162SAPE   C2818096   0.783   4.054   3.437 -0.5900  0.2160 -0.4571
  162SAPE   H8R18097   0.893   4.051   3.435 -0.5796 -2.6286 -0.2405
  162SAPE   C2918098   0.725   3.998   3.543 -0.0050 -0.2022  0.1888
  162SAPE   H9R18099   0.780   3.991   3.638 -0.9066 -5.1058  0.5798
  162SAPE  C21018100   0.580   3.969   3.561 -0.5893 -0.3110  0.3361
  162SAPE  H10R18101   0.564   3.872   3.612  0.0995  0.2501  1.6699
  162SAPE  H10S18102   0.536   3.935   3.465  0.5476 -1.9474  0.3594
  162SAPE  C21118103   0.496   4.080   3.614 -0.5457  0.0001 -0.5680
  162SAPE  H11R18104   0.457   4.144   3.534  2.2736  1.2695 -1.0331
  162SAPE  C21218105   0.464   4.098   3.744  0.2193 -0.5127 -0.2524
  162SAPE  H12R18106   0.394   4.181   3.765  0.2713 -0.6557  0.5114
  162SAPE  C21318107   0.504   4.007   3.853  0.7611  0.2347 -0.4328
  162SAPE  H13R18108   0.600   4.049   3.892  2.0794 -0.3735 -2.8315
  162SAPE  H13S18109   0.526   3.905   3.815 -3.4785 -0.3840 -1.7678
  162SAPE  C21418110   0.399   3.999   3.961  0.0447  0.1119 -0.6278
  162SAPE  H14R18111   0.311   3.938   3.933  0.0644 -0.3827  0.3272
  162SAPE  C21518112   0.403   4.043   4.090  0.6514 -0.6229 -0.3245
  162SAPE  H15R18113   0.314   4.019   4.149  1.5712 -2.7839  0.2584
  162SAPE  C21618114   0.520   4.110   4.160  0.2795 -0.8357  0.0629
  162SAPE  H16R18115   0.619   4.068   4.134  1.1020  0.8487  0.3690
  162SAPE  H16S18116   0.511   4.089   4.269  1.0977 -0.5373  0.1930
  162SAPE  C21718117   0.524   4.258   4.139  0.1319 -0.5418  0.5930
  162SAPE  H17R18118   0.421   4.300   4.150  0.1221 -0.6710  1.0247
  162SAPE  H17S18119   0.549   4.287   4.035 -0.9784  2.0197  0.9508
  162SAPE  C21818120   0.614   4.331   4.241  0.3063  0.0371 -0.2793
  162SAPE  H18R18121   0.644   4.428   4.197  0.3812  1.0337  1.8338
  162SAPE  H18S18122   0.698   4.267   4.275 -1.0232 -1.9686 -0.5894
  162SAPE  C21918123   0.537   4.372   4.368  0.8394 -0.7163  0.0096
  162SAPE  H19R18124   0.484   4.281   4.405  0.2074  0.6233  2.6554
  162SAPE  H19S18125   0.455   4.436   4.329  0.7842 -0.9774 -0.3070
  162SAPE  C22018126   0.611   4.431   4.491 -0.5743  0.6472 -0.6094
  162SAPE  H20R18127   0.683   4.512   4.463 -0.6903  1.2533  0.7824
  162SAPE  H20S18128   0.681   4.351   4.523  0.2335  0.6008 -2.3711
  162SAPE  H20T18129   0.549   4.466   4.576  0.0492  1.5316 -0.4956
  162SAPE   C3318130   0.317   3.167   3.144 -0.5736 -0.6932  0.4190
  162SAPE   H3X18131   0.420   3.132   3.119 -0.2867  0.4966 -0.1411
  162SAPE   H3Y18132   0.296   3.113   3.238  1.1117 -2.4244 -0.1224
  162SAPE   C3418133   0.321   3.317   3.176 -0.0405  0.1726 -0.5456
  162SAPE   H4X18134   0.226   3.343   3.227  0.3083  0.8600 -0.2334
  162SAPE   H4Y18135   0.339   3.370   3.080  0.6685 -0.6396 -0.8730
  162SAPE   C3518136   0.434   3.346   3.280  0.3577  0.1810 -0.3722
  162SAPE   H5X18137   0.422   3.452   3.314  1.1601 -0.5576  2.5240
  162SAPE   H5Y18138   0.533   3.337   3.231  0.4554  2.5527 -0.7515
  162SAPE   C3618139   0.417   3.275   3.411 -0.1445 -0.2415 -0.4223
  162SAPE   H6X18140   0.411   3.165   3.398  0.0767 -0.6236  2.1791
  162SAPE   H6Y18141   0.319   3.304   3.456 -0.0064  0.6244 -0.6625
  162SAPE   C3718142   0.522   3.291   3.518 -0.6150 -0.1301 -0.8622
  162SAPE   H7X18143   0.539   3.388   3.569 -3.5167 -1.7129  3.8305
  162SAPE   H7Y18144   0.620   3.266   3.473  1.6109  2.1237  2.3087
  162SAPE   C3818145   0.494   3.187   3.633  0.1242 -0.3105 -0.3477
  162SAPE   H8X18146   0.479   3.084   3.594 -1.8322 -0.2244  0.0692
  162SAPE   H8Y18147   0.397   3.215   3.680 -1.3523  0.7845 -3.6640
  162SAPE   C3918148   0.597   3.204   3.747  0.2499  0.5433  0.2293
  162SAPE   H9X18149   0.610   3.311   3.774  2.6882 -0.2368  2.5432
  162SAPE   H9Y18150   0.697   3.170   3.712  1.2491  3.3035  0.1167
  162SAPE  C31018151   0.555   3.148   3.887  0.5332 -0.1907 -1.0029
  162SAPE  H10X18152   0.549   3.037   3.887  0.3109 -0.2366  1.3540
  162SAPE  H10Y18153   0.450   3.179   3.905  0.3518 -1.2467 -0.1282
  162SAPE  C31118154   0.644   3.192   4.001  0.1260 -0.4145 -0.5007
  162SAPE  H11X18155   0.643   3.303   4.010 -0.4049 -0.4615  0.0717
  162SAPE  H11Y18156   0.747   3.156   3.977  0.8894 -1.6349  3.7571
  162SAPE  C31218157   0.609   3.149   4.142  0.9351 -0.2539 -0.3428
  162SAPE  H12X18158   0.649   3.048   4.165  1.6562  0.4590  1.6479
  162SAPE  H12Y18159   0.500   3.135   4.159  1.2905  0.2177  2.9523
  162SAPE  C31318160   0.644   3.250   4.250 -0.5969 -0.1076  0.6520
  162SAPE  H13X18161   0.558   3.319   4.266 -1.5461 -1.5601  2.0832
  162SAPE  H13Y18162   0.737   3.304   4.220 -0.1667 -1.9877 -1.6899
  162SAPE  C31418163   0.678   3.182   4.385  0.1615 -0.1706  0.2347
  162SAPE  H14X18164   0.727   3.252   4.456  2.4819 -1.6611  0.1785
  162SAPE  H14Y18165   0.742   3.094   4.367  1.3517  0.5313  0.9249
  162SAPE  C31518166   0.546   3.129   4.454 -0.2462 -0.8169 -0.0902
  162SAPE  H15X18167   0.482   3.088   4.373  0.7735 -0.6882 -0.9885
  162SAPE  H15Y18168   0.488   3.214   4.494  0.9774 -1.4785  3.4092
  162SAPE  C31618169   0.578   3.032   4.558 -0.5002  0.2807 -0.2679
  162SAPE  H16X18170   0.666   3.067   4.616  1.5078 -2.0069 -1.7035
  162SAPE  H16Y18171   0.602   2.933   4.513  1.3518  0.8502 -0.6126
  162SAPE  C31718172   0.466   3.014   4.661 -0.0445 -0.2438  0.4262
  162SAPE  H17X18173   0.371   3.009   4.604  0.1916 -0.7311  0.0652
  162SAPE  H17Y18174   0.468   3.107   4.722 -1.2655  0.9948 -1.3252
  162SAPE  C31818175   0.482   2.897   4.755  0.8233  0.7985  0.6230
  162SAPE  H18X18176   0.580   2.908   4.807  0.8627  0.4149  0.6307
  162SAPE  H18Y18177   0.487   2.799   4.703 -0.4406  0.0294  1.8678
  162SAPE  H18Z18178   0.399   2.893   4.830 -0.0317 -1.3588 -0.3586
  163SAPE     N18179   6.190   2.140   2.660 -0.5826  0.0017 -0.3365
  163SAPE   HN118180   6.154   2.079   2.736 -0.8639  0.5017 -0.0642
  163SAPE   HN218181   6.181   2.240   2.686 -2.6343  0.3255 -1.9794
  163SAPE   HN318182   6.133   2.126   2.574  1.9605 -1.4856 -1.9041
  163SAPE   C1218183   6.337   2.110   2.630 -0.0565  0.6863  0.4367
  163SAPE  H12A18184   6.395   2.157   2.713  2.8297  1.2254 -1.7308
  163SAPE  H12B18185   6.377   2.163   2.541  0.4861  0.3263  0.4597
  163SAPE   C1118186   6.342   1.958   2.625  1.1241  0.6866  0.7607
  163SAPE  H11A18187   6.449   1.925   2.622  0.1438 -3.0584 -2.5073
  163SAPE  H11B18188   6.297   1.920   2.531  2.0823 -1.0211  0.9345
  163SAPE     P18189   6.290   1.746   2.777  0.0309 -0.2495 -0.0941
  163SAPE   O1318190   6.165   1.678   2.738  0.1388  0.1451 -0.0485
  163SAPE   O1418191   6.415   1.688   2.725 -0.0508 -0.4095  1.0713
  163SAPE   O1218192   6.282   1.896   2.738  0.1721  0.9597 -0.3124
  163SAPE   O1118193   6.287   1.762   2.934  0.3093 -0.1789 -0.0088
  163SAPE    C118194   6.400   1.718   3.004  0.1929 -0.6797  0.0998
  163SAPE    HA18195   6.418   1.609   2.998 -1.2532 -1.0453  1.8059
  163SAPE    HB18196   6.494   1.770   2.973  0.5202 -1.4614 -0.2367
  163SAPE    C218197   6.387   1.737   3.159 -0.4853 -0.0281  0.0912
  163SAPE    HS18198   6.486   1.710   3.200 -1.4851 -0.4314  2.3528
  163SAPE   O2118199   6.280   1.653   3.207  0.5530  0.1883 -0.1812
  163SAPE   C2118200   6.310   1.618   3.331  0.1292  0.2802  0.4752
  163SAPE   O2218201   6.402   1.667   3.395  1.3528  0.2634  0.7399
  163SAPE   C2218202   6.218   1.495   3.365 -0.8634 -0.6709  0.0180
  163SAPE   H2R18203   6.113   1.531   3.360  0.2754  2.8590 -3.2492
  163SAPE   H2S18204   6.234   1.418   3.286 -0.5141 -1.8905  1.2561
  163SAPE    C318205   6.353   1.881   3.202 -0.4327 -0.5334 -0.6877
  163SAPE    HX18206   6.355   1.889   3.313  1.5411 -0.7982 -0.6635
  163SAPE    HY18207   6.247   1.899   3.173 -0.1862  1.5913 -0.4613
  163SAPE   O3118208   6.441   1.978   3.150  0.1921  0.1921 -0.3272
  163SAPE   C3118209   6.401   2.065   3.061  0.2434 -0.3256  0.5493
  163SAPE   O3218210   6.287   2.089   3.030  0.0393 -0.2137  0.3850
  163SAPE   C3218211   6.526   2.146   3.009  0.3185  0.0061  0.4297
  163SAPE   H2X18212   6.500   2.163   2.902  0.1758 -2.4764  0.0016
  163SAPE   H2Y18213   6.617   2.082   3.005 -1.2404 -2.4088  1.2562
  163SAPE   C2318214   6.248   1.442   3.508  0.2027  1.0319  0.2666
  163SAPE   H3R18215   6.269   1.519   3.586  0.9855  0.2238  0.8810
  163SAPE   H3S18216   6.343   1.389   3.486 -1.4982 -2.5600  0.7360
  163SAPE   C2418217   6.138   1.340   3.555  0.0177  0.2336  0.6018
  163SAPE   H4R18218   6.098   1.299   3.460 -0.5014  0.7660  0.5917
  163SAPE   H4S18219   6.060   1.396   3.610 -1.0442  0.9208 -1.5030
  163SAPE   C2518220   6.204   1.227   3.634 -0.0481 -0.4829  0.5195
  163SAPE   H5R18221   6.301   1.190   3.598 -0.0884 -3.3962  2.9359
  163SAPE   C2618222   6.194   1.199   3.765 -0.4009  0.5312  0.5853
  163SAPE   H6R18223   6.254   1.115   3.803 -1.2874 -1.2632 -1.7464
  163SAPE   C2718224   6.106   1.270   3.864  0.1986  0.0274  0.5293
  163SAPE   H7R18225   6.099   1.377   3.833  0.8743 -0.2076 -0.5044
  163SAPE   H7S18226   6.152   1.266   3.965  1.5588 -1.2518 -0.0997
  163SAPE   C2818227   5.964   1.219   3.858  0.2361  0.3926  0.1167
  163SAPE   H8R18228   5.940   1.153   3.773 -1.3658  0.0355  0.8214
  163SAPE   C2918229   5.872   1.237   3.956 -0.0974 -0.3639  0.3857
  163SAPE   H9R18230   5.770   1.197   3.945 -0.6255  1.3802 -1.8540
  163SAPE  C21018231   5.890   1.327   4.078 -0.4901  0.4785  0.6354
  163SAPE  H10R18232   5.790   1.362   4.112 -0.3616  0.7353  0.7529
  163SAPE  H10S18233   5.934   1.423   4.043  1.9745  0.0226  2.2212
  163SAPE  C21118234   5.982   1.268   4.179 -0.8514 -0.6811  0.2761
  163SAPE  H11R18235   6.087   1.268   4.149 -0.2602  2.3041  1.9414
  163SAPE  C21218236   5.961   1.264   4.309  0.5617 -0.4896 -0.4090
  163SAPE  H12R18237   6.042   1.243   4.381  0.5008  0.2162 -0.1313
  163SAPE  C21318238   5.823   1.265   4.368 -0.0086  0.7705  0.1499
  163SAPE  H13R18239   5.758   1.326   4.301  0.2524  2.1123  1.0947
  163SAPE  H13S18240   5.824   1.325   4.461  1.0718  1.7530 -0.4777
  163SAPE  C21418241   5.762   1.131   4.391 -0.5563  0.3399  0.2611
  163SAPE  H14R18242   5.785   1.039   4.335 -2.4474 -1.0832  1.6715
  163SAPE  C21518243   5.675   1.108   4.487 -0.2528 -0.5901 -0.2702
  163SAPE  H15R18244   5.631   1.009   4.508  0.4040 -0.8149  0.0638
  163SAPE  C21618245   5.629   1.210   4.591 -0.1739 -0.0824 -0.5157
  163SAPE  H16R18246   5.628   1.314   4.551  1.8498  0.5108  0.8554
  163SAPE  H16S18247   5.715   1.210   4.661  1.6663  1.4982 -2.6021
  163SAPE  C21718248   5.494   1.188   4.655  0.0639 -0.0061 -0.9019
  163SAPE  H17R18249   5.507   1.106   4.730 -0.3240  1.7530  1.2077
  163SAPE  H17S18250   5.410   1.167   4.586 -1.4365 -1.8611  1.3278
  163SAPE  C21818251   5.455   1.302   4.752 -0.2506  0.3050  0.4838
  163SAPE  H18R18252   5.345   1.314   4.760  0.0353  4.6015  0.5210
  163SAPE  H18S18253   5.492   1.395   4.703  0.5162 -0.3752 -0.2599
  163SAPE  C21918254   5.506   1.280   4.896  0.0355  0.8519 -0.3374
  163SAPE  H19R18255   5.617   1.274   4.898 -0.0360 -2.2762  1.2026
  163SAPE  H19S18256   5.476   1.182   4.938  1.5485  0.3551 -0.3458
  163SAPE  C22018257   5.446   1.384   4.990 -0.1400  0.2299 -0.5339
  163SAPE  H20R18258   5.337   1.364   5.000  0.3450 -1.9108  1.2486
  163SAPE  H20S18259   5.467   1.488   4.957  0.7141 -0.0357 -0.8416
  163SAPE  H20T18260   5.503   1.374   5.085  2.2578 -0.1712 -1.9367
  163SAPE   C3318261   6.560   2.283   3.064  0.0328  0.0176 -0.5799
  163SAPE   H3X18262   6.467   2.341   3.049  0.9952  1.7542 -0.1324
  163SAPE   H3Y18263   6.644   2.340   3.018 -0.4384 -0.8542 -2.6376
  163SAPE   C3418264   6.592   2.282   3.217 -0.5671 -0.2193  0.2212
  163SAPE   H4X18265   6.496   2.251   3.262 -0.1616  0.7611  1.8807
  163SAPE   H4Y18266   6.610   2.387   3.249  0.5331 -0.3014 -0.0777
  163SAPE   C3518267   6.719   2.209   3.251  0.5154  0.1916 -0.1239
  163SAPE   H5X18268   6.802   2.250   3.190  1.5892  0.1442  1.2458
  163SAPE   H5Y18269   6.707   2.101   3.228  2.5555 -0.2613  0.6602
  163SAPE   C3618270   6.756   2.238   3.393 -0.0610 -0.0599  0.0006
  163SAPE   H6X18271   6.761   2.348   3.405 -1.5724  0.0034  0.2734
  163SAPE   H6Y18272   6.850   2.189   3.427  1.7789  1.6527 -2.3162
  163SAPE   C3718273   6.647   2.187   3.489  1.3200  0.1867  0.1544
  163SAPE   H7X18274   6.623   2.079   3.478 -1.6104  0.2298  3.7692
  163SAPE   H7Y18275   6.550   2.239   3.473  0.5648 -0.1895  2.8798
  163SAPE   C3818276   6.683   2.228   3.633 -0.2175  0.0560 -0.8873
  163SAPE   H8X18277   6.715   2.334   3.636  1.3584 -0.4167  2.0920
  163SAPE   H8Y18278   6.777   2.172   3.651  0.0956  0.2344 -1.8979
  163SAPE   C3918279   6.575   2.195   3.736  0.1189 -0.3929  1.0702
  163SAPE   H9X18280   6.575   2.084   3.742  0.6336 -0.6765 -2.3396
  163SAPE   H9Y18281   6.478   2.229   3.693  1.3050 -0.2292 -1.7245
  163SAPE  C31018282   6.593   2.248   3.879  0.9409  0.6327  0.7915
  163SAPE  H10X18283   6.493   2.237   3.924  1.1112 -0.3296  0.9481
  163SAPE  H10Y18284   6.605   2.358   3.872 -1.5561  0.9124  0.0466
  163SAPE  C31118285   6.706   2.177   3.947 -0.0118  0.1462  0.2541
  163SAPE  H11X18286   6.800   2.200   3.893 -0.1128  2.2165  0.8657
  163SAPE  H11Y18287   6.705   2.067   3.936  2.2910  0.2317 -1.7088
  163SAPE  C31218288   6.711   2.211   4.091  0.3018  0.0230  0.1560
  163SAPE  H12X18289   6.685   2.318   4.105 -0.1768 -0.1166  0.3667
  163SAPE  H12Y18290   6.813   2.196   4.131  0.8704  0.8425 -0.9325
  163SAPE  C31318291   6.620   2.130   4.178 -0.9777  0.5271 -0.2406
  163SAPE  H13X18292   6.644   2.022   4.168  0.9335  0.7800  1.1813
  163SAPE  H13Y18293   6.515   2.145   4.143 -0.3954  0.5443 -2.0901
  163SAPE  C31418294   6.625   2.149   4.327 -0.4496 -0.2423  0.0122
  163SAPE  H14X18295   6.606   2.257   4.347  1.4440 -0.1152  1.4109
  163SAPE  H14Y18296   6.729   2.135   4.363 -0.1904  0.6214 -0.3861
  163SAPE  C31518297   6.534   2.065   4.421 -0.2742  0.4308  0.0608
  163SAPE  H15X18298   6.535   1.960   4.383  2.0620  0.7309 -0.8922
  163SAPE  H15Y18299   6.429   2.101   4.426 -0.0423  1.4227 -1.5475
  163SAPE  C31618300   6.576   2.062   4.571  0.1949 -0.0056  0.1748
  163SAPE  H16X18301   6.576   2.170   4.595 -1.6880  0.2309 -0.6633
  163SAPE  H16Y18302   6.677   2.020   4.588  0.5269  1.1446  1.1389
  163SAPE  C31718303   6.494   1.973   4.671 -0.0844  0.0867 -0.0324
  163SAPE  H17X18304   6.462   1.880   4.618  0.0098  0.7740 -1.3386
  163SAPE  H17Y18305   6.404   2.027   4.705 -2.3043 -2.4262 -1.5071
  163SAPE  C31818306   6.573   1.933   4.798 -0.3080 -0.5000 -0.5814
  163SAPE  H18X18307   6.533   1.848   4.858  2.2164 -0.8261  0.7748
  163SAPE  H18Y18308   6.591   2.019   4.866 -1.7020 -1.0087  0.4891
  163SAPE  H18Z18309   6.673   1.894   4.769  0.4768  1.1041 -0.1556
  164SAPE     N18310   3.372   6.362   2.591  0.1668 -0.2798 -0.0396
  164SAPE   HN118311   3.363   6.439   2.522  0.7850  1.2455  1.5230
  164SAPE   HN218312   3.412   6.399   2.679  0.9344 -0.0454 -0.4854
  164SAPE   HN318313   3.441   6.291   2.559  2.2697  0.3194  2.7886
  164SAPE   C1218314   3.236   6.296   2.616  0.5343 -0.2202  0.7838
  164SAPE  H12A18315   3.256   6.187   2.610  3.1102  0.0426  2.9033
  164SAPE  H12B18316   3.163   6.325   2.537  1.9417  1.9959  0.2000
  164SAPE   C1118317   3.184   6.335   2.754  0.0494  0.4471  0.3370
  164SAPE  H11A18318   3.083   6.289   2.755  0.3994 -0.3706  2.5384
  164SAPE  H11B18319   3.180   6.446   2.752 -0.1871  0.4504  0.8354
  164SAPE     P18320   3.253   6.353   3.009 -0.6491  0.0113  0.1202
  164SAPE   O1318321   3.203   6.252   3.096  0.1711 -0.0431 -0.2281
  164SAPE   O1418322   3.383   6.408   3.045  0.1189 -0.3461  0.0276
  164SAPE   O1218323   3.273   6.298   2.864  0.8278 -0.3132 -0.0394
  164SAPE   O1118324   3.153   6.479   2.985  0.0118  0.6497  0.5600
  164SAPE    C118325   3.186   6.608   3.033 -0.1557  0.0602  0.3162
  164SAPE    HA18326   3.290   6.633   3.004  1.3515 -3.9217  1.5930
  164SAPE    HB18327   3.113   6.668   2.975 -0.6463 -0.9518 -0.1364
  164SAPE    C218328   3.166   6.627   3.186  0.5261 -0.8765 -0.6350
  164SAPE    HS18329   3.220   6.543   3.233 -0.4536 -1.7043 -0.9585
  164SAPE   O2118330   3.025   6.641   3.213 -0.0468  0.2436 -0.3839
  164SAPE   C2118331   2.987   6.578   3.319  0.3085 -0.4069 -0.1058
  164SAPE   O2218332   3.055   6.536   3.413  0.3283 -0.3175  0.4899
  164SAPE   C2218333   2.831   6.566   3.312  0.2142  0.2336 -0.2638
  164SAPE   H2R18334   2.790   6.669   3.307  0.5717  0.6257  3.0079
  164SAPE   H2S18335   2.806   6.516   3.216  3.5455 -0.6392 -0.8141
  164SAPE    C318336   3.245   6.757   3.232  0.5043 -0.1389  0.2261
  164SAPE    HX18337   3.192   6.843   3.186 -0.4321 -0.0294  1.4667
  164SAPE    HY18338   3.350   6.748   3.197  0.3706 -0.0589 -0.1977
  164SAPE   O3118339   3.244   6.780   3.377  0.6753 -0.2080 -0.1205
  164SAPE   C3118340   3.328   6.702   3.449  0.2351 -0.6594  0.1527
  164SAPE   O3218341   3.422   6.641   3.407  0.0970  0.8020 -0.5934
  164SAPE   C3218342   3.283   6.704   3.596  0.8159 -0.0187  0.1198
  164SAPE   H2X18343   3.338   6.624   3.650 -1.3430 -0.1810  2.2446
  164SAPE   H2Y18344   3.174   6.686   3.594  0.7447  0.4318 -1.9022
  164SAPE   C2318345   2.769   6.491   3.441  0.3301 -0.7460 -0.4985
  164SAPE   H3R18346   2.839   6.421   3.491 -0.6883  0.2990  2.5871
  164SAPE   H3S18347   2.678   6.431   3.416  1.6925 -2.2248 -2.3058
  164SAPE   C2418348   2.730   6.597   3.552  0.0574 -1.2035 -0.0172
  164SAPE   H4R18349   2.677   6.538   3.629 -0.3447 -0.6796  0.1115
  164SAPE   H4S18350   2.657   6.669   3.510  0.5114 -0.2842  0.7246
  164SAPE   C2518351   2.839   6.681   3.617 -0.3324 -0.5000 -0.2058
  164SAPE   H5R18352   2.927   6.704   3.556 -0.2141 -4.4888 -1.8644
  164SAPE   C2618353   2.836   6.738   3.739  0.4185  0.2144  0.2238
  164SAPE   H6R18354   2.927   6.789   3.775  1.4941  0.5291 -2.6927
  164SAPE   C2718355   2.716   6.711   3.833 -0.2501 -0.0666 -0.4046
  164SAPE   H7R18356   2.679   6.607   3.837  0.4233 -0.2722  2.4127
  164SAPE   H7S18357   2.627   6.769   3.802 -0.0008  1.4409  1.5044
  164SAPE   C2818358   2.737   6.741   3.981 -0.4263 -0.2852 -0.7789
  164SAPE   H8R18359   2.810   6.670   4.023  0.9535  1.1243 -0.6995
  164SAPE   C2918360   2.696   6.841   4.058 -0.3042  0.2852  0.7998
  164SAPE   H9R18361   2.713   6.828   4.166  0.7478 -0.1520  0.5881
  164SAPE  C21018362   2.612   6.958   4.007 -0.3048  0.3498  0.0302
  164SAPE  H10R18363   2.515   6.959   4.061  0.4707 -3.2100  1.7830
  164SAPE  H10S18364   2.584   6.949   3.900  0.9702  0.7613 -0.3603
  164SAPE  C21118365   2.705   7.072   4.046 -0.3576 -0.1598  0.2486
  164SAPE  H11R18366   2.802   7.085   3.994 -0.8076 -1.6390 -1.0313
  164SAPE  C21218367   2.670   7.163   4.149 -0.3057 -0.0906  0.4194
  164SAPE  H12R18368   2.743   7.240   4.179  0.3220 -0.3764 -0.3323
  164SAPE  C21318369   2.552   7.157   4.240 -0.1632 -0.2772  0.3679
  164SAPE  H13R18370   2.578   7.216   4.330 -0.1223  2.7867 -1.4959
  164SAPE  H13S18371   2.537   7.053   4.276  1.0947 -0.9960 -1.0884
  164SAPE  C21418372   2.434   7.216   4.184 -0.2088  0.1338 -0.4202
  164SAPE  H14R18373   2.449   7.313   4.133  1.5015  0.8964  1.4005
  164SAPE  C21518374   2.313   7.157   4.176 -0.4269  0.3719 -0.0535
  164SAPE  H15R18375   2.233   7.223   4.140  0.1687  0.4149 -1.3635
  164SAPE  C21618376   2.273   7.028   4.226  0.4960 -0.4608  0.1612
  164SAPE  H16R18377   2.183   7.036   4.290 -0.1004 -0.2611 -0.6795
  164SAPE  H16S18378   2.354   6.986   4.290  0.5032  0.3097  0.6619
  164SAPE  C21718379   2.229   6.936   4.103  0.6986  0.2642 -0.2571
  164SAPE  H17R18380   2.190   6.841   4.145 -1.9872  0.9589 -0.9842
  164SAPE  H17S18381   2.322   6.915   4.048  1.0545 -0.3844  0.5740
  164SAPE  C21818382   2.115   7.002   4.013  0.4605  1.3846  0.9963
  164SAPE  H18R18383   2.164   7.092   3.970  2.3407 -0.0789 -0.0672
  164SAPE  H18S18384   2.023   7.026   4.071 -0.6110 -0.2696  0.0557
  164SAPE  C21918385   2.073   6.907   3.889  0.7630 -0.2631 -0.4740
  164SAPE  H19R18386   2.159   6.885   3.821  1.2372  1.3027 -0.4047
  164SAPE  H19S18387   2.003   6.962   3.823 -0.0275  0.3939  0.8640
  164SAPE  C22018388   2.001   6.775   3.938  0.2064 -0.0528  0.8241
  164SAPE  H20R18389   1.908   6.801   3.992  1.2413 -1.1405  3.3017
  164SAPE  H20S18390   2.071   6.719   4.004 -0.5099 -1.8465  0.1137
  164SAPE  H20T18391   1.979   6.708   3.852 -0.0837  0.1460  0.7450
  164SAPE   C3318392   3.310   6.844   3.669 -0.0185  0.2914  0.5085
  164SAPE   H3X18393   3.255   6.922   3.612  1.5320  1.1283  0.1257
  164SAPE   H3Y18394   3.416   6.875   3.659  0.5257 -1.6487 -0.4821
  164SAPE   C3418395   3.273   6.843   3.817 -0.0453 -0.0481 -0.0628
  164SAPE   H4X18396   3.329   6.758   3.862  0.4927  0.1573 -0.3349
  164SAPE   H4Y18397   3.164   6.823   3.819  0.2149 -1.6251  2.4787
  164SAPE   C3518398   3.304   6.969   3.900 -0.1251  0.4672 -0.0544
  164SAPE   H5X18399   3.235   7.054   3.885 -0.1214  0.9229  2.1853
  164SAPE   H5Y18400   3.410   6.999   3.884 -0.0577 -0.0687 -0.6788
  164SAPE   C3618401   3.286   6.953   4.055  0.2400 -0.6134  0.0069
  164SAPE   H6X18402   3.323   7.046   4.104 -0.2810 -0.6767  0.5434
  164SAPE   H6Y18403   3.346   6.868   4.094  1.4192  0.3987  0.4685
  164SAPE   C3718404   3.142   6.918   4.095  0.1000  0.4700  0.6385
  164SAPE   H7X18405   3.110   6.826   4.042 -2.6719  1.3771  0.5242
  164SAPE   H7Y18406   3.076   7.001   4.061 -0.0562  0.3685  0.6915
  164SAPE   C3818407   3.136   6.900   4.248 -1.0078 -0.8363 -0.3550
  164SAPE   H8X18408   3.179   6.981   4.310  0.4373 -0.0981 -2.2277
  164SAPE   H8Y18409   3.197   6.808   4.258  1.6369  0.6712 -1.5267
  164SAPE   C3918410   2.991   6.870   4.294 -0.9160 -0.3022  0.3133
  164SAPE   H9X18411   2.950   6.786   4.233 -1.5061  1.4535 -1.8445
  164SAPE   H9Y18412   2.931   6.961   4.273  0.2842  0.3846 -0.2612
  164SAPE  C31018413   2.963   6.816   4.437 -0.6165  0.5798  0.3698
  164SAPE  H10X18414   2.857   6.784   4.431 -1.1806  2.0868  1.6220
  164SAPE  H10Y18415   2.969   6.892   4.518 -0.6344 -0.1894  1.1069
  164SAPE  C31118416   3.043   6.686   4.474  0.4287  0.3859 -0.6558
  164SAPE  H11X18417   3.151   6.700   4.450  0.7136 -1.1275 -0.4132
  164SAPE  H11Y18418   3.010   6.604   4.407 -1.9445 -0.3517  1.2870
  164SAPE  C31218419   3.019   6.641   4.616 -0.2596 -1.2235 -0.2818
  164SAPE  H12X18420   2.909   6.633   4.629 -0.2114 -2.3281 -0.4095
  164SAPE  H12Y18421   3.070   6.715   4.680  0.8179 -2.1381 -0.0478
  164SAPE  C31318422   3.081   6.503   4.647  0.2750  0.1137  0.7332
  164SAPE  H13X18423   3.191   6.504   4.631  0.7741  0.8594  3.6263
  164SAPE  H13Y18424   3.023   6.426   4.591 -0.1306  0.4901  0.6383
  164SAPE  C31418425   3.072   6.465   4.798 -0.2961 -0.0612  0.0466
  164SAPE  H14X18426   2.963   6.454   4.819 -0.3675 -0.8645 -0.6957
  164SAPE  H14Y18427   3.129   6.534   4.865 -0.0574 -1.3480  1.2183
  164SAPE  C31518428   3.111   6.318   4.815 -0.0780  0.6230 -0.5745
  164SAPE  H15X18429   3.221   6.309   4.831 -0.2283 -0.9794 -0.3016
  164SAPE  H15Y18430   3.097   6.257   4.723 -1.0953 -0.0770  0.0198
  164SAPE  C31618431   3.058   6.246   4.935 -0.1235  0.8241  0.6939
  164SAPE  H16X18432   2.948   6.259   4.933  0.0833  3.2458  1.7848
  164SAPE  H16Y18433   3.089   6.298   5.028 -1.2718 -0.5868  1.9062
  164SAPE  C31718434   3.094   6.101   4.934 -0.3062  0.0642  0.3480
  164SAPE  H17X18435   3.098   6.070   4.827 -1.7438 -0.0597  0.3118
  164SAPE  H17Y18436   3.027   6.040   4.999  1.7240 -1.7965  0.8298
  164SAPE  C31818437   3.230   6.068   5.002  0.0484 -0.4232  0.4756
  164SAPE  H18X18438   3.248   6.142   5.082 -0.0365 -0.7046  0.7560
  164SAPE  H18Y18439   3.306   6.086   4.923 -0.2649 -0.6068  0.1235
  164SAPE  H18Z18440   3.237   5.967   5.048 -0.2986 -0.2902  0.8280
  165SAPE     N18441   2.003   0.645   2.699 -0.1271  0.2293  0.0057
  165SAPE   HN118442   2.093   0.618   2.655 -1.3083 -1.5594 -1.4270
  165SAPE   HN218443   1.921   0.602   2.654  1.1867 -2.5965  0.0934
  165SAPE   HN318444   1.985   0.746   2.719 -3.3267 -0.2830  0.0968
  165SAPE   C1218445   2.007   0.558   2.828 -0.0873 -0.2774  0.0103
  165SAPE  H12A18446   2.004   0.451   2.800  2.6024 -0.6983  1.0205
  165SAPE  H12B18447   1.919   0.591   2.886 -0.8028  2.0841 -2.2188
  165SAPE   C1118448   2.145   0.564   2.898 -0.5599 -0.0077  0.2685
  165SAPE  H11A18449   2.131   0.503   2.990  0.3868  0.1591  0.5325
  165SAPE  H11B18450   2.165   0.668   2.929  2.6334 -0.3941 -0.2302
  165SAPE     P18451   2.335   0.586   2.715 -0.4239 -0.5378 -0.0013
  165SAPE   O1318452   2.452   0.505   2.670 -0.6447 -0.3797 -0.6335
  165SAPE   O1418453   2.253   0.650   2.611 -0.7321 -0.2636  0.1851
  165SAPE   O1218454   2.246   0.507   2.811  0.0658 -0.5730  0.1083
  165SAPE   O1118455   2.395   0.703   2.802 -0.1489  0.0139 -0.4218
  165SAPE    C118456   2.510   0.694   2.884  0.0837 -0.1388  0.0579
  165SAPE    HA18457   2.560   0.597   2.866 -0.5212 -0.0933 -2.1129
  165SAPE    HB18458   2.583   0.777   2.866  1.4314 -1.3878 -0.4750
  165SAPE    C218459   2.476   0.711   3.040 -0.6588 -0.8828 -0.0820
  165SAPE    HS18460   2.569   0.729   3.098 -0.7503  0.6743 -0.3547
  165SAPE   O2118461   2.416   0.594   3.094 -0.0366 -0.7448 -0.5713
  165SAPE   C2118462   2.496   0.489   3.108 -0.5572  0.2033 -0.1175
  165SAPE   O2218463   2.614   0.486   3.095 -1.0813 -0.6229  0.0211
  165SAPE   C2218464   2.404   0.369   3.154  0.6252  0.4815  0.3877
  165SAPE   H2R18465   2.347   0.408   3.240 -2.0236  0.4715 -1.2529
  165SAPE   H2S18466   2.328   0.355   3.075  0.4143 -1.3322  0.8671
  165SAPE    C318467   2.386   0.833   3.054  0.6845 -0.4899 -0.2342
  165SAPE    HX18468   2.301   0.844   2.983  0.4686 -0.8851 -0.0417
  165SAPE    HY18469   2.452   0.920   3.036  1.1901 -0.0352  3.2294
  165SAPE   O3118470   2.355   0.855   3.194  0.6855  0.4190  0.2789
  165SAPE   C3118471   2.229   0.832   3.229 -0.3661 -0.0834  0.2987
  165SAPE   O3218472   2.144   0.792   3.150  0.4047  0.0394 -0.4019
  165SAPE   C3218473   2.208   0.869   3.374 -0.3790  0.1834  0.1863
  165SAPE   H2X18474   2.194   0.770   3.422  1.8624  0.4357  1.5130
  165SAPE   H2Y18475   2.112   0.926   3.378  0.6351  2.0248 -0.6539
  165SAPE   C2318476   2.471   0.241   3.184 -0.0887 -0.5945 -0.6873
  165SAPE   H3R18477   2.525   0.203   3.095 -2.7266 -0.0557 -2.6656
  165SAPE   H3S18478   2.404   0.159   3.218  1.5001 -0.5663  3.0273
  165SAPE   C2418479   2.577   0.264   3.300  0.2194  0.4627  0.2409
  165SAPE   H4R18480   2.522   0.314   3.383 -1.6735 -0.2936 -0.4916
  165SAPE   H4S18481   2.664   0.325   3.267  0.9442 -0.7338 -0.1105
  165SAPE   C2518482   2.625   0.127   3.346 -0.5291 -0.4870  0.2150
  165SAPE   H5R18483   2.543   0.061   3.379 -0.7585 -0.3552 -0.0913
  165SAPE   C2618484   2.755   0.083   3.366  0.1619 -0.7265 -0.7636
  165SAPE   H6R18485   2.762  -0.012   3.420  2.7686  0.4922  1.2355
  165SAPE   C2718486   2.890   0.148   3.346 -0.2704 -0.4096  0.1442
  165SAPE   H7R18487   2.880   0.259   3.342 -1.0436 -0.2023  4.0073
  165SAPE   H7S18488   2.923   0.109   3.247  0.9573  0.6117  0.1311
  165SAPE   C2818489   2.987   0.113   3.453 -1.0357 -0.5594  0.3758
  165SAPE   H8R18490   3.072   0.054   3.417 -0.4231  1.2155 -1.2546
  165SAPE   C2918491   2.972   0.137   3.582 -0.0265 -0.3643  0.2781
  165SAPE   H9R18492   3.039   0.073   3.641  1.0779  0.0039 -0.5427
  165SAPE  C21018493   2.861   0.212   3.656  0.2053 -0.1482 -0.1526
  165SAPE  H10R18494   2.862   0.173   3.760  3.7381 -0.1806 -0.0770
  165SAPE  H10S18495   2.759   0.170   3.642 -0.0352 -0.0493  1.2109
  165SAPE  C21118496   2.857   0.365   3.658 -0.3638  0.2048 -0.4012
  165SAPE  H11R18497   2.795   0.406   3.577 -1.1398 -0.0401  0.0628
  165SAPE  C21218498   2.921   0.445   3.740 -0.2318 -0.2560 -0.5285
  165SAPE  H12R18499   2.900   0.551   3.723 -0.8492  0.1019  1.9954
  165SAPE  C21318500   3.001   0.405   3.868 -0.2204 -0.2549 -0.0022
  165SAPE  H13R18501   3.059   0.311   3.856 -1.5584 -0.9227 -1.7767
  165SAPE  H13S18502   2.940   0.383   3.958  0.4854 -1.1346  0.2777
  165SAPE  C21418503   3.102   0.515   3.902 -0.4277 -0.3953 -0.3309
  165SAPE  H14R18504   3.200   0.517   3.853  0.9591 -2.9687  2.0712
  165SAPE  C21518505   3.065   0.620   3.987 -0.7753 -0.2777  0.8935
  165SAPE  H15R18506   3.146   0.686   4.022  1.3687 -1.5276 -1.3602
  165SAPE  C21618507   2.935   0.642   4.061  0.0352 -0.1579  0.0648
  165SAPE  H16R18508   2.950   0.679   4.165  0.8314 -1.3899  0.4009
  165SAPE  H16S18509   2.889   0.543   4.082  0.2752 -0.5855 -1.3467
  165SAPE  C21718510   2.843   0.742   3.982 -0.1098  0.2382 -0.4280
  165SAPE  H17R18511   2.837   0.706   3.878  0.5224 -2.3431  0.3607
  165SAPE  H17S18512   2.884   0.845   3.991 -1.5016  0.8262 -0.5914
  165SAPE  C21818513   2.697   0.721   4.031  0.4313 -0.0205 -0.5775
  165SAPE  H18R18514   2.698   0.756   4.137  0.1673 -0.9632 -0.2575
  165SAPE  H18S18515   2.665   0.615   4.035 -1.6712  0.6014  0.3258
  165SAPE  C21918516   2.603   0.804   3.951  0.7068  0.1986  0.1893
  165SAPE  H19R18517   2.625   0.784   3.844 -2.6406  2.6587 -1.1265
  165SAPE  H19S18518   2.618   0.913   3.966 -3.9501  1.1481 -0.4840
  165SAPE  C22018519   2.454   0.776   3.982 -0.5065  0.4916 -0.2795
  165SAPE  H20R18520   2.395   0.773   3.888 -1.7520  0.7943  0.4785
  165SAPE  H20S18521   2.414   0.853   4.051  3.0051  0.2226  2.4008
  165SAPE  H20T18522   2.440   0.677   4.032 -0.9576  0.7753  0.1683
  165SAPE   C3318523   2.322   0.940   3.453  0.6948 -0.2165 -0.2155
  165SAPE   H3X18524   2.342   1.037   3.404 -0.1335 -0.3794 -0.9009
  165SAPE   H3Y18525   2.417   0.884   3.440  1.4070  1.0263 -0.4899
  165SAPE   C3418526   2.276   0.945   3.598  0.8060 -0.1075 -0.7719
  165SAPE   H4X18527   2.289   0.844   3.643  1.1137  0.6432  0.8945
  165SAPE   H4Y18528   2.166   0.962   3.604  0.8647 -0.1013  0.5479
  165SAPE   C3518529   2.355   1.058   3.668 -0.7311 -0.1891 -0.1485
  165SAPE   H5X18530   2.343   1.150   3.607 -0.3308 -0.4582 -0.6389
  165SAPE   H5Y18531   2.458   1.016   3.658 -1.2126 -1.4978  0.1902
  165SAPE   C3618532   2.329   1.079   3.818  0.4733  0.0412 -0.0430
  165SAPE   H6X18533   2.317   0.980   3.867 -1.6829  0.3024  0.0373
  165SAPE   H6Y18534   2.225   1.118   3.818  0.2377 -0.5515  0.4283
  165SAPE   C3718535   2.432   1.166   3.887  0.5737 -0.0726 -0.1774
  165SAPE   H7X18536   2.423   1.265   3.838  2.5305 -0.3001 -1.0940
  165SAPE   H7Y18537   2.540   1.146   3.871  0.7050  1.4798 -1.5371
  165SAPE   C3818538   2.407   1.181   4.034  0.0771 -0.4418 -0.5130
  165SAPE   H8X18539   2.492   1.235   4.082  0.3211 -2.0516  0.9808
  165SAPE   H8Y18540   2.398   1.086   4.091 -0.3521 -0.9598 -1.4299
  165SAPE   C3918541   2.283   1.269   4.054 -0.4985  0.2440  0.2449
  165SAPE   H9X18542   2.186   1.226   4.022 -0.0223  0.6572 -1.8797
  165SAPE   H9Y18543   2.306   1.364   4.001 -0.7540  0.4449  0.4933
  165SAPE  C31018544   2.262   1.319   4.199 -0.3852 -0.0629  0.6905
  165SAPE  H10X18545   2.168   1.377   4.198 -1.2873 -1.4332 -1.7581
  165SAPE  H10Y18546   2.338   1.397   4.221 -1.1063  0.5925  0.8722
  165SAPE  C31118547   2.255   1.211   4.305 -0.1738  0.4607  0.1729
  165SAPE  H11X18548   2.339   1.217   4.377  0.7994 -0.4949 -0.8502
  165SAPE  H11Y18549   2.275   1.115   4.254  0.3569  2.0375 -2.8307
  165SAPE  C31218550   2.121   1.208   4.385  0.4237  0.5985  0.1534
  165SAPE  H12X18551   2.114   1.123   4.456 -1.3152  0.3766 -0.2406
  165SAPE  H12Y18552   2.037   1.179   4.319 -1.8453 -2.9526  4.0771
  165SAPE  C31318553   2.096   1.333   4.466  0.0938 -0.0550 -0.1499
  165SAPE  H13X18554   2.082   1.420   4.399 -1.6785 -0.3249 -0.1696
  165SAPE  H13Y18555   2.187   1.336   4.530 -1.9901  1.0307  3.0357
  165SAPE  C31418556   1.972   1.328   4.557  0.3114 -0.7647 -0.9466
  165SAPE  H14X18557   1.980   1.259   4.644 -0.5756 -0.5926 -0.7235
  165SAPE  H14Y18558   1.893   1.290   4.488  0.4904 -1.8486 -0.5856
  165SAPE  C31518559   1.918   1.462   4.609  0.1874 -0.1243  0.2955
  165SAPE  H15X18560   1.897   1.523   4.519 -0.0961 -1.9118 -0.9075
  165SAPE  H15Y18561   2.002   1.514   4.660 -0.4985  0.0037  1.3224
  165SAPE  C31618562   1.792   1.449   4.690  0.1109  0.3250  0.3572
  165SAPE  H16X18563   1.813   1.391   4.783 -0.4251 -0.7893 -0.2103
  165SAPE  H16Y18564   1.722   1.398   4.622  1.2815  0.6103 -1.0995
  165SAPE  C31718565   1.723   1.579   4.732 -0.5451 -0.3093 -0.3038
  165SAPE  H17X18566   1.707   1.632   4.636 -1.6179 -1.9852 -1.0854
  165SAPE  H17Y18567   1.778   1.638   4.809 -2.2802 -0.7533  1.3507
  165SAPE  C31818568   1.591   1.549   4.798  0.2371  0.2212 -0.1416
  165SAPE  H18X18569   1.609   1.479   4.882  0.7927  0.5142 -0.0149
  165SAPE  H18Y18570   1.534   1.485   4.727  1.4148 -2.2515  1.0102
  165SAPE  H18Z18571   1.539   1.642   4.829  2.2131  0.7905  1.6409
  166SAPE     N18572   3.440   1.867   2.737  0.0384 -0.3215 -0.3016
  166SAPE   HN118573   3.362   1.828   2.680 -0.5346  1.2357 -0.6189
  166SAPE   HN218574   3.439   1.970   2.728 -2.7929 -0.1121  1.1943
  166SAPE   HN318575   3.525   1.827   2.693 -0.1991 -1.5400  0.2991
  166SAPE   C1218576   3.428   1.845   2.885  0.2439  0.1494  0.9025
  166SAPE  H12A18577   3.498   1.912   2.938  2.0299 -1.0744  0.1999
  166SAPE  H12B18578   3.465   1.741   2.903  4.4207  0.9458 -1.5424
  166SAPE   C1118579   3.288   1.877   2.928 -0.0086 -0.4823 -0.3678
  166SAPE  H11A18580   3.265   1.985   2.919  0.4175 -0.2439  1.0606
  166SAPE  H11B18581   3.274   1.865   3.038 -1.3452 -1.6876 -0.6434
  166SAPE     P18582   3.125   1.674   2.919  0.2546 -0.2681  0.0077
  166SAPE   O1318583   3.026   1.631   2.825  0.2125  0.2324 -0.0912
  166SAPE   O1418584   3.235   1.580   2.943 -0.5259  0.2311  0.0129
  166SAPE   O1218585   3.189   1.805   2.861  0.2062  0.5488  0.5633
  166SAPE   O1118586   3.061   1.711   3.057  0.0507 -0.6168 -0.0008
  166SAPE    C118587   2.963   1.821   3.061 -0.2709 -0.3198  0.3075
  166SAPE    HA18588   3.002   1.885   3.143  0.7417 -1.4343  0.7251
  166SAPE    HB18589   2.948   1.880   2.967  1.0658 -0.5086 -0.0409
  166SAPE    C218590   2.818   1.770   3.105 -0.7077  0.0069  0.1622
  166SAPE    HS18591   2.751   1.841   3.052  0.5112  0.9405 -0.1759
  166SAPE   O2118592   2.818   1.761   3.248  0.1531  0.7189  0.1776
  166SAPE   C2118593   2.793   1.863   3.317 -0.0985  0.1963 -0.1739
  166SAPE   O2218594   2.777   1.977   3.279  0.0873 -0.3411  0.4382
  166SAPE   C2218595   2.762   1.808   3.452  0.2835  0.0715 -0.1282
  166SAPE   H2R18596   2.687   1.727   3.441  2.8779 -2.5977  0.4072
  166SAPE   H2S18597   2.848   1.750   3.494  0.0615 -0.6705 -0.6728
  166SAPE    C318598   2.787   1.635   3.039  0.9619  0.7260 -0.0253
  166SAPE    HX18599   2.869   1.562   3.057  1.4446  1.1747 -0.3537
  166SAPE    HY18600   2.786   1.650   2.929 -1.7083 -0.0786 -0.1720
  166SAPE   O3118601   2.663   1.584   3.092  0.3818  0.3715 -0.3928
  166SAPE   C3118602   2.621   1.476   3.018  0.0370 -0.5060  0.9903
  166SAPE   O3218603   2.668   1.446   2.908 -0.0695  0.0444  0.1188
  166SAPE   C3218604   2.488   1.416   3.074  0.2886 -0.3259  0.0646
  166SAPE   H2X18605   2.423   1.439   2.987 -1.3759 -2.3484  0.6954
  166SAPE   H2Y18606   2.457   1.467   3.167  0.9742 -1.4066  0.9055
  166SAPE   C2318607   2.716   1.901   3.565  0.2748  0.1695 -0.0804
  166SAPE   H3R18608   2.670   1.838   3.643  1.3460  0.3370  0.7093
  166SAPE   H3S18609   2.637   1.967   3.522 -1.1332 -1.0056  0.6324
  166SAPE   C2418610   2.809   2.002   3.631  0.0592 -0.5058 -0.1945
  166SAPE   H4R18611   2.850   2.077   3.560  4.1463 -1.8062  0.4834
  166SAPE   H4S18612   2.893   1.942   3.672  1.9917  1.9985 -0.2487
  166SAPE   C2518613   2.722   2.078   3.731 -0.0296  0.3519  0.4148
  166SAPE   H5R18614   2.637   2.139   3.697  1.4035  1.9221 -0.5196
  166SAPE   C2618615   2.744   2.072   3.867  0.3499 -0.6142  0.0350
  166SAPE   H6R18616   2.677   2.119   3.939  2.5573  1.0284  1.1412
  166SAPE   C2718617   2.850   1.988   3.936 -0.5484  0.6274  0.5197
  166SAPE   H7R18618   2.941   2.046   3.961  0.0626  0.2454 -0.7145
  166SAPE   H7S18619   2.889   1.908   3.869  0.2902  0.3269  1.3469
  166SAPE   C2818620   2.798   1.908   4.059  0.0519 -0.8467  0.0411
  166SAPE   H8R18621   2.728   1.826   4.040 -1.5773  0.0754  1.8079
  166SAPE   C2918622   2.825   1.942   4.189 -0.8038  0.1545  0.7373
  166SAPE   H9R18623   2.777   1.881   4.268 -0.2570 -0.2736  0.7476
  166SAPE  C21018624   2.927   2.046   4.229  0.0461  0.7044 -0.0074
  166SAPE  H10R18625   3.014   2.058   4.162  2.0481 -0.5973  2.1941
  166SAPE  H10S18626   2.975   2.018   4.325 -0.7039 -1.5570 -0.2300
  166SAPE  C21118627   2.861   2.180   4.242  0.3383 -0.3876  0.2036
  166SAPE  H11R18628   2.785   2.199   4.165  0.5474  3.1413  0.7096
  166SAPE  C21218629   2.897   2.285   4.323 -0.0698 -0.6151  0.0300
  166SAPE  H12R18630   2.838   2.378   4.312  0.9503 -0.2104 -3.3716
  166SAPE  C21318631   3.009   2.284   4.416 -1.2312 -1.1253  0.2100
  166SAPE  H13R18632   3.090   2.346   4.372  0.4825 -3.8976 -0.8375
  166SAPE  H13S18633   3.056   2.184   4.429  0.1237 -0.6984 -1.0817
  166SAPE  C21418634   2.984   2.358   4.543  0.1889  0.8087  0.3036
  166SAPE  H14R18635   3.013   2.464   4.538 -0.5859  1.1496  2.1630
  166SAPE  C21518636   2.927   2.315   4.659  0.5645  0.0065 -0.3035
  166SAPE  H15R18637   2.908   2.386   4.741 -0.2034  0.8182 -1.1572
  166SAPE  C21618638   2.863   2.176   4.669  0.5774  0.2943  0.0777
  166SAPE  H16R18639   2.840   2.136   4.568 -1.6059  2.0056 -0.1999
  166SAPE  H16S18640   2.761   2.170   4.712 -2.2617  1.3292 -5.5554
  166SAPE  C21718641   2.959   2.081   4.735  0.6091  0.0644 -0.1378
  166SAPE  H17R18642   2.979   2.116   4.839  1.8263  0.9943 -0.6688
  166SAPE  H17S18643   3.058   2.082   4.687 -0.2195 -0.9591 -1.9727
  166SAPE  C21818644   2.893   1.942   4.746 -0.0094 -0.1565 -0.1111
  166SAPE  H18R18645   2.789   1.953   4.783  0.4058  1.4809  0.6316
  166SAPE  H18S18646   2.942   1.896   4.834 -1.1524  0.0496  0.6534
  166SAPE  C21918647   2.902   1.857   4.615  0.1129 -0.7608 -0.1823
  166SAPE  H19R18648   3.008   1.864   4.585  0.0742 -2.3124 -0.8063
  166SAPE  H19S18649   2.845   1.902   4.530 -1.3654 -0.7128  0.7864
  166SAPE  C22018650   2.863   1.713   4.641  0.1592 -0.3110  0.3241
  166SAPE  H20R18651   2.911   1.671   4.733 -1.1471 -2.4535  0.1067
  166SAPE  H20S18652   2.886   1.650   4.553  1.8381  1.5940 -0.6819
  166SAPE  H20T18653   2.753   1.712   4.657  0.1536  0.7368  0.3710
  166SAPE   C3318654   2.482   1.266   3.095  0.0923  0.4124 -0.2070
  166SAPE   H3X18655   2.492   1.209   3.000 -2.3746 -2.2662  0.9927
  166SAPE   H3Y18656   2.386   1.241   3.144  1.2681 -1.9443  1.1075
  166SAPE   C3418657   2.592   1.211   3.188 -0.2213  0.2422  0.1445
  166SAPE   H4X18658   2.691   1.210   3.138 -0.5638  1.3010 -0.5891
  166SAPE   H4Y18659   2.561   1.106   3.207 -1.4673  0.5317 -0.1883
  166SAPE   C3518660   2.596   1.280   3.325  0.1650  0.2111 -0.1348
  166SAPE   H5X18661   2.491   1.311   3.342 -0.6713 -2.8181  0.7666
  166SAPE   H5Y18662   2.662   1.370   3.319  1.0045 -0.3501  0.4314
  166SAPE   C3618663   2.630   1.199   3.451 -0.1637  0.0020 -0.2061
  166SAPE   H6X18664   2.740   1.184   3.456 -0.2426 -0.2550  2.9489
  166SAPE   H6Y18665   2.590   1.096   3.440  0.3154 -0.3638  1.2312
  166SAPE   C3718666   2.605   1.275   3.586 -1.1661 -0.8434 -0.1043
  166SAPE   H7X18667   2.664   1.219   3.662  1.2440  1.7186  0.0505
  166SAPE   H7Y18668   2.496   1.278   3.611 -0.7485 -0.0744  1.8007
  166SAPE   C3818669   2.660   1.416   3.601  0.5125  0.0487 -0.6345
  166SAPE   H8X18670   2.613   1.476   3.520  1.1828  1.1058 -0.2600
  166SAPE   H8Y18671   2.766   1.430   3.571  1.6031  0.5867  3.0557
  166SAPE   C3918672   2.630   1.484   3.740  0.6920 -0.1393  0.2790
  166SAPE   H9X18673   2.523   1.468   3.762 -0.0380  0.9166 -2.1350
  166SAPE   H9Y18674   2.636   1.593   3.714 -0.8838 -0.5031 -1.9552
  166SAPE  C31018675   2.727   1.449   3.857  0.1994 -0.1610  0.2388
  166SAPE  H10X18676   2.829   1.483   3.828  0.3252 -1.2895 -0.7114
  166SAPE  H10Y18677   2.744   1.342   3.882  0.2771  0.0032  0.8956
  166SAPE  C31118678   2.683   1.521   3.986 -0.0548 -0.5513 -0.3468
  166SAPE  H11X18679   2.581   1.490   4.017 -0.5732  1.4518  0.0465
  166SAPE  H11Y18680   2.678   1.630   3.968  1.5566 -0.4994 -0.6425
  166SAPE  C31218681   2.776   1.494   4.106 -0.4344 -0.2613 -0.4770
  166SAPE  H12X18682   2.882   1.494   4.071 -0.3420  0.1481 -0.1968
  166SAPE  H12Y18683   2.755   1.389   4.134 -0.6906 -0.0785  0.0244
  166SAPE  C31318684   2.742   1.563   4.241 -0.1053  0.3932  0.2851
  166SAPE  H13X18685   2.754   1.669   4.212  2.5779  0.3967  1.0784
  166SAPE  H13Y18686   2.824   1.536   4.310  0.5712 -0.8429 -0.9427
  166SAPE  C31418687   2.608   1.531   4.309 -0.4959  0.0713 -0.2131
  166SAPE  H14X18688   2.600   1.421   4.326  0.7537 -0.5796 -3.1819
  166SAPE  H14Y18689   2.525   1.561   4.242 -1.3958  1.6094  1.4946
  166SAPE  C31518690   2.599   1.594   4.452 -0.5238  0.1132 -1.2876
  166SAPE  H15X18691   2.633   1.700   4.461 -1.7404  0.4826 -0.7717
  166SAPE  H15Y18692   2.667   1.533   4.516 -0.8851 -1.2104 -2.1356
  166SAPE  C31618693   2.463   1.574   4.529 -0.3399 -0.6498  0.0057
  166SAPE  H16X18694   2.437   1.467   4.520 -0.2850 -0.7120  0.5705
  166SAPE  H16Y18695   2.384   1.627   4.472 -1.1053 -0.7255  0.9839
  166SAPE  C31718696   2.460   1.627   4.673 -0.0280  0.1992 -0.3672
  166SAPE  H17X18697   2.352   1.642   4.699 -0.0411  0.1183 -0.3765
  166SAPE  H17Y18698   2.504   1.729   4.675 -0.2927  0.3295 -1.0409
  166SAPE  C31818699   2.533   1.532   4.768  1.0585  0.2077  0.0238
  166SAPE  H18X18700   2.462   1.450   4.791 -1.3823  2.2681  0.1666
  166SAPE  H18Y18701   2.558   1.594   4.856  1.2350  2.7485 -1.7222
  166SAPE  H18Z18702   2.628   1.489   4.729  2.5384  2.2753  1.1587
  167SAPE     N18703   3.778   6.599   2.965  0.2646  0.0240  0.1425
  167SAPE   HN118704   3.836   6.514   2.947 -1.1635 -0.7916 -0.7525
  167SAPE   HN218705   3.678   6.571   2.976 -0.4348  2.8361  1.9835
  167SAPE   HN318706   3.798   6.654   2.879 -0.2379 -1.1112 -0.7313
  167SAPE   C1218707   3.819   6.678   3.080  0.9339 -0.3403  0.3959
  167SAPE  H12A18708   3.924   6.714   3.078  0.9840  0.0191  3.7848
  167SAPE  H12B18709   3.813   6.612   3.168  3.3625 -0.3707  0.6099
  167SAPE   C1118710   3.728   6.801   3.095  0.9073  0.4274 -0.2117
  167SAPE  H11A18711   3.759   6.877   3.170  1.3861  1.5347 -1.4867
  167SAPE  H11B18712   3.628   6.776   3.135 -0.5688  4.3454 -0.9838
  167SAPE     P18713   3.583   6.894   2.904 -0.2001  0.0166 -0.4139
  167SAPE   O1318714   3.607   6.974   2.781  0.1794 -0.2017  0.3613
  167SAPE   O1418715   3.520   6.758   2.891  0.4018  0.4136  0.0410
  167SAPE   O1218716   3.723   6.881   2.978 -0.0154 -0.9582  0.4760
  167SAPE   O1118717   3.490   6.984   2.991  0.1157 -0.3298 -0.0853
  167SAPE    C118718   3.523   7.116   3.030  0.4778  0.5636  0.0761
  167SAPE    HA18719   3.628   7.146   3.013  0.9323 -0.2202  1.2943
  167SAPE    HB18720   3.455   7.190   2.983  0.0547  0.0731 -0.0946
  167SAPE    C218721   3.507   7.135   3.176  0.2218  0.1440 -1.0006
  167SAPE    HS18722   3.508   7.246   3.185 -0.4536  0.1050 -0.4130
  167SAPE   O2118723   3.615   7.072   3.247  0.6786 -0.2689 -0.0412
  167SAPE   C2118724   3.656   7.129   3.356  0.1242 -0.4519 -0.2154
  167SAPE   O2218725   3.643   7.248   3.383 -0.3188  0.6650  0.2258
  167SAPE   C2218726   3.734   7.028   3.440  0.1721  0.1040 -0.2281
  167SAPE   H2R18727   3.719   6.929   3.393 -0.3505 -0.6423  1.4263
  167SAPE   H2S18728   3.841   7.055   3.427  0.6555 -1.0768  0.9997
  167SAPE    C318729   3.368   7.094   3.234  0.1247  0.4165  0.1428
  167SAPE    HX18730   3.366   6.983   3.233  1.5696  0.3683 -0.1284
  167SAPE    HY18731   3.280   7.111   3.169  0.6538  0.3938 -0.5930
  167SAPE   O3118732   3.348   7.136   3.367 -0.1308  0.0130 -0.3921
  167SAPE   C3118733   3.282   7.260   3.383  0.3450 -0.1590 -0.2015
  167SAPE   O3218734   3.241   7.325   3.286 -0.2642  1.2432  0.6758
  167SAPE   C3218735   3.262   7.310   3.522 -0.0708 -0.1500  0.8606
  167SAPE   H2X18736   3.153   7.323   3.544  0.1781 -1.0934  2.7563
  167SAPE   H2Y18737   3.292   7.416   3.536  1.4038 -0.3238 -0.7224
  167SAPE   C2318738   3.698   7.020   3.591 -0.0402 -0.0989  0.1098
  167SAPE   H3R18739   3.698   6.913   3.619  0.0977 -0.7679 -2.2977
  167SAPE   H3S18740   3.589   7.039   3.587  0.1367  0.7127 -2.1065
  167SAPE   C2418741   3.783   7.104   3.689 -1.1201 -0.9814  0.8033
  167SAPE   H4R18742   3.731   7.119   3.786  1.7447  0.2607  2.2427
  167SAPE   H4S18743   3.797   7.197   3.630 -1.5674 -1.1452  0.4294
  167SAPE   C2518744   3.921   7.043   3.726 -0.8961 -0.5167 -0.0735
  167SAPE   H5R18745   3.981   7.021   3.636 -0.4131  0.0031  0.1096
  167SAPE   C2618746   3.976   7.034   3.852 -0.3440 -0.4317 -0.1648
  167SAPE   H6R18747   4.076   6.990   3.867  0.8556  1.8831 -0.8768
  167SAPE   C2718748   3.923   7.093   3.981  0.7300  0.0291  0.1893
  167SAPE   H7R18749   3.990   7.083   4.070 -0.4246  0.9197  1.1972
  167SAPE   H7S18750   3.847   7.027   4.028  0.4192 -0.0906 -0.4822
  167SAPE   C2818751   3.878   7.237   3.979  0.5943  0.3831 -0.2585
  167SAPE   H8R18752   3.937   7.290   3.902 -0.0004  0.5706 -0.5957
  167SAPE   C2918753   3.788   7.308   4.048  0.1171 -0.3706  0.1732
  167SAPE   H9R18754   3.772   7.415   4.026 -2.0030 -0.5818  0.4685
  167SAPE  C21018755   3.699   7.254   4.156 -0.3310 -0.1887 -0.2292
  167SAPE  H10R18756   3.706   7.308   4.253  0.4470 -0.2773 -0.2325
  167SAPE  H10S18757   3.739   7.151   4.167 -0.0491 -0.5530 -3.7306
  167SAPE  C21118758   3.554   7.229   4.117  0.0602  0.1017 -0.5797
  167SAPE  H11R18759   3.539   7.186   4.017 -2.8965  0.0373 -0.2268
  167SAPE  C21218760   3.454   7.308   4.150 -0.3337 -0.7253 -0.7117
  167SAPE  H12R18761   3.353   7.288   4.111 -1.9793  0.4107  2.5636
  167SAPE  C21318762   3.467   7.419   4.248 -0.2525  0.1016 -0.5298
  167SAPE  H13R18763   3.550   7.490   4.230 -0.6254  0.1623 -2.1841
  167SAPE  H13S18764   3.499   7.379   4.346  0.8049  1.6845 -0.1885
  167SAPE  C21418765   3.332   7.493   4.255  0.1515 -0.1534  0.0656
  167SAPE  H14R18766   3.323   7.563   4.171  1.0977 -0.9153 -0.7089
  167SAPE  C21518767   3.227   7.462   4.338 -0.1332 -0.1003 -0.0073
  167SAPE  H15R18768   3.140   7.529   4.333 -0.0074  0.0838  0.2290
  167SAPE  C21618769   3.226   7.353   4.442 -0.0795  0.4727 -0.7943
  167SAPE  H16R18770   3.292   7.369   4.530 -0.7793 -2.9913  0.4895
  167SAPE  H16S18771   3.275   7.261   4.405 -0.1899 -0.3672  1.0876
  167SAPE  C21718772   3.091   7.308   4.493  0.8799 -0.0775 -0.3523
  167SAPE  H17R18773   3.014   7.295   4.414  0.5888 -0.0510 -0.0710
  167SAPE  H17S18774   3.046   7.391   4.551  0.5187 -0.0731 -0.6324
  167SAPE  C21818775   3.102   7.194   4.599  0.8295 -0.1825 -0.0740
  167SAPE  H18R18776   3.181   7.211   4.675  0.1961 -1.4046  0.9058
  167SAPE  H18S18777   3.126   7.100   4.545 -1.4309  0.4742 -2.4207
  167SAPE  C21918778   2.970   7.169   4.669  0.2836  0.5924 -0.1964
  167SAPE  H19R18779   2.895   7.150   4.590  1.2234 -0.8398 -0.8040
  167SAPE  H19S18780   2.946   7.252   4.738 -3.4408 -1.0099  0.6722
  167SAPE  C22018781   2.973   7.047   4.760 -0.0486  0.1897 -0.2100
  167SAPE  H20R18782   3.001   6.955   4.704  2.6381  1.0618 -0.4582
  167SAPE  H20S18783   2.870   7.026   4.796 -0.3578  0.5982 -0.8351
  167SAPE  H20T18784   3.043   7.050   4.846 -0.8941  0.2675  0.4849
  167SAPE   C3318785   3.323   7.231   3.636 -0.0202 -0.0944  0.3932
  167SAPE   H3X18786   3.325   7.122   3.614  0.5152 -0.1815  0.8412
  167SAPE   H3Y18787   3.262   7.254   3.725  1.1111  0.4462  1.0599
  167SAPE   C3418788   3.469   7.277   3.662 -0.5826 -0.0956  0.0568
  167SAPE   H4X18789   3.523   7.255   3.568 -2.5943 -0.4597 -1.0655
  167SAPE   H4Y18790   3.515   7.209   3.738  0.5247  0.8505  0.2577
  167SAPE   C3518791   3.515   7.419   3.720  0.7869  0.0430  0.0825
  167SAPE   H5X18792   3.473   7.433   3.822  1.0828  1.7307 -0.0114
  167SAPE   H5Y18793   3.480   7.504   3.658  2.4004  0.6507 -0.0409
  167SAPE   C3618794   3.665   7.439   3.724 -0.1630  0.2420  0.2982
  167SAPE   H6X18795   3.718   7.414   3.630 -1.4709  0.1897 -0.4522
  167SAPE   H6Y18796   3.706   7.373   3.804  1.2568  1.7734  0.8831
  167SAPE   C3718797   3.695   7.579   3.763  0.4302 -0.0924 -0.0607
  167SAPE   H7X18798   3.638   7.590   3.857  1.6546  1.9124  0.5175
  167SAPE   H7Y18799   3.654   7.650   3.687 -0.5821 -2.2256 -1.6158
  167SAPE   C3818800   3.843   7.597   3.797 -0.0799 -0.4079  0.0934
  167SAPE   H8X18801   3.894   7.620   3.701 -0.8658 -0.1666 -0.2691
  167SAPE   H8Y18802   3.898   7.507   3.832  0.9213  0.0614 -0.2225
  167SAPE   C3918803   3.874   7.700   3.902  0.1408  0.0933  0.5964
  167SAPE   H9X18804   3.811   7.679   3.992 -0.4740  0.9765  0.3920
  167SAPE   H9Y18805   3.849   7.801   3.863  0.7731  0.8765  2.1207
  167SAPE  C31018806   4.022   7.699   3.954 -0.2028  0.1345  0.2251
  167SAPE  H10X18807   4.087   7.716   3.865 -0.9687 -0.2935 -0.4351
  167SAPE  H10Y18808   4.043   7.595   3.986  0.2273 -0.2585 -1.2203
  167SAPE  C31118809   4.041   7.816   4.053  0.4585  0.3830 -0.0975
  167SAPE  H11X18810   3.965   7.797   4.131 -0.0124  2.0504 -0.1058
  167SAPE  H11Y18811   4.024   7.917   4.009  1.6201  0.4931 -0.3257
  167SAPE  C31218812   4.178   7.812   4.118 -0.2905 -0.8045 -1.1401
  167SAPE  H12X18813   4.200   7.707   4.149 -1.3475 -0.3227  1.4580
  167SAPE  H12Y18814   4.177   7.874   4.209 -3.8506 -0.4592 -1.3048
  167SAPE  C31318815   4.284   7.863   4.026 -0.4458 -0.5690  0.4387
  167SAPE  H13X18816   4.259   7.967   3.999  1.5877  0.0803  0.8961
  167SAPE  H13Y18817   4.299   7.797   3.938  0.0108  0.3062 -0.1546
  167SAPE  C31418818   4.430   7.854   4.087 -0.3128  0.0670  0.2140
  167SAPE  H14X18819   4.453   7.746   4.101  1.3525  0.4094  0.3489
  167SAPE  H14Y18820   4.432   7.912   4.182 -1.1960  0.8750 -0.2531
  167SAPE  C31518821   4.529   7.913   3.989  0.0337 -0.1596  0.1352
  167SAPE  H15X18822   4.530   7.862   3.890 -1.2134  0.4295 -0.1916
  167SAPE  H15Y18823   4.630   7.911   4.035 -0.0609  2.1651  0.5459
  167SAPE  C31618824   4.510   8.064   3.963 -0.4946  0.1928  0.0522
  167SAPE  H16X18825   4.491   8.119   4.058 -3.3950  1.0018 -0.8688
  167SAPE  H16Y18826   4.414   8.075   3.907  0.1568  2.9900 -0.6762
  167SAPE  C31718827   4.616   8.120   3.874 -0.9425  0.0598 -0.1825
  167SAPE  H17X18828   4.618   8.056   3.783  1.8430 -0.6935  0.2964
  167SAPE  H17Y18829   4.719   8.106   3.914 -0.7547  1.2699 -0.1967
  167SAPE  C31818830   4.609   8.264   3.823  0.2527  0.3082  0.0910
  167SAPE  H18X18831   4.529   8.282   3.748  0.6498  0.8218 -0.2176
  167SAPE  H18Y18832   4.700   8.290   3.765 -0.2539 -0.8752 -1.3124
  167SAPE  H18Z18833   4.599   8.335   3.907 -2.7229  1.1997 -0.9088
  168SAPE     N18834   0.289   2.373   2.932  0.1057  0.2702  0.1497
  168SAPE   HN118835   0.356   2.317   2.989 -0.6763 -0.6745  0.1639
  168SAPE   HN218836   0.335   2.397   2.842 -1.0262 -1.7965 -1.0751
  168SAPE   HN318837   0.260   2.456   2.986 -0.5296  1.3188 -1.7075
  168SAPE   C1218838   0.164   2.296   2.902  0.0360 -0.2186  0.2032
  168SAPE  H12A18839   0.109   2.258   2.990  2.6110 -1.8189  1.2481
  168SAPE  H12B18840   0.194   2.210   2.839  1.6994 -2.2115  3.4631
  168SAPE   C1118841   0.070   2.387   2.813 -0.1036  0.1642 -0.3439
  168SAPE  H11A18842   0.029   2.470   2.875 -0.8208  0.6641 -1.4574
  168SAPE  H11B18843  -0.019   2.325   2.789 -1.4836  1.1862  1.8040
  168SAPE     P18844   0.169   2.586   2.685  0.1707 -0.0032  0.2610
  168SAPE   O1318845   0.263   2.613   2.579 -0.1391  0.5696  0.3295
  168SAPE   O1418846   0.036   2.656   2.673  0.1650 -0.1553  0.1782
  168SAPE   O1218847   0.140   2.436   2.704  0.2342 -0.2690 -0.1615
  168SAPE   O1118848   0.218   2.627   2.827 -0.0167  0.3503  0.0136
  168SAPE    C118849   0.290   2.749   2.836 -0.3692 -0.0940 -0.0286
  168SAPE    HA18850   0.384   2.742   2.777 -0.3533 -2.3161  0.1728
  168SAPE    HB18851   0.233   2.837   2.801 -0.1119  0.4509  0.9002
  168SAPE    C218852   0.349   2.764   2.981 -0.3631  0.3385  0.7771
  168SAPE    HS18853   0.407   2.671   3.000  0.9900  1.3741  1.9972
  168SAPE   O2118854   0.239   2.798   3.057  0.2192  0.7278 -0.1837
  168SAPE   C2118855   0.182   2.695   3.124 -0.4745 -0.4840  0.4284
  168SAPE   O2218856   0.208   2.577   3.119  0.1577  0.6393  0.1384
  168SAPE   C2218857   0.070   2.756   3.220 -0.0906  0.0668  0.1958
  168SAPE   H2R18858   0.124   2.812   3.299 -1.1171  1.1130  0.1780
  168SAPE   H2S18859   0.027   2.841   3.163  0.0904 -1.0564 -1.6906
  168SAPE    C318860   0.454   2.880   2.987  0.5906 -0.0196  0.3239
  168SAPE    HX18861   0.412   2.966   2.931  0.2581 -0.5086 -0.2029
  168SAPE    HY18862   0.554   2.852   2.948  1.3826  0.6495  1.8083
  168SAPE   O3118863   0.488   2.917   3.123  0.1198  0.1227 -0.6703
  168SAPE   C3118864   0.543   2.823   3.205  0.0211  0.1847 -0.3406
  168SAPE   O3218865   0.553   2.704   3.174 -0.6277  0.3101 -0.1463
  168SAPE   C3218866   0.583   2.886   3.331  0.9270 -0.0828 -0.2537
  168SAPE   H2X18867   0.552   2.992   3.324 -1.8841 -0.8868 -1.5022
  168SAPE   H2Y18868   0.692   2.869   3.339  0.6009 -3.0727 -1.0173
  168SAPE   C2318869  -0.034   2.656   3.276  0.3269  0.2413 -0.1525
  168SAPE   H3R18870   0.017   2.609   3.363  0.1863  1.2984  0.5167
  168SAPE   H3S18871  -0.069   2.584   3.199  1.4801  0.9324 -1.3709
  168SAPE   C2418872  -0.147   2.744   3.335 -0.3737  0.7341 -0.2049
  168SAPE   H4R18873  -0.197   2.808   3.259 -1.2049  0.4789  0.1062
  168SAPE   H4S18874  -0.106   2.818   3.407 -0.6897 -0.6200  1.4440
  168SAPE   C2518875  -0.246   2.650   3.407  0.6465  0.1099 -0.4441
  168SAPE   H5R18876  -0.303   2.578   3.346 -0.4547 -1.0101  1.8067
  168SAPE   C2618877  -0.272   2.646   3.540  0.2346 -0.4728 -0.5237
  168SAPE   H6R18878  -0.357   2.588   3.580  0.1872 -0.1438 -0.1408
  168SAPE   C2718879  -0.197   2.720   3.648  0.1555 -0.6350 -0.2371
  168SAPE   H7R18880  -0.274   2.786   3.693  0.0889 -1.0023  0.1957
  168SAPE   H7S18881  -0.115   2.781   3.604  2.0034 -0.7863  2.7223
  168SAPE   C2818882  -0.138   2.628   3.757 -0.5159  0.7739 -0.2233
  168SAPE   H8R18883  -0.075   2.549   3.714 -1.5104  0.7053 -1.6389
  168SAPE   C2918884  -0.125   2.637   3.890 -0.0248 -0.9443  0.9988
  168SAPE   H9R18885  -0.086   2.551   3.946  1.0632 -1.2653 -0.2045
  168SAPE  C21018886  -0.174   2.741   3.987 -0.0811  0.5983  0.2335
  168SAPE  H10R18887  -0.192   2.837   3.933 -0.2058 -0.2091 -1.1924
  168SAPE  H10S18888  -0.086   2.776   4.046 -0.4767  1.2630  0.4429
  168SAPE  C21118889  -0.299   2.689   4.071 -0.1881  0.0799  0.6132
  168SAPE  H11R18890  -0.359   2.616   4.013 -1.7027  1.3097  0.5666
  168SAPE  C21218891  -0.332   2.728   4.193  0.4609  0.2143 -0.1112
  168SAPE  H12R18892  -0.431   2.695   4.228 -0.1674  0.7934 -1.2957
  168SAPE  C21318893  -0.252   2.817   4.290 -0.0543  0.6363 -1.1939
  168SAPE  H13R18894  -0.165   2.864   4.238  1.6976 -0.5764  0.4827
  168SAPE  H13S18895  -0.207   2.765   4.378 -3.5815  1.2033  1.1648
  168SAPE  C21418896  -0.332   2.937   4.341 -0.3766 -0.0557 -0.1238
  168SAPE  H14R18897  -0.396   2.984   4.265 -2.3904 -1.0583  0.8662
  168SAPE  C21518898  -0.340   2.971   4.468 -0.2327  0.3130  0.3303
  168SAPE  H15R18899  -0.386   3.065   4.499  2.2763  2.4610 -1.9128
  168SAPE  C21618900  -0.274   2.911   4.593 -0.2505 -0.3189  0.5998
  168SAPE  H16R18901  -0.235   2.992   4.659  0.0211  0.3990 -0.4081
  168SAPE  H16S18902  -0.178   2.864   4.560 -0.0448  1.5309 -1.6713
  168SAPE  C21718903  -0.342   2.795   4.673 -0.0032 -0.8766 -0.2890
  168SAPE  H17R18904  -0.437   2.829   4.718  0.9176  1.3340  0.0968
  168SAPE  H17S18905  -0.274   2.776   4.759  0.2919  2.0881  0.2502
  168SAPE  C21818906  -0.365   2.677   4.593  0.6688 -0.2747 -1.2498
  168SAPE  H18R18907  -0.269   2.656   4.542  0.8717 -0.6392 -0.7290
  168SAPE  H18S18908  -0.436   2.702   4.511 -2.1557  0.1291  1.1296
  168SAPE  C21918909  -0.414   2.548   4.657 -0.3545 -0.3936  0.7881
  168SAPE  H19R18910  -0.515   2.562   4.702  0.2249 -0.6439  2.2094
  168SAPE  H19S18911  -0.340   2.519   4.734  1.9867 -1.9407 -1.8591
  168SAPE  C22018912  -0.419   2.430   4.561 -0.0039 -0.2824  0.6570
  168SAPE  H20R18913  -0.497   2.457   4.486  0.3146 -0.5204  0.2361
  168SAPE  H20S18914  -0.460   2.341   4.614  0.4602  0.5962  2.5854
  168SAPE  H20T18915  -0.324   2.417   4.505  0.9187  3.8169  1.0022
  168SAPE   C3318916   0.515   2.817   3.457 -0.0272  0.1416 -0.6598
  168SAPE   H3X18917   0.572   2.841   3.549 -1.2411 -0.2931  0.2287
  168SAPE   H3Y18918   0.531   2.707   3.458 -1.1665 -0.1051  3.1655
  168SAPE   C3418919   0.367   2.856   3.470 -0.1365  0.0549  0.5497
  168SAPE   H4X18920   0.312   2.812   3.383  0.1576 -1.4491  1.0840
  168SAPE   H4Y18921   0.358   2.966   3.461  1.9088  0.1659 -0.6628
  168SAPE   C3518922   0.307   2.790   3.591 -0.6076 -0.4022  0.3038
  168SAPE   H5X18923   0.323   2.680   3.587  1.8370 -0.0898 -0.7215
  168SAPE   H5Y18924   0.197   2.807   3.595 -0.2444  3.2714 -1.2923
  168SAPE   C3618925   0.370   2.821   3.736  1.0193 -0.0609 -0.7452
  168SAPE   H6X18926   0.394   2.930   3.734 -1.2201  0.4689 -2.2451
  168SAPE   H6Y18927   0.468   2.769   3.744  0.8448 -0.4417 -1.0629
  168SAPE   C3718928   0.267   2.794   3.852 -1.1012 -0.2062 -0.5661
  168SAPE   H7X18929   0.255   2.688   3.884 -2.1536  0.0174 -0.1651
  168SAPE   H7Y18930   0.164   2.829   3.829 -1.2440  0.0250  0.3726
  168SAPE   C3818931   0.313   2.868   3.985  0.0679  0.0289  0.3089
  168SAPE   H8X18932   0.309   2.978   3.974 -1.3961  0.1415  1.5079
  168SAPE   H8Y18933   0.419   2.835   3.993  0.1351 -0.9198 -3.1676
  168SAPE   C3918934   0.236   2.814   4.110  0.2811  0.3578 -0.4286
  168SAPE   H9X18935   0.237   2.704   4.098 -2.3859  0.2584 -0.3698
  168SAPE   H9Y18936   0.137   2.865   4.116 -0.6564 -1.3211 -1.0580
  168SAPE  C31018937   0.293   2.862   4.248 -0.4106 -0.6840 -0.4138
  168SAPE  H10X18938   0.316   2.970   4.239 -0.7807 -0.6958 -1.9757
  168SAPE  H10Y18939   0.379   2.797   4.274 -1.3698 -2.4609 -1.4361
  168SAPE  C31118940   0.204   2.838   4.370 -0.6509  0.2567 -0.1944
  168SAPE  H11X18941   0.120   2.911   4.372 -3.4503 -2.7256 -0.9498
  168SAPE  H11Y18942   0.250   2.864   4.468 -1.4672 -2.5213  1.0156
  168SAPE  C31218943   0.144   2.697   4.391  0.3804  0.3582  0.4931
  168SAPE  H12X18944   0.213   2.620   4.350  0.4282  0.9804 -0.6370
  168SAPE  H12Y18945   0.045   2.686   4.343  0.7646 -0.8347 -0.0679
  168SAPE  C31318946   0.121   2.677   4.542  0.8294  0.2082 -0.5414
  168SAPE  H13X18947   0.056   2.763   4.568 -0.1607 -0.6240 -0.1838
  168SAPE  H13Y18948   0.215   2.676   4.603  0.8762  1.6104 -0.5633
  168SAPE  C31418949   0.052   2.544   4.547 -0.1003  0.1995 -0.0340
  168SAPE  H14X18950   0.121   2.467   4.506 -1.0822 -1.2078  0.8807
  168SAPE  H14Y18951  -0.038   2.540   4.482 -1.4734 -1.5686  1.8466
  168SAPE  C31518952   0.026   2.484   4.687 -0.0860 -0.7358 -0.5599
  168SAPE  H15X18953  -0.002   2.567   4.755  0.3703 -0.4698 -0.6870
  168SAPE  H15Y18954   0.131   2.460   4.716  0.6647  2.0031 -0.7412
  168SAPE  C31618955  -0.062   2.354   4.681 -0.1294  0.2831  1.0777
  168SAPE  H16X18956  -0.014   2.288   4.605 -2.0064  0.9358 -0.7631
  168SAPE  H16Y18957  -0.166   2.386   4.658 -0.8854 -1.9342  1.1470
  168SAPE  C31718958  -0.078   2.274   4.814  0.0215 -0.6269  0.2998
  168SAPE  H17X18959  -0.155   2.194   4.817 -1.0693  0.4246  1.1841
  168SAPE  H17Y18960  -0.106   2.351   4.889 -0.9471 -1.1891  0.5374
  168SAPE  C31818961   0.044   2.206   4.867  0.3492 -0.2155  0.3923
  168SAPE  H18X18962   0.036   2.097   4.853 -3.1822 -0.1671  1.2783
  168SAPE  H18Y18963   0.046   2.220   4.978  0.3032 -1.3817  0.5456
  168SAPE  H18Z18964   0.136   2.252   4.823 -0.5000  0.2529 -0.9291
  169SAPE     N18965   1.996   6.240   2.498 -0.3012  0.1285  0.1285
  169SAPE   HN118966   1.956   6.218   2.592 -0.1983 -1.6579 -0.2256
  169SAPE   HN218967   1.924   6.225   2.425  0.5023 -2.7715 -0.1813
  169SAPE   HN318968   2.062   6.160   2.488 -1.5536 -1.0633  0.9806
  169SAPE   C1218969   2.086   6.366   2.486  0.0945 -0.0404  0.1044
  169SAPE  H12A18970   2.014   6.443   2.520 -1.9216 -1.6557 -0.2914
  169SAPE  H12B18971   2.115   6.379   2.379  1.5123  1.1443  0.5960
  169SAPE   C1118972   2.196   6.340   2.588 -0.0332  0.4999  0.5978
  169SAPE  H11A18973   2.163   6.351   2.693 -0.2966 -0.8904  0.6775
  169SAPE  H11B18974   2.271   6.414   2.552 -1.1583  1.5443  0.3351
  169SAPE     P18975   2.403   6.185   2.543  0.1168  0.1775  0.0499
  169SAPE   O1318976   2.414   6.109   2.415 -0.5812 -0.5056 -0.2643
  169SAPE   O1418977   2.489   6.302   2.556 -0.1854  0.0480 -0.0277
  169SAPE   O1218978   2.249   6.208   2.571 -0.0701 -0.1925 -0.8891
  169SAPE   O1118979   2.436   6.089   2.661 -0.8644 -0.1381 -0.2392
  169SAPE    C118980   2.357   5.982   2.710 -0.5307 -0.8549  0.1829
  169SAPE    HA18981   2.276   6.026   2.771 -2.7630 -0.0949 -3.0656
  169SAPE    HB18982   2.303   5.928   2.630  0.0025 -1.5222  0.2610
  169SAPE    C218983   2.438   5.881   2.792  0.2235  0.8997 -0.5032
  169SAPE    HS18984   2.359   5.811   2.826  0.4728  0.6671 -0.3945
  169SAPE   O2118985   2.493   5.952   2.905  0.2260 -0.3510  0.5874
  169SAPE   C2118986   2.425   5.945   3.016  1.0882 -0.2009  0.2437
  169SAPE   O2218987   2.318   5.890   3.040  0.4097 -0.0748 -0.7165
  169SAPE   C2218988   2.504   6.020   3.122 -0.0403 -0.1967 -1.0346
  169SAPE   H2R18989   2.600   5.974   3.155  0.6050  0.8751 -1.3443
  169SAPE   H2S18990   2.529   6.113   3.065  0.8275 -1.1412 -2.2671
  169SAPE    C318991   2.556   5.813   2.710  0.1418  0.0630 -0.3801
  169SAPE    HX18992   2.637   5.879   2.673  1.5123 -0.2269  1.9307
  169SAPE    HY18993   2.503   5.778   2.619 -1.4285  0.2226  0.4396
  169SAPE   O3118994   2.599   5.699   2.791  0.3806 -0.0502  0.2546
  169SAPE   C3118995   2.727   5.688   2.821  0.4265  0.2650 -0.3727
  169SAPE   O3218996   2.810   5.764   2.771 -0.5869 -0.3480 -0.6148
  169SAPE   C3218997   2.746   5.583   2.926  0.6924 -0.5717  0.0557
  169SAPE   H2X18998   2.752   5.490   2.866 -1.1255  0.8142 -2.4812
  169SAPE   H2Y18999   2.647   5.570   2.974  0.9877 -1.5778  0.4078
  169SAPE   C2319000   2.426   6.060   3.246  0.8754 -0.3045  0.0870
  169SAPE   H3R19001   2.322   6.088   3.218  1.1248 -0.1909 -0.7357
  169SAPE   H3S19002   2.467   6.150   3.297 -2.2579  1.3145  0.0441
  169SAPE   C2419003   2.421   5.949   3.352  0.4340 -0.2011  0.6814
  169SAPE   H4R19004   2.518   5.940   3.406  1.2761 -1.0454 -0.8858
  169SAPE   H4S19005   2.413   5.853   3.297 -2.7687 -0.5618  1.5499
  169SAPE   C2519006   2.305   5.966   3.445  0.9980  0.7276 -0.1065
  169SAPE   H5R19007   2.218   6.023   3.408 -0.5712  0.0015  2.2237
  169SAPE   C2619008   2.305   5.916   3.569  0.9311 -0.1774 -0.5287
  169SAPE   H6R19009   2.207   5.926   3.618 -0.2380 -0.0638 -2.7173
  169SAPE   C2719010   2.404   5.847   3.647 -0.4255  0.5804  0.1153
  169SAPE   H7R19011   2.477   5.920   3.690  1.0320  0.1201 -1.4588
  169SAPE   H7S19012   2.468   5.778   3.588 -0.6676 -0.2760  0.8421
  169SAPE   C2819013   2.344   5.755   3.751 -0.0961  0.2387 -0.9349
  169SAPE   H8R19014   2.341   5.653   3.712  1.7953  0.1224 -0.9042
  169SAPE   C2919015   2.302   5.786   3.876  1.0593 -0.3047 -0.1624
  169SAPE   H9R19016   2.256   5.709   3.939  1.9134  2.5655  4.3772
  169SAPE  C21019017   2.286   5.922   3.940 -0.5215 -0.1103  0.1536
  169SAPE  H10R19018   2.181   5.943   3.970 -0.4334  0.5731  0.0009
  169SAPE  H10S19019   2.301   6.000   3.863 -1.6669 -1.6183 -1.6684
  169SAPE  C21119020   2.379   5.941   4.063  0.4100 -0.5940  0.2959
  169SAPE  H11R19021   2.479   5.972   4.027 -0.4219  4.1248  1.3117
  169SAPE  C21219022   2.359   5.916   4.195 -0.1277  0.3815  0.3838
  169SAPE  H12R19023   2.442   5.929   4.265  1.5192 -3.9315 -0.4163
  169SAPE  C21319024   2.228   5.873   4.261  0.4214 -0.3928 -0.4541
  169SAPE  H13R19025   2.162   5.826   4.184 -1.4574  0.3289  0.6398
  169SAPE  H13S19026   2.161   5.953   4.299  0.4965 -1.6681  2.5840
  169SAPE  C21419027   2.268   5.764   4.357  0.0153  0.4851  0.1168
  169SAPE  H14R19028   2.267   5.658   4.327 -2.0126  0.1687  1.1548
  169SAPE  C21519029   2.272   5.789   4.492 -0.1253 -0.5155  0.1790
  169SAPE  H15R19030   2.312   5.716   4.564  3.2515  1.3833  0.4249
  169SAPE  C21619031   2.264   5.936   4.550  0.3458 -0.4067  0.3758
  169SAPE  H16R19032   2.191   5.930   4.634 -0.1101 -2.1922 -0.1131
  169SAPE  H16S19033   2.234   6.021   4.485 -2.1720 -0.4358  1.3866
  169SAPE  C21719034   2.406   5.964   4.602 -0.0050  0.2119  0.1821
  169SAPE  H17R19035   2.484   5.976   4.524  2.1437  2.1508  2.4548
  169SAPE  H17S19036   2.438   5.871   4.654 -0.6578 -2.6087 -3.9397
  169SAPE  C21819037   2.411   6.087   4.695  0.3330  0.2924 -0.3931
  169SAPE  H18R19038   2.328   6.071   4.768  0.3696  0.9242 -0.2035
  169SAPE  H18S19039   2.391   6.179   4.636  1.6103  0.7291 -0.1718
  169SAPE  C21919040   2.542   6.094   4.765 -0.5913 -0.0359  0.2831
  169SAPE  H19R19041   2.551   6.204   4.762 -1.2251  0.0983  2.0870
  169SAPE  H19S19042   2.615   6.038   4.703 -2.9538 -1.9212 -0.9689
  169SAPE  C22019043   2.549   6.040   4.908 -0.4688  0.3635  0.1980
  169SAPE  H20R19044   2.485   6.093   4.981  0.5497 -1.0370  2.2030
  169SAPE  H20S19045   2.658   6.043   4.931 -0.0556  0.2931 -1.6205
  169SAPE  H20T19046   2.531   5.931   4.896  0.6872  0.3363 -1.9073
  169SAPE   C3319047   2.869   5.612   3.017  0.3687  0.0204 -0.3371
  169SAPE   H3X19048   2.953   5.654   2.957  1.1932  1.5126  1.7176
  169SAPE   H3Y19049   2.899   5.509   3.047  3.4753  1.3682  1.7012
  169SAPE   C3419050   2.820   5.684   3.146  0.4108  0.4853 -0.2817
  169SAPE   H4X19051   2.774   5.783   3.128  0.1240  0.4896  0.4328
  169SAPE   H4Y19052   2.910   5.719   3.201  1.3639  3.1399 -3.2505
  169SAPE   C3519053   2.725   5.611   3.242 -0.3612  1.1560 -0.2773
  169SAPE   H5X19054   2.754   5.504   3.253 -1.1322  1.0821  1.3648
  169SAPE   H5Y19055   2.622   5.616   3.202 -0.5338 -2.6072 -0.6704
  169SAPE   C3619056   2.742   5.665   3.387  0.0723  0.0140  0.2125
  169SAPE   H6X19057   2.700   5.767   3.395 -1.1023 -0.5847  2.3396
  169SAPE   H6Y19058   2.852   5.675   3.398  0.1042 -0.7967  0.6775
  169SAPE   C3719059   2.687   5.579   3.502 -0.3261  0.1983  0.6400
  169SAPE   H7X19060   2.708   5.476   3.467 -0.3804  0.5748 -0.5576
  169SAPE   H7Y19061   2.577   5.586   3.507 -0.6380 -1.5640 -1.9123
  169SAPE   C3819062   2.738   5.612   3.634 -0.0263  0.1261 -0.2805
  169SAPE   H8X19063   2.703   5.713   3.665  1.5902  0.2413  1.3724
  169SAPE   H8Y19064   2.849   5.615   3.623  0.0583 -1.1989  0.1113
  169SAPE   C3919065   2.699   5.503   3.736 -0.2809  0.4161 -0.0682
  169SAPE   H9X19066   2.784   5.431   3.735  1.1297  2.0148 -0.4082
  169SAPE   H9Y19067   2.611   5.445   3.701 -1.1551  1.2510  0.6814
  169SAPE  C31019068   2.673   5.555   3.877  0.3867 -0.4095  0.1514
  169SAPE  H10X19069   2.602   5.484   3.926 -0.0519  0.0910  0.2547
  169SAPE  H10Y19070   2.622   5.654   3.880 -2.4391 -1.6909 -1.5967
  169SAPE  C31119071   2.793   5.553   3.969  0.4860 -0.0731  0.1140
  169SAPE  H11X19072   2.878   5.597   3.912 -2.2431  1.5875 -2.9929
  169SAPE  H11Y19073   2.821   5.446   3.979  2.1930  0.2856 -0.3590
  169SAPE  C31219074   2.775   5.628   4.106 -0.3679  0.7654  0.3536
  169SAPE  H12X19075   2.732   5.729   4.089  1.1950  2.2799  4.3245
  169SAPE  H12Y19076   2.868   5.662   4.157 -0.6624 -0.2494  1.5917
  169SAPE  C31319077   2.682   5.556   4.203  0.0188 -0.8869 -0.7080
  169SAPE  H13X19078   2.720   5.453   4.219 -0.0032 -0.5746  1.6044
  169SAPE  H13Y19079   2.581   5.558   4.157  0.3657 -1.3922 -1.5257
  169SAPE  C31419080   2.682   5.626   4.345 -0.1586  0.0481  0.9211
  169SAPE  H14X19081   2.653   5.732   4.329 -1.0215 -0.4708 -1.3016
  169SAPE  H14Y19082   2.787   5.620   4.380 -0.8919 -0.4815  3.2824
  169SAPE  C31519083   2.596   5.568   4.456  0.2960  0.2159 -0.4528
  169SAPE  H15X19084   2.627   5.466   4.489 -0.8403  0.4053  1.2973
  169SAPE  H15Y19085   2.492   5.576   4.419 -0.0422 -1.0279  0.1623
  169SAPE  C31619086   2.599   5.644   4.589 -0.0537 -0.2812 -0.2760
  169SAPE  H16X19087   2.556   5.742   4.560 -0.1177  0.1863  1.3176
  169SAPE  H16Y19088   2.709   5.652   4.600  0.1779 -1.6244 -1.3182
  169SAPE  C31719089   2.529   5.601   4.712  0.1040  0.7951 -0.2942
  169SAPE  H17X19090   2.423   5.585   4.685  0.5946  0.0060 -1.9044
  169SAPE  H17Y19091   2.517   5.685   4.783 -3.8885  0.9786 -1.0094
  169SAPE  C31819092   2.578   5.470   4.777 -0.5601 -0.4446 -0.3773
  169SAPE  H18X19093   2.502   5.448   4.856 -1.1846  2.6303 -0.0048
  169SAPE  H18Y19094   2.675   5.500   4.822 -1.7946  2.9770  0.2691
  169SAPE  H18Z19095   2.590   5.380   4.713 -1.3957 -0.0244 -1.1401
  170SAPE     N19096   2.583   1.233   2.316  0.1472  0.3215 -0.8852
  170SAPE   HN119097   2.606   1.190   2.224 -1.5332  0.0788 -1.2410
  170SAPE   HN219098   2.479   1.244   2.324 -0.0165 -1.3004 -0.3962
  170SAPE   HN319099   2.636   1.318   2.340  0.5115 -0.8002  2.8496
  170SAPE   C1219100   2.630   1.128   2.418 -0.8296 -0.2981  0.5469
  170SAPE  H12A19101   2.739   1.123   2.396 -1.2515  0.6706 -2.0150
  170SAPE  H12B19102   2.576   1.036   2.388 -0.4052  0.0102 -1.2805
  170SAPE   C1119103   2.601   1.171   2.560  0.4788  0.2222 -0.9186
  170SAPE  H11A19104   2.496   1.207   2.568  0.5500  0.8835 -2.5718
  170SAPE  H11B19105   2.666   1.253   2.596  1.8571 -1.6047  1.0369
  170SAPE     P19106   2.724   0.969   2.669  0.3013 -0.1668 -0.2614
  170SAPE   O1319107   2.668   0.832   2.637 -0.1161  0.1526 -0.2633
  170SAPE   O1419108   2.840   1.016   2.588  0.2802 -0.0378 -0.6135
  170SAPE   O1219109   2.601   1.067   2.659 -0.0662  0.0218 -0.7460
  170SAPE   O1119110   2.744   0.972   2.824 -0.7569 -0.8067  0.1861
  170SAPE    C119111   2.813   1.072   2.890  0.5560 -0.2430 -0.4396
  170SAPE    HA19112   2.786   1.177   2.865 -1.7548 -0.5317  0.5727
  170SAPE    HB19113   2.792   1.068   2.999  0.3602 -2.1920 -0.5138
  170SAPE    C219114   2.966   1.053   2.875  0.0865 -0.8116  0.3609
  170SAPE    HS19115   2.986   1.017   2.771  0.3017  0.7798 -0.1719
  170SAPE   O2119116   3.005   0.958   2.980  0.8238  0.0684 -0.0167
  170SAPE   C2119117   3.120   0.892   2.954 -0.5444  0.4051 -0.2134
  170SAPE   O2219118   3.195   0.916   2.859  0.3004 -0.6533 -0.4721
  170SAPE   C2219119   3.150   0.799   3.079  0.6855 -0.1202 -0.3253
  170SAPE   H2R19120   3.093   0.838   3.166  0.7447 -0.1693 -0.2650
  170SAPE   H2S19121   3.126   0.694   3.051 -0.8825 -0.1131  0.8478
  170SAPE    C319122   3.040   1.189   2.887 -0.1622  0.9190  0.8766
  170SAPE    HX19123   3.035   1.253   2.796  2.7865  1.0974  0.7279
  170SAPE    HY19124   3.148   1.165   2.878 -0.6694 -1.8092  1.1526
  170SAPE   O3119125   3.012   1.268   3.006  0.4946  0.1875  0.1595
  170SAPE   C3119126   3.080   1.244   3.119  0.1245  0.0378  0.5923
  170SAPE   O3219127   3.166   1.165   3.134 -0.0878  0.8088 -0.2138
  170SAPE   C3219128   3.034   1.345   3.217  0.1510 -0.2125 -0.3552
  170SAPE   H2X19129   2.927   1.333   3.243  0.3963 -0.5977  0.5033
  170SAPE   H2Y19130   3.052   1.445   3.171 -1.0479 -0.4392 -1.3513
  170SAPE   C2319131   3.296   0.813   3.135 -0.0213 -0.0001  0.0924
  170SAPE   H3R19132   3.328   0.918   3.117 -0.4803  0.0772 -0.3002
  170SAPE   H3S19133   3.364   0.753   3.071 -1.1683 -1.3591  0.1042
  170SAPE   C2419134   3.292   0.778   3.285  0.2989 -0.4321 -0.4375
  170SAPE   H4R19135   3.236   0.682   3.296 -0.0941  0.0177  1.9171
  170SAPE   H4S19136   3.243   0.856   3.347 -0.1646 -1.0106 -0.0629
  170SAPE   C2519137   3.435   0.752   3.328  0.8250 -0.6073  0.0008
  170SAPE   H5R19138   3.481   0.668   3.273  1.8938 -0.0238 -0.0226
  170SAPE   C2619139   3.507   0.801   3.428 -0.5736 -0.2104 -0.3365
  170SAPE   H6R19140   3.611   0.767   3.434  0.0922  1.4200 -1.6232
  170SAPE   C2719141   3.460   0.911   3.515 -0.4589  0.1294  0.3618
  170SAPE   H7R19142   3.525   0.911   3.606 -1.0238 -0.6838  0.7789
  170SAPE   H7S19143   3.355   0.894   3.546 -1.0257  1.1555 -0.9274
  170SAPE   C2819144   3.476   1.045   3.447  0.4024  0.4260  0.6609
  170SAPE   H8R19145   3.457   1.040   3.338 -2.4783 -1.2215  1.1457
  170SAPE   C2919146   3.512   1.166   3.494  0.2304  0.5152 -0.5904
  170SAPE   H9R19147   3.513   1.257   3.433 -1.5166  0.2973 -0.9786
  170SAPE  C21019148   3.548   1.187   3.646  0.1757 -0.2201  0.2993
  170SAPE  H10R19149   3.631   1.259   3.662  0.2462 -0.6509  2.0054
  170SAPE  H10S19150   3.579   1.087   3.683 -1.1057 -1.3651 -1.5226
  170SAPE  C21119151   3.424   1.234   3.727  0.0277  0.3960 -0.5418
  170SAPE  H11R19152   3.349   1.290   3.669 -0.7877 -0.4595 -0.3366
  170SAPE  C21219153   3.413   1.208   3.857  0.2589 -0.0142 -1.0671
  170SAPE  H12R19154   3.331   1.255   3.913  2.2456  3.4404 -0.7757
  170SAPE  C21319155   3.512   1.139   3.947 -0.0358  0.1350  0.5952
  170SAPE  H13R19156   3.493   1.176   4.050 -0.9854  1.4493 -0.0175
  170SAPE  H13S19157   3.618   1.163   3.925  0.2989  0.1630  2.1073
  170SAPE  C21419158   3.498   0.989   3.953  0.3479  0.2663 -0.4994
  170SAPE  H14R19159   3.526   0.937   3.860  1.6545 -0.2340  0.1393
  170SAPE  C21519160   3.434   0.922   4.053 -0.4155 -0.0885 -0.3684
  170SAPE  H15R19161   3.450   0.813   4.050 -1.9895 -0.3332 -0.5001
  170SAPE  C21619162   3.369   0.982   4.175 -0.1997 -0.0696 -0.0079
  170SAPE  H16R19163   3.395   1.088   4.200  2.2057 -0.2594 -1.3814
  170SAPE  H16S19164   3.378   0.921   4.267 -1.8850  1.9567  1.6169
  170SAPE  C21719165   3.215   0.996   4.164 -0.4285  0.2814  0.2791
  170SAPE  H17R19166   3.167   0.904   4.124 -0.1777 -0.5366  1.7765
  170SAPE  H17S19167   3.190   1.078   4.094  1.1193  0.8570  0.3712
  170SAPE  C21819168   3.147   1.032   4.300 -0.4244 -0.5609  1.0405
  170SAPE  H18R19169   3.170   1.140   4.312  1.4408 -0.1767 -3.6684
  170SAPE  H18S19170   3.187   0.974   4.386 -1.8696  1.3113  3.0925
  170SAPE  C21919171   2.994   1.014   4.294 -0.3727 -0.2002 -0.3217
  170SAPE  H19R19172   2.968   0.987   4.399 -0.2260 -0.8783 -0.4584
  170SAPE  H19S19173   2.964   0.936   4.222 -0.6146 -0.4760  0.0741
  170SAPE  C22019174   2.926   1.146   4.272  0.2650 -0.1025 -0.0522
  170SAPE  H20R19175   2.944   1.222   4.352  1.8394  1.0329 -1.4111
  170SAPE  H20S19176   2.820   1.116   4.262  0.6600 -1.3232 -0.7948
  170SAPE  H20T19177   2.949   1.202   4.179 -1.8255 -1.8164 -1.6800
  170SAPE   C3319178   3.110   1.348   3.353 -0.0005  0.3771 -0.4749
  170SAPE   H3X19179   3.220   1.360   3.342  0.4483 -1.0692  1.8736
  170SAPE   H3Y19180   3.078   1.253   3.400  0.0225 -0.5192 -2.1857
  170SAPE   C3419181   3.061   1.465   3.446 -0.5882 -0.3300  0.8107
  170SAPE   H4X19182   2.952   1.474   3.431 -0.7877 -2.1279  1.0213
  170SAPE   H4Y19183   3.113   1.560   3.418 -0.0356 -0.6066  0.8876
  170SAPE   C3519184   3.094   1.438   3.596  0.4449 -0.4166 -0.8617
  170SAPE   H5X19185   3.194   1.389   3.600  1.0805  0.8984  0.8869
  170SAPE   H5Y19186   3.031   1.353   3.630 -0.0996  0.2407 -0.1838
  170SAPE   C3619187   3.080   1.564   3.687  0.0317 -0.0762  0.5880
  170SAPE   H6X19188   2.971   1.578   3.706 -0.4210 -2.1974 -0.1148
  170SAPE   H6Y19189   3.133   1.641   3.627  3.9529 -0.3130  3.4449
  170SAPE   C3719190   3.147   1.550   3.823 -0.5670 -0.6305 -0.8701
  170SAPE   H7X19191   3.255   1.574   3.816 -1.2939  3.0659 -1.0527
  170SAPE   H7Y19192   3.152   1.445   3.859  0.2289  0.0371  1.0931
  170SAPE   C3819193   3.078   1.639   3.924  0.0651 -0.4681 -0.1391
  170SAPE   H8X19194   2.972   1.613   3.948 -0.8936  2.0062 -1.3192
  170SAPE   H8Y19195   3.073   1.745   3.892 -2.3588  0.5644  3.0900
  170SAPE   C3919196   3.148   1.625   4.054  0.5828  0.5238 -1.0394
  170SAPE   H9X19197   3.256   1.648   4.041  0.8154 -1.0909 -2.2096
  170SAPE   H9Y19198   3.146   1.517   4.081  0.5718  0.1364 -2.5101
  170SAPE  C31019199   3.101   1.722   4.167  0.1769 -0.0657 -0.6951
  170SAPE  H10X19200   2.996   1.697   4.196  1.6090 -1.5122  4.1653
  170SAPE  H10Y19201   3.105   1.826   4.128  0.4480 -0.1488 -0.8903
  170SAPE  C31119202   3.181   1.713   4.297 -0.2024  0.0620  0.2044
  170SAPE  H11X19203   3.161   1.793   4.371 -2.5683 -0.5510  0.2945
  170SAPE  H11Y19204   3.289   1.715   4.270  0.4381  1.2429  2.5861
  170SAPE  C31219205   3.143   1.577   4.359 -0.1998 -0.2259  0.0981
  170SAPE  H12X19206   3.176   1.494   4.293 -0.4195 -1.6087  1.6707
  170SAPE  H12Y19207   3.032   1.572   4.372 -0.3572 -1.4160 -1.4423
  170SAPE  C31319208   3.191   1.557   4.506 -0.1585 -0.3902 -0.8317
  170SAPE  H13X19209   3.157   1.646   4.563  0.1206 -0.8269  0.0270
  170SAPE  H13Y19210   3.302   1.561   4.508 -0.2010  1.4420  0.7839
  170SAPE  C31419211   3.140   1.424   4.569  0.6073  0.7165  0.6918
  170SAPE  H14X19212   3.202   1.335   4.546 -1.0278  0.1399 -1.9430
  170SAPE  H14Y19213   3.052   1.402   4.504  0.6929 -2.8846  1.6017
  170SAPE  C31519214   3.118   1.421   4.721  0.1423 -0.0592 -0.0192
  170SAPE  H15X19215   3.065   1.513   4.756 -0.5347 -1.1168  1.8635
  170SAPE  H15Y19216   3.218   1.439   4.766  0.5743  1.0602 -1.3395
  170SAPE  C31619217   3.045   1.295   4.772 -0.2287  1.1258  0.4540
  170SAPE  H16X19218   3.066   1.291   4.881  0.5942 -1.0568  0.2759
  170SAPE  H16Y19219   3.096   1.206   4.729  1.2143  1.8576  0.6146
  170SAPE  C31719220   2.898   1.303   4.728  0.3141 -0.0460 -0.1273
  170SAPE  H17X19221   2.891   1.325   4.619 -0.9168  0.4898  0.0424
  170SAPE  H17Y19222   2.865   1.392   4.786  0.3634  2.0272 -3.0630
  170SAPE  C31819223   2.816   1.186   4.776  0.4920  0.7826 -0.3967
  170SAPE  H18X19224   2.787   1.189   4.883 -1.5849 -2.4811 -0.7157
  170SAPE  H18Y19225   2.859   1.084   4.765 -2.8624 -0.7417 -0.7982
  170SAPE  H18Z19226   2.724   1.188   4.714 -1.4022  0.1042  2.2320
  171SAPE     N19227   4.173   1.604   2.507 -0.5466 -0.4407  0.3270
  171SAPE   HN119228   4.212   1.566   2.595  2.3999 -2.0774 -1.5236
  171SAPE   HN219229   4.260   1.623   2.454 -1.9251  0.4830 -1.7898
  171SAPE   HN319230   4.124   1.692   2.535  2.3439  0.6926  2.1973
  171SAPE   C1219231   4.083   1.502   2.446  0.9548  0.0238 -0.0227
  171SAPE  H12A19232   4.010   1.465   2.521  1.8314  1.2306  1.4896
  171SAPE  H12B19233   4.150   1.423   2.406  1.6313  0.9413 -0.7717
  171SAPE   C1119234   4.003   1.575   2.333 -0.4444  0.5644 -0.2726
  171SAPE  H11A19235   3.931   1.504   2.285  1.0430 -0.6346 -0.8188
  171SAPE  H11B19236   4.075   1.612   2.257 -0.2898 -1.0398 -0.9633
  171SAPE     P19237   3.849   1.782   2.300  0.0229 -0.2769 -0.5801
  171SAPE   O1319238   3.828   1.719   2.168 -0.7341  0.0061 -0.1134
  171SAPE   O1419239   3.724   1.815   2.372  0.4276 -0.1388  1.2298
  171SAPE   O1219240   3.928   1.684   2.390  0.1989 -0.2822 -0.3803
  171SAPE   O1119241   3.939   1.915   2.284 -0.3931  0.3628  0.5541
  171SAPE    C119242   4.067   1.938   2.350  0.0442  1.0101  0.0600
  171SAPE    HA19243   4.123   1.847   2.380 -2.1831  0.1303  1.8765
  171SAPE    HB19244   4.122   1.990   2.269 -0.5235  1.8701  0.2099
  171SAPE    C219245   4.056   2.044   2.462  0.7076  0.4985  0.2430
  171SAPE    HS19246   4.154   2.049   2.514  0.5118 -1.6769  0.9088
  171SAPE   O2119247   3.945   1.998   2.547  0.2649  0.4162  0.6881
  171SAPE   C2119248   3.984   1.911   2.634  0.2296 -0.5137  0.5795
  171SAPE   O2219249   4.077   1.835   2.625  0.2236  0.4656 -0.1390
  171SAPE   C2219250   3.888   1.931   2.755  0.2337 -0.4611 -0.1020
  171SAPE   H2R19251   3.785   1.927   2.712  0.9123 -1.1875 -1.7443
  171SAPE   H2S19252   3.908   1.853   2.832  0.3288 -1.1978 -0.8567
  171SAPE    C319253   4.006   2.184   2.403  0.0151  0.3490 -0.0580
  171SAPE    HX19254   3.910   2.163   2.352  0.1101 -0.3959  0.0501
  171SAPE    HY19255   4.085   2.215   2.331  1.5064  0.1079  1.4096
  171SAPE   O3119256   3.993   2.287   2.502  0.0182  0.2884 -0.0454
  171SAPE   C3119257   4.017   2.412   2.460 -0.0894 -0.1007 -0.5228
  171SAPE   O3219258   4.014   2.449   2.345  0.0544 -0.0878 -0.4225
  171SAPE   C3219259   4.022   2.508   2.581 -0.5164  0.2639 -0.4895
  171SAPE   H2X19260   3.938   2.469   2.643 -1.1457  1.8660 -0.3009
  171SAPE   H2Y19261   3.992   2.609   2.547 -0.0634  0.8930  0.9281
  171SAPE   C2319262   3.886   2.073   2.820  0.2277 -0.2816  0.3355
  171SAPE   H3R19263   3.795   2.073   2.884 -0.4938  0.4234 -0.6594
  171SAPE   H3S19264   3.866   2.148   2.741 -2.6316 -0.3775  0.8830
  171SAPE   C2419265   4.006   2.116   2.902 -0.2628 -0.3284 -0.1603
  171SAPE   H4R19266   4.092   2.131   2.833  0.5688 -0.9656  0.7018
  171SAPE   H4S19267   4.036   2.051   2.987  0.8121  0.3292 -0.0164
  171SAPE   C2519268   3.966   2.247   2.965 -0.1665 -0.3670  0.0982
  171SAPE   H5R19269   3.958   2.337   2.903  0.0043 -0.8070 -0.5748
  171SAPE   C2619270   3.922   2.280   3.088 -0.0632  0.2554  0.2164
  171SAPE   H6R19271   3.899   2.386   3.105  1.0210  0.2043  2.3166
  171SAPE   C2719272   3.918   2.184   3.205 -0.2707  0.2318  0.1056
  171SAPE   H7R19273   4.015   2.199   3.256  0.0324  0.0502 -0.4056
  171SAPE   H7S19274   3.895   2.077   3.182  0.1454  0.2886 -0.6023
  171SAPE   C2819275   3.798   2.237   3.285 -0.3894 -0.0921  0.2473
  171SAPE   H8R19276   3.707   2.251   3.224  0.6897 -0.3519 -1.4867
  171SAPE   C2919277   3.790   2.246   3.418  0.1630  0.2788  0.4866
  171SAPE   H9R19278   3.692   2.284   3.451 -0.1807  1.1126 -1.3307
  171SAPE  C21019279   3.891   2.208   3.517 -0.1816  0.1126 -0.0006
  171SAPE  H10R19280   3.922   2.104   3.491 -2.6514 -0.5592 -0.4751
  171SAPE  H10S19281   3.834   2.196   3.611 -1.6132  0.5462 -0.7782
  171SAPE  C21119282   4.012   2.295   3.528 -0.0005  0.2424  0.0628
  171SAPE  H11R19283   4.092   2.281   3.454 -0.1817  0.9187 -0.2632
  171SAPE  C21219284   4.030   2.388   3.622 -0.2607 -0.0902 -0.2525
  171SAPE  H12R19285   4.117   2.455   3.621  0.4549 -0.9272  1.5594
  171SAPE  C21319286   3.941   2.425   3.739 -0.5838 -0.2748 -0.1144
  171SAPE  H13R19287   3.840   2.403   3.697  0.0722 -1.2581 -1.2571
  171SAPE  H13S19288   3.952   2.535   3.754 -4.4128  0.4126 -1.3715
  171SAPE  C21419289   3.950   2.340   3.865 -0.5377  0.1155 -0.6035
  171SAPE  H14R19290   3.938   2.232   3.850 -1.8598  0.1808 -0.1392
  171SAPE  C21519291   3.968   2.388   3.985  0.5163  0.7278  0.2594
  171SAPE  H15R19292   3.955   2.325   4.074 -0.0573  1.6901  0.8738
  171SAPE  C21619293   3.995   2.535   4.029 -0.8275  0.2843 -0.0385
  171SAPE  H16R19294   4.033   2.595   3.943  0.0945 -0.4877 -0.1882
  171SAPE  H16S19295   4.087   2.531   4.091  1.2197 -1.2594 -2.9527
  171SAPE  C21719296   3.871   2.602   4.096 -0.0776  0.2634  0.0025
  171SAPE  H17R19297   3.785   2.552   4.046  0.9222 -1.2483 -0.2792
  171SAPE  H17S19298   3.886   2.704   4.057  0.6144  0.1737  0.0259
  171SAPE  C21819299   3.864   2.575   4.249  0.3595 -0.4764 -0.1102
  171SAPE  H18R19300   3.966   2.600   4.284 -0.9589  2.4212  2.1476
  171SAPE  H18S19301   3.855   2.465   4.263  0.4068 -0.2404  2.2484
  171SAPE  C21919302   3.752   2.636   4.331  0.0139 -0.1594  0.0511
  171SAPE  H19R19303   3.658   2.610   4.278 -0.5733 -0.2564  1.1212
  171SAPE  H19S19304   3.744   2.747   4.321  0.9019 -0.1079 -0.2041
  171SAPE  C22019305   3.733   2.600   4.478 -0.0060  0.4556  0.4294
  171SAPE  H20R19306   3.650   2.654   4.528 -0.1402  0.3321  0.3413
  171SAPE  H20S19307   3.830   2.632   4.523  1.0866 -0.9620 -0.7905
  171SAPE  H20T19308   3.722   2.490   4.495  0.5327  0.5507  1.5331
  171SAPE   C3319309   4.160   2.516   2.643 -0.3333  0.0883  0.0293
  171SAPE   H3X19310   4.181   2.608   2.701  1.5196 -0.4931  0.3434
  171SAPE   H3Y19311   4.228   2.524   2.556 -0.0517 -0.7103  0.1720
  171SAPE   C3419312   4.192   2.396   2.733  0.4208 -0.2933 -0.2929
  171SAPE   H4X19313   4.159   2.305   2.678  1.7580  0.2346 -2.0972
  171SAPE   H4Y19314   4.136   2.412   2.827 -0.8329  1.1780 -1.2383
  171SAPE   C3519315   4.344   2.386   2.754 -0.9078  0.1403  0.9823
  171SAPE   H5X19316   4.389   2.478   2.797  0.7312  1.3398 -2.8600
  171SAPE   H5Y19317   4.398   2.363   2.659  1.4321  1.7135  1.8665
  171SAPE   C3619318   4.373   2.265   2.844  0.1055 -0.4655  0.0624
  171SAPE   H6X19319   4.482   2.250   2.827  0.3715  1.1736  0.0866
  171SAPE   H6Y19320   4.317   2.174   2.815 -0.6873  0.4257 -1.2725
  171SAPE   C3719321   4.346   2.286   2.994  0.1046 -0.0882  0.6461
  171SAPE   H7X19322   4.236   2.272   3.006 -0.1231  0.1549 -0.9986
  171SAPE   H7Y19323   4.371   2.392   3.018  2.0120  0.0372 -1.5731
  171SAPE   C3819324   4.417   2.191   3.087 -0.1774  0.3641  0.2563
  171SAPE   H8X19325   4.525   2.193   3.059  0.0799  1.3181  1.2437
  171SAPE   H8Y19326   4.382   2.087   3.070  0.9275  0.1240 -0.7378
  171SAPE   C3919327   4.396   2.215   3.240 -0.3553  0.4235  0.2460
  171SAPE   H9X19328   4.292   2.240   3.268 -0.3515  1.0550 -0.2915
  171SAPE   H9Y19329   4.452   2.307   3.265 -0.5348  0.3462  0.9542
  171SAPE  C31019330   4.447   2.098   3.324 -0.2223  0.1064  1.2264
  171SAPE  H10X19331   4.556   2.092   3.304 -0.5301 -0.0532 -0.5631
  171SAPE  H10Y19332   4.405   2.003   3.285  1.3663 -0.2970  0.4056
  171SAPE  C31119333   4.407   2.123   3.472 -0.1772 -0.4363  0.5634
  171SAPE  H11X19334   4.398   2.026   3.527 -0.1075 -1.3354 -0.9477
  171SAPE  H11Y19335   4.316   2.187   3.473  0.6749  1.1161 -3.6371
  171SAPE  C31219336   4.505   2.202   3.551 -0.4449 -0.3199  0.1007
  171SAPE  H12X19337   4.520   2.302   3.505  1.2683 -0.0006  1.2582
  171SAPE  H12Y19338   4.602   2.148   3.554 -0.3752 -0.2121 -0.2463
  171SAPE  C31319339   4.464   2.236   3.704  0.2034  0.3525  0.2704
  171SAPE  H13X19340   4.458   2.347   3.707 -0.1965  0.3746 -0.8856
  171SAPE  H13Y19341   4.548   2.214   3.774  1.1147  0.9924 -0.5775
  171SAPE  C31419342   4.331   2.179   3.753  0.5682  0.0883 -0.4757
  171SAPE  H14X19343   4.359   2.074   3.774  2.4194 -0.1732 -3.6099
  171SAPE  H14Y19344   4.254   2.190   3.673 -0.7999  0.1595  0.7952
  171SAPE  C31519345   4.274   2.252   3.878 -0.2125  0.3645 -0.2953
  171SAPE  H15X19346   4.186   2.186   3.894 -0.9891  1.7187  1.3929
  171SAPE  H15Y19347   4.233   2.351   3.847 -0.1180  0.9481  1.3741
  171SAPE  C31619348   4.375   2.269   3.986 -0.0901 -0.1300  0.5325
  171SAPE  H16X19349   4.460   2.333   3.956  0.4345 -0.3056  1.5996
  171SAPE  H16Y19350   4.411   2.167   4.011  1.6525  0.3627  0.1015
  171SAPE  C31719351   4.312   2.321   4.117  0.0772  0.6158  0.3069
  171SAPE  H17X19352   4.222   2.256   4.125 -0.4369  1.1720 -0.6754
  171SAPE  H17Y19353   4.278   2.426   4.105 -1.3842  0.0748 -0.5535
  171SAPE  C31819354   4.398   2.296   4.241  0.8537 -0.1661  0.1793
  171SAPE  H18X19355   4.439   2.194   4.254  1.5808  0.3140  1.8917
  171SAPE  H18Y19356   4.344   2.319   4.336  2.5620  0.0392  1.1404
  171SAPE  H18Z19357   4.486   2.363   4.236  0.7177 -0.0607 -1.2492
  172SAPE     N19358   4.436   3.949   2.579 -0.4264 -0.1828 -0.7634
  172SAPE   HN119359   4.505   3.902   2.518 -0.8358 -1.8611  0.0053
  172SAPE   HN219360   4.352   3.889   2.569  0.2747 -1.1859 -0.7198
  172SAPE   HN319361   4.419   4.040   2.531  1.1445  0.0261 -0.9846
  172SAPE   C1219362   4.490   3.961   2.720 -0.1476  0.6825 -0.1673
  172SAPE  H12A19363   4.599   3.983   2.718  0.0811  0.3416  3.0388
  172SAPE  H12B19364   4.472   3.861   2.765 -1.6286  0.7131 -0.6406
  172SAPE   C1119365   4.410   4.071   2.796 -0.2096 -0.0039 -0.4227
  172SAPE  H11A19366   4.422   4.165   2.738  3.5438 -0.5539 -0.7789
  172SAPE  H11B19367   4.472   4.087   2.887  1.5278  1.8721 -1.8338
  172SAPE     P19368   4.160   4.135   2.841  0.2054 -0.1073  0.2849
  172SAPE   O1319369   4.151   4.223   2.723 -0.8186  0.4622  0.2221
  172SAPE   O1419370   4.036   4.067   2.883 -0.1921  0.1595  0.0111
  172SAPE   O1219371   4.277   4.029   2.821  0.1330  0.2707 -0.6074
  172SAPE   O1119372   4.220   4.213   2.963 -0.2060  0.8039  0.5455
  172SAPE    C119373   4.235   4.142   3.093  0.4842 -0.0346  0.0177
  172SAPE    HA19374   4.158   4.063   3.108 -1.2205  1.6709  0.6206
  172SAPE    HB19375   4.331   4.087   3.094  0.1453 -0.8148  3.4201
  172SAPE    C219376   4.225   4.240   3.215 -0.3114 -0.4056  0.5537
  172SAPE    HS19377   4.126   4.289   3.197 -0.9146 -2.0529 -0.8654
  172SAPE   O2119378   4.341   4.337   3.212 -0.6862  0.3494 -0.1162
  172SAPE   C2119379   4.324   4.442   3.277 -0.9547  0.0553 -0.1573
  172SAPE   O2219380   4.217   4.486   3.314  0.3522  0.5198 -0.2747
  172SAPE   C2219381   4.454   4.509   3.301 -0.1625  0.0305  0.1477
  172SAPE   H2R19382   4.532   4.433   3.323 -0.9553 -0.5466  1.0058
  172SAPE   H2S19383   4.484   4.572   3.214 -0.0617 -0.1079  0.0816
  172SAPE    C319384   4.229   4.163   3.347  0.5966 -0.3467 -0.1262
  172SAPE    HX19385   4.334   4.129   3.365  1.1287  1.7957  1.2883
  172SAPE    HY19386   4.168   4.070   3.340 -0.9434  0.5947  0.2853
  172SAPE   O3119387   4.191   4.249   3.456  0.5878 -0.1328 -0.4648
  172SAPE   C3119388   4.064   4.240   3.491 -0.8120  0.2904  0.6669
  172SAPE   O3219389   3.979   4.173   3.435 -0.0222  0.7408  0.4325
  172SAPE   C3219390   4.042   4.337   3.606  0.1353 -0.1877  0.3010
  172SAPE   H2X19391   3.950   4.396   3.589 -1.2604 -2.1626  0.6569
  172SAPE   H2Y19392   4.125   4.411   3.608 -0.3684  0.3718  0.4857
  172SAPE   C2319393   4.449   4.599   3.432  0.4333  0.0099 -0.0249
  172SAPE   H3R19394   4.384   4.688   3.414  0.0892  0.3904  2.6790
  172SAPE   H3S19395   4.547   4.651   3.434  0.8471 -0.7760  1.3673
  172SAPE   C2419396   4.415   4.528   3.561  0.5007  1.0069 -0.7209
  172SAPE   H4R19397   4.496   4.455   3.583 -1.2445 -0.2983  2.1179
  172SAPE   H4S19398   4.318   4.474   3.547 -0.0432  2.4154 -2.8466
  172SAPE   C2519399   4.403   4.615   3.689  0.7366  0.1511 -0.3241
  172SAPE   H5R19400   4.411   4.721   3.662 -1.1684 -0.0000 -1.7383
  172SAPE   C2619401   4.405   4.576   3.819 -0.2393  0.6497  1.0536
  172SAPE   H6R19402   4.394   4.651   3.899  0.1018  1.7719  0.0844
  172SAPE   C2719403   4.405   4.428   3.847 -0.5329  0.0490 -0.0357
  172SAPE   H7R19404   4.355   4.366   3.770  1.5786  2.0018 -3.1867
  172SAPE   H7S19405   4.340   4.413   3.936  0.3697  2.6077  1.1582
  172SAPE   C2819406   4.542   4.364   3.863 -0.2713  0.7928 -0.0179
  172SAPE   H8R19407   4.573   4.310   3.772  0.0635  0.7344  0.1295
  172SAPE   C2919408   4.636   4.389   3.958  0.4021 -0.4931  0.4554
  172SAPE   H9R19409   4.732   4.338   3.944  1.6510  2.3240 -2.8778
  172SAPE  C21019410   4.604   4.472   4.082  0.7226 -1.0815  0.0498
  172SAPE  H10R19411   4.494   4.480   4.095  0.8622  1.8776  0.1730
  172SAPE  H10S19412   4.633   4.579   4.074 -0.0877 -0.8904 -0.4419
  172SAPE  C21119413   4.649   4.409   4.210  0.1358  0.2469  0.5180
  172SAPE  H11R19414   4.670   4.301   4.199  0.8615  0.4761 -0.4370
  172SAPE  C21219415   4.664   4.468   4.330  0.0080  0.2134  0.2239
  172SAPE  H12R19416   4.701   4.409   4.415 -0.1713  1.2349  1.0364
  172SAPE  C21319417   4.618   4.606   4.366  0.5870 -0.2033  0.8565
  172SAPE  H13R19418   4.574   4.668   4.285 -1.0850 -3.1686 -0.6750
  172SAPE  H13S19419   4.700   4.666   4.411  1.1985  0.9405 -1.6108
  172SAPE  C21419420   4.511   4.604   4.468 -0.4100 -0.3898 -0.5637
  172SAPE  H14R19421   4.411   4.588   4.425 -0.8304  3.1229 -1.1514
  172SAPE  C21519422   4.516   4.613   4.601  0.3431 -0.2943 -0.0328
  172SAPE  H15R19423   4.423   4.615   4.659  0.9603 -0.0150  0.9838
  172SAPE  C21619424   4.641   4.632   4.686 -0.5374  0.1174 -0.5154
  172SAPE  H16R19425   4.607   4.654   4.789 -0.9782 -2.1783 -0.0981
  172SAPE  H16S19426   4.702   4.720   4.658  0.1896  0.8205  2.8713
  172SAPE  C21719427   4.751   4.519   4.690  0.2728 -0.3556 -0.1018
  172SAPE  H17R19428   4.824   4.542   4.770 -1.0189  0.3800  0.9070
  172SAPE  H17S19429   4.805   4.508   4.594 -0.5805  0.3763 -0.6861
  172SAPE  C21819430   4.685   4.385   4.728  0.9266 -0.1010 -0.4342
  172SAPE  H18R19431   4.591   4.361   4.675  0.9830 -0.3671 -0.4124
  172SAPE  H18S19432   4.654   4.395   4.834 -0.6568  1.6479 -1.0038
  172SAPE  C21919433   4.787   4.265   4.730  0.9494  0.0451  0.1120
  172SAPE  H19R19434   4.742   4.176   4.780 -2.0162  1.1289 -0.4151
  172SAPE  H19S19435   4.872   4.305   4.790  0.4413  0.3834  0.6222
  172SAPE  C22019436   4.830   4.225   4.587  0.0660  0.0620  0.5012
  172SAPE  H20R19437   4.873   4.321   4.550 -2.0670  0.7468 -0.3684
  172SAPE  H20S19438   4.747   4.185   4.524 -1.8610  3.0818  0.9251
  172SAPE  H20T19439   4.912   4.151   4.585  1.8093  1.9110 -1.1494
  172SAPE   C3319440   4.029   4.266   3.743 -0.2516  0.1474  0.3372
  172SAPE   H3X19441   4.116   4.204   3.772 -0.1775  0.5586  1.0351
  172SAPE   H3Y19442   3.950   4.190   3.760  0.6566 -0.5191  1.8379
  172SAPE   C3419443   4.029   4.371   3.856  0.4826  0.3259 -0.1032
  172SAPE   H4X19444   3.928   4.417   3.855  0.6826  0.8243  1.2791
  172SAPE   H4Y19445   4.105   4.449   3.835  1.1997 -0.8784 -2.3578
  172SAPE   C3519446   4.064   4.305   3.991 -0.0798  0.4185  1.0635
  172SAPE   H5X19447   4.174   4.295   4.000  0.0933  2.1278  1.2000
  172SAPE   H5Y19448   4.017   4.204   3.995  1.6899 -0.4854  0.0623
  172SAPE   C3619449   4.025   4.393   4.113  0.2547 -0.0890 -0.4185
  172SAPE   H6X19450   3.920   4.371   4.143  0.6119 -0.1943  0.8058
  172SAPE   H6Y19451   4.023   4.502   4.089 -3.2985  0.6352  2.2289
  172SAPE   C3719452   4.110   4.365   4.236  0.0222  0.1554 -0.7044
  172SAPE   H7X19453   4.217   4.375   4.209  0.8807 -0.1981  2.2926
  172SAPE   H7Y19454   4.096   4.259   4.264 -1.4855  0.7808  1.1139
  172SAPE   C3819455   4.098   4.469   4.343 -0.1343  0.8603  0.4800
  172SAPE   H8X19456   4.006   4.528   4.321  0.0913  0.8626 -0.5443
  172SAPE   H8Y19457   4.186   4.537   4.340  0.6105 -0.1093 -1.9550
  172SAPE   C3919458   4.073   4.408   4.477 -0.0384  0.5096  0.8165
  172SAPE   H9X19459   4.165   4.380   4.531  1.1640  2.7983  0.1078
  172SAPE   H9Y19460   4.006   4.322   4.458 -0.5234  1.2368 -1.0790
  172SAPE  C31019461   4.004   4.501   4.577 -0.0760  0.4145 -0.5368
  172SAPE  H10X19462   3.949   4.445   4.655 -0.2261  1.4339  0.1044
  172SAPE  H10Y19463   3.928   4.574   4.540  0.4297  0.1713 -2.1371
  172SAPE  C31119464   4.116   4.585   4.653  0.2182 -0.0773  0.0593
  172SAPE  H11X19465   4.162   4.645   4.572  2.2006 -0.4241  0.8737
  172SAPE  H11Y19466   4.197   4.532   4.707 -1.3621  0.0952  2.7763
  172SAPE  C31219467   4.054   4.688   4.747 -0.5113  0.0622  0.1925
  172SAPE  H12X19468   3.989   4.637   4.821  0.6223  0.8406  1.7934
  172SAPE  H12Y19469   3.993   4.760   4.688  1.1387  2.4400  1.2094
  172SAPE  C31319470   4.161   4.792   4.805 -0.5642  0.3529 -0.9874
  172SAPE  H13X19471   4.113   4.875   4.861 -0.9312  0.0163 -0.8024
  172SAPE  H13Y19472   4.229   4.823   4.723  1.7059  1.4552  1.1765
  172SAPE  C31419473   4.248   4.719   4.910  0.0807 -0.1520  0.7572
  172SAPE  H14X19474   4.320   4.646   4.867  2.2167  2.5664 -0.6410
  172SAPE  H14Y19475   4.184   4.675   4.989 -2.6767 -1.5429 -2.0631
  172SAPE  C31519476   4.343   4.828   4.975  0.7524  0.6016 -0.3873
  172SAPE  H15X19477   4.396   4.892   4.901  0.7901 -0.6184 -1.4485
  172SAPE  H15Y19478   4.414   4.758   5.024 -0.2425 -0.0393  0.1721
  172SAPE  C31619479   4.261   4.905   5.088  0.1047  0.2254  0.1876
  172SAPE  H16X19480   4.205   4.821   5.136 -0.7241  0.0505 -1.0402
  172SAPE  H16Y19481   4.181   4.964   5.038 -0.3161  0.9025  1.6049
  172SAPE  C31719482   4.348   5.000   5.167 -0.5558  0.4640 -0.5235
  172SAPE  H17X19483   4.414   5.054   5.097  0.3000 -0.3641 -0.3734
  172SAPE  H17Y19484   4.420   4.930   5.214  0.1476  3.0800  2.6562
  172SAPE  C31819485   4.270   5.084   5.276 -0.0922 -0.7080  0.4170
  172SAPE  H18X19486   4.346   5.136   5.339 -1.2906  0.9272  0.5717
  172SAPE  H18Y19487   4.198   5.026   5.338 -1.2956 -0.8409 -1.0433
  172SAPE  H18Z19488   4.214   5.156   5.213  2.1876  0.1914 -0.7266
  173SLPC     N19489   1.120   3.100   6.850  0.1695  0.3171  0.7221
  173SLPC   C1319490   0.978   3.124   6.812  0.3815  0.1469 -0.1914
  173SLPC  H13A19491   0.904   3.118   6.890  1.3190  2.2608  0.9278
  173SLPC  H13B19492   0.967   3.221   6.766 -4.5135  1.7991  3.5647
  173SLPC  H13C19493   0.948   3.047   6.742  0.8486 -0.7486  0.5747
  173SLPC   C1419494   1.188   3.227   6.892 -0.1311  0.3602 -0.3618
  173SLPC  H14A19495   1.295   3.210   6.895 -0.5157 -2.3938  1.5014
  173SLPC  H14B19496   1.171   3.304   6.818 -0.3316  0.4657 -0.2086
  173SLPC  H14C19497   1.168   3.260   6.993 -0.6106 -0.4703 -0.1758
  173SLPC   C1519498   1.187   3.047   6.730  0.0731 -0.3159  0.4939
  173SLPC  H15A19499   1.150   2.952   6.695  0.2356  0.2971 -1.4572
  173SLPC  H15B19500   1.182   3.119   6.650 -2.7733  2.2214  2.7135
  173SLPC  H15C19501   1.293   3.036   6.750  1.0957  0.1910 -3.7274
  173SLPC   C1219502   1.129   2.993   6.963  0.0216  0.0511  0.4259
  173SLPC  H12A19503   1.077   2.905   6.927  1.6357 -0.3348 -1.0944
  173SLPC  H12B19504   1.073   3.022   7.051  1.0045  1.2739  0.6578
  173SLPC   C1119505   1.273   2.942   6.994 -1.0780 -0.2896 -0.0627
  173SLPC  H11A19506   1.321   2.910   6.899  0.3016  1.1669  0.1018
  173SLPC  H11B19507   1.253   2.858   7.064  0.7311 -0.4975  0.2613
  173SLPC     P19508   1.503   3.062   7.018  0.2577 -0.1659  0.1644
  173SLPC   O1319509   1.562   3.168   7.106  0.1850  0.3258  0.2634
  173SLPC   O1419510   1.563   2.926   7.026 -0.1964  0.3054  0.4479
  173SLPC   O1219511   1.350   3.046   7.061 -0.0106  0.0501 -0.9194
  173SLPC   O1119512   1.477   3.109   6.868 -0.4002  0.0445 -0.1420
  173SLPC    C119513   1.561   3.195   6.798 -0.4412 -0.1174  0.2363
  173SLPC    HA19514   1.526   3.297   6.826  0.2183 -0.1114  1.1094
  173SLPC    HB19515   1.669   3.186   6.824 -0.6128 -0.0714  0.9987
  173SLPC    C219516   1.555   3.165   6.644  0.2321 -0.6370 -0.1944
  173SLPC    HS19517   1.455   3.163   6.597 -1.0633  0.3123  2.3411
  173SLPC   O2119518   1.627   3.042   6.612  0.3003  0.5342 -0.3125
  173SLPC   C2119519   1.561   2.927   6.606 -0.6987  0.1224  0.1453
  173SLPC   O2219520   1.445   2.910   6.626 -0.1245 -0.2304  0.7786
  173SLPC   C2219521   1.648   2.821   6.566 -0.6526 -0.3276 -0.4030
  173SLPC   H2R19522   1.750   2.838   6.606 -1.8383 -0.6742  3.0984
  173SLPC   H2S19523   1.621   2.720   6.603 -2.4047 -0.2906 -1.4740
  173SLPC    C319524   1.610   3.284   6.566 -0.2432 -0.5811 -0.4726
  173SLPC    HX19525   1.716   3.313   6.584  0.2455 -0.2465 -3.4043
  173SLPC    HY19526   1.555   3.377   6.592 -1.0799 -1.2005  0.0254
  173SLPC   O3119527   1.582   3.253   6.428  0.0129  0.7981  0.2605
  173SLPC   C3119528   1.684   3.253   6.341 -0.1026 -0.3827  0.3692
  173SLPC   O3219529   1.799   3.287   6.372  0.0517  0.7646  0.4812
  173SLPC   C3219530   1.640   3.188   6.212  0.0277 -0.0930 -0.2073
  173SLPC   H2X19531   1.538   3.221   6.185 -1.0952 -2.0132  1.4080
  173SLPC   H2Y19532   1.635   3.078   6.223 -0.2652  0.1228  2.1852
  173SLPC   C2319533   1.661   2.810   6.408  0.5461 -0.0077 -0.0344
  173SLPC   H3R19534   1.743   2.739   6.385  0.9445  0.5591 -0.3968
  173SLPC   H3S19535   1.687   2.914   6.378  1.6260  0.5042  2.4223
  173SLPC   C2419536   1.541   2.755   6.345  0.2397 -0.1515  0.4650
  173SLPC   H4R19537   1.448   2.792   6.394  0.1448 -1.3681  1.2352
  173SLPC   H4S19538   1.535   2.645   6.360  1.5410 -0.5799 -1.7487
  173SLPC   C2519539   1.523   2.783   6.202 -0.5800 -0.3725  0.4421
  173SLPC   H5R19540   1.509   2.892   6.184 -1.6821 -0.6410 -0.4929
  173SLPC   H5S19541   1.437   2.721   6.168 -0.1326 -0.7885  0.0476
  173SLPC   C2619542   1.645   2.735   6.110  0.2018 -0.1196 -0.3580
  173SLPC   H6R19543   1.735   2.787   6.148 -0.2767  1.0314 -0.7544
  173SLPC   H6S19544   1.611   2.773   6.012  0.5188  2.2783  0.4095
  173SLPC   C2719545   1.671   2.585   6.100 -0.0707 -0.0610  0.3900
  173SLPC   H7R19546   1.578   2.537   6.060 -0.1066 -1.6513  2.2445
  173SLPC   H7S19547   1.695   2.547   6.201 -0.7013  0.3611  0.7022
  173SLPC   C2819548   1.787   2.546   6.011 -0.2774  0.4121  0.5310
  173SLPC   H8R19549   1.881   2.581   6.057  1.3514 -1.2759 -1.3261
  173SLPC   H8S19550   1.788   2.590   5.910 -0.8748  1.5276  0.9959
  173SLPC   C2919551   1.789   2.397   6.000 -0.3587  0.2296 -0.2975
  173SLPC   H9R19552   1.759   2.334   6.086  1.2875  1.1845  1.0529
  173SLPC  C21019553   1.846   2.325   5.900  0.2372  0.4628 -0.1110
  173SLPC  H10R19554   1.851   2.216   5.914 -1.0895  0.5049  0.8922
  173SLPC  C21119555   1.899   2.380   5.769 -0.4538  0.0689  0.1122
  173SLPC  H11R19556   1.925   2.488   5.763  0.2657  0.0119  1.6875
  173SLPC  H11S19557   1.832   2.354   5.684 -0.8602  0.0781  0.4307
  173SLPC  C21219558   2.036   2.315   5.753  0.0209  0.3650  0.8590
  173SLPC  H12R19559   2.094   2.307   5.846 -0.7670  1.7417  1.5038
  173SLPC  C21319560   2.084   2.262   5.637 -0.3207 -0.0681 -0.4750
  173SLPC  H13R19561   2.186   2.225   5.650  1.0959  3.7467  0.7129
  173SLPC  C21419562   2.014   2.264   5.498 -0.4942  0.2920  0.5374
  173SLPC  H14R19563   1.948   2.352   5.480 -1.6217 -0.3210  1.5201
  173SLPC  H14S19564   1.944   2.179   5.488  0.9941 -0.8085 -1.0750
  173SLPC  C21519565   2.125   2.254   5.390 -0.3142  1.1190 -0.5675
  173SLPC  H15R19566   2.193   2.169   5.410  0.6745  1.7580 -1.1168
  173SLPC  H15S19567   2.199   2.338   5.390  0.7206  0.2303 -0.0351
  173SLPC  C21619568   2.085   2.231   5.247 -0.2399 -0.1898  0.8403
  173SLPC  H16R19569   2.038   2.322   5.203  0.5782  0.2906  0.9507
  173SLPC  H16S19570   2.006   2.153   5.241 -0.6750  0.3176 -0.5927
  173SLPC  C21719571   2.208   2.190   5.157 -0.2904  0.7907  0.4939
  173SLPC  H17R19572   2.219   2.083   5.184 -2.1073  0.1242 -1.1181
  173SLPC  H17S19573   2.295   2.252   5.187 -0.8046  1.6111  0.3279
  173SLPC  C21819574   2.174   2.209   5.003 -0.1211 -0.5979 -0.1763
  173SLPC  H18R19575   2.092   2.139   4.978 -1.4941  0.2524  1.7080
  173SLPC  H18S19576   2.257   2.179   4.935 -0.7751  0.0302 -1.2847
  173SLPC  H18T19577   2.142   2.314   4.986  1.0859  0.2555  2.2989
  173SLPC   C3319578   1.743   3.222   6.106 -0.3545 -0.0270  0.0468
  173SLPC   H3X19579   1.845   3.227   6.150 -0.2298  0.6939 -0.3231
  173SLPC   H3Y19580   1.730   3.325   6.069 -0.5772  0.3519  1.1597
  173SLPC   C3419581   1.733   3.118   5.995 -0.3767  0.0588  0.0169
  173SLPC   H4X19582   1.735   3.019   6.046  0.8489  0.7918  1.4976
  173SLPC   H4Y19583   1.834   3.128   5.950  0.3317  5.9158  2.0175
  173SLPC   C3519584   1.606   3.132   5.916  0.2914  0.3043  0.2616
  173SLPC   H5X19585   1.598   3.232   5.868 -1.4943 -0.0567 -0.2924
  173SLPC   H5Y19586   1.509   3.117   5.968  0.2117 -0.2692 -0.0386
  173SLPC   C3619587   1.609   3.048   5.788  0.2112 -0.5736  0.0522
  173SLPC   H6X19588   1.512   3.053   5.735  0.5352 -1.8620 -0.6973
  173SLPC   H6Y19589   1.621   2.941   5.816  2.2200 -0.6044 -0.7242
  173SLPC   C3719590   1.718   3.077   5.682 -0.5749  0.1272 -0.7004
  173SLPC   H7X19591   1.813   3.035   5.723 -0.8848  0.3047  0.2425
  173SLPC   H7Y19592   1.737   3.186   5.672  0.3443  0.4115  2.6769
  173SLPC   C3819593   1.690   3.015   5.549 -0.3871  0.7398 -0.6215
  173SLPC   H8X19594   1.639   2.917   5.556 -1.7540  1.5136  0.6351
  173SLPC   H8Y19595   1.785   2.993   5.494 -0.5574 -1.4466 -0.1364
  173SLPC   C3919596   1.608   3.106   5.464  0.0746 -0.0553 -1.1388
  173SLPC   H9X19597   1.668   3.194   5.435  2.3812 -0.4553  1.9072
  173SLPC   H9Y19598   1.511   3.140   5.507  0.3538 -0.6567  0.0098
  173SLPC  C31019599   1.566   3.043   5.329 -0.2513  0.1506  0.4129
  173SLPC  H10X19600   1.650   2.987   5.284  0.2170  2.4538 -1.8146
  173SLPC  H10Y19601   1.556   3.128   5.257  1.8691 -1.5397 -2.0550
  173SLPC  C31119602   1.438   2.960   5.336  0.0355  0.3922 -0.2811
  173SLPC  H11X19603   1.349   3.025   5.337  0.4935  1.0357 -0.6163
  173SLPC  H11Y19604   1.429   2.883   5.415 -0.1005  1.5364  0.8446
  173SLPC  C31219605   1.404   2.880   5.203  0.9479  0.2686  0.6050
  173SLPC  H12X19606   1.495   2.820   5.180 -1.1227 -2.6478 -0.5598
  173SLPC  H12Y19607   1.383   2.952   5.120  0.6076 -0.8696 -0.3136
  173SLPC  C31319608   1.300   2.765   5.226 -0.2394  0.0104 -0.4781
  173SLPC  H13X19609   1.349   2.688   5.289  0.0811  0.0586 -0.6650
  173SLPC  H13Y19610   1.290   2.709   5.130  1.3508  1.4071 -1.5179
  173SLPC  C31419611   1.161   2.798   5.268  0.7934  0.0372  0.4496
  173SLPC  H14X19612   1.121   2.872   5.196 -0.0891 -1.7898 -1.0451
  173SLPC  H14Y19613   1.160   2.843   5.369  0.6907  1.3357 -0.1171
  173SLPC  C31519614   1.055   2.678   5.257 -0.1259  0.7626 -0.3344
  173SLPC  H15X19615   1.038   2.646   5.151  2.3685  0.0288 -0.5812
  173SLPC  H15Y19616   0.964   2.714   5.308 -0.2175 -2.2895  1.9669
  173SLPC  C31619617   1.095   2.553   5.335  0.6800  0.8449  0.2167
  173SLPC  H16X19618   1.204   2.541   5.319  1.1425  0.7516  2.9781
  173SLPC  H16Y19619   1.051   2.458   5.299 -0.3875  0.7637  1.6516
  173SLPC  C31719620   1.087   2.565   5.485  0.2964  0.2889 -0.2375
  173SLPC  H17X19621   1.127   2.661   5.522 -2.2080  1.0469  0.7386
  173SLPC  H17Y19622   1.154   2.491   5.534  0.0571  1.5105  2.0865
  173SLPC  C31819623   0.946   2.549   5.554 -0.1415 -0.4224 -0.7352
  173SLPC  H18X19624   0.950   2.532   5.663 -1.5508  0.7864 -0.4565
  173SLPC  H18Y19625   0.900   2.460   5.505  3.5353 -0.7301 -4.1009
  173SLPC  H18Z19626   0.876   2.632   5.526 -1.7925 -1.2408  0.7672
  174SLPC     N19627   3.569   3.173   6.967 -0.4311 -0.1017 -0.1868
  174SLPC   C1319628   3.502   3.142   7.100  0.1374  0.2919  0.1989
  174SLPC  H13A19629   3.394   3.139   7.093  0.1772 -0.0687 -0.3135
  174SLPC  H13B19630   3.536   3.049   7.143  3.6485  1.4388  0.2203
  174SLPC  H13C19631   3.519   3.212   7.180  1.2984 -1.5339  1.6221
  174SLPC   C1419632   3.512   3.074   6.874  0.2794 -0.1031 -0.2016
  174SLPC  H14A19633   3.559   3.083   6.778  2.8950 -0.1981  0.9850
  174SLPC  H14B19634   3.515   2.973   6.913 -1.3424 -0.2938 -0.4979
  174SLPC  H14C19635   3.409   3.098   6.854  0.3570 -0.6815 -1.3525
  174SLPC   C1519636   3.715   3.145   6.989  0.4354 -0.4854  0.6494
  174SLPC  H15A19637   3.780   3.161   6.905  0.9400  0.5751  1.2118
  174SLPC  H15B19638   3.745   3.192   7.082  0.9718  1.4647 -0.4501
  174SLPC  H15C19639   3.728   3.039   7.007  0.1887 -0.4996  0.7535
  174SLPC   C1219640   3.544   3.311   6.915 -0.9089  0.0901  0.1393
  174SLPC  H12A19641   3.592   3.324   6.819 -0.2679 -0.6657  0.3441
  174SLPC  H12B19642   3.591   3.377   6.987 -0.8945  0.7433 -0.4552
  174SLPC   C1119643   3.398   3.365   6.904  0.7022 -0.1605  0.1482
  174SLPC  H11A19644   3.350   3.295   6.833 -0.9617  0.0768  1.0011
  174SLPC  H11B19645   3.399   3.464   6.854 -0.5543 -1.4065 -2.5826
  174SLPC     P19646   3.180   3.323   7.052 -0.3158 -0.0212  0.2657
  174SLPC   O1319647   3.178   3.189   7.101 -0.6465  0.0045 -0.5397
  174SLPC   O1419648   3.098   3.418   7.129  0.0070  0.0511 -0.2241
  174SLPC   O1219649   3.324   3.375   7.022 -0.1159 -0.0007 -0.1147
  174SLPC   O1119650   3.122   3.322   6.902  0.0974  0.4797  0.1659
  174SLPC    C119651   2.991   3.273   6.886  0.1306 -0.0610  0.0835
  174SLPC    HA19652   2.927   3.273   6.977 -1.6150 -0.4331 -1.1065
  174SLPC    HB19653   2.939   3.351   6.827 -1.8285 -1.6726 -0.4208
  174SLPC    C219654   2.981   3.128   6.825 -0.3917  0.8202 -0.2614
  174SLPC    HS19655   3.035   3.050   6.883  0.9642  0.0219 -2.4533
  174SLPC   O2119656   3.048   3.130   6.697  0.5981  0.1465  0.6573
  174SLPC   C2119657   3.175   3.086   6.692 -0.5422 -0.3672  0.0357
  174SLPC   O2219658   3.236   3.023   6.777 -0.2923 -0.4898 -0.4671
  174SLPC   C2219659   3.242   3.132   6.573  0.5364 -0.0556 -0.0001
  174SLPC   H2R19660   3.213   3.235   6.546  2.3187  0.7069  0.8129
  174SLPC   H2S19661   3.349   3.126   6.604  0.2540 -0.9906  0.8680
  174SLPC    C319662   2.831   3.077   6.800  0.5026 -0.5199  0.4048
  174SLPC    HX19663   2.783   3.080   6.900  1.7548  1.2882  1.0018
  174SLPC    HY19664   2.834   2.973   6.760  1.2802  0.1557 -1.3522
  174SLPC   O3119665   2.753   3.154   6.708 -0.1935  0.3442  0.0022
  174SLPC   C3119666   2.636   3.098   6.672 -0.0566 -0.2777  0.4022
  174SLPC   O3219667   2.597   2.989   6.710  0.4541  0.0295 -0.2890
  174SLPC   C3219668   2.569   3.181   6.559  0.8189  0.3525  0.4014
  174SLPC   H2X19669   2.615   3.281   6.569  0.6407  0.3797  0.9581
  174SLPC   H2Y19670   2.460   3.190   6.580  1.0617  3.0198  0.8758
  174SLPC   C2319671   3.218   3.043   6.451 -0.6237 -0.1583  0.3084
  174SLPC   H3R19672   3.252   2.939   6.469 -0.5532 -0.5662 -1.8912
  174SLPC   H3S19673   3.282   3.082   6.370 -0.1601 -0.7060  0.4097
  174SLPC   C2419674   3.078   3.052   6.397  0.6069  0.4629  0.2593
  174SLPC   H4R19675   3.065   3.158   6.367  0.3805  0.2956 -0.2455
  174SLPC   H4S19676   3.007   3.027   6.479  0.1058  0.4628 -0.1706
  174SLPC   C2519677   3.057   2.955   6.281  0.6430  0.4814  0.3415
  174SLPC   H5R19678   3.051   2.855   6.328  2.3096  0.2145  0.0277
  174SLPC   H5S19679   3.143   2.953   6.211 -0.5536 -2.0026 -1.2159
  174SLPC   C2619680   2.938   2.982   6.197  0.9333  0.3870 -0.2300
  174SLPC   H6R19681   2.846   3.005   6.254  0.1239 -2.1992 -0.3426
  174SLPC   H6S19682   2.923   2.898   6.126 -1.1037 -2.0395  2.7562
  174SLPC   C2719683   2.970   3.108   6.110 -0.2205 -0.4054  1.2401
  174SLPC   H7R19684   3.075   3.111   6.075 -0.1593 -2.7506  1.0311
  174SLPC   H7S19685   2.956   3.199   6.171 -1.8624  1.9963 -2.3573
  174SLPC   C2819686   2.879   3.129   5.982  0.0262 -0.2160 -1.2313
  174SLPC   H8R19687   2.857   3.238   5.973 -1.9812 -0.3391  1.2313
  174SLPC   H8S19688   2.785   3.073   5.998 -0.0252 -0.2644 -1.6883
  174SLPC   C2919689   2.949   3.057   5.862 -0.0804  0.2056 -0.1206
  174SLPC   H9R19690   2.944   2.948   5.868 -1.6962  0.2149 -0.6554
  174SLPC  C21019691   3.030   3.109   5.772  1.0999  0.0303  0.4377
  174SLPC  H10R19692   3.061   3.041   5.692 -1.3399  0.6932 -1.1807
  174SLPC  C21119693   3.065   3.254   5.740 -0.0593 -0.3437 -0.1918
  174SLPC  H11R19694   2.980   3.322   5.720  0.2034  0.1812  0.4325
  174SLPC  H11S19695   3.130   3.251   5.650 -0.8999 -1.1132 -0.7947
  174SLPC  C21219696   3.152   3.313   5.850  0.0768  0.1473 -0.3991
  174SLPC  H12R19697   3.103   3.391   5.910 -1.0715 -0.8022 -0.0693
  174SLPC  C21319698   3.291   3.301   5.861 -0.5438 -0.1038  0.0020
  174SLPC  H13R19699   3.346   3.366   5.931  0.4428 -0.5922 -0.2901
  174SLPC  C21419700   3.371   3.215   5.772  0.0220  0.1121  0.3463
  174SLPC  H14R19701   3.313   3.126   5.739 -0.3270 -0.0373  1.3455
  174SLPC  H14S19702   3.444   3.165   5.839 -0.0407 -2.3363 -1.3050
  174SLPC  C21519703   3.453   3.275   5.661  0.1169  0.2851  0.0533
  174SLPC  H15R19704   3.533   3.204   5.630 -1.0651 -1.1621  0.1874
  174SLPC  H15S19705   3.499   3.368   5.700  0.8552  0.4087 -1.0669
  174SLPC  C21619706   3.365   3.303   5.533 -0.5530 -0.1758 -0.5866
  174SLPC  H16R19707   3.298   3.382   5.573  2.0049  2.1220 -0.5841
  174SLPC  H16S19708   3.305   3.214   5.505  1.9271 -1.6211 -1.6402
  174SLPC  C21719709   3.446   3.349   5.411  0.2687  0.1784  0.1558
  174SLPC  H17R19710   3.379   3.371   5.325  0.5874  0.6199  0.0146
  174SLPC  H17S19711   3.510   3.268   5.371  2.8756  1.4322  1.5285
  174SLPC  C21819712   3.522   3.486   5.436 -0.6442 -0.6253 -0.6711
  174SLPC  H18R19713   3.554   3.550   5.351  0.6569 -2.7913 -1.9171
  174SLPC  H18S19714   3.609   3.458   5.500 -0.9126 -0.3439 -0.1811
  174SLPC  H18T19715   3.462   3.561   5.491  2.0398  2.7283 -1.9672
  174SLPC   C3319716   2.598   3.131   6.410  0.6290 -0.5866 -0.6702
  174SLPC   H3X19717   2.553   3.032   6.388  0.9294 -0.4653 -1.9695
  174SLPC   H3Y19718   2.709   3.122   6.404  0.9830  0.4185  2.4930
  174SLPC   C3419719   2.539   3.231   6.309 -0.1126  0.4226 -0.1039
  174SLPC   H4X19720   2.575   3.334   6.330 -1.1556  1.0362 -1.2001
  174SLPC   H4Y19721   2.429   3.216   6.315  0.2850 -2.9630  0.8179
  174SLPC   C3519722   2.588   3.216   6.167  0.8744 -0.1170  0.1694
  174SLPC   H5X19723   2.565   3.110   6.143 -2.9136  0.4672  0.5152
  174SLPC   H5Y19724   2.697   3.226   6.147  1.0555 -1.1945  0.5118
  174SLPC   C3619725   2.512   3.301   6.063  0.0663  0.0782  1.1072
  174SLPC   H6X19726   2.407   3.312   6.096 -0.3761 -1.5948  0.3689
  174SLPC   H6Y19727   2.513   3.251   5.963  0.6259  1.5370  0.3504
  174SLPC   C3719728   2.570   3.440   6.044 -0.6011 -0.5889  0.0561
  174SLPC   H7X19729   2.678   3.414   6.039 -0.6199 -0.8030  0.6587
  174SLPC   H7Y19730   2.555   3.506   6.132 -0.7937 -0.0973 -0.3387
  174SLPC   C3819731   2.518   3.508   5.911  0.2769  0.1696 -0.0112
  174SLPC   H8X19732   2.541   3.616   5.916  2.0868 -0.0270 -2.4218
  174SLPC   H8Y19733   2.407   3.498   5.913  0.4223 -2.6536 -1.1112
  174SLPC   C3919734   2.558   3.439   5.772  0.1268 -0.8531 -0.1592
  174SLPC   H9X19735   2.475   3.365   5.763 -1.3729  0.7726 -0.2050
  174SLPC   H9Y19736   2.659   3.394   5.783  1.1280  1.2827 -0.2431
  174SLPC  C31019737   2.559   3.532   5.657  0.6760  0.0590 -0.7683
  174SLPC  H10X19738   2.620   3.622   5.679  0.6391  0.0170 -0.4933
  174SLPC  H10Y19739   2.459   3.578   5.640  0.5070  0.2009  0.5082
  174SLPC  C31119740   2.602   3.455   5.533  1.4154 -0.6596 -0.2318
  174SLPC  H11X19741   2.519   3.388   5.501 -0.8477  1.2346  1.2721
  174SLPC  H11Y19742   2.689   3.391   5.558  1.8555 -0.0071 -0.0724
  174SLPC  C31219743   2.630   3.546   5.413  0.1137  0.3218 -0.3071
  174SLPC  H12X19744   2.722   3.601   5.441  0.9927  0.2729 -2.8616
  174SLPC  H12Y19745   2.537   3.607   5.404  0.7545  2.1931  3.6491
  174SLPC  C31319746   2.655   3.479   5.278 -0.4865  0.0075 -0.1523
  174SLPC  H13X19747   2.724   3.396   5.303 -0.0518  0.7065  1.0794
  174SLPC  H13Y19748   2.702   3.551   5.208 -2.6671  1.9331  0.2272
  174SLPC  C31419749   2.523   3.417   5.212  0.0218 -0.1639 -0.6565
  174SLPC  H14X19750   2.461   3.507   5.193  2.6241  1.5124 -1.8448
  174SLPC  H14Y19751   2.466   3.352   5.282  0.9410  1.4656  1.7516
  174SLPC  C31519752   2.563   3.341   5.084 -0.7676 -0.4640 -0.3402
  174SLPC  H15X19753   2.629   3.260   5.120  0.7379 -0.0799 -2.0942
  174SLPC  H15Y19754   2.625   3.408   5.020 -1.9106 -0.0618 -1.0601
  174SLPC  C31619755   2.445   3.270   5.007 -0.4105  0.0415  0.7912
  174SLPC  H16X19756   2.370   3.349   4.987 -1.2032 -0.8719  0.0207
  174SLPC  H16Y19757   2.400   3.197   5.078  1.3374 -0.0585  1.8570
  174SLPC  C31719758   2.491   3.215   4.874  0.0233 -0.0578  0.9434
  174SLPC  H17X19759   2.512   3.107   4.888 -0.1299 -0.0004  1.6345
  174SLPC  H17Y19760   2.592   3.255   4.853  0.6987 -1.0880  2.0910
  174SLPC  C31819761   2.394   3.235   4.756 -0.0467 -0.5086 -0.3508
  174SLPC  H18X19762   2.428   3.179   4.666 -0.8719  0.8907 -1.5922
  174SLPC  H18Y19763   2.388   3.344   4.735  0.8556 -0.2431  0.6690
  174SLPC  H18Z19764   2.289   3.205   4.774 -0.6510 -0.5192 -3.3448
  175SLPC     N19765   0.816   0.127   6.898  0.5792 -0.1165  0.4370
  175SLPC   C1319766   0.866  -0.006   6.924 -0.5258 -0.1151  0.3928
  175SLPC  H13A19767   0.974  -0.007   6.916 -0.4340 -0.1136  1.5138
  175SLPC  H13B19768   0.825  -0.044   7.017 -2.8148  2.3887  0.5416
  175SLPC  H13C19769   0.838  -0.080   6.850 -0.5952  0.0394  0.2643
  175SLPC   C1419770   0.867   0.164   6.761 -0.0159 -0.4665  0.2050
  175SLPC  H14A19771   0.974   0.150   6.753  0.2852 -0.6412  3.3079
  175SLPC  H14B19772   0.829   0.089   6.693  0.5659 -0.8944  0.3443
  175SLPC  H14C19773   0.851   0.265   6.726  1.7917 -0.8512 -1.9790
  175SLPC   C1519774   0.871   0.213   7.012  0.3767 -0.6402  0.5227
  175SLPC  H15A19775   0.847   0.154   7.099 -1.4139  0.1761  0.6101
  175SLPC  H15B19776   0.979   0.222   7.004  0.2064  0.5168 -0.8039
  175SLPC  H15C19777   0.831   0.313   7.014  1.3948 -0.0357 -2.5953
  175SLPC   C1219778   0.667   0.132   6.900  0.5012 -0.4580  0.1356
  175SLPC  H12A19779   0.627   0.232   6.907  0.1901 -0.6318  0.9354
  175SLPC  H12B19780   0.622   0.090   6.989 -1.0591  0.2765 -0.2767
  175SLPC   C1119781   0.587   0.065   6.783  0.6596  0.3853 -0.2437
  175SLPC  H11A19782   0.608   0.108   6.683 -0.2892  1.6414  0.0789
  175SLPC  H11B19783   0.482   0.098   6.792  0.2007 -1.1850  0.6659
  175SLPC     P19784   0.499  -0.158   6.880  0.1389 -0.3004 -0.0228
  175SLPC   O1319785   0.540  -0.301   6.879  0.9908 -0.0480 -0.3794
  175SLPC   O1419786   0.506  -0.088   7.009  0.1275  0.0149 -0.6741
  175SLPC   O1219787   0.597  -0.077   6.784 -0.4662  0.3034 -0.6440
  175SLPC   O1119788   0.348  -0.136   6.823 -0.2875  0.5745  0.5511
  175SLPC    C119789   0.328  -0.183   6.687  0.0252 -0.0222  0.0309
  175SLPC    HA19790   0.410  -0.147   6.621 -1.3058 -0.2114 -1.7759
  175SLPC    HB19791   0.319  -0.293   6.676 -0.9887  0.1022 -0.4626
  175SLPC    C219792   0.189  -0.131   6.632  0.8315 -0.5402  0.3866
  175SLPC    HS19793   0.115  -0.166   6.707 -0.4687  0.8632 -0.1941
  175SLPC   O2119794   0.168  -0.181   6.498  0.3524  0.0441 -0.0719
  175SLPC   C2119795   0.039  -0.179   6.471 -0.2232 -0.8483  0.2545
  175SLPC   O2219796  -0.052  -0.150   6.546  0.5902  0.2210  0.5067
  175SLPC   C2219797   0.013  -0.207   6.330 -0.4473  0.3668  0.2205
  175SLPC   H2R19798   0.035  -0.119   6.265 -0.2232  0.6469  0.6748
  175SLPC   H2S19799   0.095  -0.278   6.305 -0.0672  0.9503 -0.2235
  175SLPC    C319800   0.176   0.027   6.649 -0.1950 -0.8029 -0.8097
  175SLPC    HX19801   0.190   0.053   6.756  2.5426  0.2118 -1.3416
  175SLPC    HY19802   0.074   0.055   6.614  0.4277 -0.2510 -2.2681
  175SLPC   O3119803   0.281   0.095   6.577  0.1942  0.6864  0.1272
  175SLPC   C3119804   0.261   0.131   6.456 -0.1859 -0.7600 -0.3076
  175SLPC   O3219805   0.158   0.116   6.391 -0.5505  0.5484 -0.1931
  175SLPC   C3219806   0.381   0.216   6.399  0.7840 -0.1295 -1.1864
  175SLPC   H2X19807   0.469   0.149   6.392 -0.4647 -1.7987 -1.4838
  175SLPC   H2Y19808   0.405   0.301   6.467  0.2485 -0.7204 -0.2427
  175SLPC   C2319809  -0.118  -0.279   6.300  0.7059 -0.8192 -0.6697
  175SLPC   H3R19810  -0.205  -0.210   6.309 -0.0072 -1.3141 -2.9752
  175SLPC   H3S19811  -0.135  -0.363   6.370  0.9409 -0.7866 -0.5715
  175SLPC   C2419812  -0.114  -0.334   6.156 -0.0986  0.5753 -0.3610
  175SLPC   H4R19813  -0.048  -0.423   6.151 -0.2863  0.2820  1.4157
  175SLPC   H4S19814  -0.073  -0.251   6.095  0.5372  0.3099 -0.2966
  175SLPC   C2519815  -0.251  -0.374   6.100  0.2905 -0.0102  0.2648
  175SLPC   H5R19816  -0.320  -0.289   6.122  0.1514  0.2417 -1.1028
  175SLPC   H5S19817  -0.284  -0.461   6.161  1.1096 -1.0085 -0.6804
  175SLPC   C2619818  -0.263  -0.407   5.954  0.4120  0.0520 -0.3055
  175SLPC   H6R19819  -0.229  -0.326   5.886  0.9761 -0.1787 -0.3027
  175SLPC   H6S19820  -0.373  -0.405   5.939  0.2000 -1.7775  0.7023
  175SLPC   C2719821  -0.198  -0.540   5.909 -0.2425 -0.0781 -0.0838
  175SLPC   H7R19822  -0.249  -0.618   5.971 -0.5152  2.1687  2.7478
  175SLPC   H7S19823  -0.089  -0.545   5.927  0.1506  1.5386 -1.7816
  175SLPC   C2819824  -0.218  -0.568   5.757  0.2531  0.0737 -0.6022
  175SLPC   H8R19825  -0.327  -0.579   5.739  0.3438 -0.4486 -0.8519
  175SLPC   H8S19826  -0.184  -0.673   5.741 -3.9883 -1.5479 -0.2394
  175SLPC   C2919827  -0.146  -0.486   5.659  0.4137 -0.4016 -0.5825
  175SLPC   H9R19828  -0.081  -0.412   5.707  0.9480 -1.4718  0.3803
  175SLPC  C21019829  -0.144  -0.494   5.526  0.1242  0.3572 -0.1347
  175SLPC  H10R19830  -0.082  -0.417   5.477 -0.0993  1.2911  1.0116
  175SLPC  C21119831  -0.214  -0.597   5.442 -0.7626  0.0292 -0.7179
  175SLPC  H11R19832  -0.305  -0.558   5.391 -1.0354 -0.8186 -0.9083
  175SLPC  H11S19833  -0.251  -0.679   5.507 -1.0974 -0.6500 -1.7283
  175SLPC  C21219834  -0.119  -0.653   5.334  0.0421  0.8802  0.9467
  175SLPC  H12R19835  -0.017  -0.687   5.359  0.3301 -1.0047 -2.2061
  175SLPC  C21319836  -0.143  -0.655   5.202  0.1722  0.0989  0.7929
  175SLPC  H13R19837  -0.073  -0.712   5.139  0.0395  0.7662  0.0362
  175SLPC  C21419838  -0.263  -0.601   5.133  0.5321 -0.2718 -0.0052
  175SLPC  H14R19839  -0.278  -0.499   5.174 -0.3246 -0.9978  1.5966
  175SLPC  H14S19840  -0.349  -0.664   5.164  0.5632 -0.2118  0.2047
  175SLPC  C21519841  -0.277  -0.603   4.983  0.4195  0.1160  0.0800
  175SLPC  H15R19842  -0.184  -0.575   4.929  1.0944 -1.3950  0.4298
  175SLPC  H15S19843  -0.351  -0.528   4.946 -1.2421 -1.1494  0.7310
  175SLPC  C21619844  -0.320  -0.740   4.929  0.3268 -0.1704  0.4526
  175SLPC  H16R19845  -0.415  -0.775   4.973 -1.3570 -0.2132 -2.9143
  175SLPC  H16S19846  -0.249  -0.823   4.949  0.2896  0.0048  1.3327
  175SLPC  C21719847  -0.347  -0.750   4.771 -0.4712  0.4256  0.4567
  175SLPC  H17R19848  -0.426  -0.676   4.746  0.1524  1.2725  0.9285
  175SLPC  H17S19849  -0.387  -0.850   4.747  1.2232 -0.2226  0.2027
  175SLPC  C21819850  -0.224  -0.727   4.676 -0.1446  0.9945  0.3649
  175SLPC  H18R19851  -0.262  -0.690   4.579 -1.6905  0.7286  0.8412
  175SLPC  H18S19852  -0.180  -0.828   4.661 -1.1278  0.7660 -1.1216
  175SLPC  H18T19853  -0.144  -0.661   4.715 -0.5336  1.3481  0.5710
  175SLPC   C3319854   0.344   0.277   6.256  0.2283  0.9950 -0.2526
  175SLPC   H3X19855   0.300   0.197   6.193 -1.8490  1.1825  0.8666
  175SLPC   H3Y19856   0.443   0.302   6.213  0.2132  2.0073  0.2519
  175SLPC   C3419857   0.263   0.400   6.263 -0.3020 -0.5672  0.9332
  175SLPC   H4X19858   0.321   0.491   6.290  0.2950 -1.3281  2.3451
  175SLPC   H4Y19859   0.179   0.392   6.336 -0.6943  1.7840  0.8117
  175SLPC   C3519860   0.206   0.432   6.126  0.0292  0.1315  0.2161
  175SLPC   H5X19861   0.124   0.504   6.145 -0.1203 -0.1288  0.5461
  175SLPC   H5Y19862   0.155   0.344   6.081 -1.1230  1.6836 -1.6820
  175SLPC   C3619863   0.311   0.481   6.028  0.3701 -0.9649 -0.1884
  175SLPC   H6X19864   0.371   0.397   5.988  1.2805 -0.6207  0.4199
  175SLPC   H6Y19865   0.382   0.549   6.080 -0.9843 -1.0788  1.9335
  175SLPC   C3719866   0.248   0.547   5.902 -0.3058 -0.1267  0.2308
  175SLPC   H7X19867   0.315   0.625   5.860  0.5700 -1.1622 -0.3311
  175SLPC   H7Y19868   0.146   0.587   5.920 -0.8704 -0.8856 -1.1451
  175SLPC   C3819869   0.229   0.441   5.788  0.7889 -0.2581 -0.2801
  175SLPC   H8X19870   0.139   0.384   5.817  0.9649 -0.2363  0.3181
  175SLPC   H8Y19871   0.305   0.363   5.767 -0.6160 -2.0776  1.1545
  175SLPC   C3919872   0.190   0.512   5.655 -0.0866 -0.4591  0.0722
  175SLPC   H9X19873   0.270   0.582   5.622  1.0377 -1.7166  0.0128
  175SLPC   H9Y19874   0.102   0.573   5.682 -0.9332 -1.0276 -1.2827
  175SLPC  C31019875   0.157   0.411   5.545  0.3639  0.0201  0.0880
  175SLPC  H10X19876   0.065   0.357   5.574  0.5012 -0.7297 -0.8231
  175SLPC  H10Y19877   0.242   0.339   5.541 -0.2281 -0.6450 -1.3849
  175SLPC  C31119878   0.142   0.469   5.398 -0.2404  0.4723 -0.3247
  175SLPC  H11X19879   0.238   0.517   5.368  0.3071  1.6942  2.9893
  175SLPC  H11Y19880   0.061   0.544   5.397  0.2301  1.0285  1.0402
  175SLPC  C31219881   0.113   0.346   5.312 -0.0530 -0.6042 -0.5443
  175SLPC  H12X19882   0.024   0.296   5.357 -0.6511  0.2962 -0.7069
  175SLPC  H12Y19883   0.193   0.269   5.320  0.4597  0.0739  1.4614
  175SLPC  C31319884   0.092   0.381   5.163  0.7621  0.4195  0.6751
  175SLPC  H13X19885   0.011   0.456   5.148 -0.9361 -1.6630 -1.3500
  175SLPC  H13Y19886   0.053   0.288   5.115 -1.1442  0.7008  1.5562
  175SLPC  C31419887   0.220   0.426   5.084 -0.8152 -0.1605 -0.5381
  175SLPC  H14X19888   0.299   0.349   5.096 -0.2780  0.6064  1.2152
  175SLPC  H14Y19889   0.259   0.521   5.127 -2.1034 -1.1772  3.3810
  175SLPC  C31519890   0.206   0.443   4.929 -0.0617 -0.5157  0.5484
  175SLPC  H15X19891   0.297   0.489   4.883 -0.0863  0.2478  1.2368
  175SLPC  H15Y19892   0.124   0.517   4.917  0.7424  0.2266 -0.6866
  175SLPC  C31619893   0.164   0.321   4.852 -0.3925  0.7512  0.0118
  175SLPC  H16X19894   0.057   0.303   4.877  0.3068 -0.8853  2.1113
  175SLPC  H16Y19895   0.227   0.233   4.876 -2.1917 -1.3426 -2.3554
  175SLPC  C31719896   0.180   0.330   4.696  0.5895  0.5594  0.6138
  175SLPC  H17X19897   0.183   0.228   4.653 -0.4264  0.5950  0.4319
  175SLPC  H17Y19898   0.277   0.367   4.657  1.8023 -0.9338  2.1100
  175SLPC  C31819899   0.076   0.421   4.634  0.0146  0.1301  0.9600
  175SLPC  H18X19900   0.130   0.444   4.540  0.4513 -0.7619  0.9768
  175SLPC  H18Y19901   0.072   0.517   4.690 -0.4222  1.4311 -1.1849
  175SLPC  H18Z19902  -0.024   0.374   4.631 -0.0282 -0.0221  2.9885
  176SLPC     N19903   0.166   4.351   7.258  0.3481  0.9040 -0.0256
  176SLPC   C1319904   0.281   4.254   7.271  0.6594 -0.6657 -1.0226
  176SLPC  H13A19905   0.327   4.285   7.364  0.0104  2.9804 -1.7563
  176SLPC  H13B19906   0.244   4.154   7.289  0.8426 -1.3773 -4.0077
  176SLPC  H13C19907   0.349   4.243   7.188 -0.1778  0.3176 -1.8696
  176SLPC   C1419908   0.217   4.494   7.242  0.5675 -0.6335  0.7710
  176SLPC  H14A19909   0.278   4.496   7.153 -2.0535 -0.2596 -1.1335
  176SLPC  H14B19910   0.133   4.562   7.242 -0.0006 -1.3259  0.7905
  176SLPC  H14C19911   0.270   4.524   7.331  2.9346 -1.6826 -0.1832
  176SLPC   C1519912   0.091   4.346   7.382  0.1329 -0.5945  0.6177
  176SLPC  H15A19913   0.015   4.423   7.376  1.2520  0.4434 -2.6880
  176SLPC  H15B19914   0.053   4.248   7.405  2.0988 -1.4173  0.5678
  176SLPC  H15C19915   0.146   4.374   7.471 -0.3454  0.7998  0.5072
  176SLPC   C1219916   0.083   4.323   7.129  0.1809 -0.3839 -0.0762
  176SLPC  H12A19917   0.158   4.317   7.052 -1.2804 -1.8207 -1.4414
  176SLPC  H12B19918   0.015   4.406   7.121  0.6085  0.1591  1.4921
  176SLPC   C1119919   0.002   4.189   7.118 -0.3874 -0.4199 -0.9441
  176SLPC  H11A19920   0.067   4.104   7.149  0.6593  0.2986 -1.1058
  176SLPC  H11B19921  -0.032   4.178   7.012 -0.5224 -0.8300 -0.8604
  176SLPC     P19922  -0.249   4.219   7.172 -0.0975  0.5524  0.4734
  176SLPC   O1319923  -0.316   4.086   7.186  0.6673  0.3460  0.3706
  176SLPC   O1419924  -0.304   4.332   7.245 -0.1414  0.1683 -0.2388
  176SLPC   O1219925  -0.101   4.202   7.216 -0.9010 -0.1172 -0.5063
  176SLPC   O1119926  -0.234   4.257   7.019 -0.3847 -0.4647 -0.4762
  176SLPC    C119927  -0.342   4.326   6.951  0.0510 -0.5286  0.1703
  176SLPC    HA19928  -0.443   4.311   6.994 -0.9510  2.0037 -1.0585
  176SLPC    HB19929  -0.317   4.432   6.972 -0.0809 -0.5241  0.3044
  176SLPC    C219930  -0.334   4.300   6.795 -0.3904 -0.4689  0.2206
  176SLPC    HS19931  -0.403   4.375   6.751  0.7933  1.4240  1.4408
  176SLPC   O2119932  -0.373   4.161   6.763  0.0778  0.1943 -0.1185
  176SLPC   C2119933  -0.499   4.140   6.737 -0.8939 -0.6099 -0.4597
  176SLPC   O2219934  -0.583   4.230   6.725 -0.0600 -0.5460 -0.0103
  176SLPC   C2219935  -0.505   3.995   6.677  0.5020 -0.7391 -0.4865
  176SLPC   H2R19936  -0.452   3.937   6.755  3.2786  0.4093 -1.4198
  176SLPC   H2S19937  -0.609   3.957   6.664  0.9783 -3.1717  2.0004
  176SLPC    C319938  -0.197   4.337   6.733  1.2424  0.0441 -0.2229
  176SLPC    HX19939  -0.115   4.273   6.774  0.9222 -0.5309 -0.4654
  176SLPC    HY19940  -0.173   4.434   6.781  0.4038  1.2387 -2.1272
  176SLPC   O3119941  -0.208   4.348   6.586 -0.0980 -0.4092  0.6676
  176SLPC   C3119942  -0.091   4.374   6.527 -0.3573 -0.2204  0.3468
  176SLPC   O3219943   0.016   4.381   6.585 -0.1820  0.2690  0.6892
  176SLPC   C3219944  -0.110   4.385   6.378  0.7499 -0.1968 -0.3464
  176SLPC   H2X19945  -0.013   4.340   6.346 -0.1538 -3.5869  1.1786
  176SLPC   H2Y19946  -0.106   4.494   6.361 -0.0865 -0.0147  0.5379
  176SLPC   C2319947  -0.447   3.968   6.535  0.2013  0.2965  0.1457
  176SLPC   H3R19948  -0.429   3.859   6.530 -0.2320  0.2243  0.0739
  176SLPC   H3S19949  -0.345   4.011   6.528 -0.4203  1.8199 -0.2034
  176SLPC   C2419950  -0.535   4.001   6.416  0.0609 -0.0950 -0.1895
  176SLPC   H4R19951  -0.562   4.108   6.413 -1.4721 -0.4274  0.8030
  176SLPC   H4S19952  -0.636   3.955   6.428  0.0598  0.6392  3.9761
  176SLPC   C2519953  -0.466   3.979   6.278  0.3831 -0.6319 -0.7916
  176SLPC   H5R19954  -0.417   3.880   6.273  1.3839 -0.1845 -0.1402
  176SLPC   H5S19955  -0.382   4.052   6.269 -1.0613  1.3623  0.8149
  176SLPC   C2619956  -0.553   3.985   6.156 -0.9490 -0.3350 -0.1070
  176SLPC   H6R19957  -0.584   4.092   6.151  0.4837  0.1313  0.2777
  176SLPC   H6S19958  -0.642   3.921   6.170 -0.7269 -0.0945  3.2393
  176SLPC   C2719959  -0.470   3.962   6.023 -1.2291 -0.3729  0.4128
  176SLPC   H7R19960  -0.368   3.995   6.050  0.1427 -2.4173 -1.8611
  176SLPC   H7S19961  -0.518   4.028   5.948  0.5343 -0.0271 -0.4473
  176SLPC   C2819962  -0.481   3.810   5.992  0.0628  0.1451  0.3831
  176SLPC   H8R19963  -0.585   3.775   5.971  0.0036  1.1464 -1.1904
  176SLPC   H8S19964  -0.459   3.768   6.092 -1.0063  2.7978  1.8522
  176SLPC   C2919965  -0.390   3.761   5.888 -0.0364 -0.3087  0.1396
  176SLPC   H9R19966  -0.292   3.735   5.930 -0.9897 -0.7944  2.1903
  176SLPC  C21019967  -0.420   3.749   5.760 -0.3123  0.2464 -0.3805
  176SLPC  H10R19968  -0.338   3.727   5.691 -0.8982  1.6536 -1.5775
  176SLPC  C21119969  -0.548   3.789   5.690  0.1423 -0.0734  0.7612
  176SLPC  H11R19970  -0.638   3.777   5.753 -0.1255 -0.6423  0.2867
  176SLPC  H11S19971  -0.563   3.709   5.614  1.2851  0.9185 -0.5516
  176SLPC  C21219972  -0.567   3.920   5.618 -0.4530  0.6099  0.0343
  176SLPC  H12R19973  -0.643   3.985   5.664  0.2297  0.7911  0.9380
  176SLPC  C21319974  -0.495   3.969   5.519 -0.2388 -0.2688 -0.4569
  176SLPC  H13R19975  -0.526   4.069   5.487 -2.3188 -0.9852 -0.8110
  176SLPC  C21419976  -0.386   3.891   5.454  0.5416 -0.4684  0.1063
  176SLPC  H14R19977  -0.393   3.780   5.448 -0.4441 -0.3410 -1.8372
  176SLPC  H14S19978  -0.296   3.890   5.519 -0.2605 -0.3919  1.2545
  176SLPC  C21519979  -0.377   3.941   5.313 -0.1177  0.0210  0.2649
  176SLPC  H15R19980  -0.403   4.049   5.311  1.4999  0.4249 -0.4251
  176SLPC  H15S19981  -0.464   3.889   5.268 -0.9819  0.1882  1.6642
  176SLPC  C21619982  -0.253   3.909   5.228 -0.1061 -0.2353 -0.2139
  176SLPC  H16R19983  -0.232   3.800   5.228  1.4942  0.0384 -0.3372
  176SLPC  H16S19984  -0.165   3.957   5.275  1.3473 -2.0942 -0.8661
  176SLPC  C21719985  -0.266   3.944   5.084  0.5595  0.2560  0.0198
  176SLPC  H17R19986  -0.298   4.050   5.072  2.2508  0.7868 -0.1454
  176SLPC  H17S19987  -0.343   3.879   5.038 -0.0897 -0.7203  2.3494
  176SLPC  C21819988  -0.137   3.930   5.005 -0.0417 -0.1740 -0.0472
  176SLPC  H18R19989  -0.079   4.019   5.038  1.1401 -0.4161 -1.4074
  176SLPC  H18S19990  -0.155   3.937   4.896 -1.6696 -0.2494  0.1883
  176SLPC  H18T19991  -0.075   3.841   5.029  0.6514  0.1086 -0.7623
  176SLPC   C3319992  -0.229   4.297   6.323 -0.2447  0.3730  0.5575
  176SLPC   H3X19993  -0.316   4.322   6.387  0.3126 -0.2831  1.5880
  176SLPC   H3Y19994  -0.184   4.195   6.318  2.2423  1.4270 -0.1649
  176SLPC   C3419995  -0.266   4.328   6.177  0.0854  0.4486  0.0078
  176SLPC   H4X19996  -0.304   4.433   6.169 -1.7133 -0.1871 -0.2283
  176SLPC   H4Y19997  -0.353   4.263   6.156  0.2752  0.8141 -2.1778
  176SLPC   C3519998  -0.142   4.328   6.083 -0.7111  0.0857  0.1825
  176SLPC   H5X19999  -0.080   4.239   6.104 -1.7077 -1.4315 -2.6498
  176SLPC   H5Y20000  -0.087   4.422   6.102 -2.2000  1.0307 -0.0109
  176SLPC   C3620001  -0.180   4.311   5.931 -0.1594  0.1751 -0.4221
  176SLPC   H6X20002  -0.231   4.405   5.902 -0.2806  0.2286 -0.0365
  176SLPC   H6Y20003  -0.239   4.219   5.910 -0.5961  0.2480  0.4531
  176SLPC   C3720004  -0.056   4.269   5.843  0.1673 -0.2406 -0.1508
  176SLPC   H7X20005   0.005   4.184   5.879 -0.2294 -0.1908  0.6451
  176SLPC   H7Y20006   0.010   4.359   5.838  0.1677 -0.1639  0.9402
  176SLPC   C3820007  -0.097   4.226   5.702 -0.5274 -0.1772 -0.0463
  176SLPC   H8X20008  -0.147   4.310   5.650  0.7264  0.1000 -0.8605
  176SLPC   H8Y20009  -0.177   4.149   5.708 -0.1163 -0.7583 -1.5089
  176SLPC   C3920010   0.019   4.173   5.614 -0.6025  0.7065 -0.4971
  176SLPC   H9X20011   0.058   4.087   5.672  0.1071  1.2107 -0.2161
  176SLPC   H9Y20012   0.107   4.242   5.609  0.3243 -0.3056  1.0201
  176SLPC  C31020013  -0.027   4.123   5.475  0.0490  0.0400  0.0348
  176SLPC  H10X20014  -0.119   4.064   5.496 -0.2382  0.9067  1.3048
  176SLPC  H10Y20015   0.049   4.055   5.430 -1.6549 -1.0264 -1.4044
  176SLPC  C31120016  -0.059   4.237   5.380 -0.1493 -0.4622 -0.1381
  176SLPC  H11X20017  -0.044   4.341   5.417  0.5814 -0.5529 -0.1762
  176SLPC  H11Y20018  -0.166   4.228   5.352  0.3885 -1.4207 -2.0589
  176SLPC  C31220019   0.028   4.236   5.253 -0.4449 -0.0186 -0.4850
  176SLPC  H12X20020   0.004   4.137   5.209 -0.1608 -0.6350  0.6751
  176SLPC  H12Y20021   0.135   4.251   5.281  0.2287 -1.2604 -2.2788
  176SLPC  C31320022  -0.002   4.346   5.157 -0.3919 -0.1244 -0.0455
  176SLPC  H13X20023   0.080   4.345   5.081  0.1595  1.8182  0.4726
  176SLPC  H13Y20024   0.014   4.439   5.215 -0.2630 -0.2244  0.0794
  176SLPC  C31420025  -0.139   4.331   5.085 -0.6301 -0.0362  0.1790
  176SLPC  H14X20026  -0.212   4.313   5.167  0.6805 -0.1511  1.3475
  176SLPC  H14Y20027  -0.117   4.242   5.023  1.3964  1.0132 -0.7189
  176SLPC  C31520028  -0.186   4.455   5.006 -0.6666 -0.2358 -0.0250
  176SLPC  H15X20029  -0.273   4.432   4.941 -0.2222  1.0539 -1.1268
  176SLPC  H15Y20030  -0.104   4.495   4.942  0.1549 -1.1057  0.4677
  176SLPC  C31620031  -0.237   4.571   5.092 -0.3691 -0.2351  0.6638
  176SLPC  H16X20032  -0.166   4.602   5.171  0.8470  0.4730 -0.6685
  176SLPC  H16Y20033  -0.337   4.547   5.135 -1.2102  0.5501 -0.7656
  176SLPC  C31720034  -0.257   4.686   4.987  0.4510  0.5767 -0.2607
  176SLPC  H17X20035  -0.301   4.641   4.895  2.6245 -0.4300 -0.8682
  176SLPC  H17Y20036  -0.158   4.719   4.949 -0.3878  0.8599 -2.3463
  176SLPC  C31820037  -0.330   4.804   5.046 -0.7436 -0.3558  1.4751
  176SLPC  H18X20038  -0.285   4.888   4.988  0.9084 -2.0363  0.1644
  176SLPC  H18Y20039  -0.302   4.820   5.152 -0.8377  4.7641  0.9760
  176SLPC  H18Z20040  -0.440   4.795   5.035 -0.7651  2.1296 -2.9314
  177SLPC     N20041   0.405   5.932   6.989 -0.0688  0.1666  0.7353
  177SLPC   C1320042   0.531   5.992   7.035 -0.4884  0.1046 -0.2937
  177SLPC  H13A20043   0.610   5.988   6.962 -2.5866  0.4503 -2.7533
  177SLPC  H13B20044   0.525   6.097   7.059  0.0008 -0.0838  0.6860
  177SLPC  H13C20045   0.563   5.934   7.120  0.5700 -0.2400 -0.9085
  177SLPC   C1420046   0.354   6.016   6.882 -0.3313  0.3750  0.4135
  177SLPC  H14A20047   0.361   6.118   6.916 -1.8146 -0.3790  3.2987
  177SLPC  H14B20048   0.419   6.019   6.795 -0.3186  0.6124  0.4295
  177SLPC  H14C20049   0.252   6.005   6.847  0.4086 -0.1829 -1.7327
  177SLPC   C1520050   0.315   5.948   7.104  0.2501 -0.3390  0.1197
  177SLPC  H15A20051   0.297   6.053   7.121  0.5729  0.0921 -1.8421
  177SLPC  H15B20052   0.218   5.919   7.067 -0.4056  3.2309 -1.4440
  177SLPC  H15C20053   0.346   5.879   7.180 -0.5460 -0.2622  0.5282
  177SLPC   C1220054   0.410   5.785   6.950 -0.4264 -0.4395 -0.1076
  177SLPC  H12A20055   0.472   5.733   7.022 -1.7790 -2.7953 -0.5380
  177SLPC  H12B20056   0.464   5.777   6.857 -2.0975 -1.1497 -1.0631
  177SLPC   C1120057   0.279   5.712   6.932  0.4801 -0.0679  0.4393
  177SLPC  H11A20058   0.214   5.770   6.863  1.4327 -0.4636 -0.8342
  177SLPC  H11B20059   0.226   5.687   7.026 -3.4077  0.8168 -1.3087
  177SLPC     P20060   0.202   5.512   6.792  0.6462 -0.1843 -0.2565
  177SLPC   O1320061   0.254   5.403   6.711 -0.1516  0.0423 -0.4927
  177SLPC   O1420062   0.100   5.473   6.894 -0.4501  0.3373 -0.2602
  177SLPC   O1220063   0.316   5.586   6.869 -0.0760 -0.3899  0.5085
  177SLPC   O1120064   0.134   5.608   6.702 -0.4206 -0.7972 -0.2876
  177SLPC    C120065   0.190   5.675   6.588  0.1605  0.2391 -0.1328
  177SLPC    HA20066   0.221   5.773   6.629 -3.6504  0.9381  1.4823
  177SLPC    HB20067   0.270   5.612   6.543 -1.0523 -0.5535 -1.2924
  177SLPC    C220068   0.088   5.716   6.474  0.3288 -0.0139 -0.3932
  177SLPC    HS20069   0.015   5.784   6.522 -3.2358 -1.1964 -3.6646
  177SLPC   O2120070   0.027   5.592   6.422 -0.5359  0.5637 -0.1850
  177SLPC   C2120071  -0.067   5.537   6.501  0.5075 -0.7152  0.2800
  177SLPC   O2220072  -0.126   5.587   6.595  0.0044  0.3286  0.0979
  177SLPC   C2220073  -0.102   5.403   6.440  0.0037  0.2321  0.3600
  177SLPC   H2R20074  -0.062   5.391   6.337 -1.6522 -0.8937 -0.1904
  177SLPC   H2S20075  -0.055   5.321   6.499 -1.4310 -0.1864  0.9509
  177SLPC    C320076   0.144   5.789   6.349 -0.0437  0.1242 -0.6649
  177SLPC    HX20077   0.178   5.893   6.366 -0.1879 -0.2793  2.9574
  177SLPC    HY20078   0.069   5.791   6.268  0.6729 -1.7283 -1.4304
  177SLPC   O3120079   0.263   5.720   6.299 -0.1641 -0.5467  0.1216
  177SLPC   C3120080   0.249   5.644   6.185 -0.3307 -0.0863 -0.5128
  177SLPC   O3220081   0.148   5.619   6.129 -0.1093  0.4501  0.1503
  177SLPC   C3220082   0.388   5.586   6.154  0.0820 -0.1673  0.2251
  177SLPC   H2X20083   0.415   5.506   6.226 -0.8414 -0.5775  0.1149
  177SLPC   H2Y20084   0.469   5.660   6.175  1.5607 -2.0015  1.2535
  177SLPC   C2320085  -0.255   5.379   6.424  0.0961 -0.3117  0.2357
  177SLPC   H3R20086  -0.304   5.456   6.361 -3.6622 -1.4249  1.5307
  177SLPC   H3S20087  -0.298   5.381   6.527 -0.5173  1.1532 -0.0199
  177SLPC   C2420088  -0.292   5.241   6.373 -0.4604 -0.4566 -0.0993
  177SLPC   H4R20089  -0.247   5.167   6.442 -0.0325  1.0071  1.2442
  177SLPC   H4S20090  -0.239   5.214   6.279  0.1514  1.9297 -0.5112
  177SLPC   C2520091  -0.438   5.226   6.349 -0.1923  0.1195 -0.2800
  177SLPC   H5R20092  -0.477   5.282   6.261 -3.0900 -0.4755  0.5022
  177SLPC   H5S20093  -0.500   5.260   6.435 -2.2412 -1.2260 -1.1368
  177SLPC   C2620094  -0.480   5.084   6.297 -0.3837 -0.0282  0.1998
  177SLPC   H6R20095  -0.483   5.003   6.373  3.7570 -1.0694 -0.4918
  177SLPC   H6S20096  -0.404   5.038   6.231  0.2718 -0.7164  1.3856
  177SLPC   C2720097  -0.618   5.086   6.229  0.0660 -0.2861  0.1342
  177SLPC   H7R20098  -0.606   5.142   6.134  0.5812  2.2986  1.6278
  177SLPC   H7S20099  -0.685   5.152   6.290  0.6127 -0.0075  0.4377
  177SLPC   C2820100  -0.695   4.950   6.212 -0.1505 -0.1350 -0.0182
  177SLPC   H8R20101  -0.692   4.900   6.311 -2.5212  0.1283  0.2288
  177SLPC   H8S20102  -0.638   4.879   6.149  0.3064 -0.8238  1.1378
  177SLPC   C2920103  -0.837   4.965   6.156 -0.4499  0.0203 -0.0725
  177SLPC   H9R20104  -0.915   4.956   6.232  0.9965  3.2395  2.0328
  177SLPC  C21020105  -0.867   4.962   6.027  0.0259  0.0175  0.7871
  177SLPC  H10R20106  -0.972   4.978   5.999 -0.1769 -2.2447  0.0676
  177SLPC  C21120107  -0.763   4.952   5.911  0.2902 -0.2390  0.0421
  177SLPC  H11R20108  -0.665   4.994   5.944  0.2806  2.3974 -2.8490
  177SLPC  H11S20109  -0.785   5.027   5.832 -1.1724  0.0979  0.7276
  177SLPC  C21220110  -0.761   4.812   5.849 -0.6014 -0.0033  0.1697
  177SLPC  H12R20111  -0.858   4.762   5.835  0.0484 -1.6368  1.2444
  177SLPC  C21320112  -0.653   4.751   5.801  0.1456  0.1750 -0.1892
  177SLPC  H13R20113  -0.670   4.648   5.763 -1.1139  0.0368  0.6690
  177SLPC  C21420114  -0.510   4.793   5.811  0.3209  0.3683  0.2640
  177SLPC  H14R20115  -0.507   4.904   5.800 -0.9633  0.3593 -0.4976
  177SLPC  H14S20116  -0.461   4.769   5.714 -0.3066  1.0855 -0.2466
  177SLPC  C21520117  -0.426   4.750   5.927 -0.8352 -0.2935 -0.4279
  177SLPC  H15R20118  -0.415   4.640   5.918  0.0982 -0.2192 -0.2804
  177SLPC  H15S20119  -0.485   4.770   6.019 -1.0779 -2.2468 -0.1083
  177SLPC  C21620120  -0.289   4.819   5.923  0.2269  0.0469 -0.5688
  177SLPC  H16R20121  -0.305   4.923   5.957  0.5048 -0.7187  2.1414
  177SLPC  H16S20122  -0.238   4.820   5.825  2.6032 -1.0498  0.5761
  177SLPC  C21720123  -0.183   4.755   6.015 -0.3482 -0.3039  1.0744
  177SLPC  H17R20124  -0.088   4.804   5.985 -0.6565  0.4480  1.3027
  177SLPC  H17S20125  -0.178   4.646   5.992 -0.4592  0.0413 -0.7044
  177SLPC  C21820126  -0.208   4.771   6.166 -0.2730 -0.0612  0.0451
  177SLPC  H18R20127  -0.205   4.880   6.185  1.9090 -0.0176 -0.2789
  177SLPC  H18S20128  -0.119   4.727   6.215 -0.9998 -1.0610  0.5036
  177SLPC  H18T20129  -0.298   4.717   6.203  0.5209 -1.4766 -0.0355
  177SLPC   C3320130   0.386   5.552   6.004 -0.7138 -0.3313 -0.0225
  177SLPC   H3X20131   0.306   5.477   5.988 -2.5217  1.8532 -2.2246
  177SLPC   H3Y20132   0.481   5.504   5.972  0.0578  0.8840  0.3696
  177SLPC   C3420133   0.374   5.668   5.902 -0.2854  1.1453 -0.4536
  177SLPC   H4X20134   0.431   5.760   5.928 -0.0541  0.3877  2.0513
  177SLPC   H4Y20135   0.266   5.694   5.890 -0.7847 -0.8896 -0.7731
  177SLPC   C3520136   0.407   5.617   5.756 -0.1034  0.1913 -0.4731
  177SLPC   H5X20137   0.516   5.607   5.737  0.0253  0.1667  0.2228
  177SLPC   H5Y20138   0.378   5.706   5.696 -0.4050  1.2024  1.1104
  177SLPC   C3620139   0.338   5.490   5.711 -0.6174  0.5395  0.0531
  177SLPC   H6X20140   0.237   5.493   5.758 -1.0632 -0.3243 -0.8360
  177SLPC   H6Y20141   0.401   5.408   5.751 -0.0813  0.9315  0.0260
  177SLPC   C3720142   0.316   5.485   5.561  0.7720  0.1114  0.8089
  177SLPC   H7X20143   0.274   5.582   5.529  2.7333  1.1235  1.1347
  177SLPC   H7Y20144   0.251   5.396   5.549  1.7355 -0.4159 -0.8995
  177SLPC   C3820145   0.441   5.441   5.478  0.2284 -0.5681 -0.1541
  177SLPC   H8X20146   0.460   5.335   5.505 -0.7061  0.0073  3.2394
  177SLPC   H8Y20147   0.534   5.496   5.504  0.5674 -0.1469 -2.1426
  177SLPC   C3920148   0.414   5.458   5.326 -0.3521  0.0907 -0.5840
  177SLPC   H9X20149   0.498   5.411   5.271 -0.2561  0.8564 -1.1081
  177SLPC   H9Y20150   0.412   5.568   5.309 -2.7949  0.1155 -0.4944
  177SLPC  C31020151   0.281   5.392   5.288  0.1305 -0.3997 -0.0493
  177SLPC  H10X20152   0.200   5.454   5.332  1.7611  1.0220  1.1078
  177SLPC  H10Y20153   0.273   5.286   5.319 -1.3554 -0.0860  0.7198
  177SLPC  C31120154   0.273   5.394   5.137  0.2462 -0.5520  0.0012
  177SLPC  H11X20155   0.347   5.322   5.096 -0.1838 -0.3752 -1.1231
  177SLPC  H11Y20156   0.297   5.497   5.102 -2.3760  0.0427 -0.2198
  177SLPC  C31220157   0.141   5.331   5.094  0.6167  0.1913  0.3509
  177SLPC  H12X20158   0.136   5.333   4.983 -1.8141  1.0998  0.4210
  177SLPC  H12Y20159   0.054   5.393   5.122 -0.0454 -0.5342 -0.0517
  177SLPC  C31320160   0.123   5.185   5.140  0.0396 -0.1866  0.4543
  177SLPC  H13X20161   0.093   5.176   5.247 -1.0134 -0.7248  0.1282
  177SLPC  H13Y20162   0.224   5.140   5.142 -0.1092 -0.5963 -0.8443
  177SLPC  C31420163   0.034   5.103   5.042 -0.0103 -0.2192  0.3481
  177SLPC  H14X20164   0.062   5.129   4.937 -0.8910  0.0255  0.1647
  177SLPC  H14Y20165  -0.074   5.127   5.043 -0.4117 -1.8867  0.2481
  177SLPC  C31520166   0.050   4.957   5.067  0.0955  0.1691  0.7951
  177SLPC  H15X20167  -0.038   4.902   5.029  0.5123 -0.0866  0.1827
  177SLPC  H15Y20168   0.057   4.927   5.174  1.2837 -1.9240  0.1849
  177SLPC  C31620169   0.178   4.894   4.998 -0.2312  0.2994  0.1917
  177SLPC  H16X20170   0.266   4.941   5.047 -0.0860 -0.1412  0.3583
  177SLPC  H16Y20171   0.177   4.921   4.890 -2.1642  0.9346  0.3241
  177SLPC  C31720172   0.182   4.745   5.022 -0.7743 -0.3380 -0.2083
  177SLPC  H17X20173   0.097   4.690   4.977 -2.3346  0.5617  1.5136
  177SLPC  H17Y20174   0.174   4.729   5.132  0.1891  0.8506  0.0657
  177SLPC  C31820175   0.309   4.689   4.963  0.1270  0.2713 -1.1693
  177SLPC  H18X20176   0.316   4.582   4.992 -1.2065  0.6282  0.6286
  177SLPC  H18Y20177   0.398   4.748   4.993 -0.5557 -0.1655  2.1130
  177SLPC  H18Z20178   0.307   4.690   4.852  0.6575 -3.0656 -1.3144
  178SLPC     N20179   4.078   3.671   7.366  0.0660  0.0913 -0.1108
  178SLPC   C1320180   4.104   3.540   7.434 -0.6398  0.8951  0.0719
  178SLPC  H13A20181   4.151   3.471   7.364 -0.3421 -0.6374  1.7122
  178SLPC  H13B20182   4.161   3.543   7.525 -1.2764 -0.4060  0.5352
  178SLPC  H13C20183   4.012   3.489   7.457 -0.6689  0.1237 -1.5703
  178SLPC   C1420184   4.207   3.744   7.359  0.0385 -0.2898  0.3283
  178SLPC  H14A20185   4.292   3.683   7.331  1.0984  0.1218  2.4016
  178SLPC  H14B20186   4.200   3.823   7.286  0.1548 -1.2648 -0.7727
  178SLPC  H14C20187   4.234   3.803   7.445 -1.4026  2.5167 -1.0258
  178SLPC   C1520188   3.984   3.752   7.441 -0.0157 -0.3953  0.3026
  178SLPC  H15A20189   4.010   3.738   7.545  2.7708 -0.0007 -0.2499
  178SLPC  H15B20190   3.985   3.852   7.401  0.1381 -0.5195 -0.0126
  178SLPC  H15C20191   3.889   3.706   7.421 -0.4404 -1.2265  3.6357
  178SLPC   C1220192   4.024   3.650   7.222 -0.2518 -0.6090  0.0183
  178SLPC  H12A20193   4.024   3.749   7.180 -0.5245  0.9783  3.4787
  178SLPC  H12B20194   3.925   3.608   7.223 -1.1149  1.3437  0.8120
  178SLPC   C1120195   4.108   3.563   7.121  0.5849 -0.3258 -0.0640
  178SLPC  H11A20196   4.213   3.598   7.119  1.6201 -3.1934 -2.3386
  178SLPC  H11B20197   4.066   3.575   7.019  2.5232  0.6120 -0.7997
  178SLPC     P20198   3.991   3.327   7.140 -0.0243  0.0442  0.4335
  178SLPC   O1320199   4.021   3.200   7.202  0.0330 -0.4502 -0.0942
  178SLPC   O1420200   3.857   3.384   7.149 -1.1388  0.1210 -0.7404
  178SLPC   O1220201   4.099   3.426   7.173  0.0413 -0.3161  0.0484
  178SLPC   O1120202   4.016   3.320   6.991 -0.0615 -0.1224 -0.0904
  178SLPC    C120203   4.125   3.251   6.931 -0.8152  0.1007  0.3907
  178SLPC    HA20204   4.189   3.210   7.012 -0.4362 -2.7297 -1.2212
  178SLPC    HB20205   4.085   3.164   6.875  1.0642 -0.2638 -0.4691
  178SLPC    C220206   4.215   3.336   6.846  0.6581  0.2117 -0.0112
  178SLPC    HS20207   4.231   3.426   6.909  1.4691 -0.2219  0.4178
  178SLPC   O2120208   4.142   3.363   6.721  0.1343  0.6065  0.1559
  178SLPC   C2120209   4.191   3.459   6.657  0.9181 -0.1164  0.2596
  178SLPC   O2220210   4.281   3.539   6.684 -0.0941  0.0395 -0.0954
  178SLPC   C2220211   4.122   3.475   6.524  0.7165  0.3693  0.1268
  178SLPC   H2R20212   4.048   3.395   6.507 -0.2067  0.8572  1.6548
  178SLPC   H2S20213   4.053   3.561   6.532 -0.2666 -0.3455 -0.5108
  178SLPC    C320214   4.356   3.275   6.827 -0.2742 -0.5269 -0.2227
  178SLPC    HX20215   4.410   3.262   6.923  0.5046 -0.5710 -0.6654
  178SLPC    HY20216   4.430   3.342   6.778 -0.7800 -0.9249 -1.5953
  178SLPC   O3120217   4.347   3.150   6.756 -0.3116  0.4740  0.0609
  178SLPC   C3120218   4.367   3.159   6.630  0.2939  0.5410  0.7021
  178SLPC   O3220219   4.389   3.258   6.564  0.8012 -0.1803  0.7343
  178SLPC   C3220220   4.348   3.021   6.575 -0.3677  0.1818  0.1570
  178SLPC   H2X20221   4.249   2.981   6.605  1.2334 -4.0470  0.4431
  178SLPC   H2Y20222   4.417   2.943   6.613 -2.2683 -1.4302  0.4725
  178SLPC   C2320223   4.208   3.496   6.398 -0.7503 -0.0972 -1.4184
  178SLPC   H3R20224   4.267   3.407   6.367  1.1928  0.2015  1.1260
  178SLPC   H3S20225   4.285   3.574   6.412  0.2778 -1.0517 -1.6005
  178SLPC   C2420226   4.115   3.535   6.279 -0.4595 -0.6956  0.0508
  178SLPC   H4R20227   4.060   3.626   6.311 -0.8130  0.0973 -2.5742
  178SLPC   H4S20228   4.047   3.450   6.258 -0.0825 -0.6421 -1.4562
  178SLPC   C2520229   4.200   3.571   6.155  0.0894 -0.3812  0.7345
  178SLPC   H5R20230   4.249   3.478   6.121  2.2270  0.6897  0.7175
  178SLPC   H5S20231   4.281   3.641   6.183 -1.4264  2.2127 -0.8982
  178SLPC   C2620232   4.127   3.635   6.032  0.1910 -1.0439 -0.1915
  178SLPC   H6R20233   4.206   3.681   5.969  0.0251  0.8550  0.9201
  178SLPC   H6S20234   4.071   3.716   6.083  0.5096 -0.5125 -0.6785
  178SLPC   C2720235   4.033   3.535   5.953 -0.1275 -0.0565 -0.1965
  178SLPC   H7R20236   3.962   3.472   6.012 -0.1868 -3.3193 -3.3498
  178SLPC   H7S20237   4.119   3.472   5.923 -0.2747 -0.7034  0.7071
  178SLPC   C2820238   3.952   3.590   5.832 -0.2314 -0.4497  0.1574
  178SLPC   H8R20239   4.017   3.658   5.772  0.3874 -2.1209 -1.1399
  178SLPC   H8S20240   3.868   3.652   5.870 -0.5319  0.2325 -1.5177
  178SLPC   C2920241   3.888   3.482   5.749  0.1838  0.0454 -0.1606
  178SLPC   H9R20242   3.837   3.413   5.819 -1.4997 -0.2953 -1.6622
  178SLPC  C21020243   3.879   3.475   5.620 -0.2312 -0.1882 -0.2933
  178SLPC  H10R20244   3.808   3.412   5.564  1.8807 -2.4336 -0.6359
  178SLPC  C21120245   3.943   3.569   5.516 -0.3055 -0.1949  0.3113
  178SLPC  H11R20246   3.972   3.499   5.435 -2.6206 -1.1038  0.1797
  178SLPC  H11S20247   4.040   3.602   5.558  0.9372 -0.3992 -2.1872
  178SLPC  C21220248   3.864   3.691   5.468 -0.1253  0.2673 -0.5229
  178SLPC  H12R20249   3.822   3.734   5.560  3.7188  1.0589  1.0881
  178SLPC  C21320250   3.840   3.737   5.342  0.2122 -0.3717 -0.5372
  178SLPC  H13R20251   3.795   3.837   5.329  0.5634 -0.3865 -2.1431
  178SLPC  C21420252   3.887   3.668   5.216  0.0705  0.1975 -0.1407
  178SLPC  H14R20253   3.933   3.569   5.237  2.6554  1.2471 -0.5146
  178SLPC  H14S20254   3.967   3.724   5.163  1.9543 -1.2867  1.0262
  178SLPC  C21520255   3.765   3.628   5.124  0.6095  0.1084  0.6447
  178SLPC  H15R20256   3.730   3.728   5.092  0.4760 -0.6020 -1.6017
  178SLPC  H15S20257   3.683   3.568   5.168 -0.4833  2.1049  1.4947
  178SLPC  C21620258   3.810   3.552   5.000 -0.0310 -0.2776  0.0750
  178SLPC  H16R20259   3.853   3.457   5.039  0.2590  0.4923  1.7413
  178SLPC  H16S20260   3.895   3.611   4.959  0.8654 -0.6596  1.3095
  178SLPC  C21720261   3.708   3.528   4.884 -0.5675  0.1643 -1.1255
  178SLPC  H17R20262   3.756   3.494   4.790  1.5700 -0.4601  0.1189
  178SLPC  H17S20263   3.662   3.626   4.859 -0.6457 -0.2840 -2.8366
  178SLPC  C21820264   3.598   3.428   4.910 -0.1427 -0.2879 -0.6241
  178SLPC  H18R20265   3.537   3.421   4.817 -3.2505  2.7261  0.9456
  178SLPC  H18S20266   3.536   3.470   4.992  2.9844 -0.4912  2.0640
  178SLPC  H18T20267   3.636   3.331   4.947 -1.7681 -0.7003  0.0752
  178SLPC   C3320268   4.351   3.017   6.427 -0.3133  0.8958  0.3536
  178SLPC   H3X20269   4.449   3.052   6.389  0.1284  0.3848  1.0216
  178SLPC   H3Y20270   4.273   3.088   6.390 -0.7202  1.6934  2.6265
  178SLPC   C3420271   4.316   2.888   6.348  0.2680  0.1467 -0.4397
  178SLPC   H4X20272   4.223   2.855   6.400 -0.2036  0.1784 -1.2441
  178SLPC   H4Y20273   4.399   2.822   6.381  1.3686  2.7494  2.4297
  178SLPC   C3520274   4.301   2.909   6.198  0.1094  0.5802  0.4126
  178SLPC   H5X20275   4.244   3.004   6.182  1.6691  1.5964  0.6773
  178SLPC   H5Y20276   4.238   2.826   6.158  1.0712  0.8066 -1.6879
  178SLPC   C3620277   4.432   2.909   6.118  1.0255  0.2877 -0.1517
  178SLPC   H6X20278   4.469   2.806   6.097  0.9374  0.7465 -2.7749
  178SLPC   H6Y20279   4.509   2.961   6.178  1.0371 -0.1823  0.2538
  178SLPC   C3720280   4.409   2.989   5.992  0.5310 -0.3867 -0.2190
  178SLPC   H7X20281   4.508   3.000   5.943 -0.0242 -1.6473 -1.6848
  178SLPC   H7Y20282   4.369   3.089   6.017  0.2179  0.0957 -2.4372
  178SLPC   C3820283   4.303   2.946   5.890  0.5618  0.1370  0.3380
  178SLPC   H8X20284   4.297   3.026   5.812  0.4273  0.8149  1.0386
  178SLPC   H8Y20285   4.202   2.938   5.935  1.6656 -0.1571  2.8990
  178SLPC   C3920286   4.343   2.819   5.817  0.2875  0.0552  0.2731
  178SLPC   H9X20287   4.374   2.740   5.888  0.1087 -0.5339 -0.2870
  178SLPC   H9Y20288   4.428   2.844   5.750  2.3336 -2.1407  1.8587
  178SLPC  C31020289   4.228   2.770   5.720 -0.8308 -0.1876 -0.3669
  178SLPC  H10X20290   4.130   2.756   5.770 -0.4634 -1.6136  0.0231
  178SLPC  H10Y20291   4.262   2.673   5.677 -0.0691 -0.1786  0.1983
  178SLPC  C31120292   4.206   2.861   5.594 -0.0678 -0.1202 -0.1039
  178SLPC  H11X20293   4.267   2.954   5.602 -0.7717  0.4862 -1.4468
  178SLPC  H11Y20294   4.101   2.896   5.590  0.0203  0.0573 -1.5155
  178SLPC  C31220295   4.237   2.808   5.447  0.2467 -0.2279 -0.7068
  178SLPC  H12X20296   4.346   2.787   5.439  0.3055  0.3168 -1.4138
  178SLPC  H12Y20297   4.201   2.889   5.380  3.6959 -0.0033 -2.4741
  178SLPC  C31320298   4.161   2.679   5.406  0.5772  0.1018 -0.5604
  178SLPC  H13X20299   4.053   2.701   5.423  0.6557  0.3550 -0.3904
  178SLPC  H13Y20300   4.192   2.594   5.470 -1.4517 -0.2740  0.0172
  178SLPC  C31420301   4.186   2.641   5.257  0.3417  0.4158  0.5137
  178SLPC  H14X20302   4.148   2.538   5.242 -0.4945  1.1197 -3.2760
  178SLPC  H14Y20303   4.286   2.652   5.210 -0.4934 -0.1632 -1.5460
  178SLPC  C31520304   4.101   2.734   5.166  0.8624 -0.7578 -0.2143
  178SLPC  H15X20305   4.126   2.841   5.179  1.7521 -1.1592  1.8900
  178SLPC  H15Y20306   3.994   2.728   5.197  0.7185 -0.7665 -0.7000
  178SLPC  C31620307   4.109   2.694   5.026 -0.2751  0.3428  0.2673
  178SLPC  H16X20308   4.092   2.586   5.007  1.4143  0.0606  0.2115
  178SLPC  H16Y20309   4.210   2.714   4.985 -0.7845 -0.5164 -1.5037
  178SLPC  C31720310   4.018   2.765   4.927 -0.6759 -0.0092 -0.0259
  178SLPC  H17X20311   4.040   2.874   4.921  1.6674 -0.4001  0.4716
  178SLPC  H17Y20312   3.913   2.742   4.956 -0.5854  1.2697  1.4336
  178SLPC  C31820313   4.047   2.702   4.788 -0.6264 -0.0583 -0.3681
  178SLPC  H18X20314   4.028   2.593   4.785 -0.0791 -0.1470 -0.8362
  178SLPC  H18Y20315   4.152   2.724   4.759 -0.5333 -0.4216 -0.3004
  178SLPC  H18Z20316   3.973   2.746   4.718 -1.8453  0.0102  0.9138
  179SLPC     N20317   6.332   3.548   2.339 -0.4406  0.5412  0.2467
  179SLPC   C1320318   6.477   3.547   2.288 -0.0549 -0.0867 -0.2941
  179SLPC  H13A20319   6.536   3.481   2.350 -1.1608 -0.2768  0.5989
  179SLPC  H13B20320   6.487   3.507   2.188 -1.6568 -1.8203  0.1708
  179SLPC  H13C20321   6.521   3.645   2.282  0.6376 -0.3850 -0.1712
  179SLPC   C1420322   6.273   3.672   2.275 -0.3077 -0.8077  0.2327
  179SLPC  H14A20323   6.171   3.668   2.311  0.0843  0.0106  1.5035
  179SLPC  H14B20324   6.324   3.760   2.310 -0.8729 -1.3065  2.4590
  179SLPC  H14C20325   6.282   3.672   2.168  2.3498  0.4849  0.3854
  179SLPC   C1520326   6.332   3.571   2.486 -0.5892 -0.1598  1.0920
  179SLPC  H15A20327   6.390   3.661   2.502 -0.1341 -0.5636  1.7740
  179SLPC  H15B20328   6.230   3.600   2.503 -0.0885  2.7442 -0.1831
  179SLPC  H15C20329   6.371   3.487   2.542 -0.4811  0.9581  2.7763
  179SLPC   C1220330   6.272   3.417   2.293  0.8005  0.0399  0.4577
  179SLPC  H12A20331   6.332   3.344   2.345  1.9726  1.5167  1.2769
  179SLPC  H12B20332   6.292   3.406   2.188 -2.7392  2.6654 -0.6819
  179SLPC   C1120333   6.121   3.393   2.328 -1.0086  0.0504  0.2215
  179SLPC  H11A20334   6.107   3.394   2.438  0.0732  1.6295  0.3683
  179SLPC  H11B20335   6.098   3.293   2.284  2.2080 -0.5277 -0.3999
  179SLPC     P20336   5.886   3.485   2.248 -0.0365  0.1257  0.1191
  179SLPC   O1320337   5.851   3.602   2.159  0.4616  0.1264 -0.3798
  179SLPC   O1420338   5.849   3.348   2.200 -0.3099  0.0703 -0.3539
  179SLPC   O1220339   6.042   3.496   2.283  0.0028  0.0908  0.6457
  179SLPC   O1120340   5.824   3.510   2.400 -0.1491 -0.0758  0.2757
  179SLPC    C120341   5.883   3.609   2.480 -0.2518  0.1765  0.9696
  179SLPC    HA20342   5.986   3.572   2.500  0.2404 -0.8893 -2.7789
  179SLPC    HB20343   5.890   3.704   2.422 -1.6627 -0.5394 -0.4318
  179SLPC    C220344   5.798   3.641   2.611 -0.1396 -0.0268  0.8766
  179SLPC    HS20345   5.867   3.698   2.677 -1.3764  1.3337  1.0261
  179SLPC   O2120346   5.759   3.526   2.688  0.1766 -0.0842 -0.5871
  179SLPC   C2120347   5.848   3.444   2.726 -0.3991 -0.0550 -0.3075
  179SLPC   O2220348   5.967   3.466   2.721 -0.7146 -0.3476  0.0254
  179SLPC   C2220349   5.783   3.314   2.769  0.2285  0.0362  0.5181
  179SLPC   H2R20350   5.703   3.283   2.699  0.6263  3.1235 -1.4795
  179SLPC   H2S20351   5.859   3.232   2.765 -1.4288 -1.5113 -1.2819
  179SLPC    C320352   5.669   3.725   2.586  0.3941  0.0066 -0.6295
  179SLPC    HX20353   5.604   3.681   2.507 -1.0979 -0.0939  0.6014
  179SLPC    HY20354   5.700   3.824   2.546  1.1222  0.4809  1.0415
  179SLPC   O3120355   5.593   3.748   2.702  0.0539  0.2772 -0.4534
  179SLPC   C3120356   5.490   3.665   2.734  0.6212  0.3616  0.2735
  179SLPC   O3220357   5.461   3.555   2.682 -0.5086  0.3657 -0.4885
  179SLPC   C3220358   5.435   3.719   2.863  0.9736 -0.0335 -0.3253
  179SLPC   H2X20359   5.348   3.654   2.888 -0.2797  2.1473  1.3009
  179SLPC   H2Y20360   5.403   3.825   2.850  1.7399  0.1508 -0.8018
  179SLPC   C2320361   5.720   3.327   2.914  0.0255 -0.0639 -0.5745
  179SLPC   H3R20362   5.664   3.233   2.936 -0.2040 -0.2073 -1.7084
  179SLPC   H3S20363   5.648   3.411   2.909  0.5063  0.3288 -1.0870
  179SLPC   C2420364   5.809   3.366   3.020  0.1762 -0.4363 -0.2105
  179SLPC   H4R20365   5.851   3.465   2.991 -3.3310  1.1320 -0.4061
  179SLPC   H4S20366   5.891   3.291   3.028  1.1272  0.6145  0.1997
  179SLPC   C2520367   5.729   3.380   3.150 -0.0741  0.0339  0.4276
  179SLPC   H5R20368   5.679   3.282   3.164 -1.3542  0.9736  3.2179
  179SLPC   H5S20369   5.650   3.458   3.156  0.8730  1.0533 -0.1140
  179SLPC   C2620370   5.810   3.399   3.278  0.5862 -0.4344  0.5220
  179SLPC   H6R20371   5.808   3.510   3.290 -1.7602 -0.5495  1.6932
  179SLPC   H6S20372   5.913   3.365   3.257  0.4323 -1.5151  1.4592
  179SLPC   C2720373   5.752   3.314   3.390  0.0137  0.0459 -0.2108
  179SLPC   H7R20374   5.758   3.205   3.370 -0.8458 -0.8819  3.7295
  179SLPC   H7S20375   5.643   3.333   3.395 -0.5854 -3.0179  0.0285
  179SLPC   C2820376   5.814   3.332   3.527 -0.0304 -0.0646 -0.3857
  179SLPC   H8R20377   5.916   3.287   3.528  0.6075  1.3111  1.2193
  179SLPC   H8S20378   5.747   3.280   3.599  0.1321  0.7354  0.3531
  179SLPC   C2920379   5.839   3.477   3.571 -0.1430 -0.0149  0.6651
  179SLPC   H9R20380   5.890   3.544   3.501  0.9348  0.2215  1.6325
  179SLPC  C21020381   5.813   3.536   3.690 -0.4594 -1.2769 -0.1368
  179SLPC  H10R20382   5.827   3.645   3.699 -0.7740 -1.2081 -0.4552
  179SLPC  C21120383   5.755   3.455   3.807 -0.6993 -0.0163  0.6786
  179SLPC  H11R20384   5.830   3.380   3.840  2.2960  1.9114 -1.3086
  179SLPC  H11S20385   5.681   3.386   3.760  1.1493 -0.3370 -1.9551
  179SLPC  C21220386   5.695   3.537   3.922  0.1151 -0.9587 -0.8336
  179SLPC  H12R20387   5.588   3.561   3.913  0.6146  2.5714  1.1416
  179SLPC  C21320388   5.746   3.579   4.038 -0.4996  0.2107  0.1545
  179SLPC  H13R20389   5.679   3.627   4.111 -1.1589 -1.8099  0.9492
  179SLPC  C21420390   5.892   3.554   4.064  0.0581  0.0237 -0.5223
  179SLPC  H14R20391   5.946   3.540   3.968 -0.5381 -1.2565 -0.6848
  179SLPC  H14S20392   5.899   3.456   4.115  0.3905 -0.4496 -1.4521
  179SLPC  C21520393   5.968   3.650   4.154  0.1955  0.4611  0.1367
  179SLPC  H15R20394   5.982   3.745   4.098  0.5142 -0.2710 -1.0556
  179SLPC  H15S20395   6.070   3.607   4.162  0.4254  0.8700 -0.5392
  179SLPC  C21620396   5.917   3.655   4.300  0.3283  0.1737 -0.3745
  179SLPC  H16R20397   5.892   3.548   4.317  1.8734 -0.8702 -3.7448
  179SLPC  H16S20398   5.832   3.725   4.313  0.4183  0.0948  0.7246
  179SLPC  C21720399   6.037   3.697   4.394  0.0575  0.5440  0.2126
  179SLPC  H17R20400   6.095   3.781   4.352  1.0182  0.7119  1.7760
  179SLPC  H17S20401   6.114   3.617   4.394  0.3584  0.8300 -0.8225
  179SLPC  C21820402   6.003   3.728   4.550  0.4868  0.8085  0.0573
  179SLPC  H18R20403   5.919   3.800   4.560 -0.1247  0.2014 -0.5967
  179SLPC  H18S20404   6.092   3.773   4.600 -0.2050  1.1926  0.9730
  179SLPC  H18T20405   5.957   3.643   4.605  0.7448 -0.1778 -1.1869
  179SLPC   C3320406   5.528   3.716   2.982  0.1065 -0.8026  0.3253
  179SLPC   H3X20407   5.581   3.813   2.982  1.3547 -1.4549  1.3054
  179SLPC   H3Y20408   5.609   3.641   2.968  2.3963  1.5060  0.5996
  179SLPC   C3420409   5.454   3.697   3.118  0.2973  1.1454  0.5064
  179SLPC   H4X20410   5.439   3.588   3.132 -2.1965  0.8895 -3.0042
  179SLPC   H4Y20411   5.352   3.741   3.115 -0.4446 -0.5450 -0.2493
  179SLPC   C3520412   5.535   3.749   3.229  0.3633 -0.2240 -0.5378
  179SLPC   H5X20413   5.639   3.709   3.227  1.0034  1.2231  1.2794
  179SLPC   H5Y20414   5.549   3.859   3.229  0.1891  0.0426  4.7185
  179SLPC   C3620415   5.481   3.721   3.373 -1.3535 -0.1656 -0.2507
  179SLPC   H6X20416   5.433   3.622   3.388  0.9351 -1.5028 -1.2184
  179SLPC   H6Y20417   5.393   3.787   3.387 -0.1040  1.7456 -0.9817
  179SLPC   C3720418   5.582   3.752   3.486  0.0018 -0.1001 -0.6983
  179SLPC   H7X20419   5.632   3.849   3.466  1.5948 -0.5107  1.0321
  179SLPC   H7Y20420   5.662   3.677   3.501  2.0094  2.0613  0.1268
  179SLPC   C3820421   5.501   3.780   3.614 -0.2282 -0.2792 -0.3233
  179SLPC   H8X20422   5.443   3.874   3.602 -0.4360 -0.0166  2.1555
  179SLPC   H8Y20423   5.569   3.815   3.695  0.6527 -0.7484 -0.8411
  179SLPC   C3920424   5.404   3.665   3.653  0.4582  0.3795  0.0628
  179SLPC   H9X20425   5.410   3.657   3.764 -2.2532 -0.5257  0.2366
  179SLPC   H9Y20426   5.438   3.567   3.612  1.3437 -0.0870  1.8126
  179SLPC  C31020427   5.251   3.691   3.636  0.2559 -0.6077  0.1295
  179SLPC  H10X20428   5.229   3.683   3.528 -0.1886  0.6788  0.1078
  179SLPC  H10Y20429   5.234   3.790   3.683  1.8230  1.0277 -2.5209
  179SLPC  C31120430   5.168   3.573   3.689 -0.1430  0.4497 -0.1371
  179SLPC  H11X20431   5.201   3.483   3.632  0.5652  0.0236  0.9186
  179SLPC  H11Y20432   5.062   3.602   3.675 -0.5778 -0.2541  1.5648
  179SLPC  C31220433   5.177   3.541   3.847  0.0243  0.2420  1.1548
  179SLPC  H12X20434   5.270   3.483   3.866 -0.2904 -0.9803 -0.7938
  179SLPC  H12Y20435   5.088   3.479   3.872  1.0341 -1.7609  0.0059
  179SLPC  C31320436   5.173   3.658   3.944  0.0367  0.1070 -0.8569
  179SLPC  H13X20437   5.074   3.706   3.957  0.6869  0.6852  3.3002
  179SLPC  H13Y20438   5.246   3.734   3.909 -0.6488  0.8562 -0.6738
  179SLPC  C31420439   5.202   3.634   4.094 -0.6081 -0.3025  0.3350
  179SLPC  H14X20440   5.142   3.547   4.130  1.2245 -2.7684 -2.1143
  179SLPC  H14Y20441   5.174   3.724   4.152 -0.0584 -0.0367  0.1953
  179SLPC  C31520442   5.351   3.608   4.133  0.3625  0.3095  0.0014
  179SLPC  H15X20443   5.400   3.705   4.111  0.8512 -0.3497 -2.0925
  179SLPC  H15Y20444   5.394   3.528   4.068  1.5509  0.1518  0.9580
  179SLPC  C31620445   5.363   3.569   4.282  0.3871 -0.4776  0.0169
  179SLPC  H16X20446   5.343   3.460   4.289 -1.0251 -0.1977  0.6222
  179SLPC  H16Y20447   5.282   3.622   4.337  1.1339 -1.6118  2.3308
  179SLPC  C31720448   5.501   3.614   4.351  0.3534 -0.4528  0.0193
  179SLPC  H17X20449   5.514   3.722   4.328  1.0572 -0.7351 -0.9826
  179SLPC  H17Y20450   5.585   3.562   4.299  2.7645 -1.2361  4.2438
  179SLPC  C31820451   5.507   3.604   4.503  0.3125 -0.5116 -0.3027
  179SLPC  H18X20452   5.424   3.661   4.550  2.6073  1.4337  1.6592
  179SLPC  H18Y20453   5.601   3.648   4.543  1.4133 -3.8675  1.1484
  179SLPC  H18Z20454   5.512   3.497   4.531  1.2869 -0.6134 -0.8431
  180SLPC     N20455   4.439   3.042   1.982 -0.1267 -0.4885  0.1209
  180SLPC   C1320456   4.556   2.953   2.012  0.4715 -0.4490 -0.5349
  180SLPC  H13A20457   4.532   2.886   2.094 -0.4514  0.1798 -0.2816
  180SLPC  H13B20458   4.584   2.886   1.932  3.3550 -0.7760  0.6175
  180SLPC  H13C20459   4.644   3.010   2.036 -0.8692  1.6993 -0.5251
  180SLPC   C1420460   4.313   2.964   1.971 -0.3063  0.1014  0.0511
  180SLPC  H14A20461   4.239   3.026   1.923  1.7291  0.4655 -2.8785
  180SLPC  H14B20462   4.335   2.875   1.914 -1.1808 -1.6067  2.1956
  180SLPC  H14C20463   4.277   2.949   2.072 -1.0974 -1.9484 -0.4923
  180SLPC   C1520464   4.456   3.108   1.850 -0.1851 -0.1263 -0.2342
  180SLPC  H15A20465   4.393   3.192   1.828 -0.0255  0.3452  1.0352
  180SLPC  H15B20466   4.556   3.150   1.852 -0.8795  1.5934 -0.4427
  180SLPC  H15C20467   4.447   3.033   1.772 -2.3192 -0.0761 -0.0852
  180SLPC   C1220468   4.435   3.151   2.090 -0.3823 -0.5020 -0.1720
  180SLPC  H12A20469   4.354   3.221   2.071  0.3881 -0.0657 -2.1094
  180SLPC  H12B20470   4.528   3.204   2.073 -1.0344  0.6024 -0.4102
  180SLPC   C1120471   4.417   3.102   2.231  0.3646 -0.6686 -0.1257
  180SLPC  H11A20472   4.446   3.186   2.298  0.9289 -0.6020 -0.4517
  180SLPC  H11B20473   4.482   3.020   2.269  1.8473  0.1665 -0.7778
  180SLPC     P20474   4.176   3.162   2.298 -0.4154  0.6549  0.0793
  180SLPC   O1320475   4.185   3.277   2.204 -0.1764 -1.2291 -0.0794
  180SLPC   O1420476   4.052   3.086   2.300 -0.1166 -0.8241  0.3806
  180SLPC   O1220477   4.282   3.059   2.254 -0.1761 -0.3164 -0.4845
  180SLPC   O1120478   4.222   3.211   2.444  0.3401 -0.4854  0.3199
  180SLPC    C120479   4.291   3.117   2.535 -0.4927 -0.7336  0.2483
  180SLPC    HA20480   4.226   3.031   2.563  0.1506 -0.8551  1.4460
  180SLPC    HB20481   4.385   3.077   2.492 -0.9203  0.4695 -1.9616
  180SLPC    C220482   4.321   3.194   2.666 -0.3443 -0.2086 -0.5917
  180SLPC    HS20483   4.368   3.123   2.738 -0.5690 -1.1422 -1.3513
  180SLPC   O2120484   4.198   3.259   2.703  0.4490 -0.0803 -0.0907
  180SLPC   C2120485   4.141   3.211   2.815 -0.7115  0.6726  0.5896
  180SLPC   O2220486   4.184   3.116   2.876  0.4563 -0.1023  0.0904
  180SLPC   C2220487   4.031   3.294   2.877 -0.8145 -0.5423 -0.0795
  180SLPC   H2R20488   3.929   3.259   2.850 -0.6512 -0.0147 -1.4150
  180SLPC   H2S20489   4.036   3.274   2.987 -0.6761  4.0849  0.9711
  180SLPC    C320490   4.426   3.302   2.633 -0.4693  0.1782  0.2553
  180SLPC    HX20491   4.382   3.362   2.550 -1.1841 -2.6780 -1.5794
  180SLPC    HY20492   4.514   3.246   2.594 -1.2266 -0.5546 -0.4537
  180SLPC   O3120493   4.468   3.365   2.753  0.2481 -0.2570 -0.0791
  180SLPC   C3120494   4.425   3.483   2.772  0.0945 -0.4991  0.0111
  180SLPC   O3220495   4.403   3.566   2.685  0.1456 -0.1392 -0.6747
  180SLPC   C3220496   4.435   3.511   2.917  0.5821 -0.4225 -1.0269
  180SLPC   H2X20497   4.538   3.501   2.957  0.5166  2.6726  0.1778
  180SLPC   H2Y20498   4.368   3.437   2.968 -0.0511  0.4225 -0.6030
  180SLPC   C2320499   4.060   3.447   2.879 -0.3869 -0.4188 -0.3558
  180SLPC   H3R20500   4.066   3.485   2.774 -1.6220 -1.3212 -0.7815
  180SLPC   H3S20501   4.151   3.471   2.937  0.1263 -0.1407 -1.2579
  180SLPC   C2420502   3.941   3.524   2.935 -0.4740 -0.1525  0.6223
  180SLPC   H4R20503   3.848   3.473   2.902 -1.7385  0.5383  2.8908
  180SLPC   H4S20504   3.951   3.631   2.908  0.0953  0.0037  1.4268
  180SLPC   C2520505   3.944   3.535   3.093 -0.4901  0.7060  0.6104
  180SLPC   H5R20506   4.037   3.589   3.120  0.8364 -1.5630  0.7775
  180SLPC   H5S20507   3.962   3.434   3.134  1.4437  0.3724 -0.8989
  180SLPC   C2620508   3.833   3.620   3.151 -0.4439  0.0729  0.3310
  180SLPC   H6R20509   3.741   3.580   3.102  0.2287  0.4828 -1.3027
  180SLPC   H6S20510   3.850   3.726   3.124  1.9193 -0.1873  0.5805
  180SLPC   C2720511   3.822   3.605   3.306 -0.2945  0.3124  0.0686
  180SLPC   H7R20512   3.915   3.625   3.363 -0.1659  1.0745 -0.3945
  180SLPC   H7S20513   3.806   3.496   3.320 -1.2689  0.4495  0.1055
  180SLPC   C2820514   3.722   3.688   3.372  0.3261 -0.2262 -0.4052
  180SLPC   H8R20515   3.629   3.690   3.312  0.6985  1.2445 -0.9664
  180SLPC   H8S20516   3.763   3.791   3.371 -0.9170  0.2958 -1.8112
  180SLPC   C2920517   3.683   3.651   3.513  0.5017 -0.6069 -0.3221
  180SLPC   H9R20518   3.630   3.555   3.523 -0.2706 -0.1224  0.3498
  180SLPC  C21020519   3.729   3.715   3.623  0.1117  0.3905  0.2760
  180SLPC  H10R20520   3.699   3.682   3.723  1.2323 -0.0372  0.4820
  180SLPC  C21120521   3.817   3.830   3.629 -0.4418  0.1355  0.1552
  180SLPC  H11R20522   3.882   3.832   3.539  1.0215 -3.0427  0.9931
  180SLPC  H11S20523   3.894   3.809   3.708 -1.1203 -2.1042  0.2810
  180SLPC  C21220524   3.743   3.959   3.646  0.2854  0.7166 -0.6898
  180SLPC  H12R20525   3.748   4.018   3.554 -0.7967 -1.9841 -2.6334
  180SLPC  C21320526   3.703   4.005   3.767 -0.4821  0.6580 -0.2556
  180SLPC  H13R20527   3.670   4.108   3.787 -1.0125  0.6997 -1.2796
  180SLPC  C21420528   3.715   3.930   3.907 -1.0134 -0.3332 -0.2992
  180SLPC  H14R20529   3.772   3.835   3.899  1.2184  0.9632 -0.8692
  180SLPC  H14S20530   3.614   3.922   3.951 -1.6459  2.2768 -1.0797
  180SLPC  C21520531   3.796   4.025   4.006  1.5677 -0.3728  0.3800
  180SLPC  H15R20532   3.756   4.128   3.998  1.7601 -0.2545  0.8864
  180SLPC  H15S20533   3.905   4.027   3.985  1.3551  0.1457 -0.7416
  180SLPC  C21620534   3.785   3.981   4.147  0.3201 -0.4714  0.0173
  180SLPC  H16R20535   3.821   3.876   4.152  1.2287 -0.1450  0.5623
  180SLPC  H16S20536   3.680   3.986   4.181  0.4604 -0.3069  0.4289
  180SLPC  C21720537   3.889   4.060   4.240  0.3956 -0.8400  0.8226
  180SLPC  H17R20538   3.882   4.170   4.229  1.2982 -0.9956 -1.8558
  180SLPC  H17S20539   3.988   4.020   4.207 -1.2957 -2.9854 -2.1683
  180SLPC  C21820540   3.864   4.016   4.386 -0.1209 -0.9932 -0.5269
  180SLPC  H18R20541   3.754   4.020   4.398 -0.4375 -0.9051 -2.9217
  180SLPC  H18S20542   3.920   4.089   4.449  1.6139 -1.5722 -1.3161
  180SLPC  H18T20543   3.909   3.915   4.399 -0.4038 -0.7107  5.4868
  180SLPC   C3320544   4.373   3.648   2.959 -0.2464  0.2621  0.8924
  180SLPC   H3X20545   4.274   3.657   2.911 -0.7467 -1.4549  1.5237
  180SLPC   H3Y20546   4.430   3.740   2.932 -1.4150  0.9814  0.8114
  180SLPC   C3420547   4.331   3.651   3.110  0.5475  0.3018  0.6226
  180SLPC   H4X20548   4.423   3.656   3.172 -0.9221  0.7703  2.8784
  180SLPC   H4Y20549   4.285   3.556   3.145  1.1141  0.4588  1.8378
  180SLPC   C3520550   4.238   3.779   3.137 -0.0998 -0.9681 -0.3627
  180SLPC   H5X20551   4.162   3.779   3.056  0.6704  1.3152 -1.1830
  180SLPC   H5Y20552   4.307   3.866   3.134 -0.2958 -0.7706  0.7329
  180SLPC   C3620553   4.163   3.781   3.274 -0.2037  0.7711 -0.2532
  180SLPC   H6X20554   4.105   3.687   3.272 -1.1298  1.3162  0.2565
  180SLPC   H6Y20555   4.087   3.862   3.280 -1.9172 -0.8369  0.4530
  180SLPC   C3720556   4.247   3.781   3.400 -0.4999 -0.6398  0.2954
  180SLPC   H7X20557   4.324   3.861   3.393 -2.9361  1.8040 -0.7301
  180SLPC   H7Y20558   4.290   3.680   3.412 -0.9191 -0.8332  0.1895
  180SLPC   C3820559   4.160   3.802   3.523  1.0633 -0.5897  0.3692
  180SLPC   H8X20560   4.092   3.714   3.524  0.6156 -0.2591 -0.3532
  180SLPC   H8Y20561   4.094   3.889   3.505  0.8371 -1.0042 -0.8622
  180SLPC   C3920562   4.241   3.812   3.654 -0.1273 -0.0975  0.3707
  180SLPC   H9X20563   4.314   3.896   3.646 -1.8757  1.3337 -1.8140
  180SLPC   H9Y20564   4.308   3.726   3.672  1.1202  0.4392 -1.3772
  180SLPC  C31020565   4.164   3.863   3.775  0.2530 -0.3662  0.8733
  180SLPC  H10X20566   4.079   3.797   3.803 -0.1126 -0.4170 -0.2843
  180SLPC  H10Y20567   4.111   3.959   3.757 -0.5018 -1.0819 -1.0057
  180SLPC  C31120568   4.257   3.878   3.902  0.4341  0.7475 -0.2288
  180SLPC  H11X20569   4.329   3.794   3.912  1.0392  1.4748  2.4655
  180SLPC  H11Y20570   4.180   3.866   3.981  2.2379 -1.0116  1.3560
  180SLPC  C31220571   4.332   4.006   3.919  0.0435 -0.3982 -0.0643
  180SLPC  H12X20572   4.269   4.097   3.908  1.2334  0.2879 -1.7560
  180SLPC  H12Y20573   4.402   4.014   3.832  2.7177 -2.0040  1.7886
  180SLPC  C31320574   4.414   4.020   4.043 -0.4878  0.1634 -0.0930
  180SLPC  H13X20575   4.471   4.115   4.031 -0.4901  0.1652 -0.0894
  180SLPC  H13Y20576   4.485   3.935   4.055 -2.2967 -1.6651 -1.6190
  180SLPC  C31420577   4.320   4.037   4.162  0.6983  0.1304 -0.2625
  180SLPC  H14X20578   4.255   3.948   4.170 -0.6352  0.9839 -1.2180
  180SLPC  H14Y20579   4.260   4.129   4.144 -0.9262 -1.0834 -1.3425
  180SLPC  C31520580   4.400   4.047   4.297 -0.0788  1.2078 -0.4649
  180SLPC  H15X20581   4.496   4.093   4.265  0.2115 -0.5833 -2.3612
  180SLPC  H15Y20582   4.426   3.947   4.338  0.1559  1.9534  1.3119
  180SLPC  C31620583   4.327   4.117   4.409 -0.1018 -0.1357 -0.0798
  180SLPC  H16X20584   4.235   4.166   4.369 -1.0458 -0.3921  1.6495
  180SLPC  H16Y20585   4.387   4.207   4.434 -1.4807  1.2460 -1.5063
  180SLPC  C31720586   4.295   4.028   4.528  0.4718  0.1098 -0.2937
  180SLPC  H17X20587   4.377   3.958   4.554  1.0999  0.7628 -0.4866
  180SLPC  H17Y20588   4.213   3.959   4.498  1.2841 -0.5618 -1.0172
  180SLPC  C31820589   4.258   4.112   4.647  0.3498 -0.3025  0.8893
  180SLPC  H18X20590   4.333   4.188   4.677  0.4472 -0.3267  0.7119
  180SLPC  H18Y20591   4.237   4.046   4.734  1.7409 -1.7837  0.1573
  180SLPC  H18Z20592   4.162   4.163   4.622 -0.6033 -2.8286 -1.0827
  181SLPC     N20593   3.238   2.225   2.429 -0.3697 -0.6126  0.2536
  181SLPC   C1320594   3.188   2.162   2.556  0.3036  0.4025 -0.4584
  181SLPC  H13A20595   3.091   2.119   2.538  1.7245 -1.9789 -3.3473
  181SLPC  H13B20596   3.252   2.082   2.589 -0.2724  0.1232 -0.0101
  181SLPC  H13C20597   3.177   2.234   2.636 -0.8514  0.3143 -0.5140
  181SLPC   C1420598   3.225   2.136   2.311  0.5339  0.3673 -0.5194
  181SLPC  H14A20599   3.200   2.195   2.224 -0.7943  2.3503  1.1362
  181SLPC  H14B20600   3.316   2.078   2.296  1.7083  2.4091 -1.7463
  181SLPC  H14C20601   3.143   2.067   2.326  1.5106 -0.2855  2.6616
  181SLPC   C1520602   3.384   2.239   2.454 -0.2813 -0.2023  0.1917
  181SLPC  H15A20603   3.429   2.142   2.441 -0.1796  0.2196 -3.6181
  181SLPC  H15B20604   3.424   2.299   2.373 -0.3177 -1.1718 -0.5569
  181SLPC  H15C20605   3.401   2.294   2.546  0.1092  0.2583 -0.1520
  181SLPC   C1220606   3.172   2.356   2.407  0.0868  0.5579 -0.4892
  181SLPC  H12A20607   3.068   2.350   2.380 -0.0837  0.0310  0.2687
  181SLPC  H12B20608   3.211   2.406   2.319  0.8186  0.5821 -0.1569
  181SLPC   C1120609   3.171   2.466   2.521  0.6194 -0.3010  0.4580
  181SLPC  H11A20610   3.122   2.555   2.476  1.3243 -1.1791 -2.1977
  181SLPC  H11B20611   3.275   2.493   2.546  0.6914 -0.4905  0.3595
  181SLPC     P20612   2.939   2.387   2.631 -0.1648 -0.1661  0.4023
  181SLPC   O1320613   2.879   2.414   2.494  0.2734  0.4363 -0.2323
  181SLPC   O1420614   2.924   2.249   2.682 -0.7789 -0.1488 -0.6628
  181SLPC   O1220615   3.096   2.421   2.635  0.5546 -0.4152 -0.2314
  181SLPC   O1120616   2.873   2.487   2.736  0.5444 -0.2149 -0.1364
  181SLPC    C120617   2.925   2.617   2.753  0.5594  0.1401  0.0577
  181SLPC    HA20618   2.966   2.658   2.659  0.6514 -1.1073 -0.4598
  181SLPC    HB20619   2.838   2.675   2.791 -0.3958 -0.9473 -0.3933
  181SLPC    C220620   3.031   2.621   2.860 -0.3951  0.3831  0.2608
  181SLPC    HS20621   3.108   2.547   2.828  0.7093  1.4667  0.2967
  181SLPC   O2120622   2.984   2.597   2.994 -0.2671  0.4106 -0.6656
  181SLPC   C2120623   3.067   2.534   3.070  0.2615 -0.1196  1.1486
  181SLPC   O2220624   3.163   2.471   3.040  0.4600 -0.0720  0.1166
  181SLPC   C2220625   3.010   2.552   3.212 -0.2287  0.0991 -0.1916
  181SLPC   H2R20626   3.081   2.617   3.267  1.8898 -2.6699  0.6006
  181SLPC   H2S20627   2.910   2.600   3.208 -1.3218 -1.9163  1.2089
  181SLPC    C320628   3.115   2.759   2.854  0.1328  0.1135  0.3470
  181SLPC    HX20629   3.051   2.850   2.842  2.6032  2.1708  1.6764
  181SLPC    HY20630   3.161   2.760   2.753 -0.1115 -0.9437  0.2121
  181SLPC   O3120631   3.213   2.772   2.948  0.0232  0.0237 -0.2174
  181SLPC   C3120632   3.201   2.853   3.047  0.2138 -0.1319 -0.1237
  181SLPC   O3220633   3.105   2.929   3.073  0.0948 -0.2758 -0.5606
  181SLPC   C3220634   3.334   2.852   3.121 -0.3441 -0.4825  0.7922
  181SLPC   H2X20635   3.410   2.865   3.041 -0.4455 -3.8716  0.0116
  181SLPC   H2Y20636   3.366   2.751   3.152  1.8704 -0.6010 -1.5404
  181SLPC   C2320637   3.014   2.417   3.288 -0.2540 -0.6909 -0.0094
  181SLPC   H3R20638   3.104   2.354   3.270 -0.5682 -1.2312  0.2823
  181SLPC   H3S20639   2.927   2.354   3.262 -3.1938  0.9274  4.6178
  181SLPC   C2420640   3.001   2.443   3.440  0.2925  0.8229  0.0111
  181SLPC   H4R20641   2.980   2.344   3.486  1.2261  0.1278 -1.0068
  181SLPC   H4S20642   2.915   2.509   3.463 -2.0866 -1.9950 -0.1706
  181SLPC   C2520643   3.125   2.498   3.514 -0.9644 -0.0871 -0.8756
  181SLPC   H5R20644   3.152   2.598   3.474 -1.2554  0.8560  1.1792
  181SLPC   H5S20645   3.218   2.440   3.498  0.4763  1.6479  0.7543
  181SLPC   C2620646   3.106   2.519   3.661 -0.3019 -0.5644 -0.8447
  181SLPC   H6R20647   3.194   2.582   3.683 -0.9669  0.1067 -0.0453
  181SLPC   H6S20648   3.120   2.420   3.710 -1.2817 -0.9014 -1.2132
  181SLPC   C2720649   2.979   2.576   3.724 -0.1314 -0.3619  0.1202
  181SLPC   H7R20650   2.901   2.500   3.698  1.0616 -1.6389  0.1472
  181SLPC   H7S20651   2.969   2.679   3.685  0.3737  0.3292  1.7377
  181SLPC   C2820652   2.996   2.590   3.874  0.4059  0.2954 -0.8319
  181SLPC   H8R20653   3.078   2.659   3.902 -0.9599  1.1119  1.4776
  181SLPC   H8S20654   3.036   2.497   3.920  0.0023  1.3916  1.9306
  181SLPC   C2920655   2.862   2.625   3.948 -0.0432  0.0428 -0.3810
  181SLPC   H9R20656   2.787   2.550   3.921  0.1841  0.8289 -3.5951
  181SLPC  C21020657   2.825   2.719   4.034 -0.9397  0.5766  0.2730
  181SLPC  H10R20658   2.720   2.729   4.065 -1.7651 -2.1187 -1.2532
  181SLPC  C21120659   2.934   2.820   4.084 -0.0899 -0.6187  0.2097
  181SLPC  H11R20660   2.975   2.884   4.002 -2.7790  1.8597  0.6318
  181SLPC  H11S20661   3.012   2.755   4.127  0.7506  0.4051  0.2682
  181SLPC  C21220662   2.895   2.917   4.189 -0.0729  0.0499  0.6625
  181SLPC  H12R20663   2.917   3.024   4.178  0.3276 -0.0540  0.4414
  181SLPC  C21320664   2.834   2.881   4.306 -0.4138  0.0148  0.6436
  181SLPC  H13R20665   2.813   2.963   4.376 -0.3852  0.3592  0.2555
  181SLPC  C21420666   2.798   2.743   4.353 -0.8273 -0.4388 -0.4332
  181SLPC  H14R20667   2.889   2.679   4.357  0.3726  1.2589  0.3335
  181SLPC  H14S20668   2.723   2.693   4.287  0.5363 -3.3100  0.0467
  181SLPC  C21520669   2.744   2.757   4.497  0.4077  0.9920 -0.4502
  181SLPC  H15R20670   2.666   2.834   4.514  1.0510  1.4185  0.6596
  181SLPC  H15S20671   2.830   2.785   4.562  0.8028 -1.0877 -0.0006
  181SLPC  C21620672   2.695   2.627   4.561 -0.3323 -0.2409  0.5304
  181SLPC  H16R20673   2.770   2.544   4.561 -0.4961 -0.3966  0.9170
  181SLPC  H16S20674   2.618   2.592   4.489  0.1092 -0.8690  0.3477
  181SLPC  C21720675   2.642   2.644   4.705 -0.1619  0.4979 -0.6675
  181SLPC  H17R20676   2.596   2.746   4.708  1.2859  1.1470  0.3283
  181SLPC  H17S20677   2.729   2.649   4.773 -0.0616  1.2830 -0.8406
  181SLPC  C21820678   2.549   2.529   4.739  0.8337  0.4608  0.1534
  181SLPC  H18R20679   2.540   2.523   4.849 -0.1721  0.9703  0.1107
  181SLPC  H18S20680   2.581   2.432   4.694  0.5789  0.6290 -0.4028
  181SLPC  H18T20681   2.443   2.541   4.705  1.1756  0.1021 -1.1125
  181SLPC   C3320682   3.357   2.960   3.231 -0.0691 -0.4030 -0.4456
  181SLPC   H3X20683   3.322   3.059   3.195 -0.3077 -0.1461  0.4671
  181SLPC   H3Y20684   3.465   2.972   3.255 -0.4703  2.3067  0.3304
  181SLPC   C3420685   3.287   2.917   3.360  0.7416 -0.3169 -0.0235
  181SLPC   H4X20686   3.316   2.814   3.390 -1.0500  0.1428  3.9517
  181SLPC   H4Y20687   3.178   2.926   3.337  0.2771 -3.0628  0.7294
  181SLPC   C3520688   3.319   3.005   3.476  0.1963  0.3369 -0.6090
  181SLPC   H5X20689   3.294   3.111   3.452 -2.7371 -0.3360 -0.9712
  181SLPC   H5Y20690   3.428   2.993   3.491  0.1518 -0.5698 -0.9807
  181SLPC   C3620691   3.251   2.975   3.608  0.5727  0.3597  0.0112
  181SLPC   H6X20692   3.279   2.871   3.635  3.2898  0.9090 -0.4210
  181SLPC   H6Y20693   3.142   2.996   3.599  0.2592 -0.9641  0.5585
  181SLPC   C3720694   3.298   3.063   3.724 -0.4989  0.4442 -0.0780
  181SLPC   H7X20695   3.298   3.174   3.721  2.4166  0.5835  1.4356
  181SLPC   H7Y20696   3.406   3.042   3.739 -0.0283  3.5955  1.9605
  181SLPC   C3820697   3.214   3.030   3.849  0.3036  0.2659  0.2544
  181SLPC   H8X20698   3.214   2.920   3.864 -2.4854 -0.0659 -1.5747
  181SLPC   H8Y20699   3.105   3.048   3.844 -0.4014 -3.4484 -0.2829
  181SLPC   C3920700   3.282   3.101   3.969 -0.2753 -0.1957 -0.3683
  181SLPC   H9X20701   3.273   3.211   3.955 -0.0351  0.0133  1.0271
  181SLPC   H9Y20702   3.387   3.073   3.989 -1.1733 -1.7896  2.7065
  181SLPC  C31020703   3.199   3.066   4.092 -1.0560  0.0768  0.0541
  181SLPC  H10X20704   3.170   2.960   4.111 -2.6606  0.2725 -1.1315
  181SLPC  H10Y20705   3.104   3.117   4.066 -0.8026  0.7551  0.4293
  181SLPC  C31120706   3.257   3.133   4.220  0.1198 -0.2130  0.3825
  181SLPC  H11X20707   3.180   3.138   4.300 -0.1489  2.0192  0.0220
  181SLPC  H11Y20708   3.286   3.239   4.204 -1.0161  0.1805  0.8383
  181SLPC  C31220709   3.386   3.065   4.280 -0.3911 -0.0988  0.6221
  181SLPC  H12X20710   3.459   3.044   4.199 -1.6696 -0.6995 -0.4274
  181SLPC  H12Y20711   3.372   2.967   4.330  0.3057 -0.6189 -0.1753
  181SLPC  C31320712   3.438   3.152   4.393  0.0788  0.4275  0.6178
  181SLPC  H13X20713   3.371   3.160   4.482  1.0768 -0.2133  1.4430
  181SLPC  H13Y20714   3.454   3.247   4.337  3.5462 -0.6492 -0.4722
  181SLPC  C31420715   3.573   3.106   4.451 -0.3960  0.1111 -0.1567
  181SLPC  H14X20716   3.637   3.074   4.366 -0.5367  1.0786 -0.6546
  181SLPC  H14Y20717   3.574   3.019   4.519  1.5154  1.3314  1.4924
  181SLPC  C31520718   3.642   3.215   4.530 -0.1157 -0.2182 -0.2819
  181SLPC  H15X20719   3.583   3.241   4.620  2.1588  0.2124  1.1623
  181SLPC  H15Y20720   3.644   3.313   4.476 -3.7738  0.8364  1.1795
  181SLPC  C31620721   3.779   3.157   4.565 -0.1965 -0.4687  0.0958
  181SLPC  H16X20722   3.819   3.148   4.462  1.0115  0.1248  0.4863
  181SLPC  H16Y20723   3.782   3.055   4.608  0.4441 -0.7674 -0.6480
  181SLPC  C31720724   3.864   3.249   4.649 -0.5669 -1.0691 -0.1289
  181SLPC  H17X20725   3.803   3.299   4.727  1.8271  1.1611  0.4780
  181SLPC  H17Y20726   3.916   3.322   4.582  0.0732 -0.9675  0.4704
  181SLPC  C31820727   3.983   3.175   4.714  0.2496 -0.2866  0.3309
  181SLPC  H18X20728   4.070   3.233   4.752 -0.1146 -2.0295  4.3009
  181SLPC  H18Y20729   4.016   3.093   4.646 -0.8896 -0.9741  0.5766
  181SLPC  H18Z20730   3.942   3.125   4.804  0.6592  0.0549  0.7100
  182SLPC     N20731   1.731   2.338   2.443  0.4228 -0.4927  0.0067
  182SLPC   C1320732   1.766   2.483   2.460  0.2619  0.3446  0.5985
  182SLPC  H13A20733   1.701   2.535   2.529 -1.7213 -0.7175 -0.3567
  182SLPC  H13B20734   1.865   2.486   2.504  2.3638 -0.4890 -3.6050
  182SLPC  H13C20735   1.756   2.543   2.371  0.7615  1.1885  1.0956
  182SLPC   C1420736   1.838   2.285   2.360 -0.9490 -0.6194  0.2687
  182SLPC  H14A20737   1.832   2.177   2.351 -0.4979 -0.7995  1.7792
  182SLPC  H14B20738   1.844   2.325   2.260 -0.8330  1.8912  1.2180
  182SLPC  H14C20739   1.940   2.293   2.395  0.4755 -3.2852 -2.7267
  182SLPC   C1520740   1.594   2.318   2.375 -0.4521 -0.4414  0.1948
  182SLPC  H15A20741   1.592   2.380   2.286 -0.9628 -1.0064 -0.2004
  182SLPC  H15B20742   1.584   2.214   2.347 -3.5403 -1.0491  2.9044
  182SLPC  H15C20743   1.507   2.347   2.432  0.6948  1.3030  1.1449
  182SLPC   C1220744   1.745   2.259   2.572  0.2797 -0.5876 -0.1370
  182SLPC  H12A20745   1.683   2.300   2.651  1.0598 -1.0122  0.7239
  182SLPC  H12B20746   1.844   2.269   2.614 -0.4464  0.0778  1.5219
  182SLPC   C1120747   1.709   2.112   2.575  0.1386 -0.1552  0.4860
  182SLPC  H11A20748   1.753   2.053   2.658  1.2608 -1.1242 -0.7486
  182SLPC  H11B20749   1.756   2.072   2.482 -0.0464 -0.6586  0.6046
  182SLPC     P20750   1.476   2.146   2.690 -0.2099 -0.3558 -0.0236
  182SLPC   O1320751   1.522   2.278   2.746  0.1587  0.4900  0.3000
  182SLPC   O1420752   1.338   2.136   2.636 -0.5744 -1.0849 -0.2150
  182SLPC   O1220753   1.570   2.092   2.568  0.1829 -0.7467  0.1583
  182SLPC   O1120754   1.492   2.033   2.800  0.3438  0.4267 -0.5763
  182SLPC    C120755   1.487   1.894   2.766  0.1104  0.6037  0.0370
  182SLPC    HA20756   1.381   1.872   2.739 -0.0968  1.6879 -0.0812
  182SLPC    HB20757   1.540   1.876   2.670 -0.1016  1.0834 -0.1760
  182SLPC    C220758   1.527   1.805   2.887  0.2459  0.3910 -0.0696
  182SLPC    HS20759   1.567   1.705   2.860 -1.2539 -0.1128 -0.5453
  182SLPC   O2120760   1.414   1.792   2.988 -0.2558 -0.1637  0.3222
  182SLPC   C2120761   1.396   1.679   3.047 -0.6787 -0.1260  0.0310
  182SLPC   O2220762   1.463   1.576   3.038  0.5943  0.3577 -0.6716
  182SLPC   C2220763   1.277   1.690   3.145 -0.2759 -0.0599  0.5692
  182SLPC   H2R20764   1.271   1.792   3.188 -1.6043  0.3212 -0.4383
  182SLPC   H2S20765   1.189   1.688   3.076 -1.4830 -1.0129  2.0589
  182SLPC    C320766   1.648   1.873   2.960 -0.0746 -0.3030  0.0472
  182SLPC    HX20767   1.621   1.967   3.013 -1.3859 -0.3929 -0.4475
  182SLPC    HY20768   1.721   1.902   2.881 -1.4996  0.8116 -0.9156
  182SLPC   O3120769   1.720   1.785   3.050 -0.3375  0.0039 -0.4667
  182SLPC   C3120770   1.693   1.805   3.186 -0.6046  0.7558 -0.4425
  182SLPC   O3220771   1.617   1.890   3.227  0.0161  0.2200 -0.2824
  182SLPC   C3220772   1.772   1.709   3.279 -0.4583  0.6043  0.0654
  182SLPC   H2X20773   1.880   1.706   3.253 -0.8870 -2.2105 -1.8811
  182SLPC   H2Y20774   1.729   1.607   3.262  1.3846 -0.7605  2.8160
  182SLPC   C2320775   1.261   1.592   3.257  0.3221 -0.0703 -0.4578
  182SLPC   H3R20776   1.272   1.489   3.218 -0.0374 -1.0558  1.8755
  182SLPC   H3S20777   1.154   1.592   3.290  0.5301  0.9295  0.2842
  182SLPC   C2420778   1.359   1.615   3.368 -0.4731 -0.1920  1.0763
  182SLPC   H4R20779   1.361   1.726   3.382  1.7400 -0.1112  0.5817
  182SLPC   H4S20780   1.457   1.577   3.332 -1.5521 -2.0801 -0.0035
  182SLPC   C2520781   1.328   1.554   3.505  0.1658  0.2492 -0.1384
  182SLPC   H5R20782   1.421   1.532   3.562 -0.2384  2.3222  1.4433
  182SLPC   H5S20783   1.276   1.459   3.478 -1.1072  0.5750  1.0421
  182SLPC   C2620784   1.243   1.636   3.596  0.2242  0.6450  0.1869
  182SLPC   H6R20785   1.178   1.702   3.535  1.9383  1.7296 -0.5418
  182SLPC   H6S20786   1.297   1.717   3.648 -2.4665  2.7321 -0.0659
  182SLPC   C2720787   1.164   1.547   3.694 -0.3332  0.5112 -0.7163
  182SLPC   H7R20788   1.240   1.488   3.748 -0.8459  0.1997 -0.3347
  182SLPC   H7S20789   1.117   1.472   3.627  3.3614 -1.6457 -1.1129
  182SLPC   C2820790   1.073   1.620   3.791  0.4496  0.4402 -0.2965
  182SLPC   H8R20791   0.996   1.558   3.843 -0.3829  0.7415 -1.1316
  182SLPC   H8S20792   1.012   1.694   3.734 -1.0859 -0.4559  0.1156
  182SLPC   C2920793   1.146   1.704   3.888  0.3185 -0.6070  0.2306
  182SLPC   H9R20794   1.222   1.771   3.845 -0.9480  1.1912  0.6819
  182SLPC  C21020795   1.129   1.712   4.026  0.2652 -0.1442  0.3880
  182SLPC  H10R20796   1.186   1.790   4.081 -1.6183 -0.0839  2.4023
  182SLPC  C21120797   1.035   1.637   4.116  0.4254  0.0885 -0.9673
  182SLPC  H11R20798   0.931   1.671   4.095  0.3894  0.0497 -0.8592
  182SLPC  H11S20799   1.063   1.660   4.221  0.7672 -1.8484 -0.5957
  182SLPC  C21220800   1.053   1.487   4.118  0.0916  0.0746  0.3097
  182SLPC  H12R20801   1.156   1.451   4.131  0.5502  1.4563  0.6397
  182SLPC  C21320802   0.952   1.394   4.108 -0.1981  0.4499  0.3677
  182SLPC  H13R20803   0.981   1.289   4.092  0.5245  0.5292  1.1213
  182SLPC  C21420804   0.802   1.416   4.102 -0.2744  0.6568 -0.0709
  182SLPC  H14R20805   0.771   1.518   4.132  2.1079  1.3442  0.2609
  182SLPC  H14S20806   0.755   1.345   4.173 -0.1270  0.8520  0.2214
  182SLPC  C21520807   0.754   1.406   3.953  0.0879 -0.1535  0.3518
  182SLPC  H15R20808   0.831   1.461   3.896 -0.2081  0.9043  0.9344
  182SLPC  H15S20809   0.658   1.459   3.934 -0.0325  0.5281  2.5154
  182SLPC  C21620810   0.741   1.263   3.904  0.1530  0.6274  0.3223
  182SLPC  H16R20811   0.650   1.214   3.945 -0.0719  0.5289 -0.2814
  182SLPC  H16S20812   0.827   1.207   3.946 -0.6012 -1.5199 -0.8362
  182SLPC  C21720813   0.742   1.266   3.752 -0.0335  1.0724 -0.2398
  182SLPC  H17R20814   0.644   1.301   3.715 -1.7664 -1.0644  2.0050
  182SLPC  H17S20815   0.732   1.160   3.718 -0.4432  0.4899  1.6184
  182SLPC  C21820816   0.862   1.330   3.688  0.2034  0.5663 -0.0203
  182SLPC  H18R20817   0.850   1.440   3.679  1.5322  0.6589 -1.0087
  182SLPC  H18S20818   0.890   1.303   3.584  0.8362 -0.2828  0.3569
  182SLPC  H18T20819   0.946   1.318   3.761  0.2139  0.8946  0.0243
  182SLPC   C3320820   1.745   1.749   3.418  0.4903  0.0281 -0.3357
  182SLPC   H3X20821   1.637   1.755   3.444  0.7582  0.6931  0.6396
  182SLPC   H3Y20822   1.785   1.849   3.443 -0.4759  0.2874  0.2208
  182SLPC   C3420823   1.795   1.650   3.522 -0.0865 -0.2816  0.0245
  182SLPC   H4X20824   1.899   1.629   3.491  0.3448 -0.9283  1.7805
  182SLPC   H4Y20825   1.746   1.551   3.509  1.4193 -1.1016  0.3066
  182SLPC   C3520826   1.810   1.701   3.663  0.3539  0.9967 -0.0952
  182SLPC   H5X20827   1.850   1.804   3.660  1.0072  0.7468 -0.0154
  182SLPC   H5Y20828   1.870   1.635   3.729 -1.1661  1.0040  1.3605
  182SLPC   C3620829   1.675   1.704   3.738 -0.1463  1.0876  0.2587
  182SLPC   H6X20830   1.651   1.601   3.771 -1.7814  0.8987 -1.2895
  182SLPC   H6Y20831   1.591   1.732   3.670  0.3882 -0.8419 -1.3113
  182SLPC   C3720832   1.668   1.801   3.848 -0.3122 -0.0856 -0.5851
  182SLPC   H7X20833   1.694   1.905   3.819  0.7824 -0.0510  0.4603
  182SLPC   H7Y20834   1.751   1.771   3.916  1.7931 -0.1734 -3.0338
  182SLPC   C3820835   1.537   1.811   3.934 -0.1662 -0.6265  0.4480
  182SLPC   H8X20836   1.541   1.717   3.993 -2.3587 -0.5376  0.8198
  182SLPC   H8Y20837   1.450   1.824   3.867  1.5590  1.6159 -1.5506
  182SLPC   C3920838   1.541   1.935   4.022  0.1154  0.3069  0.0475
  182SLPC   H9X20839   1.471   2.018   3.997  1.4458  1.4365 -0.0434
  182SLPC   H9Y20840   1.636   1.993   4.021 -0.1301  0.7160 -0.0424
  182SLPC  C31020841   1.490   1.901   4.165  0.0168  0.0891 -0.2783
  182SLPC  H10X20842   1.544   1.812   4.203 -0.7965 -0.1328  0.4051
  182SLPC  H10Y20843   1.382   1.873   4.173  0.5413 -1.5398  2.0244
  182SLPC  C31120844   1.516   2.020   4.255 -0.1615 -0.4974  0.0697
  182SLPC  H11X20845   1.442   2.102   4.238  1.5158  1.2659  0.8371
  182SLPC  H11Y20846   1.616   2.066   4.243 -0.2751  0.0062  0.9180
  182SLPC  C31220847   1.509   1.983   4.401 -0.2242 -0.1425 -0.7712
  182SLPC  H12X20848   1.550   2.069   4.459 -0.3239 -0.5850 -0.0368
  182SLPC  H12Y20849   1.586   1.904   4.413  0.7900  0.6114 -1.9820
  182SLPC  C31320850   1.374   1.945   4.454  0.4001 -0.0307 -0.1882
  182SLPC  H13X20851   1.332   1.874   4.380 -0.1046  1.3652 -1.2812
  182SLPC  H13Y20852   1.303   2.030   4.445  2.3360  1.6724 -0.0724
  182SLPC  C31420853   1.373   1.894   4.605  0.0052  0.0159 -0.4015
  182SLPC  H14X20854   1.458   1.823   4.613 -0.3330 -0.2467  1.1171
  182SLPC  H14Y20855   1.278   1.847   4.640  0.8417 -0.1616  1.7936
  182SLPC  C31520856   1.385   2.005   4.712 -0.4990  0.1357  0.2567
  182SLPC  H15X20857   1.285   2.051   4.699 -0.5857 -0.6143 -2.2204
  182SLPC  H15Y20858   1.467   2.072   4.678 -1.3176  0.1154 -1.8796
  182SLPC  C31620859   1.405   1.940   4.849  0.0268  0.7484 -0.9139
  182SLPC  H16X20860   1.505   1.894   4.863  1.0148  2.9240 -0.3877
  182SLPC  H16Y20861   1.336   1.854   4.860  0.3575  0.5876 -0.0468
  182SLPC  C31720862   1.378   2.040   4.959  0.4880  0.4121  0.2067
  182SLPC  H17X20863   1.273   2.073   4.974  0.3404  0.4579 -0.8413
  182SLPC  H17Y20864   1.429   2.131   4.921 -1.3651  0.7054 -1.7741
  182SLPC  C31820865   1.439   2.001   5.095 -0.0078  0.4081  0.3542
  182SLPC  H18X20866   1.410   1.905   5.143 -0.8015 -0.0314 -0.9602
  182SLPC  H18Y20867   1.421   2.082   5.169 -0.0658  1.7083 -1.0258
  182SLPC  H18Z20868   1.550   1.999   5.093 -0.0221 -0.0368 -0.0465
  183SLPC     N20869   1.495   5.840   2.653 -0.7860 -0.2282  0.5282
  183SLPC   C1320870   1.589   5.720   2.645  0.2170 -0.4867  0.1980
  183SLPC  H13A20871   1.681   5.760   2.606 -0.6755 -0.5817 -2.1930
  183SLPC  H13B20872   1.590   5.684   2.747  0.0921  0.3975  0.5216
  183SLPC  H13C20873   1.554   5.647   2.574  1.9991  0.3668 -1.6685
  183SLPC   C1420874   1.481   5.900   2.526  0.0557  0.1278 -0.3586
  183SLPC  H14A20875   1.424   5.847   2.451 -2.8339  3.1361 -0.5071
  183SLPC  H14B20876   1.436   5.997   2.538  2.4204  1.0312  2.0623
  183SLPC  H14C20877   1.580   5.918   2.489  0.8290 -1.1032  0.9813
  183SLPC   C1520878   1.564   5.948   2.732  0.4591  0.0927  0.3722
  183SLPC  H15A20879   1.497   6.032   2.721 -0.1043 -0.5824 -1.9520
  183SLPC  H15B20880   1.578   5.925   2.837  1.9045  0.9571  0.3943
  183SLPC  H15C20881   1.666   5.971   2.705  0.3583 -0.0987 -0.1969
  183SLPC   C1220882   1.362   5.814   2.724 -0.2004  0.1245  0.6047
  183SLPC  H12A20883   1.312   5.749   2.654  0.8573  0.7917 -0.8217
  183SLPC  H12B20884   1.298   5.901   2.727 -0.1753  0.1423  0.6381
  183SLPC   C1120885   1.352   5.750   2.865  0.8072 -0.4489 -0.1227
  183SLPC  H11A20886   1.250   5.714   2.890  0.3216 -0.2134 -1.6891
  183SLPC  H11B20887   1.375   5.833   2.936  0.6217  0.1615 -0.7696
  183SLPC     P20888   1.392   5.500   2.830  0.0307  0.7673 -0.0076
  183SLPC   O1320889   1.295   5.508   2.717  0.1198 -0.6538  0.2902
  183SLPC   O1420890   1.505   5.412   2.828 -0.1703 -0.4893  0.2940
  183SLPC   O1220891   1.439   5.638   2.882  0.2636  0.6023 -0.0694
  183SLPC   O1120892   1.304   5.458   2.958 -0.6575  0.1025  0.2903
  183SLPC    C120893   1.370   5.477   3.085  0.8918 -0.7880 -0.3143
  183SLPC    HA20894   1.464   5.418   3.096  0.3482 -1.2888  2.7614
  183SLPC    HB20895   1.393   5.584   3.105 -0.2173 -0.6553  0.3498
  183SLPC    C220896   1.278   5.418   3.200 -0.5856  0.2297 -0.4578
  183SLPC    HS20897   1.259   5.310   3.184 -0.8104  0.1821  0.0996
  183SLPC   O2120898   1.166   5.511   3.211 -0.3895 -0.3999 -0.0060
  183SLPC   C2120899   1.055   5.466   3.157  0.2390  0.8103  0.2551
  183SLPC   O2220900   1.043   5.354   3.108  0.1055 -0.4217 -0.1383
  183SLPC   C2220901   0.937   5.557   3.178  1.0108  0.0572  0.2307
  183SLPC   H2R20902   0.965   5.659   3.142  0.0792  0.3534  0.3257
  183SLPC   H2S20903   0.857   5.529   3.106  1.5712 -2.3106  0.4656
  183SLPC    C320904   1.357   5.415   3.334  0.0473 -0.8260 -1.0855
  183SLPC    HX20905   1.408   5.513   3.341  0.8236 -1.2070 -1.2716
  183SLPC    HY20906   1.429   5.331   3.332 -0.5673 -1.4604  0.8155
  183SLPC   O3120907   1.260   5.411   3.453 -0.2441  0.2805  0.3646
  183SLPC   C3120908   1.214   5.287   3.469  0.0152  0.5600 -0.3466
  183SLPC   O3220909   1.220   5.197   3.392 -0.1359 -0.2879 -0.1257
  183SLPC   C3220910   1.137   5.279   3.605 -0.2037 -0.2239  0.0604
  183SLPC   H2X20911   1.094   5.178   3.588  0.2074 -0.1504 -1.5913
  183SLPC   H2Y20912   1.056   5.352   3.623 -0.3440 -0.4367  0.2905
  183SLPC   C2320913   0.896   5.568   3.327 -0.5259 -0.4802  0.3384
  183SLPC   H3R20914   0.803   5.628   3.336  0.5431  1.1816  0.5554
  183SLPC   H3S20915   0.967   5.626   3.388 -0.7282  0.2239 -0.0837
  183SLPC   C2420916   0.855   5.431   3.381 -0.1297 -0.0015 -0.4017
  183SLPC   H4R20917   0.941   5.362   3.370  0.8782  1.4012 -1.5037
  183SLPC   H4S20918   0.775   5.382   3.321 -0.3942 -2.3220  1.6517
  183SLPC   C2520919   0.804   5.436   3.529 -0.0638 -0.0634 -0.0990
  183SLPC   H5R20920   0.882   5.470   3.601 -1.1021 -1.4046  1.7512
  183SLPC   H5S20921   0.773   5.334   3.562  0.4854 -0.4009 -0.6062
  183SLPC   C2620922   0.690   5.524   3.558  0.3245 -0.4184  0.1247
  183SLPC   H6R20923   0.609   5.517   3.483 -0.4259 -1.3421  0.9971
  183SLPC   H6S20924   0.731   5.628   3.560 -1.6759  0.4060  1.6606
  183SLPC   C2720925   0.642   5.499   3.703  0.4302  0.3087 -0.5794
  183SLPC   H7R20926   0.737   5.477   3.755 -1.2748 -1.2527  2.1527
  183SLPC   H7S20927   0.578   5.408   3.716  1.2744 -0.1094  0.8667
  183SLPC   C2820928   0.563   5.616   3.763  0.3522 -0.1710 -0.6791
  183SLPC   H8R20929   0.506   5.649   3.673  2.7432  1.5285 -1.6859
  183SLPC   H8S20930   0.628   5.706   3.766  1.0564 -0.6799 -0.6954
  183SLPC   C2920931   0.479   5.583   3.891  0.0336  0.7365  0.4291
  183SLPC   H9R20932   0.375   5.550   3.879 -0.2853  1.3544  1.3724
  183SLPC  C21020933   0.521   5.579   4.013 -0.8909 -0.2733 -0.6779
  183SLPC  H10R20934   0.450   5.549   4.091 -0.6673  1.7892  0.3795
  183SLPC  C21120935   0.651   5.633   4.070  0.0953  0.1470  0.3993
  183SLPC  H11R20936   0.725   5.651   3.989  0.5534 -1.1233  0.5125
  183SLPC  H11S20937   0.696   5.556   4.137  1.9847 -0.0517 -1.0232
  183SLPC  C21220938   0.631   5.752   4.162  0.7346  0.9894  0.2769
  183SLPC  H12R20939   0.641   5.849   4.110 -0.9620  1.2887  0.4402
  183SLPC  C21320940   0.607   5.751   4.296  0.1652 -0.1250 -0.0123
  183SLPC  H13R20941   0.589   5.845   4.350 -0.1205  0.0290 -0.3736
  183SLPC  C21420942   0.581   5.636   4.391 -0.2891  0.1907 -0.5492
  183SLPC  H14R20943   0.656   5.555   4.397  0.0812  0.6125  1.1076
  183SLPC  H14S20944   0.478   5.598   4.370  0.2975 -0.7469 -1.8409
  183SLPC  C21520945   0.573   5.687   4.541  0.4129  0.1530  0.4459
  183SLPC  H15R20946   0.477   5.743   4.547  0.2964  0.2084 -1.3695
  183SLPC  H15S20947   0.672   5.734   4.557 -0.1230  1.5130 -0.0706
  183SLPC  C21620948   0.572   5.577   4.649  0.2291 -0.3557 -0.0683
  183SLPC  H16R20949   0.611   5.611   4.747 -0.9270 -0.3988  0.4203
  183SLPC  H16S20950   0.634   5.491   4.615  0.9641 -0.1341  0.6797
  183SLPC  C21720951   0.431   5.517   4.678 -0.4960 -0.2813  0.2505
  183SLPC  H17R20952   0.394   5.486   4.578  2.2888  0.0788 -0.9868
  183SLPC  H17S20953   0.368   5.597   4.722 -0.5627 -0.8694  1.2691
  183SLPC  C21820954   0.428   5.400   4.779  0.6614  0.1542  0.0820
  183SLPC  H18R20955   0.345   5.334   4.746 -1.0623  2.4985 -0.5453
  183SLPC  H18S20956   0.409   5.433   4.883  3.4231  0.7867  0.4547
  183SLPC  H18T20957   0.522   5.341   4.782  0.5608 -0.0849 -1.1383
  183SLPC   C3320958   1.243   5.273   3.719 -0.8534 -0.3689 -1.0018
  183SLPC   H3X20959   1.288   5.370   3.749  0.5701 -0.9338 -1.2485
  183SLPC   H3Y20960   1.328   5.204   3.705 -0.1314 -0.7135  3.4460
  183SLPC   C3420961   1.175   5.219   3.843  0.7832  1.0382  0.5230
  183SLPC   H4X20962   1.150   5.111   3.835 -1.3032  1.2113  3.2925
  183SLPC   H4Y20963   1.082   5.275   3.863  1.0441  1.5153  0.4272
  183SLPC   C3520964   1.259   5.211   3.966 -0.5190  0.5724 -0.5311
  183SLPC   H5X20965   1.347   5.144   3.962  0.7208  1.7953  2.8648
  183SLPC   H5Y20966   1.201   5.170   4.052  0.6222  1.1139  0.5324
  183SLPC   C3620967   1.301   5.352   4.021 -0.6685 -0.4895  0.1069
  183SLPC   H6X20968   1.201   5.399   4.036 -1.1621 -1.2067 -0.8200
  183SLPC   H6Y20969   1.357   5.414   3.947 -1.3777 -0.4130 -0.3748
  183SLPC   C3720970   1.380   5.354   4.155  0.7410  0.7579 -0.7266
  183SLPC   H7X20971   1.449   5.442   4.160  0.8853  0.6228 -0.2837
  183SLPC   H7Y20972   1.442   5.263   4.168 -0.6176  0.1147  1.6810
  183SLPC   C3820973   1.290   5.357   4.282 -0.1483  0.9689  0.3857
  183SLPC   H8X20974   1.224   5.267   4.283  0.6570  0.2173 -2.9450
  183SLPC   H8Y20975   1.231   5.451   4.283 -1.4680  0.1931  2.5913
  183SLPC   C3920976   1.379   5.342   4.408  0.5617 -0.0915 -0.4789
  183SLPC   H9X20977   1.436   5.435   4.428  0.1829  0.7387 -2.9369
  183SLPC   H9Y20978   1.454   5.265   4.381  1.3341  0.4572  0.0656
  183SLPC  C31020979   1.291   5.306   4.525 -0.0296 -0.7971  0.5264
  183SLPC  H10X20980   1.222   5.224   4.499 -0.1399 -0.2091 -1.1931
  183SLPC  H10Y20981   1.240   5.398   4.561  0.8914 -0.6853  1.6029
  183SLPC  C31120982   1.383   5.256   4.633  0.0100  0.4475 -0.3542
  183SLPC  H11X20983   1.452   5.338   4.662 -0.0406  0.5984 -0.6555
  183SLPC  H11Y20984   1.442   5.167   4.603 -0.3272 -0.1396  0.6727
  183SLPC  C31220985   1.307   5.203   4.755  0.3576  0.3447 -0.0819
  183SLPC  H12X20986   1.250   5.297   4.772 -0.3824  0.2125 -1.7133
  183SLPC  H12Y20987   1.368   5.183   4.846 -1.7497 -0.7135  1.1694
  183SLPC  C31320988   1.223   5.082   4.720  0.5250 -0.7623  0.1387
  183SLPC  H13X20989   1.273   5.009   4.652 -0.4076  0.7920 -2.3799
  183SLPC  H13Y20990   1.126   5.107   4.671  0.7820 -0.6953 -0.3511
  183SLPC  C31420991   1.187   4.994   4.842  0.0838 -0.8004  0.5227
  183SLPC  H14X20992   1.096   4.933   4.827  0.6274 -1.6703  0.6319
  183SLPC  H14Y20993   1.176   5.057   4.933 -1.7527 -0.0106 -0.2166
  183SLPC  C31520994   1.302   4.896   4.873 -0.2113  0.3216 -0.4207
  183SLPC  H15X20995   1.401   4.946   4.862 -0.1777  0.0133 -1.7671
  183SLPC  H15Y20996   1.298   4.818   4.794 -2.2109 -1.0438  0.9490
  183SLPC  C31620997   1.294   4.835   5.014 -0.0497  0.0258 -0.3254
  183SLPC  H16X20998   1.189   4.835   5.052  0.4960  0.0721  1.2929
  183SLPC  H16Y20999   1.345   4.910   5.079  0.0910  0.5849 -1.0713
  183SLPC  C31721000   1.345   4.697   5.014  0.3600 -0.6675  0.1333
  183SLPC  H17X21001   1.440   4.693   4.956  0.0923  3.0343 -0.8006
  183SLPC  H17Y21002   1.275   4.638   4.951 -1.0302 -0.9444  1.8796
  183SLPC  C31821003   1.351   4.635   5.151  0.0159 -0.0307  0.1010
  183SLPC  H18X21004   1.410   4.699   5.220  0.3339 -0.3881  0.1676
  183SLPC  H18Y21005   1.391   4.532   5.137  2.6401  0.9097  0.1151
  183SLPC  H18Z21006   1.246   4.637   5.185 -0.1642 -2.2534 -0.1265
  184SLPC     N21007   2.470   6.811   2.753  0.7832  0.1434 -0.4169
  184SLPC   C1321008   2.401   6.760   2.640 -0.0891  0.4312 -0.1682
  184SLPC  H13A21009   2.340   6.825   2.579 -1.0459 -1.5483 -1.4205
  184SLPC  H13B21010   2.468   6.714   2.568 -0.9075 -2.1550  0.6061
  184SLPC  H13C21011   2.332   6.679   2.657 -0.9026  0.2106 -3.7478
  184SLPC   C1421012   2.574   6.911   2.718  0.0341  0.2319 -0.1247
  184SLPC  H14A21013   2.617   6.964   2.801  2.1146  0.5047 -1.3058
  184SLPC  H14B21014   2.658   6.860   2.673  1.6940  1.1692  1.7896
  184SLPC  H14C21015   2.548   6.983   2.641  0.4931 -1.3559 -1.8463
  184SLPC   C1521016   2.542   6.697   2.813 -0.5911  0.0396 -0.5867
  184SLPC  H15A21017   2.591   6.637   2.738 -0.6121  0.2934 -0.8047
  184SLPC  H15B21018   2.617   6.725   2.885  0.6165 -0.4173 -1.6200
  184SLPC  H15C21019   2.468   6.640   2.867  0.8423 -1.5525 -0.2326
  184SLPC   C1221020   2.368   6.870   2.852  0.8874 -0.2335  0.4232
  184SLPC  H12A21021   2.399   6.866   2.956 -0.8408  2.2291  1.1215
  184SLPC  H12B21022   2.280   6.809   2.845 -0.2869  1.4708 -0.1871
  184SLPC   C1121023   2.318   7.016   2.835 -0.0789 -0.5245 -0.6779
  184SLPC  H11A21024   2.402   7.089   2.835  0.3853 -1.0426 -1.4515
  184SLPC  H11B21025   2.253   7.040   2.923 -0.8006 -2.0836 -0.7562
  184SLPC     P21026   2.113   6.990   2.671  0.3947  0.0758 -0.1959
  184SLPC   O1321027   2.048   7.101   2.604  0.2603 -0.2647  0.0341
  184SLPC   O1421028   2.127   6.868   2.593 -0.9200 -0.0427 -0.1143
  184SLPC   O1221029   2.251   7.034   2.710  0.2613  0.1779 -0.2643
  184SLPC   O1121030   2.033   6.952   2.808  0.2679  0.0712 -0.0432
  184SLPC    C121031   1.946   7.033   2.888  0.1964 -0.8389 -0.9251
  184SLPC    HA21032   1.954   7.142   2.866  0.3514 -0.8123 -0.7425
  184SLPC    HB21033   1.838   7.018   2.863  0.1398  0.0356 -1.2307
  184SLPC    C221034   1.958   7.002   3.041  0.6525  0.6778 -0.1532
  184SLPC    HS21035   1.854   6.981   3.075  0.7437 -0.9155 -0.7695
  184SLPC   O2121036   2.015   7.107   3.121  0.4117 -0.6263 -0.4331
  184SLPC   C2121037   1.955   7.224   3.132  0.3527 -0.4154  0.5115
  184SLPC   O2221038   1.862   7.262   3.062  0.0301 -0.1530  0.0395
  184SLPC   C2221039   2.013   7.308   3.244  0.3142 -0.1092 -0.3022
  184SLPC   H2R21040   2.114   7.349   3.223 -0.0659  0.2976 -1.3638
  184SLPC   H2S21041   1.932   7.382   3.258  1.0762  0.8323 -0.7192
  184SLPC    C321042   2.034   6.872   3.069  0.0560  0.9527 -0.2269
  184SLPC    HX21043   2.133   6.897   3.024 -0.7348  1.7367 -1.5921
  184SLPC    HY21044   1.983   6.795   3.007  0.7637  0.7662 -0.5893
  184SLPC   O3121045   2.038   6.841   3.208  0.1438  0.4484  0.0675
  184SLPC   C3121046   2.150   6.832   3.270 -0.6914 -0.6290  0.0388
  184SLPC   O3221047   2.258   6.856   3.217  0.0966 -0.2101  0.7496
  184SLPC   C3221048   2.120   6.771   3.411  0.6840 -1.0143 -0.0767
  184SLPC   H2X21049   2.082   6.667   3.400  0.1267 -0.6326 -2.1480
  184SLPC   H2Y21050   2.033   6.826   3.452  1.0919  0.4527 -1.0943
  184SLPC   C2321051   2.043   7.216   3.368  0.7126  0.8139  0.3447
  184SLPC   H3R21052   2.118   7.141   3.335  0.5489  0.9572 -0.3700
  184SLPC   H3S21053   1.948   7.166   3.395  0.3811  1.0748 -0.3228
  184SLPC   C2421054   2.091   7.299   3.477  0.1942 -0.5999  0.2132
  184SLPC   H4R21055   2.170   7.368   3.441 -0.0960 -0.0223  0.6579
  184SLPC   H4S21056   2.131   7.248   3.567  0.9674  0.9128  0.7725
  184SLPC   C2521057   1.987   7.395   3.543 -0.3743 -0.1982  0.1703
  184SLPC   H5R21058   1.905   7.327   3.574  1.4380 -2.3351  0.5075
  184SLPC   H5S21059   1.950   7.467   3.466 -2.1393 -0.2142  0.9555
  184SLPC   C2621060   2.043   7.471   3.663 -1.2606 -0.1428 -0.2772
  184SLPC   H6R21061   1.974   7.556   3.678 -1.7581 -0.7094  0.7538
  184SLPC   H6S21062   2.146   7.506   3.643 -0.5865 -0.6951  1.9485
  184SLPC   C2721063   2.039   7.394   3.793 -0.1831 -0.0519 -0.0537
  184SLPC   H7R21064   2.079   7.291   3.781  1.3786  0.5178  0.0218
  184SLPC   H7S21065   1.932   7.373   3.815 -0.0999  0.0251  0.4315
  184SLPC   C2821066   2.122   7.459   3.906  0.1721 -0.1631  0.2779
  184SLPC   H8R21067   2.114   7.570   3.909 -1.2602 -0.2564  2.8124
  184SLPC   H8S21068   2.230   7.437   3.893  0.3408 -0.3515  1.8599
  184SLPC   C2921069   2.089   7.401   4.042  0.4276 -0.1613 -0.4109
  184SLPC   H9R21070   2.057   7.296   4.044 -0.1833  0.0074 -0.9738
  184SLPC  C21021071   2.089   7.468   4.159 -0.1953  0.4026 -0.5933
  184SLPC  H10R21072   2.064   7.426   4.257  0.5463  2.2771  0.4462
  184SLPC  C21121073   2.130   7.610   4.182  0.4751 -0.2587 -0.2290
  184SLPC  H11R21074   2.111   7.663   4.086 -1.8603 -1.6958 -0.6413
  184SLPC  H11S21075   2.237   7.628   4.206  0.7822 -0.5084 -1.3333
  184SLPC  C21221076   2.032   7.671   4.279 -0.1033 -0.6341 -0.9280
  184SLPC  H12R21077   1.938   7.706   4.234 -0.6082  2.0763  1.9481
  184SLPC  C21321078   2.049   7.687   4.412 -0.4932 -0.5130 -0.4348
  184SLPC  H13R21079   1.973   7.732   4.477  0.4857 -0.3931  0.6536
  184SLPC  C21421080   2.161   7.624   4.487 -0.8455  0.1210 -0.1402
  184SLPC  H14R21081   2.211   7.541   4.433  0.8647  1.1563 -0.2201
  184SLPC  H14S21082   2.130   7.587   4.587  1.8503  0.1168  0.7843
  184SLPC  C21521083   2.282   7.725   4.497 -0.3714 -0.4171  0.2597
  184SLPC  H15R21084   2.250   7.823   4.539  1.1184 -0.6713  2.1355
  184SLPC  H15S21085   2.312   7.739   4.391 -0.8624  1.6691  0.3440
  184SLPC  C21621086   2.401   7.683   4.581 -0.3640  0.2523  0.4439
  184SLPC  H16R21087   2.449   7.588   4.548  0.4884  0.1147  1.9632
  184SLPC  H16S21088   2.371   7.664   4.686 -2.2662  2.5399  0.3793
  184SLPC  C21721089   2.510   7.796   4.578  0.4022  0.7482 -0.0998
  184SLPC  H17R21090   2.598   7.767   4.639  0.3213 -1.2499 -0.8552
  184SLPC  H17S21091   2.466   7.889   4.620  1.0620  0.7967  0.4948
  184SLPC  C21821092   2.564   7.839   4.445 -0.4325  0.0812  0.4358
  184SLPC  H18R21093   2.613   7.752   4.396 -0.4350  0.1177  0.3696
  184SLPC  H18S21094   2.650   7.907   4.462  1.6014 -2.3423  0.5053
  184SLPC  H18T21095   2.488   7.865   4.368 -0.6332 -0.4810  0.4375
  184SLPC   C3321096   2.241   6.787   3.510  0.1445  0.2120 -0.1580
  184SLPC   H3X21097   2.333   6.743   3.466 -0.8468 -2.9900  0.6603
  184SLPC   H3Y21098   2.225   6.725   3.600 -0.5695  0.8949  0.1997
  184SLPC   C3421099   2.255   6.933   3.561  0.4614 -0.4057  0.0442
  184SLPC   H4X21100   2.164   6.969   3.614 -0.8518 -2.1954 -0.8836
  184SLPC   H4Y21101   2.272   7.000   3.474  0.2375 -1.2287 -0.6361
  184SLPC   C3521102   2.379   6.959   3.663  0.0231  0.6271 -0.5282
  184SLPC   H5X21103   2.477   6.940   3.615  0.4351  0.2123  0.4422
  184SLPC   H5Y21104   2.366   6.886   3.745 -0.1437  1.6980  0.4323
  184SLPC   C3621105   2.393   7.099   3.722  0.9297 -0.6416  0.0177
  184SLPC   H6X21106   2.467   7.082   3.803 -0.3674 -2.5069  0.8890
  184SLPC   H6Y21107   2.297   7.124   3.772  1.4244  1.0926  0.1798
  184SLPC   C3721108   2.438   7.206   3.617 -0.2149 -0.1471  0.0103
  184SLPC   H7X21109   2.370   7.190   3.531  0.7496 -0.7855 -0.6491
  184SLPC   H7Y21110   2.541   7.181   3.586  0.0240 -0.3273  0.9048
  184SLPC   C3821111   2.420   7.352   3.658 -0.0274  0.6044  0.5318
  184SLPC   H8X21112   2.478   7.379   3.749 -2.8070  1.3553  2.2135
  184SLPC   H8Y21113   2.315   7.380   3.680 -0.3855  0.6207 -1.0722
  184SLPC   C3921114   2.452   7.463   3.551  0.0767  0.9184  0.6526
  184SLPC   H9X21115   2.420   7.564   3.584 -2.0679  0.7560 -0.7288
  184SLPC   H9Y21116   2.385   7.436   3.467 -1.5991 -1.6083  2.6122
  184SLPC  C31021117   2.602   7.486   3.501  0.0755 -0.3058 -0.4543
  184SLPC  H10X21118   2.643   7.392   3.458  0.1946  0.0336 -1.1039
  184SLPC  H10Y21119   2.660   7.501   3.595 -0.8422  0.6136 -0.0114
  184SLPC  C31121120   2.628   7.604   3.405 -0.3402 -0.0941  0.8012
  184SLPC  H11X21121   2.612   7.700   3.459  1.2591 -1.7041  4.4943
  184SLPC  H11Y21122   2.547   7.586   3.331  1.3043 -0.2578 -1.0544
  184SLPC  C31221123   2.766   7.599   3.337  0.6229 -0.1021 -0.5452
  184SLPC  H12X21124   2.768   7.679   3.260 -1.1134 -0.8344 -1.4214
  184SLPC  H12Y21125   2.782   7.508   3.276 -0.1085 -1.3847  1.1094
  184SLPC  C31321126   2.887   7.611   3.429  0.5906  0.3049 -0.9026
  184SLPC  H13X21127   2.976   7.600   3.364  0.8155 -0.1524 -0.5265
  184SLPC  H13Y21128   2.893   7.527   3.502 -0.3550  2.2973  1.6145
  184SLPC  C31421129   2.899   7.757   3.482 -0.3152  0.3205 -0.1863
  184SLPC  H14X21130   2.859   7.831   3.409  3.7016  1.4497 -1.5037
  184SLPC  H14Y21131   3.008   7.771   3.496 -0.2852  0.2032 -0.2985
  184SLPC  C31521132   2.835   7.770   3.624  0.0408  0.7035  0.5847
  184SLPC  H15X21133   2.882   7.685   3.676  2.1753  1.7482  0.4602
  184SLPC  H15Y21134   2.725   7.752   3.631  0.0200  0.1046 -0.8510
  184SLPC  C31621135   2.871   7.889   3.708  0.7618  0.0724 -0.3454
  184SLPC  H16X21136   2.830   7.871   3.810  0.3451  1.3138 -0.2762
  184SLPC  H16Y21137   2.815   7.980   3.679 -1.1565 -0.1439  2.2981
  184SLPC  C31721138   3.017   7.923   3.727  0.1992  0.7045 -0.1760
  184SLPC  H17X21139   3.049   7.979   3.636  0.8866  2.5645  1.1393
  184SLPC  H17Y21140   3.082   7.838   3.755 -2.1612 -0.6284  1.6049
  184SLPC  C31821141   3.036   8.033   3.834  0.0327  0.4971  0.0291
  184SLPC  H18X21142   2.971   8.119   3.808 -1.1119 -0.9981 -2.3982
  184SLPC  H18Y21143   3.143   8.064   3.839 -0.3063  1.5219  1.4059
  184SLPC  H18Z21144   2.999   7.993   3.930 -0.2224 -0.1447 -0.3320
  185POPC     N21145   0.969   0.617   7.226 -0.5191 -0.2030 -0.2376
  185POPC   C1221146   0.965   0.735   7.139 -0.1780  0.6995 -0.6151
  185POPC  H12A21147   0.895   0.805   7.181 -1.8264 -2.2981  2.0451
  185POPC  H12B21148   0.933   0.701   7.041  1.1031 -0.9643 -0.4997
  185POPC   C1321149   0.983   0.660   7.373  0.2835 -0.0177  0.0255
  185POPC  H13A21150   0.973   0.573   7.436  0.0295 -0.3463 -0.4622
  185POPC  H13B21151   1.076   0.715   7.378 -1.0951  2.6961 -1.6410
  185POPC  H13C21152   0.904   0.725   7.406  0.7798  0.7782 -0.3308
  185POPC   C1421153   0.838   0.542   7.206 -1.0517  0.1704  0.2835
  185POPC  H14A21154   0.819   0.548   7.100  0.7939 -0.0602 -0.0914
  185POPC  H14B21155   0.826   0.446   7.254  0.3038 -0.7872 -1.1640
  185POPC  H14C21156   0.757   0.595   7.254 -1.9904  0.8370 -1.9175
  185POPC   C1521157   1.084   0.529   7.179 -0.4218 -0.5657  0.5182
  185POPC  H15A21158   1.087   0.428   7.217 -0.6075 -0.2784  1.3393
  185POPC  H15B21159   1.177   0.574   7.211 -0.4640 -0.9267  1.1677
  185POPC  H15C21160   1.089   0.528   7.072  2.8304  1.8380  0.4938
  185POPC   C1121161   1.104   0.815   7.135  0.3968  0.2655  0.5115
  185POPC  H11A21162   1.183   0.757   7.083 -1.0879 -1.5558  0.1908
  185POPC  H11B21163   1.130   0.838   7.241 -0.6960 -2.0531  1.3417
  185POPC     P21164   1.221   1.018   7.011  0.0621  0.2206 -0.0404
  185POPC   O1321165   1.316   1.036   7.118 -0.6842 -0.1323  0.5433
  185POPC   O1421166   1.172   1.134   6.935  0.2198 -0.1498  0.6701
  185POPC   O1221167   1.092   0.945   7.072 -0.2008  0.3817  0.2038
  185POPC   O1121168   1.280   0.915   6.911  0.4326  0.6107 -0.3032
  185POPC    C121169   1.202   0.850   6.803  0.3738  0.4479 -1.0359
  185POPC    HA21170   1.103   0.901   6.800  0.7317  1.1843 -0.6182
  185POPC    HB21171   1.182   0.742   6.824 -0.6110  1.0965  1.7850
  185POPC    C221172   1.260   0.868   6.661 -0.7484  0.5611 -0.3877
  185POPC    HS21173   1.335   0.787   6.654 -0.3598  0.7947  0.9350
  185POPC   O2121174   1.311   0.998   6.637 -0.0486 -0.2839  0.7399
  185POPC   C2121175   1.439   1.009   6.644  0.8533 -0.0082 -0.3291
  185POPC   O2221176   1.519   0.927   6.684 -0.7015 -0.6803 -0.4572
  185POPC   C2221177   1.465   1.161   6.629 -0.1081  0.0108 -0.2655
  185POPC   H2R21178   1.440   1.207   6.727 -0.6387  0.2392 -0.5056
  185POPC   H2S21179   1.407   1.200   6.543  0.0423 -1.6610 -1.1607
  185POPC    C321180   1.160   0.834   6.548 -0.4436  0.3505  0.0794
  185POPC    HX21181   1.065   0.891   6.553 -0.3734  0.5159 -0.4007
  185POPC    HY21182   1.138   0.729   6.573 -0.3068 -0.1515 -1.7262
  185POPC   O3121183   1.222   0.842   6.413 -0.3093  0.5864 -0.3850
  185POPC   C3121184   1.135   0.794   6.318 -0.7747  1.2633  0.4369
  185POPC   O3221185   1.033   0.739   6.344  0.0705 -0.4028 -0.6813
  185POPC   C3221186   1.186   0.820   6.178 -0.1436  0.1835 -0.0580
  185POPC   H2X21187   1.236   0.727   6.143  1.7472  1.6409 -1.4221
  185POPC   H2Y21188   1.248   0.912   6.187 -1.1032  0.8262  0.1250
  185POPC   C2321189   1.613   1.196   6.590  0.2694 -0.9204  0.5370
  185POPC   H3R21190   1.645   1.143   6.498 -1.0289 -0.9672  0.0999
  185POPC   H3S21191   1.685   1.167   6.670 -1.4111  2.6427  3.6905
  185POPC   C2421192   1.631   1.350   6.581 -0.4995 -0.0457  0.2168
  185POPC   H4R21193   1.730   1.373   6.626 -0.4458 -0.7823  0.5026
  185POPC   H4S21194   1.563   1.409   6.644 -1.2833  1.1317 -1.6426
  185POPC   C2521195   1.624   1.411   6.437 -0.1510  0.4749 -0.5664
  185POPC   H5R21196   1.618   1.522   6.438 -1.4256  0.4299  0.0531
  185POPC   H5S21197   1.528   1.387   6.387 -0.3776  1.1389 -0.4643
  185POPC   C2621198   1.740   1.356   6.353 -0.0551  0.7251  0.7382
  185POPC   H6R21199   1.723   1.247   6.337  0.7300  0.6862  0.0669
  185POPC   H6S21200   1.836   1.354   6.409  0.0662 -0.2754  0.5153
  185POPC   C2721201   1.758   1.428   6.224  0.5494  0.0870  0.9446
  185POPC   H7R21202   1.808   1.527   6.237  0.0652  0.5539 -0.4706
  185POPC   H7S21203   1.659   1.439   6.174  0.9750 -1.7002 -0.4157
  185POPC   C2821204   1.842   1.339   6.118  0.0425 -1.2079 -0.1130
  185POPC   H8R21205   1.800   1.237   6.114  1.2761 -1.7056 -1.6996
  185POPC   H8S21206   1.946   1.332   6.158  0.7342  3.5238 -0.4475
  185POPC   C2921207   1.859   1.421   5.990 -0.1407 -0.3910 -0.4881
  185POPC   H9121208   1.829   1.527   5.995  2.5336  0.4609 -0.8630
  185POPC  C21021209   1.885   1.373   5.871  0.3701  0.1259 -0.9243
  185POPC  H10121210   1.893   1.442   5.786  0.4512 -1.3119 -2.1291
  185POPC  C21121211   1.911   1.229   5.842  0.5794  0.3963 -0.3948
  185POPC  H11R21212   1.856   1.153   5.902  0.1735 -0.7038 -2.1130
  185POPC  H11S21213   2.021   1.213   5.852  0.7323  1.1234 -0.8315
  185POPC  C21221214   1.888   1.196   5.693 -0.4065  0.8482 -0.2363
  185POPC  H12R21215   1.928   1.093   5.681 -0.0341  0.9410  0.1860
  185POPC  H12S21216   1.958   1.253   5.627  0.4056 -2.1745 -2.1612
  185POPC  C21321217   1.744   1.214   5.634 -0.3080  0.6300  0.5029
  185POPC  H13R21218   1.729   1.321   5.606 -0.9632  0.2237 -0.8192
  185POPC  H13S21219   1.682   1.194   5.724 -1.7324  0.1977 -0.5222
  185POPC  C21421220   1.706   1.111   5.520 -0.0908 -0.7845  0.2955
  185POPC  H14R21221   1.597   1.115   5.502  0.0289  0.7586 -0.2383
  185POPC  H14S21222   1.737   1.011   5.557  1.2588 -0.1942  0.8472
  185POPC  C21521223   1.770   1.141   5.385  0.4658 -0.0452  0.5787
  185POPC  H15R21224   1.746   1.058   5.315  1.8824  0.5581 -0.6684
  185POPC  H15S21225   1.881   1.146   5.393  0.3431  1.5402  1.8527
  185POPC  C21621226   1.718   1.270   5.320 -0.1763 -0.6659  0.4583
  185POPC  H16R21227   1.742   1.342   5.401 -0.6418 -2.3360  2.1798
  185POPC  H16S21228   1.607   1.266   5.320 -0.2648  0.7858  1.7412
  185POPC  C21721229   1.779   1.305   5.181 -0.3115 -0.1717 -0.3807
  185POPC  H17R21230   1.888   1.327   5.185 -0.4816  0.8060 -0.6650
  185POPC  H17S21231   1.733   1.404   5.158  2.4382  1.7845  1.8998
  185POPC  C21821232   1.746   1.213   5.066  0.1774  0.0764 -0.1623
  185POPC  H18R21233   1.786   1.254   4.971  0.5911  1.9798  0.7742
  185POPC  H18S21234   1.635   1.205   5.066  0.1943 -1.0134  2.3817
  185POPC  H18T21235   1.794   1.115   5.088  1.2585  1.0780  2.3191
  185POPC   C3321236   1.068   0.847   6.080  0.0891  0.3800  0.1418
  185POPC   H3X21237   0.999   0.762   6.060  2.3076 -1.5499  0.2195
  185POPC   H3Y21238   1.109   0.857   5.977  0.9476 -1.1981  0.3015
  185POPC   C3421239   0.992   0.983   6.107  0.0222 -0.1764  0.1635
  185POPC   H4X21240   1.063   1.069   6.107  0.1599 -0.2467  1.8414
  185POPC   H4Y21241   0.944   0.979   6.207  1.1805 -1.4105  0.7044
  185POPC   C3521242   0.884   1.011   6.000 -0.0705 -0.0202 -0.1328
  185POPC   H5X21243   0.854   1.116   6.022  0.7397  0.4277 -1.0730
  185POPC   H5Y21244   0.793   0.948   6.012 -0.0565  0.1564  0.9726
  185POPC   C3621245   0.917   1.012   5.845 -0.2935  0.6556  0.3215
  185POPC   H6X21246   0.961   0.914   5.816  2.8370  1.9791  0.2071
  185POPC   H6Y21247   0.992   1.091   5.822 -1.2562  1.2809 -0.8017
  185POPC   C3721248   0.793   1.033   5.758 -0.4066 -0.4465  0.6738
  185POPC   H7X21249   0.834   1.055   5.657 -0.2304 -2.0845  0.3616
  185POPC   H7Y21250   0.744   1.126   5.793  1.1993  1.1791 -1.1781
  185POPC   C3821251   0.681   0.930   5.742 -0.2705  0.1161 -0.2362
  185POPC   H8X21252   0.620   0.928   5.834  0.9196  1.5111  0.6406
  185POPC   H8Y21253   0.736   0.836   5.723 -1.2426  0.0839 -3.4454
  185POPC   C3921254   0.584   0.962   5.622  0.0101 -0.3333  0.2003
  185POPC   H9X21255   0.643   0.986   5.531 -2.3236  0.4234 -1.2105
  185POPC   H9Y21256   0.528   1.056   5.639 -0.0298 -0.2800 -0.2201
  185POPC  C31021257   0.488   0.853   5.589 -0.2496  0.1158 -0.1470
  185POPC  H10X21258   0.453   0.818   5.689  0.1468  1.8013  0.6082
  185POPC  H10Y21259   0.545   0.768   5.546  2.1907  0.2598  2.5451
  185POPC  C31121260   0.368   0.901   5.507  0.5695 -0.1402 -0.5341
  185POPC  H11X21261   0.324   0.986   5.563  0.6733 -1.1394  1.1319
  185POPC  H11Y21262   0.281   0.832   5.501 -0.3879  1.1525 -3.3911
  185POPC  C31221263   0.407   0.931   5.363  0.7819  0.2878 -0.1008
  185POPC  H12X21264   0.480   1.014   5.350 -0.6293  1.2397 -2.8585
  185POPC  H12Y21265   0.319   0.966   5.305  1.7508 -1.9008 -3.1821
  185POPC  C31321266   0.462   0.816   5.282 -0.4816 -0.0516  0.2977
  185POPC  H13X21267   0.394   0.730   5.304 -1.7956  1.0399  0.6412
  185POPC  H13Y21268   0.569   0.804   5.309  0.0957  0.3000 -1.6551
  185POPC  C31421269   0.479   0.851   5.134  0.0055 -0.4193  0.3753
  185POPC  H14X21270   0.546   0.940   5.131 -1.6267  0.8516 -0.4191
  185POPC  H14Y21271   0.387   0.896   5.091  0.3234  0.9466  1.0514
  185POPC  C31521272   0.541   0.736   5.058  0.7716 -0.6820 -0.5397
  185POPC  H15X21273   0.474   0.649   5.040  0.0553 -0.4597  0.9129
  185POPC  H15Y21274   0.622   0.696   5.121 -1.1580 -0.4947  2.2288
  185POPC  C31621275   0.587   0.783   4.923 -0.1176  0.8825 -0.1036
  185POPC  H16X21276   0.660   0.867   4.928 -1.1900  1.7980  0.7044
  185POPC  H16Y21277   0.496   0.812   4.866 -1.7821 -0.9240  1.4596
  185POPC  H16Z21278   0.631   0.693   4.874 -2.1954  0.4547 -1.3064
  186POPC     N21279   3.333   1.215   7.072  0.0529 -0.3222 -0.5708
  186POPC   C1221280   3.300   1.332   6.984  0.5857 -0.4978 -1.1865
  186POPC  H12A21281   3.195   1.327   6.959 -0.0699  0.4271  1.0776
  186POPC  H12B21282   3.350   1.334   6.889 -0.4462  1.8263 -1.7608
  186POPC   C1321283   3.482   1.208   7.075 -0.1745  0.5418  0.0867
  186POPC  H13A21284   3.511   1.173   6.977 -0.2604 -2.5476  1.0751
  186POPC  H13B21285   3.531   1.302   7.096 -0.7909  1.0288 -0.5713
  186POPC  H13C21286   3.526   1.135   7.141  3.1179  1.8954 -0.4477
  186POPC   C1421287   3.276   1.225   7.219  0.4401  0.4887  0.6087
  186POPC  H14A21288   3.330   1.152   7.277  0.5803  0.3331  0.2810
  186POPC  H14B21289   3.298   1.324   7.257 -1.5326  0.2556  2.6318
  186POPC  H14C21290   3.171   1.197   7.213 -0.1142  2.5424 -0.0687
  186POPC   C1521291   3.291   1.086   7.009  0.1563 -0.7281  0.3510
  186POPC  H15A21292   3.326   1.000   7.063  1.4393 -0.6170 -0.2506
  186POPC  H15B21293   3.335   1.077   6.910  0.8225  2.7436  0.1946
  186POPC  H15C21294   3.184   1.077   6.992 -0.2822 -1.0662  2.9678
  186POPC   C1121295   3.304   1.464   7.042  0.0875  0.0324  0.0912
  186POPC  H11A21296   3.245   1.476   7.136 -1.4734  0.2119 -0.8834
  186POPC  H11B21297   3.265   1.543   6.974  0.1555  0.8658  0.9899
  186POPC     P21298   3.542   1.545   6.959 -0.0951 -0.3924  0.1554
  186POPC   O1321299   3.677   1.560   7.013 -0.2667 -0.0494  0.4839
  186POPC   O1421300   3.482   1.667   6.901  0.1023  0.7278 -0.4222
  186POPC   O1221301   3.444   1.493   7.072  0.0427 -0.7902  0.2065
  186POPC   O1121302   3.543   1.435   6.844 -0.1232 -0.4620 -0.9003
  186POPC    C121303   3.634   1.421   6.738  0.3276 -0.2827  1.0349
  186POPC    HA21304   3.720   1.358   6.768 -0.9035 -1.5029  2.1754
  186POPC    HB21305   3.684   1.516   6.710  2.5575 -1.7752 -0.4033
  186POPC    C221306   3.568   1.357   6.608  0.2927 -0.6907  0.3262
  186POPC    HS21307   3.644   1.352   6.527  0.2319  0.6821  0.1528
  186POPC   O2121308   3.464   1.440   6.567 -0.0262  0.0853 -0.3652
  186POPC   C2121309   3.443   1.457   6.444 -0.1007  0.2682 -0.3941
  186POPC   O2221310   3.463   1.376   6.354  0.3297 -0.3225  0.4050
  186POPC   C2221311   3.396   1.606   6.426  0.2729 -0.5541 -0.3372
  186POPC   H2R21312   3.440   1.666   6.508  1.0408 -2.1023  0.4307
  186POPC   H2S21313   3.285   1.604   6.419  0.2634  1.9818 -4.0381
  186POPC    C321314   3.521   1.209   6.647  0.2754 -0.1329  0.7010
  186POPC    HX21315   3.499   1.218   6.756  0.2913  3.6415  0.5445
  186POPC    HY21316   3.615   1.150   6.636  0.0344 -0.2951 -0.5625
  186POPC   O3121317   3.417   1.152   6.565 -0.9715 -0.0469 -1.1656
  186POPC   C3121318   3.293   1.176   6.593 -0.7785 -0.1412 -0.8619
  186POPC   O3221319   3.247   1.256   6.673  0.3947 -0.2957  0.6440
  186POPC   C3221320   3.209   1.086   6.508  0.2514  0.5811  0.9524
  186POPC   H2X21321   3.151   1.021   6.576  2.7412 -1.5445  1.1742
  186POPC   H2Y21322   3.268   1.024   6.438  1.5183  0.9115  1.6917
  186POPC   C2321323   3.450   1.658   6.289 -0.1911 -0.0875 -0.0787
  186POPC   H3R21324   3.390   1.603   6.213  1.4109 -1.6420 -0.2790
  186POPC   H3S21325   3.558   1.642   6.274 -0.1373  1.3367 -1.5651
  186POPC   C2421326   3.419   1.806   6.259 -0.3030 -0.4129 -0.1423
  186POPC   H4R21327   3.469   1.859   6.343 -1.0899 -1.5724  1.1167
  186POPC   H4S21328   3.311   1.830   6.269 -0.4858 -1.1829 -0.1450
  186POPC   C2521329   3.468   1.851   6.124  1.2081 -0.2522  0.3495
  186POPC   H5R21330   3.579   1.845   6.124  1.4293  2.3605  1.5687
  186POPC   H5S21331   3.445   1.959   6.117 -1.9824 -0.7468  1.5457
  186POPC   C2621332   3.398   1.788   6.007 -0.5230  0.0642  0.0061
  186POPC   H6R21333   3.288   1.804   6.011 -0.4775  0.4058 -0.1033
  186POPC   H6S21334   3.414   1.679   6.001  0.8863  0.3190 -1.4558
  186POPC   C2721335   3.442   1.860   5.874 -0.5163  0.5158 -0.5616
  186POPC   H7R21336   3.551   1.881   5.871 -0.5116  0.9065  1.4122
  186POPC   H7S21337   3.393   1.958   5.855  0.9547  1.4782  0.4457
  186POPC   C2821338   3.425   1.767   5.754 -0.0457 -0.1407 -0.2459
  186POPC   H8R21339   3.494   1.681   5.764 -0.4405 -0.3894  0.4006
  186POPC   H8S21340   3.444   1.814   5.656 -2.1984 -0.4087 -0.8460
  186POPC   C2921341   3.288   1.709   5.747 -0.0981 -0.1028 -0.8643
  186POPC   H9121342   3.275   1.615   5.803  1.9290  0.0825 -0.0129
  186POPC  C21021343   3.188   1.757   5.674 -0.2439 -0.0473  0.1015
  186POPC  H10121344   3.085   1.722   5.693 -0.1523 -0.3764  0.0034
  186POPC  C21121345   3.200   1.883   5.589  0.3850  0.0094 -0.8333
  186POPC  H11R21346   3.301   1.929   5.599 -0.3538  1.3588  1.2823
  186POPC  H11S21347   3.126   1.961   5.619  0.1585 -1.0941  1.7331
  186POPC  C21221348   3.181   1.853   5.445  0.2012 -0.7280 -0.0581
  186POPC  H12R21349   3.132   1.755   5.429 -0.1579 -0.4355 -0.7895
  186POPC  H12S21350   3.284   1.825   5.414  0.0554 -2.2329  0.7195
  186POPC  C21321351   3.128   1.965   5.358 -0.2026 -0.5645  0.2425
  186POPC  H13R21352   3.193   2.054   5.379 -1.9655  0.7736  0.2538
  186POPC  H13S21353   3.026   1.986   5.398 -0.5382 -2.3517  0.3733
  186POPC  C21421354   3.113   1.947   5.207  0.2691  0.3802  0.2168
  186POPC  H14R21355   3.056   1.855   5.181 -0.1596  0.8757 -0.6159
  186POPC  H14S21356   3.209   1.950   5.151 -1.2405  0.1927 -2.5210
  186POPC  C21521357   3.026   2.064   5.148  0.0139  0.3910 -0.3908
  186POPC  H15R21358   3.053   2.081   5.041  1.1750  0.1796 -0.1450
  186POPC  H15S21359   3.046   2.154   5.210 -1.4551  0.4160  0.0699
  186POPC  C21621360   2.880   2.023   5.172  0.0082  0.4039  0.1500
  186POPC  H16R21361   2.861   1.990   5.276 -2.7359  0.5701 -0.2245
  186POPC  H16S21362   2.849   1.939   5.106  1.0847  1.5967 -1.9862
  186POPC  C21721363   2.793   2.144   5.151  0.1820 -0.4449  0.0392
  186POPC  H17R21364   2.817   2.196   5.056 -1.6212 -1.8250 -1.2500
  186POPC  H17S21365   2.803   2.219   5.232  0.1419 -0.6764  0.2609
  186POPC  C21821366   2.637   2.110   5.160 -0.7859  0.4063  0.0997
  186POPC  H18R21367   2.603   2.037   5.083  0.5518 -1.6294  1.3437
  186POPC  H18S21368   2.587   2.208   5.151  2.1840  1.9808 -0.5120
  186POPC  H18T21369   2.610   2.071   5.260  1.3312 -1.8548 -0.1070
  186POPC   C3321370   3.095   1.158   6.423 -0.2203 -0.5273 -0.3988
  186POPC   H3X21371   3.139   1.214   6.338 -0.0196 -1.2668 -0.7894
  186POPC   H3Y21372   3.041   1.228   6.492  0.2289 -0.5903  0.0236
  186POPC   C3421373   2.986   1.062   6.368  0.0982 -0.1094 -0.0826
  186POPC   H4X21374   2.947   1.121   6.282  0.6253 -0.4057 -0.5253
  186POPC   H4Y21375   2.907   1.029   6.439  0.0087 -1.2811 -0.7125
  186POPC   C3521376   3.040   0.928   6.323  0.5297  0.3245  0.2449
  186POPC   H5X21377   3.074   0.870   6.411 -0.5945 -1.6101 -0.5223
  186POPC   H5Y21378   3.126   0.947   6.256 -1.0130  2.9337 -1.1444
  186POPC   C3621379   2.938   0.831   6.264 -0.7295  0.2681 -0.4397
  186POPC   H6X21380   2.842   0.879   6.233 -2.1821 -2.5667 -0.6924
  186POPC   H6Y21381   2.914   0.737   6.318  1.6163 -0.0473  0.1283
  186POPC   C3721382   2.991   0.781   6.132 -0.4740  0.2632 -0.2033
  186POPC   H7X21383   2.899   0.734   6.091 -0.1491 -1.1276  0.6092
  186POPC   H7Y21384   3.077   0.712   6.145  0.3543  1.4858  1.0796
  186POPC   C3821385   3.037   0.883   6.029  0.4833 -0.1489  0.2232
  186POPC   H8X21386   3.138   0.925   6.046  0.1816 -0.2947  2.6324
  186POPC   H8Y21387   2.961   0.965   6.023  1.3838  0.6550 -0.7254
  186POPC   C3921388   3.050   0.819   5.893  0.8382 -0.1900  0.1507
  186POPC   H9X21389   2.973   0.740   5.877  1.0306 -0.5795  1.1031
  186POPC   H9Y21390   3.143   0.765   5.866  2.4669  2.0992  0.8049
  186POPC  C31021391   3.039   0.916   5.778 -0.2660 -0.7890  0.0218
  186POPC  H10X21392   3.125   0.986   5.787 -1.8134  1.1251  0.4637
  186POPC  H10Y21393   2.944   0.973   5.777 -0.6713 -1.3925  1.4469
  186POPC  C31121394   3.042   0.846   5.646 -0.1282 -0.1741  1.0502
  186POPC  H11X21395   2.960   0.772   5.643  0.8665 -1.3014  1.0683
  186POPC  H11Y21396   3.145   0.805   5.645  0.6943  1.7410  1.9695
  186POPC  C31221397   3.021   0.931   5.525 -0.0666  0.2107  0.2370
  186POPC  H12X21398   3.057   1.032   5.554  0.5495  0.1915 -0.4497
  186POPC  H12Y21399   2.911   0.935   5.509 -0.1625 -1.1637  0.4471
  186POPC  C31321400   3.089   0.883   5.388 -0.1506 -0.6030  0.2872
  186POPC  H13X21401   3.034   0.789   5.367 -2.8159  1.1764 -1.5015
  186POPC  H13Y21402   3.199   0.871   5.396  0.2755  2.1009 -0.2694
  186POPC  C31421403   3.065   0.982   5.270 -0.8251 -0.0872 -0.8904
  186POPC  H14X21404   3.064   1.082   5.318 -3.9079  0.2617 -1.4877
  186POPC  H14Y21405   2.956   0.976   5.246 -0.3832  0.7931 -3.3825
  186POPC  C31521406   3.158   0.966   5.156 -0.2113 -0.3597 -0.1500
  186POPC  H15X21407   3.143   0.863   5.117  2.5109 -1.2781  0.9426
  186POPC  H15Y21408   3.265   0.967   5.186 -0.1823  1.4354 -0.2329
  186POPC  C31621409   3.133   1.067   5.054  0.4402  0.7057 -0.2704
  186POPC  H16X21410   3.151   1.167   5.098  1.9240 -0.3599  1.6752
  186POPC  H16Y21411   3.035   1.068   5.003 -0.1870 -0.6393  0.8595
  186POPC  H16Z21412   3.212   1.043   4.979  1.4825  0.4010  0.8947
  187POPC     N21413   1.834   0.680   2.216  0.5917 -0.0833 -0.9534
  187POPC   C1221414   1.684   0.656   2.239  0.6582 -0.2968  0.3601
  187POPC  H12A21415   1.668   0.555   2.275 -1.0080 -0.0380  0.4306
  187POPC  H12B21416   1.630   0.652   2.145  0.7245  1.0603  0.2460
  187POPC   C1321417   1.914   0.678   2.342  0.2954 -0.7381 -0.0265
  187POPC  H13A21418   1.855   0.724   2.420 -1.3772 -0.4475 -1.3841
  187POPC  H13B21419   1.954   0.579   2.354  2.0585 -0.0694  0.0304
  187POPC  H13C21420   2.000   0.743   2.328 -0.5927  0.9047  1.7117
  187POPC   C1421421   1.885   0.575   2.128 -0.3864  0.4501  0.2087
  187POPC  H14A21422   1.850   0.595   2.028 -0.4415  0.3577  0.2088
  187POPC  H14B21423   1.992   0.578   2.124 -0.1749 -3.1579 -0.9136
  187POPC  H14C21424   1.858   0.475   2.162  1.6602 -0.0927  0.3401
  187POPC   C1521425   1.848   0.814   2.151 -0.1948  0.3487  0.7421
  187POPC  H15A21426   1.826   0.892   2.222  2.8847  0.2936  1.9091
  187POPC  H15B21427   1.773   0.826   2.074 -4.4708  0.4420  4.5216
  187POPC  H15C21428   1.945   0.836   2.109  0.8165 -5.8057 -1.1579
  187POPC   C1121429   1.622   0.743   2.343 -0.1598 -0.6418  0.5237
  187POPC  H11A21430   1.512   0.725   2.339 -0.2639  0.2147 -1.8211
  187POPC  H11B21431   1.640   0.847   2.310 -1.5081 -0.2289  1.0332
  187POPC     P21432   1.615   0.616   2.571  0.4310  0.7146 -0.4727
  187POPC   O1321433   1.731   0.562   2.647  0.1293 -0.3588  0.2263
  187POPC   O1421434   1.543   0.527   2.485 -0.3899 -0.6371 -0.3399
  187POPC   O1221435   1.669   0.733   2.477  0.4984  0.0401  0.2499
  187POPC   O1121436   1.512   0.681   2.675 -1.2203 -0.1752  0.2787
  187POPC    C121437   1.497   0.823   2.682  0.1681 -0.7760  0.0191
  187POPC    HA21438   1.389   0.848   2.695  0.4395  0.5955 -0.1591
  187POPC    HB21439   1.516   0.878   2.587  0.5557  3.4787  2.2919
  187POPC    C221440   1.596   0.892   2.782 -0.1910  0.3700 -0.3128
  187POPC    HS21441   1.698   0.881   2.740 -1.0083 -2.3381 -1.8216
  187POPC   O2121442   1.563   0.836   2.911 -0.3679  0.2398 -0.2299
  187POPC   C2121443   1.667   0.806   2.984 -0.0441 -0.4527  0.6533
  187POPC   O2221444   1.786   0.817   2.954  0.7948 -0.2334  0.5386
  187POPC   C2221445   1.611   0.770   3.125 -1.1655  0.4121  0.2357
  187POPC   H2R21446   1.563   0.672   3.104 -0.1826 -0.1770  0.6337
  187POPC   H2S21447   1.539   0.847   3.157 -1.0530 -0.1554  1.9320
  187POPC    C321448   1.577   1.049   2.788 -0.1329  0.3855  0.2442
  187POPC    HX21449   1.467   1.056   2.806 -0.0519 -0.2941  1.0481
  187POPC    HY21450   1.588   1.098   2.689 -0.3069 -1.9617 -0.9989
  187POPC   O3121451   1.642   1.111   2.900 -0.5367  0.0946  0.2778
  187POPC   C3121452   1.769   1.142   2.881  0.1920 -0.2817 -0.3240
  187POPC   O3221453   1.830   1.119   2.778  0.2739  0.5311 -0.5321
  187POPC   C3221454   1.821   1.209   3.010  1.0993 -0.5631  0.1162
  187POPC   H2X21455   1.786   1.154   3.100 -0.1844 -0.1634 -0.1253
  187POPC   H2Y21456   1.770   1.307   3.007 -0.3017 -1.2774 -2.6664
  187POPC   C2321457   1.724   0.763   3.229 -0.3145  0.6290  1.3222
  187POPC   H3R21458   1.782   0.857   3.237  1.6572 -0.6597  3.4979
  187POPC   H3S21459   1.796   0.678   3.220  0.0995  0.9363  1.6809
  187POPC   C2421460   1.666   0.744   3.367  0.0636 -0.0698 -0.5079
  187POPC   H4R21461   1.655   0.637   3.394 -1.8887  0.4672  1.0187
  187POPC   H4S21462   1.567   0.793   3.372 -0.2152 -0.6644 -0.0577
  187POPC   C2521463   1.755   0.808   3.472 -0.9235 -0.9805  0.1959
  187POPC   H5R21464   1.750   0.919   3.471 -1.7525 -1.0030 -1.4739
  187POPC   H5S21465   1.862   0.787   3.452 -0.5542  0.3664  0.6870
  187POPC   C2621466   1.712   0.772   3.609 -1.4986 -0.5169  0.4081
  187POPC   H6R21467   1.745   0.669   3.634 -0.3912 -0.3022 -0.1236
  187POPC   H6S21468   1.601   0.771   3.618 -1.3757 -0.2331  2.3036
  187POPC   C2721469   1.756   0.878   3.716 -0.0689 -0.0565 -0.4203
  187POPC   H7R21470   1.681   0.960   3.706  2.4398  2.3752 -0.6129
  187POPC   H7S21471   1.862   0.909   3.704 -0.6385  1.3538 -2.5121
  187POPC   C2821472   1.753   0.831   3.864 -0.3992  0.4409 -0.2444
  187POPC   H8R21473   1.786   0.903   3.942  1.4488  0.9199 -1.4096
  187POPC   H8S21474   1.823   0.746   3.872 -1.9705 -1.0147 -1.3709
  187POPC   C2921475   1.618   0.773   3.897  0.2388  0.8948 -0.2598
  187POPC   H9121476   1.593   0.693   3.826  1.7210 -0.3767  0.6185
  187POPC  C21021477   1.544   0.802   4.000 -0.2020 -0.9890  0.2060
  187POPC  H10121478   1.445   0.756   4.010 -0.2026 -0.9683  0.2985
  187POPC  C21121479   1.561   0.916   4.104  0.0495 -0.3083  0.2461
  187POPC  H11R21480   1.460   0.956   4.124  0.3299  0.0109  1.0671
  187POPC  H11S21481   1.625   1.001   4.071  0.2444  0.2088  1.8751
  187POPC  C21221482   1.612   0.874   4.244  0.4162 -0.3274  0.4387
  187POPC  H12R21483   1.703   0.813   4.227  0.0838 -0.5099 -0.8640
  187POPC  H12S21484   1.530   0.818   4.293  1.0252 -1.2540  0.4389
  187POPC  C21321485   1.656   0.987   4.336 -0.3143 -0.0608 -0.6246
  187POPC  H13R21486   1.572   1.059   4.346  0.1219  0.4988 -0.9173
  187POPC  H13S21487   1.748   1.034   4.294  0.3827  2.1143  2.9091
  187POPC  C21421488   1.683   0.931   4.478  0.1792 -0.5604 -0.2151
  187POPC  H14R21489   1.751   0.845   4.461  0.6725  0.1950 -2.3887
  187POPC  H14S21490   1.587   0.890   4.515  0.7215 -0.9619  0.7796
  187POPC  C21521491   1.754   1.020   4.575 -0.0118  0.4856  0.7919
  187POPC  H15R21492   1.688   1.107   4.595 -1.7232 -0.8543  1.2083
  187POPC  H15S21493   1.853   1.048   4.532 -0.7434  0.7276 -0.7806
  187POPC  C21621494   1.773   0.947   4.711 -0.6385 -0.5925 -0.0530
  187POPC  H16R21495   1.679   0.893   4.733  0.9022 -2.5072  2.3384
  187POPC  H16S21496   1.788   1.024   4.790 -1.4245 -0.5238  0.0395
  187POPC  C21721497   1.894   0.860   4.711  0.0004 -0.4721  0.7162
  187POPC  H17R21498   1.983   0.912   4.672  1.2697 -0.3611  3.5305
  187POPC  H17S21499   1.867   0.773   4.646  0.1775  0.2999 -0.4203
  187POPC  C21821500   1.929   0.799   4.846  0.2345 -0.3120 -0.5178
  187POPC  H18R21501   1.938   0.876   4.926 -1.2618 -0.9491  0.2853
  187POPC  H18S21502   2.030   0.753   4.850  0.4249  0.1857  0.9029
  187POPC  H18T21503   1.865   0.712   4.870  0.1408 -0.3856 -1.0118
  187POPC   C3321504   1.968   1.256   3.005 -0.2303  0.2487 -0.0776
  187POPC   H3X21505   1.974   1.341   2.933  0.3399 -0.8329 -1.3344
  187POPC   H3Y21506   2.028   1.177   2.956  0.6181  0.8888 -0.1007
  187POPC   C3421507   2.031   1.295   3.144  0.1431 -0.2696 -0.5636
  187POPC   H4X21508   1.977   1.380   3.190 -1.5079 -1.3200 -0.4696
  187POPC   H4Y21509   2.127   1.339   3.110 -0.6245  0.6338 -1.6186
  187POPC   C3521510   2.052   1.171   3.232  0.3459 -0.3141 -0.2890
  187POPC   H5X21511   2.157   1.155   3.262 -0.3106 -4.0113  0.5978
  187POPC   H5Y21512   2.033   1.084   3.165  0.6684 -0.0940 -0.6714
  187POPC   C3621513   1.956   1.171   3.358 -0.1942  0.3846 -0.7401
  187POPC   H6X21514   1.954   1.068   3.399  1.7021  0.6835  0.1811
  187POPC   H6Y21515   1.852   1.197   3.327 -0.9217 -2.6948 -1.3062
  187POPC   C3721516   1.991   1.261   3.476 -0.1958 -0.1822 -0.7649
  187POPC   H7X21517   1.984   1.368   3.445  0.9923 -0.5502 -2.4198
  187POPC   H7Y21518   2.100   1.248   3.487  0.1915  1.6206 -2.0768
  187POPC   C3821519   1.904   1.244   3.599  0.2684  0.5501  0.3885
  187POPC   H8X21520   1.898   1.136   3.624  0.2805  0.2110 -1.0157
  187POPC   H8Y21521   1.806   1.284   3.566  0.5405 -0.2041 -1.4617
  187POPC   C3921522   1.962   1.324   3.717  0.1926  0.4793  0.0405
  187POPC   H9X21523   1.961   1.432   3.689 -1.6522  0.1274 -1.4603
  187POPC   H9Y21524   2.070   1.300   3.723  0.5297  1.9340  0.2666
  187POPC  C31021525   1.888   1.287   3.856 -0.0981 -0.0222 -0.9525
  187POPC  H10X21526   1.921   1.187   3.893 -0.1651 -0.3410 -1.7487
  187POPC  H10Y21527   1.779   1.280   3.838  0.0932 -0.0505 -2.1561
  187POPC  C31121528   1.921   1.386   3.967  0.0414 -0.0873 -0.4480
  187POPC  H11X21529   1.937   1.487   3.923  0.5457 -0.8746 -2.1638
  187POPC  H11Y21530   2.010   1.357   4.026 -0.9240 -0.8795  0.6724
  187POPC  C31221531   1.808   1.386   4.071 -0.0919 -1.0047 -0.8022
  187POPC  H12X21532   1.784   1.281   4.098  0.8019 -1.2159 -0.7993
  187POPC  H12Y21533   1.718   1.431   4.024 -2.1324 -2.0448  1.8381
  187POPC  C31321534   1.849   1.460   4.196  0.1159 -0.5016 -0.0780
  187POPC  H13X21535   1.934   1.406   4.243 -0.1242  1.2845  2.6426
  187POPC  H13Y21536   1.763   1.444   4.264 -0.2876  2.0669  0.1295
  187POPC  C31421537   1.870   1.609   4.168 -0.2936  0.2175  0.5236
  187POPC  H14X21538   1.778   1.643   4.115  1.4271  2.9169 -0.9290
  187POPC  H14Y21539   1.956   1.631   4.101  0.0760 -0.0402  0.9090
  187POPC  C31521540   1.894   1.699   4.285 -0.5188  0.9167 -0.4765
  187POPC  H15X21541   1.987   1.671   4.338 -2.1683 -1.5422  1.2898
  187POPC  H15Y21542   1.815   1.681   4.361 -0.3437  0.3206 -0.4339
  187POPC  C31621543   1.886   1.844   4.250 -0.1036 -0.0357  0.2340
  187POPC  H16X21544   1.946   1.860   4.159 -0.3101  1.1583  0.2862
  187POPC  H16Y21545   1.930   1.898   4.337  0.0537 -1.7321  1.2511
  187POPC  H16Z21546   1.777   1.866   4.243 -0.0876 -0.5831 -2.4334
  188POPC     N21547   6.611   0.596   2.930 -0.6574  0.5098  0.4058
  188POPC   C1221548   6.498   0.588   2.825  0.2316 -0.5352  0.4498
  188POPC  H12A21549   6.522   0.510   2.753 -1.6963 -0.9727  0.1997
  188POPC  H12B21550   6.495   0.682   2.773  0.5004 -0.8288 -0.1173
  188POPC   C1321551   6.636   0.733   2.991 -0.6057  0.1121 -0.6576
  188POPC  H13A21552   6.663   0.809   2.920 -1.8019 -0.2348 -1.5239
  188POPC  H13B21553   6.544   0.766   3.038  0.3408  1.2712  0.4314
  188POPC  H13C21554   6.706   0.732   3.073  0.5363  2.7369 -1.5064
  188POPC   C1421555   6.602   0.502   3.044 -0.0628 -0.3676 -0.5927
  188POPC  H14A21556   6.556   0.409   3.013 -2.4668  1.2245 -2.1273
  188POPC  H14B21557   6.696   0.481   3.093  0.2254  0.5552 -0.7314
  188POPC  H14C21558   6.531   0.535   3.118 -0.5916  1.1353 -1.7245
  188POPC   C1521559   6.740   0.563   2.859  0.5215 -1.1469 -0.4459
  188POPC  H15A21560   6.746   0.468   2.806  0.4483 -2.2008  1.3713
  188POPC  H15B21561   6.829   0.590   2.913  0.9426  0.4706 -1.8477
  188POPC  H15C21562   6.741   0.632   2.776 -1.0749 -1.1384 -0.4835
  188POPC   C1121563   6.356   0.572   2.883  0.4575  0.8705 -0.5721
  188POPC  H11A21564   6.359   0.484   2.950  1.3067  0.0928 -1.5894
  188POPC  H11B21565   6.288   0.555   2.797  0.3119 -1.7526 -0.0330
  188POPC     P21566   6.259   0.696   3.095  0.5788 -0.1389 -0.1310
  188POPC   O1321567   6.138   0.602   3.105 -0.4186 -0.4094 -0.0367
  188POPC   O1421568   6.233   0.836   3.118  0.0547  0.2681 -0.0535
  188POPC   O1221569   6.315   0.688   2.950  0.2320  0.1290  0.1564
  188POPC   O1121570   6.373   0.655   3.196 -0.5014  0.5009 -0.1961
  188POPC    C121571   6.362   0.537   3.274 -0.1959 -0.0175 -0.4623
  188POPC    HA21572   6.375   0.444   3.215  1.9964  0.9537 -1.6495
  188POPC    HB21573   6.263   0.536   3.322  0.5358 -0.9918  1.1010
  188POPC    C221574   6.471   0.532   3.388  0.4443 -0.1533  0.0962
  188POPC    HS21575   6.458   0.633   3.433 -2.3313 -1.2526  2.0317
  188POPC   O2121576   6.595   0.498   3.335 -0.2407  0.1014  0.0172
  188POPC   C2121577   6.695   0.571   3.382  0.0582 -0.3306 -0.1625
  188POPC   O2221578   6.688   0.660   3.460  0.4506  0.0264 -0.5012
  188POPC   C2221579   6.828   0.526   3.324  0.2049 -0.3181  0.3761
  188POPC   H2R21580   6.912   0.595   3.346  0.6157 -0.3134 -1.0930
  188POPC   H2S21581   6.829   0.537   3.213  0.2479 -3.0026  0.0429
  188POPC    C321582   6.437   0.435   3.500 -0.2422  0.2718 -0.2835
  188POPC    HX21583   6.456   0.333   3.460 -0.7138  0.4003 -0.8439
  188POPC    HY21584   6.327   0.445   3.511 -0.0648  3.5753 -0.6045
  188POPC   O3121585   6.518   0.466   3.613 -0.3733  0.1075 -0.2378
  188POPC   C3121586   6.458   0.549   3.694 -0.1938 -0.3581  0.0502
  188POPC   O3221587   6.347   0.594   3.678 -0.4136 -0.1140  0.2315
  188POPC   C3221588   6.555   0.587   3.814  0.3020  0.3111  1.1557
  188POPC   H2X21589   6.639   0.645   3.769 -1.1386  1.1371 -0.6424
  188POPC   H2Y21590   6.595   0.499   3.868 -2.5605 -1.6610  0.3206
  188POPC   C2321591   6.858   0.380   3.366 -0.3896  0.5398 -1.1205
  188POPC   H3R21592   6.930   0.334   3.295  0.3738  2.3494 -1.5916
  188POPC   H3S21593   6.770   0.314   3.351 -0.0662  0.3650 -2.3383
  188POPC   C2421594   6.909   0.376   3.508  0.1203 -0.2963 -1.0595
  188POPC   H4R21595   6.820   0.400   3.570  0.5254  0.1015 -0.6311
  188POPC   H4S21596   6.994   0.446   3.521 -1.3283  1.1471  1.5552
  188POPC   C2521597   6.950   0.229   3.552 -0.1393 -1.1579  0.0150
  188POPC   H5R21598   7.032   0.198   3.484 -0.6409 -1.3250 -0.5339
  188POPC   H5S21599   6.864   0.165   3.520  0.2861 -1.2420 -0.9914
  188POPC   C2621600   6.969   0.231   3.700 -0.2995  0.4728 -0.2787
  188POPC   H6R21601   7.003   0.331   3.737 -0.4272 -0.3383  2.2428
  188POPC   H6S21602   7.044   0.154   3.729 -0.3725  0.5174  0.0300
  188POPC   C2721603   6.846   0.189   3.786  0.6588 -0.2656 -0.7152
  188POPC   H7R21604   6.821   0.082   3.774  2.0079 -0.7902  0.8226
  188POPC   H7S21605   6.766   0.256   3.746 -0.1552  0.4499  1.9055
  188POPC   C2821606   6.858   0.218   3.939  0.3728  0.4862 -0.1249
  188POPC   H8R21607   6.888   0.325   3.945 -2.2585  1.2710  0.4319
  188POPC   H8S21608   6.943   0.156   3.975  0.4706  0.4357 -0.4337
  188POPC   C2921609   6.736   0.206   4.024  0.2365 -0.2359  0.9632
  188POPC   H9121610   6.678   0.112   4.019  1.5480 -1.0195 -0.9611
  188POPC  C21021611   6.681   0.289   4.112 -0.4339  0.1670 -0.9740
  188POPC  H10121612   6.599   0.256   4.178  1.9572 -0.5569  1.8473
  188POPC  C21121613   6.753   0.412   4.152 -0.1777  0.2876  0.9815
  188POPC  H11R21614   6.728   0.503   4.095 -0.2824  2.0813  3.6829
  188POPC  H11S21615   6.863   0.405   4.136 -0.1379  2.6314 -0.0957
  188POPC  C21221616   6.749   0.438   4.297 -1.4897 -0.2592  0.0854
  188POPC  H12R21617   6.834   0.509   4.314 -0.6139 -1.4818  0.9751
  188POPC  H12S21618   6.765   0.344   4.353  2.2803  0.2426  0.1509
  188POPC  C21321619   6.634   0.521   4.347  0.7112  0.3361  0.8233
  188POPC  H13R21620   6.545   0.454   4.345 -0.3476  1.7251  0.5448
  188POPC  H13S21621   6.611   0.597   4.270 -0.1378 -0.6170  0.1057
  188POPC  C21421622   6.658   0.589   4.476  0.0018  0.1063 -0.4091
  188POPC  H14R21623   6.735   0.669   4.470 -2.8287  3.1342  0.7070
  188POPC  H14S21624   6.695   0.510   4.545 -1.9472 -0.5926 -0.0987
  188POPC  C21521625   6.536   0.660   4.541 -0.6332 -0.4891 -0.9266
  188POPC  H15R21626   6.455   0.585   4.552 -0.5544 -1.5244 -5.3833
  188POPC  H15S21627   6.502   0.741   4.472  0.4226  0.5436 -0.2757
  188POPC  C21621628   6.561   0.720   4.682 -0.0971 -0.7618  0.3681
  188POPC  H16R21629   6.617   0.813   4.660 -0.1915 -1.0732 -1.3454
  188POPC  H16S21630   6.613   0.646   4.747  1.4821 -2.0102 -2.1272
  188POPC  C21721631   6.438   0.755   4.761 -0.0183 -0.2824 -0.3675
  188POPC  H17R21632   6.378   0.661   4.761  0.0748 -0.3429 -0.8283
  188POPC  H17S21633   6.384   0.836   4.708  0.8243  1.6994  1.6186
  188POPC  C21821634   6.455   0.801   4.908 -0.1683  0.4628  0.6738
  188POPC  H18R21635   6.537   0.876   4.915 -0.2159  0.4071  2.4022
  188POPC  H18S21636   6.488   0.714   4.969  0.7234 -0.4771 -1.0981
  188POPC  H18T21637   6.367   0.844   4.961  0.5263  1.9950  0.6507
  188POPC   C3321638   6.487   0.689   3.909 -0.3778 -0.3777 -0.1071
  188POPC   H3X21639   6.444   0.773   3.851  0.8159 -0.8026 -1.6717
  188POPC   H3Y21640   6.575   0.726   3.966  1.3271 -3.4347 -0.5810
  188POPC   C3421641   6.391   0.626   4.014 -0.1898  0.7440  0.3852
  188POPC   H4X21642   6.441   0.537   4.056  2.6554  1.3255 -1.4634
  188POPC   H4Y21643   6.307   0.591   3.950  0.2657  1.3952 -0.6159
  188POPC   C3521644   6.358   0.729   4.122 -0.0164  0.1105  0.6085
  188POPC   H5X21645   6.305   0.812   4.071  0.3476 -0.3921 -0.6256
  188POPC   H5Y21646   6.460   0.754   4.158  0.7939 -0.6871 -1.0145
  188POPC   C3621647   6.270   0.687   4.245  0.0252 -0.2695  0.0444
  188POPC   H6X21648   6.283   0.765   4.323  0.1835 -0.7783  0.5298
  188POPC   H6Y21649   6.302   0.591   4.291 -0.5115 -0.4922 -0.0404
  188POPC   C3721650   6.123   0.668   4.209 -0.2135  0.4966 -1.0583
  188POPC   H7X21651   6.128   0.613   4.113  1.2048  0.3673 -0.9442
  188POPC   H7Y21652   6.081   0.767   4.184  1.5198  1.7454  0.6515
  188POPC   C3821653   6.027   0.596   4.302 -0.5427  0.2811 -0.5051
  188POPC   H8X21654   6.086   0.524   4.362 -0.5065  0.6207 -0.1231
  188POPC   H8Y21655   5.944   0.548   4.246 -2.8602  3.0795  0.2598
  188POPC   C3921656   5.970   0.706   4.400  0.3982  0.1964 -0.3137
  188POPC   H9X21657   5.935   0.795   4.343  1.2894 -0.6690 -2.3019
  188POPC   H9Y21658   6.046   0.737   4.475 -0.2708  1.2842 -0.0565
  188POPC  C31021659   5.842   0.661   4.477 -0.0420 -1.1654  0.7600
  188POPC  H10X21660   5.863   0.563   4.524 -0.5307 -2.0637 -0.8231
  188POPC  H10Y21661   5.763   0.642   4.401  0.0664  0.4284  0.2158
  188POPC  C31121662   5.798   0.761   4.574  0.4684  0.3439 -0.2038
  188POPC  H11X21663   5.793   0.859   4.523  2.2979 -1.3949 -4.1155
  188POPC  H11Y21664   5.866   0.776   4.661 -0.9770 -0.0508  1.0298
  188POPC  C31221665   5.659   0.721   4.627  0.2356 -0.0134  0.0854
  188POPC  H12X21666   5.659   0.621   4.675  2.3617  0.5536  1.4047
  188POPC  H12Y21667   5.579   0.723   4.550 -0.9966  1.2826  1.3105
  188POPC  C31321668   5.620   0.819   4.735  0.2750 -0.0623 -0.0528
  188POPC  H13X21669   5.513   0.839   4.711  0.6393  1.6226 -0.4420
  188POPC  H13Y21670   5.673   0.915   4.715 -0.0127  0.1846  0.3251
  188POPC  C31421671   5.632   0.761   4.883 -0.7538 -0.1204 -0.2767
  188POPC  H14X21672   5.737   0.725   4.890  0.0807  2.0047 -0.9998
  188POPC  H14Y21673   5.568   0.670   4.887  0.5607 -1.0330  2.4535
  188POPC  C31521674   5.593   0.847   4.998  0.2950 -0.7707 -0.2982
  188POPC  H15X21675   5.629   0.801   5.093  1.0037  1.1229  0.4008
  188POPC  H15Y21676   5.483   0.860   5.008  0.2107 -0.1788 -1.8050
  188POPC  C31621677   5.663   0.986   4.993  0.3622 -0.1325 -0.2420
  188POPC  H16X21678   5.644   1.037   5.090 -1.6563  0.6558 -1.0087
  188POPC  H16Y21679   5.638   1.039   4.899  0.5122 -0.6917 -0.6014
  188POPC  H16Z21680   5.773   0.971   4.987  0.3780 -0.1114 -0.0165
  189SAPI   C1221681   1.542   0.593   6.971  0.0533 -0.4479 -0.0842
  189SAPI    H221682   1.514   0.555   6.871  0.4104  1.3197 -0.9029
  189SAPI    O221683   1.664   0.532   7.003  0.4716  0.2551  0.3227
  189SAPI   HO221684   1.713   0.513   6.922 -1.1738 -1.3519 -0.3665
  189SAPI   C1321685   1.558   0.742   6.955  0.8628  0.0769  0.3090
  189SAPI    H321686   1.462   0.775   6.909  0.8629 -0.4532 -0.0820
  189SAPI    O321687   1.653   0.779   6.863  0.4604  0.6645  0.0436
  189SAPI   HO321688   1.616   0.837   6.796  0.9615 -1.1578 -1.9293
  189SAPI   C1421689   1.580   0.803   7.091  0.4302 -0.3074  0.0481
  189SAPI    H421690   1.687   0.785   7.115  1.3790  0.7157 -2.9437
  189SAPI    O421691   1.569   0.946   7.089 -0.0218  0.4571 -0.4695
  189SAPI   HO421692   1.475   0.962   7.097 -0.0137 -0.1271  1.2270
  189SAPI   C1521693   1.505   0.747   7.215  0.2052 -0.3010 -0.1431
  189SAPI    H521694   1.405   0.795   7.211  0.1952 -0.2450  0.7696
  189SAPI    O521695   1.580   0.764   7.340  0.0670 -0.2304 -0.6993
  189SAPI   HO521696   1.673   0.739   7.337 -0.0510 -1.3558  2.2201
  189SAPI   C1621697   1.469   0.599   7.206 -0.2963  0.3737  0.6636
  189SAPI    H621698   1.560   0.541   7.231  0.1819  1.0666  0.5755
  189SAPI    O621699   1.359   0.561   7.294 -0.5715  0.2689 -0.0517
  189SAPI   HO621700   1.350   0.465   7.293 -0.5454  0.2657  0.0802
  189SAPI   C1121701   1.436   0.550   7.075 -0.6458 -0.0337  0.8948
  189SAPI    H121702   1.342   0.602   7.048 -0.1705  0.6757  0.5780
  189SAPI     P21703   1.318   0.338   6.947 -0.2081 -0.0375  0.1838
  189SAPI   O1321704   1.206   0.428   6.918  0.3446 -0.6662  0.0301
  189SAPI   O1421705   1.289   0.194   6.986  0.0252 -0.6601 -0.1246
  189SAPI   O1221706   1.408   0.411   7.068 -0.7323  0.2414 -0.2527
  189SAPI   O1121707   1.421   0.336   6.826 -0.3373 -0.3985 -0.3374
  189SAPI    C121708   1.411   0.222   6.736 -0.0741  0.2450  0.2770
  189SAPI    HA21709   1.424   0.124   6.786 -0.4156 -0.5810 -1.1851
  189SAPI    HB21710   1.310   0.227   6.689 -0.0942  1.6204  0.4339
  189SAPI    C221711   1.519   0.223   6.619  0.4981 -0.1669 -0.5014
  189SAPI    HS21712   1.618   0.205   6.668  0.1790 -3.1301 -0.7215
  189SAPI   O2121713   1.509   0.345   6.541 -0.6941 -0.7130  0.8575
  189SAPI   C2121714   1.625   0.395   6.502  0.0272 -0.1363  0.0446
  189SAPI   O2221715   1.730   0.337   6.501 -0.0314  0.1850 -0.3678
  189SAPI   C2221716   1.605   0.538   6.469  0.0587  0.1339  0.4445
  189SAPI   H2R21717   1.531   0.587   6.535  0.2234  0.8797  0.0915
  189SAPI   H2S21718   1.698   0.598   6.474 -0.7231  1.8293 -2.4958
  189SAPI    C321719   1.488   0.107   6.528 -0.7175 -0.5200 -0.7283
  189SAPI    HX21720   1.383   0.112   6.493 -1.1053 -0.8933  0.3464
  189SAPI    HY21721   1.503   0.007   6.576  1.8416  0.0858 -0.1484
  189SAPI   O3121722   1.571   0.099   6.413  0.7855 -0.0919  0.0941
  189SAPI   C3121723   1.683   0.033   6.403  0.6383 -0.0495  0.0848
  189SAPI   O3221724   1.738  -0.034   6.492  0.2491  0.1338  0.3692
  189SAPI   C3221725   1.741   0.056   6.254  0.8032 -0.0097 -0.4261
  189SAPI   H2X21726   1.733  -0.048   6.215 -0.3568 -0.8589  1.9002
  189SAPI   H2Y21727   1.849   0.080   6.245  1.1473 -1.6231 -1.0801
  189SAPI   C2321728   1.555   0.561   6.323  0.8699  0.4155  0.2969
  189SAPI   H3R21729   1.463   0.500   6.324  0.5809  0.8517  1.7698
  189SAPI   H3S21730   1.622   0.515   6.247 -1.0353 -0.8296 -0.7135
  189SAPI   C2421731   1.510   0.704   6.298 -0.4951 -0.7805 -0.2993
  189SAPI   H4R21732   1.472   0.747   6.393  3.2170 -1.3020  1.6220
  189SAPI   H4S21733   1.432   0.719   6.221 -1.9639  1.2830  1.4644
  189SAPI   C2521734   1.634   0.782   6.262  0.2848  0.0880 -0.0510
  189SAPI   H5R21735   1.699   0.790   6.351  0.4435 -1.2591 -0.0286
  189SAPI   C2621736   1.658   0.848   6.149  0.2735 -0.1822  0.1059
  189SAPI   H6R21737   1.752   0.901   6.132 -0.2466  0.5651 -0.5032
  189SAPI   C2721738   1.574   0.839   6.027 -0.2460  0.0797  0.4095
  189SAPI   H7R21739   1.472   0.882   6.035 -0.4850 -0.6472  1.5156
  189SAPI   H7S21740   1.559   0.732   6.004  2.9153 -1.0079  2.7529
  189SAPI   C2821741   1.639   0.886   5.902  0.0915 -0.3748  0.1899
  189SAPI   H8R21742   1.685   0.985   5.917  0.4553 -0.4998 -0.1020
  189SAPI   C2921743   1.645   0.833   5.778 -1.0365 -0.2216 -0.9621
  189SAPI   H9R21744   1.675   0.900   5.697  2.2151 -0.3666 -0.0113
  189SAPI  C21021745   1.587   0.702   5.729 -0.4491  0.9332  0.3778
  189SAPI  H10R21746   1.528   0.647   5.805  0.0080  1.1137  0.8669
  189SAPI  H10S21747   1.674   0.635   5.709 -2.2492 -1.5092  0.2221
  189SAPI  C21121748   1.502   0.720   5.600 -0.6543 -0.6521  0.0720
  189SAPI  H11R21749   1.430   0.802   5.613  0.0498  0.3314 -1.9011
  189SAPI  C21221750   1.504   0.648   5.484 -0.0487 -0.6465  0.1044
  189SAPI  H12R21751   1.429   0.674   5.408 -0.3289  0.4385  0.7273
  189SAPI  C21321752   1.586   0.524   5.469 -0.0102  0.0516  0.0733
  189SAPI  H13R21753   1.528   0.449   5.410 -0.3647 -1.0891  1.7984
  189SAPI  H13S21754   1.593   0.462   5.561 -2.8910  1.1532  1.1281
  189SAPI  C21421755   1.722   0.527   5.408 -0.2323 -0.3243 -1.0150
  189SAPI  H14R21756   1.797   0.565   5.479 -0.4303  1.4777 -1.7307
  189SAPI  C21521757   1.761   0.521   5.275  0.1795 -0.5248  0.0441
  189SAPI  H15R21758   1.868   0.529   5.250 -0.0371 -0.4425 -0.9244
  189SAPI  C21621759   1.664   0.530   5.152 -0.5097 -0.4257  0.2523
  189SAPI  H16R21760   1.564   0.489   5.179  1.0940 -3.0723  2.6901
  189SAPI  H16S21761   1.706   0.459   5.078 -0.4572  0.2392 -0.3597
  189SAPI  C21721762   1.641   0.663   5.079  0.5689 -1.1321 -0.0534
  189SAPI  H17R21763   1.572   0.646   4.994  0.8436  1.7053 -0.9593
  189SAPI  H17S21764   1.738   0.699   5.038  0.6016  2.5335  2.6921
  189SAPI  C21821765   1.567   0.770   5.157 -0.1014  0.0840 -0.1391
  189SAPI  H18R21766   1.635   0.795   5.242 -0.8256 -1.5305  0.9788
  189SAPI  H18S21767   1.467   0.742   5.195 -0.2743  0.6448 -0.1726
  189SAPI  C21921768   1.540   0.892   5.075  0.3562 -0.9183 -0.0444
  189SAPI  H19R21769   1.501   0.867   4.975  2.6273  0.8597 -1.4891
  189SAPI  H19S21770   1.639   0.940   5.058  0.3173 -0.0479  1.9030
  189SAPI  C22021771   1.455   0.995   5.149  0.1359 -0.0858  0.1325
  189SAPI  H20R21772   1.469   0.988   5.259  1.9577 -0.9535 -0.1232
  189SAPI  H20S21773   1.349   0.960   5.144 -0.2213  0.7789  1.3790
  189SAPI  H20T21774   1.459   1.095   5.102 -0.7794  0.1034  0.4447
  189SAPI   C3321775   1.661   0.149   6.163 -0.5525  0.0881  0.5139
  189SAPI   H3X21776   1.658   0.258   6.186 -0.9963  0.5865 -1.6205
  189SAPI   H3Y21777   1.553   0.124   6.156 -0.2288 -1.0337 -1.2257
  189SAPI   C3421778   1.701   0.136   6.020  0.1679  0.2589  0.3567
  189SAPI   H4X21779   1.715   0.028   5.999  0.1956 -0.0207  1.7238
  189SAPI   H4Y21780   1.796   0.184   5.989  0.1362 -0.0007 -0.1502
  189SAPI   C3521781   1.592   0.185   5.930  0.0859  0.2481  0.4419
  189SAPI   H5X21782   1.549   0.275   5.979 -2.0250 -0.8180  0.6608
  189SAPI   H5Y21783   1.507   0.114   5.933  0.0343  0.3298  1.2409
  189SAPI   C3621784   1.638   0.226   5.795 -1.1397  0.1083  0.3628
  189SAPI   H6X21785   1.727   0.292   5.807 -1.0109  0.0138 -0.0555
  189SAPI   H6Y21786   1.561   0.283   5.739 -1.1125 -1.5184 -1.4767
  189SAPI   C3721787   1.672   0.106   5.696 -0.7689  0.3147 -0.2159
  189SAPI   H7X21788   1.579   0.051   5.672  0.4495 -1.2437 -1.6338
  189SAPI   H7Y21789   1.754   0.045   5.740  0.4517 -0.4689 -3.3288
  189SAPI   C3821790   1.739   0.171   5.564 -0.4155 -0.3179  0.6887
  189SAPI   H8X21791   1.830   0.232   5.582 -1.1687  0.6583  1.3037
  189SAPI   H8Y21792   1.670   0.252   5.532 -2.2621 -1.8189  0.7111
  189SAPI   C3921793   1.744   0.072   5.455  0.4074 -0.0761 -0.1762
  189SAPI   H9X21794   1.655   0.006   5.445 -0.2655  0.8222 -0.2033
  189SAPI   H9Y21795   1.831   0.009   5.484  0.3429 -0.9521 -1.7973
  189SAPI  C31021796   1.761   0.142   5.319 -0.0193  1.0303  0.6914
  189SAPI  H10X21797   1.832   0.225   5.298  0.4055 -0.1911 -3.7740
  189SAPI  H10Y21798   1.665   0.189   5.286  0.3441 -0.4526 -2.9464
  189SAPI  C31121799   1.785   0.031   5.216 -0.4913  0.2575 -0.5583
  189SAPI  H11X21800   1.796   0.078   5.116  0.4114  1.0903 -0.0865
  189SAPI  H11Y21801   1.691  -0.028   5.219 -1.2313  1.4336  0.7522
  189SAPI  C31221802   1.915  -0.054   5.216  0.6953 -0.0296 -0.3713
  189SAPI  H12X21803   1.910  -0.119   5.306 -1.1643 -1.3945 -1.3992
  189SAPI  H12Y21804   2.003   0.013   5.226  1.1650 -0.6612 -0.2341
  189SAPI  C31321805   1.926  -0.155   5.100  0.4351 -0.8850  0.0373
  189SAPI  H13X21806   2.018  -0.215   5.116  1.2555  0.4570  0.4765
  189SAPI  H13Y21807   1.932  -0.094   5.007  1.0977 -1.5317 -0.3504
  189SAPI  C31421808   1.806  -0.247   5.097  0.2838  0.2590 -0.4179
  189SAPI  H14X21809   1.711  -0.195   5.074  0.0736  0.7545  1.4301
  189SAPI  H14Y21810   1.793  -0.289   5.199 -0.0208  0.2470 -0.4623
  189SAPI  C31521811   1.807  -0.365   4.993  0.0006 -0.5078  0.5103
  189SAPI  H15X21812   1.719  -0.425   5.022 -0.5965  1.0739  2.1620
  189SAPI  H15Y21813   1.890  -0.433   5.021 -0.1731 -0.3297  1.4703
  189SAPI  C31621814   1.807  -0.314   4.841  0.0532  0.4366  0.6048
  189SAPI  H16X21815   1.895  -0.250   4.816 -1.8630  3.9840  2.2976
  189SAPI  H16Y21816   1.718  -0.253   4.816 -1.5322 -2.2121 -0.6983
  189SAPI  C31721817   1.795  -0.435   4.742  0.4024  0.5378  0.1850
  189SAPI  H17X21818   1.708  -0.499   4.768  1.4744 -0.7048  0.8815
  189SAPI  H17Y21819   1.886  -0.496   4.760 -0.4479 -1.5241 -2.0059
  189SAPI  C31821820   1.783  -0.410   4.596 -0.4505 -0.3417  0.9340
  189SAPI  H18X21821   1.864  -0.353   4.548 -0.9357 -0.5176 -0.1121
  189SAPI  H18Y21822   1.695  -0.348   4.568  1.3308  1.7315 -0.3483
  189SAPI  H18Z21823   1.792  -0.506   4.542  1.8589 -0.0744  0.7426
  190SAPI   C1221824   2.654   5.062   7.423  0.1356 -0.6273 -0.1154
  190SAPI    H221825   2.760   5.038   7.445  0.5535 -0.2445 -1.5692
  190SAPI    O221826   2.570   4.991   7.507 -0.3043 -0.0593 -0.9014
  190SAPI   HO221827   2.577   4.906   7.463  2.0729  1.2086 -3.2643
  190SAPI   C1321828   2.627   5.214   7.441  0.7372  0.0456  0.4291
  190SAPI    H321829   2.681   5.281   7.371 -0.3424  3.0430  2.2744
  190SAPI    O321830   2.678   5.252   7.567  0.1096  0.1060  0.4453
  190SAPI   HO321831   2.692   5.347   7.564  1.5738 -0.0684  0.9162
  190SAPI   C1421832   2.482   5.253   7.412  0.9579 -0.3988 -0.0016
  190SAPI    H421833   2.427   5.203   7.495 -0.6700 -0.3572 -1.0090
  190SAPI    O421834   2.462   5.397   7.436 -0.1743 -0.1444 -0.1385
  190SAPI   HO421835   2.387   5.408   7.495  1.0881  0.4360  1.4298
  190SAPI   C1521836   2.427   5.209   7.279 -0.2756  0.9583  0.2383
  190SAPI    H521837   2.459   5.282   7.202  0.9458  1.2757  1.0316
  190SAPI    O521838   2.282   5.214   7.282 -0.3072  0.9337 -0.0218
  190SAPI   HO521839   2.267   5.212   7.187  1.2176 -1.2744 -0.3020
  190SAPI   C1621840   2.484   5.073   7.232 -0.0817 -0.6056  0.2225
  190SAPI    H621841   2.417   4.995   7.274 -2.4338  0.3300 -1.5114
  190SAPI    O621842   2.469   5.065   7.090  0.0788  0.0350 -0.2673
  190SAPI   HO621843   2.539   5.110   7.043  0.3073 -0.3456 -0.2951
  190SAPI   C1121844   2.625   5.030   7.279  0.2664  0.3419  0.5937
  190SAPI    H121845   2.693   5.089   7.214 -1.0895  0.1107 -1.1029
  190SAPI     P21846   2.792   4.828   7.213 -0.1916 -0.1692 -0.1139
  190SAPI   O1321847   2.782   4.680   7.219  0.2844 -0.4029 -0.5695
  190SAPI   O1421848   2.896   4.901   7.289 -0.2320 -0.0196 -0.1565
  190SAPI   O1221849   2.648   4.890   7.256  0.1090  0.0572 -0.6817
  190SAPI   O1121850   2.796   4.873   7.060 -0.5260 -0.6094  0.3685
  190SAPI    C121851   2.683   4.849   6.972  0.0694 -0.0108 -0.3436
  190SAPI    HA21852   2.587   4.831   7.024  0.0779 -0.3896 -0.4554
  190SAPI    HB21853   2.666   4.944   6.918 -0.1607  0.2616  0.2081
  190SAPI    C221854   2.700   4.725   6.880 -0.1694  0.0025 -0.3316
  190SAPI    HS21855   2.713   4.636   6.945  0.9885 -0.2197 -0.8475
  190SAPI   O2121856   2.821   4.734   6.804  0.3434 -0.6250  0.0418
  190SAPI   C2121857   2.864   4.619   6.738  0.4762 -0.3755 -0.1415
  190SAPI   O2221858   2.812   4.509   6.736  0.1880  0.1622  0.3161
  190SAPI   C2221859   3.001   4.638   6.682  0.2789  0.6314  0.4908
  190SAPI   H2R21860   3.016   4.747   6.671  1.3305  0.5559  1.0611
  190SAPI   H2S21861   3.081   4.600   6.748  0.0934 -1.0070 -0.1497
  190SAPI    C321862   2.577   4.687   6.792 -0.4366 -0.3979  0.6005
  190SAPI    HX21863   2.492   4.691   6.864 -2.2779 -0.7470 -1.4542
  190SAPI    HY21864   2.592   4.584   6.753  3.4181 -0.1268  0.9620
  190SAPI   O3121865   2.558   4.778   6.680  0.7552 -0.8964 -0.1534
  190SAPI   C3121866   2.431   4.795   6.640 -0.8938 -0.6948 -0.2239
  190SAPI   O3221867   2.334   4.748   6.693 -0.5039  0.2616  0.9323
  190SAPI   C3221868   2.441   4.887   6.513 -0.1920  0.0886 -0.6612
  190SAPI   H2X21869   2.540   4.866   6.467  1.4475  2.0400  1.7480
  190SAPI   H2Y21870   2.437   4.995   6.538 -0.5945  0.6066 -2.7061
  190SAPI   C2321871   3.019   4.544   6.554 -0.3196  0.1835  0.3561
  190SAPI   H3R21872   2.950   4.561   6.468 -1.1028  0.9279  1.1131
  190SAPI   H3S21873   2.997   4.438   6.577  1.9357 -0.9924 -2.3068
  190SAPI   C2421874   3.160   4.560   6.508 -0.0973  0.0420 -0.3440
  190SAPI   H4R21875   3.226   4.565   6.597 -0.9575  0.1223  0.3018
  190SAPI   H4S21876   3.162   4.657   6.453  0.7135  1.6318  2.3154
  190SAPI   C2521877   3.204   4.443   6.433 -0.1802  0.1094  0.3319
  190SAPI   H5R21878   3.257   4.362   6.484  0.3004 -0.7226 -1.4126
  190SAPI   C2621879   3.200   4.431   6.302 -0.7024 -0.3918  0.1685
  190SAPI   H6R21880   3.223   4.330   6.265 -1.2860 -0.2519 -0.5943
  190SAPI   C2721881   3.151   4.532   6.201 -0.3864 -0.6864  0.3566
  190SAPI   H7R21882   3.171   4.636   6.234 -0.5271 -0.4150 -0.3949
  190SAPI   H7S21883   3.040   4.522   6.199 -0.4034 -0.4570 -1.4090
  190SAPI   C2821884   3.204   4.520   6.059  0.5300  0.1572 -0.1292
  190SAPI   H8R21885   3.300   4.569   6.038  0.3310  0.2292 -0.9187
  190SAPI   C2921886   3.131   4.466   5.957 -0.8503  0.4891 -0.0888
  190SAPI   H9R21887   3.177   4.467   5.857  0.7028  1.7508  0.6079
  190SAPI  C21021888   3.008   4.380   5.976  0.1399  0.0883 -0.1646
  190SAPI  H10R21889   2.930   4.429   5.913 -0.1216 -0.7678 -0.5169
  190SAPI  H10S21890   2.976   4.363   6.081 -0.4990 -1.2299 -0.5572
  190SAPI  C21121891   3.036   4.241   5.930 -0.2112  0.0097  0.1064
  190SAPI  H11R21892   3.140   4.213   5.907 -0.1305  0.8938 -0.6617
  190SAPI  C21221893   2.937   4.159   5.886  0.9820  0.4624  0.5577
  190SAPI  H12R21894   2.967   4.064   5.839 -0.9579 -0.2756  0.7183
  190SAPI  C21321895   2.783   4.170   5.888  0.5509  0.2042 -0.0258
  190SAPI  H13R21896   2.740   4.253   5.829 -3.2716  0.6015  3.0089
  190SAPI  H13S21897   2.743   4.187   5.990  2.1136 -0.8533  0.8106
  190SAPI  C21421898   2.728   4.040   5.826  0.2283  0.3754 -0.4621
  190SAPI  H14R21899   2.728   3.950   5.889  1.2030  0.3202 -0.5298
  190SAPI  C21521900   2.704   4.021   5.692  0.3614  0.3940 -0.3088
  190SAPI  H15R21901   2.675   3.919   5.660  0.8880  0.6438 -1.6808
  190SAPI  C21621902   2.722   4.114   5.573 -0.8279 -0.1869 -0.1469
  190SAPI  H16R21903   2.758   4.216   5.600 -2.0394  0.3369 -0.4442
  190SAPI  H16S21904   2.622   4.121   5.527 -1.0931  0.3418  0.4873
  190SAPI  C21721905   2.820   4.057   5.469  0.4509  0.5885 -0.5711
  190SAPI  H17R21906   2.803   4.134   5.390  0.9402  0.6421 -0.6256
  190SAPI  H17S21907   2.793   3.955   5.434 -1.9137  1.5931 -1.9403
  190SAPI  C21821908   2.959   4.059   5.527  0.2463  0.4312  1.1050
  190SAPI  H18R21909   3.022   3.988   5.469  1.4746  1.1422  1.5225
  190SAPI  H18S21910   2.961   4.019   5.630  0.4536  0.0858  0.9706
  190SAPI  C21921911   3.036   4.190   5.512  0.0586 -0.3321 -1.0600
  190SAPI  H19R21912   2.988   4.257   5.587 -0.1785 -0.1736 -1.3525
  190SAPI  H19S21913   3.012   4.222   5.408 -1.1856  1.2983 -0.3228
  190SAPI  C22021914   3.194   4.184   5.527  0.2353  0.6014 -0.6322
  190SAPI  H20R21915   3.233   4.278   5.482 -2.1183  1.8237 -0.2899
  190SAPI  H20S21916   3.226   4.108   5.452 -1.8368 -0.7727 -0.1940
  190SAPI  H20T21917   3.230   4.178   5.632  0.2877 -0.6037 -0.7067
  190SAPI   C3321918   2.332   4.873   6.400  0.5761  0.1626  0.5347
  190SAPI   H3X21919   2.234   4.914   6.433  1.0452  1.4165  0.3999
  190SAPI   H3Y21920   2.321   4.764   6.378  0.3561  0.5868 -1.6356
  190SAPI   C3421921   2.374   4.933   6.267  0.1373  0.1315  0.5534
  190SAPI   H4X21922   2.472   4.890   6.237 -0.4742 -0.3829 -0.8148
  190SAPI   H4Y21923   2.376   5.042   6.285 -3.2538  0.1561  1.3541
  190SAPI   C3521924   2.272   4.908   6.152  0.1298  0.1524 -0.1286
  190SAPI   H5X21925   2.170   4.930   6.191  0.8426  0.8643  1.3784
  190SAPI   H5Y21926   2.280   4.799   6.128  2.1879  0.3520 -0.4914
  190SAPI   C3621927   2.310   4.984   6.024  0.2140 -0.1634  0.6838
  190SAPI   H6X21928   2.411   4.955   5.989  0.7741  1.2590  1.0649
  190SAPI   H6Y21929   2.321   5.092   6.049  1.3341 -1.0223  4.7495
  190SAPI   C3721930   2.205   4.949   5.915 -0.4861 -0.1295 -0.0115
  190SAPI   H7X21931   2.104   4.984   5.945  0.6687  1.4446  2.2319
  190SAPI   H7Y21932   2.204   4.838   5.923 -1.2107 -0.1640 -0.3853
  190SAPI   C3821933   2.235   5.005   5.776 -0.4698  0.1164  0.5612
  190SAPI   H8X21934   2.341   4.979   5.758 -0.1588 -0.2101  2.5949
  190SAPI   H8Y21935   2.213   5.113   5.788  0.5202  0.1158  2.8114
  190SAPI   C3921936   2.145   4.948   5.662  0.4977 -0.7524 -0.5054
  190SAPI   H9X21937   2.036   4.961   5.678  0.0564 -0.3952 -3.2759
  190SAPI   H9Y21938   2.146   4.837   5.661 -0.4682 -0.8009  0.8095
  190SAPI  C31021939   2.184   5.023   5.533  0.1571  0.7025 -0.2020
  190SAPI  H10X21940   2.294   5.018   5.516  0.1463 -0.5508 -0.0140
  190SAPI  H10Y21941   2.162   5.130   5.551 -1.3400  0.5854 -1.1649
  190SAPI  C31121942   2.110   4.983   5.408 -0.0579 -0.3880  0.0156
  190SAPI  H11X21943   2.003   4.968   5.434 -0.3633  2.6902  0.8752
  190SAPI  H11Y21944   2.151   4.893   5.357 -1.2206 -1.6449  1.2114
  190SAPI  C31221945   2.109   5.092   5.304 -0.3459  1.2259 -0.6992
  190SAPI  H12X21946   2.073   5.189   5.345 -1.1636  1.0136 -0.9020
  190SAPI  H12Y21947   2.048   5.060   5.217  0.2796  2.5993 -1.6840
  190SAPI  C31321948   2.244   5.119   5.238 -0.2668  0.0143  0.1519
  190SAPI  H13X21949   2.284   5.026   5.193  2.6456  0.9545  0.6179
  190SAPI  H13Y21950   2.321   5.160   5.306 -0.2209  0.9631 -0.4527
  190SAPI  C31421951   2.229   5.225   5.124  0.6166  0.6976 -0.1772
  190SAPI  H14X21952   2.179   5.316   5.162  0.6485  0.7142 -0.1751
  190SAPI  H14Y21953   2.161   5.179   5.049  1.7893 -1.6350  0.1012
  190SAPI  C31521954   2.366   5.268   5.078 -0.1703 -0.4057 -0.1688
  190SAPI  H15X21955   2.447   5.252   5.152 -0.4436 -2.9395 -0.3354
  190SAPI  H15Y21956   2.354   5.375   5.050 -2.2602 -0.7624 -0.8357
  190SAPI  C31621957   2.413   5.185   4.953  0.5575  0.3981  0.0534
  190SAPI  H16X21958   2.502   5.230   4.904 -0.2706 -0.1613 -2.0999
  190SAPI  H16Y21959   2.332   5.197   4.878  0.7026  0.0209 -0.1697
  190SAPI  C31721960   2.435   5.035   4.966  0.7654  0.5782  0.1417
  190SAPI  H17X21961   2.342   4.986   5.000  0.4937 -1.0682 -2.6752
  190SAPI  H17Y21962   2.508   5.009   5.046 -0.2096  0.7877  1.1230
  190SAPI  C31821963   2.466   4.965   4.845 -0.3285 -0.5832  0.9647
  190SAPI  H18X21964   2.562   4.910   4.853  0.8669  1.5466  2.3548
  190SAPI  H18Y21965   2.469   5.035   4.759  0.6988 -1.0653  0.5833
  190SAPI  H18Z21966   2.393   4.882   4.830 -1.4198  0.4592  0.3871
  191SAPI   C1221967   0.661   5.200   2.512  0.3777 -0.2885 -0.1206
  191SAPI    H221968   0.557   5.168   2.532 -0.2484  0.4071 -2.0294
  191SAPI    O221969   0.728   5.098   2.433 -0.4872 -0.4749  0.1944
  191SAPI   HO221970   0.700   5.018   2.478  0.3281 -0.8071  0.1212
  191SAPI   C1321971   0.663   5.334   2.436  0.0821 -0.4725 -0.1655
  191SAPI    H321972   0.620   5.419   2.494 -0.2508 -1.5708  1.2628
  191SAPI    O321973   0.579   5.316   2.327 -0.5633  0.3359  0.1398
  191SAPI   HO321974   0.623   5.249   2.274  0.6059 -0.4555  1.9979
  191SAPI   C1421975   0.803   5.374   2.394 -0.3187  0.0107  0.5528
  191SAPI    H421976   0.837   5.303   2.315 -1.1683 -0.1997  0.3739
  191SAPI    O421977   0.801   5.498   2.317  0.0766 -0.2011 -0.2546
  191SAPI   HO421978   0.842   5.481   2.232 -0.9160 -1.7378 -0.4675
  191SAPI   C1521979   0.896   5.379   2.512 -0.3055 -0.3303  0.1219
  191SAPI    H521980   0.864   5.467   2.571  2.1807 -0.5582  1.9844
  191SAPI    O521981   1.032   5.392   2.466  0.3319 -0.3519 -0.0375
  191SAPI   HO521982   1.086   5.336   2.522  0.3236 -0.5958 -0.2689
  191SAPI   C1621983   0.880   5.269   2.615 -0.1478  0.5295  0.2034
  191SAPI    H621984   0.927   5.178   2.571 -1.1724  0.2367 -0.3197
  191SAPI    O621985   0.940   5.299   2.741  0.6129  0.3164  0.2583
  191SAPI   HO621986   0.915   5.228   2.800  1.3388  0.8860  1.2850
  191SAPI   C1121987   0.736   5.226   2.642  0.3630 -0.6550  0.3554
  191SAPI    H121988   0.677   5.307   2.689 -0.3004 -0.5884 -0.5733
  191SAPI     P21989   0.612   5.084   2.834 -0.1769 -0.4873 -0.2622
  191SAPI   O1321990   0.620   4.952   2.901 -0.1517  0.3699 -0.2887
  191SAPI   O1421991   0.487   5.128   2.779  0.6057 -0.2759  0.4184
  191SAPI   O1221992   0.729   5.107   2.724 -0.5037  0.1555  0.5409
  191SAPI   O1121993   0.655   5.197   2.933  0.4307 -0.1222 -0.2160
  191SAPI    C121994   0.778   5.183   3.012 -0.2196 -0.6594  0.8055
  191SAPI    HA21995   0.861   5.136   2.955  0.3015  0.6929  0.4105
  191SAPI    HB21996   0.810   5.284   3.045  1.8046 -1.3170  0.9871
  191SAPI    C221997   0.761   5.099   3.142  0.5879 -0.4191  0.3507
  191SAPI    HS21998   0.726   5.001   3.102  3.0354 -1.1282 -0.1668
  191SAPI   O2121999   0.671   5.162   3.234 -0.3696 -0.1368  0.1402
  191SAPI   C2122000   0.609   5.086   3.323 -0.2185  0.3263  0.4483
  191SAPI   O2222001   0.601   4.964   3.315 -0.3121  0.1412  0.3888
  191SAPI   C2222002   0.525   5.172   3.419  0.0971  0.5102  0.4515
  191SAPI   H2R22003   0.582   5.263   3.448  2.0151 -0.0842 -1.1868
  191SAPI   H2S22004   0.429   5.200   3.370  1.3170  1.7717 -1.3660
  191SAPI    C322005   0.898   5.086   3.207 -0.1621  0.0937 -0.9889
  191SAPI    HX22006   0.936   5.185   3.241 -0.7549  0.3944 -1.1923
  191SAPI    HY22007   0.968   5.045   3.131  0.9017  0.6936 -0.3597
  191SAPI   O3122008   0.892   5.006   3.333 -0.1874  0.0066  0.6490
  191SAPI   C3122009   0.900   4.872   3.320  0.5324 -0.8591 -0.2414
  191SAPI   O3222010   0.904   4.807   3.216 -0.0170 -0.7134 -0.4224
  191SAPI   C3222011   0.911   4.800   3.455 -0.2158 -0.0677  0.4361
  191SAPI   H2X22012   0.964   4.706   3.429  0.9507  0.7241 -0.1060
  191SAPI   H2Y22013   0.806   4.780   3.487  0.3613 -3.1038  0.7848
  191SAPI   C2322014   0.497   5.093   3.555 -0.2984  0.0849 -0.4899
  191SAPI   H3R22015   0.454   4.999   3.514 -1.9845  1.2294 -1.4762
  191SAPI   H3S22016   0.423   5.143   3.621 -1.8533 -1.3997 -1.0360
  191SAPI   C2422017   0.621   5.052   3.626 -0.0048  0.5455  0.7568
  191SAPI   H4R22018   0.688   5.139   3.646  1.2498 -0.6424  1.9101
  191SAPI   H4S22019   0.684   4.978   3.574 -1.8486  0.3220 -1.2860
  191SAPI   C2522020   0.576   4.987   3.756 -0.1769  0.8078  0.3102
  191SAPI   H5R22021   0.544   4.883   3.747 -1.1964  1.0009  1.4577
  191SAPI   C2622022   0.591   5.031   3.878  0.0708  0.5299 -0.2701
  191SAPI   H6R22023   0.565   4.961   3.959  2.1044  0.7293  0.5965
  191SAPI   C2722024   0.645   5.170   3.915 -0.3086 -0.9739 -0.5278
  191SAPI   H7R22025   0.601   5.207   4.010 -0.8198 -0.4689 -0.9561
  191SAPI   H7S22026   0.610   5.241   3.838  0.9203 -0.8991 -1.0473
  191SAPI   C2822027   0.794   5.179   3.932  0.0848  0.2229 -0.3188
  191SAPI   H8R22028   0.846   5.154   3.838  1.1210 -0.6138  0.4523
  191SAPI   C2922029   0.868   5.193   4.048 -0.1608  0.6930 -0.3440
  191SAPI   H9R22030   0.977   5.200   4.059  0.0223  0.0205 -1.5538
  191SAPI  C21022031   0.798   5.196   4.186 -0.3053  0.2156 -0.2286
  191SAPI  H10R22032   0.713   5.125   4.198  0.2338 -0.5836 -1.0684
  191SAPI  H10S22033   0.761   5.299   4.205  0.8102  0.1463  2.8389
  191SAPI  C21122034   0.905   5.172   4.293  0.1780  0.2391  0.1512
  191SAPI  H11R22035   0.962   5.081   4.272  1.7823  1.3708 -0.6519
  191SAPI  C21222036   0.934   5.242   4.406 -0.1387  0.9442  0.1314
  191SAPI  H12R22037   1.014   5.208   4.473 -0.2688 -1.7823 -0.9773
  191SAPI  C21322038   0.850   5.355   4.466  1.3430 -0.1931  0.1699
  191SAPI  H13R22039   0.829   5.326   4.571  0.6840 -0.1877  0.0420
  191SAPI  H13S22040   0.749   5.363   4.421  2.2494  2.4375 -1.6107
  191SAPI  C21422041   0.923   5.484   4.448  0.3164 -0.1663  0.2974
  191SAPI  H14R22042   0.945   5.507   4.342 -2.1533 -1.1804 -0.5064
  191SAPI  C21522043   0.992   5.547   4.547  0.3827  0.0056 -0.1147
  191SAPI  H15R22044   1.047   5.641   4.533  0.2946  0.1663  0.5495
  191SAPI  C21622045   0.999   5.505   4.691 -0.4407  0.1726  0.1734
  191SAPI  H16R22046   1.076   5.428   4.712  0.2544 -0.3782 -3.7145
  191SAPI  H16S22047   0.900   5.463   4.719 -1.1811 -0.0901 -2.5928
  191SAPI  C21722048   1.036   5.626   4.789 -0.1857 -0.1213 -0.2956
  191SAPI  H17R22049   1.136   5.668   4.764  0.5235 -2.0851 -0.9532
  191SAPI  H17S22050   1.052   5.583   4.890 -1.5766  0.2741  0.1074
  191SAPI  C21822051   0.949   5.751   4.793  0.1577  0.5562 -0.4637
  191SAPI  H18R22052   0.844   5.727   4.820  0.1720  0.0458 -0.8310
  191SAPI  H18S22053   0.946   5.804   4.695 -3.1848 -0.0216 -0.8041
  191SAPI  C21922054   0.994   5.858   4.895  0.0121 -0.0106 -0.2680
  191SAPI  H19R22055   1.101   5.886   4.880  0.7949 -2.7120 -0.1606
  191SAPI  H19S22056   0.995   5.815   4.997  1.2324 -0.3410 -0.3997
  191SAPI  C22022057   0.904   5.982   4.895  0.4639  0.9039 -0.3544
  191SAPI  H20R22058   0.800   5.943   4.899  0.9685 -0.3434  1.9752
  191SAPI  H20S22059   0.906   6.051   4.807 -3.8415  1.0367 -0.5824
  191SAPI  H20T22060   0.924   6.030   4.993 -1.0634 -1.6907  1.3515
  191SAPI   C3322061   0.998   4.874   3.564 -0.7541  0.3380 -0.5913
  191SAPI   H3X22062   0.940   4.960   3.604  0.4874  0.9447 -0.0443
  191SAPI   H3Y22063   1.094   4.919   3.531  1.0234 -0.4980  2.9393
  191SAPI   C3422064   1.032   4.776   3.673 -0.6827 -0.0680  1.1882
  191SAPI   H4X22065   1.105   4.712   3.620  0.5309  2.1532  0.0270
  191SAPI   H4Y22066   0.944   4.717   3.708 -1.8349  0.1942 -1.0417
  191SAPI   C3522067   1.093   4.834   3.800 -0.1584  0.4651  0.1428
  191SAPI   H5X22068   1.030   4.909   3.853 -0.0910 -0.2041  1.2124
  191SAPI   H5Y22069   1.191   4.877   3.772  0.5428 -1.2785 -0.1841
  191SAPI   C3622070   1.113   4.729   3.914 -0.2637  0.9784  0.2442
  191SAPI   H6X22071   1.186   4.655   3.875 -2.5581 -1.1757 -0.2500
  191SAPI   H6Y22072   1.022   4.676   3.950  1.5601 -0.7263  2.6416
  191SAPI   C3722073   1.175   4.795   4.045 -0.8367 -0.1733  0.1249
  191SAPI   H7X22074   1.089   4.849   4.089 -1.9799  0.0926 -2.2896
  191SAPI   H7Y22075   1.254   4.860   4.003 -0.8264 -1.3507 -1.8278
  191SAPI   C3822076   1.238   4.692   4.140  0.0596  0.2895 -0.7462
  191SAPI   H8X22077   1.307   4.742   4.210 -1.4283 -0.9360  1.7561
  191SAPI   H8Y22078   1.303   4.617   4.090 -0.8224 -0.7493 -0.3815
  191SAPI   C3922079   1.129   4.632   4.235 -0.2322 -0.1515 -0.3576
  191SAPI   H9X22080   1.063   4.569   4.171  0.8288  0.7219 -2.3910
  191SAPI   H9Y22081   1.062   4.711   4.275 -0.0334 -0.3694  0.4243
  191SAPI  C31022082   1.188   4.550   4.349 -0.6663  0.1443  0.8194
  191SAPI  H10X22083   1.261   4.483   4.299 -1.0660  2.1239 -2.7273
  191SAPI  H10Y22084   1.097   4.504   4.393 -0.5968  0.3633  1.1909
  191SAPI  C31122085   1.248   4.626   4.470  0.5309 -0.2057  0.2566
  191SAPI  H11X22086   1.166   4.695   4.502  0.1062 -1.1751  1.3267
  191SAPI  H11Y22087   1.341   4.682   4.445 -0.0201  0.0275 -1.4079
  191SAPI  C31222088   1.275   4.526   4.583  0.4301 -0.6912 -1.0700
  191SAPI  H12X22089   1.187   4.464   4.610 -0.6450 -0.2819 -3.3835
  191SAPI  H12Y22090   1.296   4.590   4.672 -0.5650 -2.0093  0.1654
  191SAPI  C31322091   1.388   4.429   4.556  0.7689 -0.6212  0.0986
  191SAPI  H13X22092   1.471   4.482   4.504 -1.2794  0.3035 -2.4015
  191SAPI  H13Y22093   1.350   4.356   4.482  1.3238  0.4962 -1.3398
  191SAPI  C31422094   1.424   4.355   4.683  0.4112  0.2293  0.3486
  191SAPI  H14X22095   1.332   4.307   4.722  0.6075  0.6340  1.3493
  191SAPI  H14Y22096   1.457   4.415   4.770 -0.0025  1.7803 -0.5206
  191SAPI  C31522097   1.546   4.258   4.658 -0.0677 -0.9685 -0.1966
  191SAPI  H15X22098   1.520   4.199   4.568 -1.6570  0.2862 -0.5993
  191SAPI  H15Y22099   1.556   4.194   4.748 -0.2887 -1.2993 -0.4060
  191SAPI  C31622100   1.681   4.325   4.627  0.6492  0.5049 -0.9984
  191SAPI  H16X22101   1.686   4.373   4.527  0.3918 -0.8855 -1.7139
  191SAPI  H16Y22102   1.747   4.236   4.610  0.2937  0.1573 -0.5702
  191SAPI  C31722103   1.732   4.409   4.747  0.2655  0.3490 -0.1629
  191SAPI  H17X22104   1.673   4.502   4.758  1.5417  1.0637  1.0102
  191SAPI  H17Y22105   1.838   4.437   4.730  0.5289 -0.1590  0.5671
  191SAPI  C31822106   1.726   4.332   4.880  0.0449  0.1144  0.3938
  191SAPI  H18X22107   1.802   4.252   4.869  1.5031  1.5236 -0.2075
  191SAPI  H18Y22108   1.625   4.300   4.912 -0.3974  2.1231  1.2018
  191SAPI  H18Z22109   1.764   4.394   4.965  0.1438  0.5930  0.0075
  192SAPI   C1222110   3.033   3.684   2.284  0.0967  1.3729 -0.1297
  192SAPI    H222111   3.006   3.631   2.378  0.4774  1.2821 -0.0699
  192SAPI    O222112   3.172   3.728   2.295 -0.2957  0.9869 -0.7441
  192SAPI   HO222113   3.212   3.692   2.375  1.2089  0.8435 -1.5209
  192SAPI   C1322114   3.014   3.587   2.168  0.4483 -0.3509  0.1480
  192SAPI    H322115   2.909   3.549   2.161  0.5844 -0.8966  0.9345
  192SAPI    O322116   3.095   3.468   2.182 -0.4554 -0.6353 -0.4103
  192SAPI   HO322117   3.040   3.397   2.215 -1.1013 -0.3604 -0.8690
  192SAPI   C1422118   3.040   3.657   2.039 -0.4038 -0.1557  0.7409
  192SAPI    H422119   3.149   3.676   2.043 -0.4408 -0.0477  1.2998
  192SAPI    O422120   3.000   3.575   1.926 -0.3353  0.4171  0.2106
  192SAPI   HO422121   3.079   3.561   1.875  1.3110  1.0027  2.4470
  192SAPI   C1522122   2.977   3.801   2.026 -0.1806  0.1376 -0.0204
  192SAPI    H522123   2.872   3.782   1.995 -0.8825  0.8128  1.7936
  192SAPI    O522124   3.040   3.870   1.923 -0.4123 -0.0339 -0.1559
  192SAPI   HO522125   2.977   3.904   1.859  0.2234  1.5851  0.0489
  192SAPI   C1622126   2.977   3.886   2.150  0.1488  0.6445 -0.3001
  192SAPI    H622127   3.081   3.922   2.166  0.2528  0.5873 -0.8350
  192SAPI    O622128   2.883   3.989   2.130  0.0595 -0.0863 -0.1060
  192SAPI   HO622129   2.797   3.957   2.158  0.0650  0.3283  0.4138
  192SAPI   C1122130   2.938   3.801   2.277  0.1907  0.7060  0.6197
  192SAPI    H122131   2.838   3.753   2.267  0.3234 -0.3719  3.6043
  192SAPI     P22132   2.855   3.834   2.526 -0.0330 -0.0348  0.2294
  192SAPI   O1322133   2.761   3.729   2.484  0.1916 -0.6452  0.2263
  192SAPI   O1422134   2.800   3.953   2.597  0.2616  0.0626 -0.1812
  192SAPI   O1222135   2.938   3.885   2.394  0.5162 -0.2173 -0.5600
  192SAPI   O1122136   2.964   3.762   2.625 -0.0530 -0.2721 -0.3795
  192SAPI    C122137   3.089   3.823   2.661 -0.3349 -1.0975 -0.0215
  192SAPI    HA22138   3.168   3.755   2.623 -0.0801 -0.6468 -0.3023
  192SAPI    HB22139   3.113   3.920   2.614 -2.6541 -1.1019 -1.3861
  192SAPI    C222140   3.105   3.858   2.813  0.8184  0.0001  0.3760
  192SAPI    HS22141   3.189   3.930   2.824  1.4437 -0.8909  1.6374
  192SAPI   O2122142   3.145   3.742   2.884  0.0085  0.5339 -0.3921
  192SAPI   C2122143   3.268   3.694   2.853 -0.3800  0.5441 -0.3511
  192SAPI   O2222144   3.348   3.749   2.779 -0.9000  0.1678 -0.2591
  192SAPI   C2222145   3.291   3.575   2.942  0.0409  0.6168 -1.3671
  192SAPI   H2R22146   3.196   3.520   2.962  1.2366 -1.4476 -1.1028
  192SAPI   H2S22147   3.362   3.508   2.890  0.4884 -0.2858  0.3112
  192SAPI    C322148   2.984   3.929   2.881  0.1872 -0.4935  0.0297
  192SAPI    HX22149   2.914   3.846   2.904  0.9418 -1.1491  0.0109
  192SAPI    HY22150   2.935   4.012   2.827 -1.8520 -0.5015  1.7154
  192SAPI   O3122151   3.027   3.983   3.011 -0.1349  0.1217 -0.0069
  192SAPI   C3122152   2.939   4.061   3.070  0.4703  0.0748  0.0348
  192SAPI   O3222153   2.829   4.093   3.021 -0.3281 -0.1191 -0.2123
  192SAPI   C3222154   2.988   4.110   3.208  0.2286 -0.0026 -0.1810
  192SAPI   H2X22155   3.090   4.152   3.193  0.0916  0.7163  0.7854
  192SAPI   H2Y22156   2.993   4.021   3.274  0.7615  0.4322  0.3719
  192SAPI   C2322157   3.362   3.609   3.078 -0.2665 -0.8270  0.0991
  192SAPI   H3R22158   3.287   3.665   3.137  0.5259  1.0827 -0.6286
  192SAPI   H3S22159   3.445   3.679   3.053 -1.1877  0.3969  0.3573
  192SAPI   C2422160   3.414   3.484   3.153 -0.5452  0.4449  0.8674
  192SAPI   H4R22161   3.488   3.527   3.224 -0.2475 -0.9232  1.4328
  192SAPI   H4S22162   3.470   3.426   3.076 -1.5730  1.1000 -0.4143
  192SAPI   C2522163   3.300   3.408   3.226 -0.3635 -0.5676  0.1094
  192SAPI   H5R22164   3.213   3.383   3.164  1.6533 -1.5647 -2.4663
  192SAPI   C2622165   3.296   3.389   3.363 -0.1986 -0.3504  0.1026
  192SAPI   H6R22166   3.208   3.338   3.404 -0.7499 -0.9998 -1.7876
  192SAPI   C2722167   3.395   3.430   3.469 -0.3764 -0.0095 -0.3084
  192SAPI   H7R22168   3.495   3.438   3.421 -0.0331 -0.9725  0.2310
  192SAPI   H7S22169   3.399   3.351   3.547 -0.0891  0.9826  0.7097
  192SAPI   C2822170   3.348   3.558   3.529  0.1767  0.2580 -0.0414
  192SAPI   H8R22171   3.351   3.642   3.458 -3.6977  0.0732 -0.6470
  192SAPI   C2922172   3.291   3.577   3.651 -0.4718 -0.4813 -0.0404
  192SAPI   H9R22173   3.275   3.681   3.681  0.5509 -0.2998 -0.0962
  192SAPI  C21022174   3.259   3.469   3.750 -0.6684  0.1072 -0.3202
  192SAPI  H10R22175   3.346   3.402   3.768 -1.2911 -0.2631  1.4673
  192SAPI  H10S22176   3.196   3.393   3.699 -0.1418  1.2212 -2.8217
  192SAPI  C21122177   3.207   3.519   3.885 -0.1577 -0.2087 -0.1288
  192SAPI  H11R22178   3.098   3.519   3.895 -0.0677 -0.9586  1.1354
  192SAPI  C21222179   3.280   3.557   3.990  0.1618  0.4033 -0.0649
  192SAPI  H12R22180   3.229   3.604   4.076 -1.4539 -2.2170  0.5134
  192SAPI  C21322181   3.434   3.566   3.996  0.2581  0.2443 -0.0687
  192SAPI  H13R22182   3.469   3.657   4.049 -0.3986 -0.0682  0.9307
  192SAPI  H13S22183   3.476   3.571   3.893  0.1789  0.6262 -0.0820
  192SAPI  C21422184   3.506   3.450   4.068 -0.4803  0.0042 -0.8033
  192SAPI  H14R22185   3.454   3.353   4.064 -0.8649  0.1753 -0.1140
  192SAPI  C21522186   3.627   3.449   4.132 -0.4636  0.5219  0.0266
  192SAPI  H15R22187   3.662   3.361   4.188  1.0815  0.8270 -0.4182
  192SAPI  C21622188   3.713   3.569   4.156 -0.2583  0.4073  0.8309
  192SAPI  H16R22189   3.672   3.667   4.122  1.4806  0.9477  0.1421
  192SAPI  H16S22190   3.815   3.557   4.112 -0.1586  1.8621  0.5879
  192SAPI  C21722191   3.712   3.584   4.307  0.0136 -0.0641  0.8409
  192SAPI  H17R22192   3.778   3.668   4.337  1.2709 -0.9898  0.6982
  192SAPI  H17S22193   3.762   3.497   4.354 -1.1059 -1.5703 -0.6336
  192SAPI  C21822194   3.573   3.613   4.362 -0.0214 -0.1006 -0.1249
  192SAPI  H18R22195   3.516   3.517   4.357  1.6014 -1.1929  1.0567
  192SAPI  H18S22196   3.528   3.704   4.317  0.0208 -0.2322 -0.4333
  192SAPI  C21922197   3.575   3.636   4.515 -0.3312  0.1960 -0.4226
  192SAPI  H19R22198   3.625   3.732   4.537  0.7872  0.0757 -2.1899
  192SAPI  H19S22199   3.641   3.558   4.559 -0.8248 -0.2430 -0.4484
  192SAPI  C22022200   3.441   3.630   4.582  0.0727 -0.7251 -0.4504
  192SAPI  H20R22201   3.440   3.668   4.687 -1.8427  1.0396 -1.0426
  192SAPI  H20S22202   3.413   3.523   4.591  0.5477 -0.7855  0.5882
  192SAPI  H20T22203   3.366   3.696   4.535  1.2255  0.4814 -0.6714
  192SAPI   C3322204   2.883   4.206   3.278  0.4026  0.3548 -0.0549
  192SAPI   H3X22205   2.798   4.140   3.305  1.4902 -1.5532 -1.0808
  192SAPI   H3Y22206   2.841   4.272   3.199 -0.6031  0.3905  0.4920
  192SAPI   C3422207   2.943   4.264   3.405  0.5451 -0.4434  0.6522
  192SAPI   H4X22208   2.937   4.375   3.407  1.6371 -0.3508 -0.1252
  192SAPI   H4Y22209   3.054   4.251   3.408  0.4602 -1.2713  0.4184
  192SAPI   C3522210   2.887   4.214   3.538  0.4527  0.0529  0.2256
  192SAPI   H5X22211   2.904   4.105   3.526  1.8806  0.1775  0.8531
  192SAPI   H5Y22212   2.779   4.238   3.529 -0.0450 -1.5329  1.5217
  192SAPI   C3622213   2.948   4.276   3.661 -0.1075  0.2436  0.2924
  192SAPI   H6X22214   2.939   4.384   3.639  0.0675  0.5636  1.6587
  192SAPI   H6Y22215   3.059   4.272   3.652 -0.0001  1.4624  0.8287
  192SAPI   C3722216   2.894   4.232   3.794  0.3491 -0.4052 -0.0174
  192SAPI   H7X22217   2.916   4.129   3.831  1.6295 -0.0116  0.3540
  192SAPI   H7Y22218   2.783   4.241   3.795  0.3701  1.0849  3.6464
  192SAPI   C3822219   2.960   4.315   3.901  0.6305  0.2139  0.6156
  192SAPI   H8X22220   2.975   4.422   3.874 -0.1829  0.4901  1.2520
  192SAPI   H8Y22221   3.057   4.265   3.925  0.3970  0.0226  1.1613
  192SAPI   C3922222   2.881   4.302   4.036 -0.2435 -0.0549  0.5686
  192SAPI   H9X22223   2.831   4.203   4.048  0.4072 -0.1146  3.4801
  192SAPI   H9Y22224   2.797   4.371   4.014  0.3508 -0.3249 -3.5278
  192SAPI  C31022225   2.965   4.333   4.155 -0.6989 -0.2698 -0.7411
  192SAPI  H10X22226   3.001   4.438   4.148 -0.3501 -0.1465  1.9345
  192SAPI  H10Y22227   3.058   4.275   4.138 -0.6706 -0.2320 -0.7149
  192SAPI  C31122228   2.904   4.305   4.294 -0.5511 -0.4653 -0.4646
  192SAPI  H11X22229   2.878   4.198   4.308  0.0110 -0.3798  1.6218
  192SAPI  H11Y22230   2.811   4.364   4.311 -0.0738 -0.0097  0.6990
  192SAPI  C31222231   2.993   4.342   4.418  0.1467 -0.5982 -0.5889
  192SAPI  H12X22232   3.025   4.448   4.404 -1.3126 -0.0475  0.0634
  192SAPI  H12Y22233   3.089   4.288   4.423  1.4161  1.5439 -0.3473
  192SAPI  C31322234   2.905   4.346   4.545  0.3035 -0.7016  0.0480
  192SAPI  H13X22235   2.871   4.241   4.553  0.2522 -0.6803  0.1097
  192SAPI  H13Y22236   2.813   4.408   4.545 -1.5644 -3.3392 -0.0711
  192SAPI  C31422237   2.997   4.387   4.665  0.4346  0.3330 -0.2754
  192SAPI  H14X22238   3.030   4.493   4.664 -0.7292  0.7767  2.2492
  192SAPI  H14Y22239   3.091   4.329   4.652 -0.5370 -1.0290 -1.6434
  192SAPI  C31522240   2.953   4.351   4.808 -0.5601  0.0864 -0.2023
  192SAPI  H15X22241   2.924   4.243   4.812 -1.3599  0.3394  2.4509
  192SAPI  H15Y22242   2.871   4.420   4.838 -0.4800 -1.0113  2.8469
  192SAPI  C31622243   3.065   4.374   4.912 -0.0744  0.6238  0.1409
  192SAPI  H16X22244   3.090   4.482   4.913 -2.7479  1.3512  2.8147
  192SAPI  H16Y22245   3.150   4.308   4.885 -3.5848 -3.8349 -1.2696
  192SAPI  C31722246   3.032   4.334   5.056 -0.3223 -0.1444  0.1241
  192SAPI  H17X22247   3.009   4.225   5.052  0.8071 -0.3717 -2.3045
  192SAPI  H17Y22248   2.939   4.390   5.079 -0.0523  0.3620 -0.0165
  192SAPI  C31822249   3.133   4.369   5.158 -0.1628  0.5613  0.3608
  192SAPI  H18X22250   3.165   4.476   5.158  2.0136 -0.0494  0.3811
  192SAPI  H18Y22251   3.221   4.303   5.147 -1.5712 -1.1340 -1.3336
  192SAPI  H18Z22252   3.095   4.348   5.261  2.8478  0.7806  1.6139
  193SOD    SOD22253   4.888   1.495   7.413  0.3010  0.4329  0.4489
  194SOD    SOD22254   6.578   5.845   8.435  0.3209 -0.4831 -0.1155
  195SOD    SOD22255   2.764   3.182   7.231 -0.0031  0.1620 -0.1165
  196SOD    SOD22256   2.640   3.125   1.795  0.4571 -0.1643 -0.3416
  197SOD    SOD22257   5.548   2.644   1.938 -0.0665  0.7125  0.0011
  198SOD    SOD22258   4.764   4.617   8.082  0.1705 -0.1780 -0.2280
  199SOD    SOD22259   6.194   2.961   1.332  0.0023  0.2786  0.1094
  200SOD    SOD22260   2.755   0.515   2.149  0.7390 -0.0217 -0.0368
  201SOD    SOD22261   6.791   5.882   0.859 -0.1277  0.3050  0.5964
  202SOD    SOD22262   6.333   5.232   1.273 -0.3980  0.8618 -0.5455
  203SOD    SOD22263   4.093   1.573   7.063  0.2595 -0.0304  0.0820
  204SOD    SOD22264   2.447   6.179   8.123 -0.4574  0.3320  0.4225
  205SOD    SOD22265   6.326   4.916   6.744 -0.1634  0.1157  0.5844
  206SOD    SOD22266   4.892   2.785   7.766 -0.2377 -0.3521  0.7071
  207SOD    SOD22267   5.321   0.110   8.028 -0.3694  0.3818  0.2450
  208SOD    SOD22268   1.132   4.750   7.955  0.4734  0.0049 -0.0228
  209SOD    SOD22269   2.592   4.521   7.337 -0.4631 -0.0308  0.1650
  210SOD    SOD22270   3.160   1.876   6.876 -0.1076 -0.5853  0.3066
  211SOD    SOD22271   3.613   3.975   2.118  0.0903 -0.2227 -0.1877
  212SOD    SOD22272   2.413   6.674   1.434  0.0024 -0.1298  0.1349
  213SOD    SOD22273   3.973   4.575   1.332  0.4976 -0.2002 -0.0814
  214SOD    SOD22274   3.234   3.052   7.765  0.4325 -0.0790  0.1218
  215SOD    SOD22275   0.642   2.925   2.554  0.5470  0.4722  0.1793
  216SOD    SOD22276   3.324   1.669   0.552  0.2976  0.2546  0.2287
  217SOD    SOD22277   3.301   4.609   1.709  0.0257 -0.2992 -0.1175
  218SOD    SOD22278   4.084   0.724   1.037 -0.3401  0.0287  0.1996
  219SOD    SOD22279   5.935   0.471   1.035  0.1913  0.1998  0.2761
  220SOD    SOD22280   5.393   2.548   1.082  0.7195  0.4635 -0.0198
  221SOD    SOD22281   4.278   5.380   0.899  0.7367 -0.0748  0.2379
  222SOD    SOD22282   6.775   2.836   2.630  0.6483 -0.2909  0.2762
  223SOD    SOD22283   3.484   1.043   7.807 -0.0117  0.4014  0.1102
  224SOD    SOD22284   6.510   6.513   2.653 -0.3646 -0.2322 -0.3108
  225SOD    SOD22285   2.455   2.692   2.133  0.0447  0.1542  0.4831
  226SOD    SOD22286   0.748   6.719   2.573 -0.6298  0.1379  0.1967
  227SOD    SOD22287   0.854   1.404   8.497  0.6332 -0.7613  0.5560
  228SOD    SOD22288   0.970   5.430   1.280 -0.4063 -0.1435  0.1677
  229SOD    SOD22289   6.385   3.224   1.799  0.2413  0.2367  0.1884
  230SOD    SOD22290   3.886   5.149   2.697 -0.2361 -0.2260  0.2089
  231SOD    SOD22291   2.260   1.343   1.835  0.2892  0.4490  0.2541
  232SOD    SOD22292   6.585   6.476   0.399 -0.0911 -0.3074 -0.6879
  233SOD    SOD22293   3.221   0.660   7.280 -0.4920  0.4162 -0.3470
  234CLA    CLA22294   2.693   5.734   1.632  0.0313 -0.4689  0.1188
  235CLA    CLA22295   5.601   5.009   1.285  0.2113 -0.0371 -0.3536
  236CLA    CLA22296   1.976   4.045   8.526 -0.4393 -0.2421 -0.2872
  237CLA    CLA22297   0.126   2.949   1.153  0.2416 -0.3308 -0.1363
  238CLA    CLA22298   6.833   5.308   0.548  0.0273 -0.2520 -0.1053
  239CLA    CLA22299   5.139   0.287   0.924  0.2821  0.1326  0.1139
  240CLA    CLA22300   3.609   1.989   7.946  0.3533 -0.1550 -0.1897
  241CLA    CLA22301   6.124   6.313   0.258 -0.5148  0.4588 -0.0540
  242CLA    CLA22302   2.773   2.727   0.581  0.1436 -0.2735  0.0729
  243CLA    CLA22303   4.775   0.011   8.327 -0.1660  0.1174  0.0485
  244CLA    CLA22304   5.541   2.738   1.178  0.0980  0.0804  0.0856
  245CLA    CLA22305   3.711   5.359   2.016 -0.5287  0.0467  0.0684
  246CLA    CLA22306   2.247   1.430   1.570 -0.3095 -0.1840 -0.1180
  247CLA    CLA22307   2.688   6.047   7.679  0.1725  0.0382  0.4425
  248CLA    CLA22308   3.437   0.647   7.442 -0.3878  0.3606 -0.2518
  249CLA    CLA22309   4.498   3.942   1.825 -0.1297  0.2593  0.5761
  250CLA    CLA22310   5.640   0.777   0.514  0.4254  0.3046 -0.0177
  251TIP3   OH222311   2.796   5.937   2.280  0.4431 -0.3559  0.5403
  251TIP3    H122312   2.724   5.989   2.245  1.4596  0.3038 -0.6350
  251TIP3    H222313   2.780   5.849   2.248  1.6150  0.3070 -2.1855
  252TIP3   OH222314   3.447   3.076   8.183 -0.0086 -0.5080  0.2476
  252TIP3    H122315   3.460   3.050   8.274 -0.4865 -0.0069  0.4645
  252TIP3    H222316   3.487   3.162   8.177 -0.9835 -0.0446  0.2835
  253TIP3   OH222317   2.639   4.141   8.328 -0.4518 -0.9764  0.5167
  253TIP3    H122318   2.561   4.115   8.375  0.1350  0.4390  2.3984
  253TIP3    H222319   2.648   4.235   8.345  0.7595 -0.7630 -1.0105
  254TIP3   OH222320   5.656   0.865   2.478  0.0183 -0.4227  0.1386
  254TIP3    H122321   5.598   0.794   2.450 -1.8052  0.2580  1.8979
  254TIP3    H222322   5.599   0.923   2.528  1.8083  1.4695  0.0805
  255TIP3   OH222323   5.092   3.537   8.285 -0.3147  0.6348  0.2721
  255TIP3    H122324   5.032   3.600   8.244 -0.9790 -0.4785 -0.5464
  255TIP3    H222325   5.059   3.451   8.257  0.8219 -0.0659  0.9899
  256TIP3   OH222326   2.568   0.597   8.030 -0.4343  1.1630 -0.6500
  256TIP3    H122327   2.516   0.664   7.985 -0.7074  1.1090 -0.4194
  256TIP3    H222328   2.547   0.515   7.983 -1.2247  0.9924 -0.0299
  257TIP3   OH222329   3.749   4.429   2.103  0.2056 -0.7785  0.3838
  257TIP3    H122330   3.750   4.517   2.141 -0.8130 -0.2939 -0.6778
  257TIP3    H222331   3.803   4.377   2.163  0.4711  0.4611  1.2602
  258TIP3   OH222332   5.244   1.991   0.305  0.1060 -0.5429 -0.0592
  258TIP3    H122333   5.205   1.932   0.241  0.0228 -0.6082  0.0520
  258TIP3    H222334   5.185   2.066   0.308 -1.4284 -1.7331  1.9774
  259TIP3   OH222335   3.004   2.457   1.494 -0.4592  0.3628  0.1354
  259TIP3    H122336   3.026   2.442   1.586  1.4518 -0.7809 -0.4641
  259TIP3    H222337   2.915   2.493   1.496 -0.1312  1.1915  2.4689
  260TIP3   OH222338   0.194   0.471   7.871 -1.0360 -0.4344  0.0236
  260TIP3    H122339   0.158   0.382   7.872 -1.3288 -0.3293  1.2800
  260TIP3    H222340   0.124   0.525   7.909 -0.2249  0.0454  0.8844
  261TIP3   OH222341   2.613   5.525   0.501 -0.0173 -0.4773  0.2430
  261TIP3    H122342   2.549   5.455   0.516  1.6601 -2.3305 -0.8592
  261TIP3    H222343   2.698   5.483   0.511  1.0666  1.4023 -0.5793
  262TIP3   OH222344   6.153   3.418   0.281  0.1115 -0.2348 -0.2202
  262TIP3    H122345   6.063   3.395   0.306  0.4553  0.2661  1.6247
  262TIP3    H222346   6.143   3.498   0.229 -0.4779  0.2890  0.6594
  263TIP3   OH222347   4.087   2.475   8.436  0.5330 -0.5391 -0.7596
  263TIP3    H122348   4.011   2.532   8.443 -0.1886 -1.3816 -1.5573
  263TIP3    H222349   4.143   2.501   8.510 -1.2835 -1.0317  0.8785
  264TIP3   OH222350   6.689   2.205   1.266 -0.4651  0.7480 -0.0536
  264TIP3    H122351   6.759   2.204   1.332 -1.3449  0.5417  0.8998
  264TIP3    H222352   6.735   2.204   1.182  0.6978  1.6794  0.5453
  265TIP3   OH222353   1.027   0.810   2.197 -0.2970  0.1732 -0.3334
  265TIP3    H122354   1.004   0.853   2.279  0.1065  0.7238 -0.5064
  265TIP3    H222355   1.105   0.759   2.217  0.4014  1.1113 -0.6178
  266TIP3   OH222356   2.360   5.785   0.938  0.0513 -0.0827  0.1022
  266TIP3    H122357   2.278   5.737   0.952 -0.2771  0.7026  0.9801
  266TIP3    H222358   2.417   5.756   1.009  0.7481 -1.0295 -0.8153
  267TIP3   OH222359   0.011   0.027   0.125  0.1884  0.2549  0.1041
  267TIP3    H122360   0.106   0.017   0.118  0.3894  2.4294 -1.0938
  267TIP3    H222361  -0.009   0.103   0.071 -1.8409  1.8344  2.8094
  268TIP3   OH222362   6.636   2.258   2.610 -0.7098 -0.0046  0.3363
  268TIP3    H122363   6.693   2.318   2.562  0.5187 -0.0487  1.6686
  268TIP3    H222364   6.641   2.176   2.562 -1.3268  0.5508 -0.7232
  269TIP3   OH222365   4.328   4.367   0.006 -0.1406  0.6436  0.1108
  269TIP3    H122366   4.378   4.288   0.025 -1.7056 -0.9145 -1.7746
  269TIP3    H222367   4.250   4.361   0.061 -1.5141 -0.5475 -1.8335
  270TIP3   OH222368   4.094   4.688   1.158 -0.1958  0.2991 -0.4724
  270TIP3    H122369   4.052   4.740   1.089  1.2313 -0.1188 -1.7145
  270TIP3    H222370   4.183   4.723   1.163  0.2404 -0.8325 -0.0582
  271TIP3   OH222371   6.317   3.934   1.310 -0.4485 -0.2380 -0.0082
  271TIP3    H122372   6.288   3.934   1.402  1.3148 -1.6492  0.6028
  271TIP3    H222373   6.329   3.842   1.288 -0.1675  0.1122 -1.4425
  272TIP3   OH222374   6.872   4.614   2.030  0.6041  0.3128 -0.6291
  272TIP3    H122375   6.896   4.580   2.116  0.0565  0.5605 -0.3743
  272TIP3    H222376   6.823   4.694   2.049 -0.6346 -0.3015 -1.1269
  273TIP3   OH222377   4.809   5.114   2.533  0.2178 -0.4504 -0.0768
  273TIP3    H122378   4.825   5.124   2.627  0.1491 -2.2904  0.1611
  273TIP3    H222379   4.756   5.035   2.526 -2.0282  1.0742 -1.4861
  274TIP3   OH222380   3.110   4.476   2.103  0.2319 -1.1513 -0.3770
  274TIP3    H122381   3.110   4.566   2.136  1.4056 -0.9501 -0.8896
  274TIP3    H222382   3.029   4.468   2.053  0.6242 -0.0288 -1.2227
  275TIP3   OH222383   2.143   1.470   7.884  0.1619  0.0605 -0.2345
  275TIP3    H122384   2.200   1.395   7.899  0.1240 -0.0214 -0.4977
  275TIP3    H222385   2.185   1.541   7.932  0.6130  0.0563 -0.6063
  276TIP3   OH222386   3.872   5.866   7.882 -0.3120 -0.6509 -0.7763
  276TIP3    H122387   3.880   5.947   7.832  0.1907  0.8567  1.6076
  276TIP3    H222388   3.892   5.797   7.819 -0.2189  1.0939 -2.7499
  277TIP3   OH222389   2.985   0.228   6.956  0.2777 -0.4581  0.1158
  277TIP3    H122390   3.073   0.257   6.933 -0.1136  0.9373  0.3253
  277TIP3    H222391   2.951   0.297   7.012 -1.0805 -0.8120 -0.2468
  278TIP3   OH222392   0.607   2.623   1.213 -0.3171  0.0665 -0.3208
  278TIP3    H122393   0.530   2.676   1.233  0.3365  0.9402 -0.0387
  278TIP3    H222394   0.654   2.674   1.147 -0.4756 -0.9421 -1.2405
  279TIP3   OH222395   2.537   1.699   2.359 -0.8048 -0.3221  0.1674
  279TIP3    H122396   2.443   1.718   2.352 -0.4773  2.1166  1.1690
  279TIP3    H222397   2.555   1.707   2.452 -0.1561 -4.2879  0.5292
  280TIP3   OH222398   0.442   6.355   6.975 -0.6569 -0.6068  0.1887
  280TIP3    H122399   0.453   6.441   6.933 -1.6348 -0.2903  0.5614
  280TIP3    H222400   0.421   6.375   7.066 -0.8468 -1.2470  0.2883
  281TIP3   OH222401   5.436   2.171   7.093 -0.4824  0.1310  0.0946
  281TIP3    H122402   5.354   2.216   7.115 -0.3870  0.5689 -0.4157
  281TIP3    H222403   5.410   2.080   7.076 -0.6927  0.0095  1.0492
  282TIP3   OH222404   2.289   6.818   7.630  0.0838  0.2687 -0.0925
  282TIP3    H122405   2.313   6.849   7.717 -0.5199 -0.6859  0.4272
  282TIP3    H222406   2.207   6.771   7.643 -1.1913  1.9245 -1.5248
  283TIP3   OH222407   5.713   2.575   1.622 -0.6489  0.1882  0.7357
  283TIP3    H122408   5.688   2.494   1.666 -0.3387 -1.3192 -1.6776
  283TIP3    H222409   5.788   2.608   1.673 -1.2370 -0.6195  2.1788
  284TIP3   OH222410   5.419   1.251   7.393 -0.2937 -0.0492  0.1402
  284TIP3    H122411   5.386   1.163   7.414 -1.7443 -0.0657 -1.9456
  284TIP3    H222412   5.398   1.263   7.300 -0.7154  2.7415  0.5099
  285TIP3   OH222413   5.357   2.137   1.965  0.3934 -0.0539 -0.3595
  285TIP3    H122414   5.391   2.102   1.883 -0.6107 -0.3570 -0.6571
  285TIP3    H222415   5.296   2.071   1.996  1.0495 -0.1260  0.8434
  286TIP3   OH222416   6.085   2.412   1.561 -0.5165 -0.5395 -0.5228
  286TIP3    H122417   6.020   2.482   1.550 -0.4798  0.0455  2.1480
  286TIP3    H222418   6.163   2.445   1.517 -1.3937 -0.3600 -2.0361
  287TIP3   OH222419   1.953   1.644   2.943  0.3985 -0.0805 -0.0735
  287TIP3    H122420   1.928   1.732   2.970  0.9640 -0.1533  0.7415
  287TIP3    H222421   1.882   1.615   2.886 -0.0458  0.7029  0.0707
  288TIP3   OH222422   5.721   3.156   2.399  0.0117  0.2293  0.1917
  288TIP3    H122423   5.649   3.214   2.426  0.1561  0.7511 -0.5086
  288TIP3    H222424   5.784   3.215   2.357  0.2486 -0.4105 -0.3616
  289TIP3   OH222425   1.123   5.546   0.064 -0.4033 -0.6916  0.1728
  289TIP3    H122426   1.216   5.534   0.080 -0.4735 -0.2978  0.9377
  289TIP3    H222427   1.107   5.506  -0.021  0.8838  1.0761 -0.9635
  290TIP3   OH222428   2.136   6.676   8.138 -0.5729 -0.2282 -0.2615
  290TIP3    H122429   2.084   6.646   8.064  0.4817 -0.1158 -1.0811
  290TIP3    H222430   2.223   6.694   8.101  0.2230 -0.9683  1.1568
  291TIP3   OH222431   0.627   2.878   8.161  0.2752 -0.2383  0.0734
  291TIP3    H122432   0.534   2.861   8.148 -0.1537  1.1904  0.9505
  291TIP3    H222433   0.670   2.844   8.083 -0.9288 -1.3283 -0.1313
  292TIP3   OH222434   5.921   1.326   7.727 -0.1929 -0.6514 -0.0068
  292TIP3    H122435   5.953   1.399   7.780  0.4559  0.0634 -1.3376
  292TIP3    H222436   5.973   1.251   7.755 -0.8921 -0.6419  1.4030
  293TIP3   OH222437   3.720   6.800   2.081 -0.1761  0.3555 -0.5690
  293TIP3    H122438   3.730   6.894   2.095  0.9348  0.3687 -1.3110
  293TIP3    H222439   3.714   6.763   2.169 -0.4879  1.0989 -0.2709
  294TIP3   OH222440   2.382   5.930   1.559 -0.0542  0.1932 -0.5947
  294TIP3    H122441   2.386   5.867   1.631  1.6716  0.1846 -0.6565
  294TIP3    H222442   2.289   5.950   1.550 -0.2222  3.7250  4.6761
  295TIP3   OH222443   2.364   5.958   0.662 -0.0484 -0.4860  0.0767
  295TIP3    H122444   2.450   5.972   0.702 -0.1119 -2.6503  1.1055
  295TIP3    H222445   2.367   5.869   0.627 -1.5575 -0.2619 -0.7022
  296TIP3   OH222446   2.655   6.025   1.521  0.5588 -0.7140 -0.3704
  296TIP3    H122447   2.573   6.016   1.570  0.7009  0.2232  0.0474
  296TIP3    H222448   2.692   5.937   1.521  0.7110 -0.6876  1.4967
  297TIP3   OH222449   1.147   5.137   7.364  0.6128  0.1325  0.1413
  297TIP3    H122450   1.229   5.185   7.372  1.2714 -0.7571 -0.8212
  297TIP3    H222451   1.174   5.049   7.335 -0.7902  0.7631 -3.7887
  298TIP3   OH222452   0.378   5.441   2.632  0.6425  0.6168  0.3056
  298TIP3    H122453   0.352   5.388   2.557 -1.6256  2.1737 -0.0846
  298TIP3    H222454   0.381   5.379   2.705  1.2192 -0.6069 -0.7224
  299TIP3   OH222455   5.497   4.265   0.248 -0.2468 -0.1887  0.1860
  299TIP3    H122456   5.532   4.347   0.213 -1.1396 -0.0531 -0.4156
  299TIP3    H222457   5.466   4.289   0.336  1.8432 -0.4951  1.0894
  300TIP3   OH222458   2.192   0.355   2.097  0.2544  0.1751 -0.1738
  300TIP3    H122459   2.247   0.316   2.165  0.1977  0.6017  0.1212
  300TIP3    H222460   2.102   0.332   2.123 -0.0146  2.7597  1.5312
  301TIP3   OH222461   2.095   5.122   7.520 -0.3585  0.0051  0.4048
  301TIP3    H122462   2.029   5.112   7.451  0.7680 -1.3636 -0.5177
  301TIP3    H222463   2.169   5.166   7.476 -0.2654  0.6484  1.1811
  302TIP3   OH222464   6.522   3.124   7.963  0.3514 -0.0141 -0.2708
  302TIP3    H122465   6.522   3.216   7.992  2.9700 -0.5617  1.9453
  302TIP3    H222466   6.610   3.111   7.926  0.2288 -1.7499 -0.0286
  303TIP3   OH222467   6.775   6.622   7.062  0.2882  0.1944 -0.0979
  303TIP3    H122468   6.696   6.652   7.017 -0.5438 -0.2585  0.9996
  303TIP3    H222469   6.847   6.656   7.010 -0.5902 -1.5077 -2.6065
  304TIP3   OH222470   2.413   5.995   8.269 -0.3609  0.2202 -0.2615
  304TIP3    H122471   2.498   5.953   8.280 -0.0975  0.6822 -0.5466
  304TIP3    H222472   2.383   6.011   8.359  0.0599  0.4837 -0.1659
  305TIP3   OH222473   1.734   6.311   7.394  0.0294  0.6074  0.3718
  305TIP3    H122474   1.752   6.372   7.322  1.0183  0.7899  0.7537
  305TIP3    H222475   1.793   6.238   7.378 -0.8032 -0.0375  0.1934
  306TIP3   OH222476   2.928   5.947   7.490 -0.2270 -0.2972 -0.1874
  306TIP3    H122477   2.890   5.873   7.443 -0.6857 -0.2408  0.0948
  306TIP3    H222478   2.857   5.979   7.546  0.3431 -0.4554  0.6520
  307TIP3   OH222479   2.745   1.288   1.877  0.2674  0.4106  0.4205
  307TIP3    H122480   2.817   1.346   1.901  0.8025 -0.8425  2.0492
  307TIP3    H222481   2.735   1.230   1.953 -2.0453  0.1459 -0.0125
  308TIP3   OH222482   3.959   3.470   7.936  0.0308 -0.1272  0.1103
  308TIP3    H122483   3.879   3.506   7.898  0.3002  0.1636 -0.1762
  308TIP3    H222484   3.930   3.435   8.021 -0.1788  1.0101  0.5208
  309TIP3   OH222485   4.786   5.035   0.762 -0.0501  0.0690 -0.3550
  309TIP3    H122486   4.784   5.054   0.855 -1.9591  1.2027 -0.5586
  309TIP3    H222487   4.871   5.066   0.732  1.6770 -2.6324  1.3711
  310TIP3   OH222488   5.874   5.736   2.947  0.6229 -0.1215 -0.2337
  310TIP3    H122489   5.864   5.808   3.010  1.6823  0.9077 -1.1939
  310TIP3    H222490   5.915   5.666   2.998  0.3055  0.2245  0.5275
  311TIP3   OH222491   1.786   1.311   7.518 -0.5920 -0.4015  0.2189
  311TIP3    H122492   1.720   1.257   7.562 -0.1069 -0.3350  1.0463
  311TIP3    H222493   1.813   1.258   7.442 -1.2025 -0.6606  0.1750
  312TIP3   OH222494   5.907   3.835   7.510 -0.0362 -0.4324 -0.3032
  312TIP3    H122495   5.838   3.895   7.484  0.3748 -0.7741 -2.3207
  312TIP3    H222496   5.986   3.889   7.512  0.1719 -0.6837 -1.1999
  313TIP3   OH222497   1.908   0.310   8.304  0.0789 -0.1116  0.1448
  313TIP3    H122498   1.833   0.251   8.303 -0.2803  0.3190 -1.5720
  313TIP3    H222499   1.869   0.397   8.317  0.5536 -0.1408  2.0899
  314TIP3   OH222500   6.845   5.829   1.769  0.0130  0.5598 -0.1656
  314TIP3    H122501   6.841   5.922   1.749  0.0684  0.4197 -0.8248
  314TIP3    H222502   6.910   5.822   1.839 -0.7956  1.1447  0.6771
  315TIP3   OH222503   5.922   1.519   1.380  0.1676 -0.5811 -0.0278
  315TIP3    H122504   5.963   1.606   1.387 -0.4808 -0.2755  0.0573
  315TIP3    H222505   5.830   1.538   1.365  0.4841 -1.2159 -3.3774
  316TIP3   OH222506   5.294   2.365   1.198  0.1002  0.1943 -0.4800
  316TIP3    H122507   5.292   2.339   1.291 -1.2024  0.2445 -0.4661
  316TIP3    H222508   5.317   2.285   1.151  3.0157  0.6589 -0.0064
  317TIP3   OH222509   6.031   3.953   6.793 -0.1908 -0.9612 -0.3825
  317TIP3    H122510   6.041   3.892   6.720  0.6549 -2.8941  1.2525
  317TIP3    H222511   5.942   3.938   6.826  1.0379 -3.9727  2.1019
  318TIP3   OH222512   1.130   1.528   7.814 -0.2859 -0.3143 -0.5446
  318TIP3    H122513   1.120   1.619   7.787 -0.8022 -0.2461 -0.1446
  318TIP3    H222514   1.121   1.478   7.733 -2.8036 -0.1767 -0.4450
  319TIP3   OH222515   2.399   4.644   7.281 -0.2365  0.2838  0.2638
  319TIP3    H122516   2.338   4.669   7.211  1.8277  0.4221 -1.5949
  319TIP3    H222517   2.370   4.694   7.357 -3.4581 -0.9596 -0.0154
  320TIP3   OH222518   5.582   3.040   0.568 -0.5328 -0.1616 -0.4539
  320TIP3    H122519   5.562   3.031   0.475 -0.1892 -1.9915 -0.4014
  320TIP3    H222520   5.668   2.999   0.578  0.0925  1.3006  0.4593
  321TIP3   OH222521   0.271   0.447   2.085  0.8884 -0.4216 -0.2369
  321TIP3    H122522   0.247   0.491   2.167  3.6471  1.4308 -0.2789
  321TIP3    H222523   0.193   0.397   2.061 -1.4722  2.1700  1.3917
  322TIP3   OH222524   0.420   1.634   2.328 -0.2309 -0.3762 -0.1406
  322TIP3    H122525   0.466   1.706   2.284  0.2112 -0.5552  0.0226
  322TIP3    H222526   0.352   1.608   2.266 -0.2754  0.0576 -0.2809
  323TIP3   OH222527   4.553   3.586   7.596  0.3329  0.7561  0.2727
  323TIP3    H122528   4.487   3.605   7.663  0.7414  0.7765  0.6747
  323TIP3    H222529   4.614   3.526   7.639 -0.5688 -1.0055 -0.7519
  324TIP3   OH222530   1.053   3.407   7.458 -0.1343  0.0416 -0.4147
  324TIP3    H122531   1.043   3.378   7.367 -1.5650 -0.7010 -0.0370
  324TIP3    H222532   1.019   3.497   7.458  0.8113  0.4184 -0.7990
  325TIP3   OH222533   5.426   1.546   2.311  0.1101 -0.2639  0.2137
  325TIP3    H122534   5.454   1.519   2.223 -0.3018 -1.9467  0.5811
  325TIP3    H222535   5.441   1.641   2.312  0.7435 -0.3122 -1.4397
  326TIP3   OH222536   0.340   3.977   7.435  0.2464 -0.4395  0.5067
  326TIP3    H122537   0.303   3.907   7.489 -0.0828 -0.4308  0.2994
  326TIP3    H222538   0.328   3.946   7.345 -0.7292  0.2741  0.3778
  327TIP3   OH222539   0.268   6.324   2.673  0.4983  0.5719 -0.4896
  327TIP3    H122540   0.256   6.285   2.760  0.9044 -2.8427 -1.7949
  327TIP3    H222541   0.195   6.385   2.663 -0.1421  0.2832  1.8183
  328TIP3   OH222542   0.654   6.714   7.453 -0.0053 -0.0092 -0.2195
  328TIP3    H122543   0.731   6.693   7.506 -0.1221  0.2189  0.0411
  328TIP3    H222544   0.669   6.668   7.370 -0.2625 -1.1328  0.3425
  329TIP3   OH222545   6.594   0.833   1.526 -0.3547  0.2648 -0.0273
  329TIP3    H122546   6.540   0.842   1.604  0.5428 -0.7490  0.7478
  329TIP3    H222547   6.656   0.906   1.531 -0.3446  0.2427  0.1753
  330TIP3   OH222548   0.951   0.490   1.255 -0.1641 -0.0851 -0.5744
  330TIP3    H122549   0.902   0.447   1.324 -1.1297  0.2810 -1.0094
  330TIP3    H222550   1.035   0.513   1.295 -0.3322 -0.7575  0.1756
  331TIP3   OH222551   4.745   0.518   0.978 -0.0959 -0.0897  0.3269
  331TIP3    H122552   4.801   0.581   0.932 -1.4084  1.2667  0.5357
  331TIP3    H222553   4.743   0.442   0.920  0.7748  0.3923 -0.3693
  332TIP3   OH222554   2.464   2.416   7.881 -0.6422  0.1298 -0.4953
  332TIP3    H122555   2.450   2.383   7.792  0.6850 -0.4487 -0.5084
  332TIP3    H222556   2.406   2.492   7.887  1.3583  2.0221 -2.9031
  333TIP3   OH222557   4.465   1.957   7.868  0.4234 -0.7320 -0.0655
  333TIP3    H122558   4.511   2.038   7.848 -1.8905  0.2507 -1.8105
  333TIP3    H222559   4.431   1.927   7.783 -2.8769 -0.8682  1.1840
  334TIP3   OH222560   4.645   3.214   7.955 -0.3411 -0.1199 -0.9904
  334TIP3    H122561   4.566   3.161   7.942  0.4347 -1.1656 -1.5155
  334TIP3    H222562   4.623   3.270   8.030 -1.8140  0.0630 -1.5301
  335TIP3   OH222563   4.671   0.890   0.129  0.2390  1.0304  0.0438
  335TIP3    H122564   4.754   0.890   0.176 -0.2649  0.8030  0.9739
  335TIP3    H222565   4.690   0.847   0.046  1.0156  0.8545  0.3049
  336TIP3   OH222566   3.867   5.077   2.044  0.2694  0.8383  0.1932
  336TIP3    H122567   3.831   5.164   2.026 -0.6065  0.9538  2.2468
  336TIP3    H222568   3.850   5.063   2.137 -0.3814 -1.8724 -0.2559
  337TIP3   OH222569   3.052   3.196   7.840  0.4245 -0.0116  0.6336
  337TIP3    H122570   2.962   3.164   7.845  0.0526  0.8167 -0.3869
  337TIP3    H222571   3.054   3.273   7.896  0.4483  0.0722  0.5187
  338TIP3   OH222572   6.611   5.425   7.379 -0.1232  0.4153  0.3478
  338TIP3    H122573   6.538   5.480   7.350  0.8911  2.5142  1.5811
  338TIP3    H222574   6.571   5.339   7.393 -1.9137  0.9635 -0.9971
  339TIP3   OH222575   1.092   2.755   7.223 -0.1484 -0.0644 -0.0200
  339TIP3    H122576   1.096   2.754   7.128 -1.6920  2.0788 -0.1773
  339TIP3    H222577   1.013   2.704   7.244 -1.5268  1.9272 -0.1237
  340TIP3   OH222578   2.355   6.652   2.029  0.1167 -0.3132  0.2313
  340TIP3    H122579   2.380   6.566   2.062 -0.7400  0.1512  2.2305
  340TIP3    H222580   2.263   6.661   2.053 -0.0337  0.8506 -0.6869
  341TIP3   OH222581   1.385   2.176   8.216 -0.4928  0.2930 -0.2196
  341TIP3    H122582   1.399   2.149   8.307 -0.5098  2.0425  0.3418
  341TIP3    H222583   1.441   2.118   8.165  1.3321  0.7853  1.1234
  342TIP3   OH222584   2.258   5.306   7.874  0.0509 -0.2578  0.2142
  342TIP3    H122585   2.225   5.378   7.928 -0.1570  1.9650 -2.6291
  342TIP3    H222586   2.180   5.272   7.830  0.2489 -1.8333  1.0229
  343TIP3   OH222587   6.338   3.049   7.647 -0.0670 -0.1370  0.5982
  343TIP3    H122588   6.266   3.069   7.587  0.3903 -0.3475 -0.0365
  343TIP3    H222589   6.386   3.131   7.655 -0.9747  0.2872  1.8643
  344TIP3   OH222590   1.502   4.324   0.837  0.4053 -0.0439  0.3210
  344TIP3    H122591   1.436   4.274   0.789  1.3320 -0.3122 -0.7037
  344TIP3    H222592   1.457   4.404   0.863  0.0206  0.3516 -1.4660
  345TIP3   OH222593   2.927   1.271   1.283 -0.2616 -0.6983  0.0391
  345TIP3    H122594   2.879   1.269   1.200  0.5168  1.3141 -0.5316
  345TIP3    H222595   3.016   1.297   1.258  0.2825 -1.1377  1.4141
  346TIP3   OH222596   6.313   5.567   1.236 -0.0338 -0.1426  0.0570
  346TIP3    H122597   6.403   5.535   1.229 -0.0414 -0.0028 -0.8055
  346TIP3    H222598   6.275   5.518   1.308  0.1816 -1.5444 -0.7533
  347TIP3   OH222599   3.080   0.057   0.080 -0.0215  0.8621 -0.7184
  347TIP3    H122600   3.015  -0.005   0.047 -0.7438  2.7225 -3.0358
  347TIP3    H222601   3.029   0.122   0.128  0.4616  0.9078 -0.2506
  348TIP3   OH222602   4.914   3.283   1.791 -0.1383 -0.1434  0.0263
  348TIP3    H122603   4.849   3.230   1.743  1.3778  0.9851 -3.6714
  348TIP3    H222604   4.864   3.356   1.826 -1.2206 -0.3699 -0.9466
  349TIP3   OH222605   3.286   3.008   0.853 -0.6361 -0.1360 -0.0166
  349TIP3    H122606   3.248   3.077   0.907  0.6918 -0.2374  1.0952
  349TIP3    H222607   3.286   2.931   0.909 -2.4095 -1.1741 -1.3492
  350TIP3   OH222608   0.472   6.415   0.757  0.0961  0.0632 -0.2100
  350TIP3    H122609   0.380   6.393   0.773  0.2753 -1.4784 -1.0824
  350TIP3    H222610   0.484   6.500   0.798 -1.0859 -0.7926  2.0789
  351TIP3   OH222611   6.414   3.652   1.722  0.0133 -0.1724  0.1100
  351TIP3    H122612   6.456   3.727   1.681  0.7833 -0.0664  1.0524
  351TIP3    H222613   6.465   3.636   1.801 -1.9700  0.2122  1.5346
  352TIP3   OH222614   6.272   6.831   1.472 -0.7528  0.1186 -0.0597
  352TIP3    H122615   6.303   6.783   1.395 -0.6264  1.8757 -1.1781
  352TIP3    H222616   6.181   6.852   1.451 -1.7141 -2.0524  1.6850
  353TIP3   OH222617   6.001   6.804   2.552  0.3232  0.5849 -0.1636
  353TIP3    H122618   6.058   6.768   2.483  1.8376  1.1596  0.7235
  353TIP3    H222619   5.914   6.806   2.513  0.4810 -2.2937 -0.9024
  354TIP3   OH222620   6.543   2.604   2.976 -0.6530  0.3573 -0.3508
  354TIP3    H122621   6.508   2.538   2.917 -1.0505  0.9247 -0.7521
  354TIP3    H222622   6.499   2.588   3.059 -1.3148  0.5988 -0.6536
  355TIP3   OH222623   1.055   1.408   7.369 -0.4560  0.0871 -0.6472
  355TIP3    H122624   0.970   1.370   7.389  0.0970 -0.2768  1.2005
  355TIP3    H222625   1.070   1.386   7.277 -2.0679 -0.3609 -0.8322
  356TIP3   OH222626   2.490   3.938   1.154 -0.6116  0.2091  0.4093
  356TIP3    H122627   2.509   3.909   1.243  0.5553 -0.2174  0.0357
  356TIP3    H222628   2.563   3.996   1.131 -0.2979 -0.5855 -0.6769
  357TIP3   OH222629   2.087   6.528   0.151  0.5397  0.8397 -0.1294
  357TIP3    H122630   2.104   6.469   0.078  1.1455  0.5092  0.2724
  357TIP3    H222631   2.169   6.529   0.201  0.5699  2.0847 -0.1715
  358TIP3   OH222632   1.212   1.216   0.290  0.1514  0.6331 -0.4248
  358TIP3    H122633   1.298   1.184   0.316 -0.1346 -0.0853 -0.3458
  358TIP3    H222634   1.191   1.285   0.353  0.2884  0.2089  0.0852
  359TIP3   OH222635   5.675   1.142   7.358  0.3383 -0.6850  0.0178
  359TIP3    H122636   5.634   1.222   7.391 -0.7377 -1.1567 -0.1364
  359TIP3    H222637   5.764   1.144   7.392  0.4048  0.7064 -0.1878
  360TIP3   OH222638   1.388   5.084   2.900 -0.1801  0.4896 -0.2573
  360TIP3    H122639   1.459   5.111   2.842 -0.6886 -0.5504 -1.4140
  360TIP3    H222640   1.430   5.066   2.984  0.8350  0.4553 -0.7665
  361TIP3   OH222641   5.403   5.313   7.666  0.6099 -0.4214  0.3502
  361TIP3    H122642   5.480   5.257   7.658  0.3335 -0.6676 -0.8852
  361TIP3    H222643   5.338   5.271   7.609  0.0212  0.5330  0.3064
  362TIP3   OH222644   3.024   5.465   2.563 -0.3753 -0.1391  0.1015
  362TIP3    H122645   2.996   5.412   2.638  1.4720  0.7962  1.5344
  362TIP3    H222646   3.006   5.410   2.487 -2.6163 -0.9976  1.1453
  363TIP3   OH222647   3.994   3.952   0.903  0.2267  0.1902  0.3667
  363TIP3    H122648   4.060   4.020   0.921 -0.0195  0.6588 -0.4201
  363TIP3    H222649   3.960   3.928   0.989  0.2589  1.1314  0.6588
  364TIP3   OH222650   3.487   4.617   1.571  0.4941  0.2376 -0.0266
  364TIP3    H122651   3.557   4.558   1.543 -0.0126 -1.4266  1.9869
  364TIP3    H222652   3.513   4.703   1.537  1.9581 -0.8684 -1.8692
  365TIP3   OH222653   0.138   1.847   0.835 -0.0811 -0.0041 -0.3977
  365TIP3    H122654   0.147   1.776   0.899  0.4542 -0.4222 -0.9261
  365TIP3    H222655   0.197   1.822   0.764  1.7250  1.9559  0.2935
  366TIP3   OH222656   5.114   4.538   0.722  0.3739 -0.1725  0.0910
  366TIP3    H122657   5.151   4.621   0.752  2.2195 -0.3737 -1.4619
  366TIP3    H222658   5.187   4.493   0.679 -0.9098 -2.0448 -0.2594
  367TIP3   OH222659   5.099   1.353   2.820 -0.1176 -0.3620 -0.3142
  367TIP3    H122660   5.071   1.444   2.810  3.3887  0.8160 -0.7221
  367TIP3    H222661   5.017   1.304   2.829 -2.1590  2.7735 -0.1680
  368TIP3   OH222662   5.493   4.690   6.961 -0.6482  0.2212  0.3538
  368TIP3    H122663   5.549   4.641   7.021 -2.6603 -0.2563  1.9307
  368TIP3    H222664   5.466   4.626   6.895  0.6688  0.4812 -0.4847
  369TIP3   OH222665   2.856   3.151   0.211  0.0971 -0.2235 -0.1074
  369TIP3    H122666   2.839   3.103   0.292 -0.5768 -0.1599 -0.2125
  369TIP3    H222667   2.950   3.140   0.197  0.0586 -1.0031  0.1927
  370TIP3   OH222668   1.238   4.597   0.711 -0.4263 -1.0925  0.1148
  370TIP3    H122669   1.305   4.665   0.719 -1.4557 -0.1046  0.5577
  370TIP3    H222670   1.175   4.617   0.780 -0.8403 -2.4086  0.1432
  371TIP3   OH222671   4.808   5.971   0.438  0.0457 -0.5188 -0.0635
  371TIP3    H122672   4.776   5.887   0.407 -2.4495  0.7227 -1.1160
  371TIP3    H222673   4.815   6.025   0.359 -1.1648  1.0905  0.8615
  372TIP3   OH222674   3.771   3.196   2.612  0.0513 -0.0885 -0.4000
  372TIP3    H122675   3.827   3.119   2.617  0.1495 -0.0638 -1.1513
  372TIP3    H222676   3.781   3.228   2.523 -0.3973  0.4904 -0.2476
  373TIP3   OH222677   2.494   0.063   8.211  0.3220 -0.6196 -0.2614
  373TIP3    H122678   2.587   0.059   8.189  0.0257 -0.5969 -1.6019
  373TIP3    H222679   2.493   0.075   8.306  1.7007  0.3944 -0.3372
  374TIP3   OH222680   6.146   1.425   8.385 -0.3403 -0.3047 -0.0480
  374TIP3    H122681   6.169   1.415   8.478 -1.6429  0.0131  0.3309
  374TIP3    H222682   6.077   1.491   8.385 -1.5600 -1.5275 -1.0632
  375TIP3   OH222683   2.994   6.318   2.169  0.4216 -0.2681 -0.0626
  375TIP3    H122684   3.007   6.224   2.178  0.0961 -0.3618 -0.5158
  375TIP3    H222685   3.060   6.346   2.105 -1.4432 -0.7311 -2.3063
  376TIP3   OH222686   4.578   0.717   0.810 -0.0796 -0.1592 -0.1465
  376TIP3    H122687   4.637   0.669   0.868 -1.0153  0.5006  1.4396
  376TIP3    H222688   4.560   0.657   0.738  0.3008 -1.4535  0.7899
  377TIP3   OH222689   5.431   1.665   8.440 -0.0533  0.7635 -0.2580
  377TIP3    H122690   5.358   1.612   8.471  0.1365  0.6901  0.0658
  377TIP3    H222691   5.395   1.753   8.430 -0.6553  0.3766 -1.8260
  378TIP3   OH222692   2.430   4.105   8.516  0.0662 -0.5308  0.7877
  378TIP3    H122693   2.396   4.018   8.494  1.0588 -0.6144 -0.6257
  378TIP3    H222694   2.361   4.146   8.568 -1.2719 -1.4374 -0.1965
  379TIP3   OH222695   6.535   1.691   1.550 -0.5506 -0.1562 -0.0842
  379TIP3    H122696   6.520   1.607   1.593 -0.5084  0.7332  1.7799
  379TIP3    H222697   6.630   1.701   1.549 -0.4836 -0.7649 -1.6517
  380TIP3   OH222698   5.848   1.221   2.527 -0.5119 -0.5883 -0.6219
  380TIP3    H122699   5.895   1.142   2.499 -0.9682 -0.9855 -0.2995
  380TIP3    H222700   5.762   1.188   2.554 -0.0521 -0.2622  1.3738
  381TIP3   OH222701   2.978   0.011   8.377 -0.2872 -0.2783 -0.1481
  381TIP3    H122702   2.942   0.047   8.296  1.2580  1.0637 -0.2962
  381TIP3    H222703   3.068  -0.014   8.354  0.1695  0.0955  1.1214
  382TIP3   OH222704   2.734   0.014   3.033 -0.6268  0.1793  0.0256
  382TIP3    H122705   2.658  -0.031   3.069  0.0738 -0.4811  0.7123
  382TIP3    H222706   2.764   0.071   3.104  1.6311 -2.1849  1.1478
  383TIP3   OH222707   1.237   2.952   8.147 -0.2148 -0.1235  0.2349
  383TIP3    H122708   1.223   2.933   8.240 -0.1752 -1.1204  0.0501
  383TIP3    H222709   1.333   2.954   8.138 -0.2188  0.0430  0.2263
  384TIP3   OH222710   4.535   6.293   2.046 -0.1451 -0.0891  0.0922
  384TIP3    H122711   4.581   6.262   2.124  0.8165  1.8146  0.3213
  384TIP3    H222712   4.542   6.388   2.049  2.0072  0.0417 -3.5065
  385TIP3   OH222713   5.742   6.596   3.004  0.1239  0.3316 -0.6071
  385TIP3    H122714   5.754   6.687   2.977  0.2635  0.2417 -0.8488
  385TIP3    H222715   5.654   6.593   3.040  0.7384  0.9783  1.0611
  386TIP3   OH222716   0.828   5.187   7.821 -0.3961  0.1684 -0.0973
  386TIP3    H122717   0.885   5.202   7.746 -0.2680 -1.2808 -0.3223
  386TIP3    H222718   0.748   5.236   7.801  0.3743  1.4108 -0.2380
  387TIP3   OH222719   1.862   3.203   0.149 -0.3894  0.1485  0.0948
  387TIP3    H122720   1.898   3.260   0.217  0.6785 -0.9983  0.5326
  387TIP3    H222721   1.894   3.240   0.067  0.3600  0.1492  0.3803
  388TIP3   OH222722   3.869   6.063   7.704  0.1012  0.4277  0.0845
  388TIP3    H122723   3.900   6.047   7.615 -0.2347  1.4618 -0.2357
  388TIP3    H222724   3.795   6.124   7.692 -1.5979 -1.3794  0.8616
  389TIP3   OH222725   2.101   3.677   0.424  0.5754  0.0534 -0.0310
  389TIP3    H122726   2.143   3.756   0.392  1.6544  0.2327  1.7238
  389TIP3    H222727   2.007   3.693   0.412  0.8422  1.0471 -0.8756
  390TIP3   OH222728   0.140   3.448   0.225  0.5500  0.2342  0.0792
  390TIP3    H122729   0.126   3.468   0.318 -0.5714  0.8924 -0.2129
  390TIP3    H222730   0.147   3.534   0.183 -1.8976  0.0616 -0.8477
  391TIP3   OH222731   1.230   0.071   7.207  0.1565  0.1334 -0.2420
  391TIP3    H122732   1.283   0.119   7.270  0.3534  0.0497 -0.3412
  391TIP3    H222733   1.244   0.116   7.124  0.4122 -0.1418 -0.3536
  392TIP3   OH222734   0.022   4.855   1.169 -0.0548 -0.0644  0.3652
  392TIP3    H122735   0.092   4.791   1.164  0.6033  0.6474  0.2988
  392TIP3    H222736   0.052   4.929   1.116 -0.5998  0.4763  0.7878
  393TIP3   OH222737   5.302   2.219   0.945  0.1994 -0.2203  0.3317
  393TIP3    H122738   5.344   2.267   0.874  0.7272 -0.3329  0.5570
  393TIP3    H222739   5.333   2.129   0.934 -1.5773 -0.7537 -0.6965
  394TIP3   OH222740   1.498   5.518   2.427 -0.0344  0.5012  0.3899
  394TIP3    H122741   1.420   5.467   2.404  0.5604 -0.0506 -0.4450
  394TIP3    H222742   1.496   5.593   2.367  0.3038  0.2600  0.0758
  395TIP3   OH222743   1.364   0.401   7.970 -0.1468  0.8631 -0.0467
  395TIP3    H122744   1.443   0.353   7.995  0.6487  1.8850 -0.5603
  395TIP3    H222745   1.302   0.333   7.943  0.8251  0.0991 -0.3841
  396TIP3   OH222746   4.150   0.900   2.309 -0.0676 -0.0333  0.5558
  396TIP3    H122747   4.212   0.868   2.244 -0.0813 -1.1724  1.0728
  396TIP3    H222748   4.169   0.848   2.388 -1.4699 -0.2149  0.8038
  397TIP3   OH222749   5.325   0.730   0.192  0.6031  0.2669  0.0102
  397TIP3    H122750   5.420   0.732   0.207  0.6753  1.1562 -0.4776
  397TIP3    H222751   5.314   0.769   0.106 -0.2369  0.5024  0.2202
  398TIP3   OH222752   6.511   4.832   6.892 -0.2111 -0.1098 -0.0097
  398TIP3    H122753   6.489   4.859   6.981 -0.3600  0.7750 -0.3092
  398TIP3    H222754   6.599   4.794   6.901  0.1064  0.6913  0.3855
  399TIP3   OH222755   6.717   5.060   8.357  0.2019  0.0089 -0.8074
  399TIP3    H122756   6.626   5.077   8.335  0.3047 -0.3842 -1.5700
  399TIP3    H222757   6.714   4.987   8.418  0.0196 -0.2668 -1.1384
  400TIP3   OH222758   5.266   0.623   8.223 -0.2559 -0.0033  0.0862
  400TIP3    H122759   5.312   0.552   8.180  0.2223 -0.2697  1.0157
  400TIP3    H222760   5.247   0.590   8.311  0.4952  1.2221  0.7305
  401TIP3   OH222761   2.091   0.160   7.858 -0.3062  0.3309 -0.0289
  401TIP3    H122762   2.125   0.071   7.863  0.2651  0.5502  0.0019
  401TIP3    H222763   2.080   0.188   7.949  1.2515  0.9406  0.0116
  402TIP3   OH222764   0.229   1.518   1.725 -0.4862 -0.2662  0.2828
  402TIP3    H122765   0.154   1.478   1.681 -0.7458  1.5474 -1.0388
  402TIP3    H222766   0.192   1.558   1.804 -0.2541 -2.3361  1.5177
  403TIP3   OH222767   4.121   4.200   0.906  0.8806 -0.6371 -0.2554
  403TIP3    H122768   4.129   4.226   0.814 -0.4344 -0.5184 -0.3568
  403TIP3    H222769   4.171   4.266   0.954  1.3656 -0.5518 -0.8643
  404TIP3   OH222770   5.459   1.380   2.978 -0.0526 -0.2737  0.2685
  404TIP3    H122771   5.371   1.344   2.986 -0.4158  0.7657  1.1392
  404TIP3    H222772   5.513   1.306   2.951 -1.1664 -0.9455 -0.1722
  405TIP3   OH222773   1.956   2.838   0.889 -0.2083  0.1972 -0.2617
  405TIP3    H122774   1.987   2.875   0.806  0.5912 -0.5570 -0.3115
  405TIP3    H222775   1.958   2.743   0.875  1.5139 -0.0334  1.1376
  406TIP3   OH222776   5.931   1.278   0.779 -0.4543  0.2233 -0.0442
  406TIP3    H122777   5.882   1.220   0.721  0.9975 -0.9285 -0.1605
  406TIP3    H222778   5.980   1.336   0.720  0.4759 -0.4859  0.0068
  407TIP3   OH222779   6.145   6.780   7.326  0.2583 -0.2181 -1.0153
  407TIP3    H122780   6.073   6.783   7.390  0.2876  0.3790 -1.0017
  407TIP3    H222781   6.139   6.693   7.287 -0.9290  0.0642 -1.5241
  408TIP3   OH222782   4.771   5.139   8.386  0.4736  0.2204 -0.5298
  408TIP3    H122783   4.772   5.067   8.323  1.2176  0.5057 -0.8571
  408TIP3    H222784   4.707   5.201   8.352 -0.2574 -0.3338 -0.1843
  409TIP3   OH222785   1.907   4.920   7.307  0.5901 -0.0130  0.2643
  409TIP3    H122786   1.894   4.965   7.224  1.0591  1.5377  0.9849
  409TIP3    H222787   1.831   4.945   7.360  1.3913  0.8618  1.0424
  410TIP3   OH222788   1.846   4.286   7.980 -0.0328  0.3212  0.0302
  410TIP3    H122789   1.836   4.378   8.005 -0.6375  0.2322  0.1171
  410TIP3    H222790   1.815   4.238   8.056 -1.2398  0.0432 -0.6290
  411TIP3   OH222791   0.968   1.552   6.753 -0.3087 -0.0133 -0.9773
  411TIP3    H122792   1.041   1.598   6.712  0.6943 -0.6450  0.0258
  411TIP3    H222793   0.912   1.622   6.788  1.2029  0.5129  0.5565
  412TIP3   OH222794   1.914   6.173   0.576  0.6364 -0.3122 -0.5248
  412TIP3    H122795   1.887   6.137   0.660 -0.8204 -0.4354 -1.0167
  412TIP3    H222796   1.965   6.103   0.535 -3.0257 -2.4116 -1.9289
  413TIP3   OH222797   5.609   2.608   7.680 -0.0610  0.4949  0.2715
  413TIP3    H122798   5.654   2.635   7.601 -1.8771 -0.4323 -1.1562
  413TIP3    H222799   5.679   2.582   7.740  1.3485  1.1748 -1.0130
  414TIP3   OH222800   5.704   1.808   1.127 -0.1245  0.1382 -0.2231
  414TIP3    H122801   5.730   1.759   1.049  0.0147  1.0830 -0.7932
  414TIP3    H222802   5.663   1.887   1.093  1.7189  1.5346  0.6057
  415TIP3   OH222803   4.554   4.045   0.531 -0.0991 -0.6991 -0.1570
  415TIP3    H122804   4.571   4.120   0.587 -2.4042  0.1985 -0.5779
  415TIP3    H222805   4.495   3.990   0.581 -2.4162  0.2490 -1.6897
  416TIP3   OH222806   4.382   2.890   7.959 -0.2033  0.1393  0.2399
  416TIP3    H122807   4.306   2.849   8.000 -0.3459  1.1083  0.9867
  416TIP3    H222808   4.367   2.984   7.970  0.9973  0.3482  0.2026
  417TIP3   OH222809   1.227   4.642   0.441 -0.8146 -0.3580  0.0449
  417TIP3    H122810   1.222   4.631   0.536 -2.4595  0.3128  0.0710
  417TIP3    H222811   1.295   4.709   0.428 -0.5656 -0.4703  0.7282
  418TIP3   OH222812   0.838   4.375   0.315 -0.1756  0.3646 -0.2159
  418TIP3    H122813   0.844   4.280   0.306  1.1983  0.3821  0.3361
  418TIP3    H222814   0.852   4.392   0.408 -2.7001  0.9831  0.1230
  419TIP3   OH222815   5.904   3.450   0.968 -0.5532  0.1991 -0.1646
  419TIP3    H122816   5.848   3.441   1.045 -0.9654  0.0072 -0.4864
  419TIP3    H222817   5.891   3.541   0.939  0.4966  0.6427  0.6736
  420TIP3   OH222818   3.795   2.675   7.326 -0.0280 -0.1301 -1.0854
  420TIP3    H122819   3.882   2.680   7.365 -0.6354 -1.8361  0.6521
  420TIP3    H222820   3.791   2.589   7.286 -0.5913  0.3307 -2.0723
  421TIP3   OH222821   0.125   6.284   8.553  0.1449 -0.5366  0.0018
  421TIP3    H122822   0.201   6.241   8.594 -0.3235 -0.4984  0.9507
  421TIP3    H222823   0.123   6.371   8.592  0.4737 -0.0119 -1.1368
  422TIP3   OH222824   5.794   0.629   2.655 -0.0296 -0.1620  0.3708
  422TIP3    H122825   5.715   0.636   2.602  0.9820 -0.1908 -1.2076
  422TIP3    H222826   5.770   0.667   2.739 -1.7617 -0.3314 -0.0008
  423TIP3   OH222827   2.270   1.939   2.112  0.0624 -0.0079  0.6051
  423TIP3    H122828   2.200   1.945   2.177  0.5104 -0.5255  1.1512
  423TIP3    H222829   2.300   1.848   2.118  0.0196 -0.1004 -0.4273
  424TIP3   OH222830   2.941   3.522   1.556 -0.3454 -0.2624 -0.3062
  424TIP3    H122831   2.940   3.555   1.466 -3.1407  1.1817  0.1552
  424TIP3    H222832   2.912   3.596   1.609 -0.5262 -1.6190  1.5811
  425TIP3   OH222833   6.133   4.964   1.979  0.5441 -0.4578  0.1016
  425TIP3    H122834   6.220   4.943   1.943  1.5911  1.1853  1.5252
  425TIP3    H222835   6.088   4.880   1.983  3.1858 -1.9110  2.1438
  426TIP3   OH222836   5.821   2.253   0.176  0.4114 -0.0216  0.0685
  426TIP3    H122837   5.887   2.279   0.113  1.3196 -0.1523  0.9489
  426TIP3    H222838   5.794   2.335   0.218 -1.3100  0.2865 -1.5003
  427TIP3   OH222839   1.590   4.267   0.036 -0.3627 -0.4981 -0.8018
  427TIP3    H122840   1.507   4.298   0.074 -0.2026  2.6660 -2.6374
  427TIP3    H222841   1.565   4.232  -0.049  0.0348 -0.6723 -0.8447
  428TIP3   OH222842   4.361   4.794   1.122 -0.1818 -0.2972  0.3332
  428TIP3    H122843   4.432   4.771   1.063 -0.6020 -2.8243  0.6976
  428TIP3    H222844   4.387   4.878   1.159  1.3839  0.0447 -1.4012
  429TIP3   OH222845   0.796   3.475   2.994 -0.0738  0.7011  0.4211
  429TIP3    H122846   0.886   3.448   2.976 -0.3588 -0.3815  0.5448
  429TIP3    H222847   0.751   3.464   2.911 -0.1139  1.1597  0.3810
  430TIP3   OH222848   4.290   5.517   2.252 -0.3285 -0.7646  0.9095
  430TIP3    H122849   4.364   5.504   2.312 -0.3370 -0.7153  0.9307
  430TIP3    H222850   4.213   5.493   2.305 -0.2623 -1.6327  0.6316
  431TIP3   OH222851   4.615   6.752   0.954  0.0752  0.1254 -0.2598
  431TIP3    H122852   4.617   6.698   1.033 -1.8030  1.3367  0.6979
  431TIP3    H222853   4.527   6.737   0.918  0.4855  0.5067 -1.4785
  432TIP3   OH222854   2.401   3.555   6.727 -0.1651  0.2139 -0.1677
  432TIP3    H122855   2.323   3.596   6.765 -0.6836 -1.2101  0.3594
  432TIP3    H222856   2.369   3.512   6.648  0.5365  1.4637 -1.1842
  433TIP3   OH222857   4.291   1.339   0.848  0.2331 -0.3262 -0.2911
  433TIP3    H122858   4.321   1.399   0.780  0.1487 -0.5742 -0.5490
  433TIP3    H222859   4.252   1.396   0.915 -0.2188 -0.1178 -0.7250
  434TIP3   OH222860   1.665   4.345   8.272 -0.5237  0.2133  0.0097
  434TIP3    H122861   1.591   4.291   8.297 -0.7374  0.5154  0.0413
  434TIP3    H222862   1.639   4.434   8.298  1.7685 -0.1754  4.6371
  435TIP3   OH222863   6.473   4.638   7.146 -0.4913  0.4654 -0.4164
  435TIP3    H122864   6.564   4.617   7.125  0.1882  1.0111  1.7570
  435TIP3    H222865   6.476   4.726   7.182 -1.9248  0.5562 -0.4737
  436TIP3   OH222866   0.774   4.027   2.401 -0.8203  0.4977  0.4186
  436TIP3    H122867   0.845   4.069   2.353 -0.7665 -0.0734 -0.0154
  436TIP3    H222868   0.804   4.027   2.492  0.5936 -1.3629  0.0122
  437TIP3   OH222869   4.864   3.662   8.147  0.2460 -0.1723  0.0047
  437TIP3    H122870   4.888   3.660   8.054  2.2302  0.0129  0.4806
  437TIP3    H222871   4.864   3.754   8.170 -2.6575 -0.0067 -0.3441
  438TIP3   OH222872   3.035   0.232   2.323 -0.6172  0.2669  0.3915
  438TIP3    H122873   3.064   0.146   2.353 -0.0200  0.0914 -0.6625
  438TIP3    H222874   2.942   0.219   2.301 -0.7960  0.1540  1.1684
  439TIP3   OH222875   0.432   4.457   0.278 -0.6218  0.7309 -0.6817
  439TIP3    H122876   0.458   4.547   0.298  1.1548  0.2910 -0.8657
  439TIP3    H222877   0.472   4.439   0.193 -0.2763 -0.4910 -0.2743
  440TIP3   OH222878   1.969   6.569   7.006  0.0948  0.6078  0.0574
  440TIP3    H122879   1.964   6.612   6.920 -0.1303  1.1202  0.3263
  440TIP3    H222880   2.030   6.496   6.992  0.3486  0.9065 -0.4410
  441TIP3   OH222881   5.578   1.980   0.549 -0.2634  0.0078 -0.2498
  441TIP3    H122882   5.642   2.041   0.511  0.2156 -0.0525  0.4399
  441TIP3    H222883   5.584   1.996   0.644 -2.9252  1.6426 -0.2550
  442TIP3   OH222884   4.869   6.380   0.555 -0.4054  0.1072 -0.5426
  442TIP3    H122885   4.779   6.387   0.589  0.7948 -1.0332  3.4094
  442TIP3    H222886   4.921   6.437   0.613  1.9216 -2.2677 -0.1074
  443TIP3   OH222887   4.977   1.600   7.232  0.1116 -0.7002  0.5657
  443TIP3    H122888   4.967   1.564   7.144 -0.0067 -1.0739  0.7312
  443TIP3    H222889   5.068   1.580   7.255 -0.1127 -1.3661  0.8687
  444TIP3   OH222890   0.840   4.962   2.073 -0.9834  0.1769  0.2166
  444TIP3    H122891   0.776   4.890   2.074  0.6625 -1.5098 -2.8288
  444TIP3    H222892   0.908   4.934   2.135 -1.2280  0.0323  0.4237
  445TIP3   OH222893   4.039   4.349   0.024 -0.3229 -0.0965  0.1567
  445TIP3    H122894   3.968   4.389  -0.027 -0.3606 -0.3244  0.0267
  445TIP3    H222895   4.021   4.376   0.114 -0.5985 -0.1806  0.1303
  446TIP3   OH222896   4.738   5.557   1.265 -0.2021 -0.9735 -0.0722
  446TIP3    H122897   4.698   5.482   1.221 -0.7502 -1.4366  1.1802
  446TIP3    H222898   4.690   5.633   1.230 -0.6362 -1.3285 -0.2611
  447TIP3   OH222899   2.655   2.998   7.158  0.2433 -0.4331  0.2420
  447TIP3    H122900   2.592   2.998   7.086  1.7762  1.1768 -1.1974
  447TIP3    H222901   2.712   2.923   7.140  0.4950 -0.1592 -0.1080
  448TIP3   OH222902   4.213   0.583   1.698  0.3695  0.5695  0.0497
  448TIP3    H122903   4.236   0.511   1.757 -2.6318 -0.7286 -0.1739
  448TIP3    H222904   4.296   0.627   1.680  2.0612 -1.7523  1.5995
  449TIP3   OH222905   3.377   3.868   0.189 -0.4589 -0.1623 -0.4851
  449TIP3    H122906   3.298   3.824   0.221 -1.0546  0.0942 -1.5566
  449TIP3    H222907   3.432   3.877   0.267 -2.1251  1.0586  0.6387
  450TIP3   OH222908   5.575   3.182   7.319 -0.3581  0.4019  0.5562
  450TIP3    H122909   5.586   3.209   7.228  0.2015  2.0599  1.0794
  450TIP3    H222910   5.602   3.091   7.321 -0.5834  0.2770 -0.9692
  451TIP3   OH222911   5.556   3.894   7.920  0.0209 -0.5464  0.0560
  451TIP3    H122912   5.628   3.902   7.857  0.2113  0.2796  0.3692
  451TIP3    H222913   5.481   3.933   7.875  0.1562  0.0418  0.3383
  452TIP3   OH222914   6.716   3.679   0.681  0.0823 -0.0070  0.5152
  452TIP3    H122915   6.762   3.708   0.603  0.1918 -1.0924  0.1592
  452TIP3    H222916   6.716   3.583   0.675 -3.5158 -0.1184 -0.3073
  453TIP3   OH222917   1.969   1.866   2.202  0.3736 -0.3750 -0.0932
  453TIP3    H122918   1.911   1.789   2.199 -0.0013 -0.1496  1.1500
  453TIP3    H222919   1.917   1.936   2.163  0.2554 -0.4607 -0.0918
  454TIP3   OH222920   2.347   0.955   2.710  0.2742  0.1008 -0.0052
  454TIP3    H122921   2.433   0.981   2.678  0.8560 -1.1806  0.4460
  454TIP3    H222922   2.354   0.861   2.725 -0.8818  0.1465  1.0276
  455TIP3   OH222923   2.954   3.563   7.458 -0.3627  0.1068  0.3133
  455TIP3    H122924   2.915   3.649   7.441 -1.5120 -0.6727 -1.3380
  455TIP3    H222925   2.962   3.557   7.553  1.2272  2.6411  0.4266
  456TIP3   OH222926   6.411   3.442   1.949  0.4750 -0.1046  0.3976
  456TIP3    H122927   6.479   3.510   1.948  0.9574 -0.4525  2.9203
  456TIP3    H222928   6.330   3.490   1.968  0.3004  0.1000 -0.8259
  457TIP3   OH222929   2.822   6.136   0.873 -0.1972  0.3806  0.5755
  457TIP3    H122930   2.905   6.159   0.830  0.0004 -3.1893 -1.3523
  457TIP3    H222931   2.839   6.151   0.966  2.4883  0.2740  0.2040
  458TIP3   OH222932   6.883   1.543   8.120  0.5140 -0.1306 -0.0464
  458TIP3    H122933   6.848   1.546   8.031 -1.2329  0.0158  0.6059
  458TIP3    H222934   6.829   1.478   8.165  1.9831 -0.8904  0.6820
  459TIP3   OH222935   6.252   3.822   7.271  0.0795 -0.0728  0.8266
  459TIP3    H122936   6.271   3.916   7.279 -0.6994  0.3060 -1.2049
  459TIP3    H222937   6.159   3.818   7.249  0.6664 -1.0800 -1.9196
  460TIP3   OH222938   6.039   1.333   3.065  0.3055 -0.5453  0.2198
  460TIP3    H122939   5.973   1.295   3.122  0.0780 -0.3963  0.0548
  460TIP3    H222940   6.121   1.293   3.094 -0.0532 -2.0464 -0.6898
  461TIP3   OH222941   3.118   0.667   2.121 -0.3686  0.3471 -0.1310
  461TIP3    H122942   3.154   0.595   2.172  0.3059 -0.8012 -2.0888
  461TIP3    H222943   3.169   0.744   2.147  1.1644 -0.5613 -0.3170
  462TIP3   OH222944   6.546   3.344   8.112  0.1866  0.3339  0.0570
  462TIP3    H122945   6.538   3.311   8.201  1.8265  0.5338  0.3180
  462TIP3    H222946   6.483   3.415   8.106 -1.2208 -0.8375  0.4636
  463TIP3   OH222947   2.962   1.576   1.448  0.0407 -0.1741 -0.6332
  463TIP3    H122948   2.895   1.521   1.488 -1.3420  0.8940 -1.4212
  463TIP3    H222949   2.944   1.572   1.354 -0.1112  1.6076 -0.7137
  464TIP3   OH222950   3.475   1.214   1.324 -0.2322 -0.7100 -0.1673
  464TIP3    H122951   3.479   1.204   1.419  0.5456 -1.0366 -0.2213
  464TIP3    H222952   3.408   1.280   1.309 -1.3087 -1.6159  0.5446
  465TIP3   OH222953   5.144   2.288   2.078 -0.4635  0.6903 -0.2065
  465TIP3    H122954   5.223   2.248   2.042 -0.9145  0.2593 -0.7378
  465TIP3    H222955   5.075   2.267   2.015 -0.9999  1.0802  0.2341
  466TIP3   OH222956   4.265   3.728   2.553 -0.2401  0.1536 -0.3238
  466TIP3    H122957   4.207   3.673   2.500 -0.7876  0.8219 -0.4367
  466TIP3    H222958   4.324   3.666   2.596  0.0680 -0.4146 -1.5317
  467TIP3   OH222959   3.353   5.434   7.301  0.1901  0.1614 -0.4197
  467TIP3    H122960   3.327   5.414   7.211  1.8059  0.4385 -0.9901
  467TIP3    H222961   3.312   5.518   7.321  0.6365  0.5941 -1.2793
  468TIP3   OH222962   2.234   6.281   0.100  0.1131  0.0452  0.3605
  468TIP3    H122963   2.319   6.291   0.141 -0.1087 -0.3423  0.9337
  468TIP3    H222964   2.182   6.233   0.164  0.3529 -2.3978 -1.1744
  469TIP3   OH222965   1.054   2.968   1.006  0.5025  0.9744  0.1607
  469TIP3    H122966   1.066   3.058   1.038  0.2147  0.8539  0.6121
  469TIP3    H222967   1.036   2.979   0.912  2.0758  1.2758 -0.1264
  470TIP3   OH222968   0.640   1.724   1.978 -0.3166 -0.6341  0.0081
  470TIP3    H122969   0.713   1.724   2.040 -1.3572  1.3533  1.3585
  470TIP3    H222970   0.651   1.805   1.929 -2.2170  0.3647  1.0972
  471TIP3   OH222971   6.847   4.773   1.432  0.6489  0.1356 -0.1598
  471TIP3    H122972   6.774   4.712   1.424 -1.3356  2.5164 -1.9746
  471TIP3    H222973   6.862   4.804   1.343  1.6819  2.1072  0.6394
  472TIP3   OH222974   6.763   1.077   1.336 -0.3036 -0.4155 -0.1183
  472TIP3    H122975   6.849   1.101   1.303 -0.3278 -0.2562 -0.0648
  472TIP3    H222976   6.778   1.053   1.428 -0.4651  0.5096  0.1566
  473TIP3   OH222977   0.832   0.484   0.814  0.0631 -0.1758 -0.3191
  473TIP3    H122978   0.886   0.504   0.737 -0.3164  1.0642 -0.2841
  473TIP3    H222979   0.886   0.425   0.866  0.9192  0.1234 -0.8454
  474TIP3   OH222980   0.091   0.716   3.050 -0.5370 -0.0273  0.4151
  474TIP3    H122981   0.068   0.757   3.134  2.8441  1.4351  0.8003
  474TIP3    H222982   0.100   0.789   2.989  0.6121 -0.7004 -0.2530
  475TIP3   OH222983   1.849   0.848   6.581 -0.0815 -0.2206  0.0874
  475TIP3    H122984   1.896   0.855   6.665  2.9953 -1.5483 -1.3602
  475TIP3    H222985   1.812   0.935   6.567  0.7475  0.5141  2.0622
  476TIP3   OH222986   6.589   5.986   0.026 -1.1321  0.2870  0.0013
  476TIP3    H122987   6.512   6.030   0.062 -1.6879  0.2642 -1.1102
  476TIP3    H222988   6.652   6.056   0.011 -0.7176  0.2475  1.3694
  477TIP3   OH222989   4.816   0.959   2.923  0.4358  0.5032  0.1549
  477TIP3    H122990   4.738   0.954   2.867  0.2902 -0.8733  0.4556
  477TIP3    H222991   4.800   0.894   2.992  3.1292 -2.0348 -1.4081
  478TIP3   OH222992   0.779   0.677   0.110 -0.2144  0.2570  0.3200
  478TIP3    H122993   0.859   0.720   0.138  1.4950 -1.5320 -1.5209
  478TIP3    H222994   0.747   0.730   0.037 -0.5587  0.8075  0.8654
  479TIP3   OH222995   6.535   5.450   0.839 -0.1113 -0.6764 -0.2331
  479TIP3    H122996   6.599   5.426   0.907  1.2280  1.3779 -0.6655
  479TIP3    H222997   6.455   5.469   0.887 -0.4980 -3.3507  0.3222
  480TIP3   OH222998   3.482   1.088   2.266  0.2835  0.0467 -0.1986
  480TIP3    H122999   3.529   1.165   2.234  2.4772 -1.4510 -0.8072
  480TIP3    H223000   3.456   1.041   2.186  0.5030 -0.6999  0.1599
  481TIP3   OH223001   1.044   1.378   8.053  0.4266 -0.3806  0.2060
  481TIP3    H123002   1.109   1.309   8.038 -0.7881 -1.6712  0.6488
  481TIP3    H223003   1.078   1.453   8.005  1.4384 -1.4923 -0.9106
  482TIP3   OH223004   0.902   5.323   7.338 -0.6874 -0.9600  0.4681
  482TIP3    H123005   0.968   5.280   7.392 -0.9163  0.3276  1.8435
  482TIP3    H223006   0.948   5.342   7.256  0.7683  0.0954  1.4751
  483TIP3   OH223007   0.289   1.792   7.450  0.0699 -0.6210 -0.0817
  483TIP3    H123008   0.328   1.803   7.537  0.7833  0.1070 -0.4852
  483TIP3    H223009   0.267   1.699   7.445 -0.4468 -0.5730  1.0743
  484TIP3   OH223010   3.127   4.694   1.838  0.2624  0.0690  0.1040
  484TIP3    H123011   3.074   4.619   1.863  0.9517 -0.4094  0.1332
  484TIP3    H223012   3.120   4.754   1.912  2.9125 -1.6504  1.9238
  485TIP3   OH223013   3.531   1.801   0.474 -0.0425  0.0929  0.9479
  485TIP3    H123014   3.590   1.876   0.479 -1.1280  1.0856 -0.4011
  485TIP3    H223015   3.586   1.729   0.443  0.6193  0.8043  0.4370
  486TIP3   OH223016   3.780   4.009   7.673  0.1584 -0.1012 -0.2930
  486TIP3    H123017   3.850   4.005   7.608  2.8862  1.4617  2.2855
  486TIP3    H223018   3.727   4.084   7.646  0.7566  0.0312 -1.1381
  487TIP3   OH223019   3.873   2.064   8.107 -0.5534  0.7293 -0.4047
  487TIP3    H123020   3.901   2.116   8.032 -1.0479  1.0429 -0.3753
  487TIP3    H223021   3.791   2.023   8.079  0.7234 -1.5177 -1.0978
  488TIP3   OH223022   2.151   3.409   0.119  0.2087  0.1356 -0.0625
  488TIP3    H123023   2.155   3.502   0.142 -0.6956  0.2276 -0.2425
  488TIP3    H223024   2.171   3.406   0.026 -1.6844  0.3815 -0.5141
  489TIP3   OH223025   5.607   2.270   7.424  0.2715 -0.6530  0.0767
  489TIP3    H123026   5.602   2.275   7.519 -1.0200  0.9399 -0.0260
  489TIP3    H223027   5.538   2.329   7.393  2.2849  0.8828 -1.8332
  490TIP3   OH223028   2.615   2.399   0.553 -0.1145  0.5041  0.5048
  490TIP3    H123029   2.614   2.494   0.545  1.6686  0.4031 -2.1289
  490TIP3    H223030   2.696   2.380   0.601  1.2949  0.2843 -1.8207
  491TIP3   OH223031   2.322   3.727   2.974  0.5379  0.5756  0.0403
  491TIP3    H123032   2.363   3.786   3.037 -0.5202 -0.0471  1.3601
  491TIP3    H223033   2.234   3.713   3.007  0.1969 -0.3824 -1.1780
  492TIP3   OH223034   3.753   6.716   2.333  0.4742 -0.1341 -0.7452
  492TIP3    H123035   3.705   6.690   2.411 -1.0031 -1.7321 -2.1198
  492TIP3    H223036   3.807   6.789   2.362 -1.5280  0.6512  1.2740
  493TIP3   OH223037   5.739   2.779   8.426  0.2570 -0.7698  0.0628
  493TIP3    H123038   5.766   2.870   8.412  0.6422 -1.0236 -0.9309
  493TIP3    H223039   5.819   2.728   8.412 -0.0160 -1.2856  0.3593
  494TIP3   OH223040   6.253   6.244   7.902  0.5568 -0.8999 -0.3698
  494TIP3    H123041   6.159   6.231   7.916  0.8688 -0.5914  2.7218
  494TIP3    H223042   6.259   6.334   7.868 -0.2322 -0.5313  0.4107
  495TIP3   OH223043   1.742   2.335   7.647  0.2005 -0.2366  0.5098
  495TIP3    H123044   1.659   2.381   7.639  0.7791  0.9962  1.3297
  495TIP3    H223045   1.722   2.245   7.620 -1.2019  0.2202 -0.0637
  496TIP3   OH223046   0.156   0.023   0.762  0.4453  0.0813 -0.2593
  496TIP3    H123047   0.227   0.030   0.826 -0.0279  1.3266  0.1691
  496TIP3    H223048   0.197   0.041   0.678  0.6887  0.5974 -0.0363
  497TIP3   OH223049   2.310   0.222   8.093 -0.0353  0.1767 -0.3079
  497TIP3    H123050   2.223   0.190   8.117 -0.2758 -0.6266 -2.1441
  497TIP3    H223051   2.371   0.168   8.145 -0.5818  0.2486  0.4292
  498TIP3   OH223052   0.680   3.364   7.320  0.2453  0.1994  0.1592
  498TIP3    H123053   0.699   3.315   7.400  2.4766 -0.7154 -0.8487
  498TIP3    H223054   0.706   3.454   7.341 -0.5557  0.2726  0.9007
  499TIP3   OH223055   2.590   5.688   8.503 -0.3886 -0.0585  0.3397
  499TIP3    H123056   2.590   5.595   8.480  1.4678 -0.4297  1.5525
  499TIP3    H223057   2.610   5.689   8.597  2.0025  1.5721 -0.0880
  500TIP3   OH223058   3.693   4.652   0.304  0.4949  0.3204 -0.1616
  500TIP3    H123059   3.734   4.733   0.335 -1.7438  1.5638 -0.1940
  500TIP3    H223060   3.661   4.609   0.384 -0.8434  0.9839 -0.3004
  501TIP3   OH223061   2.168   6.279   0.379  0.6735  0.1440  0.2501
  501TIP3    H123062   2.129   6.351   0.428 -0.0440  0.1255 -0.2717
  501TIP3    H223063   2.236   6.245   0.437  1.7140  1.8600  0.0993
  502TIP3   OH223064   6.111   3.994   8.249  0.1449  0.2290 -0.5565
  502TIP3    H123065   6.199   4.014   8.279  0.1104 -0.6104  0.1650
  502TIP3    H223066   6.063   4.076   8.258  0.7657  0.6048 -0.6371
  503TIP3   OH223067   6.412   4.898   1.960 -0.5721 -0.4307  0.5930
  503TIP3    H123068   6.416   4.856   2.046  1.5149  1.3769  1.4930
  503TIP3    H223069   6.500   4.885   1.923  0.2881  3.1397  1.0395
  504TIP3   OH223070   1.246   2.220   0.014  0.6189  0.3048  0.8611
  504TIP3    H123071   1.172   2.270   0.048 -1.5992 -1.3692 -1.1936
  504TIP3    H223072   1.288   2.281  -0.048 -1.5350  0.0937 -0.9660
  505TIP3   OH223073   2.071   2.116   8.030  0.2577 -0.1728  0.4251
  505TIP3    H123074   2.085   2.039   7.976 -3.2779 -1.5396  1.1904
  505TIP3    H223075   2.087   2.085   8.120  0.1678  0.3487  0.6237
  506TIP3   OH223076   5.872   1.289   1.546 -0.0162 -0.8411  0.4340
  506TIP3    H123077   5.801   1.352   1.542  0.3545 -0.2337  2.3469
  506TIP3    H223078   5.941   1.326   1.491 -1.1795 -1.5630 -1.6582
  507TIP3   OH223079   3.362   2.870   0.124  0.1663  0.2837  0.2928
  507TIP3    H123080   3.276   2.876   0.083  0.8855 -0.4087 -1.3910
  507TIP3    H223081   3.388   2.962   0.137 -1.1017  0.5101  1.5276
  508TIP3   OH223082   5.364   0.129   1.066  0.9513  0.2897 -0.2527
  508TIP3    H123083   5.289   0.177   1.030 -0.6832 -1.7919  0.1428
  508TIP3    H223084   5.410   0.097   0.988 -1.9583 -3.2785 -0.7893
  509TIP3   OH223085   5.622   3.621   7.942 -0.4858  0.0571  0.3488
  509TIP3    H123086   5.590   3.712   7.939 -0.8547 -0.0728  0.2070
  509TIP3    H223087   5.716   3.629   7.953  0.0873  0.5734 -3.4816
  510TIP3   OH223088   4.317   3.544   7.745  0.2020 -0.1862  0.2106
  510TIP3    H123089   4.334   3.472   7.805  0.7246 -0.8300 -0.6871
  510TIP3    H223090   4.266   3.607   7.797  1.5657 -0.2089  1.6421
  511TIP3   OH223091   2.775   0.683   6.960 -0.1672  0.4154  0.2260
  511TIP3    H123092   2.756   0.591   6.979  1.2374 -0.1012 -0.7407
  511TIP3    H223093   2.711   0.732   7.012 -1.3584 -1.1145  0.2622
  512TIP3   OH223094   3.273   5.616   2.055 -0.3668  0.1395  0.2467
  512TIP3    H123095   3.317   5.593   2.138 -0.5368 -1.3087 -0.0301
  512TIP3    H223096   3.182   5.591   2.069 -0.8250  1.7517  0.2934
  513TIP3   OH223097   4.154   4.672   0.267 -0.1260 -0.5964  0.3191
  513TIP3    H123098   4.076   4.616   0.266 -0.5550  0.0034  0.1986
  513TIP3    H223099   4.123   4.756   0.300  0.6096 -0.5537  0.9446
  514TIP3   OH223100   0.330   5.267   2.436  0.4948  0.2830  0.0001
  514TIP3    H123101   0.420   5.268   2.402  1.0586  0.3029  1.4172
  514TIP3    H223102   0.279   5.317   2.372  1.4622  0.1552 -0.8927
  515TIP3   OH223103   2.526   5.680   1.120  0.7355  0.1760  0.0159
  515TIP3    H123104   2.561   5.591   1.132  1.1586  0.1029 -1.5378
  515TIP3    H223105   2.521   5.715   1.208  0.0616 -1.5733  0.7218
  516TIP3   OH223106   2.109   6.748   2.122 -0.0356 -0.4444 -0.5182
  516TIP3    H123107   2.157   6.776   2.200 -0.1848 -0.0590 -0.5658
  516TIP3    H223108   2.059   6.825   2.096  0.9391 -0.1798 -1.7083
  517TIP3   OH223109   0.537   2.644   0.231 -0.1651  0.6781 -0.0262
  517TIP3    H123110   0.547   2.700   0.153 -0.0966  0.7288  0.0191
  517TIP3    H223111   0.510   2.705   0.300 -2.0129  0.3873 -0.4224
  518TIP3   OH223112   0.733   5.197   1.954 -0.1579  0.0615  0.3184
  518TIP3    H123113   0.647   5.158   1.936  0.7213 -1.2186 -1.3433
  518TIP3    H223114   0.777   5.134   2.010 -0.4498  0.9682  1.6204
  519TIP3   OH223115   2.757   6.335   2.313 -0.5126 -0.4485  0.1623
  519TIP3    H123116   2.829   6.341   2.251 -0.4262  0.6653  0.3558
  519TIP3    H223117   2.704   6.261   2.282 -1.6379  1.3432 -2.4657
  520TIP3   OH223118   5.046   5.320   1.640  0.7814 -0.1585 -0.3013
  520TIP3    H123119   5.008   5.311   1.552 -0.3048 -0.1675  0.1428
  520TIP3    H223120   5.057   5.414   1.653  2.2809 -0.2170 -0.9683
  521TIP3   OH223121   3.343   1.565   3.173 -0.1595 -0.2553  0.3062
  521TIP3    H123122   3.316   1.556   3.081  1.0636  1.1357 -0.2288
  521TIP3    H223123   3.280   1.627   3.210  1.0571  1.5312 -0.4455
  522TIP3   OH223124   0.877   1.785   0.239 -0.3714 -0.2753 -0.0481
  522TIP3    H123125   0.942   1.845   0.202  0.3877  0.0188  1.6635
  522TIP3    H223126   0.801   1.793   0.180  0.6648  0.3230 -1.3688
  523TIP3   OH223127   2.173   6.602   2.781  0.3586 -0.1844  0.0196
  523TIP3    H123128   2.099   6.552   2.815  0.1498 -1.1852 -1.7675
  523TIP3    H223129   2.133   6.675   2.733  0.5406 -0.4600 -0.5538
  524TIP3   OH223130   5.860   2.656   8.116  0.1389  0.3651  0.3472
  524TIP3    H123131   5.813   2.737   8.134 -0.3152  0.0715  0.5034
  524TIP3    H223132   5.801   2.587   8.146  0.8966  0.0058  1.0352
  525TIP3   OH223133   0.851   6.537   2.669 -0.6015  0.1487 -0.3867
  525TIP3    H123134   0.811   6.459   2.708  1.7704 -1.2484 -0.5598
  525TIP3    H223135   0.926   6.556   2.724 -0.2502  1.4121 -1.2432
  526TIP3   OH223136   2.148   5.855   7.137 -0.3259  0.2577  0.1591
  526TIP3    H123137   2.182   5.942   7.157 -0.8723  0.3396  0.7661
  526TIP3    H223138   2.060   5.870   7.102 -0.8326 -0.0874  1.2300
  527TIP3   OH223139   0.373   5.696   1.744  0.2716  0.2217  0.0267
  527TIP3    H123140   0.304   5.738   1.693  0.9425  0.8780 -0.3524
  527TIP3    H223141   0.432   5.767   1.769  0.4842 -0.2340  0.8875
  528TIP3   OH223142   4.782   4.905   2.185 -0.8084  0.0880 -0.3779
  528TIP3    H123143   4.709   4.962   2.208 -0.3946  0.1318  0.9474
  528TIP3    H223144   4.833   4.898   2.267 -0.0938 -1.0444 -0.9008
  529TIP3   OH223145   1.139   1.110   0.050  0.6157  0.6907 -0.1844
  529TIP3    H123146   1.192   1.165   0.108 -0.3160  0.5294  0.8656
  529TIP3    H223147   1.071   1.074   0.108  0.9219 -1.1850 -0.9545
  530TIP3   OH223148   0.616   2.497   6.881 -0.0640  0.1884 -0.5615
  530TIP3    H123149   0.534   2.447   6.878 -1.2747  1.9913  0.4694
  530TIP3    H223150   0.624   2.534   6.793 -0.6329  0.3944 -0.5338
  531TIP3   OH223151   5.077   5.402   7.745 -0.2704  0.5424 -0.1817
  531TIP3    H123152   5.054   5.330   7.803  0.7292 -0.7916 -1.3712
  531TIP3    H223153   5.158   5.437   7.781  0.5482 -0.5219 -0.9336
  532TIP3   OH223154   3.002   5.951   8.470 -0.0728  0.0797 -0.4433
  532TIP3    H123155   2.937   5.965   8.539  0.4851 -0.2856  0.1727
  532TIP3    H223156   2.961   5.889   8.410 -0.4461  0.1624 -0.2775
  533TIP3   OH223157   0.580   0.480   8.582 -0.1990  0.8747  0.2504
  533TIP3    H123158   0.638   0.537   8.532  0.7968  1.3410  1.8636
  533TIP3    H223159   0.538   0.538   8.646  1.5809 -0.2470  2.5949
  534TIP3   OH223160   4.322   6.264   1.267 -0.0573  0.0194 -0.5686
  534TIP3    H123161   4.385   6.259   1.194  1.0517  0.4956  0.3167
  534TIP3    H223162   4.369   6.227   1.341 -0.6616  0.8287  0.2326
  535TIP3   OH223163   2.773   4.451   8.128 -0.0769  0.1091  0.4316
  535TIP3    H123164   2.803   4.540   8.110  0.7308 -0.1968  0.2611
  535TIP3    H223165   2.831   4.395   8.078  0.3057 -0.5917  1.6219
  536TIP3   OH223166   5.477   5.461   0.903 -0.5678  0.5475 -0.2996
  536TIP3    H123167   5.430   5.519   0.843 -1.5319  0.2827  0.1925
  536TIP3    H223168   5.437   5.375   0.889  0.2440  0.1729 -0.3713
  537TIP3   OH223169   5.508   4.718   8.116 -0.4788  0.3717 -0.1515
  537TIP3    H123170   5.540   4.723   8.206  0.1823 -1.6397 -0.2235
  537TIP3    H223171   5.481   4.808   8.095 -0.2608  0.9649  1.8875
  538TIP3   OH223172   4.836   6.847   1.713 -0.5748 -0.4018 -0.4352
  538TIP3    H123173   4.917   6.883   1.749 -0.8434  1.8000 -1.8114
  538TIP3    H223174   4.826   6.892   1.629 -3.3779 -0.3905 -0.1691
  539TIP3   OH223175   3.160   0.043   7.814  0.3783 -0.5270  0.0271
  539TIP3    H123176   3.244   0.009   7.846  0.0693 -1.2216  0.1265
  539TIP3    H223177   3.123  -0.030   7.765  1.2445  0.7872 -2.7738
  540TIP3   OH223178   6.818   3.252   8.125  0.1733  0.1567 -0.5284
  540TIP3    H123179   6.862   3.328   8.164 -0.4823 -0.1675  0.9444
  540TIP3    H223180   6.738   3.287   8.087  1.0507  0.5531 -2.0653
  541TIP3   OH223181   2.065   5.926   0.716 -0.5222 -0.0020  0.0105
  541TIP3    H123182   2.135   5.934   0.781 -1.5782  0.8344  1.0844
  541TIP3    H223183   2.105   5.956   0.634  0.8729 -1.2105  0.2106
  542TIP3   OH223184   3.473   3.290   2.763 -0.4584  0.2007  0.0475
  542TIP3    H123185   3.487   3.384   2.752 -0.3202  0.0409 -1.3655
  542TIP3    H223186   3.545   3.250   2.714 -1.4759 -0.6234 -0.8050
  543TIP3   OH223187   4.635   0.327   2.702 -0.2392  0.2100 -0.3493
  543TIP3    H123188   4.718   0.320   2.655 -0.2592  1.0946 -0.5269
  543TIP3    H223189   4.635   0.415   2.738  0.0304 -0.6234  1.8168
  544TIP3   OH223190   4.499   5.002   7.664  0.5226  0.3629  0.8349
  544TIP3    H123191   4.436   4.996   7.592 -0.3577  1.0792  1.5189
  544TIP3    H223192   4.556   4.926   7.651  1.3068  1.2459 -1.4417
  545TIP3   OH223193   2.569   0.119   7.548  0.1024  0.3544  0.4762
  545TIP3    H123194   2.493   0.176   7.559 -0.0714  0.2944 -0.3709
  545TIP3    H223195   2.557   0.079   7.462  0.8642 -0.0043  0.5302
  546TIP3   OH223196   5.798   4.599   7.435  0.4710 -0.0527 -0.5376
  546TIP3    H123197   5.818   4.506   7.444  1.8579  0.2193 -0.6337
  546TIP3    H223198   5.819   4.620   7.344 -0.0052  0.3222 -0.5664
  547TIP3   OH223199   2.403   0.264   2.538  0.1757 -0.0371  0.3487
  547TIP3    H123200   2.341   0.217   2.594 -0.5531  0.4826 -0.0296
  547TIP3    H223201   2.433   0.338   2.592  0.9457 -0.6188  0.7557
  548TIP3   OH223202   0.369   3.647   8.008  0.3079 -0.3281  0.4815
  548TIP3    H123203   0.387   3.727   8.056  0.6070 -0.0628 -0.0561
  548TIP3    H223204   0.368   3.578   8.074  0.1715  0.0998  0.9291
  549TIP3   OH223205   5.060   3.765   0.983  0.0979 -0.2428  0.1647
  549TIP3    H123206   4.987   3.733   1.037 -0.3861  0.6244  0.0461
  549TIP3    H223207   5.045   3.859   0.975  0.8459 -0.1604 -0.4600
  550TIP3   OH223208   6.859   2.051   2.787 -0.9940 -0.0392  0.6392
  550TIP3    H123209   6.869   1.956   2.799 -0.8823  0.0421  1.1952
  550TIP3    H223210   6.808   2.059   2.706  0.4883 -0.5266 -0.3826
  551TIP3   OH223211   0.406   6.222   1.093  0.0866  0.2547 -0.8649
  551TIP3    H123212   0.399   6.167   1.016 -0.8861 -2.7702  1.2019
  551TIP3    H223213   0.500   6.241   1.102  0.2274  0.4666 -2.5829
  552TIP3   OH223214   3.882   1.832   0.081  0.2900 -0.1633 -0.4881
  552TIP3    H123215   3.822   1.860   0.012 -0.7859  1.2273  0.9410
  552TIP3    H223216   3.964   1.815   0.036 -0.7499 -0.6609 -2.2908
  553TIP3   OH223217   4.909   1.860   1.560 -0.1249 -0.3387 -0.3125
  553TIP3    H123218   4.824   1.816   1.566  1.4650 -3.5518  2.0540
  553TIP3    H223219   4.931   1.858   1.467 -2.8782  1.3617 -1.1288
  554TIP3   OH223220   3.424   3.749   7.938  0.1636 -0.0536  0.0571
  554TIP3    H123221   3.435   3.809   7.864  1.3395 -1.3493 -0.9043
  554TIP3    H223222   3.465   3.793   8.012  2.5695 -0.3023 -1.0235
  555TIP3   OH223223   5.545   6.419   7.315  0.3584 -0.2121 -0.0328
  555TIP3    H123224   5.522   6.479   7.243  1.8004  0.4392  0.0158
  555TIP3    H223225   5.618   6.368   7.280 -0.3582 -1.4357  0.2116
  556TIP3   OH223226   5.095   3.522   2.024 -0.2147  0.2741  0.6494
  556TIP3    H123227   5.148   3.565   2.091  0.4893 -0.8200  0.8398
  556TIP3    H223228   5.076   3.590   1.960  0.0942  1.0621  1.3766
  557TIP3   OH223229   2.548   2.708   1.672 -0.6357  1.0146  0.0613
  557TIP3    H123230   2.463   2.672   1.647 -1.8786  2.8228  1.4319
  557TIP3    H223231   2.553   2.792   1.628  1.2483  0.2314 -1.3447
  558TIP3   OH223232   1.424   5.665   1.228  0.2056 -0.3475  0.3583
  558TIP3    H123233   1.414   5.726   1.301  1.3279  0.8169 -0.4198
  558TIP3    H223234   1.493   5.604   1.256 -0.3053 -0.7385  0.7876
  559TIP3   OH223235   4.960   0.990   0.755 -0.1939 -0.0428 -0.1951
  559TIP3    H123236   4.926   1.069   0.712 -0.9490  0.5407  1.3895
  559TIP3    H223237   4.995   1.022   0.838  1.8064 -1.0506 -0.5841
  560TIP3   OH223238   6.093   1.819   8.556 -0.4095 -0.7282 -0.0543
  560TIP3    H123239   6.115   1.862   8.639  0.3826  0.4401 -0.8473
  560TIP3    H223240   6.110   1.885   8.489 -4.0337 -0.5292 -0.9901
  561TIP3   OH223241   0.028   6.223   2.062  0.1471  0.0874 -0.1986
  561TIP3    H123242   0.048   6.253   1.973  0.9902  1.4847  0.4393
  561TIP3    H223243  -0.055   6.265   2.084 -0.4466 -0.8494 -0.5736
  562TIP3   OH223244   3.510   1.287   2.020 -0.1649  0.1215  0.1319
  562TIP3    H123245   3.461   1.205   2.010 -2.1300  1.2571 -0.1829
  562TIP3    H223246   3.469   1.347   1.957  0.5053  1.6508  1.0932
  563TIP3   OH223247   1.829   0.039   0.240 -0.2175 -0.2104  0.3021
  563TIP3    H123248   1.755   0.097   0.225 -0.0501  0.9635  3.2394
  563TIP3    H223249   1.790  -0.046   0.260 -0.5813 -0.4285 -1.2190
  564TIP3   OH223250   6.121   2.668   0.211 -0.1946  0.0262 -0.0049
  564TIP3    H123251   6.142   2.577   0.234 -1.1819 -0.1477  0.2323
  564TIP3    H223252   6.167   2.720   0.277  2.6470 -0.1071 -1.6877
  565TIP3   OH223253   2.516   0.077   1.792 -0.2269  0.1712  0.2963
  565TIP3    H123254   2.610   0.092   1.781 -0.5677  0.9607 -2.0457
  565TIP3    H223255   2.483   0.158   1.829 -0.2563  0.6498 -0.7541
  566TIP3   OH223256   5.156   3.179   6.886  0.0017  0.2426 -0.1749
  566TIP3    H123257   5.193   3.215   6.967  0.9318  0.0999 -0.5311
  566TIP3    H223258   5.101   3.250   6.852 -0.7308  0.1628  0.7748
  567TIP3   OH223259   5.548   1.916   2.110  0.0524 -0.2599 -0.2422
  567TIP3    H123260   5.454   1.934   2.121  0.0995 -0.2601  0.2069
  567TIP3    H223261   5.585   1.930   2.198  0.7996  1.7174 -0.8238
  568TIP3   OH223262   6.797   1.308   8.499 -0.6066  0.2256  0.2576
  568TIP3    H123263   6.746   1.232   8.526 -2.9623  1.0421 -1.4890
  568TIP3    H223264   6.743   1.383   8.524  1.0604  1.3018  0.7875
  569TIP3   OH223265   6.601   4.720   2.114  0.0787  0.4168  0.2321
  569TIP3    H123266   6.686   4.742   2.152  1.0820 -0.5862 -1.3229
  569TIP3    H223267   6.539   4.736   2.185  1.2242  3.5120  0.7093
  570TIP3   OH223268   1.237   2.248   2.150 -0.6445  0.0111 -0.3849
  570TIP3    H123269   1.307   2.260   2.085 -1.5593  1.3741 -1.1707
  570TIP3    H223270   1.230   2.154   2.160 -0.5406 -0.2604 -2.3858
  571TIP3   OH223271   4.844   1.331   1.716  0.2293  0.4547  0.2402
  571TIP3    H123272   4.870   1.307   1.805 -2.7718 -1.9237  0.6342
  571TIP3    H223273   4.881   1.262   1.661 -0.1079  0.4440  0.0234
  572TIP3   OH223274   0.108   5.227   7.517 -0.0142 -0.0031  0.6974
  572TIP3    H123275   0.054   5.254   7.442  1.5154  0.0546 -0.4516
  572TIP3    H223276   0.141   5.141   7.492  1.4729  0.5326  0.7324
  573TIP3   OH223277   0.425   5.447   1.883 -0.1988 -0.0488  0.0994
  573TIP3    H123278   0.471   5.463   1.965 -1.3164  1.0237  0.5466
  573TIP3    H223279   0.357   5.514   1.880 -0.6634 -0.5481 -1.3400
  574TIP3   OH223280   0.394   3.834   0.107  0.1961  0.2721 -0.2951
  574TIP3    H123281   0.301   3.811   0.109  0.5207 -1.1800  2.3977
  574TIP3    H223282   0.432   3.777   0.040 -0.3283 -1.6487  0.9627
  575TIP3   OH223283   2.653   4.485   2.238 -0.5682 -0.2340  0.2219
  575TIP3    H123284   2.704   4.538   2.176 -0.1437 -0.9188 -0.0370
  575TIP3    H223285   2.640   4.541   2.313 -1.7161  0.8787 -0.7677
  576TIP3   OH223286   2.735   0.250   8.413 -0.2377  0.2563  0.5260
  576TIP3    H123287   2.753   0.178   8.352 -0.4539 -0.0898  0.8708
  576TIP3    H223288   2.715   0.325   8.356 -2.1702 -0.4859  0.1716
  577TIP3   OH223289   2.689   6.057   1.235 -0.0169 -0.0190 -0.2065
  577TIP3    H123290   2.734   5.992   1.181 -1.0002  1.0234 -2.4062
  577TIP3    H223291   2.701   6.026   1.325  2.2716 -1.4913 -0.9354
  578TIP3   OH223292   5.246   0.509   1.114  0.6446 -0.1162 -0.6516
  578TIP3    H123293   5.244   0.446   1.042  0.5855 -0.0504 -0.7079
  578TIP3    H223294   5.159   0.502   1.154  0.4805  0.2656 -0.9482
  579TIP3   OH223295   1.042   5.934   2.223  0.5010 -0.2067 -0.0058
  579TIP3    H123296   1.093   5.857   2.200 -0.4246 -0.7678 -0.2363
  579TIP3    H223297   0.954   5.900   2.241 -0.1681  0.8924 -1.0296
  580TIP3   OH223298   2.930   3.232   0.824 -0.2264 -0.5207  0.0200
  580TIP3    H123299   2.881   3.297   0.773 -1.3747 -0.6896  0.8655
  580TIP3    H223300   2.959   3.168   0.759 -0.8697 -0.2507 -0.5481
  581TIP3   OH223301   2.108   3.768   2.205  0.3416 -0.1630 -0.1845
  581TIP3    H123302   2.105   3.839   2.270  2.1925  0.8415 -1.1349
  581TIP3    H223303   2.200   3.762   2.180 -0.3577 -0.2262 -3.0255
  582TIP3   OH223304   2.993   0.432   1.228 -0.6088 -0.3720 -0.2707
  582TIP3    H123305   2.950   0.505   1.273 -1.2003 -1.1936  0.5239
  582TIP3    H223306   2.927   0.364   1.223 -0.1448 -0.7692 -1.2586
  583TIP3   OH223307   4.268   4.907   1.833 -0.4263  0.0255 -0.0555
  583TIP3    H123308   4.238   4.994   1.856  0.7134  0.5843 -0.6023
  583TIP3    H223309   4.348   4.921   1.783  0.6329 -1.3928  1.1506
  584TIP3   OH223310   6.062   1.647   3.050 -0.4083  0.6690 -0.2494
  584TIP3    H123311   6.149   1.661   3.089 -1.1861 -0.0548  1.8736
  584TIP3    H223312   6.060   1.554   3.029 -0.5022  0.7938 -0.8372
  585TIP3   OH223313   3.683   5.554   1.091  0.2412  0.3170  0.2794
  585TIP3    H123314   3.714   5.470   1.058  0.9731  0.8198 -0.3683
  585TIP3    H223315   3.670   5.607   1.012 -0.1645  0.8241  0.6817
  586TIP3   OH223316   4.181   0.070   1.797 -0.3292  0.7118 -0.2807
  586TIP3    H123317   4.086   0.077   1.790 -0.3565 -0.4750 -1.3958
  586TIP3    H223318   4.197  -0.024   1.806  0.6950  0.9673  0.8195
  587TIP3   OH223319   1.443   4.921   2.094  0.6597  0.2589  0.3508
  587TIP3    H123320   1.469   4.851   2.154  0.5714 -0.6983 -0.7069
  587TIP3    H223321   1.522   4.939   2.043 -0.1673 -1.3362 -1.5733
  588TIP3   OH223322   4.903   0.660   2.385  0.7664  0.2188  0.2643
  588TIP3    H123323   4.843   0.613   2.327  0.7097  0.0879  0.4289
  588TIP3    H223324   4.936   0.594   2.445 -0.2786  0.6098  1.3028
  589TIP3   OH223325   0.430   2.512   8.164 -0.6580 -0.3303 -0.6584
  589TIP3    H123326   0.411   2.571   8.237  0.2186 -0.5114 -0.2677
  589TIP3    H223327   0.486   2.563   8.106 -2.0373  0.1000 -1.6441
  590TIP3   OH223328   3.889   4.327   7.418 -0.2078  0.0134  0.3669
  590TIP3    H123329   3.928   4.376   7.346  0.2626  0.8610  1.1800
  590TIP3    H223330   3.912   4.377   7.497 -1.3687 -0.4700  1.0380
  591TIP3   OH223331   1.658   2.269   8.323  0.1272  0.0579 -0.3167
  591TIP3    H123332   1.610   2.191   8.350  0.7254 -0.6966 -1.3780
  591TIP3    H223333   1.745   2.237   8.299  0.4171  1.0636 -0.6535
  592TIP3   OH223334   4.451   2.426   0.535  0.1837  0.3333  0.1786
  592TIP3    H123335   4.367   2.383   0.551  0.4041 -0.5871 -1.0165
  592TIP3    H223336   4.505   2.359   0.494  0.6232  1.6744 -1.5407
  593TIP3   OH223337   5.774   3.224   7.620  0.3065  0.0873  0.0724
  593TIP3    H123338   5.731   3.292   7.671 -0.0495  1.4308 -1.9118
  593TIP3    H223339   5.715   3.206   7.547  1.5634 -0.4687 -0.8676
  594TIP3   OH223340   1.424   5.527   7.237  0.5932  0.0401  0.8279
  594TIP3    H123341   1.399   5.436   7.219 -1.7330  0.5182  1.3526
  594TIP3    H223342   1.346   5.578   7.215  2.4246  2.1921 -1.2699
  595TIP3   OH223343   1.895   0.222   7.671  0.2545 -0.2623  0.1730
  595TIP3    H123344   1.980   0.205   7.712 -0.1078  0.0432  1.0660
  595TIP3    H223345   1.913   0.214   7.577  0.8214 -2.2251  0.3987
  596TIP3   OH223346   6.807   6.388   0.506  0.4105 -0.1847 -0.4184
  596TIP3    H123347   6.824   6.304   0.549 -1.9203  0.1493  1.3761
  596TIP3    H223348   6.852   6.452   0.561  0.7873 -0.1056 -0.8176
  597TIP3   OH223349   6.313   2.219   7.563 -0.2971  0.3049  0.1366
  597TIP3    H123350   6.281   2.308   7.549 -2.7942 -0.3737  1.0336
  597TIP3    H223351   6.371   2.202   7.488 -1.1385  2.0767 -0.9646
  598TIP3   OH223352   5.762   1.451   1.847  0.1734  0.6475  0.1648
  598TIP3    H123353   5.844   1.498   1.831 -0.4309  1.2090 -1.6022
  598TIP3    H223354   5.703   1.517   1.884 -0.8960  1.6406 -2.9616
  599TIP3   OH223355   4.583   1.198   2.958  0.2632  0.6200  0.1502
  599TIP3    H123356   4.507   1.244   2.996 -0.3192 -0.2882  0.1098
  599TIP3    H223357   4.546   1.123   2.913  1.1630  0.3966 -0.2421
  600TIP3   OH223358   0.896   4.142   7.961  0.1442  0.8178  0.1171
  600TIP3    H123359   0.882   4.048   7.948  0.3714  0.8894 -0.6570
  600TIP3    H223360   0.848   4.184   7.890 -0.2648  1.3175  0.6719
  601TIP3   OH223361   4.207   0.366   2.398  0.1137 -0.2663  0.5702
  601TIP3    H123362   4.143   0.437   2.405 -0.4222 -0.5101 -1.3821
  601TIP3    H223363   4.205   0.340   2.306  2.1255 -1.1464  0.7204
  602TIP3   OH223364   6.406   2.574   0.729  0.2600 -0.5048 -0.0385
  602TIP3    H123365   6.484   2.570   0.785  1.0739 -0.0855 -1.1021
  602TIP3    H223366   6.334   2.591   0.789  0.9587 -1.0593  0.9931
  603TIP3   OH223367   0.797   2.789   0.647  0.5079  0.4813 -0.4154
  603TIP3    H123368   0.724   2.814   0.590  0.1966 -2.0554 -1.2942
  603TIP3    H223369   0.758   2.732   0.713  1.5462 -0.3326 -0.4646
  604TIP3   OH223370   0.978   2.598   0.149  0.3834 -0.4502  0.2445
  604TIP3    H123371   1.042   2.660   0.183 -2.0128  1.1670  2.2207
  604TIP3    H223372   0.978   2.613   0.055  0.3265  2.2315  0.5752
  605TIP3   OH223373   0.949   1.680   0.791 -0.0452 -0.4245  0.2230
  605TIP3    H123374   0.967   1.713   0.879  0.6277  0.4527 -0.2295
  605TIP3    H223375   0.964   1.755   0.733 -0.5260 -0.9730 -0.6385
  606TIP3   OH223376   2.013   1.408   7.281  0.3010  0.1228  1.3447
  606TIP3    H123377   2.104   1.401   7.311  0.2841 -1.9727  1.1065
  606TIP3    H223378   1.985   1.317   7.271 -1.2744  0.7373 -0.2818
  607TIP3   OH223379   1.648   1.578   8.431 -0.0518  0.6616 -0.1046
  607TIP3    H123380   1.730   1.554   8.387 -0.5380 -1.9303  0.2330
  607TIP3    H223381   1.580   1.542   8.374 -0.7872 -0.3178  1.3412
  608TIP3   OH223382   6.489   6.815   0.977  0.1332  0.5397 -0.4373
  608TIP3    H123383   6.559   6.793   1.039  0.7489 -1.1021 -1.6560
  608TIP3    H223384   6.412   6.826   1.031  1.0274  0.9845  0.8007
  609TIP3   OH223385   3.803   3.731   8.306 -0.6350  0.2203  0.4424
  609TIP3    H123386   3.863   3.663   8.337 -0.4655  0.7609  1.3515
  609TIP3    H223387   3.859   3.806   8.288 -1.0654  0.8842  1.7459
  610TIP3   OH223388   1.524   5.999   1.358  0.5354 -0.4398 -0.0436
  610TIP3    H123389   1.565   5.999   1.444 -0.0338 -2.4030  0.2972
  610TIP3    H223390   1.596   5.987   1.296  0.8859  0.4323  0.1865
  611TIP3   OH223391   4.777   4.234   8.449  0.3072 -0.3190  0.8936
  611TIP3    H123392   4.831   4.306   8.414  0.0215  0.3348  1.7614
  611TIP3    H223393   4.770   4.253   8.543 -1.3930 -0.4006  0.8165
  612TIP3   OH223394   0.982   2.697   8.512  0.3549  0.1853  0.4125
  612TIP3    H123395   1.012   2.786   8.530 -0.2594  0.1950  1.5457
  612TIP3    H223396   0.898   2.709   8.468  0.1077  0.1834  0.8713
  613TIP3   OH223397   0.384   5.219   7.235  0.5668  0.4636 -0.1066
  613TIP3    H123398   0.326   5.281   7.280 -1.5018 -0.6134 -1.1023
  613TIP3    H223399   0.467   5.265   7.225 -0.1099  2.1130  1.3707
  614TIP3   OH223400   1.016   2.431   2.235 -0.0301  0.0844 -0.0123
  614TIP3    H123401   1.100   2.385   2.241 -1.3309 -2.3391  1.1977
  614TIP3    H223402   1.000   2.463   2.324  0.6009  2.5788 -0.7254
  615TIP3   OH223403   4.685   3.841   2.060  0.2442  0.0723  0.0726
  615TIP3    H123404   4.655   3.890   1.984  0.4479 -0.6009 -0.4547
  615TIP3    H223405   4.605   3.814   2.105  0.0173 -1.4139 -1.1292
  616TIP3   OH223406   0.959   0.334   1.020 -0.1860 -0.3502  0.0919
  616TIP3    H123407   0.961   0.401   1.088 -1.2717  0.6277 -0.7983
  616TIP3    H223408   1.049   0.300   1.017 -0.4262 -1.4921  2.9955
  617TIP3   OH223409   6.845   3.567   7.928 -0.2912  0.1525  0.9141
  617TIP3    H123410   6.874   3.537   8.014 -1.8141  1.4306  1.9393
  617TIP3    H223411   6.751   3.551   7.927  0.0151 -2.4218 -1.6736
  618TIP3   OH223412   0.834   3.662   7.716 -0.3914 -0.1882 -1.0952
  618TIP3    H123413   0.890   3.655   7.639 -0.7632 -0.6729 -1.3274
  618TIP3    H223414   0.745   3.665   7.680 -0.7004 -2.3189 -0.6232
  619TIP3   OH223415   2.643   1.595   2.112 -0.3708  0.0172  0.1955
  619TIP3    H123416   2.630   1.625   2.201 -2.0525 -1.4464  0.5015
  619TIP3    H223417   2.704   1.522   2.120  2.1444  1.9531 -0.3101
  620TIP3   OH223418   2.515   5.627   8.219 -0.1834  0.8394 -0.6625
  620TIP3    H123419   2.485   5.536   8.219 -0.9467  1.0651  0.3337
  620TIP3    H223420   2.540   5.643   8.310 -0.9211  1.8955 -0.6387
  621TIP3   OH223421   3.188   4.896   8.374 -0.4056 -0.2665  0.6797
  621TIP3    H123422   3.100   4.883   8.337 -0.6388  0.1008  1.0956
  621TIP3    H223423   3.243   4.832   8.328 -0.8298 -0.2953  0.2036
  622TIP3   OH223424   3.376   2.076   0.857 -0.7050  0.4686  0.1169
  622TIP3    H123425   3.373   2.039   0.768 -0.7135  0.2915  0.1896
  622TIP3    H223426   3.287   2.105   0.874 -0.7504  0.3130  0.1462
  623TIP3   OH223427   0.724   2.415   1.346 -0.0061 -0.1271 -0.1812
  623TIP3    H123428   0.703   2.494   1.297  2.3840 -0.0277 -1.1986
  623TIP3    H223429   0.819   2.419   1.358 -0.1711 -1.5168  2.1397
  624TIP3   OH223430   5.541   4.745   1.098 -0.3044 -0.3076 -0.0623
  624TIP3    H123431   5.568   4.819   1.152 -1.4817 -0.6910  1.1005
  624TIP3    H223432   5.446   4.740   1.110 -0.1656 -2.4632  0.5004
  625TIP3   OH223433   0.763   4.579   3.101 -0.0300 -0.6111  0.4042
  625TIP3    H123434   0.678   4.624   3.101 -0.5807 -1.5388  2.4700
  625TIP3    H223435   0.825   4.648   3.124 -0.5188 -0.3425  0.9694
  626TIP3   OH223436   2.239   3.999   1.980  0.4628 -0.1738 -0.3098
  626TIP3    H123437   2.293   4.032   2.051  0.5519 -0.2505 -0.3407
  626TIP3    H223438   2.151   4.033   1.998  0.8942  1.6208 -1.3326
  627TIP3   OH223439   5.492   0.447   1.225 -0.8962  0.3670  0.4547
  627TIP3    H123440   5.406   0.482   1.201 -0.2049  1.1392 -0.9875
  627TIP3    H223441   5.473   0.360   1.261 -2.1551 -0.2859 -1.6189
  628TIP3   OH223442   0.681   1.075   2.585 -0.0456 -0.7811 -0.2309
  628TIP3    H123443   0.699   0.988   2.548 -0.8654 -0.4045 -1.5793
  628TIP3    H223444   0.586   1.079   2.590 -0.1135  0.6095 -1.7074
  629TIP3   OH223445   0.217   1.454   2.164 -0.3567 -0.8725 -0.1413
  629TIP3    H123446   0.240   1.417   2.249  3.2147 -1.8485 -1.3658
  629TIP3    H223447   0.191   1.378   2.111  2.6822 -1.1979 -1.3637
  630TIP3   OH223448   2.860   4.716   0.385 -0.1762 -0.2135  0.4924
  630TIP3    H123449   2.927   4.718   0.317 -0.6544  0.8354  0.0321
  630TIP3    H223450   2.902   4.753   0.463  0.0435 -0.3981  0.4612
  631TIP3   OH223451   4.087   3.328   1.090  0.0884 -0.4066 -0.2955
  631TIP3    H123452   4.076   3.240   1.125  1.6980 -0.6602 -0.3609
  631TIP3    H223453   4.134   3.375   1.159  0.2467  0.0692 -0.7208
  632TIP3   OH223454   1.524   1.156   7.872 -0.3431  0.1143  0.4594
  632TIP3    H123455   1.518   1.065   7.840 -0.0648 -0.1323  1.0955
  632TIP3    H223456   1.519   1.209   7.793  0.5326 -0.4948 -0.0218
  633TIP3   OH223457   6.746   0.297   1.525  0.0605  0.4437 -0.0207
  633TIP3    H123458   6.737   0.332   1.614 -0.7946  1.6579 -0.5586
  633TIP3    H223459   6.707   0.364   1.469 -0.5819 -0.8761 -1.2073
  634TIP3   OH223460   1.713   2.166   0.034  0.2204 -0.0538 -0.3154
  634TIP3    H123461   1.740   2.257   0.051 -0.7582  0.2136 -0.1604
  634TIP3    H223462   1.662   2.170  -0.047  0.8392 -0.5967 -0.7429
  635TIP3   OH223463   5.397   3.273   2.715  0.6489  0.3868  0.3723
  635TIP3    H123464   5.444   3.191   2.702  0.2886  0.3082 -0.5057
  635TIP3    H223465   5.466   3.337   2.733  0.9783  0.0018  0.5012
  636TIP3   OH223466   6.079   0.351   3.406  0.4403 -0.3677 -0.4608
  636TIP3    H123467   6.085   0.398   3.489  1.8179  0.2588 -0.8865
  636TIP3    H223468   6.017   0.402   3.354 -0.5026 -0.8152  0.1892
  637TIP3   OH223469   4.937   2.551   7.752  0.0548 -0.3916 -0.1155
  637TIP3    H123470   4.978   2.500   7.822 -0.8766  1.0725  1.5736
  637TIP3    H223471   4.934   2.491   7.678  3.1326 -1.2966  0.3612
  638TIP3   OH223472   4.467   5.819   8.364 -0.3750 -0.0892 -0.3731
  638TIP3    H123473   4.427   5.802   8.449 -0.6016  0.4496 -0.3706
  638TIP3    H223474   4.436   5.906   8.340  1.0900  0.5130 -0.1905
  639TIP3   OH223475   4.527   0.744   2.130  0.0785 -0.1184 -0.2427
  639TIP3    H123476   4.495   0.665   2.172 -1.7396  0.3989 -0.5636
  639TIP3    H223477   4.550   0.803   2.202 -1.0428  0.0031  0.0242
  640TIP3   OH223478   5.649   1.065   1.683 -0.4555 -0.1708 -0.3338
  640TIP3    H123479   5.645   1.154   1.649  0.9564 -0.0038 -0.1385
  640TIP3    H223480   5.716   1.022   1.630  0.4417 -0.4629  0.9761
  641TIP3   OH223481   1.440   5.653   7.498  0.5230  0.4409  0.3510
  641TIP3    H123482   1.473   5.736   7.465 -2.8308  1.2584 -1.3636
  641TIP3    H223483   1.443   5.594   7.423 -2.7502  0.9257 -0.3203
  642TIP3   OH223484   4.693   0.547   2.860  0.3013 -0.4657  0.2641
  642TIP3    H123485   4.622   0.596   2.900  1.1506  0.9097  0.1562
  642TIP3    H223486   4.715   0.479   2.924  0.2537  0.3985  1.2153
  643TIP3   OH223487   0.608   1.634   7.863  0.2434 -0.6672  0.0439
  643TIP3    H123488   0.699   1.610   7.879  0.3307 -0.0815  0.4355
  643TIP3    H223489   0.557   1.574   7.918  0.4464 -0.1639  0.7924
  644TIP3   OH223490   2.548   2.296   7.597 -0.2193 -0.6604  0.0353
  644TIP3    H123491   2.538   2.207   7.631 -2.3342  0.4640  2.7490
  644TIP3    H223492   2.639   2.319   7.618 -0.6229 -1.0433  2.5276
  645TIP3   OH223493   4.279   3.668   0.310  0.2285 -0.3135  0.2088
  645TIP3    H123494   4.235   3.729   0.369 -0.3214  0.0215 -0.5315
  645TIP3    H223495   4.209   3.630   0.258  0.6887 -0.7417 -0.1054
  646TIP3   OH223496   1.408   5.146   7.491 -0.1790  0.2499 -0.0857
  646TIP3    H123497   1.445   5.204   7.557 -1.0850 -1.2210  1.8306
  646TIP3    H223498   1.456   5.064   7.501 -0.8944 -0.2571 -0.6660
  647TIP3   OH223499   6.635   5.230   7.626 -0.0071  0.1578  0.1129
  647TIP3    H123500   6.603   5.201   7.541  2.4197  0.8729 -1.1262
  647TIP3    H223501   6.681   5.153   7.662  0.0582  0.2392  0.2046
  648TIP3   OH223502   6.160   3.976   7.522 -0.9050  0.6357  0.2646
  648TIP3    H123503   6.205   3.927   7.591 -1.0870 -2.2068 -1.4812
  648TIP3    H223504   6.220   4.046   7.498 -0.0923  0.5999  2.0518
  649TIP3   OH223505   2.921   1.483   7.029  0.4584  0.0839  0.2909
  649TIP3    H123506   2.943   1.435   6.950  2.5720  0.7091  0.4310
  649TIP3    H223507   2.937   1.421   7.101  0.1904  0.0481  0.3216
  650TIP3   OH223508   3.135   2.941   0.369  0.2089 -0.3412 -0.4275
  650TIP3    H123509   3.153   3.010   0.304 -0.3283 -1.8874 -2.3192
  650TIP3    H223510   3.124   2.988   0.451  1.2109  1.6996 -1.3818
  651TIP3   OH223511   0.168   3.028   0.151  0.6352 -0.2941 -0.6508
  651TIP3    H123512   0.144   2.936   0.158 -0.9162  0.1394  0.0428
  651TIP3    H223513   0.097   3.076   0.193  1.7702  1.1939 -0.2968
  652TIP3   OH223514   2.415   3.030   2.121 -0.2907  0.5980 -0.7012
  652TIP3    H123515   2.474   3.099   2.152 -0.5678  0.0949  1.0464
  652TIP3    H223516   2.355   3.015   2.194  0.3276 -2.1172 -0.6230
  653TIP3   OH223517   5.459   0.103   6.803 -0.4924  0.1984 -0.4189
  653TIP3    H123518   5.412   0.054   6.735 -1.0844 -0.1798  0.2535
  653TIP3    H223519   5.546   0.064   6.805 -0.2136  0.7383 -1.5080
  654TIP3   OH223520   4.448   6.113   0.605 -0.4016  0.4035 -0.2313
  654TIP3    H123521   4.352   6.103   0.604 -0.2727 -1.3239  0.9163
  654TIP3    H223522   4.465   6.178   0.537 -2.2954 -0.1628 -1.3479
  655TIP3   OH223523   5.729   4.169   1.666 -0.0251  0.0269  0.1355
  655TIP3    H123524   5.695   4.244   1.617  0.7365 -1.0724 -2.2591
  655TIP3    H223525   5.816   4.196   1.695  0.2345  0.1105 -0.6921
  656TIP3   OH223526   2.096   4.516   1.069  0.1163  0.1838 -0.1385
  656TIP3    H123527   2.056   4.596   1.035 -1.6924 -0.6444 -0.0658
  656TIP3    H223528   2.072   4.448   1.006  0.6230 -0.5256  0.4094
  657TIP3   OH223529   1.774   0.145   1.644  0.6225 -0.2997 -0.1471
  657TIP3    H123530   1.829   0.221   1.628  0.0002  0.1355 -0.2310
  657TIP3    H223531   1.718   0.138   1.567 -1.3861  0.9462  1.1129
  658TIP3   OH223532   2.841   6.159   0.308  0.3126  0.5244 -0.1061
  658TIP3    H123533   2.906   6.221   0.274 -1.5538  1.9684 -1.3005
  658TIP3    H223534   2.812   6.197   0.390 -0.3959  0.9488 -0.5399
  659TIP3   OH223535   4.437   3.706   0.831  0.3872  0.3426 -0.4700
  659TIP3    H123536   4.387   3.751   0.899 -0.9390  0.7113 -1.6333
  659TIP3    H223537   4.499   3.650   0.879 -0.4873  0.6043  1.0199
  660TIP3   OH223538   6.415   1.879   0.754 -0.2934 -0.0471  0.4318
  660TIP3    H123539   6.358   1.870   0.830  0.4827 -1.3084  0.8955
  660TIP3    H223540   6.451   1.967   0.761 -1.4023  0.4043  0.6674
  661TIP3   OH223541   1.967   1.001   0.753 -0.5750 -0.0846 -0.6315
  661TIP3    H123542   2.017   0.928   0.718  0.7044  0.4222  0.0866
  661TIP3    H223543   1.977   1.071   0.689  1.3396  0.6721  0.4173
  662TIP3   OH223544   1.439   1.878   1.751  0.2051  0.0969 -0.2797
  662TIP3    H123545   1.389   1.905   1.674 -0.3345 -0.9953 -0.3235
  662TIP3    H223546   1.428   1.951   1.813  1.7221  1.6052 -1.6751
  663TIP3   OH223547   0.460   5.625   7.973 -0.8363 -0.3270 -0.6486
  663TIP3    H123548   0.443   5.620   8.067  0.0903  1.9822 -0.2902
  663TIP3    H223549   0.373   5.626   7.933 -1.4984  3.0045  0.5567
  664TIP3   OH223550   5.147   1.283   7.861 -0.3744 -0.0027 -0.2104
  664TIP3    H123551   5.102   1.218   7.808 -0.0087 -1.6136  1.3800
  664TIP3    H223552   5.229   1.300   7.814  0.1002 -1.6523 -0.0465
  665TIP3   OH223553   0.874   1.219   1.600  0.5725  0.0159 -1.0752
  665TIP3    H123554   0.937   1.154   1.632  0.7469  0.9032  0.4901
  665TIP3    H223555   0.925   1.299   1.593  0.0448  0.3048 -1.6610
  666TIP3   OH223556   1.590   1.064   0.640 -0.1819 -0.3744  0.1074
  666TIP3    H123557   1.536   1.014   0.578 -0.3780  0.9447 -0.8235
  666TIP3    H223558   1.664   1.095   0.588 -0.3340  0.7345  0.5318
  667TIP3   OH223559   5.657   0.897   8.576 -0.2117 -0.1064  0.0074
  667TIP3    H123560   5.736   0.847   8.553 -0.6162 -0.4992 -0.5511
  667TIP3    H223561   5.656   0.896   8.672  0.9324  0.6503  0.0530
  668TIP3   OH223562   2.281   0.879   0.923  0.5431 -0.1432 -0.4421
  668TIP3    H123563   2.312   0.963   0.955 -1.4818  0.9500 -1.1519
  668TIP3    H223564   2.201   0.862   0.973  0.6293 -1.4006 -0.6831
  669TIP3   OH223565   2.325   1.970   2.787 -0.6007 -0.1726  0.4215
  669TIP3    H123566   2.399   1.994   2.843  0.4416  0.6397 -1.2569
  669TIP3    H223567   2.252   2.022   2.821 -0.2424 -0.4095  1.6085
  670TIP3   OH223568   4.070   5.788   1.682 -0.4075 -0.0124 -0.8886
  670TIP3    H123569   4.078   5.816   1.591 -0.7848  1.1925 -0.5719
  670TIP3    H223570   3.981   5.753   1.689 -0.3351 -0.2200 -1.0155
  671TIP3   OH223571   2.133   1.487   0.129  0.8420  0.8573 -0.3805
  671TIP3    H123572   2.125   1.392   0.141 -0.3824  1.1656  1.7643
  671TIP3    H223573   2.168   1.519   0.212  2.0395  2.2309 -1.3699
  672TIP3   OH223574   1.540   1.169   7.587  0.1010  0.3801  0.3049
  672TIP3    H123575   1.529   1.087   7.636  2.0720  0.5377  1.0989
  672TIP3    H223576   1.522   1.145   7.496 -1.2896 -0.4702  0.7773
  673TIP3   OH223577   2.383   5.355   0.537 -0.1060  0.2611 -0.5834
  673TIP3    H123578   2.349   5.266   0.535 -1.7335  0.8144 -3.0624
  673TIP3    H223579   2.306   5.410   0.556  1.1119  1.1418  2.3439
  674TIP3   OH223580   4.062   5.476   7.766  0.6353  0.0072  0.3475
  674TIP3    H123581   4.157   5.482   7.777  0.6253  1.6553 -0.1308
  674TIP3    H223582   4.037   5.562   7.733 -0.5411 -1.4482 -3.0838
  675TIP3   OH223583   3.181   3.359   2.725 -0.3898 -0.1048  0.2653
  675TIP3    H123584   3.118   3.294   2.756 -1.1164 -0.9210 -2.6702
  675TIP3    H223585   3.261   3.309   2.709 -0.4345  0.0172 -0.3779
  676TIP3   OH223586   2.614   3.596   1.913 -0.6889  0.8839  0.6182
  676TIP3    H123587   2.629   3.586   2.007 -0.0023 -0.0088  0.4364
  676TIP3    H223588   2.519   3.591   1.903 -0.7058 -0.3942  1.1501
  677TIP3   OH223589   4.740   3.699   1.472 -0.5479  0.2360 -0.3923
  677TIP3    H123590   4.816   3.663   1.517 -1.3423 -0.8494  0.1219
  677TIP3    H223591   4.735   3.790   1.504 -0.1017 -0.0065  0.4012
  678TIP3   OH223592   2.720   5.655   2.232  0.3266  0.3614  0.2570
  678TIP3    H123593   2.657   5.588   2.206  0.2832  0.7111 -0.5628
  678TIP3    H223594   2.778   5.665   2.157 -0.7726  2.5257 -0.4023
  679TIP3   OH223595   1.516   1.119   2.311 -0.3424  0.3991 -0.0773
  679TIP3    H123596   1.438   1.070   2.337  0.3010  0.1039  1.3990
  679TIP3    H223597   1.516   1.195   2.370  1.8714 -0.9651  1.8509
  680TIP3   OH223598   3.283   3.141   0.569 -0.0585 -0.0867 -1.1336
  680TIP3    H123599   3.337   3.066   0.594  0.9127  0.3426 -1.8716
  680TIP3    H223600   3.346   3.209   0.546 -0.9056  1.3151  0.4923
  681TIP3   OH223601   6.729   1.342   8.218  0.0834  0.0689 -0.3863
  681TIP3    H123602   6.641   1.307   8.229  0.2486 -0.2744 -0.1228
  681TIP3    H223603   6.766   1.341   8.306  0.2347  0.5233 -0.4429
  682TIP3   OH223604   6.341   1.255   2.810 -0.3178 -0.4622 -0.2287
  682TIP3    H123605   6.420   1.304   2.785  1.0867 -0.3394  3.7320
  682TIP3    H223606   6.271   1.295   2.759  1.2897  3.5669  0.3128
  683TIP3   OH223607   0.642   2.025   2.511  0.5122 -0.6293  0.2066
  683TIP3    H123608   0.658   2.115   2.540  2.3824 -0.6313 -0.6781
  683TIP3    H223609   0.633   1.975   2.592  0.5517  0.1908  0.7272
  684TIP3   OH223610   6.853   2.216   1.485 -0.4421  0.4962 -0.2321
  684TIP3    H123611   6.857   2.130   1.528  0.0606  0.9930  0.7412
  684TIP3    H223612   6.929   2.215   1.426  0.4887  0.8450  0.9188
  685TIP3   OH223613   3.088   4.445   8.085 -0.2518  0.7588 -0.6110
  685TIP3    H123614   3.110   4.492   8.005 -3.1096  1.3385 -1.1395
  685TIP3    H223615   3.025   4.378   8.058  0.6100 -0.7179  0.8001
  686TIP3   OH223616   0.801   2.393   7.411 -0.1070  0.2635 -0.8184
  686TIP3    H123617   0.835   2.477   7.379  0.1732 -0.1120 -1.5506
  686TIP3    H223618   0.762   2.353   7.333 -2.0440  0.5722 -0.0575
  687TIP3   OH223619   2.936   4.479   0.134 -0.3018 -0.7127 -0.3336
  687TIP3    H123620   2.918   4.442   0.221 -0.9323 -0.6322 -0.4253
  687TIP3    H223621   3.030   4.499   0.135 -0.7938  2.0254  1.3927
  688TIP3   OH223622   0.405   0.378   8.368 -0.6828 -0.0408 -0.2797
  688TIP3    H123623   0.408   0.473   8.352 -2.0005  0.1987  0.6868
  688TIP3    H223624   0.452   0.367   8.451 -0.3955 -0.2588 -0.4715
  689TIP3   OH223625   3.138   5.794   2.239  0.0678  0.5797 -0.2918
  689TIP3    H123626   3.106   5.848   2.167 -0.0690  0.5739 -0.2378
  689TIP3    H223627   3.220   5.757   2.208 -0.5188 -0.2842 -0.8615
  690TIP3   OH223628   3.060   0.158   0.965 -0.1087 -0.5461  0.9665
  690TIP3    H123629   3.033   0.201   0.885 -1.2171 -3.4873 -0.3808
  690TIP3    H223630   3.143   0.115   0.943  1.8362  1.9476  2.7506
  691TIP3   OH223631   2.216   6.825   2.359 -0.6390  0.0452  0.1240
  691TIP3    H123632   2.155   6.839   2.431 -0.4018  1.8753  0.0116
  691TIP3    H223633   2.271   6.903   2.359  2.7065 -2.0819  1.1399
  692TIP3   OH223634   4.223   0.908   8.126  0.1158 -0.0693  0.0935
  692TIP3    H123635   4.252   0.996   8.150  1.0735 -0.1245 -0.7955
  692TIP3    H223636   4.167   0.920   8.050 -2.6053  0.0642  1.9548
  693TIP3   OH223637   5.695   0.180   1.680 -0.1601  0.0086 -0.1657
  693TIP3    H123638   5.710   0.168   1.586 -0.1730 -0.5362 -0.1007
  693TIP3    H223639   5.782   0.173   1.719 -0.2316 -0.4300 -0.0735
  694TIP3   OH223640   3.831   1.092   0.072  0.1747  0.6197 -0.3688
  694TIP3    H123641   3.884   1.152   0.125 -0.0481  0.3664  0.1527
  694TIP3    H223642   3.818   1.138  -0.010 -1.0186  1.8290  0.4639
  695TIP3   OH223643   5.329   4.918   0.146  0.4414 -0.1545 -0.1917
  695TIP3    H123644   5.249   4.912   0.199  0.4586 -2.2842 -0.3113
  695TIP3    H223645   5.326   5.005   0.107 -2.2114 -0.4399 -0.7803
  696TIP3   OH223646   4.303   4.064   8.525 -0.8313 -0.7115 -0.2718
  696TIP3    H123647   4.347   4.000   8.580 -0.0939  0.9424  1.1773
  696TIP3    H223648   4.361   4.076   8.449  0.1773 -0.1195  0.5729
  697TIP3   OH223649   2.748   1.008   7.938 -0.4967  0.0479 -0.1385
  697TIP3    H123650   2.679   1.069   7.964  0.8369  1.1746  0.9338
  697TIP3    H223651   2.828   1.047   7.973  0.9145 -0.4244 -2.6222
  698TIP3   OH223652   5.065   5.848   0.007  0.3728 -0.0575  0.5995
  698TIP3    H123653   5.039   5.844   0.099  1.8072  1.0300  1.0958
  698TIP3    H223654   5.062   5.941  -0.015 -1.7263 -0.4209 -1.0503
  699TIP3   OH223655   5.326   1.076   2.798  0.0757  0.3966 -0.4703
  699TIP3    H123656   5.245   1.055   2.846 -0.2844  1.6396 -0.4875
  699TIP3    H223657   5.383   1.001   2.814 -0.9513 -0.3566 -0.1700
  700TIP3   OH223658   0.972   5.029   7.161  0.1268 -0.8559  0.6691
  700TIP3    H123659   1.058   4.990   7.144  0.3885 -0.5892  1.3458
  700TIP3    H223660   0.974   5.051   7.255  0.5926  2.2061  0.0466
  701TIP3   OH223661   2.948   3.012   2.657 -0.0848 -0.9859 -0.5557
  701TIP3    H123662   2.948   3.045   2.747 -1.9022  1.4070 -1.3410
  701TIP3    H223663   2.871   2.956   2.652 -0.3373 -0.6246 -0.7686
  702TIP3   OH223664   5.457   6.175   2.333  0.4696  0.5156  0.2980
  702TIP3    H123665   5.442   6.264   2.364 -2.1689  0.2384  0.0231
  702TIP3    H223666   5.429   6.119   2.405 -1.1224 -0.0704 -0.7168
  703TIP3   OH223667   0.834   3.707   1.958 -0.0728 -0.2990 -0.5920
  703TIP3    H123668   0.807   3.788   1.999  0.4622  0.7132 -2.1331
  703TIP3    H223669   0.926   3.697   1.983 -0.1345 -0.4228 -0.4146
  704TIP3   OH223670   4.966   1.342   3.125  0.0387  0.1334 -0.8802
  704TIP3    H123671   4.924   1.301   3.200  0.8692  0.9367  0.0549
  704TIP3    H223672   4.935   1.293   3.050 -0.9022 -0.6183 -0.0210
  705TIP3   OH223673   0.572   5.454   2.937  0.1238  0.1095  0.5010
  705TIP3    H123674   0.631   5.379   2.944 -1.0642 -0.8558  0.3961
  705TIP3    H223675   0.614   5.523   2.989 -0.3545 -1.6263  3.3371
  706TIP3   OH223676   3.784   5.368   7.317 -0.6729 -0.2080  0.0693
  706TIP3    H123677   3.820   5.431   7.255 -0.9032 -1.4656 -1.3927
  706TIP3    H223678   3.859   5.314   7.342 -0.8669 -0.6456 -0.2869
  707TIP3   OH223679   5.399   4.538   0.342  0.1063 -0.0946  0.1267
  707TIP3    H123680   5.336   4.565   0.276 -0.2324  1.7317  1.1298
  707TIP3    H223681   5.474   4.595   0.328  0.4280 -0.3710  0.6911
  708TIP3   OH223682   5.169   3.706   2.205 -0.2189 -0.2077  0.0341
  708TIP3    H123683   5.078   3.737   2.199 -0.3284 -0.2248  1.2640
  708TIP3    H223684   5.199   3.738   2.290  1.5683  1.4373 -1.1391
  709TIP3   OH223685   5.668   0.382   8.363 -0.0519  0.7679  0.0683
  709TIP3    H123686   5.616   0.423   8.432 -0.0071  1.5417 -0.3466
  709TIP3    H223687   5.716   0.312   8.407 -1.4443  0.0173  0.4554
  710TIP3   OH223688   4.315   2.257   2.225 -0.7204  0.2678 -0.1431
  710TIP3    H123689   4.307   2.352   2.229 -1.2711  0.2080  0.5101
  710TIP3    H223690   4.362   2.234   2.305 -0.0374  0.0372 -0.6043
  711TIP3   OH223691   3.261   1.418   8.416 -0.1944  0.2738 -0.6110
  711TIP3    H123692   3.245   1.509   8.393 -0.6769  0.1231 -0.9021
  711TIP3    H223693   3.173   1.380   8.424 -0.0013 -0.0937 -0.2158
  712TIP3   OH223694   5.927   4.451   7.735  0.3324 -0.2393 -0.6241
  712TIP3    H123695   6.016   4.433   7.703 -0.1912 -2.1305 -1.1664
  712TIP3    H223696   5.911   4.382   7.800 -1.5117 -1.3618 -2.1442
  713TIP3   OH223697   4.299   3.300   1.318 -0.3279 -0.1446  0.5110
  713TIP3    H123698   4.334   3.214   1.294 -1.3524 -1.1978  2.4846
  713TIP3    H223699   4.302   3.301   1.414  0.0868  2.2474  0.5286
  714TIP3   OH223700   3.071   2.397   1.742 -0.5793  0.5472 -0.5424
  714TIP3    H123701   3.149   2.344   1.729 -0.0793  1.7997 -3.4119
  714TIP3    H223702   3.093   2.456   1.815 -0.1681 -1.2948  0.8936
  715TIP3   OH223703   1.683   6.641   2.584  0.3857 -0.0732  0.1142
  715TIP3    H123704   1.700   6.732   2.606  0.6170  0.4452 -1.9756
  715TIP3    H223705   1.618   6.645   2.513  1.5191 -1.4187 -1.0779
  716TIP3   OH223706   3.573   3.525   7.937  0.4456 -0.5670 -0.2400
  716TIP3    H123707   3.532   3.610   7.921 -0.2557 -0.8912 -0.1867
  716TIP3    H223708   3.655   3.529   7.887  0.2440  0.0024 -0.5388
  717TIP3   OH223709   6.661   5.856   2.153  0.2235  0.0636 -0.3829
  717TIP3    H123710   6.718   5.815   2.219  0.0247 -0.2374 -0.3981
  717TIP3    H223711   6.583   5.800   2.151  1.1087 -1.1989 -2.4227
  718TIP3   OH223712   2.181   2.619   6.747 -0.0494 -0.0154 -0.5106
  718TIP3    H123713   2.119   2.578   6.808 -0.4254  0.1413 -0.7844
  718TIP3    H223714   2.256   2.560   6.747  0.8242  0.9882  1.6595
  719TIP3   OH223715   6.121   0.952   1.856 -0.2256 -0.3688  0.6621
  719TIP3    H123716   6.061   0.884   1.826 -0.2618 -0.8509  1.7898
  719TIP3    H223717   6.086   1.033   1.819 -0.5714 -0.8620 -0.1233
  720TIP3   OH223718   2.396   1.470   0.489 -0.5232  0.6034  0.2893
  720TIP3    H123719   2.367   1.391   0.534  0.2054 -0.3127 -0.7674
  720TIP3    H223720   2.318   1.503   0.445 -0.9708  0.8412  1.2386
  721TIP3   OH223721   1.514   2.913   0.537  1.2685 -0.9690  0.3164
  721TIP3    H123722   1.602   2.889   0.508  1.4197  1.3690 -1.4065
  721TIP3    H223723   1.484   2.978   0.474 -1.5539 -1.3439  1.1174
  722TIP3   OH223724   3.891   0.156   8.154  0.6940  0.4464 -1.2144
  722TIP3    H123725   3.954   0.194   8.215  0.1360  2.1125 -1.6132
  722TIP3    H223726   3.942   0.096   8.100  1.0544 -1.9186  1.4706
  723TIP3   OH223727   4.275   4.453   2.604  0.2365  0.7909 -0.4050
  723TIP3    H123728   4.192   4.498   2.593 -0.0132  0.7581  1.0677
  723TIP3    H223729   4.264   4.403   2.685  1.5377  0.4407 -0.4193
  724TIP3   OH223730   2.919   0.503   8.392  0.2828  0.2138 -0.0064
  724TIP3    H123731   2.977   0.563   8.346  0.9766 -0.2887  0.2068
  724TIP3    H223732   2.977   0.446   8.443 -0.4116  0.0188  0.5966
  725TIP3   OH223733   6.222   1.977   0.135 -0.4845  0.4515 -0.0435
  725TIP3    H123734   6.155   1.944   0.195  0.7605  0.1291  1.1947
  725TIP3    H223735   6.282   2.027   0.190  0.8818 -0.1226 -0.9521
  726TIP3   OH223736   6.612   4.099   7.555  0.3935  0.5005 -0.1731
  726TIP3    H123737   6.698   4.064   7.532  0.0575 -0.1583 -0.4366
  726TIP3    H223738   6.629   4.191   7.576  0.9600  0.7415 -1.5606
  727TIP3   OH223739   4.202   3.140   7.528  0.6166  0.2816  0.2537
  727TIP3    H123740   4.154   3.063   7.558 -1.0106  1.3782  0.5960
  727TIP3    H223741   4.201   3.134   7.433 -1.5316  0.9970  0.1782
  728TIP3   OH223742   5.340   3.605   1.771  0.3831  0.0572 -0.0725
  728TIP3    H123743   5.378   3.645   1.849 -1.0517  0.5356  0.4066
  728TIP3    H223744   5.322   3.679   1.712  2.4652 -0.3802 -1.3777
  729TIP3   OH223745   5.323   1.653   2.079  0.2080  0.4359 -0.0398
  729TIP3    H123746   5.263   1.578   2.075  0.9314 -0.3617  2.3626
  729TIP3    H223747   5.267   1.728   2.098 -0.1943 -0.0520  0.7334
  730TIP3   OH223748   1.298   6.680   8.493  0.4323 -0.1944 -0.1602
  730TIP3    H123749   1.265   6.593   8.514  1.2032  0.1309  3.0015
  730TIP3    H223750   1.226   6.740   8.515  0.7560  0.0976  0.1232
  731TIP3   OH223751   5.286   3.040   1.036  0.1867  0.1492  0.2410
  731TIP3    H123752   5.371   3.009   1.004  1.6700  3.5617  0.4391
  731TIP3    H223753   5.297   3.048   1.131 -1.3446 -1.8982  0.6555
  732TIP3   OH223754   5.473   2.795   8.339  0.4596  0.2279 -0.5511
  732TIP3    H123755   5.438   2.882   8.356  0.5905  0.2300 -0.2851
  732TIP3    H223756   5.559   2.795   8.382  0.3745 -0.1005 -0.3784
  733TIP3   OH223757   0.563   4.866   7.347  0.2103  0.0810 -0.1023
  733TIP3    H123758   0.597   4.953   7.325  1.5459 -0.3619  0.0736
  733TIP3    H223759   0.542   4.827   7.262 -1.8463  1.1012 -0.1040
  734TIP3   OH223760   0.962   5.775   2.920 -0.5050  0.4084  0.4103
  734TIP3    H123761   0.991   5.710   2.856 -1.7855  0.4884 -0.2606
  734TIP3    H223762   1.042   5.822   2.943  0.0338  0.1468 -0.8572
  735TIP3   OH223763   1.488   3.540   1.946 -0.0414 -0.0370 -0.1976
  735TIP3    H123764   1.474   3.468   2.006 -0.0541 -0.9344 -1.2473
  735TIP3    H223765   1.475   3.502   1.859  0.8010  1.0260 -0.8166
  736TIP3   OH223766   6.632   4.315   1.404 -0.5494 -0.1789  0.4740
  736TIP3    H123767   6.720   4.279   1.402 -0.6644 -0.6067  1.8067
  736TIP3    H223768   6.589   4.280   1.325 -0.0236 -1.3039  0.6662
  737TIP3   OH223769   3.834   3.053   1.373  0.5996  0.5138 -0.1306
  737TIP3    H123770   3.871   3.075   1.459 -1.6659 -0.2353  1.1098
  737TIP3    H223771   3.836   2.957   1.371  0.4683  0.5221 -0.8576
  738TIP3   OH223772   2.811   2.787   7.084 -0.1601 -0.0726  0.5012
  738TIP3    H123773   2.902   2.786   7.055  0.0472 -1.0092  1.1770
  738TIP3    H223774   2.772   2.709   7.045 -0.9312  0.8044 -0.5508
  739TIP3   OH223775   1.675   4.252   6.505  0.1909 -0.0445 -0.2371
  739TIP3    H123776   1.681   4.228   6.598  1.7016  0.1464 -0.2495
  739TIP3    H223777   1.720   4.181   6.459 -1.3285 -0.5937 -0.9393
  740TIP3   OH223778   6.732   0.475   7.522  0.4992  0.0650 -0.0486
  740TIP3    H123779   6.681   0.481   7.441  0.0437 -0.7522  0.1714
  740TIP3    H223780   6.783   0.556   7.524 -1.5561  1.4176  0.2472
  741TIP3   OH223781   2.459   0.076   0.412  0.1398 -0.0457 -0.2584
  741TIP3    H123782   2.381   0.028   0.441  0.9562 -0.9743  0.4806
  741TIP3    H223783   2.479   0.039   0.326 -0.6804  0.7643 -0.8184
  742TIP3   OH223784   5.874   2.365   0.604  0.6486 -0.1253 -0.0256
  742TIP3    H123785   5.857   2.455   0.576 -0.1716  0.5652  2.4468
  742TIP3    H223786   5.949   2.371   0.662  3.2215 -1.7201 -2.9021
  743TIP3   OH223787   1.659   0.263   2.101 -0.2768  0.3731  0.3736
  743TIP3    H123788   1.640   0.253   2.195  0.0575 -1.4539  0.2780
  743TIP3    H223789   1.723   0.195   2.082  1.4189  2.1705 -0.7412
  744TIP3   OH223790   3.070   2.566   2.198  0.0159  0.1752  0.0981
  744TIP3    H123791   3.041   2.634   2.258  1.0671 -0.0164  0.8595
  744TIP3    H223792   3.007   2.495   2.210 -0.0615  0.3275  0.6406
  745TIP3   OH223793   4.709   5.133   8.120  0.3328  0.1060  0.4813
  745TIP3    H123794   4.679   5.211   8.074 -0.6368  0.0121  0.9251
  745TIP3    H223795   4.652   5.063   8.089  0.6448 -0.2529  0.7108
  746TIP3   OH223796   2.548   1.168   0.374 -0.2121 -0.0725  0.4871
  746TIP3    H123797   2.617   1.130   0.320  0.5005 -1.2446  2.1381
  746TIP3    H223798   2.469   1.118   0.352 -0.3726  0.6907 -0.7648
  747TIP3   OH223799   3.233   5.144   7.826  0.0693 -0.4022  0.8460
  747TIP3    H123800   3.287   5.194   7.764 -1.1014  1.2978  1.1232
  747TIP3    H223801   3.284   5.140   7.906  0.8739 -1.1425  0.3196
  748TIP3   OH223802   5.664   5.277   1.429 -0.0647 -0.0343  0.2070
  748TIP3    H123803   5.672   5.337   1.355  0.0778 -1.5481 -1.0721
  748TIP3    H223804   5.611   5.205   1.395  0.7533 -1.1930  1.3010
  749TIP3   OH223805   2.704   6.704   0.986  0.0266 -0.0735 -0.2973
  749TIP3    H123806   2.640   6.637   0.961 -1.2506  0.5003  1.2548
  749TIP3    H223807   2.771   6.655   1.034 -0.4721 -0.3879  0.0992
  750TIP3   OH223808   5.834   1.452   0.468 -0.4071  0.3401 -0.0377
  750TIP3    H123809   5.811   1.387   0.402 -0.1683 -0.2795  0.4866
  750TIP3    H223810   5.924   1.432   0.493 -0.5773  0.3999  0.6645
  751TIP3   OH223811   3.888   2.878   0.068 -0.9900 -0.2527  0.7712
  751TIP3    H123812   3.801   2.913   0.085 -1.5173 -1.0020 -0.2691
  751TIP3    H223813   3.885   2.789   0.104 -1.5069 -1.1783 -1.3852
  752TIP3   OH223814   0.859   5.272   8.257  0.1294  0.1303 -0.5954
  752TIP3    H123815   0.939   5.228   8.228  0.3655 -0.2518  0.5924
  752TIP3    H223816   0.789   5.212   8.234  0.2167  0.2677 -1.2395
  753TIP3   OH223817   3.259   2.256   7.753  0.1176 -0.0556 -0.2710
  753TIP3    H123818   3.279   2.326   7.691  0.3974 -1.3967 -1.7770
  753TIP3    H223819   3.218   2.188   7.699  1.2039 -1.6478  0.8161
  754TIP3   OH223820   3.042   2.843   7.431 -0.3836  0.5789  0.2177
  754TIP3    H123821   3.042   2.909   7.500  0.6655  1.0414 -0.2088
  754TIP3    H223822   3.037   2.759   7.478  3.1110  0.6999  1.1230
  755TIP3   OH223823   4.406   5.051   2.546 -0.1265 -0.8139 -0.3479
  755TIP3    H123824   4.471   5.088   2.487 -0.0136 -1.9206 -0.9339
  755TIP3    H223825   4.402   4.959   2.523  1.4605 -1.7841  2.7592
  756TIP3   OH223826   4.070   3.119   1.254  0.1072 -0.0647  0.1821
  756TIP3    H123827   4.142   3.065   1.285 -0.4261  0.5774  2.7804
  756TIP3    H223828   3.992   3.079   1.292 -0.3885  1.9876  1.4755
  757TIP3   OH223829   2.548   1.385   7.058 -0.1474  0.2808  0.3008
  757TIP3    H123830   2.455   1.375   7.037 -0.5089  0.4901  1.7424
  757TIP3    H223831   2.591   1.391   6.972 -1.3759 -0.4771 -0.3956
  758TIP3   OH223832   0.832   5.762   2.238 -0.1641  0.1217 -0.0830
  758TIP3    H123833   0.755   5.819   2.238  0.3375  0.8176  0.2691
  758TIP3    H223834   0.800   5.679   2.273 -0.9712  0.0897 -0.8517
  759TIP3   OH223835   4.559   5.939   7.506  0.2238 -1.1644 -0.8201
  759TIP3    H123836   4.498   5.880   7.461  0.0611 -1.1166 -0.6617
  759TIP3    H223837   4.590   5.998   7.437 -1.0871 -0.1944 -0.6091
  760TIP3   OH223838   5.022   4.704   0.515 -0.3216 -1.0191  0.1903
  760TIP3    H123839   5.061   4.644   0.579 -1.0023  0.4678  2.1253
  760TIP3    H223840   4.929   4.707   0.540 -0.3752  0.4953 -0.0847
  761TIP3   OH223841   5.455   0.359   7.600 -0.7906 -0.4869  0.9825
  761TIP3    H123842   5.371   0.315   7.600 -2.3536  2.0705 -2.2514
  761TIP3    H223843   5.448   0.425   7.669 -2.6405  1.4903 -0.9694
  762TIP3   OH223844   5.666   4.290   0.653 -0.6023  0.3015  0.0023
  762TIP3    H123845   5.636   4.365   0.704  0.9409  1.6162 -0.9239
  762TIP3    H223846   5.661   4.216   0.713 -1.5058  1.2650  1.1585
  763TIP3   OH223847   6.725   4.004   1.464 -0.1312  0.3202  0.0805
  763TIP3    H123848   6.784   3.937   1.498 -0.6755 -0.2762 -0.1319
  763TIP3    H223849   6.701   3.973   1.376 -0.5839  0.6659  0.0746
  764TIP3   OH223850   4.910   2.551   1.821 -0.3586 -0.4677 -0.2775
  764TIP3    H123851   4.983   2.590   1.775  0.3802 -0.4250  0.8845
  764TIP3    H223852   4.898   2.464   1.781 -0.4121 -0.0346 -1.2120
  765TIP3   OH223853   6.710   0.745   2.011  0.1798 -0.2745 -0.4161
  765TIP3    H123854   6.802   0.726   1.996 -0.0708 -1.9425  0.0395
  765TIP3    H223855   6.703   0.758   2.106 -0.1133 -0.4880 -0.4075
  766TIP3   OH223856   0.852   4.676   8.354 -0.0432  0.6506 -0.2964
  766TIP3    H123857   0.805   4.609   8.305  1.5011 -0.9588  0.3068
  766TIP3    H223858   0.812   4.675   8.441  0.0757  0.3719 -0.2419
  767TIP3   OH223859   4.696   4.811   0.590 -0.5912 -0.3317 -0.1463
  767TIP3    H123860   4.739   4.884   0.632  0.7286 -0.7710 -0.6887
  767TIP3    H223861   4.705   4.738   0.651  1.2398 -0.9437 -1.0728
  768TIP3   OH223862   4.919   2.139   0.789  0.2974 -0.1976  0.6800
  768TIP3    H123863   4.866   2.061   0.772 -0.6521  0.0083  2.4504
  768TIP3    H223864   4.885   2.205   0.729 -0.7684 -0.3780  1.0656
  769TIP3   OH223865   2.722   0.007   0.617  0.1781 -0.4650 -0.8604
  769TIP3    H123866   2.658  -0.061   0.599  1.5337 -2.0194 -0.0485
  769TIP3    H223867   2.791  -0.007   0.552  0.4880  0.1474 -0.6747
  770TIP3   OH223868   1.639   4.693   2.395 -0.3317  0.1969 -0.4706
  770TIP3    H123869   1.639   4.783   2.428 -0.2360  0.1988 -0.4740
  770TIP3    H223870   1.628   4.639   2.473  1.2046  0.1452 -0.2536
  771TIP3   OH223871   5.829   0.400   8.062  0.2181 -0.0408 -0.6142
  771TIP3    H123872   5.832   0.309   8.034  0.0759 -1.1560  2.5708
  771TIP3    H223873   5.736   0.420   8.071  0.1310 -1.4434  3.5914
  772TIP3   OH223874   6.445   1.016   6.845  0.8017  0.1166 -0.2295
  772TIP3    H123875   6.515   1.037   6.784  1.3664  1.6796  0.8949
  772TIP3    H223876   6.385   1.090   6.839 -0.2199 -0.6867 -0.3640
  773TIP3   OH223877   6.016   4.007   1.473 -0.3121  0.1894 -0.7910
  773TIP3    H123878   5.941   3.962   1.513 -0.1523 -0.1777 -0.8983
  773TIP3    H223879   5.989   4.021   1.382 -0.1881 -0.0970 -0.8750
  774TIP3   OH223880   6.240   6.593   0.616  0.0092 -0.6007 -0.2844
  774TIP3    H123881   6.220   6.670   0.564  2.2930  0.6374  0.5168
  774TIP3    H223882   6.164   6.582   0.673 -0.3641  1.0773 -0.4106
  775TIP3   OH223883   2.315   4.434   7.788  0.1164  0.2795  0.2074
  775TIP3    H123884   2.347   4.475   7.708 -0.1186 -0.1596 -0.1090
  775TIP3    H223885   2.290   4.346   7.763 -0.9409  0.4679  0.5328
  776TIP3   OH223886   2.714   2.543   0.819 -0.2452  0.3372 -0.8160
  776TIP3    H123887   2.736   2.603   0.748  1.1243  1.2135  0.3032
  776TIP3    H223888   2.760   2.462   0.798  2.4450  1.4454  0.3566
  777TIP3   OH223889   5.372   4.308   7.652 -0.1188  0.4085  0.4354
  777TIP3    H123890   5.404   4.379   7.597 -0.4974 -0.5307 -1.0369
  777TIP3    H223891   5.288   4.339   7.685 -0.9300  0.1237 -1.3016
  778TIP3   OH223892   6.061   2.025   2.859  0.1190 -0.2082 -0.5434
  778TIP3    H123893   5.995   1.960   2.882  0.7617 -0.6444  0.0828
  778TIP3    H223894   6.128   2.016   2.926  0.0233  1.3968 -0.1955
  779TIP3   OH223895   3.053   6.377   7.324  0.2544  0.2464 -0.4653
  779TIP3    H123896   3.044   6.472   7.314  0.7953  0.1631 -2.0538
  779TIP3    H223897   3.142   6.359   7.293  0.7189 -0.6126  1.2625
  780TIP3   OH223898   4.845   0.551   1.368  0.0273  0.1602 -0.2886
  780TIP3    H123899   4.897   0.501   1.306 -0.8435 -0.1330 -0.8110
  780TIP3    H223900   4.906   0.577   1.436  0.7889 -0.3911 -0.7476
  781TIP3   OH223901   4.662   3.324   0.047  0.0614 -0.0287 -0.3614
  781TIP3    H123902   4.714   3.255   0.089  1.2298  0.1834 -1.3795
  781TIP3    H223903   4.621   3.371   0.119 -0.0147 -1.2166  0.3977
  782TIP3   OH223904   2.278   5.054   0.602  0.9621 -0.1156 -0.4769
  782TIP3    H123905   2.268   4.964   0.631  0.9904  0.0646  0.1072
  782TIP3    H223906   2.368   5.059   0.569  0.6070 -0.5789 -1.5332
  783TIP3   OH223907   4.364   4.039   0.932 -0.2580 -0.2489  0.5259
  783TIP3    H123908   4.363   3.956   0.981  1.8414  0.3337  1.6998
  783TIP3    H223909   4.343   4.105   0.998 -0.0999  0.3125  0.0144
  784TIP3   OH223910   2.998   2.788   1.403 -0.1829  0.2792 -0.6747
  784TIP3    H123911   3.048   2.706   1.395  0.2210  0.3817  0.6075
  784TIP3    H223912   3.062   2.857   1.388  0.3967  0.4496  1.9974
  785TIP3   OH223913   4.162   4.432   1.054 -0.3744  0.1768 -0.1491
  785TIP3    H123914   4.130   4.522   1.065  1.7318  1.1719 -1.4358
  785TIP3    H223915   4.243   4.429   1.105  0.8586 -0.1774 -2.0276
  786TIP3   OH223916   1.679   5.445   1.076  0.0841 -0.5129  0.5145
  786TIP3    H123917   1.595   5.444   1.122  0.0951  0.6474  0.5888
  786TIP3    H223918   1.656   5.436   0.983 -0.1686  0.2033  0.4977
  787TIP3   OH223919   4.234   0.395   7.556  0.4300  0.1502  0.2003
  787TIP3    H123920   4.151   0.407   7.510 -0.0182  0.3523  1.0491
  787TIP3    H223921   4.253   0.302   7.547 -0.3505 -0.0739  0.7671
  788TIP3   OH223922   2.311   6.393   7.336  0.0047  0.1887 -0.0176
  788TIP3    H123923   2.298   6.313   7.387 -1.3751  0.9165  0.8381
  788TIP3    H223924   2.401   6.387   7.304  0.1914 -1.3092  0.7138
  789TIP3   OH223925   3.321   3.075   2.857  0.4492  0.7040  0.0285
  789TIP3    H123926   3.380   3.008   2.823 -0.7375 -0.6637  0.5419
  789TIP3    H223927   3.369   3.157   2.846  1.9999 -0.2260 -0.5181
  790TIP3   OH223928   3.189   4.629   2.645 -0.3551  0.5970 -0.1581
  790TIP3    H123929   3.249   4.584   2.586 -1.3967 -0.4374 -0.4728
  790TIP3    H223930   3.244   4.661   2.717  0.3538 -1.7172  0.3904
  791TIP3   OH223931   0.533   6.074   7.595 -0.0648 -0.3077  0.4334
  791TIP3    H123932   0.561   5.985   7.616  0.6793 -0.2339 -0.2189
  791TIP3    H223933   0.476   6.098   7.668 -0.6077 -1.4600  0.4109
  792TIP3   OH223934   4.791   2.347   2.520  0.1748  0.4392  0.1548
  792TIP3    H123935   4.795   2.397   2.439 -0.9650 -0.2643 -0.3553
  792TIP3    H223936   4.832   2.405   2.585  1.0460  1.0343 -0.8897
  793TIP3   OH223937   1.385   3.518   8.022  0.6836  0.1935 -0.4431
  793TIP3    H123938   1.414   3.534   8.112 -0.9126  2.7384 -0.2843
  793TIP3    H223939   1.440   3.574   7.968  1.2318 -0.8721 -1.0262
  794TIP3   OH223940   0.453   0.054   8.514 -0.2375 -0.0266  0.3914
  794TIP3    H123941   0.532   0.104   8.531  0.3439 -0.5605 -0.6699
  794TIP3    H223942   0.413   0.095   8.438 -0.2953 -0.5517  0.1347
  795TIP3   OH223943   3.336   6.011   0.834  0.3084  0.4749 -0.0582
  795TIP3    H123944   3.252   5.980   0.867  0.3909  0.1478 -0.1482
  795TIP3    H223945   3.321   6.028   0.741  1.1627 -2.8268 -0.9261
  796TIP3   OH223946   4.522   0.147   3.034  0.1110 -0.3430 -0.3980
  796TIP3    H123947   4.482   0.234   3.034 -0.0049 -0.3690  1.1502
  796TIP3    H223948   4.459   0.091   2.988  0.3831  0.4472 -1.7818
  797TIP3   OH223949   1.425   1.031   7.355 -0.3038  0.0918 -0.3473
  797TIP3    H123950   1.383   1.032   7.269 -2.7911 -0.1003  0.7748
  797TIP3    H223951   1.453   0.941   7.367 -1.6963 -0.3490 -0.2141
  798TIP3   OH223952   4.898   0.434   1.655 -0.7997  0.3241 -0.0159
  798TIP3    H123953   4.875   0.343   1.636 -0.4449  0.4346 -1.0923
  798TIP3    H223954   4.992   0.431   1.673 -0.6963  0.5324 -0.5057
  799TIP3   OH223955   4.276   4.728   7.999 -1.0840  0.7505  0.5082
  799TIP3    H123956   4.202   4.694   8.051 -0.7462 -0.2600  0.3623
  799TIP3    H223957   4.299   4.655   7.941  0.8217  0.5643  1.4050
  800TIP3   OH223958   0.525   6.621   2.575  0.6127 -0.7986 -0.0632
  800TIP3    H123959   0.441   6.621   2.530  1.9176 -1.6174 -2.7250
  800TIP3    H223960   0.533   6.532   2.610  1.1169 -1.3332 -1.4581
  801TIP3   OH223961   3.402   5.257   2.786  0.1575  0.0067 -0.2372
  801TIP3    H123962   3.417   5.172   2.826 -0.4074 -0.1656 -0.3732
  801TIP3    H223963   3.474   5.312   2.817  1.0782 -0.7830 -0.9183
  802TIP3   OH223964   4.985   4.574   1.009 -0.0331 -0.5211  0.7025
  802TIP3    H123965   5.051   4.635   1.040 -0.5945 -0.5592  2.0419
  802TIP3    H223966   5.018   4.487   1.033  0.0176 -0.6429  0.2216
  803TIP3   OH223967   0.648   0.147   1.677 -0.3667 -0.1666  0.3292
  803TIP3    H123968   0.584   0.123   1.610 -0.6134  0.2939  0.3931
  803TIP3    H223969   0.648   0.242   1.678 -1.4997 -0.1313  2.0179
  804TIP3   OH223970   2.559   3.762   0.513  0.1102  0.0315 -0.1652
  804TIP3    H123971   2.522   3.715   0.588 -0.3367 -1.7334 -1.4097
  804TIP3    H223972   2.601   3.693   0.461  1.5094  1.3909 -0.9260
  805TIP3   OH223973   1.021   1.417   1.166 -0.1729 -0.3308  0.3433
  805TIP3    H123974   0.951   1.477   1.142  0.8395  0.7267 -0.0856
  805TIP3    H223975   0.978   1.332   1.176 -1.1860 -0.1610 -1.9391
  806TIP3   OH223976   2.485   2.153   0.610 -0.0275  0.1492 -0.0836
  806TIP3    H123977   2.515   2.237   0.575  0.8084 -0.3808 -0.6878
  806TIP3    H223978   2.486   2.094   0.534  1.9911 -1.0803  0.8082
  807TIP3   OH223979   4.504   4.231   6.646  0.2072 -0.3234  0.0552
  807TIP3    H123980   4.513   4.164   6.713  0.9764 -0.7012 -0.3986
  807TIP3    H223981   4.412   4.255   6.647  0.0850 -0.8048  0.7844
  808TIP3   OH223982   2.653   5.502   1.435 -0.9791 -0.2324  0.0555
  808TIP3    H123983   2.744   5.471   1.429 -1.1808 -0.9927  0.6756
  808TIP3    H223984   2.657   5.577   1.493 -0.9470 -1.2260  1.3799
  809TIP3   OH223985   6.173   5.849   2.450  0.7285 -0.8279 -0.4279
  809TIP3    H123986   6.085   5.886   2.443  1.2439  0.4948 -0.1146
  809TIP3    H223987   6.229   5.909   2.400  1.9186  0.0326  1.8110
  810TIP3   OH223988   3.088   2.649   0.592  0.2132 -0.4466  0.1173
  810TIP3    H123989   3.104   2.646   0.686 -2.0483 -0.5448  0.5497
  810TIP3    H223990   2.997   2.676   0.583 -0.1982 -2.2134 -1.9775
  811TIP3   OH223991   3.464   5.878   7.587  0.3103 -0.3033 -0.2003
  811TIP3    H123992   3.522   5.953   7.599  2.5365 -1.9426  0.1269
  811TIP3    H223993   3.381   5.915   7.559  1.1538  2.2857  0.4676
  812TIP3   OH223994   5.992   1.007   8.447 -0.0413 -0.4394 -0.4291
  812TIP3    H123995   6.021   0.937   8.388 -0.3232  0.3696 -1.5666
  812TIP3    H223996   5.962   1.077   8.388 -1.2691  0.0144  0.6927
  813TIP3   OH223997   5.507   0.800   1.258 -0.3570  0.1758  0.6505
  813TIP3    H123998   5.412   0.813   1.267 -0.3020  0.0428  1.5017
  813TIP3    H223999   5.523   0.715   1.299  0.0190 -0.2025 -0.2531
  814TIP3   OH224000   3.719   5.480   7.614 -0.1866 -0.0026 -0.2059
  814TIP3    H124001   3.808   5.452   7.594 -0.0628 -0.3235  0.7247
  814TIP3    H224002   3.698   5.545   7.547  1.6339  1.8818  0.9540
  815TIP3   OH224003   0.159   2.023   8.188  0.2882 -0.2857  0.3063
  815TIP3    H124004   0.237   1.984   8.225  0.3548 -1.5998 -1.1391
  815TIP3    H224005   0.180   2.116   8.179  0.6530 -0.1230  2.4459
  816TIP3   OH224006   6.336   0.864   3.600  0.5915 -0.1495  0.6217
  816TIP3    H124007   6.313   0.778   3.634 -0.5668 -0.3883 -0.6680
  816TIP3    H224008   6.291   0.869   3.516  0.0307  2.0272  1.0023
  817TIP3   OH224009   5.128   2.201   0.102  0.6132 -0.4501 -0.0222
  817TIP3    H124010   5.099   2.292   0.099 -0.2456 -0.6121  1.6088
  817TIP3    H224011   5.212   2.200   0.057  0.6778  1.1635  0.0095
  818TIP3   OH224012   4.653   2.533   0.964  0.1280  0.2363 -0.3094
  818TIP3    H124013   4.693   2.498   0.884 -1.6101  2.0983 -2.0929
  818TIP3    H224014   4.563   2.502   0.961  0.2718 -0.4801  1.5143
  819TIP3   OH224015   2.872   4.929   7.899 -0.3903 -0.1304  0.1493
  819TIP3    H124016   2.778   4.945   7.896 -0.3012  0.4896  0.5866
  819TIP3    H224017   2.908   4.980   7.827 -0.4039 -0.4794 -0.1057
  820TIP3   OH224018   5.885   3.054   0.332 -0.2434 -0.0693  0.0511
  820TIP3    H124019   5.869   3.046   0.238  0.7537 -1.3217 -0.0330
  820TIP3    H224020   5.977   3.077   0.339 -0.0846 -0.8928  0.7561
  821TIP3   OH224021   1.096   3.160   3.011  0.5170  0.3043  0.2107
  821TIP3    H124022   1.118   3.107   2.934 -1.2043 -1.3277  0.7668
  821TIP3    H224023   1.080   3.248   2.976 -0.5840 -0.4879 -1.3780
  822TIP3   OH224024   5.386   3.452   7.958  0.3503  0.4370  0.0629
  822TIP3    H124025   5.445   3.479   7.888  0.9518  0.2553  0.4989
  822TIP3    H224026   5.336   3.379   7.921 -0.3849  1.2940 -0.6801
  823TIP3   OH224027   2.149   3.383   1.600 -0.1720  0.2991  0.4738
  823TIP3    H124028   2.200   3.463   1.585  0.7677 -0.0270  1.7853
  823TIP3    H224029   2.144   3.375   1.695  0.6640 -1.7627  0.4009
  824TIP3   OH224030   1.706   0.638   8.300 -0.5162  0.1193  0.1637
  824TIP3    H124031   1.790   0.662   8.339  0.3383 -1.5264 -0.5675
  824TIP3    H224032   1.727   0.609   8.212 -1.6790 -1.3718  0.3333
  825TIP3   OH224033   0.848   2.617   7.233  0.1321 -0.0582 -0.0299
  825TIP3    H124034   0.800   2.659   7.304  1.0239  1.1690 -0.1248
  825TIP3    H224035   0.797   2.635   7.155  0.4004  0.7070 -0.0381
  826TIP3   OH224036   2.991   0.193   1.587  0.0641  0.1419 -0.1694
  826TIP3    H124037   3.073   0.234   1.558 -0.4055  1.9167  0.8743
  826TIP3    H224038   3.019   0.117   1.637  1.1525  1.2755  1.0241
  827TIP3   OH224039   0.800   3.620   7.281 -0.5273  0.3800  0.8200
  827TIP3    H124040   0.843   3.657   7.358  2.1516  1.0214 -0.8474
  827TIP3    H224041   0.751   3.693   7.243  0.9118  1.0168  0.1176
  828TIP3   OH224042   1.408   5.509   1.562 -0.5082 -0.2011  0.2568
  828TIP3    H124043   1.490   5.522   1.610 -0.8562 -1.8832  1.3927
  828TIP3    H224044   1.382   5.597   1.534  0.7231  0.5867  1.4845
  829TIP3   OH224045   0.444   3.382   0.806  0.4733  0.0737 -0.2043
  829TIP3    H124046   0.472   3.464   0.766  3.0617  0.3485  1.9310
  829TIP3    H224047   0.403   3.408   0.888  1.4129 -0.7508  0.5456
  830TIP3   OH224048   3.697   1.268   1.819 -0.3766 -0.2464 -0.0012
  830TIP3    H124049   3.792   1.280   1.831 -0.3818  0.0188 -0.2120
  830TIP3    H224050   3.661   1.282   1.907 -0.2271 -0.2818  0.0681
  831TIP3   OH224051   3.469   4.692   7.599 -0.1798 -0.6256  0.1593
  831TIP3    H124052   3.434   4.713   7.512 -1.0974 -0.5035  0.5445
  831TIP3    H224053   3.415   4.743   7.659 -0.1530 -1.4059  0.8668
  832TIP3   OH224054   2.879   3.063   1.808  0.5368 -0.2031 -0.3898
  832TIP3    H124055   2.892   3.047   1.901  0.4997 -0.1174 -0.3703
  832TIP3    H224056   2.913   2.984   1.765  4.0359  1.2253 -0.5693
  833TIP3   OH224057   0.674   4.897   0.657  0.4702  0.1332  0.1146
  833TIP3    H124058   0.654   4.870   0.567  1.3980 -1.0311  0.2323
  833TIP3    H224059   0.717   4.821   0.695  2.3059  1.4661  0.8024
  834TIP3   OH224060   0.525   6.721   1.399  0.0938 -0.1080  0.2572
  834TIP3    H124061   0.595   6.701   1.336  2.2703 -1.3183  2.8652
  834TIP3    H224062   0.447   6.679   1.362  1.6514 -2.1982 -0.8474
  835TIP3   OH224063   2.711   3.955   0.808  0.4195  0.3390 -0.1193
  835TIP3    H124064   2.748   4.005   0.735  0.5328 -0.5640 -0.6957
  835TIP3    H224065   2.736   3.864   0.790 -2.1673 -0.3528 -0.6130
  836TIP3   OH224066   3.485   4.710   2.158  0.4861 -0.2941 -0.1325
  836TIP3    H124067   3.428   4.671   2.092 -1.0355 -0.9067  1.4515
  836TIP3    H224068   3.447   4.796   2.174  1.8317  0.5381 -1.1844
  837TIP3   OH224069   1.001   2.980   8.613  0.7687  0.3390  0.3524
  837TIP3    H124070   1.044   3.065   8.615  1.5005 -0.0339  0.6977
  837TIP3    H224071   1.003   2.950   8.704  0.1098  0.1484  0.3133
  838TIP3   OH224072   6.214   6.733   2.790 -0.0405 -0.1532 -0.2825
  838TIP3    H124073   6.142   6.792   2.809 -2.1554 -2.8500  0.6761
  838TIP3    H224074   6.271   6.739   2.867  1.4904  2.7841 -1.5012
  839TIP3   OH224075   3.294   2.660   7.841  0.2842 -0.2146 -0.2698
  839TIP3    H124076   3.232   2.723   7.877  0.2445  0.3763 -1.3531
  839TIP3    H224077   3.279   2.661   7.747  2.0018  0.0106 -0.5719
  840TIP3   OH224078   2.733   5.463   8.382 -0.0887  0.0294 -0.1918
  840TIP3    H124079   2.761   5.439   8.294 -0.2973 -0.5563 -0.1047
  840TIP3    H224080   2.699   5.381   8.420 -0.5623  0.4036  0.2129
  841TIP3   OH224081   5.124   4.238   0.452  0.4219  0.0113 -0.5434
  841TIP3    H124082   5.111   4.274   0.540 -1.3534 -1.9283  0.0662
  841TIP3    H224083   5.087   4.305   0.394 -1.1594  0.0406  0.4301
  842TIP3   OH224084   2.131   4.691   8.531  0.5786 -0.0648 -0.2355
  842TIP3    H124085   2.142   4.602   8.497 -2.3438 -0.5903 -0.0371
  842TIP3    H224086   2.097   4.679   8.620  2.1037  1.3149  0.6007
  843TIP3   OH224087   1.124   4.506   7.981  0.7681  0.1541  0.2120
  843TIP3    H124088   1.044   4.484   8.029  0.7097  0.1540  0.1148
  843TIP3    H224089   1.195   4.492   8.044  0.8159 -1.1623 -0.1012
  844TIP3   OH224090   5.859   6.191   8.098 -0.1172  0.5416  0.0994
  844TIP3    H124091   5.952   6.198   8.118  0.1276  2.2057 -1.4032
  844TIP3    H224092   5.855   6.133   8.022 -0.2413  0.9647 -0.2185
  845TIP3   OH224093   3.331   2.015   6.759 -0.0016 -0.2323 -0.2373
  845TIP3    H124094   3.393   1.954   6.719 -0.2079 -0.1495 -0.6986
  845TIP3    H224095   3.353   2.100   6.721 -0.9816 -0.3508 -1.1265
  846TIP3   OH224096   4.812   0.887   2.502 -0.5771 -0.0581 -0.2923
  846TIP3    H124097   4.830   0.850   2.588 -1.3030 -1.0398 -0.5467
  846TIP3    H224098   4.844   0.821   2.440 -2.6842 -0.7040 -0.7565
  847TIP3   OH224099   3.871   2.007   7.769 -0.0659 -0.3548  0.1499
  847TIP3    H124100   3.907   1.948   7.835  1.4526  0.7124  0.3374
  847TIP3    H224101   3.776   1.999   7.778  0.1122 -0.9688  1.7910
  848TIP3   OH224102   4.087   6.838   1.554  0.6710  0.1578  1.1123
  848TIP3    H124103   4.148   6.874   1.619 -1.3629  1.3031  2.5006
  848TIP3    H224104   4.138   6.771   1.509  2.9785  1.1191  2.1042
  849TIP3   OH224105   6.565   1.580   8.301  0.4499 -0.5277 -0.0785
  849TIP3    H124106   6.577   1.653   8.239 -1.6191  1.5595  1.7981
  849TIP3    H224107   6.481   1.542   8.277 -0.6065  0.6063  1.6319
  850TIP3   OH224108   3.951   6.838   0.110 -0.1988  0.1082 -0.4495
  850TIP3    H124109   4.008   6.915   0.118 -0.0285 -0.0662  0.0338
  850TIP3    H224110   3.911   6.848   0.024  0.2173  0.4688 -0.6092
  851TIP3   OH224111   6.459   3.698   7.138 -0.2217  0.3975  0.5026
  851TIP3    H124112   6.422   3.610   7.130 -1.0092  0.8754 -1.5991
  851TIP3    H224113   6.389   3.750   7.179 -1.4051  0.9155 -1.9642
  852TIP3   OH224114   3.352   2.423   2.082  0.1612  0.2530 -0.2720
  852TIP3    H124115   3.422   2.463   2.030  0.6559 -0.0361  0.1601
  852TIP3    H224116   3.364   2.459   2.170 -1.1377  1.3298 -0.5063
  853TIP3   OH224117   6.017   0.442   2.925 -0.1317 -0.4240  0.7027
  853TIP3    H124118   6.066   0.508   2.973 -0.6191 -0.7247  1.6401
  853TIP3    H224119   5.929   0.445   2.963 -1.0794  0.5573 -1.3736
  854TIP3   OH224120   4.051   5.885   0.055  0.1160 -0.4058  0.3445
  854TIP3    H124121   3.974   5.893   0.111 -0.9935  1.3307 -1.3096
  854TIP3    H224122   4.079   5.794   0.066 -1.3175 -0.6939  2.0392
  855TIP3   OH224123   1.847   0.148   1.081  0.2157 -0.4976  0.0885
  855TIP3    H124124   1.894   0.193   1.011  0.2990 -1.2999 -0.3878
  855TIP3    H224125   1.911   0.138   1.151  0.8483 -1.7814 -0.6426
  856TIP3   OH224126   3.010   0.669   8.189  0.1427  0.2363  0.1554
  856TIP3    H124127   2.922   0.703   8.173  0.2179  0.0307 -0.7815
  856TIP3    H224128   3.061   0.697   8.113  1.5490  2.4767  1.8024
  857TIP3   OH224129   3.197   5.031   7.481  0.4872  0.3492  0.1866
  857TIP3    H124130   3.206   5.062   7.571 -1.9270 -1.1408  1.0397
  857TIP3    H224131   3.132   5.091   7.442 -0.5012 -0.5931  0.3269
  858TIP3   OH224132   2.634   4.277   0.171 -0.2372  0.0174 -0.2274
  858TIP3    H124133   2.554   4.225   0.174  0.6774 -1.4450 -0.3690
  858TIP3    H224134   2.688   4.242   0.242  0.5908  0.4503 -0.6273
  859TIP3   OH224135   1.550   6.708   8.380 -0.6440 -0.0014 -0.2070
  859TIP3    H124136   1.580   6.620   8.361 -0.9393  0.1639 -1.5103
  859TIP3    H224137   1.463   6.696   8.420 -0.4612 -0.3153  0.0947
  860TIP3   OH224138   3.816   6.454   1.604 -0.4375  0.5364 -0.1062
  860TIP3    H124139   3.773   6.520   1.657 -0.5226  0.7457 -0.4320
  860TIP3    H224140   3.871   6.405   1.665  0.7665  1.8349 -0.0965
  861TIP3   OH224141   3.798   5.391   0.372  0.8200  0.1738 -0.1280
  861TIP3    H124142   3.819   5.446   0.297 -0.3027  0.0812 -0.5332
  861TIP3    H224143   3.709   5.361   0.356 -0.0314  1.3663  1.9864
  862TIP3   OH224144   3.310   1.699   1.294  0.1656  0.0593 -0.2638
  862TIP3    H124145   3.290   1.791   1.314 -0.3433 -0.2339  0.6149
  862TIP3    H224146   3.404   1.692   1.308 -0.0474  0.0584  1.3203
  863TIP3   OH224147   1.498   5.950   0.619 -0.2931  0.2684 -0.4448
  863TIP3    H124148   1.508   5.996   0.535  0.2874  1.1318  0.0803
  863TIP3    H224149   1.587   5.936   0.649 -0.3686 -2.5239 -1.2430
  864TIP3   OH224150   0.437   3.370   0.251 -0.0256  0.2298 -0.2764
  864TIP3    H124151   0.483   3.288   0.231  0.3801  0.9127 -2.3459
  864TIP3    H224152   0.352   3.360   0.209  0.5856  1.4404 -1.8735
  865TIP3   OH224153   6.555   2.848   2.007  0.2425 -0.3949  0.2247
  865TIP3    H124154   6.612   2.821   1.935 -0.4285 -1.5867  0.1129
  865TIP3    H224155   6.600   2.817   2.086 -1.0092 -2.9898  0.0512
  866TIP3   OH224156   0.832   3.693   1.631  0.3957  0.0688 -0.2865
  866TIP3    H124157   0.814   3.630   1.701  1.8053  1.3094  1.2880
  866TIP3    H224158   0.923   3.678   1.608  1.0436  2.0209  0.7526
  867TIP3   OH224159   5.528   1.282   1.350 -0.7864  0.6535 -1.0815
  867TIP3    H124160   5.524   1.195   1.391  1.4902  0.9260 -0.1160
  867TIP3    H224161   5.483   1.339   1.413  0.2299  0.6092 -0.2830
  868TIP3   OH224162   2.784   6.815   1.572 -0.0650 -0.0253 -0.6699
  868TIP3    H124163   2.780   6.746   1.637  0.0186  2.3113  1.9863
  868TIP3    H224164   2.875   6.846   1.576 -0.7501  2.0215  0.2688
  869TIP3   OH224165   4.298   4.965   7.458  0.0103 -0.2656  0.1920
  869TIP3    H124166   4.262   5.048   7.428 -1.7639 -0.9619  0.3148
  869TIP3    H224167   4.260   4.899   7.401  0.4036 -1.1297  0.9003
  870TIP3   OH224168   2.152   4.343   1.288  0.1296 -0.1159 -0.2540
  870TIP3    H124169   2.100   4.365   1.210  0.9686  0.4384 -0.6700
  870TIP3    H224170   2.171   4.428   1.328  2.4339 -0.1020 -1.2329
  871TIP3   OH224171   1.786   1.515   0.746  0.5965  0.5869 -0.5236
  871TIP3    H124172   1.726   1.561   0.688  0.5357  0.4520 -0.5695
  871TIP3    H224173   1.834   1.584   0.792 -1.7467  0.8034  1.8328
  872TIP3   OH224174   4.543   6.484   2.624  0.4026 -0.3018 -0.5162
  872TIP3    H124175   4.538   6.568   2.669  0.9173 -0.3312 -0.4018
  872TIP3    H224176   4.488   6.425   2.677  1.5823 -0.5271  0.5140
  873TIP3   OH224177   1.790   2.588   8.014 -0.8003 -0.3043 -0.3890
  873TIP3    H124178   1.724   2.603   7.947 -0.5834  2.4458 -0.0900
  873TIP3    H224179   1.740   2.577   8.095 -1.0037  2.3479 -0.0593
  874TIP3   OH224180   4.635   0.676   7.649 -0.4401 -0.1845 -0.4451
  874TIP3    H124181   4.639   0.702   7.557  0.4108 -1.3051 -0.7373
  874TIP3    H224182   4.546   0.641   7.660 -0.2841 -0.7687 -1.0387
  875TIP3   OH224183   0.750   6.450   7.081  0.4394 -0.1992  0.8722
  875TIP3    H124184   0.706   6.500   7.012  0.0902 -0.1811  1.1025
  875TIP3    H224185   0.795   6.379   7.035  0.3585 -0.0792  0.6090
  876TIP3   OH224186   4.873   3.941   0.125 -0.4852 -0.3499 -0.0474
  876TIP3    H124187   4.855   3.858   0.080 -0.0529  0.4898 -1.8699
  876TIP3    H224188   4.797   3.953   0.182 -0.9212 -1.6337 -0.3035
  877TIP3   OH224189   5.487   0.367   2.972 -0.2829 -0.3295 -0.1571
  877TIP3    H124190   5.409   0.407   3.011  0.0427  1.5015 -1.3233
  877TIP3    H224191   5.560   0.416   3.008  0.2365 -0.8795 -0.4419
  878TIP3   OH224192   3.587   4.210   2.133 -0.1936  0.3497  0.0398
  878TIP3    H124193   3.656   4.274   2.115  0.3286  0.0164  0.7954
  878TIP3    H224194   3.507   4.262   2.141  0.2850  0.9779  1.0380
  879TIP3   OH224195   4.449   4.610   2.443 -0.4926  0.1463  0.4937
  879TIP3    H124196   4.407   4.536   2.487 -0.5175 -1.4664 -2.0550
  879TIP3    H224197   4.387   4.635   2.374  1.1727 -0.0397 -1.1581
  880TIP3   OH224198   1.456   5.064   0.348  0.1335  0.1607  0.1041
  880TIP3    H124199   1.464   5.043   0.255 -0.5250 -1.7677  0.4450
  880TIP3    H224200   1.363   5.082   0.361  0.3227  1.0758  0.2900
  881TIP3   OH224201   3.345   2.741   1.100  0.5132  0.1793  0.3373
  881TIP3    H124202   3.369   2.779   1.185  0.0700 -0.6647  0.8516
  881TIP3    H224203   3.271   2.683   1.119  1.0287 -0.7755 -0.4571
  882TIP3   OH224204   4.684   1.460   8.125  0.3293 -0.4738  0.4467
  882TIP3    H124205   4.745   1.466   8.198  0.0787  0.9416  0.5588
  882TIP3    H224206   4.684   1.367   8.102  2.1200 -0.5891  0.7771
  883TIP3   OH224207   4.784   4.505   0.308  0.0223  0.2579 -0.7248
  883TIP3    H124208   4.877   4.493   0.290 -0.2113  0.0715 -1.8694
  883TIP3    H224209   4.774   4.600   0.320  0.2425  0.3610 -1.3205
  884TIP3   OH224210   4.959   1.145   1.249  0.5185 -0.3063 -0.1942
  884TIP3    H124211   5.011   1.094   1.186  1.8343 -0.0284  0.6321
  884TIP3    H224212   5.023   1.177   1.312 -0.3416  1.9370 -0.3788
  885TIP3   OH224213   5.156   0.712   2.292 -0.4905 -0.2130  0.4544
  885TIP3    H124214   5.146   0.759   2.209 -0.0723  2.8026  1.9799
  885TIP3    H224215   5.066   0.702   2.325 -0.9173 -3.5096 -1.2667
  886TIP3   OH224216   3.029   1.767   0.212 -0.1879  0.1716  0.1145
  886TIP3    H124217   2.946   1.771   0.164 -0.4668 -0.9730  0.4676
  886TIP3    H224218   3.096   1.779   0.145 -0.6328  1.2265 -0.1568
  887TIP3   OH224219   3.582   5.059   1.006  0.3112 -0.0589  0.1557
  887TIP3    H124220   3.638   4.989   1.039  0.1267 -0.1519  0.2689
  887TIP3    H224221   3.510   5.015   0.962  0.3699  0.0622 -0.0655
  888TIP3   OH224222   4.077   0.150   8.607  0.0508 -0.5442  0.5157
  888TIP3    H124223   4.068   0.083   8.539  2.3718 -0.2928 -0.0939
  888TIP3    H224224   4.007   0.213   8.588 -0.3900 -1.3331 -0.5989
  889TIP3   OH224225   4.329   5.184   2.113 -0.4784 -0.1811 -0.1438
  889TIP3    H124226   4.254   5.207   2.057 -1.3773 -0.6389  0.8365
  889TIP3    H224227   4.383   5.263   2.114  0.3212 -0.5945 -2.7779
  890TIP3   OH224228   0.311   2.699   8.310  0.1477 -0.1885 -0.6007
  890TIP3    H124229   0.271   2.785   8.328 -0.3847 -0.7249  0.9154
  890TIP3    H224230   0.238   2.638   8.316  1.0896 -1.1759  2.0169
  891TIP3   OH224231   3.474   2.051   7.662 -0.0271  0.8641  0.2561
  891TIP3    H124232   3.406   1.985   7.645  0.8885  0.2137 -1.1137
  891TIP3    H224233   3.517   2.021   7.743  0.3711 -0.2542 -0.3434
  892TIP3   OH224234   0.498   2.362   0.106 -0.5925 -0.5040  0.5888
  892TIP3    H124235   0.584   2.378   0.068 -0.9603 -1.6232 -0.7706
  892TIP3    H224236   0.437   2.409   0.049 -0.9961 -0.6983  0.8525
  893TIP3   OH224237   2.334   4.694   2.742 -0.1877 -0.3990 -0.0616
  893TIP3    H124238   2.264   4.727   2.799 -0.6727 -0.0207 -0.8684
  893TIP3    H224239   2.354   4.767   2.684  1.9176  0.0211  1.0948
  894TIP3   OH224240   0.677   4.939   1.249  0.0519 -0.4619 -0.8143
  894TIP3    H124241   0.594   4.894   1.230 -0.0410 -0.3595 -0.6564
  894TIP3    H224242   0.714   4.889   1.322  0.8082 -1.3620 -1.7853
  895TIP3   OH224243   3.815   4.291   2.341  0.1543 -0.1583 -0.1317
  895TIP3    H124244   3.905   4.273   2.369  1.1055  1.1846 -2.1236
  895TIP3    H224245   3.786   4.209   2.300 -0.9984 -1.9037  3.6800
  896TIP3   OH224246   5.879   0.550   7.572  0.1086  0.5456  0.0487
  896TIP3    H124247   5.945   0.585   7.513 -1.3496  1.0766 -1.3431
  896TIP3    H224248   5.814   0.510   7.515  0.1822 -1.7721  1.4621
  897TIP3   OH224249   1.532   1.268   7.020  0.1876  0.2174 -0.5187
  897TIP3    H124250   1.453   1.230   6.982  0.9442 -1.0273 -0.8816
  897TIP3    H224251   1.514   1.272   7.114 -0.8555  1.3223 -0.7314
  898TIP3   OH224252   4.740   2.120   6.427  0.4011  0.3808 -0.0683
  898TIP3    H124253   4.794   2.166   6.491 -0.7249 -0.1054  1.2831
  898TIP3    H224254   4.771   2.030   6.430 -0.4777  0.0840  0.7648
  899TIP3   OH224255   0.447   5.304   1.417 -0.8413 -0.0025 -0.1638
  899TIP3    H124256   0.375   5.295   1.479 -0.8916  0.5416 -0.1330
  899TIP3    H224257   0.469   5.398   1.419 -0.3649 -0.1032 -0.4298
  900TIP3   OH224258   5.198   1.444   0.467 -0.0535  0.2633  0.2287
  900TIP3    H124259   5.222   1.523   0.420  1.2467 -0.4868 -0.4440
  900TIP3    H224260   5.253   1.445   0.546  1.0197 -0.6125 -0.4661
  901TIP3   OH224261   4.654   1.152   8.357 -0.0338  0.6257 -0.2068
  901TIP3    H124262   4.737   1.113   8.384 -0.6613 -1.7052 -1.4229
  901TIP3    H224263   4.588   1.087   8.380 -1.4960  2.2070  0.2550
  902TIP3   OH224264   3.082   1.881   8.118 -0.1381  1.2698  0.2396
  902TIP3    H124265   2.990   1.859   8.107  0.0543  1.0823 -1.0948
  902TIP3    H224266   3.115   1.896   8.030  1.2836  0.6480  0.6256
  903TIP3   OH224267   6.725   5.687   8.505 -0.6185 -0.3744  0.3371
  903TIP3    H124268   6.771   5.673   8.587 -1.9564  0.8474  1.3331
  903TIP3    H224269   6.787   5.658   8.438  1.2604  0.4384  1.6577
  904TIP3   OH224270   5.798   2.676   7.511  0.2082 -0.0306 -0.1463
  904TIP3    H124271   5.871   2.730   7.539  1.0789  0.9523 -3.7509
  904TIP3    H224272   5.754   2.728   7.444 -1.6686 -2.0413 -0.5924
  905TIP3   OH224273   4.511   5.390   7.146  0.0841  0.0260 -0.0463
  905TIP3    H124274   4.479   5.331   7.214 -0.4694  0.3356 -0.0283
  905TIP3    H224275   4.490   5.478   7.180  0.5861  0.2181 -0.2258
  906TIP3   OH224276   1.838   3.848   1.848 -0.3073  0.6121 -0.3887
  906TIP3    H124277   1.817   3.834   1.940  0.0576  1.0001 -0.2425
  906TIP3    H224278   1.755   3.837   1.802 -1.1347  3.2130  0.2895
  907TIP3   OH224279   3.094   3.850   8.466  0.1758 -0.2840 -0.6264
  907TIP3    H124280   3.002   3.875   8.474  0.0255 -0.9661 -0.1533
  907TIP3    H224281   3.143   3.929   8.489 -0.2756  0.4251 -1.9865
  908TIP3   OH224282   4.286   1.057   0.871 -0.0128  0.1422 -0.1772
  908TIP3    H124283   4.302   1.144   0.908  2.1538 -0.0365 -0.5524
  908TIP3    H224284   4.198   1.034   0.901 -1.4182  3.1849 -1.5687
  909TIP3   OH224285   0.611   4.285   0.481  0.5999  0.0263 -0.0268
  909TIP3    H124286   0.673   4.356   0.492 -1.2839  1.7175  0.1440
  909TIP3    H224287   0.566   4.305   0.399 -1.9916  0.7410  1.4532
  910TIP3   OH224288   6.652   6.641   7.473 -0.0546 -0.3208  0.0073
  910TIP3    H124289   6.571   6.639   7.525  0.4632 -0.2906  0.8350
  910TIP3    H224290   6.641   6.570   7.409 -0.7277 -0.3281  0.1247
  911TIP3   OH224291   2.492   2.783   0.740  0.0111 -0.3699  0.3365
  911TIP3    H124292   2.457   2.699   0.709 -0.6580  0.2236 -0.5953
  911TIP3    H224293   2.584   2.782   0.715  0.0758 -0.9341  0.5827
  912TIP3   OH224294   6.663   2.648   1.396 -0.0365 -0.1428 -0.4847
  912TIP3    H124295   6.603   2.579   1.366  0.9522 -1.5688  0.6513
  912TIP3    H224296   6.707   2.610   1.472  2.9751  0.4255 -1.7887
  913TIP3   OH224297   3.247   4.641   8.248 -0.1362 -0.5650 -0.1401
  913TIP3    H124298   3.283   4.642   8.159 -0.6064 -0.6567 -0.3334
  913TIP3    H224299   3.190   4.564   8.250 -0.7752 -0.1022 -0.0249
  914TIP3   OH224300   4.264   2.368   6.995 -0.4029 -0.3547  0.0897
  914TIP3    H124301   4.318   2.298   6.959  0.1143 -0.2227  0.5945
  914TIP3    H224302   4.188   2.322   7.032 -2.0704 -0.3629 -2.9859
  915TIP3   OH224303   3.664   4.525   0.542 -0.2221  0.1398  0.7569
  915TIP3    H124304   3.615   4.448   0.572 -0.1137 -0.2375 -0.0153
  915TIP3    H224305   3.657   4.588   0.614 -3.2141  0.7476  0.0525
  916TIP3   OH224306   6.848   2.362   2.057  0.2104  0.0192  0.0288
  916TIP3    H124307   6.827   2.437   2.002  0.2768  0.6877  0.8977
  916TIP3    H224308   6.931   2.384   2.098  0.5730 -0.8298 -0.2164
  917TIP3   OH224309   2.061   4.724   0.784 -0.2325  0.7169 -0.6418
  917TIP3    H124310   1.989   4.740   0.844  1.4481 -1.5342  2.2464
  917TIP3    H224311   2.048   4.635   0.752  1.8923 -0.3262  1.1121
  918TIP3   OH224312   2.373   5.393   0.830 -0.3005  0.0071 -0.2201
  918TIP3    H124313   2.412   5.308   0.807  0.2336 -0.1182  1.0263
  918TIP3    H224314   2.380   5.445   0.750 -0.3642 -1.0197 -0.9198
  919TIP3   OH224315   1.998   2.437   0.301 -0.4158 -0.3315  0.3175
  919TIP3    H124316   2.070   2.412   0.243 -0.5047 -1.4024  0.6434
  919TIP3    H224317   2.024   2.406   0.387 -0.8094  0.1996  0.6367
  920TIP3   OH224318   5.967   5.974   6.974  0.2276 -0.9242 -0.7091
  920TIP3    H124319   5.945   5.882   6.967 -1.1343 -0.9821  2.4344
  920TIP3    H224320   5.891   6.021   6.941  0.1431 -0.9579 -0.5618
  921TIP3   OH224321   4.076   3.812   8.182  0.3474 -0.3207  0.5319
  921TIP3    H124322   4.107   3.753   8.114  0.9896  0.7376 -0.1041
  921TIP3    H224323   4.120   3.895   8.165  1.2675 -0.2669  2.7852
  922TIP3   OH224324   1.799   0.158   7.969 -0.4552 -1.2240  0.2013
  922TIP3    H124325   1.889   0.182   7.947 -0.6632 -1.1319 -0.5592
  922TIP3    H224326   1.808   0.087   8.032  0.1534 -1.7313 -0.4521
  923TIP3   OH224327   4.289   5.930   1.956  0.7516  1.0738  0.2503
  923TIP3    H124328   4.282   5.975   2.040 -2.2612  0.5419  0.4078
  923TIP3    H224329   4.303   5.838   1.979 -0.1561  0.9148  0.2103
  924TIP3   OH224330   2.637   3.429   6.816 -0.2331  0.5755  0.1350
  924TIP3    H124331   2.712   3.461   6.766 -0.4957 -1.7124 -1.8938
  924TIP3    H224332   2.562   3.474   6.776 -0.1814  0.9757  0.4828
  925TIP3   OH224333   3.679   6.421   7.473  0.2908 -0.3908  0.2034
  925TIP3    H124334   3.706   6.513   7.470 -1.2039  0.1158  0.9693
  925TIP3    H224335   3.612   6.414   7.405 -0.4306 -0.6043  0.9206
  926TIP3   OH224336   3.359   2.554   8.212 -0.6136 -0.0683 -0.2878
  926TIP3    H124337   3.390   2.644   8.205 -1.6402  0.2576 -0.8259
  926TIP3    H224338   3.390   2.512   8.132  0.0856 -0.2824  0.0803
  927TIP3   OH224339   5.311   1.414   1.830 -0.7150  0.3570 -0.3764
  927TIP3    H124340   5.232   1.466   1.815 -2.4651 -2.5597 -2.3034
  927TIP3    H224341   5.292   1.363   1.908  0.0857  0.9412  0.2218
  928TIP3   OH224342   4.421   1.882   0.044 -0.0993 -0.0111  0.4367
  928TIP3    H124343   4.425   1.973   0.013  2.3820 -0.6306 -1.4190
  928TIP3    H224344   4.402   1.831  -0.035 -0.6899 -1.1813  1.3082
  929TIP3   OH224345   5.280   2.728   7.418  0.6359 -0.1680  0.2090
  929TIP3    H124346   5.340   2.715   7.345  0.3470  0.1668 -0.0952
  929TIP3    H224347   5.206   2.775   7.379 -0.3076 -1.4660  0.3292
  930TIP3   OH224348   3.925   1.497   8.228 -0.0600 -0.8211 -0.5727
  930TIP3    H124349   3.876   1.572   8.194  0.7000 -0.2530 -0.4433
  930TIP3    H224350   3.935   1.438   8.153 -1.3251 -1.1702 -0.4912
  931TIP3   OH224351   5.521   4.221   1.854 -0.0531  0.3217  0.1350
  931TIP3    H124352   5.546   4.131   1.875 -0.3249  0.5970  1.7677
  931TIP3    H224353   5.567   4.240   1.772 -3.3309 -2.6980 -2.7361
  932TIP3   OH224354   6.012   0.999   7.956  0.0302 -0.2521 -0.1582
  932TIP3    H124355   6.007   1.062   8.028 -1.2884 -0.5722  0.0569
  932TIP3    H224356   6.087   0.945   7.978 -0.3545 -0.3529  1.0136
  933TIP3   OH224357   0.095   5.739   0.878 -0.1014  0.1613  0.2321
  933TIP3    H124358   0.133   5.689   0.806 -1.7970 -2.4143  0.9882
  933TIP3    H224359   0.123   5.693   0.957 -2.5007 -0.2793  0.9192
  934TIP3   OH224360   5.746   3.818   0.316 -0.7138  0.0448 -0.5419
  934TIP3    H124361   5.748   3.821   0.412  0.5394  1.5334 -0.5729
  934TIP3    H224362   5.682   3.884   0.291 -0.3475  0.3306 -0.7387
  935TIP3   OH224363   5.251   2.625   0.889 -0.8036  0.6214 -0.3205
  935TIP3    H124364   5.186   2.693   0.908 -0.2697  1.1496 -0.3672
  935TIP3    H224365   5.226   2.591   0.803 -2.3637 -0.7674  0.6018
  936TIP3   OH224366   6.474   5.701   8.213 -0.2788  0.3160 -0.2691
  936TIP3    H124367   6.506   5.613   8.194 -0.0064  0.7463 -2.0001
  936TIP3    H224368   6.488   5.749   8.131  0.2027  2.1501  0.8334
  937TIP3   OH224369   1.011   5.672   1.656  0.4127  0.0233  0.0921
  937TIP3    H124370   1.003   5.688   1.750  1.1653  0.8241  0.0371
  937TIP3    H224371   0.921   5.656   1.626  0.1931 -0.4169  0.9721
  938TIP3   OH224372   5.959   2.296   7.230 -0.3017  0.2130 -0.0195
  938TIP3    H124373   6.049   2.316   7.203 -0.2550 -0.3379 -0.3005
  938TIP3    H224374   5.940   2.359   7.299  1.2152 -1.2386  1.8514
  939TIP3   OH224375   0.417   3.880   8.163  0.0470  0.1625 -0.2268
  939TIP3    H124376   0.477   3.907   8.233  1.4066 -0.7962 -0.9906
  939TIP3    H224377   0.431   3.944   8.094 -1.9607  1.6678  0.6233
  940TIP3   OH224378   2.761   5.426   8.060  0.3093 -0.5793  0.2078
  940TIP3    H124379   2.842   5.476   8.052  1.2246 -2.0749 -0.4421
  940TIP3    H224380   2.711   5.448   7.982  0.0375  0.4057  0.6472
  941TIP3   OH224381   5.895   6.842   8.612  0.1299  0.3778 -0.0626
  941TIP3    H124382   5.922   6.828   8.703  0.3839  0.3176 -0.1460
  941TIP3    H224383   5.961   6.795   8.560  0.0965  0.5759 -0.2852
  942TIP3   OH224384   5.964   0.165   1.740  0.2353  0.1799 -0.1312
  942TIP3    H124385   5.983   0.204   1.654 -0.9210  2.3935  0.5567
  942TIP3    H224386   6.046   0.175   1.788  0.6172 -0.2507 -0.6766
  943TIP3   OH224387   0.869   3.451   7.054  1.0473  0.3837 -0.2087
  943TIP3    H124388   0.806   3.487   6.992  0.4829 -1.3908 -0.7326
  943TIP3    H224389   0.845   3.490   7.138 -0.5112  0.0668 -0.4723
  944TIP3   OH224390   3.735   5.587   0.762  0.1683  0.0026  0.2199
  944TIP3    H124391   3.645   5.619   0.750  0.3524  0.3894 -0.1533
  944TIP3    H224392   3.736   5.501   0.721 -0.3381 -0.5132  1.2455
  945TIP3   OH224393   1.628   5.627   7.698  0.4798 -0.3476  0.4476
  945TIP3    H124394   1.565   5.610   7.628  0.1942  3.7374 -0.5103
  945TIP3    H224395   1.598   5.572   7.770 -2.4660 -0.7059 -0.8889
  946TIP3   OH224396   0.207   5.369   8.271 -0.0373 -0.6199 -0.1873
  946TIP3    H124397   0.149   5.348   8.198 -1.2318  0.7374  0.3185
  946TIP3    H224398   0.160   5.339   8.349  0.7309 -1.0707  0.1135
  947TIP3   OH224399   1.988   1.862   0.698  0.4795  0.0401  0.5456
  947TIP3    H124400   1.965   1.926   0.632  0.0601 -0.3509  0.3085
  947TIP3    H224401   1.955   1.898   0.780 -0.0737 -0.0405  0.3582
  948TIP3   OH224402   4.567   4.735   8.081 -0.2368  0.9150  0.1211
  948TIP3    H124403   4.573   4.796   8.007  0.6706  1.3359  0.5296
  948TIP3    H224404   4.497   4.674   8.056  1.7425 -0.5759 -2.2984
  949TIP3   OH224405   0.795   3.172   1.021 -0.4437  0.1469 -0.3075
  949TIP3    H124406   0.855   3.149   1.092 -1.6938  0.0006  0.7407
  949TIP3    H224407   0.826   3.256   0.989  1.1815 -0.5914 -0.7907
  950TIP3   OH224408   5.455   4.389   1.164 -0.3732 -0.2151  0.0097
  950TIP3    H124409   5.451   4.418   1.072  0.8490 -0.7878 -0.2417
  950TIP3    H224410   5.528   4.439   1.201  0.5577 -1.5843  0.0729
  951TIP3   OH224411   2.920   3.227   1.519  0.3397 -0.5764  0.2125
  951TIP3    H124412   2.917   3.201   1.611  2.3544 -0.4659  0.3490
  951TIP3    H224413   2.903   3.321   1.521  2.0266 -0.2542  0.6797
  952TIP3   OH224414   6.255   5.178   7.616 -0.2239 -0.3272 -0.7002
  952TIP3    H124415   6.277   5.212   7.702  2.3987 -0.3217 -1.2892
  952TIP3    H224416   6.203   5.247   7.575 -0.1139  0.3638  0.2905
  953TIP3   OH224417   1.878   4.247   2.613 -0.4852 -0.2201  0.0629
  953TIP3    H124418   1.881   4.152   2.626 -0.0397  0.0282  2.3150
  953TIP3    H224419   1.969   4.275   2.616 -0.6954  0.5753  3.0999
  954TIP3   OH224420   1.568   0.339   1.859  0.1773 -0.0122 -0.5578
  954TIP3    H124421   1.603   0.314   1.945 -2.0397 -0.5500  0.2740
  954TIP3    H224422   1.524   0.260   1.828 -0.2072  0.5833 -1.5734
  955TIP3   OH224423   4.320   1.419   0.378 -1.0178 -0.0083  0.5435
  955TIP3    H124424   4.323   1.449   0.469 -1.3237  1.1690  0.1881
  955TIP3    H224425   4.272   1.337   0.381  1.2753 -1.3861  1.7829
  956TIP3   OH224426   0.158   0.387   8.506 -0.5594  0.1409  0.3398
  956TIP3    H124427   0.153   0.482   8.501  0.5805  0.1659 -0.7433
  956TIP3    H224428   0.245   0.365   8.473  0.9810 -1.0209  4.5022
  957TIP3   OH224429   3.751   4.648   1.309  0.4438 -0.5728 -0.0341
  957TIP3    H124430   3.697   4.635   1.231  0.7691 -1.1595 -0.1649
  957TIP3    H224431   3.724   4.733   1.342  0.2878 -0.3235 -0.7770
  958TIP3   OH224432   0.416   2.906   7.829  0.0575  0.3485  0.1659
  958TIP3    H124433   0.362   2.929   7.905  0.4440  1.3765  0.1423
  958TIP3    H224434   0.380   2.823   7.798  0.9154 -0.9506  2.4480
  959TIP3   OH224435   1.746   5.363   2.298  0.6719 -0.4933  0.9056
  959TIP3    H124436   1.663   5.398   2.265  1.4102 -0.3013 -0.8699
  959TIP3    H224437   1.783   5.434   2.351 -0.0368 -0.3835  1.2674
  960TIP3   OH224438   1.236   5.092   0.560 -0.1457 -0.0216  0.2533
  960TIP3    H124439   1.231   5.112   0.654  1.1487  2.7301 -0.1458
  960TIP3    H224440   1.200   5.171   0.518  1.1211 -0.3624 -1.5693
  961TIP3   OH224441   3.249   2.880   8.404 -0.0967 -0.3350 -0.2331
  961TIP3    H124442   3.255   2.807   8.465  0.4828 -0.4375 -0.4090
  961TIP3    H224443   3.328   2.931   8.420  0.6956 -1.0303 -1.7448
  962TIP3   OH224444   1.627   0.014   0.830  0.2368 -0.3109  0.2659
  962TIP3    H124445   1.663  -0.071   0.854  1.6482  0.0918 -0.3572
  962TIP3    H224446   1.642   0.021   0.736 -1.1557  0.0453  0.0379
  963TIP3   OH224447   0.437   4.472   1.939  0.0372  0.9559  0.3013
  963TIP3    H124448   0.523   4.455   1.902  0.4527  2.5976  0.4550
  963TIP3    H224449   0.434   4.417   2.018  0.1398 -0.5914 -0.7163
  964TIP3   OH224450   3.739   6.802   7.126  0.0993 -0.3754 -0.4293
  964TIP3    H124451   3.646   6.825   7.123  0.1259 -0.2156 -0.0656
  964TIP3    H224452   3.741   6.721   7.178  0.2193 -0.0707  0.0500
  965TIP3   OH224453   0.619   3.480   2.190 -0.0213  0.3457  0.2527
  965TIP3    H124454   0.697   3.498   2.242  0.4326 -2.0275  0.4880
  965TIP3    H224455   0.593   3.391   2.214 -1.1327  0.0047 -1.9140
  966TIP3   OH224456   4.206   2.917   0.609  0.6954  0.2244  0.4616
  966TIP3    H124457   4.242   2.993   0.563  1.4143  0.3028  1.1381
  966TIP3    H224458   4.111   2.928   0.603  0.7905  1.1119  0.4487
  967TIP3   OH224459   6.078   2.394   7.669 -0.1259  0.0560  0.3599
  967TIP3    H124460   6.130   2.461   7.713  1.0872 -0.7902  0.2362
  967TIP3    H224461   6.076   2.321   7.731 -0.2644 -0.3166 -0.0837
  968TIP3   OH224462   0.521   2.034   1.488 -0.4078 -0.1649  0.1031
  968TIP3    H124463   0.439   2.006   1.449 -1.3862 -0.9020  2.4934
  968TIP3    H224464   0.508   2.024   1.583  2.1080  0.5896  0.6264
  969TIP3   OH224465   0.691   4.240   1.853  0.7265 -0.0344  0.0748
  969TIP3    H124466   0.699   4.288   1.935  1.0427  4.0311 -2.0723
  969TIP3    H224467   0.777   4.201   1.840  0.3424 -1.7462  2.0945
  970TIP3   OH224468   4.229   0.043   0.873  0.0502  0.1593 -0.4014
  970TIP3    H124469   4.309   0.073   0.915  0.1223  0.1136 -0.5058
  970TIP3    H224470   4.162   0.048   0.942  0.9818 -3.9901  1.1378
  971TIP3   OH224471   3.524   3.776   0.976  0.1464 -0.3612 -0.5472
  971TIP3    H124472   3.476   3.693   0.965 -0.4289 -0.5125  2.2380
  971TIP3    H224473   3.465   3.830   1.030  1.2939  1.1663 -0.7625
  972TIP3   OH224474   3.458   4.899   0.490  0.2025 -0.4732 -0.6049
  972TIP3    H124475   3.488   4.914   0.400 -1.2733 -0.0186 -1.0535
  972TIP3    H224476   3.382   4.841   0.481 -0.9238  0.7947  0.1746
  973TIP3   OH224477   3.896   1.803   1.741  0.3157  0.0342  0.1964
  973TIP3    H124478   3.958   1.815   1.669  0.3450 -2.3363 -0.2727
  973TIP3    H224479   3.829   1.869   1.727  1.7179  1.3767 -0.4269
  974TIP3   OH224480   2.268   6.284   8.219  0.9514 -0.4360 -0.1238
  974TIP3    H124481   2.229   6.371   8.213 -0.5537 -1.1831 -3.1155
  974TIP3    H224482   2.209   6.236   8.277 -0.2716 -0.3939 -1.2892
  975TIP3   OH224483   1.375   3.868   0.211 -0.5536 -0.3182 -0.6137
  975TIP3    H124484   1.397   3.925   0.285 -1.0151 -0.1090 -0.6403
  975TIP3    H224485   1.433   3.792   0.223 -0.1235  0.0315 -0.4339
  976TIP3   OH224486   6.566   1.981   7.685  0.1178 -0.1522 -0.1812
  976TIP3    H124487   6.660   1.965   7.677  0.0825 -0.5174  0.0696
  976TIP3    H224488   6.532   1.971   7.596  0.1827 -0.9832 -0.1259
  977TIP3   OH224489   2.547   6.132   2.166 -0.1445 -0.5028  0.0518
  977TIP3    H124490   2.556   6.065   2.099  1.1049 -1.6083  1.2541
  977TIP3    H224491   2.484   6.095   2.228 -0.2155 -0.1191  0.2113
  978TIP3   OH224492   4.993   2.215   1.870  0.1906  0.3218  0.3157
  978TIP3    H124493   5.030   2.133   1.837 -1.4690 -0.7768  1.0645
  978TIP3    H224494   4.919   2.233   1.812  0.8205  1.5849 -0.1412
  979TIP3   OH224495   5.978   2.091   2.486 -0.0007  0.2260 -0.5249
  979TIP3    H124496   5.983   2.027   2.415  1.8880  1.2710 -1.4316
  979TIP3    H224497   5.907   2.150   2.461  0.2018  0.1831 -1.2310
  980TIP3   OH224498   0.449   1.654   0.023  0.1124  0.1817  0.2231
  980TIP3    H124499   0.414   1.569  -0.003 -0.1329  0.7024 -1.2180
  980TIP3    H224500   0.372   1.702   0.056 -0.0797  0.4448 -0.5924
  981TIP3   OH224501   4.589   3.454   0.274  0.3324  0.4013  0.2098
  981TIP3    H124502   4.512   3.495   0.314  0.3568 -1.1585  1.9604
  981TIP3    H224503   4.663   3.491   0.321  0.4057 -0.8317  1.1232
  982TIP3   OH224504   6.724   6.073   7.760 -0.2753  0.3086  0.2619
  982TIP3    H124505   6.690   6.162   7.758  1.4181  0.9833 -1.6693
  982TIP3    H224506   6.781   6.070   7.837  0.1685  1.0864 -0.0355
  983TIP3   OH224507   3.004   2.799   2.345  0.1347  0.0972  0.1243
  983TIP3    H124508   2.913   2.813   2.370 -0.8457 -3.0100 -1.3016
  983TIP3    H224509   3.048   2.880   2.371 -3.2260  2.2453 -0.2495
  984TIP3   OH224510   1.370   5.891   7.861  0.4474 -0.1697  0.0480
  984TIP3    H124511   1.462   5.890   7.838  1.0494  0.3490  2.2066
  984TIP3    H224512   1.352   5.981   7.888  0.0649 -0.8487  2.2718
  985TIP3   OH224513   4.147   3.785   2.205 -0.0075 -1.1293 -0.0598
  985TIP3    H124514   4.216   3.735   2.248 -0.2659 -0.2978  1.4096
  985TIP3    H224515   4.075   3.786   2.268 -0.4211  0.1190 -0.5136
  986TIP3   OH224516   4.251   0.238   3.232 -0.6656 -0.3011 -0.2288
  986TIP3    H124517   4.312   0.299   3.191 -0.0222 -1.4314 -0.9967
  986TIP3    H224518   4.191   0.214   3.162 -1.1683 -0.2575  0.1764
  987TIP3   OH224519   1.759   6.400   2.463 -0.2848  0.1234  0.4755
  987TIP3    H124520   1.714   6.440   2.389 -1.8664 -0.4832  1.0693
  987TIP3    H224521   1.775   6.472   2.524  2.4411  0.9459 -1.0224
  988TIP3   OH224522   2.569   5.049   8.237 -0.0770 -0.2018  0.2489
  988TIP3    H124523   2.512   5.002   8.176 -1.1904 -0.2520  1.2931
  988TIP3    H224524   2.569   4.995   8.316  0.9753  0.0965  0.4745
  989TIP3   OH224525   0.342   6.367   1.545  0.0172 -0.1804 -0.2712
  989TIP3    H124526   0.304   6.435   1.601  0.9116 -0.3190  0.5338
  989TIP3    H224527   0.269   6.309   1.525 -0.7266  0.9225 -0.8442
  990TIP3   OH224528   6.094   3.349   8.249 -0.0064 -0.1599 -0.1888
  990TIP3    H124529   6.016   3.345   8.193 -1.4566 -2.5761  1.7747
  990TIP3    H224530   6.160   3.300   8.200  0.0664  1.1548 -1.4818
  991TIP3   OH224531   0.187   0.011   1.997 -0.4009  0.4084  0.0356
  991TIP3    H124532   0.184  -0.023   2.087  0.5319  1.1329  0.3613
  991TIP3    H224533   0.152   0.099   2.004 -3.3370 -0.5911 -0.9014
  992TIP3   OH224534   6.325   6.203   0.495 -0.3052 -0.0480  0.1251
  992TIP3    H124535   6.259   6.252   0.445 -0.6086  0.6407  1.1783
  992TIP3    H224536   6.336   6.122   0.446 -0.4166  0.7022 -1.2011
  993TIP3   OH224537   4.422   2.573   8.537  0.4577 -0.3667  1.1522
  993TIP3    H124538   4.407   2.580   8.442  0.9332 -1.7143  0.9659
  993TIP3    H224539   4.440   2.481   8.552 -2.2162 -0.6988  2.9636
  994TIP3   OH224540   6.133   0.277   7.407  0.0445 -0.2181  0.3552
  994TIP3    H124541   6.198   0.319   7.350  1.6975 -2.9327  0.0488
  994TIP3    H224542   6.144   0.319   7.492  1.1733  0.3745 -0.0698
  995TIP3   OH224543   3.983   6.647   0.527 -0.0036 -0.3421 -0.1826
  995TIP3    H124544   4.039   6.643   0.449  0.0215 -1.2271 -0.1330
  995TIP3    H224545   3.895   6.663   0.493  0.5134  3.4841 -0.1404
  996TIP3   OH224546   5.845   1.875   2.057 -0.3577 -0.0644  0.2360
  996TIP3    H124547   5.841   1.789   2.099 -1.2783 -0.4637 -0.6335
  996TIP3    H224548   5.753   1.904   2.054 -0.0943  0.7810  0.1737
  997TIP3   OH224549   4.820   6.756   0.490  0.3631 -0.1547  0.1618
  997TIP3    H124550   4.856   6.761   0.402  1.4780  1.0484  0.6537
  997TIP3    H224551   4.869   6.685   0.532  2.6304  1.7593  0.9698
  998TIP3   OH224552   1.808   2.408   0.112 -0.0799 -0.4669  0.3712
  998TIP3    H124553   1.881   2.445   0.162  1.0389 -2.6594  0.5038
  998TIP3    H224554   1.790   2.472   0.044  1.7515  0.3011  0.5558
  999TIP3   OH224555   1.285   1.571   0.438 -0.3002  0.0816 -0.3027
  999TIP3    H124556   1.315   1.499   0.492  0.2302  0.4777 -0.0608
  999TIP3    H224557   1.364   1.620   0.416 -0.7643  1.2276  0.4586
 1000TIP3   OH224558   6.118   4.686   0.938  0.6309  0.1858 -0.1089
 1000TIP3    H124559   6.086   4.772   0.965  0.1265  0.1756 -0.6529
 1000TIP3    H224560   6.101   4.630   1.014 -0.0621  0.3224 -0.1554
 1001TIP3   OH224561   1.612   4.410   1.146 -0.1803  0.0649 -0.0968
 1001TIP3    H124562   1.677   4.345   1.173 -1.8352 -1.3641  0.7269
 1001TIP3    H224563   1.630   4.486   1.201 -0.2795 -0.9598  1.4185
 1002TIP3   OH224564   0.901   6.775   8.428  0.4101 -0.2318 -0.4088
 1002TIP3    H124565   0.860   6.819   8.502  0.1917 -0.2533 -0.5161
 1002TIP3    H224566   0.980   6.734   8.465  0.2042 -0.3990 -0.1474
 1003TIP3   OH224567   5.742   2.817   2.681 -0.3887 -0.5198 -0.1179
 1003TIP3    H124568   5.684   2.758   2.729  0.7647 -0.4794  1.3888
 1003TIP3    H224569   5.830   2.792   2.709  0.1846  1.1096 -0.3966
 1004TIP3   OH224570   4.674   3.908   7.642  0.1513  0.5973  0.0110
 1004TIP3    H124571   4.652   3.829   7.593 -0.5110  1.7751 -1.6725
 1004TIP3    H224572   4.766   3.898   7.664 -0.1448 -1.0452  0.6541
 1005TIP3   OH224573   5.761   5.437   0.417  0.0517 -0.6588 -0.8085
 1005TIP3    H124574   5.777   5.476   0.503  1.2489  1.0136 -1.7315
 1005TIP3    H224575   5.789   5.346   0.427  0.1530 -0.5004  0.5766
 1006TIP3   OH224576   0.945   0.426   1.738  0.1005 -0.0397 -0.4097
 1006TIP3    H124577   0.944   0.334   1.764  0.2783  0.2905  0.8416
 1006TIP3    H224578   0.961   0.473   1.820 -3.4337  1.3169 -0.3240
 1007TIP3   OH224579   3.672   3.328   0.015  0.2917  0.0105 -0.1251
 1007TIP3    H124580   3.742   3.352   0.076  0.1341  1.9109 -0.6385
 1007TIP3    H224581   3.716   3.282  -0.056  0.8387  0.0721  0.1698
 1008TIP3   OH224582   3.977   0.270   1.211  0.3240  0.1730 -0.2137
 1008TIP3    H124583   3.987   0.213   1.287 -0.8840  1.6841  1.1520
 1008TIP3    H224584   3.935   0.216   1.145 -0.8873 -0.5131  1.0711
 1009TIP3   OH224585   1.729   1.552   7.318  0.2318  0.0386 -0.4902
 1009TIP3    H124586   1.722   1.456   7.324 -0.5380  0.1871  1.4457
 1009TIP3    H224587   1.651   1.579   7.269 -0.4635 -0.2008  0.4672
 1010TIP3   OH224588   5.334   0.876   8.308  0.6276 -0.6314  0.2238
 1010TIP3    H124589   5.334   0.952   8.250  0.0749 -0.8434 -0.0656
 1010TIP3    H224590   5.307   0.803   8.252 -0.8845 -0.6719  0.9364
 1011TIP3   OH224591   1.563   1.335   0.317  0.0041 -0.5171  0.0877
 1011TIP3    H124592   1.521   1.335   0.403  0.2604 -2.7963  0.2953
 1011TIP3    H224593   1.599   1.246   0.309  0.7093 -0.0880 -2.0288
 1012TIP3   OH224594   0.300   4.982   0.089  0.3988 -0.0284  0.3482
 1012TIP3    H124595   0.324   4.991   0.182 -0.7052  2.8874  0.4860
 1012TIP3    H224596   0.210   4.949   0.091  0.0872  0.7909  0.3922
 1013TIP3   OH224597   6.515   1.956   0.055 -0.2608  0.2542 -0.4396
 1013TIP3    H124598   6.435   1.910   0.080  0.2981 -0.7875 -0.5274
 1013TIP3    H224599   6.532   1.926  -0.035 -0.6458  1.7196 -1.0333
 1014TIP3   OH224600   4.734   6.028   2.047 -0.0621 -0.1557 -0.1822
 1014TIP3    H124601   4.769   6.003   1.962  0.1870 -0.5969  0.0436
 1014TIP3    H224602   4.736   6.124   2.047  2.9239 -0.1328  0.5156
 1015TIP3   OH224603   2.489   0.032   2.160 -0.1468  0.0677  0.0211
 1015TIP3    H124604   2.558  -0.010   2.210  0.8003 -1.5164 -2.4188
 1015TIP3    H224605   2.458  -0.036   2.100 -2.5568  1.2809 -0.2557
 1016TIP3   OH224606   0.716   2.962   6.914  0.1131  1.1107 -0.0703
 1016TIP3    H124607   0.708   2.873   6.949  1.6874  0.2732 -1.6429
 1016TIP3    H224608   0.730   3.017   6.990 -0.1475 -0.0928  0.8795
 1017TIP3   OH224609   1.961   3.388   7.935  0.0286 -0.0658 -0.1753
 1017TIP3    H124610   1.888   3.328   7.920  0.6930 -0.8925 -0.1902
 1017TIP3    H224611   1.971   3.390   8.030  0.1473 -0.1632 -0.1846
 1018TIP3   OH224612   6.156   3.523   2.004 -0.2225  0.2664 -0.0342
 1018TIP3    H124613   6.083   3.538   2.065  0.7945  1.0971  1.0250
 1018TIP3    H224614   6.123   3.555   1.919 -2.1923 -2.2672 -0.3358
 1019TIP3   OH224615   3.025   6.086   1.852  0.4539  0.2572  0.0048
 1019TIP3    H124616   3.088   6.040   1.907  0.9363 -0.6448 -1.2350
 1019TIP3    H224617   2.940   6.051   1.878  0.7839 -1.1413 -0.6621
 1020TIP3   OH224618   3.197   1.457   0.602 -0.8673 -0.0514  0.1707
 1020TIP3    H124619   3.105   1.460   0.577 -0.3288  0.1906 -1.9731
 1020TIP3    H224620   3.227   1.370   0.573 -0.3344  0.0201  0.4890
 1021TIP3   OH224621   5.834   2.930   1.799  0.7631  0.2404  0.0371
 1021TIP3    H124622   5.757   2.962   1.847  1.1139  2.9248 -1.0281
 1021TIP3    H224623   5.906   2.940   1.860  0.8366  1.4474 -0.2166
 1022TIP3   OH224624   2.667   5.244   2.066  0.7249 -0.3094  0.2014
 1022TIP3    H124625   2.666   5.334   2.031  1.8404 -0.1010  0.6644
 1022TIP3    H224626   2.758   5.230   2.093  0.6062 -1.6561 -0.0407
 1023TIP3   OH224627   6.498   1.713   1.127 -0.5209  0.2206  0.0904
 1023TIP3    H124628   6.405   1.715   1.104 -0.5887 -0.1509  0.3279
 1023TIP3    H224629   6.528   1.627   1.097 -0.0766  0.6249 -0.6573
 1024TIP3   OH224630   6.156   4.315   8.131  0.0695  0.0897 -0.3761
 1024TIP3    H124631   6.225   4.282   8.188 -1.1692  0.1129  1.2235
 1024TIP3    H224632   6.076   4.305   8.182 -0.8269  2.2074 -1.2239
 1025TIP3   OH224633   6.823   0.630   1.552 -0.6408 -0.1042 -0.0181
 1025TIP3    H124634   6.798   0.625   1.460 -2.6663  2.6455  0.2553
 1025TIP3    H224635   6.769   0.564   1.595  0.0869 -1.1814 -0.7043
 1026TIP3   OH224636   3.071   4.395   1.203  0.6570 -0.1240 -0.8718
 1026TIP3    H124637   3.053   4.389   1.297 -1.1157 -0.6123 -1.2103
 1026TIP3    H224638   2.986   4.379   1.162  1.6447 -1.1628 -2.5923
 1027TIP3   OH224639   2.068   1.785   1.575  0.2293  0.2115 -0.0616
 1027TIP3    H124640   2.117   1.764   1.495  2.4891  2.8105  0.4872
 1027TIP3    H224641   1.976   1.781   1.548  0.8561 -0.5885 -2.3391
 1028TIP3   OH224642   3.888   2.666   8.481 -0.9151  0.4535  0.1197
 1028TIP3    H124643   3.810   2.621   8.448 -1.2258  1.2719 -0.2802
 1028TIP3    H224644   3.869   2.759   8.471 -1.1340  0.7920  2.9020
 1029TIP3   OH224645   0.287   1.972   1.390 -0.3748 -0.0223 -0.2546
 1029TIP3    H124646   0.268   1.940   1.302 -0.3319 -1.0254  0.0882
 1029TIP3    H224647   0.250   2.060   1.392 -1.1406 -0.3089 -1.0029
 1030TIP3   OH224648   1.276   1.515   1.089  0.4909  0.1092 -0.0782
 1030TIP3    H124649   1.188   1.482   1.106  0.7560 -0.4890  0.1678
 1030TIP3    H224650   1.292   1.496   0.997  1.0453 -1.4510  0.3138
 1031TIP3   OH224651   3.637   3.263   8.098 -0.1508 -0.5165 -0.0943
 1031TIP3    H124652   3.633   3.341   8.043 -3.4650 -2.1879 -2.5721
 1031TIP3    H224653   3.692   3.202   8.050 -1.2824 -1.2305 -0.5180
 1032TIP3   OH224654   0.312   5.404   7.445 -0.0069  0.1524 -0.4498
 1032TIP3    H124655   0.379   5.391   7.512 -0.8878 -2.5931  0.0380
 1032TIP3    H224656   0.240   5.347   7.472  0.0338 -2.0119 -4.2402
 1033TIP3   OH224657   4.069   2.800   2.126  0.3108 -0.2940 -0.2167
 1033TIP3    H124658   4.142   2.751   2.164 -1.4328 -2.2592  0.7563
 1033TIP3    H224659   3.997   2.790   2.188 -0.2974  3.3338 -0.0781
 1034TIP3   OH224660   2.428   3.028   1.310 -0.2628 -0.2861  0.1331
 1034TIP3    H124661   2.521   3.028   1.287 -0.3221 -1.4637 -0.1688
 1034TIP3    H224662   2.386   2.978   1.239 -1.0981  0.0408  0.3827
 1035TIP3   OH224663   0.165   4.466   1.890  0.3314 -0.2231  0.2004
 1035TIP3    H124664   0.255   4.473   1.923  0.4408 -0.6172 -0.0032
 1035TIP3    H224665   0.118   4.538   1.932  0.6893 -0.1541  0.4864
 1036TIP3   OH224666   1.349   4.829   8.364  0.7432  0.5538  0.7091
 1036TIP3    H124667   1.408   4.778   8.419  0.6560 -0.4058 -0.0474
 1036TIP3    H224668   1.262   4.793   8.382  0.6180  0.7582  0.5225
 1037TIP3   OH224669   4.695   2.293   1.209  0.7861  0.5327  0.1228
 1037TIP3    H124670   4.760   2.260   1.147  0.7253  0.5366  0.0566
 1037TIP3    H224671   4.698   2.388   1.199 -0.7043  0.4863 -1.4102
 1038TIP3   OH224672   2.371   2.993   8.424  0.3892 -0.3289 -0.4087
 1038TIP3    H124673   2.342   2.969   8.336  0.8733 -0.0027 -0.6644
 1038TIP3    H224674   2.294   3.032   8.465  0.6569  1.3509 -1.3894
 1039TIP3   OH224675   0.163   6.617   6.968  0.0046  0.0503 -0.4938
 1039TIP3    H124676   0.198   6.621   7.057  0.1301  1.2143 -0.5899
 1039TIP3    H224677   0.187   6.700   6.928  2.7242 -1.6329 -2.6927
 1040TIP3   OH224678   5.099   5.708   2.752 -0.2090  0.2219  0.0154
 1040TIP3    H124679   5.045   5.690   2.829  2.4499 -1.9186  1.6111
 1040TIP3    H224680   5.184   5.732   2.789  0.6354  1.0350 -2.3153
 1041TIP3   OH224681   4.354   3.321   0.090 -0.5272  0.5458  0.9577
 1041TIP3    H124682   4.406   3.242   0.105 -1.1531 -0.0527  0.0778
 1041TIP3    H224683   4.336   3.321  -0.004 -1.7330  0.9746  1.1684
 1042TIP3   OH224684   4.222   3.556   1.258  0.1404 -0.2058 -0.5671
 1042TIP3    H124685   4.152   3.534   1.319  0.5503  1.1263  0.4272
 1042TIP3    H224686   4.289   3.489   1.271  0.0600 -0.1425  0.1912
 1043TIP3   OH224687   0.940   4.323   2.767 -0.5980 -0.0222  0.2777
 1043TIP3    H124688   0.919   4.337   2.859 -1.5467 -1.7377  0.3576
 1043TIP3    H224689   0.856   4.304   2.725 -0.2525  1.2123 -1.0643
 1044TIP3   OH224690   4.959   2.672   0.796  0.8328 -0.2281 -0.6844
 1044TIP3    H124691   4.924   2.615   0.727 -0.0487 -0.4703 -0.0554
 1044TIP3    H224692   5.031   2.718   0.754  0.7875 -0.9168 -1.5568
 1045TIP3   OH224693   0.436   0.851   0.942 -0.2670 -0.2499 -0.4135
 1045TIP3    H124694   0.361   0.897   0.904  0.1580  0.6762 -0.1732
 1045TIP3    H224695   0.511   0.881   0.890  0.2882  0.8705  0.9632
 1046TIP3   OH224696   1.719   5.180   0.063 -0.5740  0.1389  0.3935
 1046TIP3    H124697   1.792   5.238   0.045  0.0444 -1.1736 -1.6154
 1046TIP3    H224698   1.643   5.225   0.026 -0.1392 -0.1583 -0.9254
 1047TIP3   OH224699   3.899   0.691   7.430 -0.0465 -0.1336 -0.5528
 1047TIP3    H124700   3.955   0.691   7.508 -3.3775 -2.3751  2.1361
 1047TIP3    H224701   3.874   0.599   7.419 -2.6137  0.6533 -1.9950
 1048TIP3   OH224702   0.330   3.213   7.395  0.1822 -0.1249 -0.2695
 1048TIP3    H124703   0.366   3.251   7.476  0.6447  1.1286 -1.0445
 1048TIP3    H224704   0.403   3.213   7.334 -0.1355 -1.1907 -0.6650
 1049TIP3   OH224705   1.583   5.880   8.486 -0.1884  0.0915 -0.0880
 1049TIP3    H124706   1.641   5.809   8.460 -0.7821 -0.2154 -0.6284
 1049TIP3    H224707   1.635   5.960   8.475 -0.5728  0.0615 -2.9342
 1050TIP3   OH224708   5.058   4.238   8.001 -0.1303  0.3130 -0.6680
 1050TIP3    H124709   5.018   4.179   7.937  0.5355  0.0302 -0.8279
 1050TIP3    H224710   5.127   4.186   8.042 -0.7404  0.3877  0.5115
 1051TIP3   OH224711   2.907   5.097   0.248  0.5931  0.1692 -0.1158
 1051TIP3    H124712   2.911   5.171   0.187 -0.0636 -0.1102 -0.5004
 1051TIP3    H224713   2.890   5.021   0.193 -2.8419  0.2679  0.6120
 1052TIP3   OH224714   0.764   2.525   0.300 -0.1650  0.3257  0.3006
 1052TIP3    H124715   0.826   2.544   0.229  1.2363  0.4629  1.5266
 1052TIP3    H224716   0.684   2.570   0.274 -1.0220 -2.6668 -3.0717
 1053TIP3   OH224717   1.678   6.377   0.548  0.1210  0.4380 -0.0095
 1053TIP3    H124718   1.744   6.308   0.544 -2.6876 -2.4193 -1.7626
 1053TIP3    H224719   1.623   6.353   0.623  0.2687  2.0596  0.6653
 1054TIP3   OH224720   5.876   5.057   1.456 -0.1183 -0.1972  0.2548
 1054TIP3    H124721   5.791   5.095   1.430 -0.0507 -1.1309 -1.4379
 1054TIP3    H224722   5.855   4.968   1.484  0.4274 -0.8291 -1.2864
 1055TIP3   OH224723   1.257   0.268   0.925 -0.2748  0.3552 -0.2496
 1055TIP3    H124724   1.299   0.353   0.910  0.4066 -0.0547 -0.7455
 1055TIP3    H224725   1.310   0.227   0.993 -0.0066 -0.0717 -0.7114
 1056TIP3   OH224726   3.154   5.812   1.332  0.4332  0.0065  0.3983
 1056TIP3    H124727   3.164   5.906   1.317 -0.0467 -0.0506 -0.3183
 1056TIP3    H224728   3.121   5.805   1.421 -0.0755  0.5520  0.2590
 1057TIP3   OH224729   1.264   4.367   1.858  0.2280 -0.7793  0.1801
 1057TIP3    H124730   1.353   4.395   1.835  1.0120 -1.7131  1.8681
 1057TIP3    H224731   1.262   4.273   1.840 -0.5190 -0.7104 -0.1380
 1058TIP3   OH224732   1.667   1.751   0.191  0.4489  0.1184 -0.0580
 1058TIP3    H124733   1.669   1.656   0.178 -0.7340 -0.0262  0.5927
 1058TIP3    H224734   1.757   1.774   0.212  0.7283 -0.8966 -0.0532
 1059TIP3   OH224735   2.569   4.048   2.913 -0.0349  0.4473  0.2876
 1059TIP3    H124736   2.535   4.012   2.995 -0.1353  0.8202  0.4131
 1059TIP3    H224737   2.663   4.059   2.929 -0.5407  4.1429  1.7942
 1060TIP3   OH224738   4.703   6.200   8.311 -0.2177  0.5663  0.3042
 1060TIP3    H124739   4.621   6.150   8.319  0.2532  0.1042  3.1003
 1060TIP3    H224740   4.691   6.275   8.369  1.0341  0.9700  0.0702
 1061TIP3   OH224741   3.027   5.592   0.482  0.4273  0.3675 -0.1231
 1061TIP3    H124742   3.094   5.524   0.475  2.6899  2.2339  1.8686
 1061TIP3    H224743   2.973   5.566   0.556 -0.2015 -0.3804 -0.8170
 1062TIP3   OH224744   0.525   3.671   0.768  0.2455  0.2735 -0.1519
 1062TIP3    H124745   0.577   3.665   0.687 -0.3759 -0.6413 -0.5049
 1062TIP3    H224746   0.572   3.734   0.822  0.8462  0.6746 -1.1068
 1063TIP3   OH224747   1.249   3.676   0.032  0.2282  0.0345 -0.4632
 1063TIP3    H124748   1.276   3.726   0.109 -2.5299 -0.4859  0.9685
 1063TIP3    H224749   1.267   3.734  -0.041  0.4263  1.6757  0.8204
 1064TIP3   OH224750   5.309   0.510   0.376  0.1776  0.2854 -0.1417
 1064TIP3    H124751   5.347   0.562   0.447  0.3573 -0.5638  0.4023
 1064TIP3    H224752   5.282   0.574   0.311 -0.2391  1.1032  0.8168
 1065TIP3   OH224753   3.272   1.514   7.799  0.4407  0.3974  0.4564
 1065TIP3    H124754   3.337   1.565   7.847 -0.1288  1.8198 -0.2293
 1065TIP3    H224755   3.310   1.502   7.712  1.4612 -2.1499  1.1456
 1066TIP3   OH224756   1.623   6.454   8.292 -0.1824 -0.0754 -0.4736
 1066TIP3    H124757   1.574   6.383   8.332  1.2866 -0.3126  1.0200
 1066TIP3    H224758   1.713   6.422   8.289  0.6266  1.8972  0.7796
 1067TIP3   OH224759   4.806   2.524   2.313 -0.2121  0.2578 -0.3518
 1067TIP3    H124760   4.818   2.619   2.317 -1.0195  0.3783 -0.5417
 1067TIP3    H224761   4.829   2.501   2.223 -0.3642  0.3255 -0.4083
 1068TIP3   OH224762   0.395   0.435   1.430  0.3498 -0.0138 -0.0185
 1068TIP3    H124763   0.485   0.444   1.462 -0.0360  0.7701  0.9145
 1068TIP3    H224764   0.342   0.482   1.495 -0.5432  1.2055 -1.5522
 1069TIP3   OH224765   5.216   6.763   2.467 -0.1774  0.3678  0.3188
 1069TIP3    H124766   5.228   6.765   2.562  0.7404  0.0585  0.2234
 1069TIP3    H224767   5.302   6.788   2.431 -0.5847  0.7466 -0.4286
 1070TIP3   OH224768   3.991   1.374   1.809 -0.2108 -0.4045 -0.4057
 1070TIP3    H124769   4.074   1.408   1.776 -1.9101  3.6982 -1.1866
 1070TIP3    H224770   4.007   1.357   1.902  1.2929  1.5495 -0.2346
 1071TIP3   OH224771   1.685   0.040   2.643 -0.7130  0.0105  0.1271
 1071TIP3    H124772   1.627   0.070   2.713 -1.6093  0.5622 -0.8194
 1071TIP3    H224773   1.737   0.117   2.621 -0.1855 -0.2589  0.4199
 1072TIP3   OH224774   2.820   4.180   1.227 -0.2653  0.0122 -0.5640
 1072TIP3    H124775   2.810   4.111   1.161 -2.5360 -1.2213  0.9513
 1072TIP3    H224776   2.811   4.261   1.178 -0.8995 -0.8366 -1.9224
 1073TIP3   OH224777   1.329   3.826   7.547  0.0644  0.3909  0.3450
 1073TIP3    H124778   1.370   3.743   7.524 -1.4427  0.2373 -2.1184
 1073TIP3    H224779   1.277   3.806   7.625  1.8481 -0.2438  1.4271
 1074TIP3   OH224780   2.298   5.715   2.466 -0.2541  0.0254 -0.0053
 1074TIP3    H124781   2.355   5.661   2.521  0.7626  0.8645 -0.2113
 1074TIP3    H224782   2.211   5.677   2.477  0.0965 -0.4043  1.4286
 1075TIP3   OH224783   4.956   4.289   7.385  0.5040  0.0998 -0.3578
 1075TIP3    H124784   4.906   4.369   7.374  0.1325  0.0602  0.9173
 1075TIP3    H224785   5.042   4.309   7.348 -0.4763  0.0711 -2.8577
 1076TIP3   OH224786   1.920   5.731   0.352  0.2624  0.1687  0.0275
 1076TIP3    H124787   1.993   5.669   0.357  0.2454  0.2003  0.8686
 1076TIP3    H224788   1.916   5.769   0.440 -1.6899 -0.8980  0.4530
 1077TIP3   OH224789   3.745   0.436   2.403 -0.5247 -0.1756  0.4648
 1077TIP3    H124790   3.751   0.363   2.464  0.2328 -0.3234  0.2262
 1077TIP3    H224791   3.659   0.427   2.362  0.5655 -2.5207 -1.5411
 1078TIP3   OH224792   6.547   4.347   2.443 -0.6615 -0.0679 -0.1580
 1078TIP3    H124793   6.454   4.355   2.463 -0.7332 -0.5327 -0.2898
 1078TIP3    H224794   6.554   4.262   2.399  0.0430 -0.6877  1.1103
 1079TIP3   OH224795   4.207   1.709   8.188 -0.1787  0.6343 -0.1364
 1079TIP3    H124796   4.275   1.645   8.207  0.5412 -0.3733 -4.8516
 1079TIP3    H224797   4.255   1.787   8.160 -0.9908  0.8370 -0.9971
 1080TIP3   OH224798   5.893   0.743   1.289  0.1506  0.0338 -0.2381
 1080TIP3    H124799   5.844   0.762   1.369  0.4308 -2.0534  0.4838
 1080TIP3    H224800   5.871   0.815   1.230 -3.7275 -0.7090  0.0459
 1081TIP3   OH224801   2.040   2.124   7.335  0.4478 -0.1969  0.4736
 1081TIP3    H124802   2.029   2.180   7.258 -0.5515 -1.3421 -0.2655
 1081TIP3    H224803   2.108   2.061   7.311 -1.4958 -2.0841 -0.4960
 1082TIP3   OH224804   0.738   6.653   0.334 -1.1391 -0.2412 -0.2746
 1082TIP3    H124805   0.799   6.598   0.383 -1.5466 -1.2024 -0.8241
 1082TIP3    H224806   0.712   6.721   0.396  0.9490  0.5749 -0.2068
 1083TIP3   OH224807   0.672   5.822   7.606 -0.3794 -0.2173 -0.2471
 1083TIP3    H124808   0.674   5.730   7.634  0.8389 -0.2768 -0.4965
 1083TIP3    H224809   0.689   5.819   7.512 -0.5633  0.2559 -0.3004
 1084TIP3   OH224810   6.128   5.646   8.576 -0.1609 -0.4306 -0.0490
 1084TIP3    H124811   6.048   5.609   8.540 -0.4949  1.5085 -1.4426
 1084TIP3    H224812   6.099   5.707   8.643  0.1388  0.1557 -0.4414
 1085TIP3   OH224813   1.900   6.620   6.741 -0.1211 -0.2336 -1.0263
 1085TIP3    H124814   1.975   6.588   6.691  2.3576  1.1193  1.5110
 1085TIP3    H224815   1.824   6.595   6.689  1.9528 -3.1503 -2.9977
 1086TIP3   OH224816   3.835   3.238   2.324 -0.0753  0.1111  0.1750
 1086TIP3    H124817   3.885   3.316   2.349  1.7905 -0.3907 -1.6192
 1086TIP3    H224818   3.901   3.168   2.321 -1.2050 -0.9541 -0.6966
 1087TIP3   OH224819   1.033   0.947   2.440 -0.0959 -0.0927 -0.0057
 1087TIP3    H124820   1.037   1.042   2.431  0.1857 -0.0583  0.4686
 1087TIP3    H224821   0.942   0.928   2.463 -0.1546  0.0574 -0.1148
 1088TIP3   OH224822   5.943   3.914   7.993  0.7601  0.1597  0.0604
 1088TIP3    H124823   5.937   3.900   7.898 -1.0129  0.9507  0.0234
 1088TIP3    H224824   5.950   4.009   8.003 -0.2806  0.1724  0.7634
 1089TIP3   OH224825   3.197   3.453   7.380 -0.2621  0.2089  0.1192
 1089TIP3    H124826   3.178   3.460   7.286  1.0465 -1.0545 -0.2768
 1089TIP3    H224827   3.111   3.452   7.422 -0.9374 -0.9224 -1.2217
 1090TIP3   OH224828   2.542   0.842   2.075  0.2196 -0.1826 -0.1105
 1090TIP3    H124829   2.448   0.852   2.090 -0.0052 -0.0745 -1.5002
 1090TIP3    H224830   2.563   0.756   2.112 -0.4260 -0.2088  0.2033
 1091TIP3   OH224831   0.702   6.613   8.323  0.5230 -0.4383  0.5133
 1091TIP3    H124832   0.688   6.706   8.303  1.3849 -0.4299 -0.1238
 1091TIP3    H224833   0.754   6.614   8.404  1.3100 -0.3233  0.0232
 1092TIP3   OH224834   5.860   0.963   0.299  0.4885 -0.2355  0.1622
 1092TIP3    H124835   5.887   0.921   0.218 -0.6668 -0.6603 -0.0297
 1092TIP3    H224836   5.822   0.892   0.352 -1.6786  0.5359 -0.2485
 1093TIP3   OH224837   5.915   3.618   7.944 -0.3540  0.5907 -0.0788
 1093TIP3    H124838   5.969   3.662   7.878  0.9289  1.1177  1.2504
 1093TIP3    H224839   5.902   3.530   7.910 -1.6692  1.4938 -2.0756
 1094TIP3   OH224840   3.495   0.539   2.872 -0.4683 -0.0880  0.9530
 1094TIP3    H124841   3.401   0.528   2.885 -0.4609 -0.7764  0.4481
 1094TIP3    H224842   3.520   0.468   2.813  0.0027  1.3229 -0.6004
 1095TIP3   OH224843   0.409   0.144   1.503  0.4819  0.0149  0.3559
 1095TIP3    H124844   0.357   0.223   1.493 -0.3861 -0.8495 -2.8231
 1095TIP3    H224845   0.377   0.104   1.584  0.0524  2.2005  1.3308
 1096TIP3   OH224846   0.701   2.712   7.447  0.4395  0.1832  0.5720
 1096TIP3    H124847   0.628   2.774   7.454  1.0817  1.0922 -0.5364
 1096TIP3    H224848   0.773   2.754   7.493  0.8920  0.3144 -0.2302
 1097TIP3   OH224849   1.418   4.465   7.725  0.2198 -0.0802  0.3119
 1097TIP3    H124850   1.378   4.386   7.688  0.7181 -0.1224 -0.1647
 1097TIP3    H224851   1.465   4.504   7.651  1.2267 -0.1480  0.8885
 1098TIP3   OH224852   6.656   0.478   1.718  0.8013  0.6677  0.6409
 1098TIP3    H124853   6.631   0.418   1.788 -0.8314  0.3876 -0.1358
 1098TIP3    H224854   6.575   0.526   1.698  0.6486 -0.6771 -2.4090
 1099TIP3   OH224855   5.820   0.594   0.681 -0.1607 -0.0686  0.1380
 1099TIP3    H124856   5.775   0.657   0.625 -2.0565 -1.6673 -0.2721
 1099TIP3    H224857   5.909   0.588   0.644  0.0309  2.1691  0.1167
 1100TIP3   OH224858   4.159   2.277   0.106 -0.4082 -0.2712 -0.9261
 1100TIP3    H124859   4.135   2.221   0.180 -1.1458  0.0809 -0.8867
 1100TIP3    H224860   4.226   2.335   0.140 -0.3234 -0.5037 -0.6962
 1101TIP3   OH224861   3.858   3.976   8.153 -0.2487 -0.1284 -0.0541
 1101TIP3    H124862   3.876   4.044   8.088  0.5204 -0.4112 -0.1476
 1101TIP3    H224863   3.945   3.950   8.185 -0.5717 -0.6166  0.4382
 1102TIP3   OH224864   3.814   1.312   0.698 -0.0389 -0.0064  0.0586
 1102TIP3    H124865   3.734   1.323   0.749 -0.7105 -3.7677  0.0994
 1102TIP3    H224866   3.783   1.300   0.608  0.6051 -0.2980 -0.1255
 1103TIP3   OH224867   1.270   5.233   1.060  0.4743 -0.3690 -0.4735
 1103TIP3    H124868   1.275   5.328   1.054  0.1156 -0.3669 -0.8316
 1103TIP3    H224869   1.243   5.216   1.151  0.2961 -0.1177 -0.4779
 1104TIP3   OH224870   1.579   6.308   2.651  0.3716 -0.0630 -0.2698
 1104TIP3    H124871   1.608   6.324   2.561  2.3421  1.3538  0.5313
 1104TIP3    H224872   1.489   6.276   2.642  0.5016  0.0386 -2.7171
 1105TIP3   OH224873   6.017   5.879   8.220 -0.3517 -0.0800 -0.2941
 1105TIP3    H124874   5.925   5.902   8.232 -1.1235 -2.0234 -1.8262
 1105TIP3    H224875   6.028   5.877   8.125  0.8709 -1.2933 -0.1486
 1106TIP3   OH224876   5.135   2.404   8.364  0.2632 -0.1734 -0.2050
 1106TIP3    H124877   5.074   2.478   8.358  0.1474 -0.3341 -1.2581
 1106TIP3    H224878   5.153   2.395   8.458 -2.2823 -0.8766  0.2954
 1107TIP3   OH224879   1.538   6.683   7.817 -0.7896 -0.8994 -0.1809
 1107TIP3    H124880   1.629   6.691   7.788  0.1215 -3.0450  1.7940
 1107TIP3    H224881   1.538   6.716   7.907 -2.4779  1.0864 -0.8487
 1108TIP3   OH224882   0.820   5.905   6.937 -0.2891  0.1646  0.0147
 1108TIP3    H124883   0.830   5.854   7.017  0.0821 -1.3311 -0.9431
 1108TIP3    H224884   0.870   5.985   6.953  1.4170 -0.9703  0.5655
 1109TIP3   OH224885   6.656   5.722   1.620  0.0872 -0.2408  0.0239
 1109TIP3    H124886   6.590   5.790   1.637 -0.6638 -0.6141 -1.2630
 1109TIP3    H224887   6.729   5.745   1.677 -0.5585  1.0676  0.3647
 1110TIP3   OH224888   4.590   2.662   0.211  0.0282 -0.2903 -0.6122
 1110TIP3    H124889   4.603   2.584   0.158  1.5557 -1.4575  1.3492
 1110TIP3    H224890   4.675   2.706   0.211 -0.2999  0.3691 -0.1911
 1111TIP3   OH224891   3.503   4.966   0.243 -0.1127 -0.9848 -0.3974
 1111TIP3    H124892   3.523   4.876   0.217  0.6376 -0.8043 -0.4590
 1111TIP3    H224893   3.551   5.021   0.181 -1.2984 -0.5230 -0.9404
 1112TIP3   OH224894   3.705   0.696   2.292  0.2545 -0.1952  0.9395
 1112TIP3    H124895   3.716   0.608   2.329  0.5394 -1.1474 -1.2501
 1112TIP3    H224896   3.784   0.711   2.241 -0.6278  0.4815 -0.2943
 1113TIP3   OH224897   6.199   0.029   8.568 -0.0834  0.1743  0.7126
 1113TIP3    H124898   6.170  -0.059   8.590 -0.1842  0.0129 -0.0570
 1113TIP3    H224899   6.124   0.085   8.590 -0.3202 -0.0274  0.4157
 1114TIP3   OH224900   5.876   4.481   2.568  0.2459 -0.4831 -0.4560
 1114TIP3    H124901   5.950   4.482   2.508  0.6598  0.8752  0.0514
 1114TIP3    H224902   5.799   4.489   2.512  0.5427 -0.7451 -0.9057
 1115TIP3   OH224903   1.120   3.428   2.354 -0.1746 -0.0700  0.1236
 1115TIP3    H124904   1.159   3.353   2.400 -0.3354  0.2672  0.8294
 1115TIP3    H224905   1.156   3.505   2.398  1.4498  0.3374 -1.8187
 1116TIP3   OH224906   0.254   4.371   0.074  0.1832 -0.1303  0.1724
 1116TIP3    H124907   0.289   4.454   0.105 -0.7515  0.8919 -1.3903
 1116TIP3    H224908   0.243   4.319   0.154  1.3369  0.9966  1.1196
 1117TIP3   OH224909   5.143   4.636   7.667  0.5698  0.3419 -0.3732
 1117TIP3    H124910   5.225   4.616   7.622  1.1753 -0.7049  1.0921
 1117TIP3    H224911   5.118   4.553   7.709 -1.0564  0.7350 -0.4954
 1118TIP3   OH224912   5.894   4.339   0.221  0.2474  0.3394 -0.0532
 1118TIP3    H124913   5.891   4.301   0.309 -0.7682  0.9840  0.2154
 1118TIP3    H224914   5.867   4.268   0.163  2.1697 -0.4837 -0.0262
 1119TIP3   OH224915   1.892   2.068   0.488  0.0732 -0.2707 -0.0117
 1119TIP3    H124916   1.812   2.059   0.437  0.2775  0.8349 -0.5541
 1119TIP3    H224917   1.958   2.019   0.439  0.1910  0.5055 -0.6425
 1120TIP3   OH224918   2.231   3.673   8.129 -0.3795  0.2761  0.6398
 1120TIP3    H124919   2.271   3.758   8.108 -1.4077  0.3238 -1.2783
 1120TIP3    H224920   2.258   3.615   8.058 -1.8586 -0.2822  0.5093
 1121TIP3   OH224921   6.011   2.424   8.033  0.2470 -0.3471  0.1317
 1121TIP3    H124922   6.088   2.470   8.000 -0.3919  0.7325  0.1108
 1121TIP3    H224923   5.962   2.490   8.082  0.5287 -1.5838  2.2348
 1122TIP3   OH224924   4.831   1.569   0.297 -0.2041  0.0910 -0.0508
 1122TIP3    H124925   4.856   1.481   0.267 -0.9392 -0.5417  1.1261
 1122TIP3    H224926   4.737   1.573   0.280 -0.0454  0.9649 -0.8102
 1123TIP3   OH224927   0.588   1.298   8.598 -0.5506  0.0433 -0.4453
 1123TIP3    H124928   0.529   1.341   8.659 -0.9848 -0.8359 -0.2328
 1123TIP3    H224929   0.670   1.288   8.647 -0.7796 -0.3155 -0.1299
 1124TIP3   OH224930   2.003   5.392   6.860 -0.0260 -0.2326 -0.7400
 1124TIP3    H124931   2.010   5.486   6.880 -0.3370 -0.4103  0.2293
 1124TIP3    H224932   1.930   5.361   6.914  1.5136 -1.5025  0.7300
 1125TIP3   OH224933   0.016   0.409   1.181 -0.3872 -0.2101  1.1125
 1125TIP3    H124934   0.071   0.338   1.212 -0.0470  0.2893  1.6662
 1125TIP3    H224935   0.062   0.489   1.208 -1.0796  0.2132  1.0596
 1126TIP3   OH224936   5.148   4.872   1.606 -0.4875  0.2607 -0.5137
 1126TIP3    H124937   5.078   4.922   1.564  0.2526  1.5512 -0.2527
 1126TIP3    H224938   5.227   4.894   1.556 -0.0794 -0.4067 -0.1882
 1127TIP3   OH224939   1.984   3.072   1.689 -0.4546  0.0474  0.2530
 1127TIP3    H124940   1.909   3.120   1.726 -1.1378 -0.7649 -0.0407
 1127TIP3    H224941   1.956   3.049   1.600 -0.4740 -1.5839  0.6552
 1128TIP3   OH224942   1.954   3.731   1.122 -0.2163 -0.3794  0.1434
 1128TIP3    H124943   2.022   3.799   1.117  0.9954 -1.4692  1.0097
 1128TIP3    H224944   1.988   3.659   1.069 -2.0353  0.0664 -1.7548
 1129TIP3   OH224945   0.942   0.070   8.234 -0.3562  0.3972  0.3546
 1129TIP3    H124946   0.913   0.001   8.294  0.0900 -0.1342 -0.0288
 1129TIP3    H224947   0.942   0.150   8.286 -2.3584  0.3991  0.4229
 1130TIP3   OH224948   2.933   1.513   8.083 -0.0584 -0.1417 -0.5270
 1130TIP3    H124949   2.858   1.567   8.106  1.4822  0.5340  3.8915
 1130TIP3    H224950   2.978   1.562   8.013 -2.3325  0.6121 -1.5493
 1131TIP3   OH224951   5.720   0.468   7.347  0.1064 -0.0103 -0.2953
 1131TIP3    H124952   5.653   0.401   7.332 -0.5324  0.5596 -0.0486
 1131TIP3    H224953   5.723   0.517   7.265 -0.2425  0.3654 -0.0857
 1132TIP3   OH224954   0.642   4.231   0.921  0.1872 -0.4873  0.3555
 1132TIP3    H124955   0.692   4.172   0.865  2.4826 -0.5197  2.2914
 1132TIP3    H224956   0.643   4.189   1.007 -1.2953  0.6415  0.9704
 1133TIP3   OH224957   4.264   6.466   6.810  0.4709  0.6463 -0.6232
 1133TIP3    H124958   4.178   6.479   6.850  0.5821  1.0371 -0.5040
 1133TIP3    H224959   4.325   6.504   6.873  0.8626 -0.8879 -0.0413
 1134TIP3   OH224960   3.253   0.019   2.900 -0.2494 -0.4881 -0.3055
 1134TIP3    H124961   3.201   0.081   2.951  1.3039  0.5646  0.0389
 1134TIP3    H224962   3.342   0.029   2.932 -0.0545 -3.7083  0.5519
 1135TIP3   OH224963   4.342   2.762   0.777 -0.1467  0.1084  0.1234
 1135TIP3    H124964   4.263   2.807   0.747 -0.1349  1.8735  2.4948
 1135TIP3    H224965   4.412   2.802   0.727 -0.2208  2.4221  1.6860
 1136TIP3   OH224966   0.031   2.764   0.253  0.1376  0.2701  0.4574
 1136TIP3    H124967  -0.012   2.742   0.336 -1.1023 -2.3731 -0.7653
 1136TIP3    H224968  -0.014   2.843   0.224 -3.4563 -1.8337 -0.2795
 1137TIP3   OH224969   5.438   5.653   2.341  0.5136  0.4539 -0.2115
 1137TIP3    H124970   5.410   5.699   2.420 -1.0529 -0.4179 -0.2244
 1137TIP3    H224971   5.412   5.711   2.269  1.2082  0.8764 -0.1288
 1138TIP3   OH224972   5.877   5.953   8.556 -0.0423 -0.2418 -0.5949
 1138TIP3    H124973   5.831   5.871   8.577  0.2993 -0.9354 -2.3713
 1138TIP3    H224974   5.807   6.018   8.547 -0.3876 -0.5234 -0.0101
 1139TIP3   OH224975   3.398   5.879   1.592  0.4449  1.0316  0.1732
 1139TIP3    H124976   3.443   5.862   1.675 -0.7642  1.7744  1.0071
 1139TIP3    H224977   3.456   5.938   1.545  1.2720  0.3906  0.3555
 1140TIP3   OH224978   0.468   5.586   1.520  0.6161  0.6094 -0.0296
 1140TIP3    H124979   0.412   5.623   1.588 -0.6957  1.1428 -1.3492
 1140TIP3    H224980   0.456   5.643   1.444 -0.2463 -1.5424 -1.6444
 1141TIP3   OH224981   4.670   0.294   7.199 -0.0709  0.0372  0.0842
 1141TIP3    H124982   4.752   0.340   7.217  0.5742 -1.0268 -0.0404
 1141TIP3    H224983   4.605   0.337   7.254  0.2708  1.7621 -0.7859
 1142TIP3   OH224984   4.085   5.162   2.847  0.2628  0.1115 -0.2243
 1142TIP3    H124985   4.095   5.104   2.922 -0.3740 -0.0897 -0.2871
 1142TIP3    H224986   4.167   5.211   2.843  2.6081 -3.4769 -2.5185
 1143TIP3   OH224987   4.554   6.732   0.650 -0.4359 -0.2309 -0.1005
 1143TIP3    H124988   4.464   6.722   0.618 -0.5009 -0.8558  0.2577
 1143TIP3    H224989   4.600   6.774   0.578 -0.6880 -1.1814 -0.8500
 1144TIP3   OH224990   0.010   4.501   8.609  0.8136  0.7998  0.0447
 1144TIP3    H124991  -0.072   4.467   8.644  0.7898  0.0332 -0.7178
 1144TIP3    H224992   0.076   4.476   8.674  0.4008  1.8306  0.8944
 1145TIP3   OH224993   5.068   1.941   8.551  0.3812 -0.2566 -0.4477
 1145TIP3    H124994   4.984   1.943   8.598  1.1580  2.6842  1.0709
 1145TIP3    H224995   5.098   2.032   8.553  3.4122 -1.1343 -1.3666
 1146TIP3   OH224996   5.724   2.692   7.141  0.5687 -0.2243 -0.5899
 1146TIP3    H124997   5.741   2.607   7.099 -1.7592 -0.2727 -1.5488
 1146TIP3    H224998   5.757   2.756   7.079 -0.3434 -0.3713 -1.2374
 1147TIP3   OH224999   4.128   3.472   2.511  0.2538 -0.2342  0.4039
 1147TIP3    H125000   4.133   3.391   2.563 -0.4623 -1.3296 -1.1552
 1147TIP3    H225001   4.203   3.467   2.452 -0.2365 -0.1616 -0.2378
 1148TIP3   OH225002   1.410   0.929   0.260  0.2774 -0.3399 -0.1328
 1148TIP3    H125003   1.367   0.936   0.346  1.4008  1.7983  0.2991
 1148TIP3    H225004   1.351   0.873   0.209 -1.1721 -0.4367  1.5488
 1149TIP3   OH225005   1.850   6.313   8.247  0.7805 -0.1478  0.4828
 1149TIP3    H125006   1.884   6.297   8.160  0.5549 -0.4395  0.4470
 1149TIP3    H225007   1.903   6.385   8.281 -0.4371  1.3704 -0.6699
 1150TIP3   OH225008   2.975   0.304   7.535 -0.7355 -0.2960  0.0113
 1150TIP3    H125009   2.944   0.216   7.555 -0.3072 -0.1029  1.6798
 1150TIP3    H225010   3.055   0.314   7.585 -0.8457  1.0925 -0.0314
 1151TIP3   OH225011   5.363   2.230   8.545  0.2553 -0.2546 -0.4829
 1151TIP3    H125012   5.446   2.208   8.587  0.3486  0.0897 -0.4882
 1151TIP3    H225013   5.388   2.263   8.458  0.1711  0.7052 -0.1474
 1152TIP3   OH225014   6.140   2.600   2.802  0.2015  0.5311 -0.3296
 1152TIP3    H125015   6.075   2.642   2.858 -1.1164 -1.4661 -0.2724
 1152TIP3    H225016   6.121   2.635   2.715 -0.4919  0.4956 -0.2014
 1153TIP3   OH225017   3.742   4.350   7.662  0.6200 -0.0110  0.1149
 1153TIP3    H125018   3.672   4.298   7.623 -0.5652  0.5773  1.3980
 1153TIP3    H225019   3.818   4.291   7.663 -0.9349 -2.1691  2.4748
 1154TIP3   OH225020   3.075   5.213   1.478  0.0675 -0.2288 -0.7521
 1154TIP3    H125021   3.087   5.263   1.558  0.3369 -0.7971 -0.4260
 1154TIP3    H225022   3.155   5.160   1.471  0.3927  0.3491 -1.7935
 1155TIP3   OH225023   6.576   2.843   0.941 -0.4831  0.0274  0.4015
 1155TIP3    H125024   6.581   2.908   0.871  1.5945 -1.9623 -1.4190
 1155TIP3    H225025   6.666   2.830   0.969 -0.8762 -1.7592  0.9849
 1156TIP3   OH225026   4.413   3.264   7.653  0.3215 -0.4521  0.5077
 1156TIP3    H125027   4.348   3.212   7.606  0.9682 -0.8343  0.0266
 1156TIP3    H225028   4.385   3.354   7.639 -1.6834 -0.6494  2.5955
 1157TIP3   OH225029   4.475   3.793   8.172  0.4307  0.2994  0.4913
 1157TIP3    H125030   4.537   3.866   8.179  0.0913  0.8111 -1.3095
 1157TIP3    H225031   4.529   3.715   8.184  1.0510  0.7976  1.0047
 1158TIP3   OH225032   4.381   1.290   1.143 -0.3956 -0.2493  0.5652
 1158TIP3    H125033   4.433   1.349   1.198  0.2317  0.9096 -1.1858
 1158TIP3    H225034   4.437   1.271   1.068 -2.3109  0.7928 -1.2411
 1159TIP3   OH225035   5.670   5.664   0.982  0.4764 -0.1996  0.2341
 1159TIP3    H125036   5.608   5.591   0.974  3.5891 -3.1156  0.5389
 1159TIP3    H225037   5.693   5.666   1.075  2.4565 -0.7472 -0.1922
 1160TIP3   OH225038   5.052   3.097   7.978  0.0969 -0.7087  0.2959
 1160TIP3    H125039   5.090   3.038   7.913  1.1926  0.0745  0.1920
 1160TIP3    H225040   5.029   3.176   7.929 -2.2275 -1.3378  0.2516
 1161TIP3   OH225041   5.040   1.332   2.486 -0.2379  0.8180 -0.2213
 1161TIP3    H125042   5.120   1.292   2.517 -0.0835  0.4517 -1.0596
 1161TIP3    H225043   5.065   1.423   2.466 -0.2953  1.0012  0.5237
 1162TIP3   OH225044   3.078   2.574   0.008 -0.1104  0.2718  0.2223
 1162TIP3    H125045   2.991   2.535   0.010 -0.1950  0.3917 -0.6200
 1162TIP3    H225046   3.131   2.511  -0.042 -0.0361  0.8096 -0.3882
 1163TIP3   OH225047   5.116   1.711   0.744  0.2205  0.5350 -0.5209
 1163TIP3    H125048   5.129   1.735   0.652  3.3882  1.0984 -0.0485
 1163TIP3    H225049   5.051   1.641   0.742 -0.6417  1.3024 -3.0515
 1164TIP3   OH225050   6.051   0.765   8.336  0.1155 -0.0804 -0.0540
 1164TIP3    H125051   6.110   0.695   8.307 -0.0888  0.0378 -0.7639
 1164TIP3    H225052   5.963   0.734   8.314 -0.3175 -1.0951  2.6666
 1165TIP3   OH225053   6.679   2.972   0.336 -0.2854  0.3717  0.2071
 1165TIP3    H125054   6.632   3.047   0.300 -1.8328 -0.7682 -0.2806
 1165TIP3    H225055   6.707   3.000   0.423 -1.4066  1.3050  0.2917
 1166TIP3   OH225056   2.316   0.206   2.286 -0.4376  0.1828  0.2807
 1166TIP3    H125057   2.360   0.244   2.362  1.1138  0.3392 -0.6391
 1166TIP3    H225058   2.384   0.153   2.243 -0.6006  1.7920 -2.1684
 1167TIP3   OH225059   4.851   3.727   0.680  0.0702  0.8933 -0.1682
 1167TIP3    H125060   4.821   3.767   0.599  0.7339  1.9446  0.0891
 1167TIP3    H225061   4.947   3.730   0.675  0.1224  1.4524  0.8793
 1168TIP3   OH225062   0.159   1.052   7.664 -0.1252  0.2511  0.4618
 1168TIP3    H125063   0.070   1.079   7.643 -0.0930  0.7580  0.9679
 1168TIP3    H225064   0.196   1.024   7.580 -0.5152  0.7476  0.1186
 1169TIP3   OH225065   0.706   3.399   0.463 -0.3402  0.1261  0.5381
 1169TIP3    H125066   0.788   3.376   0.509 -0.6820  1.7308  2.0483
 1169TIP3    H225067   0.657   3.317   0.460  1.5186 -1.0340 -0.9518
 1170TIP3   OH225068   3.753   0.190   2.125  0.4463  0.4085  0.0350
 1170TIP3    H125069   3.794   0.267   2.085 -0.4201  0.7431 -0.2091
 1170TIP3    H225070   3.800   0.179   2.208  0.2494  1.4990  0.3045
 1171TIP3   OH225071   1.574   0.020   1.165 -0.5390 -0.2586  1.0698
 1171TIP3    H125072   1.648   0.057   1.118 -1.0784  1.2651  1.3881
 1171TIP3    H225073   1.569  -0.070   1.133  1.0325 -0.2005  0.5647
 1172TIP3   OH225074   2.138   3.214   0.533 -0.3853 -0.4820  0.3699
 1172TIP3    H125075   2.160   3.189   0.622 -0.4933  0.1050  0.5665
 1172TIP3    H225076   2.073   3.150   0.505 -2.6155  1.0121  1.7790
 1173TIP3   OH225077   6.184   4.237   0.205  0.0137  0.1812  0.1621
 1173TIP3    H125078   6.113   4.299   0.191  0.0645  0.2464  0.1888
 1173TIP3    H225079   6.226   4.229   0.119  0.5441  0.8513  0.3488
 1174TIP3   OH225080   1.894   3.802   8.320 -0.0408  0.3148 -0.0216
 1174TIP3    H125081   1.928   3.856   8.391 -0.0519  1.1791 -0.6660
 1174TIP3    H225082   1.956   3.814   8.249 -0.2036 -0.2986 -0.2750
 1175TIP3   OH225083   2.376   5.678   0.271 -0.2456  0.2352 -0.0176
 1175TIP3    H125084   2.422   5.599   0.244  1.8558  1.1984  0.5338
 1175TIP3    H225085   2.356   5.724   0.190  0.6772  0.2583 -0.2422
 1176TIP3   OH225086   5.048   4.415   2.203 -0.4131 -0.6786  0.1333
 1176TIP3    H125087   4.974   4.368   2.242  0.2012 -0.4711  1.6054
 1176TIP3    H225088   5.051   4.499   2.250  0.4320 -0.4639 -0.2836
 1177TIP3   OH225089   2.931   5.817   1.165  0.5190 -0.0511  0.2250
 1177TIP3    H125090   2.986   5.812   1.243  1.9988 -2.3242 -0.8368
 1177TIP3    H225091   2.917   5.725   1.140 -4.6404  0.2756  0.9160
 1178TIP3   OH225092   4.963   4.498   8.090 -0.2203  0.4966  0.1760
 1178TIP3    H125093   5.048   4.536   8.113 -0.6081  1.5012  0.0175
 1178TIP3    H225094   4.984   4.413   8.052  0.6550  0.3473  0.9563
 1179TIP3   OH225095   4.769   3.096   6.847  0.0193  0.1819  0.0943
 1179TIP3    H125096   4.824   3.021   6.869  1.1437  0.5388 -1.3113
 1179TIP3    H225097   4.770   3.099   6.751 -1.0788  1.2273  0.0821
 1180TIP3   OH225098   3.925   2.326   8.618  0.1806  0.2510  0.4319
 1180TIP3    H125099   3.999   2.337   8.677  0.6428  2.0866 -0.4077
 1180TIP3    H225100   3.964   2.306   8.533 -0.2935  0.7760  0.0810
 1181TIP3   OH225101   3.154   6.010   2.972  0.1114  0.6464 -0.8383
 1181TIP3    H125102   3.165   6.104   2.988  0.1807  0.4055  0.7658
 1181TIP3    H225103   3.102   5.980   3.046 -1.1513 -0.3475 -2.0909
 1182TIP3   OH225104   3.786   2.874   7.114 -0.4646 -0.2169 -0.5722
 1182TIP3    H125105   3.793   2.806   7.182  0.8166 -0.0228 -0.4788
 1182TIP3    H225106   3.766   2.826   7.034 -1.9277 -0.4562 -0.0975
 1183TIP3   OH225107   1.992   1.947   3.027 -0.0263 -0.1193 -0.1691
 1183TIP3    H125108   1.994   1.952   2.931  2.1276 -2.8051 -0.3983
 1183TIP3    H225109   2.012   2.036   3.055  0.5839  0.4727 -2.2554
 1184TIP3   OH225110   1.689   3.897   1.428 -0.2321  0.5863  0.4223
 1184TIP3    H125111   1.629   3.952   1.377 -0.8794 -1.0784 -0.7061
 1184TIP3    H225112   1.635   3.861   1.498 -0.8675 -1.5515 -1.0600
 1185TIP3   OH225113   2.030   4.218   7.785  0.0860  1.2758  0.6707
 1185TIP3    H125114   1.956   4.254   7.833 -0.8299 -0.5476  0.7051
 1185TIP3    H225115   2.099   4.208   7.850 -0.3893  0.9028  1.1151
 1186TIP3   OH225116   6.723   5.143   6.717 -0.2969 -0.4296 -0.2939
 1186TIP3    H125117   6.745   5.117   6.807  0.3609 -0.9531 -0.5983
 1186TIP3    H225118   6.807   5.170   6.680 -0.1139 -2.4934 -1.5093
 1187TIP3   OH225119   6.421   0.898   8.426 -0.1184  0.1345  0.3657
 1187TIP3    H125120   6.363   0.958   8.379  2.9466  1.4022 -2.1504
 1187TIP3    H225121   6.416   0.816   8.377  3.0744  1.4530 -2.5631
 1188TIP3   OH225122   4.792   5.338   2.147 -0.1046 -0.6689  0.5330
 1188TIP3    H125123   4.840   5.259   2.122 -0.1501 -0.2494 -1.0125
 1188TIP3    H225124   4.839   5.409   2.103 -1.3998 -0.1017  0.0240
 1189TIP3   OH225125   3.408   5.446   1.192  0.5327 -0.0509  0.4682
 1189TIP3    H125126   3.478   5.512   1.194  0.3994  0.1880 -1.2611
 1189TIP3    H225127   3.327   5.498   1.197  0.4335 -0.0674 -0.6567
 1190TIP3   OH225128   1.628   5.464   7.908 -0.1459 -0.5229  0.3010
 1190TIP3    H125129   1.662   5.411   7.980  0.5108  1.8878  1.8834
 1190TIP3    H225130   1.702   5.475   7.849  0.0807 -0.2850  0.6297
 1191TIP3   OH225131   0.679   5.780   0.376 -0.0518 -0.1756 -0.0825
 1191TIP3    H125132   0.586   5.760   0.366  0.1593 -1.2379 -0.0201
 1191TIP3    H225133   0.698   5.840   0.304 -0.4750 -1.0859 -0.9856
 1192TIP3   OH225134   5.966   4.762   2.299  0.2527 -0.3950  0.1793
 1192TIP3    H125135   5.942   4.689   2.355  2.0572 -1.3137 -0.1476
 1192TIP3    H225136   5.994   4.721   2.217  1.8304  0.5730  0.1772
 1193TIP3   OH225137   1.729   5.108   7.557  0.6060 -0.1122  0.6302
 1193TIP3    H125138   1.726   5.019   7.592  2.1478 -0.4832 -0.1315
 1193TIP3    H225139   1.689   5.101   7.470  0.9233 -0.0955  0.4844
 1194TIP3   OH225140   0.437   0.818   2.775 -0.4975  0.6875  0.0569
 1194TIP3    H125141   0.527   0.788   2.767 -0.3977  1.1962 -0.8080
 1194TIP3    H225142   0.443   0.913   2.783 -0.9275  0.6742  0.6127
 1195TIP3   OH225143   6.647   3.265   8.618  0.3754  0.1237  0.2461
 1195TIP3    H125144   6.598   3.184   8.602  0.3691 -0.1022  1.3049
 1195TIP3    H225145   6.739   3.239   8.611  0.3664  0.1658 -0.0363
 1196TIP3   OH225146   2.578   5.680   0.817  0.1959  0.0454  0.3871
 1196TIP3    H125147   2.643   5.745   0.843  0.3025  0.6394 -1.2494
 1196TIP3    H225148   2.496   5.711   0.857  0.4266  0.6985  0.3671
 1197TIP3   OH225149   5.415   3.100   6.887 -0.0923 -0.3890 -0.2836
 1197TIP3    H125150   5.447   3.185   6.915 -0.1840 -0.4303 -0.0485
 1197TIP3    H225151   5.320   3.104   6.902  0.0489 -0.9764  0.9425
 1198TIP3   OH225152   6.004   0.538   1.681  0.2307  0.0422 -0.4705
 1198TIP3    H125153   5.950   0.503   1.610 -1.2182 -0.7033  0.9536
 1198TIP3    H225154   6.090   0.552   1.640 -0.5822 -0.2290 -2.3935
 1199TIP3   OH225155   1.959   1.484   6.722 -0.1391  0.2008  0.7538
 1199TIP3    H125156   1.913   1.443   6.795 -1.0317 -0.7270 -0.2873
 1199TIP3    H225157   1.902   1.556   6.696 -0.3531 -0.1282  0.3041
 1200TIP3   OH225158   5.070   6.747   6.622 -0.9096 -0.3236  0.1784
 1200TIP3    H125159   5.034   6.777   6.706  1.6972  0.7482  1.0119
 1200TIP3    H225160   5.008   6.779   6.556 -2.0320  0.4703  1.5577
 1201TIP3   OH225161   2.196   5.355   0.297  0.2097  0.4200  0.2062
 1201TIP3    H125162   2.172   5.267   0.323  2.1714 -0.0926  0.4414
 1201TIP3    H225163   2.156   5.412   0.363 -1.6744 -0.1806 -0.3493
 1202TIP3   OH225164   3.983   0.311   6.721 -0.1818 -0.4518  0.2866
 1202TIP3    H125165   3.984   0.241   6.656  0.3130  0.9845 -1.3362
 1202TIP3    H225166   3.934   0.275   6.794 -0.5241 -2.2416 -0.7525
 1203TIP3   OH225167   3.310   4.341   1.496 -0.4797  0.0080 -0.7538
 1203TIP3    H125168   3.379   4.316   1.435 -0.1735 -1.0851  0.0035
 1203TIP3    H225169   3.348   4.327   1.583 -1.9028 -1.5290 -0.3039
 1204TIP3   OH225170   3.905   0.141   1.849  0.4669  0.4008 -0.4039
 1204TIP3    H125171   3.906   0.223   1.799  1.8686  0.4816 -0.2918
 1204TIP3    H225172   3.881   0.167   1.937 -0.4143  0.4939 -0.6669
 1205TIP3   OH225173   2.581   3.442   7.884  0.7231 -0.0578 -0.2612
 1205TIP3    H125174   2.553   3.378   7.950  0.2403 -0.3547 -0.7444
 1205TIP3    H225175   2.648   3.494   7.928  0.6293 -0.4530  0.3634
 1206TIP3   OH225176   0.406   0.205   7.970 -0.4218 -0.3306 -1.0691
 1206TIP3    H125177   0.427   0.123   7.924  1.1382 -0.5530 -0.0311
 1206TIP3    H225178   0.457   0.272   7.925 -0.8842 -0.1076 -1.2635
 1207TIP3   OH225179   6.587   0.196   0.486  0.3533 -0.2355  0.2461
 1207TIP3    H125180   6.631   0.225   0.406  1.1090  1.9901  1.3785
 1207TIP3    H225181   6.651   0.138   0.528  1.0668  0.7112  0.5004
 1208TIP3   OH225182   1.930   4.386   7.083  0.6061 -0.2987 -0.0514
 1208TIP3    H125183   1.934   4.389   6.987 -1.9852  0.0862 -0.2381
 1208TIP3    H225184   2.019   4.367   7.111  1.3656 -0.7762 -2.5597
 1209TIP3   OH225185   0.161   6.234   1.250  0.0982  0.4457 -0.1374
 1209TIP3    H125186   0.082   6.286   1.241 -0.1926  0.0440  0.0689
 1209TIP3    H225187   0.219   6.266   1.181 -0.3260  0.5910 -0.4298
 1210TIP3   OH225188   6.347   4.253   2.030 -0.1256  0.5911 -0.3201
 1210TIP3    H125189   6.396   4.335   2.023 -1.1024  1.1390 -0.8189
 1210TIP3    H225190   6.296   4.247   1.949 -0.9585  0.0799  0.2224
 1211TIP3   OH225191   6.188   3.601   0.599  0.2534 -0.1952  0.3157
 1211TIP3    H125192   6.184   3.645   0.513  1.7553 -0.9866 -0.1888
 1211TIP3    H225193   6.264   3.640   0.642  0.5076 -0.9914  0.5970
 1212TIP3   OH225194   2.965   2.469   7.853 -0.3048 -0.2558  0.0029
 1212TIP3    H125195   3.031   2.461   7.922  0.9841 -0.5878 -1.2273
 1212TIP3    H225196   2.882   2.469   7.900  0.4903 -1.3730  1.5018
 1213TIP3   OH225197   3.590   3.448   0.988 -0.5289  0.8836  0.2887
 1213TIP3    H125198   3.585   3.452   1.084 -0.3728  1.6318  0.2702
 1213TIP3    H225199   3.542   3.369   0.965  0.9169 -0.2566  1.0920
 1214TIP3   OH225200   4.819   4.229   1.494  0.4193  1.1585 -0.4483
 1214TIP3    H125201   4.767   4.210   1.416  0.2690 -0.5938  0.0285
 1214TIP3    H225202   4.755   4.247   1.563  0.4661  0.4707 -0.2143
 1215TIP3   OH225203   0.941   3.866   0.106  0.8907  0.3472  0.1397
 1215TIP3    H125204   0.864   3.818   0.136  0.8334  0.6891  0.5401
 1215TIP3    H225205   0.951   3.839   0.014 -0.2492  0.9774 -0.1988
 1216TIP3   OH225206   3.296   2.818   7.283  0.3796  0.2700  0.0719
 1216TIP3    H125207   3.215   2.811   7.334  0.9014  3.1285  1.4608
 1216TIP3    H225208   3.274   2.876   7.210  0.7510 -0.4077 -0.6011
 1217TIP3   OH225209   2.723   3.067   1.320 -0.3605 -0.2185 -0.1719
 1217TIP3    H125210   2.760   3.043   1.235  0.8745 -0.6035  0.4550
 1217TIP3    H225211   2.792   3.047   1.383 -2.1109 -2.3214  1.2214
 1218TIP3   OH225212   1.403   6.186   1.193 -0.5340 -0.1278 -0.5336
 1218TIP3    H125213   1.497   6.194   1.175 -0.4920  1.1203  0.1379
 1218TIP3    H225214   1.394   6.104   1.242  0.0878 -0.6580 -1.2783
 1219TIP3   OH225215   2.891   1.103   0.583  0.0988  0.7511  0.0763
 1219TIP3    H125216   2.929   1.136   0.664 -0.5478  1.1069  0.2411
 1219TIP3    H225217   2.805   1.071   0.608  0.2295  0.0849 -0.3173
 1220TIP3   OH225218   1.918   3.636   7.810  0.2672  0.1510 -0.4225
 1220TIP3    H125219   1.937   3.549   7.844 -0.7739 -0.4031 -1.1640
 1220TIP3    H225220   2.003   3.674   7.791  0.7674 -0.3731  0.7035
 1221TIP3   OH225221   2.369   5.881   7.339  0.4602  0.1313  0.1123
 1221TIP3    H125222   2.392   5.824   7.265  1.9245 -0.0649  0.6788
 1221TIP3    H225223   2.275   5.870   7.349  0.3753 -0.5222 -1.1569
 1222TIP3   OH225224   5.112   3.321   1.176  0.8002  0.2801  0.0295
 1222TIP3    H125225   5.159   3.312   1.093 -1.3380  0.2176 -1.2333
 1222TIP3    H225226   5.107   3.416   1.190  1.2729  0.2881  0.1877
 1223TIP3   OH225227   4.224   1.933   7.177 -1.0601  0.7822 -0.1906
 1223TIP3    H125228   4.232   1.871   7.249 -1.0156  0.7337 -0.2369
 1223TIP3    H225229   4.207   1.879   7.100  0.7529  0.6681 -0.5572
 1224TIP3   OH225230   0.949   3.735   7.475  0.6614 -0.1276 -0.4961
 1224TIP3    H125231   1.036   3.734   7.435  0.7632  2.9454 -0.6105
 1224TIP3    H225232   0.925   3.828   7.477 -2.5066 -0.8468 -0.1769
 1225TIP3   OH225233   5.410   6.482   1.897 -0.7004  0.2994  0.2169
 1225TIP3    H125234   5.395   6.389   1.917  0.3920 -0.7339 -3.0830
 1225TIP3    H225235   5.497   6.500   1.932 -1.6864  0.7970  2.6643
 1226TIP3   OH225236   3.763   5.990   1.179 -0.1689 -0.6355 -0.0546
 1226TIP3    H125237   3.790   5.929   1.110 -0.2723  0.9051 -1.4999
 1226TIP3    H225238   3.669   5.975   1.189 -0.2884 -0.3580 -0.7687
 1227TIP3   OH225239   2.181   1.285   2.033 -0.1696 -0.3311 -0.2097
 1227TIP3    H125240   2.104   1.228   2.036 -0.2998 -0.1866 -0.7724
 1227TIP3    H225241   2.172   1.340   2.111 -0.9792  0.1228 -0.6110
 1228TIP3   OH225242   6.738   6.215   8.608  0.6317 -0.7081  0.3004
 1228TIP3    H125243   6.711   6.250   8.523 -0.2896 -1.2769  0.3484
 1228TIP3    H225244   6.819   6.263   8.629  0.8387 -0.5177 -0.8615
 1229TIP3   OH225245   5.615   0.844   6.990 -0.0470 -0.0920 -0.0884
 1229TIP3    H125246   5.572   0.889   7.063 -0.0098 -0.1159 -0.0520
 1229TIP3    H225247   5.664   0.912   6.946  0.2629 -0.1574  0.1533
 1230TIP3   OH225248   5.219   2.341   7.082  0.1157 -0.1877 -0.4251
 1230TIP3    H125249   5.269   2.422   7.094  0.0233  0.0469 -1.5004
 1230TIP3    H225250   5.131   2.363   7.114  0.7228 -0.6944  1.7554
 1231TIP3   OH225251   5.892   0.155   7.945 -0.5791  0.3369 -0.5147
 1231TIP3    H125252   5.869   0.097   7.872 -1.1960  0.6356 -0.5653
 1231TIP3    H225253   5.980   0.128   7.970 -1.0771 -1.0460 -0.1366
 1232TIP3   OH225254   6.650   0.939   0.486  0.3837 -0.3554  0.3025
 1232TIP3    H125255   6.627   0.872   0.422  1.6208  1.2199 -1.9016
 1232TIP3    H225256   6.599   1.016   0.461 -0.7395 -0.2783  2.5676
 1233TIP3   OH225257   4.441   6.804   7.853 -0.0699 -0.2388  0.3991
 1233TIP3    H125258   4.489   6.799   7.771 -0.3598  0.1415  0.2033
 1233TIP3    H225259   4.495   6.861   7.909  0.1231 -0.4912  0.4696
 1234TIP3   OH225260   5.112   4.333   2.494 -0.1620  0.2193 -0.2679
 1234TIP3    H125261   5.125   4.412   2.547 -0.8571  0.9313 -1.1219
 1234TIP3    H225262   5.194   4.323   2.446  0.0923  0.1632  0.1764
 1235TIP3   OH225263   0.042   0.017   6.938 -0.3395  0.1760  0.3579
 1235TIP3    H125264  -0.049  -0.006   6.920 -0.4571  0.6629  0.3138
 1235TIP3    H225265   0.044   0.112   6.931  0.3518  0.1108 -0.5100
 1236TIP3   OH225266   2.195   1.524   2.935 -0.1482  0.0068  0.4582
 1236TIP3    H125267   2.104   1.549   2.950 -0.5380 -1.7813  1.3766
 1236TIP3    H225268   2.245   1.604   2.950 -1.5970  1.2178 -0.7847
 1237TIP3   OH225269   2.301   3.568   1.270 -0.3678  0.1105  0.5860
 1237TIP3    H125270   2.368   3.532   1.212 -0.8008 -1.8076  1.1996
 1237TIP3    H225271   2.218   3.536   1.234 -1.0268  2.6475 -0.2980
 1238TIP3   OH225272   4.848   3.907   6.883 -0.0942  0.7953  0.6489
 1238TIP3    H125273   4.928   3.958   6.868  0.8542 -0.9311 -0.3710
 1238TIP3    H225274   4.822   3.876   6.796 -1.0973  0.1828  1.1471
 1239TIP3   OH225275   4.769   6.086   7.671 -0.1242  0.1016  0.3696
 1239TIP3    H125276   4.683   6.069   7.708 -0.3151 -0.6100 -0.3592
 1239TIP3    H225277   4.752   6.104   7.578  0.2618  2.5300  0.6974
 1240TIP3   OH225278   2.437   1.679   1.642  0.2386 -0.0140  0.1378
 1240TIP3    H125279   2.450   1.620   1.716  0.5310  0.0706  0.1530
 1240TIP3    H225280   2.361   1.643   1.597  0.1552 -0.1586  0.3873
 1241TIP3   OH225281   6.736   6.386   7.901 -0.0879  0.1210  0.2948
 1241TIP3    H125282   6.650   6.344   7.903 -0.6212  1.1324 -0.2848
 1241TIP3    H225283   6.744   6.418   7.811  1.1363 -0.4260  0.1961
 1242TIP3   OH225284   1.713   3.831   8.599  0.0963 -0.2436  0.5669
 1242TIP3    H125285   1.689   3.851   8.508 -0.7451  1.7929  1.1737
 1242TIP3    H225286   1.795   3.877   8.613 -1.1744  1.8534  1.5942
 1243TIP3   OH225287   5.323   1.129   1.688 -0.4275 -0.0622 -0.4385
 1243TIP3    H125288   5.398   1.154   1.635  0.5984  1.4094  1.5781
 1243TIP3    H225289   5.293   1.211   1.728 -1.1557 -1.0824  1.2146
 1244TIP3   OH225290   3.966   5.549   2.014  0.7746 -0.0358  0.2208
 1244TIP3    H125291   3.906   5.615   1.979 -0.8142 -0.4536  1.9607
 1244TIP3    H225292   3.913   5.469   2.016  2.2946 -1.1102 -0.7339
 1245TIP3   OH225293   4.402   2.835   6.887 -0.1307 -0.3727 -0.2613
 1245TIP3    H125294   4.360   2.755   6.920 -1.6826  0.5903  0.1997
 1245TIP3    H225295   4.361   2.906   6.937  2.0744  0.6665  0.2153
 1246TIP3   OH225296   2.577   4.093   2.631 -0.1055 -0.1011 -0.0287
 1246TIP3    H125297   2.663   4.052   2.619  1.7326  2.5831  2.5478
 1246TIP3    H225298   2.555   4.079   2.723 -0.6182  2.2424  0.2915
 1247TIP3   OH225299   3.562   2.782   0.963 -0.5187  0.0397 -0.3460
 1247TIP3    H125300   3.505   2.793   1.039  0.3598 -1.4058  0.5406
 1247TIP3    H225301   3.533   2.699   0.924 -0.9295  0.7392 -1.5900
 1248TIP3   OH225302   2.140   5.237   1.020 -0.4854 -0.4924  0.0487
 1248TIP3    H125303   2.183   5.274   1.097  1.0296  0.7952 -1.3279
 1248TIP3    H225304   2.163   5.144   1.022 -1.3785 -0.7104  1.6812
 1249TIP3   OH225305   3.198   6.110   1.303 -0.1675  0.5827  0.2403
 1249TIP3    H125306   3.129   6.155   1.254 -0.9835 -0.4261  0.4319
 1249TIP3    H225307   3.185   6.136   1.394 -0.0227  0.7199  0.2235
 1250TIP3   OH225308   1.595   2.100   1.552 -0.1212 -0.1023  0.0616
 1250TIP3    H125309   1.565   2.145   1.631  0.3662 -1.1253  0.8509
 1250TIP3    H225310   1.520   2.046   1.526 -0.7615  1.2288 -0.9745
 1251TIP3   OH225311   4.858   1.320   7.851 -0.3175 -0.2840  0.0351
 1251TIP3    H125312   4.944   1.284   7.872  1.3006  2.6529 -1.0426
 1251TIP3    H225313   4.855   1.405   7.896 -1.7432  0.6383 -1.6659
 1252TIP3   OH225314   4.948   3.264   2.125  0.1825  0.0090  0.1554
 1252TIP3    H125315   4.966   3.343   2.073 -2.4537  0.1014 -0.7780
 1252TIP3    H225316   4.997   3.195   2.082 -0.1381  0.5351 -1.1012
 1253TIP3   OH225317   1.304   0.507   2.415 -0.2956  0.1708 -0.1681
 1253TIP3    H125318   1.274   0.506   2.505  0.3149 -1.2210  0.0332
 1253TIP3    H225319   1.399   0.503   2.421 -0.2844 -1.9405 -0.8606
 1254TIP3   OH225320   3.580   1.102   8.270  0.2102 -0.1931 -0.0203
 1254TIP3    H125321   3.517   1.064   8.332  0.2888  2.2767  1.7241
 1254TIP3    H225322   3.620   1.026   8.227 -0.6393 -2.0159  2.1897
 1255TIP3   OH225323   2.373   3.981   2.241  0.5321 -0.0392 -0.0608
 1255TIP3    H125324   2.398   4.058   2.292 -0.8281  0.6747 -0.4413
 1255TIP3    H225325   2.445   3.920   2.255  1.2384  0.9677  0.9373
 1256TIP3   OH225326   2.506   5.983   1.909  0.1779  0.6894  0.3896
 1256TIP3    H125327   2.431   6.043   1.907 -0.5439 -0.1632  1.2003
 1256TIP3    H225328   2.472   5.901   1.875  1.1055  0.6559 -0.5001
 1257TIP3   OH225329   6.011   6.818   1.426  0.2317  0.0688 -0.4323
 1257TIP3    H125330   5.954   6.893   1.445 -0.8364 -0.5915 -0.9081
 1257TIP3    H225331   5.983   6.750   1.486 -0.1359 -0.5695 -1.2987
 1258TIP3   OH225332   2.825   6.869   7.869  0.0698 -0.0627  0.0167
 1258TIP3    H125333   2.818   6.962   7.892  0.3377  0.1175 -0.6274
 1258TIP3    H225334   2.882   6.867   7.792 -0.0541 -0.7488 -0.0619
 1259TIP3   OH225335   6.534   0.740   2.315 -0.7779  0.1512  0.1378
 1259TIP3    H125336   6.478   0.801   2.362 -1.8051  1.2733 -2.4013
 1259TIP3    H225337   6.620   0.783   2.314 -1.1482  0.8993 -0.4053
 1260TIP3   OH225338   4.062   4.844   7.381 -0.4939 -0.3547  0.2285
 1260TIP3    H125339   3.995   4.910   7.361 -2.1012 -1.9427  0.0278
 1260TIP3    H225340   4.052   4.779   7.312  0.5558 -1.1476  0.7958
 1261TIP3   OH225341   6.755   0.344   2.498 -0.0646  0.1772  0.8256
 1261TIP3    H125342   6.735   0.295   2.578 -2.9491  0.6030  0.4637
 1261TIP3    H225343   6.714   0.430   2.512  1.4832  1.1225 -0.1660
 1262TIP3   OH225344   4.398   2.489   1.548  0.3839 -0.3440  0.0662
 1262TIP3    H125345   4.333   2.525   1.608  0.8142  1.6218 -0.5627
 1262TIP3    H225346   4.462   2.446   1.604  1.5999  2.7414  1.2690
 1263TIP3   OH225347   4.659   2.111   1.753  0.2952  0.0805 -0.4553
 1263TIP3    H125348   4.679   2.055   1.678  0.3692  0.5762 -0.8092
 1263TIP3    H225349   4.611   2.054   1.814  0.8320 -0.5073 -0.5754
 1264TIP3   OH225350   0.620   5.084   8.221  0.1304 -0.8339  0.6655
 1264TIP3    H125351   0.532   5.075   8.183 -0.9070  2.9526  1.7771
 1264TIP3    H225352   0.679   5.063   8.149 -1.7234 -0.3078 -1.1054
 1265TIP3   OH225353   3.241   0.976   0.949  0.4716 -0.0974  0.1862
 1265TIP3    H125354   3.225   0.882   0.938  1.0990 -0.1769 -0.0739
 1265TIP3    H225355   3.305   0.998   0.881 -0.1942  0.6676 -0.2234
 1266TIP3   OH225356   0.149   2.205   8.439  0.7440  0.1306 -0.0390
 1266TIP3    H125357   0.081   2.174   8.378 -0.4306  0.8172  0.8746
 1266TIP3    H225358   0.174   2.127   8.488  0.3463 -0.0755 -0.1524
 1267TIP3   OH225359   2.192   5.541   1.076  0.1235 -0.1524  0.4809
 1267TIP3    H125360   2.204   5.477   1.005 -0.6210 -0.0774  0.2807
 1267TIP3    H225361   2.269   5.529   1.131  0.1132 -1.0684  0.3183
 1268TIP3   OH225362   0.366   4.375   8.449  0.0653  0.1036 -0.4444
 1268TIP3    H125363   0.319   4.382   8.532 -1.4165  1.8545 -1.3598
 1268TIP3    H225364   0.298   4.360   8.383  1.2497 -1.7262 -1.3465
 1269TIP3   OH225365   5.482   2.959   7.143  0.0434 -0.3259  0.0000
 1269TIP3    H125366   5.568   2.998   7.128  1.1099 -2.4269  0.3872
 1269TIP3    H225367   5.478   2.884   7.084 -1.5886 -0.2192 -0.0900
 1270TIP3   OH225368   5.323   3.354   0.344 -0.1211 -0.1441  0.1645
 1270TIP3    H125369   5.305   3.361   0.438 -3.1045 -2.8188 -0.0380
 1270TIP3    H225370   5.263   3.417   0.303  0.2637  0.1088 -0.0155
 1271TIP3   OH225371   2.392   5.693   2.100 -0.3944 -0.1487  0.1505
 1271TIP3    H125372   2.420   5.735   2.019  0.4480 -0.0218  0.4986
 1271TIP3    H225373   2.385   5.764   2.164 -2.6821  0.0258 -0.1814
 1272TIP3   OH225374   0.007   5.123   0.201 -0.3060 -0.2069  0.2248
 1272TIP3    H125375  -0.023   5.076   0.279 -1.6259 -1.6277 -1.0382
 1272TIP3    H225376   0.031   5.053   0.139  0.5246  0.8661 -0.7104
 1273TIP3   OH225377   4.937   5.435   8.413 -0.2677  0.2487 -0.1619
 1273TIP3    H125378   4.882   5.420   8.336 -0.9621 -1.0391  0.5410
 1273TIP3    H225379   4.915   5.523   8.442 -0.6900  0.3871 -0.8946
 1274TIP3   OH225380   6.337   3.767   0.444  0.5901 -0.0009  0.6335
 1274TIP3    H125381   6.368   3.762   0.534  2.6132 -0.3238 -0.0118
 1274TIP3    H225382   6.315   3.859   0.431  0.2090  0.0312  1.4784
 1275TIP3   OH225383   2.690   4.405   8.375 -0.7182  0.2603 -0.0486
 1275TIP3    H125384   2.777   4.401   8.414 -1.1716  1.7933  1.2460
 1275TIP3    H225385   2.705   4.428   8.284  0.3396 -2.7775 -0.7714
 1276TIP3   OH225386   0.674   3.098   1.347  0.6086  0.0980  0.0931
 1276TIP3    H125387   0.747   3.133   1.296 -0.1455 -0.2968 -1.3162
 1276TIP3    H225388   0.696   3.006   1.360 -1.0315 -0.9404 -3.2152
 1277TIP3   OH225389   3.277   2.023   8.278  0.3613 -0.2089 -0.3589
 1277TIP3    H125390   3.258   2.028   8.185  0.1986 -3.1393 -0.5897
 1277TIP3    H225391   3.373   2.030   8.284  0.2340  2.2065 -0.4622
 1278TIP3   OH225392   4.562   5.536   0.658 -0.0375  0.2183 -0.3466
 1278TIP3    H125393   4.643   5.498   0.693  0.0488  0.8806  0.1978
 1278TIP3    H225394   4.575   5.630   0.667 -1.1305  0.3200  0.3415
 1279TIP3   OH225395   5.622   0.757   0.195  0.1802 -0.1337 -0.3743
 1279TIP3    H125396   5.637   0.663   0.183  0.6787  0.0196 -0.9964
 1279TIP3    H225397   5.643   0.772   0.287 -3.6702 -1.3222  0.8831
 1280TIP3   OH225398   4.185   0.906   8.441 -0.1208 -0.1641 -0.8449
 1280TIP3    H125399   4.207   0.820   8.404 -0.1855 -0.3517 -0.4526
 1280TIP3    H225400   4.090   0.913   8.430 -0.2099 -0.4155 -0.3256
 1281TIP3   OH225401   0.985   5.624   7.905  0.2759 -0.1786 -0.4359
 1281TIP3    H125402   0.919   5.688   7.933 -0.0234 -0.7089  0.0737
 1281TIP3    H225403   0.939   5.568   7.843 -0.5478 -2.1910  1.8741
 1282TIP3   OH225404   4.202   0.198   0.655  0.2655  0.3315  0.4495
 1282TIP3    H125405   4.157   0.262   0.711 -0.2639 -0.5650  1.0817
 1282TIP3    H225406   4.232   0.130   0.716  1.2606  0.2163 -0.1444
 1283TIP3   OH225407   4.677   6.036   3.105 -0.1522 -0.6474 -0.4308
 1283TIP3    H125408   4.714   6.119   3.132  0.6577 -1.3341  0.6598
 1283TIP3    H225409   4.594   6.059   3.064 -0.8943  0.5622  1.6224
 1284TIP3   OH225410   2.129   3.081   0.205  0.1937 -0.1365 -0.0225
 1284TIP3    H125411   2.205   3.132   0.232  1.3254 -2.8589  2.5046
 1284TIP3    H225412   2.062   3.101   0.270 -1.0972  1.6376 -1.7813
 1285TIP3   OH225413   0.276   0.531   6.568  0.6441  0.5370 -0.4354
 1285TIP3    H125414   0.368   0.534   6.541  1.6538  3.2330  2.7061
 1285TIP3    H225415   0.240   0.615   6.540  0.0890  0.8465  1.1031
 1286TIP3   OH225416   6.628   5.868   2.448  0.4848 -0.2477 -0.0700
 1286TIP3    H125417   6.622   5.783   2.492  0.9260 -0.2156  0.0591
 1286TIP3    H225418   6.697   5.857   2.383  0.7655  0.1027  0.1620
 1287TIP3   OH225419   0.459   3.899   0.492 -0.5103  0.3422 -0.0447
 1287TIP3    H125420   0.384   3.842   0.477 -1.3167  0.9223  1.5909
 1287TIP3    H225421   0.531   3.839   0.510 -1.0263 -0.1981  0.2573
 1288TIP3   OH225422   1.715   6.336   1.339  0.3937 -0.0232  0.4337
 1288TIP3    H125423   1.653   6.393   1.386  0.6666  0.7169 -0.0917
 1288TIP3    H225424   1.661   6.262   1.309 -0.2143  0.5460  0.0954
 1289TIP3   OH225425   6.861   0.390   0.573  0.6772  1.0719  0.2707
 1289TIP3    H125426   6.865   0.336   0.494 -0.1615 -0.1933  1.0617
 1289TIP3    H225427   6.840   0.329   0.643 -0.1427  2.4011  1.2392
 1290TIP3   OH225428   1.919   5.347   1.151 -0.6146 -0.5938  0.4220
 1290TIP3    H125429   1.827   5.349   1.126 -0.4459 -1.0069 -0.2414
 1290TIP3    H225430   1.959   5.284   1.091  0.3821  0.6570 -0.2602
 1291TIP3   OH225431   3.372   1.689   8.190 -0.4044  0.1324  0.1279
 1291TIP3    H125432   3.288   1.661   8.227  0.3120 -0.0162  1.7563
 1291TIP3    H225433   3.387   1.775   8.228  0.5536 -0.1988  0.5219
 1292TIP3   OH225434   6.355   6.485   0.361 -0.7099  0.3133 -0.7564
 1292TIP3    H125435   6.294   6.423   0.322 -0.6624 -1.8748  2.3173
 1292TIP3    H225436   6.303   6.534   0.425  0.5727 -1.7736  2.1215
 1293TIP3   OH225437   5.567   3.964   6.825 -0.2185  0.0858  0.0784
 1293TIP3    H125438   5.617   4.021   6.884  1.3254  0.2104 -1.2818
 1293TIP3    H225439   5.527   3.900   6.884 -0.3266  1.3349  1.4432
 1294TIP3   OH225440   1.593   4.394   2.874  0.0100  0.0539  0.3009
 1294TIP3    H125441   1.666   4.334   2.855  0.5658  0.6644  0.4828
 1294TIP3    H225442   1.605   4.465   2.811 -1.8782 -1.0031 -1.3993
 1295TIP3   OH225443   6.602   0.135   2.158  0.1369  0.1884  0.4087
 1295TIP3    H125444   6.574   0.061   2.213  2.1477 -0.1032  1.1242
 1295TIP3    H225445   6.571   0.113   2.070  0.7619 -1.5792  0.5883
 1296TIP3   OH225446   0.351   4.993   8.216 -0.1819  0.4124  0.4030
 1296TIP3    H125447   0.273   5.007   8.163  0.1319  0.7717  0.0233
 1296TIP3    H225448   0.329   5.024   8.303 -0.2326  1.1609  0.1242
 1297TIP3   OH225449   4.492   6.736   2.734 -0.5253  0.3112  0.3263
 1297TIP3    H125450   4.506   6.820   2.690  1.2194  0.0314  0.2757
 1297TIP3    H225451   4.526   6.749   2.822 -0.2760 -0.3211  0.3286
 1298TIP3   OH225452   2.503   0.359   0.252  0.1279 -0.2085  0.2037
 1298TIP3    H125453   2.422   0.319   0.221  0.2974 -0.6925  0.3772
 1298TIP3    H225454   2.571   0.322   0.196  0.4567 -1.2168  1.2323
 1299TIP3   OH225455   3.089   5.434   0.927  0.8919  0.3800  0.0514
 1299TIP3    H125456   3.165   5.415   0.983  2.3786 -1.0014 -2.2466
 1299TIP3    H225457   3.015   5.435   0.987  2.1795 -2.3937  1.9213
 1300TIP3   OH225458   0.752   4.721   0.009 -0.1040  0.4273 -0.1982
 1300TIP3    H125459   0.757   4.811   0.043 -0.2726  0.3085  0.1406
 1300TIP3    H225460   0.658   4.703   0.003 -0.0668  0.1831 -0.0335
 1301TIP3   OH225461   1.069   5.488   8.414 -0.0817 -0.4107 -0.0030
 1301TIP3    H125462   1.091   5.522   8.328 -0.3735  0.3955  0.2231
 1301TIP3    H225463   0.997   5.427   8.399 -0.7968  0.4728 -0.2297
 1302TIP3   OH225464   5.579   3.385   2.494  0.2326 -0.1187 -0.8410
 1302TIP3    H125465   5.656   3.433   2.465  0.2578 -0.2380 -0.9788
 1302TIP3    H225466   5.520   3.451   2.529  0.8921 -0.1593  0.3936
 1303TIP3   OH225467   2.298   2.024   1.387  0.4895  0.5888 -0.7758
 1303TIP3    H125468   2.356   1.987   1.454  0.9182 -0.1297 -1.5174
 1303TIP3    H225469   2.280   2.113   1.417 -0.7198 -0.2489  1.1741
 1304TIP3   OH225470   2.933   2.321   2.166 -0.5079  0.0703  0.0604
 1304TIP3    H125471   3.009   2.274   2.132 -1.1568 -0.7200 -0.3616
 1304TIP3    H225472   2.906   2.271   2.243  0.4308  1.3553  1.2717
 1305TIP3   OH225473   0.605   1.583   1.758  0.6610  0.3998  0.8718
 1305TIP3    H125474   0.639   1.623   1.838  1.5214  1.6450 -0.0787
 1305TIP3    H225475   0.672   1.601   1.692  0.5508 -1.6841  0.1366
 1306TIP3   OH225476   1.516   1.617   1.749  0.0151 -0.4077  0.4574
 1306TIP3    H125477   1.469   1.573   1.678  0.8191 -0.5087 -0.0272
 1306TIP3    H225478   1.504   1.711   1.732  0.5970 -0.4225 -0.1037
 1307TIP3   OH225479   0.277   5.471   8.564 -0.0948 -0.0576 -0.0202
 1307TIP3    H125480   0.323   5.487   8.647  0.0563 -0.6273  0.0130
 1307TIP3    H225481   0.342   5.425   8.510  1.0507  3.3358 -1.7659
 1308TIP3   OH225482   1.583   3.238   2.427 -0.2245 -0.8218 -0.2902
 1308TIP3    H125483   1.580   3.296   2.503 -0.0371 -0.7528 -0.3345
 1308TIP3    H225484   1.496   3.200   2.422 -0.4453 -0.3038 -0.4487
 1309TIP3   OH225485   2.260   1.153   1.443 -0.2373  0.2871  0.0508
 1309TIP3    H125486   2.236   1.180   1.355 -0.3049  0.1196  0.0181
 1309TIP3    H225487   2.270   1.235   1.491  1.5899  0.4677 -0.5617
 1310TIP3   OH225488   4.353   6.036   2.202 -0.7829 -0.2394  0.0210
 1310TIP3    H125489   4.317   5.994   2.280 -1.5179 -0.6479 -0.5156
 1310TIP3    H225490   4.420   6.096   2.235 -2.9611  1.6997  1.2294
 1311TIP3   OH225491   5.748   3.936   7.724  0.0653 -0.4090 -0.4231
 1311TIP3    H125492   5.707   4.022   7.716 -2.1929 -1.2115  1.3600
 1311TIP3    H225493   5.724   3.890   7.643 -1.4580 -0.3828 -0.0142
 1312TIP3   OH225494   1.980   5.602   7.628 -0.5734  0.6113 -0.1543
 1312TIP3    H125495   1.938   5.516   7.627  1.1511 -0.3284  1.4643
 1312TIP3    H225496   1.933   5.650   7.696 -0.7243  0.4958 -0.1754
 1313TIP3   OH225497   4.601   2.245   7.741  0.2185 -0.1384 -0.3328
 1313TIP3    H125498   4.642   2.332   7.734  0.0337 -0.1528 -1.7580
 1313TIP3    H225499   4.666   2.185   7.707 -0.4809 -0.3000 -1.4318
 1314TIP3   OH225500   4.340   6.482   2.110  0.5080 -0.1957 -0.0368
 1314TIP3    H125501   4.336   6.507   2.202 -0.1138 -0.4404  0.0022
 1314TIP3    H225502   4.375   6.560   2.066  0.7855 -0.0709  0.3988
 1315TIP3   OH225503   3.841   3.852   1.309  0.7544 -0.2024 -0.3419
 1315TIP3    H125504   3.932   3.826   1.320  0.1069 -2.1099  1.0785
 1315TIP3    H225505   3.827   3.849   1.214  2.0626 -0.2498 -0.5543
 1316TIP3   OH225506   0.192   2.944   8.346  0.6638 -0.0761 -0.2573
 1316TIP3    H125507   0.235   3.026   8.372 -1.1797  0.8723 -0.0794
 1316TIP3    H225508   0.142   2.918   8.423 -0.0729 -0.4894 -0.8662
 1317TIP3   OH225509   0.464   6.588   2.221  0.3716 -0.2035 -0.4856
 1317TIP3    H125510   0.543   6.556   2.178  1.3419 -0.5818  1.4707
 1317TIP3    H225511   0.472   6.683   2.220 -0.1653 -0.1606 -2.0807
 1318TIP3   OH225512   6.755   1.163   2.694  0.5591 -0.9859  0.7771
 1318TIP3    H125513   6.749   1.068   2.680 -1.9846 -0.5172 -2.5547
 1318TIP3    H225514   6.708   1.178   2.776 -0.9937 -2.4483  0.2147
 1319TIP3   OH225515   4.855   2.480   0.329 -0.3313  0.6051 -0.2781
 1319TIP3    H125516   4.858   2.403   0.272 -2.1002  0.6057 -0.4326
 1319TIP3    H225517   4.896   2.550   0.277 -1.9706  0.6220 -1.6359
 1320TIP3   OH225518   1.528   3.737   3.245  0.3521 -0.6192  0.5133
 1320TIP3    H125519   1.437   3.768   3.240  0.1340 -1.2716  0.3479
 1320TIP3    H225520   1.581   3.816   3.232 -0.1521  0.1984  2.9183
 1321TIP3   OH225521   3.855   3.317   6.712 -0.0762 -0.1171  0.4945
 1321TIP3    H125522   3.821   3.395   6.755 -0.4185 -1.4798  2.8516
 1321TIP3    H225523   3.938   3.300   6.755 -0.9481 -2.1488  1.5221
 1322TIP3   OH225524   6.839   6.147   8.181 -0.9927  0.4564 -0.1983
 1322TIP3    H125525   6.848   6.079   8.115  0.5710  0.2626  0.1659
 1322TIP3    H225526   6.754   6.131   8.221  0.0461 -2.4903  1.1279
 1323TIP3   OH225527   0.780   0.033   7.283  0.4461 -0.2278 -0.6477
 1323TIP3    H125528   0.702   0.069   7.241  0.5341  0.3388 -0.3293
 1323TIP3    H225529   0.763  -0.061   7.289 -0.3648 -0.0608 -0.2568
 1324TIP3   OH225530   5.890   6.005   0.590 -0.0225  0.1829 -0.1923
 1324TIP3    H125531   5.855   5.924   0.627 -2.4197  0.4246 -1.7158
 1324TIP3    H225532   5.916   5.981   0.501 -0.0376  0.9142 -0.4008
 1325TIP3   OH225533   2.493   4.571   8.472 -0.0995  0.6426 -0.3481
 1325TIP3    H125534   2.541   4.500   8.428 -1.4117  0.1609 -1.0399
 1325TIP3    H225535   2.528   4.572   8.561  2.5393  1.5487 -1.2782
 1326TIP3   OH225536   5.705   4.542   0.185  0.4275  0.4044  0.0870
 1326TIP3    H125537   5.768   4.480   0.223 -1.6475 -1.3175  0.8867
 1326TIP3    H225538   5.671   4.591   0.260  0.6410  1.1903 -0.3159
 1327TIP3   OH225539   5.607   1.115   2.579 -0.6987  1.0955  0.0463
 1327TIP3    H125540   5.549   1.138   2.506 -1.8310 -0.2196  0.4849
 1327TIP3    H225541   5.550   1.109   2.655  0.2605  1.2148  0.7985
 1328TIP3   OH225542   3.296   4.773   0.036 -0.0731  0.6675  0.1556
 1328TIP3    H125543   3.272   4.865   0.032  1.4198  1.0528 -0.5239
 1328TIP3    H225544   3.390   4.771   0.020 -0.3473 -1.1020 -1.7200
 1329TIP3   OH225545   4.546   4.397   2.881  0.0533  0.3117  0.2333
 1329TIP3    H125546   4.547   4.373   2.789 -0.0217  1.8570 -0.2046
 1329TIP3    H225547   4.618   4.346   2.920  1.8878  1.6089 -1.2514
 1330TIP3   OH225548   5.967   1.623   8.399  0.2211 -0.7933  0.2879
 1330TIP3    H125549   6.006   1.698   8.444 -2.7403 -0.1729  2.1105
 1330TIP3    H225550   5.941   1.658   8.313  0.0971 -0.1123  0.5957
 1331TIP3   OH225551   0.282   6.595   1.696 -0.4549 -0.6050  0.1056
 1331TIP3    H125552   0.288   6.690   1.693 -2.3689 -0.4063  0.8522
 1331TIP3    H225553   0.339   6.569   1.769 -0.0217 -0.0225 -0.0212
 1332TIP3   OH225554   0.237   5.898   8.340 -0.4707 -0.1880  0.2067
 1332TIP3    H125555   0.171   5.934   8.399  0.6637  1.3702  0.5854
 1332TIP3    H225556   0.317   5.894   8.392 -0.0585 -1.3207 -0.4674
 1333TIP3   OH225557   6.010   4.709   0.499  0.5369  0.2407  0.2756
 1333TIP3    H125558   5.958   4.679   0.573  0.2118 -2.5835 -0.9477
 1333TIP3    H225559   6.100   4.710   0.531  0.1774  1.2478  1.2929
 1334TIP3   OH225560   2.651   6.470   0.867 -0.4031  0.4483  0.0489
 1334TIP3    H125561   2.745   6.470   0.845 -0.2335  2.9280  0.5235
 1334TIP3    H225562   2.640   6.392   0.922  0.7128 -1.5657 -2.3443
 1335TIP3   OH225563   4.812   1.394   1.290 -0.1492  0.0320  0.3333
 1335TIP3    H125564   4.751   1.390   1.364 -0.0108  0.6118  0.4836
 1335TIP3    H225565   4.842   1.304   1.280 -1.6992 -0.4519 -0.3145
 1336TIP3   OH225566   4.906   2.182   1.072  0.2493  0.3122 -0.2206
 1336TIP3    H125567   4.918   2.141   0.986 -0.1454 -1.4450  0.5250
 1336TIP3    H225568   4.907   2.109   1.134  0.4955  1.5386  1.2824
 1337TIP3   OH225569   1.038   4.471   7.712  0.2248 -0.7962 -0.0495
 1337TIP3    H125570   1.077   4.405   7.655 -0.4069 -0.6958 -0.6011
 1337TIP3    H225571   1.096   4.472   7.789  0.5733 -1.5710 -0.2847
 1338TIP3   OH225572   1.957   1.656   7.451 -0.5621  0.2053 -0.0105
 1338TIP3    H125573   1.917   1.616   7.373 -0.7208 -0.8188  0.5749
 1338TIP3    H225574   2.014   1.587   7.486  1.7093  1.5667 -0.7521
 1339TIP3   OH225575   1.826   4.185   1.149  0.5609 -0.5605 -0.1895
 1339TIP3    H125576   1.749   4.146   1.109 -0.1589 -0.3758  0.9469
 1339TIP3    H225577   1.869   4.113   1.195 -0.4648 -0.1807  1.4482
 1340TIP3   OH225578   1.246   4.274   7.104  0.3444 -0.1684 -0.1919
 1340TIP3    H125579   1.266   4.333   7.032 -1.2645  1.1280  0.3840
 1340TIP3    H225580   1.268   4.187   7.070 -1.9712  0.1743 -2.8976
 1341TIP3   OH225581   3.436   2.220   1.086  0.2018  0.5354  0.1905
 1341TIP3    H125582   3.356   2.220   1.139  0.8548 -1.1739  1.2413
 1341TIP3    H225583   3.413   2.167   1.010  0.5821 -0.7021  0.9233
 1342TIP3   OH225584   3.627   3.355   2.095 -0.2752 -0.4530 -0.1618
 1342TIP3    H125585   3.577   3.309   2.028 -1.4276 -0.1499  0.4702
 1342TIP3    H225586   3.575   3.433   2.114  0.5246 -0.0464  0.4029
 1343TIP3   OH225587   3.625   6.356   1.393 -0.4808  0.0650  0.5650
 1343TIP3    H125588   3.705   6.359   1.445 -0.8879  1.8640  1.1729
 1343TIP3    H225589   3.590   6.445   1.398 -1.2402 -0.0549 -1.7305
 1344TIP3   OH225590   6.004   4.558   1.151 -0.6559  0.1432  0.1449
 1344TIP3    H125591   6.030   4.471   1.183 -1.9546  0.3040  1.8060
 1344TIP3    H225592   6.004   4.613   1.229 -2.9848  0.8372 -0.2666
 1345TIP3   OH225593   2.823   1.678   7.793  0.1753 -0.3363 -0.4211
 1345TIP3    H125594   2.794   1.588   7.810 -0.9382  0.1169  0.2485
 1345TIP3    H225595   2.905   1.687   7.842 -0.5950 -0.4864  0.9547
 1346TIP3   OH225596   0.754   6.704   1.878 -0.4364 -1.0003  0.4970
 1346TIP3    H125597   0.706   6.712   1.795  0.6738  0.3478 -0.0471
 1346TIP3    H225598   0.703   6.640   1.929 -2.3382 -0.2456 -0.3619
 1347TIP3   OH225599   0.702   3.091   8.618  0.1654  0.1468  0.3987
 1347TIP3    H125600   0.653   3.010   8.603  1.1972 -0.5286  0.5617
 1347TIP3    H225601   0.791   3.061   8.639  0.8616  1.3547 -0.7040
 1348TIP3   OH225602   0.367   6.431   0.443  0.0511  0.3325 -0.2346
 1348TIP3    H125603   0.283   6.424   0.397 -0.8897  0.0304  1.4399
 1348TIP3    H225604   0.384   6.525   0.446  0.6398  0.3150 -2.0145
 1349TIP3   OH225605   5.347   6.521   7.533  0.3031 -0.3864  0.4008
 1349TIP3    H125606   5.273   6.565   7.491  1.6673  0.3725 -1.2852
 1349TIP3    H225607   5.404   6.494   7.461  1.2440 -1.7926  1.6114
 1350TIP3   OH225608   4.814   0.249   8.569  0.8106 -0.9809 -0.0078
 1350TIP3    H125609   4.789   0.181   8.506  0.7895 -0.8936 -0.0932
 1350TIP3    H225610   4.732   0.276   8.609  0.8461 -1.1885  0.2127
 1351TIP3   OH225611   2.015   0.266   1.560  0.3627  0.1011 -0.3162
 1351TIP3    H125612   2.059   0.349   1.544  1.9083 -0.9683 -2.1212
 1351TIP3    H225613   2.080   0.212   1.605 -1.0059  0.1750  1.8770
 1352TIP3   OH225614   3.456   3.908   0.728 -0.9387 -0.2064 -0.2480
 1352TIP3    H125615   3.486   3.880   0.815  1.4152  2.4663 -0.0210
 1352TIP3    H225616   3.532   3.892   0.671 -1.2697  1.0660 -1.0771
 1353TIP3   OH225617   3.196   4.525   8.591 -0.1695  0.0630  0.6423
 1353TIP3    H125618   3.228   4.614   8.607  1.4458 -0.7077  2.0901
 1353TIP3    H225619   3.260   4.468   8.635 -1.9286 -1.7635  1.0163
 1354TIP3   OH225620   3.083   4.715   0.220  0.1804 -0.0462  0.1657
 1354TIP3    H125621   3.053   4.758   0.140 -0.6158 -0.0856  0.4303
 1354TIP3    H225622   3.177   4.704   0.208  0.6281  2.6971  0.5232
 1355TIP3   OH225623   4.414   2.133   2.441 -0.0346 -0.4765 -0.3265
 1355TIP3    H125624   4.479   2.139   2.512  1.0196  0.1027 -1.2997
 1355TIP3    H225625   4.418   2.041   2.412 -1.0656 -0.9276  0.8712
 1356TIP3   OH225626   3.191   6.395   1.980 -0.2965 -0.1410 -0.6291
 1356TIP3    H125627   3.147   6.377   1.897  0.4065 -0.8836 -0.8480
 1356TIP3    H225628   3.280   6.363   1.968 -0.3285 -0.7568  0.5989
 1357TIP3   OH225629   6.005   1.065   2.337  0.8263  0.2773  0.0654
 1357TIP3    H125630   6.010   0.983   2.288  1.2313  0.4374 -0.1612
 1357TIP3    H225631   5.994   1.133   2.269 -1.2133  0.2673  0.3208
 1358TIP3   OH225632   0.597   0.922   0.481  0.4719 -0.3440 -0.2269
 1358TIP3    H125633   0.585   0.969   0.399 -0.9878 -0.6541 -0.2266
 1358TIP3    H225634   0.652   0.847   0.459  2.0743  0.8461 -0.4059
 1359TIP3   OH225635   3.170   1.769   7.250  0.2459  0.4451 -0.4978
 1359TIP3    H125636   3.150   1.859   7.277  0.7002  0.3291  0.2505
 1359TIP3    H225637   3.257   1.775   7.210  0.5879  0.2270  0.1989
 1360TIP3   OH225638   4.177   6.852   0.417  0.4612 -0.4028  0.3100
 1360TIP3    H125639   4.168   6.943   0.389  1.7019 -0.4530 -0.2983
 1360TIP3    H225640   4.132   6.849   0.502 -0.6638  0.4696 -0.2301
 1361TIP3   OH225641   5.293   6.282   8.357  0.2100 -0.1948  0.3792
 1361TIP3    H125642   5.219   6.259   8.302  0.9634 -0.9194 -0.3622
 1361TIP3    H225643   5.305   6.206   8.414  0.1021  0.1112  0.8146
 1362TIP3   OH225644   5.899   3.051   0.063 -0.2915 -0.5447  0.0176
 1362TIP3    H125645   5.810   3.081   0.043  0.0678  1.7572  1.5697
 1362TIP3    H225646   5.946   3.059  -0.020 -1.6516 -2.6476 -1.0669
 1363TIP3   OH225647   2.083   1.072   0.372  0.3958 -1.1011  0.8779
 1363TIP3    H125648   2.090   1.119   0.455 -1.7728  0.3201  0.3346
 1363TIP3    H225649   2.128   1.129   0.309 -0.0284 -1.0016  0.6637
 1364TIP3   OH225650   2.224   4.502   8.384  0.0414 -0.7792 -0.3094
 1364TIP3    H125651   2.194   4.506   8.293 -0.9576 -0.5807  0.0096
 1364TIP3    H225652   2.318   4.515   8.379 -0.1081  0.0869 -1.2466
 1365TIP3   OH225653   2.694   0.865   7.366 -0.3536 -0.3370 -0.4138
 1365TIP3    H125654   2.717   0.955   7.342 -0.2424 -0.6896 -1.7125
 1365TIP3    H225655   2.639   0.834   7.294 -0.9957 -1.0796  0.3677
 1366TIP3   OH225656   0.609   4.205   7.092 -0.6882  0.0835 -0.1395
 1366TIP3    H125657   0.540   4.227   7.030 -1.2189 -0.7579  0.1326
 1366TIP3    H225658   0.601   4.110   7.104  0.2608  0.0313  0.2033
 1367TIP3   OH225659   4.981   1.131   1.550 -0.3848  0.4094  0.3253
 1367TIP3    H125660   5.075   1.143   1.559 -0.4947  0.9912  0.7576
 1367TIP3    H225661   4.970   1.040   1.525  0.1727 -0.2764  2.3733
 1368TIP3   OH225662   4.831   5.063   1.623  0.0876  0.4521  0.0072
 1368TIP3    H125663   4.861   5.130   1.684 -1.2125  0.9507  0.1215
 1368TIP3    H225664   4.813   4.987   1.679 -2.1077  1.2285  0.4609
 1369TIP3   OH225665   2.611   6.142   8.511 -0.3864 -0.7915 -0.6078
 1369TIP3    H125666   2.531   6.091   8.519  0.1443 -1.5439  0.0475
 1369TIP3    H225667   2.670   6.086   8.460 -0.8091  0.4348 -2.5600
 1370TIP3   OH225668   6.826   1.969   7.421 -0.1681  0.4229 -0.4628
 1370TIP3    H125669   6.776   2.047   7.446  0.0100  0.6855 -0.9225
 1370TIP3    H225670   6.916   2.001   7.412 -0.3142  0.4480 -1.9690
 1371TIP3   OH225671   3.895   2.682   7.883  0.2165 -0.6868 -0.2391
 1371TIP3    H125672   3.888   2.587   7.875 -2.9183 -0.5008 -0.7830
 1371TIP3    H225673   3.871   2.700   7.974 -2.7849 -0.2962 -0.9948
 1372TIP3   OH225674   6.662   6.080   0.823 -0.0586  0.6053 -0.3849
 1372TIP3    H125675   6.689   6.104   0.912 -0.2715  1.2040 -0.4743
 1372TIP3    H225676   6.592   6.142   0.802 -0.7898 -0.2705 -0.5417
 1373TIP3   OH225677   4.823   1.856   8.194  0.1697  0.1223 -0.3376
 1373TIP3    H125678   4.746   1.823   8.148 -0.3204  0.5080  0.1866
 1373TIP3    H225679   4.790   1.931   8.245  0.9975  0.6348 -0.5331
 1374TIP3   OH225680   2.533   5.314   8.223  0.2853 -0.3180  0.2672
 1374TIP3    H125681   2.595   5.330   8.152 -0.3940 -2.0067 -0.7504
 1374TIP3    H225682   2.517   5.220   8.221 -3.0027  0.1125 -0.1415
 1375TIP3   OH225683   6.567   0.827   2.647 -0.1955  0.0995  0.2003
 1375TIP3    H125684   6.515   0.895   2.690  0.1789 -0.5469  1.7384
 1375TIP3    H225685   6.658   0.853   2.664 -0.0497 -0.6032  0.5392
 1376TIP3   OH225686   4.931   5.283   0.369 -0.3529  0.1780 -0.1576
 1376TIP3    H125687   4.901   5.344   0.437  0.1300 -0.0809  0.2870
 1376TIP3    H225688   4.961   5.340   0.298 -2.6485  0.4697 -0.9830
 1377TIP3   OH225689   1.345   5.128   2.282  0.1724  0.4148 -0.5539
 1377TIP3    H125690   1.261   5.161   2.249  0.5323  1.4106 -0.5129
 1377TIP3    H225691   1.359   5.046   2.234 -1.0068  0.0184 -0.2682
 1378TIP3   OH225692   5.229   1.738   8.015  0.3417 -0.3995 -0.4534
 1378TIP3    H125693   5.174   1.703   8.085  0.3236 -1.5990 -1.0529
 1378TIP3    H225694   5.316   1.746   8.053  0.1194 -0.0713 -0.0013
 1379TIP3   OH225695   2.791   0.120   2.267  0.4363  0.3462 -0.0917
 1379TIP3    H125696   2.754   0.059   2.331  1.9632  1.4116  1.9358
 1379TIP3    H225697   2.838   0.065   2.205  1.5654 -0.6198  1.5421
 1380TIP3   OH225698   1.083   1.506   1.436 -0.1914  0.5781  0.2727
 1380TIP3    H125699   1.085   1.482   1.343 -0.0424  1.3504  0.0697
 1380TIP3    H225700   1.020   1.577   1.441 -0.3235  0.4237  0.7964
 1381TIP3   OH225701   3.096   3.566   8.365  0.0570  0.2906  0.0765
 1381TIP3    H125702   3.117   3.476   8.389  0.4298  0.9865  2.5782
 1381TIP3    H225703   3.173   3.598   8.318  1.7524  0.5621  2.8694
 1382TIP3   OH225704   2.144   2.008   2.364  0.4089  0.1562 -0.3450
 1382TIP3    H125705   2.122   2.077   2.426  1.1950  0.4360 -0.3604
 1382TIP3    H225706   2.061   1.966   2.343  0.1352 -0.0249  0.9933
 1383TIP3   OH225707   5.120   2.425   2.871 -0.2204  0.1099 -0.1689
 1383TIP3    H125708   5.056   2.496   2.865  0.9353  1.4985  2.4448
 1383TIP3    H225709   5.067   2.347   2.885 -1.4409  1.2000  1.7563
 1384TIP3   OH225710   3.539   6.593   2.014 -0.2299  0.2643 -0.3321
 1384TIP3    H125711   3.519   6.520   2.073  1.2007 -0.5390 -0.8045
 1384TIP3    H225712   3.607   6.642   2.060 -0.3150  0.6059 -0.5708
 1385TIP3   OH225713   4.703   3.949   1.592 -0.3084  0.5044  0.6079
 1385TIP3    H125714   4.769   4.014   1.615  0.6355 -0.0238 -0.4687
 1385TIP3    H225715   4.643   3.948   1.666  0.6106  1.3703  1.3964
 1386TIP3   OH225716   2.016   5.595   0.840 -0.1748  0.3082  0.1034
 1386TIP3    H125717   2.070   5.620   0.916  0.5615  1.6265 -0.8093
 1386TIP3    H225718   1.969   5.675   0.817  0.0352  0.0878 -1.1578
 1387TIP3   OH225719   2.291   6.121   7.932  0.1245  0.4077  0.7130
 1387TIP3    H125720   2.312   6.073   7.852  0.3729 -0.4307  1.2665
 1387TIP3    H225721   2.263   6.208   7.902 -0.2734 -0.0619 -0.3025
 1388TIP3   OH225722   4.746   2.895   0.238 -0.6538  0.4819  0.4138
 1388TIP3    H125723   4.755   2.940   0.154 -0.4411 -1.3626 -0.6090
 1388TIP3    H225724   4.658   2.918   0.268 -0.7572  1.1257 -0.3265
 1389TIP3   OH225725   0.484   4.279   1.640 -0.4637  0.3382 -0.1724
 1389TIP3    H125726   0.554   4.276   1.706 -0.6604  0.0581  0.0227
 1389TIP3    H225727   0.459   4.372   1.635 -0.0416  0.4505 -0.2849
 1390TIP3   OH225728   5.920   1.947   0.870 -0.2081  0.5449  0.5366
 1390TIP3    H125729   5.984   2.013   0.898 -2.8858  3.0869  1.0714
 1390TIP3    H225730   5.927   1.947   0.774  0.3547  1.0474  0.5716
 1391TIP3   OH225731   3.980   4.781   1.448 -0.0071 -0.1914  0.3368
 1391TIP3    H125732   4.073   4.803   1.449 -0.4551  1.9316 -0.3864
 1391TIP3    H225733   3.947   4.814   1.532 -0.5004  1.0820 -0.3341
 1392TIP3   OH225734   3.773   4.658   8.129 -0.4810 -0.6195 -0.2439
 1392TIP3    H125735   3.740   4.745   8.151  0.6148 -0.2642  0.0798
 1392TIP3    H225736   3.789   4.662   8.035  1.4269  0.2174  0.0767
 1393TIP3   OH225737   3.690   6.458   7.111 -0.0927 -0.4936 -0.7156
 1393TIP3    H125738   3.601   6.422   7.112  0.3181 -1.6800 -2.1244
 1393TIP3    H225739   3.743   6.392   7.155 -0.0292  0.6645  1.0031
 1394TIP3   OH225740   4.405   0.714   2.701  0.0234  0.1013  0.1859
 1394TIP3    H125741   4.457   0.795   2.708 -0.8954  0.7239 -0.0131
 1394TIP3    H225742   4.402   0.680   2.790  0.7599  0.0601  0.2022
 1395TIP3   OH225743   2.785   2.597   1.351 -0.2089 -0.4808  0.2616
 1395TIP3    H125744   2.764   2.572   1.440  1.2669 -1.6430  0.3236
 1395TIP3    H225745   2.851   2.666   1.360  0.5332 -1.1536  0.0885
 1396TIP3   OH225746   6.590   4.808   7.456  0.0506 -0.0521 -0.4226
 1396TIP3    H125747   6.684   4.796   7.438 -0.1453 -0.1123 -1.4508
 1396TIP3    H225748   6.559   4.720   7.477  0.5794  0.2321  1.8314
 1397TIP3   OH225749   3.132   3.450   7.707 -0.4195  0.1471 -0.1700
 1397TIP3    H125750   3.184   3.443   7.787  0.3995  0.3872 -0.6602
 1397TIP3    H225751   3.135   3.543   7.685 -1.0476  0.1584 -0.2167
 1398TIP3   OH225752   0.108   5.580   7.487 -0.2183  0.4287 -0.1027
 1398TIP3    H125753   0.135   5.656   7.436  0.5026  0.1987 -0.0892
 1398TIP3    H225754   0.166   5.510   7.456  1.6493  0.7419  2.4200
 1399TIP3   OH225755   6.695   2.119   0.679 -0.2310  0.0676  0.4335
 1399TIP3    H125756   6.769   2.133   0.620 -0.1126  0.0327  0.5746
 1399TIP3    H225757   6.691   2.025   0.692 -0.4235  0.0520  0.2674
 1400TIP3   OH225758   4.869   1.848   7.886  0.5883  0.0550 -0.1036
 1400TIP3    H125759   4.822   1.776   7.843  0.3344  0.2940 -0.2262
 1400TIP3    H225760   4.904   1.808   7.966 -1.9102  0.4389  1.2849
 1401TIP3   OH225761   1.236   1.962   7.089 -0.1621  0.3118  0.0097
 1401TIP3    H125762   1.240   1.887   7.149 -1.0957  1.4354  1.5488
 1401TIP3    H225763   1.328   1.982   7.070  0.0918 -1.6328 -1.0124
 1402TIP3   OH225764   1.533   2.856   8.099 -0.2447 -0.3787 -0.2483
 1402TIP3    H125765   1.624   2.886   8.107 -0.9674  1.8514  0.5161
 1402TIP3    H225766   1.513   2.863   8.006  0.2005 -0.3518 -0.3447
 1403TIP3   OH225767   0.135   3.467   8.478  0.1678  0.3559  0.1238
 1403TIP3    H125768   0.168   3.384   8.511  1.5873  0.4676 -0.8674
 1403TIP3    H225769   0.212   3.508   8.437 -1.2835  0.4354 -2.8068
 1404TIP3   OH225770   6.431   4.481   1.751  0.4072 -0.1380  0.1891
 1404TIP3    H125771   6.425   4.522   1.837 -0.6670  0.4854 -0.1558
 1404TIP3    H225772   6.525   4.476   1.733  0.7458 -1.9274  2.1200
 1405TIP3   OH225773   4.242   1.600   2.041 -0.2262  0.3407  0.4668
 1405TIP3    H125774   4.192   1.520   2.060 -0.2634  0.2215 -0.1057
 1405TIP3    H225775   4.178   1.659   2.001  0.1088  0.1405 -0.3873
 1406TIP3   OH225776   1.617   1.808   0.990 -0.6891 -0.0452  0.4835
 1406TIP3    H125777   1.558   1.856   0.933 -0.5015  0.5085  0.7506
 1406TIP3    H225778   1.578   1.721   0.997 -0.4492 -0.2857 -0.8895
 1407TIP3   OH225779   6.850   1.141   7.978  0.1887 -0.7581 -0.1073
 1407TIP3    H125780   6.803   1.207   8.029  1.8459  0.7644 -0.4684
 1407TIP3    H225781   6.920   1.189   7.934  0.6874 -2.5567 -1.3939
 1408TIP3   OH225782   4.696   3.088   6.584 -0.1835  0.4241 -0.2628
 1408TIP3    H125783   4.665   3.002   6.615  0.7774  0.4815  0.9566
 1408TIP3    H225784   4.768   3.067   6.524 -0.3097  0.3670 -0.3945
 1409TIP3   OH225785   6.215   6.555   7.996 -0.3291  0.2889  0.4998
 1409TIP3    H125786   6.199   6.521   8.084 -3.0263 -2.3999 -0.8764
 1409TIP3    H225787   6.128   6.576   7.962  0.6807  1.7171 -1.4358
 1410TIP3   OH225788   6.725   1.490   0.771 -0.8138 -0.2655  0.1192
 1410TIP3    H125789   6.716   1.468   0.678  0.6015 -2.8649  0.5029
 1410TIP3    H225790   6.654   1.441   0.813 -1.6541  1.1629  0.4356
 1411TIP3   OH225791   2.794   6.688   7.528  0.1323  0.5684 -0.4110
 1411TIP3    H125792   2.704   6.660   7.511  0.0846  0.7640 -0.4759
 1411TIP3    H225793   2.840   6.673   7.445 -0.0119  1.1633 -0.6045
 1412TIP3   OH225794   3.140   0.415   1.835  0.4618 -0.6274 -0.1219
 1412TIP3    H125795   3.079   0.468   1.783  1.8671  2.4662  1.1110
 1412TIP3    H225796   3.197   0.374   1.770  0.7047  1.2458 -1.1621
 1413TIP3   OH225797   4.662   1.182   8.075  0.5686  0.2394  0.0803
 1413TIP3    H125798   4.728   1.113   8.069 -0.1870 -0.4919 -0.1601
 1413TIP3    H225799   4.650   1.197   8.169 -0.2516 -0.9636  0.1884
 1414TIP3   OH225800   5.087   2.859   1.020  0.4310  0.0171  0.4541
 1414TIP3    H125801   5.011   2.907   1.051  1.8930  0.6776  3.2965
 1414TIP3    H225802   5.157   2.924   1.013  1.7230 -1.1374  1.7105
 1415TIP3   OH225803   6.218   1.428   1.039  0.6219 -0.5784  0.3466
 1415TIP3    H125804   6.212   1.435   1.134  1.3092 -1.0000  0.4319
 1415TIP3    H225805   6.199   1.336   1.020  1.6113 -0.7673  0.1930
 1416TIP3   OH225806   0.131   1.252   2.018  0.4807  0.6162 -0.7048
 1416TIP3    H125807   0.093   1.180   2.069 -2.5282  1.5948 -1.3687
 1416TIP3    H225808   0.189   1.209   1.955 -0.4279 -1.1391 -0.4053
 1417TIP3   OH225809   3.345   2.827   8.158 -0.1413  0.1748  0.2227
 1417TIP3    H125810   3.370   2.917   8.138 -1.4839  0.4995 -0.0994
 1417TIP3    H225811   3.302   2.832   8.243 -1.9845  0.2024 -0.6627
 1418TIP3   OH225812   5.160   6.571   2.872 -0.2453  0.1065 -0.3333
 1418TIP3    H125813   5.249   6.538   2.868 -0.2035  0.3342 -2.5888
 1418TIP3    H225814   5.163   6.654   2.826 -1.5450  0.3205 -0.0702
 1419TIP3   OH225815   1.719   3.925   1.109  0.4594  0.0534  0.1862
 1419TIP3    H125816   1.729   3.870   1.031  1.2695 -0.5370  0.6919
 1419TIP3    H225817   1.793   3.900   1.165  0.1431  0.7985  0.9447
 1420TIP3   OH225818   6.124   5.569   1.830  0.2744  0.7687 -0.0949
 1420TIP3    H125819   6.092   5.502   1.769 -0.0919  0.0027  0.8974
 1420TIP3    H225820   6.168   5.633   1.775 -1.0299  0.6983 -1.2907
 1421TIP3   OH225821   6.165   1.582   0.823 -0.4797  0.8049  0.6618
 1421TIP3    H125822   6.196   1.518   0.888  0.0918 -0.2050 -0.5538
 1421TIP3    H225823   6.084   1.544   0.790  0.0337  0.5324 -0.3049
 1422TIP3   OH225824   6.211   1.902   2.059  0.2423  0.0746  0.2334
 1422TIP3    H125825   6.277   1.834   2.049  0.6345  0.4318  0.3534
 1422TIP3    H225826   6.218   1.954   1.979 -0.2544 -0.1929  0.0132
 1423TIP3   OH225827   4.097   4.445   2.135  0.1356 -0.2404  0.2242
 1423TIP3    H125828   4.108   4.371   2.075  0.3579  0.2614 -0.3631
 1423TIP3    H225829   4.074   4.519   2.079 -1.5318 -0.1563  0.9342
 1424TIP3   OH225830   1.009   0.366   7.524  0.6150  0.2291  0.3025
 1424TIP3    H125831   1.006   0.334   7.434  2.0182 -0.0342  0.3327
 1424TIP3    H225832   0.923   0.342   7.561  0.2045 -0.0736 -0.8147
 1425TIP3   OH225833   3.283   1.855   7.644 -0.2862  0.8018  0.0232
 1425TIP3    H125834   3.307   1.807   7.723  2.5857 -0.2327 -1.3475
 1425TIP3    H225835   3.231   1.792   7.593  0.6311  0.2928 -0.3037
 1426TIP3   OH225836   4.571   3.757   8.604  0.3902  0.2353  0.3845
 1426TIP3    H125837   4.537   3.754   8.514  0.8462 -0.3492  0.2276
 1426TIP3    H225838   4.666   3.760   8.593  0.4228  2.5975  0.7989
 1427TIP3   OH225839   5.539   6.743   1.609 -0.0832 -0.2573 -0.0771
 1427TIP3    H125840   5.471   6.807   1.629 -1.4888 -1.2468 -1.4723
 1427TIP3    H225841   5.530   6.726   1.516  2.9433  0.4951 -0.6223
 1428TIP3   OH225842   6.618   5.733   0.842  0.4715  0.0135  0.0576
 1428TIP3    H125843   6.576   5.653   0.809 -0.4251  1.3424 -2.2042
 1428TIP3    H225844   6.567   5.756   0.920 -0.3540 -0.6643 -0.2617
 1429TIP3   OH225845   0.516   4.724   1.352  0.5509 -0.4993  0.6263
 1429TIP3    H125846   0.566   4.731   1.433  1.7412 -0.0160 -0.1328
 1429TIP3    H225847   0.536   4.636   1.319  0.0368 -0.7103  0.8671
 1430TIP3   OH225848   0.180   4.882   0.771  0.4715 -0.2857  0.0555
 1430TIP3    H125849   0.209   4.836   0.693  1.3687 -0.4493  0.4832
 1430TIP3    H225850   0.243   4.859   0.838 -0.3594 -0.2402  0.8735
 1431TIP3   OH225851   0.957   4.160   1.204  0.3326  0.4449 -0.0106
 1431TIP3    H125852   1.010   4.081   1.203  1.6938  1.3347 -0.8680
 1431TIP3    H225853   0.866   4.128   1.205  0.8448 -1.1120 -0.4946
 1432TIP3   OH225854   4.188   1.183   2.308 -0.1152 -0.1871 -0.0062
 1432TIP3    H125855   4.192   1.088   2.304  0.7937 -0.1807  0.5649
 1432TIP3    H225856   4.126   1.202   2.378  0.4790 -0.3696  0.5758
 1433TIP3   OH225857   1.058   1.105   1.199 -0.2889 -0.4147 -0.4441
 1433TIP3    H125858   0.981   1.141   1.154 -0.3071 -1.4545 -1.3041
 1433TIP3    H225859   1.085   1.031   1.143  1.4040  0.0037 -0.2311
 1434TIP3   OH225860   5.295   4.431   1.721 -0.0964 -0.2698 -0.5392
 1434TIP3    H125861   5.300   4.360   1.657  0.3280  0.3075 -1.1658
 1434TIP3    H225862   5.274   4.387   1.804 -2.3593 -0.8688 -1.3515
 1435TIP3   OH225863   2.955   3.543   0.217 -0.7706 -0.1524  0.0187
 1435TIP3    H125864   3.018   3.508   0.154 -0.3885 -0.1546  0.3926
 1435TIP3    H225865   2.879   3.568   0.165  0.4214  2.0915 -0.7817
 1436TIP3   OH225866   5.042   6.880   2.076 -0.7512 -0.0443 -0.6785
 1436TIP3    H125867   5.100   6.877   2.000  1.2165 -0.6149  0.7471
 1436TIP3    H225868   5.020   6.973   2.085  0.6120  0.3260 -0.8358
 1437TIP3   OH225869   1.273   2.791   1.352  0.0693  0.5616  0.1404
 1437TIP3    H125870   1.315   2.815   1.269 -0.4835 -1.0421 -0.6396
 1437TIP3    H225871   1.213   2.720   1.329  0.5851 -0.5662  2.0702
 1438TIP3   OH225872   4.263   6.636   1.468  0.9028  0.2048 -0.0951
 1438TIP3    H125873   4.343   6.679   1.439  0.6654 -0.0502 -1.2169
 1438TIP3    H225874   4.215   6.619   1.386 -0.4456  0.6612  0.5737
 1439TIP3   OH225875   1.147   2.768   2.291 -0.3052  0.2430 -0.2629
 1439TIP3    H125876   1.094   2.846   2.307 -0.1790  0.2491  0.1328
 1439TIP3    H225877   1.111   2.702   2.350 -0.8295 -0.1934 -1.0530
 1440TIP3   OH225878   5.931   2.561   8.415 -0.0834  0.0393 -0.2700
 1440TIP3    H125879   5.873   2.485   8.409 -1.3104  0.9477 -0.3003
 1440TIP3    H225880   5.980   2.547   8.496 -0.4655 -0.6758 -0.1581
 1441TIP3   OH225881   2.626   3.586   2.183 -0.2214 -0.1589 -0.2377
 1441TIP3    H125882   2.546   3.565   2.232 -0.9544  1.6582 -0.5640
 1441TIP3    H225883   2.696   3.541   2.231 -1.4246 -1.8715  0.0106
 1442TIP3   OH225884   6.437   3.883   7.637 -0.6216 -0.2537 -0.3996
 1442TIP3    H125885   6.493   3.947   7.592 -1.7598  1.2368  0.2288
 1442TIP3    H225886   6.394   3.933   7.706 -1.0413 -1.8746  0.5530
 1443TIP3   OH225887   2.727   2.612   2.431 -0.1868 -0.5619 -0.6126
 1443TIP3    H125888   2.684   2.623   2.516  0.2188 -1.6495 -0.2374
 1443TIP3    H225889   2.784   2.535   2.443 -2.0696 -2.4139 -2.5985
 1444TIP3   OH225890   4.917   1.114   2.625  0.4556  0.2958 -0.3321
 1444TIP3    H125891   4.964   1.182   2.577 -0.2941  0.4817 -0.8335
 1444TIP3    H225892   4.884   1.055   2.558  0.9967 -0.5153  0.0923
 1445TIP3   OH225893   5.795   5.938   7.740 -0.1286 -0.8182  0.7555
 1445TIP3    H125894   5.800   5.973   7.651  0.3925 -1.3957  0.5546
 1445TIP3    H225895   5.720   5.983   7.779 -0.7188 -0.9831 -0.1629
 1446TIP3   OH225896   1.018   5.409   7.107 -0.1338 -0.3178  0.7282
 1446TIP3    H125897   1.043   5.498   7.131 -0.2532  0.0383 -0.3774
 1446TIP3    H225898   1.085   5.381   7.045  0.8401 -1.6512  2.3067
 1447TIP3   OH225899   0.877   6.221   7.670 -0.3719 -0.4862 -0.1210
 1447TIP3    H125900   0.812   6.207   7.738  0.6327 -1.2744  0.7080
 1447TIP3    H225901   0.948   6.268   7.714  0.6494 -1.7267 -0.3998
 1448TIP3   OH225902   4.903   5.714   8.455 -0.1226  0.1219 -0.1712
 1448TIP3    H125903   4.853   5.785   8.415  0.4358 -0.2288 -1.5403
 1448TIP3    H225904   4.972   5.759   8.504 -1.2672  0.5768  1.0743
 1449TIP3   OH225905   5.495   0.706   2.227  0.7895  0.1274 -0.2885
 1449TIP3    H125906   5.406   0.741   2.225  1.3298  1.6436  0.6810
 1449TIP3    H225907   5.511   0.675   2.138 -1.5814 -2.5534  0.0786
 1450TIP3   OH225908   1.866   3.303   0.674 -0.2664  0.5978  0.2278
 1450TIP3    H125909   1.840   3.383   0.719  1.0064  1.0278  0.2529
 1450TIP3    H225910   1.895   3.244   0.744 -2.2290 -0.3350  0.3151
 1451TIP3   OH225911   3.884   0.028   1.372  0.0670  0.1534 -0.1521
 1451TIP3    H125912   3.948   0.011   1.441 -1.3696  0.9549  1.4574
 1451TIP3    H225913   3.832  -0.052   1.367 -0.4213  0.4391  0.3591
 1452TIP3   OH225914   5.391   6.841   0.801  0.0902 -0.2066  0.2982
 1452TIP3    H125915   5.297   6.833   0.785  0.1241  1.0381 -0.7400
 1452TIP3    H225916   5.425   6.752   0.792 -0.7022 -0.3857 -1.5167
 1453TIP3   OH225917   5.312   4.935   7.609  0.1458 -0.0384 -0.1482
 1453TIP3    H125918   5.226   4.966   7.581 -0.4400  1.5674  2.8910
 1453TIP3    H225919   5.372   5.006   7.585  0.1548  0.0032 -0.0064
 1454TIP3   OH225920   4.305   3.870   7.087  0.2015 -0.3356 -0.3494
 1454TIP3    H125921   4.299   3.824   7.003  1.0312  0.2697 -0.7547
 1454TIP3    H225922   4.320   3.962   7.063  1.9234 -0.3747  0.4430
 1455TIP3   OH225923   0.221   0.533   1.592  0.3916  0.5847 -0.5529
 1455TIP3    H125924   0.255   0.587   1.663  0.2845 -1.5014  1.1518
 1455TIP3    H225925   0.133   0.569   1.575 -0.8123 -0.6047  2.4375
 1456TIP3   OH225926   0.900   5.053   0.864  0.0659  0.2615  0.8603
 1456TIP3    H125927   0.928   4.983   0.922 -0.3944  0.4227  1.2872
 1456TIP3    H225928   0.805   5.044   0.860  0.1902 -0.7707 -1.1885
 1457TIP3   OH225929   1.500   6.532   1.399  0.2838  0.3132 -0.3893
 1457TIP3    H125930   1.472   6.483   1.476  2.1800  2.0253  1.5138
 1457TIP3    H225931   1.421   6.536   1.344 -0.9514 -1.5540  1.0901
 1458TIP3   OH225932   3.258   6.758   1.317  0.4377  0.6671 -0.0622
 1458TIP3    H125933   3.182   6.809   1.288  1.4557  2.4039  0.1352
 1458TIP3    H225934   3.277   6.791   1.405  1.1471 -0.0487  0.0650
 1459TIP3   OH225935   1.486   5.459   0.289  0.5218  0.2642  0.9930
 1459TIP3    H125936   1.411   5.502   0.329 -0.0218  1.7666 -1.4486
 1459TIP3    H225937   1.448   5.388   0.237  0.9116  0.1831  0.8159
 1460TIP3   OH225938   4.262   6.124   0.979  0.4002  0.4998  0.5811
 1460TIP3    H125939   4.225   6.038   0.959  0.7516  0.6956 -1.0500
 1460TIP3    H225940   4.186   6.182   0.985  0.2374  0.2874  0.5746
 1461TIP3   OH225941   1.538   2.705   6.863 -0.3956 -0.2130 -0.0163
 1461TIP3    H125942   1.521   2.788   6.907 -0.1042  0.2609 -0.7851
 1461TIP3    H225943   1.459   2.686   6.814  0.6892  1.3532 -2.5696
 1462TIP3   OH225944   1.476   2.136   3.165  0.5043 -0.5842 -0.4297
 1462TIP3    H125945   1.525   2.054   3.171 -1.4268 -1.6840  1.4647
 1462TIP3    H225946   1.388   2.110   3.138 -0.3475  0.7630  0.8760
 1463TIP3   OH225947   6.788   3.152   0.520  0.0696  0.2487  0.2480
 1463TIP3    H125948   6.815   3.162   0.429  0.2399  0.0513  0.2748
 1463TIP3    H225949   6.833   3.222   0.567 -1.2668  1.3520 -0.0656
 1464TIP3   OH225950   5.965   5.434   7.887  0.4445  0.3090  0.0305
 1464TIP3    H125951   5.928   5.521   7.873 -0.4296  0.0933  0.9250
 1464TIP3    H225952   5.907   5.375   7.838  2.1350  0.3802 -2.2130
 1465TIP3   OH225953   3.047   3.169   2.902 -0.3688  0.0306  0.2214
 1465TIP3    H125954   3.041   3.194   2.995  1.7785  0.2565  0.3537
 1465TIP3    H225955   3.134   3.129   2.894 -0.4530  0.1661 -1.7475
 1466TIP3   OH225956   1.212   0.428   1.588  0.0617 -0.1238 -0.5166
 1466TIP3    H125957   1.200   0.334   1.595 -0.0124 -0.0539  0.4096
 1466TIP3    H225958   1.166   0.464   1.665 -1.0157  0.7533 -1.5267
 1467TIP3   OH225959   4.094   0.327   2.129 -0.1388  0.3480 -0.3029
 1467TIP3    H125960   4.018   0.386   2.126 -0.2865  0.1983 -3.7858
 1467TIP3    H225961   4.067   0.257   2.188 -1.9846  1.2377 -0.0081
 1468TIP3   OH225962   5.836   3.778   1.888  0.1587 -0.3345 -0.8350
 1468TIP3    H125963   5.826   3.697   1.939  2.0162  0.6929  1.3974
 1468TIP3    H225964   5.911   3.761   1.831  0.4686 -0.2821 -0.4564
 1469TIP3   OH225965   2.686   4.416   1.534  0.6431  0.0660 -0.4802
 1469TIP3    H125966   2.681   4.325   1.504  0.8255  0.0150 -0.3593
 1469TIP3    H225967   2.779   4.435   1.538  0.5955  0.4592 -1.0908
 1470TIP3   OH225968   0.213   2.914   8.064  0.0608 -0.4323 -0.3018
 1470TIP3    H125969   0.146   2.857   8.026 -0.8632  0.3446  0.1013
 1470TIP3    H225970   0.200   2.906   8.159  0.4032 -0.1238 -0.2269
 1471TIP3   OH225971   3.166   2.900   7.932  0.0505  0.0830  0.0283
 1471TIP3    H125972   3.192   2.855   8.013  1.5126  1.9568  0.6838
 1471TIP3    H225973   3.073   2.880   7.923  0.2870 -1.8095  1.0615
 1472TIP3   OH225974   1.070   5.952   1.911  0.1860 -0.1153  0.5020
 1472TIP3    H125975   1.056   5.860   1.936 -0.0526 -0.2635 -0.1634
 1472TIP3    H225976   1.052   6.001   1.991 -0.1378 -0.6166  0.7421
 1473TIP3   OH225977   6.726   3.359   7.125 -0.2487 -0.3913  0.6369
 1473TIP3    H125978   6.660   3.411   7.079 -0.0679  0.4192  1.2725
 1473TIP3    H225979   6.785   3.328   7.056  0.6053  1.6350  0.3851
 1474TIP3   OH225980   1.754   4.804   8.485 -0.0087  0.5857  0.0925
 1474TIP3    H125981   1.810   4.728   8.499 -0.5066  0.0848 -0.5348
 1474TIP3    H225982   1.809   4.880   8.505  0.2701  0.0415  1.4472
 1475TIP3   OH225983   1.277   2.890   0.250 -0.1176  0.2629  0.1597
 1475TIP3    H125984   1.345   2.888   0.183  1.9819  0.2182  2.1635
 1475TIP3    H225985   1.251   2.798   0.262 -0.4796  0.2698 -0.5359
 1476TIP3   OH225986   5.454   4.364   8.209 -0.0015 -0.8466  0.5950
 1476TIP3    H125987   5.480   4.421   8.137 -1.2118 -2.2186 -1.0042
 1476TIP3    H225988   5.418   4.425   8.275  1.9168  0.5077  0.4663
 1477TIP3   OH225989   6.506   3.970   1.006 -0.2002 -0.0608  0.0469
 1477TIP3    H125990   6.499   4.017   0.922  0.2287 -0.1942 -0.0699
 1477TIP3    H225991   6.434   3.908   1.005 -0.1874 -0.0733 -0.2369
 1478TIP3   OH225992   4.052   4.665   8.173  0.0593 -0.0810  0.2237
 1478TIP3    H125993   4.081   4.641   8.262  1.1472  0.5972  0.0787
 1478TIP3    H225994   3.960   4.641   8.170 -0.2659  0.7860  1.8828
 1479TIP3   OH225995   3.060   6.804   1.605  0.4646 -0.1618  0.2446
 1479TIP3    H125996   3.055   6.727   1.661  1.1539 -1.3329 -1.2533
 1479TIP3    H225997   3.153   6.815   1.586  0.2226 -0.0114 -0.9464
 1480TIP3   OH225998   1.041   2.453   1.527  0.6968  0.4671  0.0039
 1480TIP3    H125999   1.060   2.505   1.606 -0.9179  2.0679 -0.5839
 1480TIP3    H226000   0.989   2.380   1.560  1.5735  0.1158  0.6439
 1481TIP3   OH226001   5.167   3.242   1.860 -0.0246 -0.1140 -0.3402
 1481TIP3    H126002   5.136   3.153   1.873  0.1963 -0.4068 -1.6844
 1481TIP3    H226003   5.093   3.288   1.819  0.0581  0.1606 -0.1846
 1482TIP3   OH226004   3.411   2.165   1.975 -0.6953 -0.1032  0.0042
 1482TIP3    H126005   3.495   2.175   1.929 -0.4415 -2.5624 -0.2141
 1482TIP3    H226006   3.398   2.249   2.019  1.5425  0.5972 -0.5097
 1483TIP3   OH226007   3.395   3.354   8.440 -0.2760  0.0671 -0.2338
 1483TIP3    H126008   3.345   3.405   8.505  1.9236  0.2561  1.4434
 1483TIP3    H226009   3.479   3.400   8.433  0.5828 -1.5427 -1.1045
 1484TIP3   OH226010   2.302   4.798   0.681 -0.2073 -0.1262 -0.1464
 1484TIP3    H126011   2.362   4.723   0.680  0.9410  0.7477  0.8220
 1484TIP3    H226012   2.220   4.763   0.716  0.8904 -0.5604  2.1954
 1485TIP3   OH226013   4.355   6.782   2.305  0.0102 -0.3143 -0.4724
 1485TIP3    H126014   4.422   6.797   2.238  0.9569  3.0650  1.0310
 1485TIP3    H226015   4.380   6.699   2.346  1.1044 -0.9595 -2.3250
 1486TIP3   OH226016   3.420   0.143   1.186 -0.6927  0.3463  0.4817
 1486TIP3    H126017   3.486   0.095   1.236 -1.7113 -1.2443  0.3612
 1486TIP3    H226018   3.348   0.081   1.174 -0.9867  1.0448 -1.9854
 1487TIP3   OH226019   4.183   4.205   1.993 -0.3544 -0.3533 -0.0086
 1487TIP3    H126020   4.113   4.186   1.931 -1.3884 -1.0582  1.3223
 1487TIP3    H226021   4.206   4.119   2.029 -2.1040  0.3096  2.9893
 1488TIP3   OH226022   2.649   4.907   2.209 -0.6719  0.4188 -0.3757
 1488TIP3    H126023   2.717   4.973   2.196 -0.6583  0.5237  0.1921
 1488TIP3    H226024   2.589   4.947   2.272  0.0235 -0.5947  0.9821
 1489TIP3   OH226025   3.751   4.925   7.391  0.0648 -0.0873 -0.7032
 1489TIP3    H126026   3.733   4.994   7.455  0.7683  0.7940 -1.4392
 1489TIP3    H226027   3.742   4.844   7.441  1.8246  0.6130  0.8510
 1490TIP3   OH226028   4.239   2.917   8.552 -0.0228  0.0566  0.5162
 1490TIP3    H126029   4.186   2.978   8.603 -3.8870 -1.1131 -1.6936
 1490TIP3    H226030   4.201   2.831   8.570  1.3396 -0.9311 -1.0179
 1491TIP3   OH226031   3.639   2.246   1.427 -0.3614 -0.5713  0.7797
 1491TIP3    H126032   3.644   2.189   1.351 -0.7949 -2.0586  1.8223
 1491TIP3    H226033   3.586   2.197   1.490 -0.9936  1.1196  1.6096
 1492TIP3   OH226034   2.386   4.479   0.891  0.6092 -0.3049 -0.5221
 1492TIP3    H126035   2.342   4.410   0.842  1.6056 -1.0395 -0.3893
 1492TIP3    H226036   2.341   4.480   0.976  0.9156 -1.1365 -0.3440
 1493TIP3   OH226037   6.380   2.762   2.819  0.1091 -0.3748 -0.4860
 1493TIP3    H126038   6.443   2.745   2.889  0.9398  0.7837 -0.9225
 1493TIP3    H226039   6.310   2.699   2.835  1.4445 -1.8384 -0.0949
 1494TIP3   OH226040   3.242   2.182   0.399  0.1772  0.1129  0.0729
 1494TIP3    H126041   3.188   2.233   0.460  0.1524  0.2916 -0.0953
 1494TIP3    H226042   3.213   2.211   0.313 -1.4392 -1.8144 -0.0982
 1495TIP3   OH226043   0.541   1.657   8.281 -0.1445  0.6529 -0.1184
 1495TIP3    H126044   0.459   1.617   8.251 -0.9785  0.3245  2.3709
 1495TIP3    H226045   0.605   1.586   8.278 -0.8534 -0.0920  1.2664
 1496TIP3   OH226046   2.532   6.516   2.388  0.3124 -0.0493 -0.0971
 1496TIP3    H126047   2.514   6.438   2.439 -3.0819  1.3714  1.1511
 1496TIP3    H226048   2.620   6.502   2.353  0.5253 -3.5963  1.4594
 1497TIP3   OH226049   5.124   1.755   0.476 -0.1892 -0.0773 -0.3824
 1497TIP3    H126050   5.084   1.748   0.389  1.5131  0.4664 -1.2481
 1497TIP3    H226051   5.152   1.846   0.482  2.0738 -0.7234 -0.3745
 1498TIP3   OH226052   6.350   1.296   1.943 -0.4162 -0.4586  0.5884
 1498TIP3    H126053   6.322   1.268   1.856  0.0239  2.0974 -0.4789
 1498TIP3    H226054   6.392   1.219   1.981 -1.0336 -1.7877 -1.2487
 1499TIP3   OH226055   4.178   2.234   8.454  0.1752 -0.6048  0.1108
 1499TIP3    H126056   4.164   2.326   8.430  3.1848 -0.0266  0.2136
 1499TIP3    H226057   4.183   2.236   8.550 -1.9501 -1.3173  0.2949
 1500TIP3   OH226058   0.875   6.733   0.614 -0.1826 -0.2277 -0.1567
 1500TIP3    H126059   0.889   6.641   0.592  1.0040 -0.0123 -0.3393
 1500TIP3    H226060   0.818   6.731   0.691 -0.7280 -1.0867 -0.5646
 1501TIP3   OH226061   3.235   2.942   7.037  0.2063  0.4604 -0.2806
 1501TIP3    H126062   3.228   3.035   7.055  2.9590  1.0494 -1.7762
 1501TIP3    H226063   3.237   2.935   6.942  5.7156 -0.3430 -0.4371
 1502TIP3   OH226064   4.295   0.152   2.796 -0.6993  0.1546  0.3349
 1502TIP3    H126065   4.293   0.236   2.750 -0.9271  0.5262  1.0132
 1502TIP3    H226066   4.205   0.138   2.825 -0.4783  0.1138  1.0064
 1503TIP3   OH226067   0.411   1.170   0.547 -0.0140 -0.5698  0.5359
 1503TIP3    H126068   0.466   1.124   0.484  0.4378  0.2009  0.3672
 1503TIP3    H226069   0.323   1.134   0.532 -0.5597  1.6013 -2.6075
 1504TIP3   OH226070   5.557   5.369   0.218 -0.8201  0.1002  0.3839
 1504TIP3    H126071   5.581   5.276   0.208 -1.4015  0.0823 -1.0500
 1504TIP3    H226072   5.623   5.404   0.278  1.7589 -0.3720 -1.9920
 1505TIP3   OH226073   2.724   3.655   7.749 -0.0066  0.3936  0.0302
 1505TIP3    H126074   2.805   3.643   7.798 -0.7603  0.2595  1.2758
 1505TIP3    H226075   2.663   3.692   7.812 -1.2284 -0.4714 -0.6077
 1506TIP3   OH226076   4.259   2.872   2.802 -0.0208  0.3249  0.0188
 1506TIP3    H126077   4.346   2.840   2.827  0.4023  0.8240 -0.7587
 1506TIP3    H226078   4.258   2.963   2.834 -0.2961  0.2895  0.1116
 1507TIP3   OH226079   4.121   4.518   8.399  0.3864 -0.0696  0.1367
 1507TIP3    H126080   4.087   4.445   8.451  0.0147  0.3937  0.5501
 1507TIP3    H226081   4.126   4.591   8.461 -1.4675  0.9087 -0.8189
 1508TIP3   OH226082   3.667   0.333   7.982  0.4704  0.0616  0.2657
 1508TIP3    H126083   3.752   0.312   8.019  1.0769  1.3016 -0.3784
 1508TIP3    H226084   3.606   0.327   8.056  1.5217  1.7127  1.3244
 1509TIP3   OH226085   6.487   4.737   1.568  0.1736  0.0174 -0.5365
 1509TIP3    H126086   6.480   4.797   1.642  2.5788 -0.6157  0.3103
 1509TIP3    H226087   6.450   4.785   1.494 -0.0313  1.6437  0.5738
 1510TIP3   OH226088   3.614   3.945   1.889 -0.1500  0.0282  0.4332
 1510TIP3    H126089   3.701   3.924   1.854 -0.0985 -3.4980  2.2920
 1510TIP3    H226090   3.574   4.001   1.822  3.1590  1.0120 -0.8998
 1511TIP3   OH226091   3.077   1.961   0.755  0.3320  0.3170 -0.0235
 1511TIP3    H126092   3.060   2.047   0.794  1.2132  1.5091 -2.0861
 1511TIP3    H226093   2.990   1.922   0.743 -0.2938  1.9807 -1.2348
 1512TIP3   OH226094   4.021   2.784   1.853  0.2684 -0.1455  0.1225
 1512TIP3    H126095   4.025   2.796   1.948 -4.1289  2.2901  0.2494
 1512TIP3    H226096   3.996   2.692   1.842 -0.4200 -0.1472  1.4507
 1513TIP3   OH226097   5.250   3.020   7.298 -0.1582 -0.3824  0.5127
 1513TIP3    H126098   5.205   2.955   7.244  1.3435  0.6281 -2.1088
 1513TIP3    H226099   5.342   3.011   7.276  0.2928  1.4155  1.4343
 1514TIP3   OH226100   1.122   6.860   0.909 -0.1898 -0.0345 -0.1588
 1514TIP3    H126101   1.098   6.769   0.927 -0.6926 -0.0175 -0.7266
 1514TIP3    H226102   1.204   6.854   0.860  0.8026 -0.1057  1.4200
 1515TIP3   OH226103   1.386   4.059   1.508  0.1707 -0.7880  0.0852
 1515TIP3    H126104   1.445   4.066   1.583 -1.1728  0.7087  1.0675
 1515TIP3    H226105   1.414   4.129   1.449 -0.8872  0.2631  0.7886
 1516TIP3   OH226106   3.625   0.853   1.499 -0.0148  0.3063  0.3967
 1516TIP3    H126107   3.658   0.851   1.589  0.1951  2.9396  0.4593
 1516TIP3    H226108   3.530   0.851   1.509  0.0100  0.4075  0.6862
 1517TIP3   OH226109   0.904   4.430   8.109  0.3253  0.2511  0.2114
 1517TIP3    H126110   0.868   4.354   8.064 -0.3756  1.8107 -2.0622
 1517TIP3    H226111   0.871   4.423   8.199 -1.8132 -0.8238 -0.5772
 1518TIP3   OH226112   3.208   5.644   7.433  0.4837 -0.1777 -0.8098
 1518TIP3    H126113   3.115   5.636   7.413 -0.1828 -0.3062  2.0219
 1518TIP3    H226114   3.233   5.730   7.398 -0.8043  0.0741 -1.1475
 1519TIP3   OH226115   0.814   1.983   1.982 -0.4816  0.5631 -0.0808
 1519TIP3    H126116   0.797   1.936   1.901 -1.1081 -0.6154  0.7134
 1519TIP3    H226117   0.866   1.923   2.035  0.2499  1.4651  0.2567
 1520TIP3   OH226118   1.642   4.685   0.193 -0.6930  0.1452 -0.6309
 1520TIP3    H126119   1.684   4.727   0.118  1.0386 -1.0760 -0.3941
 1520TIP3    H226120   1.683   4.726   0.270 -0.7948 -0.2302 -0.3723
 1521TIP3   OH226121   6.378   4.876   1.333 -0.0116 -0.2892  0.0801
 1521TIP3    H126122   6.394   4.945   1.269  1.0370 -2.0923 -1.7109
 1521TIP3    H226123   6.391   4.795   1.285 -3.0681 -1.8523  1.5864
 1522TIP3   OH226124   3.276   4.085   0.634  0.4229 -0.0647  0.5015
 1522TIP3    H126125   3.230   4.052   0.710  0.3169  0.7077  0.7856
 1522TIP3    H226126   3.361   4.042   0.636  0.8336  0.7467  1.6809
 1523TIP3   OH226127   2.035   1.682   1.815 -0.5819 -0.5307 -0.1530
 1523TIP3    H126128   1.992   1.752   1.865 -1.7140 -0.7366 -0.8180
 1523TIP3    H226129   2.055   1.723   1.731  0.1611 -0.5625  0.0052
 1524TIP3   OH226130   2.722   0.131   0.332  0.0568 -0.7093 -0.0879
 1524TIP3    H126131   2.711   0.164   0.242  0.7909  0.8926  0.3707
 1524TIP3    H226132   2.632   0.118   0.364 -0.2102 -1.7107 -1.1725
 1525TIP3   OH226133   5.749   3.760   1.326 -0.1757  0.3144 -0.1889
 1525TIP3    H126134   5.729   3.842   1.372 -0.7775  0.2015 -0.2408
 1525TIP3    H226135   5.796   3.707   1.391 -0.0281  0.5928 -0.0655
 1526TIP3   OH226136   0.830   1.768   1.132 -0.0963  0.2094  0.3812
 1526TIP3    H126137   0.799   1.842   1.080  0.3399 -0.8185 -1.4416
 1526TIP3    H226138   0.923   1.759   1.109  0.6822  0.9214  2.8938
 1527TIP3   OH226139   1.598   3.690   7.206 -0.1960  0.0949  0.0757
 1527TIP3    H126140   1.612   3.620   7.142 -0.2826  0.2653 -0.1302
 1527TIP3    H226141   1.575   3.766   7.154 -1.0915  0.0301  0.3627
 1528TIP3   OH226142   1.176   6.607   8.078 -0.0154 -0.0467 -0.0302
 1528TIP3    H126143   1.086   6.590   8.051  0.4202 -0.9236 -1.0247
 1528TIP3    H226144   1.197   6.692   8.039  0.1212 -0.6222 -1.2628
 1529TIP3   OH226145   1.116   5.140   2.906  0.1162  0.0216 -0.7245
 1529TIP3    H126146   1.210   5.118   2.904 -0.1881 -2.0033  1.8739
 1529TIP3    H226147   1.106   5.195   2.983 -0.9963 -0.9545 -0.1419
 1530TIP3   OH226148   0.381   0.266   0.426 -0.1120  0.4934 -0.3316
 1530TIP3    H126149   0.462   0.218   0.444 -0.1051 -0.7236 -3.0591
 1530TIP3    H226150   0.355   0.302   0.511  2.7466  0.1290  0.8254
 1531TIP3   OH226151   1.660   5.046   1.952  0.1297 -0.2184  0.8343
 1531TIP3    H126152   1.588   5.109   1.960 -0.9670 -1.3579  0.2107
 1531TIP3    H226153   1.738   5.100   1.940 -1.0773  1.0502 -2.2690
 1532TIP3   OH226154   5.855   4.021   0.832 -0.0239  0.3093 -0.4186
 1532TIP3    H126155   5.877   3.930   0.852  1.2622  1.1412  2.4573
 1532TIP3    H226156   5.908   4.042   0.755  0.3669 -1.0994 -0.5620
 1533TIP3   OH226157   4.933   5.774   0.599  0.1786  0.4944  0.2757
 1533TIP3    H126158   4.848   5.808   0.568  0.5960  0.9870 -0.3609
 1533TIP3    H226159   4.963   5.840   0.661 -0.0782  0.1248  0.7997
 1534TIP3   OH226160   3.283   1.896   2.000  0.5466  0.4931  0.2127
 1534TIP3    H126161   3.297   1.990   1.992  1.7384  0.4249  1.1643
 1534TIP3    H226162   3.261   1.882   2.093  0.8472 -0.2014  0.1914
 1535TIP3   OH226163   3.905   1.013   2.263 -0.2588  0.1142  0.1208
 1535TIP3    H126164   3.983   0.958   2.270  0.1288  0.6279 -0.0887
 1535TIP3    H226165   3.905   1.064   2.344  0.0083  0.6025 -0.1796
 1536TIP3   OH226166   0.009   3.314   1.797  0.4136  0.1885  0.9439
 1536TIP3    H126167   0.083   3.253   1.802 -0.2643 -0.8447 -0.7488
 1536TIP3    H226168  -0.052   3.282   1.864  0.3128 -0.6865  0.4536
 1537TIP3   OH226169   3.456   6.479   0.775 -0.6771 -0.5519  0.4400
 1537TIP3    H126170   3.504   6.558   0.799 -3.0499  0.6429  1.6545
 1537TIP3    H226171   3.439   6.435   0.858 -0.2427 -1.8595 -0.1328
 1538TIP3   OH226172   6.509   1.179   8.205  0.0693  0.2578 -0.2597
 1538TIP3    H126173   6.423   1.172   8.246 -0.0981 -0.7672 -0.7347
 1538TIP3    H226174   6.489   1.186   8.111  0.5043 -0.3428 -0.4002
 1539TIP3   OH226175   3.361   2.425   7.967  0.1664 -0.3818 -0.5399
 1539TIP3    H126176   3.311   2.368   7.908 -0.1477 -0.9582  0.2707
 1539TIP3    H226177   3.348   2.513   7.931 -0.3645 -0.6759 -1.0926
 1540TIP3   OH226178   5.166   4.739   1.118  0.8995  0.2239 -0.2600
 1540TIP3    H126179   5.214   4.812   1.157  0.7865  0.5686 -0.7619
 1540TIP3    H226180   5.114   4.703   1.190  0.3346  1.1498 -0.1899
 1541TIP3   OH226181   3.042   3.168   3.172  0.1352  0.4848 -0.1011
 1541TIP3    H126182   3.073   3.091   3.124  0.3529  1.2800 -1.2868
 1541TIP3    H226183   2.984   3.133   3.239 -1.0795 -0.6275 -1.6552
 1542TIP3   OH226184   3.017   3.127   0.576  0.7092  0.2927  0.2993
 1542TIP3    H126185   2.985   3.205   0.531 -0.5852  0.5618  1.6024
 1542TIP3    H226186   3.112   3.138   0.579  0.6941  0.9382 -1.0821
 1543TIP3   OH226187   6.106   3.201   0.554 -0.0729 -0.0237 -0.0496
 1543TIP3    H126188   6.120   3.160   0.469 -1.4645  0.8035 -0.7027
 1543TIP3    H226189   6.027   3.254   0.543  0.4754  1.1596  1.3685
 1544TIP3   OH226190   5.669   6.704   8.524  0.0631  0.2511  0.0440
 1544TIP3    H126191   5.746   6.744   8.565  0.0646 -0.3388  0.6293
 1544TIP3    H226192   5.617   6.779   8.494  0.5488  0.6681  0.2163
 1545TIP3   OH226193   4.775   5.924   8.325  0.2028 -0.3600  0.7090
 1545TIP3    H126194   4.771   6.018   8.310  1.4999 -0.6457 -1.9601
 1545TIP3    H226195   4.708   5.888   8.266  0.9954 -1.1901  0.2857
 1546TIP3   OH226196   1.200   3.084   7.278  0.1821 -0.3754 -0.5854
 1546TIP3    H126197   1.156   3.159   7.239 -0.1453  0.4968  1.3444
 1546TIP3    H226198   1.256   3.050   7.208 -1.3926  0.2226 -2.2211
 1547TIP3   OH226199   4.292   4.169   2.467 -0.1750 -0.9252  0.5021
 1547TIP3    H126200   4.254   4.187   2.553  0.2303  0.5601  0.4142
 1547TIP3    H226201   4.243   4.226   2.408  0.4896 -0.8794 -0.0098
 1548TIP3   OH226202   3.715   2.531   1.352 -0.3364 -0.0864  0.0874
 1548TIP3    H126203   3.653   2.486   1.409 -0.2379 -1.8201 -1.1051
 1548TIP3    H226204   3.673   2.531   1.266  0.8480 -0.3392 -0.5057
 1549TIP3   OH226205   4.919   2.714   8.344 -0.0843  0.3638 -0.1468
 1549TIP3    H126206   4.827   2.728   8.367 -0.1489 -0.9729  0.4944
 1549TIP3    H226207   4.937   2.780   8.278 -1.0772  1.6398  0.7945
 1550TIP3   OH226208   0.002   5.466   1.482 -0.3188  0.0721 -0.7461
 1550TIP3    H126209   0.026   5.397   1.420 -0.6145  0.2659 -1.0785
 1550TIP3    H226210  -0.086   5.493   1.456  0.2254  1.3730 -1.3385
 1551TIP3   OH226211   3.815   5.631   1.309  0.0253 -0.7968  0.9041
 1551TIP3    H126212   3.878   5.559   1.317  0.0341 -0.6976  1.8144
 1551TIP3    H226213   3.759   5.606   1.235 -0.0627 -1.8043  1.3055
 1552TIP3   OH226214   0.226   6.061   1.878  0.2827 -0.1714  0.5403
 1552TIP3    H126215   0.176   6.000   1.933  1.6867 -1.7996  0.0917
 1552TIP3    H226216   0.273   6.116   1.941  0.7816 -1.0801  0.9768
 1553TIP3   OH226217   2.234   5.588   7.722  0.6917  0.3617 -0.2640
 1553TIP3    H126218   2.142   5.577   7.699  0.9057 -0.3825 -0.7997
 1553TIP3    H226219   2.233   5.650   7.795 -0.2361  0.3295 -0.2361
 1554TIP3   OH226220   1.652   1.704   0.592  0.0504 -0.1522 -0.1321
 1554TIP3    H126221   1.597   1.696   0.514  0.8741  1.3926 -0.9118
 1554TIP3    H226222   1.631   1.791   0.627  0.6653 -0.2987  0.6258
 1555TIP3   OH226223   1.439   3.532   0.379 -0.0257 -0.0302 -0.0592
 1555TIP3    H126224   1.473   3.599   0.320  0.9319  0.9751  1.5711
 1555TIP3    H226225   1.513   3.475   0.396  0.4024  1.0489  1.9707
 1556TIP3   OH226226   4.717   4.798   0.297 -0.0132 -0.0210 -0.1455
 1556TIP3    H126227   4.714   4.816   0.391 -1.4705  0.7070 -0.3108
 1556TIP3    H226228   4.648   4.852   0.259  0.1257 -0.7763 -1.5684
 1557TIP3   OH226229   6.433   0.123   8.038  0.3543 -0.4076 -0.4039
 1557TIP3    H126230   6.517   0.122   7.993  0.8067  0.5834  0.3766
 1557TIP3    H226231   6.454   0.102   8.129 -0.5014 -2.0866 -0.5447
 1558TIP3   OH226232   6.108   0.182   2.056 -0.5661  0.1170  0.4574
 1558TIP3    H126233   6.139   0.256   2.004  0.8200  0.2650  1.4211
 1558TIP3    H226234   6.013   0.190   2.056 -0.5304  0.8531 -0.9358
 1559TIP3   OH226235   5.363   1.954   8.407  0.7896 -0.2410 -0.6565
 1559TIP3    H126236   5.355   1.964   8.502  0.2497 -1.8154 -0.4963
 1559TIP3    H226237   5.303   2.019   8.371 -2.2421 -2.2878  0.2407
 1560TIP3   OH226238   2.141   3.038   8.533 -0.2887  0.5251 -0.5997
 1560TIP3    H126239   2.047   3.020   8.529 -0.2512  0.3242 -0.6128
 1560TIP3    H226240   2.158   3.061   8.625 -0.3919  0.8018 -0.6490
 1561TIP3   OH226241   0.374   1.097   2.316 -0.2145  0.1118 -0.1032
 1561TIP3    H126242   0.330   1.032   2.370  0.6163  1.3393  2.1739
 1561TIP3    H226243   0.446   1.050   2.276 -0.8861 -0.8451 -0.2352
 1562TIP3   OH226244   1.856   1.598   2.094  0.6285 -0.2883 -0.0171
 1562TIP3    H126245   1.818   1.665   2.038  2.4580  0.4823 -0.4276
 1562TIP3    H226246   1.803   1.520   2.080 -3.1629  1.5859  2.3323
 1563TIP3   OH226247   5.906   1.935   0.599  0.1288  0.2865  0.3211
 1563TIP3    H126248   5.875   2.010   0.549  0.1444 -0.0384 -0.1848
 1563TIP3    H226249   5.860   1.860   0.560  0.8225 -0.0801  0.2003
 1564TIP3   OH226250   4.679   0.382   3.082 -0.6482 -0.2032 -0.4037
 1564TIP3    H126251   4.703   0.307   3.135 -1.1817 -0.8080 -0.9941
 1564TIP3    H226252   4.584   0.388   3.090 -0.5879  0.5421 -0.1889
 1565TIP3   OH226253   4.338   0.270   7.253 -0.2077  0.1845  0.6163
 1565TIP3    H126254   4.389   0.318   7.318 -2.7442  0.1104  2.8702
 1565TIP3    H226255   4.357   0.178   7.271  0.1371  0.1917  0.3011
 1566TIP3   OH226256   2.382   2.762   1.461 -0.2691  0.5926 -0.3616
 1566TIP3    H126257   2.289   2.769   1.479 -0.1316 -1.1641  1.3918
 1566TIP3    H226258   2.408   2.850   1.434 -2.0451  1.6284  1.0626
 1567TIP3   OH226259   6.375   6.346   2.544 -0.2105 -0.7003  0.5347
 1567TIP3    H126260   6.393   6.352   2.450 -0.2275  0.5658  0.5909
 1567TIP3    H226261   6.336   6.259   2.555  0.4640 -1.1604 -0.5067
 1568TIP3   OH226262   1.005   1.770   1.485  0.2749  0.0877 -0.2457
 1568TIP3    H126263   1.065   1.825   1.535  1.0968 -1.0690  0.0798
 1568TIP3    H226264   0.925   1.822   1.476  0.4400  0.6731  1.4676
 1569TIP3   OH226265   2.922   5.789   8.262  0.3564  0.3889  0.4163
 1569TIP3    H126266   2.917   5.717   8.325 -0.7834 -0.0195 -0.1142
 1569TIP3    H226267   2.973   5.754   8.189 -1.7431 -0.5690 -0.6674
 1570TIP3   OH226268   6.200   1.546   2.434  0.4829  0.0981  0.3025
 1570TIP3    H126269   6.149   1.621   2.465 -0.5273 -1.3362  2.3634
 1570TIP3    H226270   6.153   1.514   2.358 -0.5678  0.0182  0.9719
 1571TIP3   OH226271   4.941   6.644   2.145  0.6754  0.5728  0.5389
 1571TIP3    H126272   4.983   6.606   2.222  0.0537  0.0771  0.6391
 1571TIP3    H226273   4.954   6.738   2.155  0.3548  0.5374  1.3940
 1572TIP3   OH226274   1.953   2.565   0.869  0.0063 -0.2568  0.1092
 1572TIP3    H126275   1.915   2.502   0.809  0.8976 -0.0343 -0.7087
 1572TIP3    H226276   1.991   2.512   0.939  1.3564 -0.7035 -0.9144
 1573TIP3   OH226277   1.935   4.402   3.021 -0.6642  0.4037  0.9375
 1573TIP3    H126278   1.973   4.343   3.086 -0.5928  1.0327  1.4706
 1573TIP3    H226279   1.863   4.351   2.982 -0.1647 -0.2886  0.8862
 1574TIP3   OH226280   6.120   3.369   0.815 -0.4152  0.0433 -0.2884
 1574TIP3    H126281   6.037   3.404   0.847 -0.5418  0.1240 -0.6944
 1574TIP3    H226282   6.100   3.334   0.728 -0.1561 -0.4957 -0.1379
 1575TIP3   OH226283   0.943   5.582   0.340  0.2242  0.4247  0.2855
 1575TIP3    H126284   0.883   5.626   0.400  0.0150  0.6603 -0.0911
 1575TIP3    H226285   0.937   5.632   0.259  2.1725  1.4821  0.7168
 1576TIP3   OH226286   1.550   1.522   1.062  0.6621  0.3255 -0.3202
 1576TIP3    H126287   1.458   1.498   1.069  0.4150  0.2875 -2.7319
 1576TIP3    H226288   1.597   1.442   1.088 -0.0374 -0.2921 -0.8834
 1577TIP3   OH226289   1.241   6.180   1.804 -0.5991 -0.1299 -0.3945
 1577TIP3    H126290   1.173   6.113   1.803  1.2820 -2.1155 -1.1265
 1577TIP3    H226291   1.218   6.235   1.879 -2.2731 -1.5045  0.1773
 1578TIP3   OH226292   2.878   4.497   1.995 -0.2483  0.0709 -0.1664
 1578TIP3    H126293   2.834   4.583   1.996 -1.8534 -0.5503 -3.1834
 1578TIP3    H226294   2.806   4.434   1.993  0.8190 -1.1645 -1.3591
 1579TIP3   OH226295   2.819   2.307   0.719 -0.0369  0.8966  0.0422
 1579TIP3    H126296   2.914   2.311   0.710 -0.1026  0.7750 -0.7445
 1579TIP3    H226297   2.800   2.215   0.738  0.0498  1.0382  0.8439
 1580TIP3   OH226298   1.511   5.530   1.910 -0.5217 -0.2604  0.4242
 1580TIP3    H126299   1.577   5.473   1.871  0.4376  1.5636 -0.7046
 1580TIP3    H226300   1.454   5.470   1.959  1.2302 -2.0154  0.4211
 1581TIP3   OH226301   1.173   3.682   7.342  0.4852  0.1125  0.8043
 1581TIP3    H126302   1.254   3.701   7.389  1.6219 -1.9151 -0.1967
 1581TIP3    H226303   1.200   3.632   7.266 -1.5846  0.7943 -0.4812
 1582TIP3   OH226304   3.155   0.649   2.695 -0.1423  0.0322 -0.1693
 1582TIP3    H126305   3.155   0.740   2.667  1.2761  0.9936  2.5518
 1582TIP3    H226306   3.062   0.628   2.707 -0.5310  0.8344 -1.5534
 1583TIP3   OH226307   5.182   6.459   8.528 -0.1660 -0.1956 -0.2733
 1583TIP3    H126308   5.242   6.403   8.478  0.9500 -0.2015  1.0367
 1583TIP3    H226309   5.098   6.412   8.524  0.3672 -1.1625 -0.5411
 1584TIP3   OH226310   3.394   0.350   0.413 -0.7578  0.0243 -0.1274
 1584TIP3    H126311   3.354   0.360   0.500  0.8464  2.2971  0.4610
 1584TIP3    H226312   3.325   0.374   0.352 -1.4621 -0.0663  0.6121
 1585TIP3   OH226313   5.040   5.473   0.187  0.0039 -0.5530 -0.1590
 1585TIP3    H126314   5.096   5.465   0.109  0.3535 -0.1902  0.0520
 1585TIP3    H226315   5.051   5.564   0.215 -0.3903 -0.5868  0.1180
 1586TIP3   OH226316   4.995   6.521   7.604  0.2546  0.3917  0.0559
 1586TIP3    H126317   4.997   6.567   7.520 -1.2629 -1.1624 -0.9077
 1586TIP3    H226318   5.016   6.431   7.582  1.3670  0.2438  1.6183
 1587TIP3   OH226319   0.513   2.712   2.176  0.0045  0.3814  0.0407
 1587TIP3    H126320   0.439   2.653   2.187  1.2165 -1.1647  0.3311
 1587TIP3    H226321   0.590   2.655   2.184  1.2184  1.8720 -0.5574
 1588TIP3   OH226322   3.140   2.255   2.018  0.3245 -0.3800 -0.5841
 1588TIP3    H126323   3.177   2.228   1.934 -0.5878  0.0640 -1.1409
 1588TIP3    H226324   3.184   2.338   2.038  1.1825 -0.9255 -0.1844
 1589TIP3   OH226325   2.928   5.422   1.941  0.0881  0.5385 -0.0487
 1589TIP3    H126326   2.901   5.499   1.891 -0.5640  0.9709  0.9424
 1589TIP3    H226327   2.938   5.455   2.031 -0.1845 -0.5311  0.3827
 1590TIP3   OH226328   1.554   4.526   7.427  0.2848  0.5467  0.4232
 1590TIP3    H126329   1.489   4.494   7.364 -0.4685 -0.7752  1.7977
 1590TIP3    H226330   1.516   4.606   7.462 -1.0197 -0.5851  1.7325
 1591TIP3   OH226331   0.588   3.537   1.566  0.1272  0.2432 -0.3506
 1591TIP3    H126332   0.511   3.557   1.514 -1.1809  1.0415  1.7458
 1591TIP3    H226333   0.606   3.617   1.614 -0.5085 -1.1551  2.4755
 1592TIP3   OH226334   2.399   6.714   8.048  0.0920 -0.6939  0.0274
 1592TIP3    H126335   2.484   6.750   8.072 -0.0872  0.1217 -0.5082
 1592TIP3    H226336   2.416   6.662   7.969 -0.1116  0.6486 -0.9498
 1593TIP3   OH226337   2.976   0.821   1.550  0.3069 -0.3942  0.2621
 1593TIP3    H126338   3.005   0.813   1.641 -1.6973 -1.8641  0.8171
 1593TIP3    H226339   3.047   0.871   1.507  0.7346  1.4181  2.8539
 1594TIP3   OH226340   1.320   2.328   7.732 -0.1122 -0.1680 -0.3457
 1594TIP3    H126341   1.342   2.253   7.676 -1.5247 -1.9653  1.3704
 1594TIP3    H226342   1.255   2.377   7.682 -0.6238 -1.1980 -0.7185
 1595TIP3   OH226343   3.849   4.091   2.127 -0.4059 -0.2602  0.0977
 1595TIP3    H126344   3.907   4.119   2.056  1.5854 -1.8481  1.0226
 1595TIP3    H226345   3.908   4.071   2.200 -2.2371 -0.7425  1.5186
 1596TIP3   OH226346   1.246   6.460   1.635 -0.7343 -0.1005  0.1397
 1596TIP3    H126347   1.216   6.415   1.715  0.1861  0.6457  0.9245
 1596TIP3    H226348   1.342   6.456   1.640 -0.6565  0.8833 -0.3951
 1597TIP3   OH226349   2.749   6.763   8.522  0.0705 -0.1669  0.0068
 1597TIP3    H126350   2.771   6.781   8.613 -1.1665  2.3776 -0.1147
 1597TIP3    H226351   2.816   6.808   8.471  0.4134 -1.0761 -0.3765
 1598TIP3   OH226352   1.436   3.458   7.702  0.4273 -0.0507 -0.6336
 1598TIP3    H126353   1.506   3.393   7.699  0.1760 -0.3580 -0.1060
 1598TIP3    H226354   1.358   3.412   7.671  0.0331 -0.3111  0.6601
 1599TIP3   OH226355   0.941   1.083   7.261  0.0504 -0.0915  0.6823
 1599TIP3    H126356   0.983   1.046   7.183 -0.3631  0.7463  0.0455
 1599TIP3    H226357   1.012   1.094   7.324  0.5099 -0.1621  0.1881
 1600TIP3   OH226358   5.331   6.501   0.216  0.0247 -0.6124  0.1329
 1600TIP3    H126359   5.307   6.532   0.128  0.8929  1.1651  0.4816
 1600TIP3    H226360   5.424   6.478   0.209  0.4429  0.7549  0.8645
 1601TIP3   OH226361   0.388   0.815   0.657 -0.9056 -0.7171 -0.1955
 1601TIP3    H126362   0.432   0.839   0.576  1.0007 -1.0727  0.6712
 1601TIP3    H226363   0.449   0.756   0.701 -1.3782  0.2981  1.9818
 1602TIP3   OH226364   4.720   0.341   0.757 -0.2489 -0.6015 -0.2931
 1602TIP3    H126365   4.654   0.313   0.693 -0.7314  1.7666 -0.9134
 1602TIP3    H226366   4.796   0.367   0.703  0.1428 -0.6236  0.2387
 1603TIP3   OH226367   1.147   6.384   8.465 -0.2698  0.6605  0.6020
 1603TIP3    H126368   1.136   6.372   8.371 -1.8492  3.5652  0.2912
 1603TIP3    H226369   1.226   6.334   8.487  2.5831  2.9607 -3.0651
 1604TIP3   OH226370   5.009   0.834   0.059 -0.6900  0.7271  0.5854
 1604TIP3    H126371   5.095   0.864   0.028 -0.7659 -0.5953 -1.0115
 1604TIP3    H226372   4.983   0.900   0.123  0.9867  1.7905  0.2439
 1605TIP3   OH226373   0.705   1.193   1.909  0.1593  0.1384  0.4871
 1605TIP3    H126374   0.779   1.253   1.896 -1.2524  2.0864  0.8793
 1605TIP3    H226375   0.644   1.215   1.838 -0.7881 -0.1675  1.1812
 1606TIP3   OH226376   4.753   5.016   7.439  0.1718 -0.4034  0.4284
 1606TIP3    H126377   4.709   4.948   7.388 -2.4724  1.4511  0.0332
 1606TIP3    H226378   4.769   5.087   7.376  2.2464 -0.3534  0.9636
 1607TIP3   OH226379   2.623   5.229   1.693  0.4531 -0.0322  0.4923
 1607TIP3    H126380   2.552   5.164   1.692 -0.2285  0.6588  1.7354
 1607TIP3    H226381   2.578   5.313   1.689  1.1089  0.4474  2.4552
 1608TIP3   OH226382   4.894   1.298   7.253  0.2435 -0.2297  0.2436
 1608TIP3    H126383   4.867   1.220   7.303 -1.7005 -0.7808 -1.4894
 1608TIP3    H226384   4.981   1.276   7.220  0.5399 -0.8425  1.3568
 1609TIP3   OH226385   3.294   0.304   1.609  0.4858  0.3436  0.1866
 1609TIP3    H126386   3.390   0.301   1.609  0.4724 -0.1225 -0.0762
 1609TIP3    H226387   3.270   0.339   1.524  0.3917 -0.9610 -0.3521
 1610TIP3   OH226388   5.024   6.628   0.668  0.1417 -0.3596 -0.3245
 1610TIP3    H126389   4.972   6.646   0.746  1.0276  1.3093 -0.0818
 1610TIP3    H226390   5.110   6.600   0.702  0.6122  0.6165 -0.6791
 1611TIP3   OH226391   2.337   4.767   1.097 -0.0357  0.7350 -0.0513
 1611TIP3    H126392   2.398   4.693   1.100 -1.3338 -0.3919  3.0194
 1611TIP3    H226393   2.257   4.734   1.138 -1.7635  3.0005 -1.3692
 1612TIP3   OH226394   3.646   6.112   8.485 -0.5018  0.2260  0.4953
 1612TIP3    H126395   3.624   6.186   8.429  1.5808 -0.5529 -1.4867
 1612TIP3    H226396   3.561   6.079   8.514 -1.5849  1.7932 -0.6568
 1613TIP3   OH226397   6.828   3.131   1.364 -0.3846  0.0173  0.4852
 1613TIP3    H126398   6.864   3.060   1.311  1.3560  0.8226  0.5278
 1613TIP3    H226399   6.897   3.152   1.427 -1.1759  1.2298  0.9894
 1614TIP3   OH226400   3.701   3.631   1.475  0.1858 -0.2430  0.2598
 1614TIP3    H126401   3.743   3.635   1.389 -2.1361  1.0751 -0.8904
 1614TIP3    H226402   3.631   3.696   1.471  0.5087  0.4734  3.4622
 1615TIP3   OH226403   3.494   0.423   2.319 -0.3034 -0.4007 -0.1738
 1615TIP3    H126404   3.453   0.338   2.300 -0.1841 -0.3017 -0.9235
 1615TIP3    H226405   3.424   0.475   2.358 -0.4822 -0.7184 -0.0632
 1616TIP3   OH226406   1.776   5.136   1.549 -0.1484 -0.3849  0.4245
 1616TIP3    H126407   1.690   5.175   1.563  0.2878  0.2297  1.5071
 1616TIP3    H226408   1.838   5.208   1.563  0.5287 -0.4970 -1.5862
 1617TIP3   OH226409   4.831   3.748   8.549  0.7471 -0.3032  0.3508
 1617TIP3    H126410   4.848   3.816   8.484 -0.5382 -0.9197 -0.6556
 1617TIP3    H226411   4.912   3.697   8.551  1.0188  0.0803 -0.3034
 1618TIP3   OH226412   1.958   4.326   0.909 -0.2495  0.8971 -0.0314
 1618TIP3    H126413   1.936   4.254   0.968 -0.5753  0.8354 -0.2262
 1618TIP3    H226414   1.984   4.283   0.827  0.0403  0.9879  0.0097
 1619TIP3   OH226415   5.208   1.253   3.051  0.0038  0.0242 -0.1102
 1619TIP3    H126416   5.124   1.247   3.096 -0.0944  1.0474 -0.1184
 1619TIP3    H226417   5.189   1.303   2.972  0.2868 -1.2739 -1.0158
 1620TIP3   OH226418   6.225   3.288   1.090 -0.1115 -0.0095 -0.9445
 1620TIP3    H126419   6.189   3.317   1.007 -1.5280  0.6747 -0.1389
 1620TIP3    H226420   6.175   3.337   1.156  2.0890  0.7616  0.2788
 1621TIP3   OH226421   2.056   0.804   8.188  0.5245 -0.0720  0.3104
 1621TIP3    H126422   1.987   0.864   8.161  0.0378  0.1591  1.9605
 1621TIP3    H226423   2.021   0.759   8.265  0.6785 -2.8665 -1.1036
 1622TIP3   OH226424   6.037   4.186   1.010 -0.4122  0.1731 -0.1522
 1622TIP3    H126425   5.974   4.120   0.981 -0.3820  0.0526  0.0516
 1622TIP3    H226426   6.030   4.256   0.945 -0.2773 -0.1331 -0.5035
 1623TIP3   OH226427   6.402   0.658   8.282  0.4834  0.4856  0.5103
 1623TIP3    H126428   6.446   0.677   8.199 -0.6135  1.3526  0.1042
 1623TIP3    H226429   6.403   0.562   8.288 -0.8704  0.3120 -1.3279
 1624TIP3   OH226430   5.560   1.064   0.419 -0.2451  0.3598 -0.6205
 1624TIP3    H126431   5.467   1.067   0.442 -0.0858 -0.1630  0.1144
 1624TIP3    H226432   5.583   0.972   0.425  0.2235  0.4357 -1.2149
 1625TIP3   OH226433   3.923   1.780   0.368 -0.6327 -0.0934 -0.1202
 1625TIP3    H126434   3.889   1.781   0.278 -0.3055  2.2163 -0.2767
 1625TIP3    H226435   4.008   1.736   0.360 -1.4760 -1.7362 -0.5354
 1626TIP3   OH226436   0.683   4.424   7.270  0.0446 -0.1171  0.3265
 1626TIP3    H126437   0.637   4.484   7.211 -0.5652  0.1330  1.0352
 1626TIP3    H226438   0.649   4.338   7.248  1.6453 -0.3604 -1.3730
 1627TIP3   OH226439   4.478   1.672   0.452  0.2530  0.0839 -0.6108
 1627TIP3    H126440   4.494   1.681   0.358  3.6505  0.4074 -0.1260
 1627TIP3    H226441   4.512   1.753   0.489 -0.3992 -0.3474  0.9840
 1628TIP3   OH226442   4.749   0.173   7.504  0.1834 -0.2684 -0.3983
 1628TIP3    H126443   4.691   0.135   7.438  0.9765 -3.3107  0.4948
 1628TIP3    H226444   4.837   0.144   7.477  0.4683 -2.2427  2.2627
 1629TIP3   OH226445   3.053   2.061   7.650  0.1135  0.2353 -0.0385
 1629TIP3    H126446   2.972   2.035   7.607 -1.1553 -1.1989  2.9348
 1629TIP3    H226447   3.112   1.987   7.638 -0.3648 -0.3167  0.8990
 1630TIP3   OH226448   4.173   5.193   1.868  0.1326  0.1756 -0.1248
 1630TIP3    H126449   4.086   5.176   1.832  0.0272  0.5736 -0.0571
 1630TIP3    H226450   4.174   5.286   1.887 -0.1044 -0.1594  1.6853
 1631TIP3   OH226451   0.114   4.521   8.364 -0.5430 -0.3400  0.0950
 1631TIP3    H126452   0.082   4.604   8.331 -1.0655 -0.3959  0.4499
 1631TIP3    H226453   0.073   4.511   8.450  1.4584  0.2221  1.1852
 1632TIP3   OH226454   6.823   1.676   1.453  0.7918  0.2816  0.2101
 1632TIP3    H126455   6.916   1.691   1.434  0.8198  0.0655  0.1831
 1632TIP3    H226456   6.795   1.613   1.386  0.3871  1.0878 -0.4017
 1633TIP3   OH226457   5.258   4.762   0.787 -0.1305 -0.4359 -0.3315
 1633TIP3    H126458   5.290   4.824   0.721 -1.0852  0.5424  0.0963
 1633TIP3    H226459   5.222   4.817   0.857  0.7955 -1.4535  0.9883
 1634TIP3   OH226460   6.428   5.680   2.184 -0.6344  0.1847  0.2319
 1634TIP3    H126461   6.337   5.683   2.155  0.1631  1.7541 -2.4667
 1634TIP3    H226462   6.478   5.669   2.103  1.6610  0.9423  1.4604
 1635TIP3   OH226463   4.948   5.934   7.873  0.6694  0.3902 -0.5888
 1635TIP3    H126464   4.888   5.951   7.801  0.6200  1.8037 -0.2448
 1635TIP3    H226465   4.986   5.849   7.853 -0.9589 -0.2472 -1.1426
 1636TIP3   OH226466   1.204   5.254   2.646 -0.2918 -0.0905  0.3131
 1636TIP3    H126467   1.247   5.331   2.682  2.8473 -1.7813  0.5041
 1636TIP3    H226468   1.151   5.220   2.718 -0.3569  0.8898  0.7494
 1637TIP3   OH226469   1.182   2.974   2.037 -0.3554 -0.0697  0.0474
 1637TIP3    H126470   1.126   3.015   2.104 -0.5613  0.3406 -0.3663
 1637TIP3    H226471   1.209   2.891   2.075 -1.3878 -0.3480  0.1865
 1638TIP3   OH226472   4.291   2.392   1.269  0.0754 -0.3659  0.0274
 1638TIP3    H126473   4.356   2.403   1.339  0.1730  1.6020 -0.3043
 1638TIP3    H226474   4.264   2.482   1.248 -3.1540 -1.1096  0.5218
 1639TIP3   OH226475   0.410   0.182   2.163  0.1250  0.3842  0.1718
 1639TIP3    H126476   0.377   0.262   2.122 -0.3986 -0.2474 -0.6714
 1639TIP3    H226477   0.467   0.143   2.097 -0.3432 -0.3997  0.2229
 1640TIP3   OH226478   3.592   6.377   2.279 -0.0682 -0.4922  0.0643
 1640TIP3    H126479   3.591   6.303   2.339 -2.6130 -1.8822 -1.5030
 1640TIP3    H226480   3.553   6.449   2.329 -1.6002 -1.4628  0.3547
 1641TIP3   OH226481   5.581   0.584   2.501 -0.9449 -0.4611  0.6839
 1641TIP3    H126482   5.517   0.594   2.430 -0.5942 -2.1585  0.0723
 1641TIP3    H226483   5.545   0.514   2.555 -0.1953 -0.6037  1.0071
 1642TIP3   OH226484   1.736   4.719   0.470 -0.3280 -0.5126 -0.1906
 1642TIP3    H126485   1.819   4.761   0.447 -1.0804  0.3256 -1.5313
 1642TIP3    H226486   1.697   4.778   0.535 -0.3125 -0.3709 -0.3072
 1643TIP3   OH226487   4.278   5.498   7.436  0.0148  0.2859 -0.1482
 1643TIP3    H126488   4.336   5.532   7.367 -1.0618 -1.7914 -2.2255
 1643TIP3    H226489   4.252   5.576   7.485  3.3600  1.4664  0.0011
 1644TIP3   OH226490   1.150   3.539   7.859 -0.6624 -0.4503  0.9864
 1644TIP3    H126491   1.244   3.524   7.864 -0.2428  1.8824  1.5486
 1644TIP3    H226492   1.112   3.452   7.850  1.2841 -1.8985  4.4627
 1645TIP3   OH226493   0.223   1.210   0.747  1.0359  0.1823  1.0063
 1645TIP3    H126494   0.316   1.197   0.728  0.9804 -0.6153  1.2346
 1645TIP3    H226495   0.201   1.140   0.809 -0.3181 -1.2790 -1.0016
 1646TIP3   OH226496   1.404   0.488   0.870 -0.2594  0.2714 -0.4442
 1646TIP3    H126497   1.417   0.562   0.929 -1.3191  1.1520 -1.2812
 1646TIP3    H226498   1.481   0.433   0.884 -0.1701  0.7844  1.2631
 1647TIP3   OH226499   2.831   3.132   8.346  0.1760 -0.4463 -0.2415
 1647TIP3    H126500   2.835   3.187   8.424  0.1000 -0.9699  0.1342
 1647TIP3    H226501   2.922   3.129   8.315  0.0421  0.6409 -0.8027
 1648TIP3   OH226502   5.499   3.354   0.124  0.7916 -0.2300  0.0330
 1648TIP3    H126503   5.525   3.443   0.103  0.2412 -0.0942 -0.1064
 1648TIP3    H226504   5.444   3.363   0.203  0.7815 -0.4483  0.0515
 1649TIP3   OH226505   2.002   0.270   0.879  0.0915 -0.3905 -0.3017
 1649TIP3    H126506   2.065   0.267   0.806  2.4733 -0.5461  1.6048
 1649TIP3    H226507   2.009   0.360   0.913 -1.6296 -0.0640 -0.7469
 1650TIP3   OH226508   3.878   5.787   0.215 -0.3679 -0.6521 -0.0172
 1650TIP3    H126509   3.855   5.695   0.207 -0.0186 -0.7014 -0.4429
 1650TIP3    H226510   3.798   5.829   0.250 -0.3177 -1.2165  0.8134
 1651TIP3   OH226511   2.418   4.216   7.233  0.2732 -0.1993 -0.3764
 1651TIP3    H126512   2.397   4.136   7.185 -1.4372 -0.0740  0.1074
 1651TIP3    H226513   2.422   4.190   7.324  0.6011  0.1112 -0.2985
 1652TIP3   OH226514   3.892   5.345   2.261 -0.1744  0.2112 -0.5993
 1652TIP3    H126515   3.918   5.433   2.290  0.0442 -0.1576  0.3497
 1652TIP3    H226516   3.809   5.359   2.215 -0.5133  0.8306  0.1767
 1653TIP3   OH226517   1.728   1.108   0.883  0.4120  0.0802 -0.0259
 1653TIP3    H126518   1.734   1.051   0.960 -0.6271 -0.1658 -0.1100
 1653TIP3    H226519   1.797   1.076   0.825 -0.4715 -1.4758 -0.2972
 1654TIP3   OH226520   0.557   4.038   1.511  0.4652  0.0199  0.1802
 1654TIP3    H126521   0.540   4.119   1.558  0.3696  0.0813  0.0388
 1654TIP3    H226522   0.653   4.032   1.508  0.5302  1.1258 -1.5016
 1655TIP3   OH226523   3.376   3.345   0.240  0.3517  0.3232  0.2347
 1655TIP3    H126524   3.368   3.388   0.325  0.4906 -0.0218  0.4238
 1655TIP3    H226525   3.452   3.288   0.249  0.9695  1.0139 -0.4400
 1656TIP3   OH226526   5.129   4.426   1.942  0.4746  0.5129  0.0985
 1656TIP3    H126527   5.098   4.399   2.028 -0.1080 -1.4614 -0.6775
 1656TIP3    H226528   5.066   4.389   1.881  2.6558 -1.0064 -1.3556
 1657TIP3   OH226529   2.723   5.915   8.407  0.3296 -0.4929  0.1297
 1657TIP3    H126530   2.759   5.875   8.328  0.4711 -1.1469  0.5165
 1657TIP3    H226531   2.705   5.841   8.465 -0.1248 -0.0478  0.5641
 1658TIP3   OH226532   4.240   6.092   0.373  0.3577  0.0240  0.3503
 1658TIP3    H126533   4.245   6.100   0.277  2.1651 -0.0735  0.4093
 1658TIP3    H226534   4.186   6.167   0.400 -2.4763 -1.3964 -0.8957
 1659TIP3   OH226535   6.207   6.257   1.174 -0.6284 -0.7474 -0.5086
 1659TIP3    H126536   6.130   6.226   1.222 -1.2761 -0.2080 -1.1803
 1659TIP3    H226537   6.276   6.262   1.241 -1.1823 -1.2076  0.1097
 1660TIP3   OH226538   2.198   1.398   8.266  0.0662  0.2409 -0.1462
 1660TIP3    H126539   2.287   1.400   8.301  0.4442  1.4301 -1.0954
 1660TIP3    H226540   2.198   1.463   8.196 -1.8882  1.1592  0.6205
 1661TIP3   OH226541   5.770   4.638   0.990 -0.4083 -0.0560 -0.1764
 1661TIP3    H126542   5.718   4.712   1.022  0.7968  0.3305  0.9856
 1661TIP3    H226543   5.823   4.612   1.065  2.8978  1.1830 -1.8916
 1662TIP3   OH226544   0.469   1.715   3.151 -0.2390  0.5706 -0.0428
 1662TIP3    H126545   0.547   1.693   3.101 -0.1089  0.7228  0.0917
 1662TIP3    H226546   0.452   1.637   3.204 -0.7851  0.1368 -0.8262
 1663TIP3   OH226547   6.487   5.172   7.944 -0.1899 -0.1946  0.6253
 1663TIP3    H126548   6.395   5.191   7.922  0.2122 -0.8575 -1.9433
 1663TIP3    H226549   6.486   5.083   7.978 -0.2825 -0.9948 -1.3937
 1664TIP3   OH226550   5.696   3.632   0.805  0.1891 -0.8547  0.2660
 1664TIP3    H126551   5.625   3.695   0.791  0.6278 -0.1300  1.1417
 1664TIP3    H226552   5.769   3.667   0.753 -0.7331 -2.8800 -2.6038
 1665TIP3   OH226553   0.181   1.779   2.127 -0.0855  0.4522 -0.3320
 1665TIP3    H126554   0.239   1.734   2.066 -1.0194  0.5556 -1.3229
 1665TIP3    H226555   0.162   1.863   2.085 -2.6307 -0.4035 -1.0878
 1666TIP3   OH226556   3.988   2.567   1.446 -0.8289  0.1116  0.2962
 1666TIP3    H126557   4.051   2.527   1.505 -0.4628  2.9059  1.9872
 1666TIP3    H226558   3.904   2.528   1.469 -0.0863 -2.1234 -0.5573
 1667TIP3   OH226559   6.011   3.186   2.052  0.3199 -0.4838  0.2284
 1667TIP3    H126560   5.923   3.201   2.087 -0.2265 -1.3797 -0.7188
 1667TIP3    H226561   6.050   3.122   2.111  0.9721  1.1087  1.6039
 1668TIP3   OH226562   1.950   6.815   0.487 -0.4482 -0.2761 -0.4066
 1668TIP3    H126563   1.905   6.874   0.427  0.3526  2.2032  1.2841
 1668TIP3    H226564   1.883   6.754   0.517 -1.1916 -0.6092 -2.5758
 1669TIP3   OH226565   2.338   0.854   8.607  0.2987  0.4125 -0.5684
 1669TIP3    H126566   2.346   0.766   8.572  0.8484  0.5379 -0.7717
 1669TIP3    H226567   2.249   0.859   8.642  0.8311 -0.8366  1.0852
 1670TIP3   OH226568   5.083   1.550   1.238 -0.0826 -0.0300 -1.0538
 1670TIP3    H126569   5.025   1.478   1.263  0.7241  0.1205  1.5067
 1670TIP3    H226570   5.165   1.506   1.213  0.6153 -0.0689  1.0962
 1671TIP3   OH226571   1.799   6.753   2.042  0.1428  0.1134 -0.2181
 1671TIP3    H126572   1.712   6.744   2.081  0.1109 -0.4855 -0.4261
 1671TIP3    H226573   1.792   6.713   1.956  0.5847  0.2038 -0.2997
 1672TIP3   OH226574   0.224   0.282   0.938  0.6693  0.2352 -0.5030
 1672TIP3    H126575   0.202   0.282   1.031  1.2281  1.9655 -0.3380
 1672TIP3    H226576   0.231   0.375   0.915 -1.6825 -0.0514 -2.8344
 1673TIP3   OH226577   1.850   3.554   8.372 -0.2553 -0.6606  0.2602
 1673TIP3    H126578   1.866   3.649   8.373 -0.0252 -0.6986  0.1488
 1673TIP3    H226579   1.816   3.535   8.459 -2.3050 -0.1255 -0.3480
 1674TIP3   OH226580   4.168   5.658   1.163  1.1194 -0.7365  0.4014
 1674TIP3    H126581   4.235   5.620   1.219 -0.2360 -1.3508  1.6494
 1674TIP3    H226582   4.094   5.674   1.221  0.2914  0.2411 -0.8774
 1675TIP3   OH226583   5.385   6.489   7.799 -0.0718 -0.4875 -0.5610
 1675TIP3    H126584   5.392   6.504   7.705  0.8581  1.7190 -0.1893
 1675TIP3    H226585   5.457   6.429   7.820 -0.7204 -1.5767 -1.3091
 1676TIP3   OH226586   0.272   3.051   7.602  0.1077 -0.2005  0.5836
 1676TIP3    H126587   0.267   3.089   7.514  0.0705  0.3028  0.8009
 1676TIP3    H226588   0.361   3.071   7.631 -0.2283  0.5985  1.0883
 1677TIP3   OH226589   2.894   5.540   0.708  1.1180 -0.4162  0.6643
 1677TIP3    H126590   2.826   5.475   0.726 -0.2352  0.5065 -0.8675
 1677TIP3    H226591   2.909   5.583   0.792  0.2174 -1.0115  1.1453
 1678TIP3   OH226592   5.652   4.492   7.731 -0.3579 -0.3135  0.2386
 1678TIP3    H126593   5.740   4.480   7.695  0.2591 -1.8369  2.0679
 1678TIP3    H226594   5.604   4.539   7.663  1.0174 -2.0475 -2.0623
 1679TIP3   OH226595   5.824   5.186   0.486  0.5525  0.1361 -0.0810
 1679TIP3    H126596   5.841   5.144   0.571  0.2098  0.7254  0.2860
 1679TIP3    H226597   5.866   5.129   0.422 -2.7541 -2.7554 -0.0115
 1680TIP3   OH226598   2.954   2.750   7.861  0.0515 -0.4250 -0.4769
 1680TIP3    H126599   2.943   2.659   7.836 -1.1865 -0.9264  1.6612
 1680TIP3    H226600   2.940   2.751   7.956  0.7589  1.8746 -0.3415
 1681TIP3   OH226601   3.251   0.716   1.830 -0.3763 -0.2633 -0.9701
 1681TIP3    H126602   3.171   0.754   1.866  0.0025 -1.9521  2.0280
 1681TIP3    H226603   3.247   0.623   1.854  2.6114 -0.3451 -0.3248
 1682TIP3   OH226604   2.816   4.390   1.077 -0.1551  0.2788  0.2875
 1682TIP3    H126605   2.782   4.479   1.088  1.5787  0.9935  0.1214
 1682TIP3    H226606   2.812   4.374   0.983  2.3023  1.3908 -0.0765
 1683TIP3   OH226607   0.056   1.749   2.498 -0.4593 -0.1180  0.6541
 1683TIP3    H126608   0.049   1.675   2.437 -1.2575 -1.1853  1.9853
 1683TIP3    H226609   0.011   1.719   2.577 -1.3466  2.0257  1.0259
 1684TIP3   OH226610   3.171   0.918   2.595  0.2321  0.2531 -0.1914
 1684TIP3    H126611   3.236   0.978   2.559  1.3956 -0.6148  0.4086
 1684TIP3    H226612   3.190   0.916   2.689 -0.7343  0.0494  0.0137
 1685TIP3   OH226613   2.396   1.331   7.578  0.0570  0.1663 -0.0912
 1685TIP3    H126614   2.491   1.339   7.577  0.3437 -2.3805  0.2800
 1685TIP3    H226615   2.376   1.300   7.667 -0.7763 -1.9869 -0.9700
 1686TIP3   OH226616   4.509   4.904   8.306 -0.3883  0.5357 -0.1938
 1686TIP3    H126617   4.551   4.843   8.245  0.5490 -0.3070  1.2616
 1686TIP3    H226618   4.416   4.881   8.302 -0.4547  0.9071 -1.7384
 1687TIP3   OH226619   1.886   0.767   1.543  0.4254  0.1864 -0.4223
 1687TIP3    H126620   1.839   0.849   1.557 -0.3985 -0.1008 -1.3623
 1687TIP3    H226621   1.961   0.792   1.489  0.3657  0.3673 -0.4237
 1688TIP3   OH226622   0.301   0.444   8.129  0.5265  0.3413 -0.2426
 1688TIP3    H126623   0.353   0.387   8.186 -1.3405 -0.3788  0.8179
 1688TIP3    H226624   0.364   0.508   8.096  1.7236  0.7748  2.6086
 1689TIP3   OH226625   1.212   6.343   1.312  0.1085 -0.7234  0.1276
 1689TIP3    H126626   1.227   6.430   1.274 -3.0886 -1.2258 -2.8845
 1689TIP3    H226627   1.277   6.287   1.269 -0.5522 -0.4774 -1.2592
 1690TIP3   OH226628   0.010   5.984   8.469 -0.4528  0.2801 -0.3247
 1690TIP3    H126629   0.056   5.947   8.545 -0.4179 -1.1921 -1.0201
 1690TIP3    H226630   0.013   6.078   8.483  0.2467  0.0840  1.1020
 1691TIP3   OH226631   6.503   0.639   0.221 -0.2751  0.0022 -0.1322
 1691TIP3    H126632   6.528   0.696   0.149  0.7506 -2.0049 -1.4481
 1691TIP3    H226633   6.442   0.576   0.182  0.7629 -1.5016  0.5492
 1692TIP3   OH226634   0.655   5.773   6.767 -0.8105  0.3325  0.0333
 1692TIP3    H126635   0.620   5.839   6.706 -1.4481  0.2074  0.2536
 1692TIP3    H226636   0.707   5.824   6.829  0.5102  0.3749 -1.0625
 1693TIP3   OH226637   6.623   1.361   0.216  0.2303 -0.1418  1.0592
 1693TIP3    H126638   6.600   1.377   0.124  1.7413 -0.7056  0.5528
 1693TIP3    H226639   6.655   1.445   0.247  0.2004 -0.0783  0.9229
 1694TIP3   OH226640   6.603   0.642   7.837  0.1958  0.0059 -0.4094
 1694TIP3    H126641   6.510   0.662   7.827 -0.6730 -1.7976  2.7821
 1694TIP3    H226642   6.605   0.563   7.890  3.5892 -0.9942 -1.7916
 1695TIP3   OH226643   1.324   1.231   1.316  0.4191 -0.4805  0.3108
 1695TIP3    H126644   1.259   1.175   1.272 -0.1764  0.2251  0.2661
 1695TIP3    H226645   1.279   1.315   1.327  1.2660 -0.0389  0.4596
 1696TIP3   OH226646   2.717   3.254   1.996  0.1102 -0.0208  0.4494
 1696TIP3    H126647   2.767   3.289   1.922  1.1248 -1.0119  0.6306
 1696TIP3    H226648   2.672   3.329   2.032  0.9043  0.7850 -0.1865
 1697TIP3   OH226649   3.240   2.175   1.268 -0.1881  0.3743 -0.0008
 1697TIP3    H126650   3.291   2.130   1.335 -0.1963  0.3642 -0.0015
 1697TIP3    H226651   3.151   2.177   1.302 -0.8853 -2.3892 -1.3483
 1698TIP3   OH226652   5.810   1.667   3.194  0.2577  0.1345  0.9433
 1698TIP3    H126653   5.888   1.650   3.142  1.2501 -1.4350  2.7858
 1698TIP3    H226654   5.760   1.585   3.190 -1.2214  1.0430 -0.0286
 1699TIP3   OH226655   2.924   4.242   8.003  0.0046  0.0556  0.1129
 1699TIP3    H126656   2.941   4.224   7.911 -2.6410 -0.2434 -0.3806
 1699TIP3    H226657   2.937   4.157   8.047 -0.5420 -0.2257 -0.2721
 1700TIP3   OH226658   6.685   3.944   0.066  0.1557  0.4547  0.4138
 1700TIP3    H126659   6.644   3.862   0.093  1.5845  0.0391  1.4166
 1700TIP3    H226660   6.733   3.923  -0.014  1.1820  0.1002  1.1124
 1701TIP3   OH226661   2.448   1.956   1.610 -0.4048  0.3556  0.2281
 1701TIP3    H126662   2.476   1.864   1.610 -0.1356  0.4185 -0.7985
 1701TIP3    H226663   2.446   1.981   1.702  0.2469 -0.4685  0.4809
 1702TIP3   OH226664   4.532   0.217   7.898  0.0481 -0.1436 -0.2501
 1702TIP3    H126665   4.471   0.288   7.916  0.0710 -0.0177 -0.6624
 1702TIP3    H226666   4.559   0.186   7.985  1.6968  1.7534 -0.0204
 1703TIP3   OH226667   0.952   2.444   0.864 -0.2188 -0.3695 -0.1529
 1703TIP3    H126668   0.919   2.396   0.940 -0.5314 -3.1588 -1.9367
 1703TIP3    H226669   0.876   2.495   0.833 -0.1074  0.7337  1.2832
 1704TIP3   OH226670   4.041   0.945   1.443 -0.1611  0.0730  0.1146
 1704TIP3    H126671   4.035   1.040   1.458  0.2448  0.3613 -1.3679
 1704TIP3    H226672   3.969   0.926   1.383 -0.2321 -0.5628  0.3982
 1705TIP3   OH226673   0.550   1.307   1.717 -0.2704 -0.4861 -0.3604
 1705TIP3    H126674   0.492   1.305   1.641 -1.2305 -1.3941  0.3600
 1705TIP3    H226675   0.570   1.399   1.730 -0.8013 -0.2465 -1.1765
 1706TIP3   OH226676   1.658   6.728   1.536 -0.2900  0.5121  0.2831
 1706TIP3    H126677   1.643   6.812   1.494 -0.2232 -0.7360 -2.4747
 1706TIP3    H226678   1.587   6.672   1.503  0.0428 -0.6870  1.5067
 1707TIP3   OH226679   6.270   0.938   0.866  0.9063  0.3184  0.0852
 1707TIP3    H126680   6.327   0.865   0.843  0.8732  0.6153 -0.9831
 1707TIP3    H226681   6.329   1.013   0.870  0.7576  0.4412 -0.0116
 1708TIP3   OH226682   4.247   4.011   8.123  0.0851  0.4546  0.0723
 1708TIP3    H126683   4.199   4.093   8.139  1.7892  1.5729 -0.3491
 1708TIP3    H226684   4.318   4.011   8.187  0.8427 -0.0736 -0.7397
 1709TIP3   OH226685   3.621   5.699   1.517  0.4507  0.1184  0.3112
 1709TIP3    H126686   3.541   5.747   1.493  0.0791 -0.5288  0.2433
 1709TIP3    H226687   3.666   5.685   1.434 -0.5045 -1.5289  0.0337
 1710TIP3   OH226688   4.706   0.926   0.501  0.5865  0.2787  0.3914
 1710TIP3    H126689   4.704   0.854   0.564  2.6116 -0.6289 -0.4905
 1710TIP3    H226690   4.728   1.003   0.554 -1.6234  0.3369  1.3453
 1711TIP3   OH226691   3.247   6.835   8.309  0.0190  0.3011 -0.1782
 1711TIP3    H126692   3.293   6.755   8.285  0.3871  0.8380 -1.3430
 1711TIP3    H226693   3.299   6.873   8.380  0.1545 -0.1987 -0.0059
 1712TIP3   OH226694   5.183   3.551   2.652 -0.0704  0.1047 -0.1387
 1712TIP3    H126695   5.142   3.505   2.724  1.1180  2.7525  2.4528
 1712TIP3    H226696   5.267   3.507   2.640 -0.6123 -0.8468 -0.4744
 1713TIP3   OH226697   4.282   1.261   7.235 -0.0182 -0.9263  0.2196
 1713TIP3    H126698   4.290   1.217   7.151  0.7402 -0.0634 -0.1674
 1713TIP3    H226699   4.320   1.200   7.298  3.6705  0.2257 -0.6681
 1714TIP3   OH226700   1.785   4.194   2.905 -0.0558  0.8153 -0.1703
 1714TIP3    H126701   1.876   4.192   2.876 -0.0567  2.4733 -0.4119
 1714TIP3    H226702   1.744   4.119   2.863  1.3348 -0.3519  0.4675
 1715TIP3   OH226703   1.914   2.492   2.004  0.0171  0.0612  0.2831
 1715TIP3    H126704   1.917   2.445   1.921 -1.0526  0.4798 -0.0035
 1715TIP3    H226705   1.973   2.566   1.992  0.7789 -0.5278  0.3199
 1716TIP3   OH226706   0.547   6.067   1.841 -0.0106 -0.5088  0.3277
 1716TIP3    H126707   0.512   6.117   1.915 -0.0993  0.3726 -0.2965
 1716TIP3    H226708   0.607   6.128   1.798 -0.6019 -0.7132 -0.8212
 1717TIP3   OH226709   6.608   4.649   2.431  0.5281 -0.7663 -1.0051
 1717TIP3    H126710   6.669   4.577   2.450  0.8090  0.1521  2.0872
 1717TIP3    H226711   6.654   4.727   2.462 -1.4323  0.1965 -0.4220
 1718TIP3   OH226712   5.840   3.732   8.200  0.5429 -0.4414 -0.0775
 1718TIP3    H126713   5.867   3.726   8.109  3.7065  1.2106  0.6046
 1718TIP3    H226714   5.801   3.820   8.207 -0.3914 -0.8551  0.0345
 1719TIP3   OH226715   0.940   2.623   2.729 -0.0215  0.3354 -0.1404
 1719TIP3    H126716   0.930   2.692   2.795 -0.3000 -0.1468  0.3260
 1719TIP3    H226717   0.851   2.592   2.713  0.1438 -0.1986 -0.0380
 1720TIP3   OH226718   1.693   6.639   0.903 -0.1173 -0.1385 -0.0025
 1720TIP3    H126719   1.689   6.626   0.998 -0.1945  2.1080  0.3760
 1720TIP3    H226720   1.785   6.625   0.881 -0.2259 -1.3748  0.2597
 1721TIP3   OH226721   6.381   2.539   3.191  0.2507 -0.1674  0.1931
 1721TIP3    H126722   6.301   2.584   3.217 -0.3180 -1.8438  1.5009
 1721TIP3    H226723   6.352   2.452   3.165  1.5278 -0.4104 -0.4703
 1722TIP3   OH226724   3.003   6.651   8.001 -0.4161 -0.1879 -0.3622
 1722TIP3    H126725   3.098   6.641   7.989 -0.0703  1.6310  0.4976
 1722TIP3    H226726   2.973   6.693   7.920 -0.2305  0.4951 -0.0876
 1723TIP3   OH226727   4.128   0.996   0.585 -0.4434  0.3635  0.2720
 1723TIP3    H126728   4.210   0.945   0.584 -1.3364 -1.1464  0.1369
 1723TIP3    H226729   4.132   1.047   0.665  1.1524  1.2211 -0.3115
 1724TIP3   OH226730   6.372   5.995   8.380 -0.0295  0.3337 -0.3443
 1724TIP3    H126731   6.303   5.999   8.314 -0.0606 -1.1636 -0.4500
 1724TIP3    H226732   6.420   6.077   8.371 -0.4560  0.4485 -1.7672
 1725TIP3   OH226733   3.787   0.391   0.103 -0.4038  0.4193 -0.8435
 1725TIP3    H126734   3.773   0.431   0.189 -1.2450  1.6881 -1.5421
 1725TIP3    H226735   3.724   0.319   0.098 -1.1205  1.0449 -0.8287
 1726TIP3   OH226736   0.890   6.875   7.977 -0.2477  1.0150 -0.8232
 1726TIP3    H126737   0.839   6.797   7.999  0.4597  0.8989  0.4759
 1726TIP3    H226738   0.893   6.925   8.058  1.6534  1.0451 -0.8779
 1727TIP3   OH226739   5.533   0.114   7.936  0.0119 -0.5023 -0.0719
 1727TIP3    H126740   5.589   0.059   7.991 -1.7515  0.1364  2.5764
 1727TIP3    H226741   5.584   0.193   7.920  0.5597 -0.6820  0.7278
 1728TIP3   OH226742   5.832   5.133   1.059 -0.2850 -0.2922 -0.4741
 1728TIP3    H126743   5.800   5.061   1.115  0.5499  0.0270  0.4410
 1728TIP3    H226744   5.776   5.207   1.081  0.7097  0.1237  0.7453
 1729TIP3   OH226745   1.824   2.572   1.431 -0.3521 -0.3035 -0.6229
 1729TIP3    H126746   1.762   2.499   1.425 -2.4550  1.2680  0.6096
 1729TIP3    H226747   1.846   2.577   1.524 -0.6184  0.9012 -0.6046
 1730TIP3   OH226748   1.418   0.248   1.164  0.0829  0.2269 -0.3324
 1730TIP3    H126749   1.451   0.160   1.142  0.5384  0.0777  0.8394
 1730TIP3    H226750   1.497   0.300   1.177 -0.1837  0.7009 -0.6195
 1731TIP3   OH226751   1.428   1.022   1.978 -0.3691  0.1479 -0.2968
 1731TIP3    H126752   1.464   1.087   1.918  0.1885  0.7870  0.7131
 1731TIP3    H226753   1.356   1.066   2.022 -0.9855 -0.4223 -0.7008
 1732TIP3   OH226754   1.590   3.708   0.190  0.0285  0.2114 -0.5688
 1732TIP3    H126755   1.633   3.750   0.115  0.6960  0.6655  0.0514
 1732TIP3    H226756   1.643   3.629   0.206  0.0175  0.2289 -0.4458
 1733TIP3   OH226757   5.593   4.756   7.601  0.7992 -0.1781 -0.1523
 1733TIP3    H126758   5.548   4.799   7.529  0.1073 -0.0512  0.3442
 1733TIP3    H226759   5.686   4.763   7.580  0.5981 -0.2759 -1.1019
 1734TIP3   OH226760   6.128   0.069   7.713  0.1232 -0.0009  0.1892
 1734TIP3    H126761   6.162   0.041   7.799 -0.8576 -0.9796  0.2781
 1734TIP3    H226762   6.170   0.153   7.697 -1.8944  1.7465  3.0435
 1735TIP3   OH226763   3.605   3.798   7.693  0.4692 -0.3435  0.1668
 1735TIP3    H126764   3.520   3.822   7.655 -0.2769  0.4541  2.2279
 1735TIP3    H226765   3.647   3.881   7.713  0.9393 -0.7413  0.8691
 1736TIP3   OH226766   1.083   6.847   6.637 -0.0044  0.1177 -0.3796
 1736TIP3    H126767   1.142   6.798   6.694 -0.9216 -0.2067  0.2963
 1736TIP3    H226768   1.008   6.790   6.624  0.1648  0.1866 -1.9089
 1737TIP3   OH226769   6.255   4.219   7.186  0.2771  0.0208  0.2276
 1737TIP3    H126770   6.283   4.181   7.269  3.6922  0.3775 -0.6203
 1737TIP3    H226771   6.288   4.158   7.119  2.9501  2.5824 -1.0090
 1738TIP3   OH226772   1.346   4.820   0.950  0.2566  0.0358  0.4964
 1738TIP3    H126773   1.346   4.828   1.045  0.3525 -1.4452  0.6420
 1738TIP3    H226774   1.421   4.765   0.930 -0.5890 -0.8812 -0.3023
 1739TIP3   OH226775   1.739   3.988   8.072  0.3564  0.2276 -0.0536
 1739TIP3    H126776   1.689   3.906   8.065 -0.0729  0.5608 -1.0312
 1739TIP3    H226777   1.812   3.976   8.012  0.1675  0.6485 -0.3668
 1740TIP3   OH226778   6.543   1.207   2.470 -0.0035 -0.3387 -0.1746
 1740TIP3    H126779   6.477   1.268   2.504  0.8731  0.1054  0.7601
 1740TIP3    H226780   6.625   1.235   2.510  0.6812 -1.1828 -0.9524
 1741TIP3   OH226781   5.223   0.866   0.698  0.0161  0.2253  0.1918
 1741TIP3    H126782   5.132   0.897   0.694  0.9674  3.3011 -0.6928
 1741TIP3    H226783   5.275   0.946   0.709  2.6140 -1.4793  1.2247
 1742TIP3   OH226784   0.025   5.664   7.936  0.4181  0.0023  0.0015
 1742TIP3    H126785   0.099   5.694   7.988  0.6601 -0.7742  0.1225
 1742TIP3    H226786   0.058   5.588   7.888 -0.4688 -0.7953  0.5906
 1743TIP3   OH226787   1.615   2.329   2.995  0.2186  0.0309  0.1809
 1743TIP3    H126788   1.594   2.306   2.905  1.2746  1.6741 -0.5409
 1743TIP3    H226789   1.577   2.259   3.048 -0.9051 -0.6726 -1.4892
 1744TIP3   OH226790   2.000   0.357   7.025  0.1803 -0.4921  0.4539
 1744TIP3    H126791   2.019   0.390   7.113 -1.5718  0.8602  0.3656
 1744TIP3    H226792   2.065   0.399   6.969  0.0096  0.2774  0.8183
 1745TIP3   OH226793   0.833   1.268   7.413 -0.4592  0.0851  0.4979
 1745TIP3    H126794   0.868   1.222   7.336  0.7905  1.4857  0.1914
 1745TIP3    H226795   0.741   1.242   7.415  0.0800 -2.1336  0.1460
 1746TIP3   OH226796   6.609   0.368   1.980  0.0433  0.0478  0.6845
 1746TIP3    H126797   6.617   0.290   2.035 -0.9997 -1.2700 -0.9367
 1746TIP3    H226798   6.697   0.405   1.979  0.5334 -1.0136  1.6011
 1747TIP3   OH226799   4.047   0.501   1.080 -0.4773  0.0198 -0.5782
 1747TIP3    H126800   4.069   0.410   1.099  0.4556  0.1654 -0.8949
 1747TIP3    H226801   3.969   0.519   1.133 -0.2702 -0.7543  0.0088
 1748TIP3   OH226802   4.205   0.706   6.881  0.0714 -0.8083  0.0433
 1748TIP3    H126803   4.149   0.719   6.957 -0.1415  0.1107 -0.2592
 1748TIP3    H226804   4.285   0.755   6.901 -0.4343  0.4086 -0.7860
 1749TIP3   OH226805   0.247   4.496   7.689  0.0018 -0.0207 -0.6176
 1749TIP3    H126806   0.321   4.528   7.636 -0.0962  0.7074 -0.3254
 1749TIP3    H226807   0.181   4.565   7.682 -0.9173 -0.9540 -1.3983
 1750TIP3   OH226808   0.710   6.451   0.922 -0.2362  0.0055 -0.3830
 1750TIP3    H126809   0.645   6.410   0.865 -1.1184  0.4688  0.2658
 1750TIP3    H226810   0.689   6.418   1.009 -0.4630  1.2149  0.0324
 1751TIP3   OH226811   1.632   5.964   0.915  0.4495 -1.1183 -0.4003
 1751TIP3    H126812   1.550   5.924   0.943 -0.1329 -0.0480 -0.5315
 1751TIP3    H226813   1.696   5.892   0.918  0.2131 -1.3157  2.6159
 1752TIP3   OH226814   5.889   0.095   8.333  0.3622 -0.5267  0.4972
 1752TIP3    H126815   5.855   0.064   8.417 -0.7789 -1.1438 -0.1725
 1752TIP3    H226816   5.878   0.021   8.274  1.1342 -0.0910 -0.2129
 1753TIP3   OH226817   1.331   1.429   0.846 -0.1494  0.9967 -0.1138
 1753TIP3    H126818   1.248   1.414   0.802 -0.5164  1.9701  0.2250
 1753TIP3    H226819   1.394   1.378   0.795 -1.3131 -1.8712  1.1207
 1754TIP3   OH226820   3.923   0.788   3.220  0.2192 -0.0704 -0.7019
 1754TIP3    H126821   3.906   0.767   3.311  2.3140 -1.3107 -0.5249
 1754TIP3    H226822   3.862   0.735   3.170 -0.6705  0.3232 -0.0504
 1755TIP3   OH226823   1.124   4.669   8.433 -0.3812  0.2146  0.0619
 1755TIP3    H126824   1.166   4.598   8.480 -1.4448  0.0556  0.8121
 1755TIP3    H226825   1.035   4.637   8.416 -0.3507  0.6983 -1.1010
 1756TIP3   OH226826   4.057   6.094   8.518  0.0572  0.7461 -0.6179
 1756TIP3    H126827   4.003   6.063   8.445 -0.9856 -0.9013  0.7876
 1756TIP3    H226828   4.041   6.032   8.588  1.6757  1.8145  0.7793
 1757TIP3   OH226829   0.039   2.210   7.232  0.0284 -0.5754  0.2526
 1757TIP3    H126830   0.099   2.140   7.258 -0.5699 -1.5920 -1.0219
 1757TIP3    H226831  -0.028   2.211   7.300 -0.5656 -2.0232 -0.2694
 1758TIP3   OH226832   3.830   4.417   8.519  0.0085  1.0931  0.0302
 1758TIP3    H126833   3.791   4.433   8.432  0.9379  0.7654 -0.4622
 1758TIP3    H226834   3.767   4.360   8.563 -0.4047  1.1410 -0.4783
 1759TIP3   OH226835   0.239   5.439   0.817 -0.3990 -0.6691 -0.4163
 1759TIP3    H126836   0.233   5.502   0.745  0.1167  0.0359  0.1449
 1759TIP3    H226837   0.161   5.385   0.808 -0.0448 -0.9943 -1.8709
 1760TIP3   OH226838   1.278   4.578   3.231  0.5447 -0.0385 -0.9211
 1760TIP3    H126839   1.328   4.500   3.256  0.7568 -0.2334 -1.9279
 1760TIP3    H226840   1.242   4.610   3.314 -1.3909 -2.4554 -0.6993
 1761TIP3   OH226841   4.137   2.942   8.112  0.7090 -0.1462 -0.2978
 1761TIP3    H126842   4.104   2.870   8.167  1.3689  0.3109  0.7195
 1761TIP3    H226843   4.059   2.974   8.066  0.4598 -1.7037 -1.0093
 1762TIP3   OH226844   2.133   1.195   0.606  0.1447 -0.0751 -0.0524
 1762TIP3    H126845   2.173   1.278   0.633  0.3439 -0.7643  1.9842
 1762TIP3    H226846   2.201   1.130   0.623 -0.7544 -0.8906  0.4958
 1763TIP3   OH226847   5.112   3.800   0.705  0.2660 -0.1098 -0.0472
 1763TIP3    H126848   5.201   3.772   0.681  0.1575 -1.4724  1.0596
 1763TIP3    H226849   5.111   3.796   0.800 -1.5206 -1.8316 -0.0959
 1764TIP3   OH226850   1.764   3.957   0.480 -0.0712  0.2475 -0.0909
 1764TIP3    H126851   1.807   4.032   0.521  2.0313 -0.9508  0.0373
 1764TIP3    H226852   1.712   3.994   0.408  0.8617  1.8027  0.0056
 1765TIP3   OH226853   6.331   6.605   8.330  0.3360  0.4865 -0.2072
 1765TIP3    H126854   6.286   6.688   8.317  0.4166  0.3799 -1.2504
 1765TIP3    H226855   6.403   6.607   8.267  0.1367 -0.5146 -0.4772
 1766TIP3   OH226856   2.091   4.628   0.179 -0.4516 -0.0212 -0.1758
 1766TIP3    H126857   2.027   4.560   0.201 -1.3492  0.8420  0.0030
 1766TIP3    H226858   2.175   4.591   0.204 -0.8745 -1.1938 -0.4074
 1767TIP3   OH226859   5.523   2.493   0.895  0.1080 -0.3523  0.7593
 1767TIP3    H126860   5.546   2.418   0.840  2.9007  0.1380  1.0898
 1767TIP3    H226861   5.489   2.558   0.834 -1.2629 -1.4463  0.3150
 1768TIP3   OH226862   0.792   4.929   0.348 -0.3535 -0.1324  0.8961
 1768TIP3    H126863   0.790   4.834   0.337 -0.0715 -0.3758  2.6280
 1768TIP3    H226864   0.854   4.943   0.420 -1.6936  1.2248  1.8290
 1769TIP3   OH226865   5.712   5.691   0.724 -0.0895  0.3548 -0.9345
 1769TIP3    H126866   5.691   5.703   0.817  0.1061  1.2405 -0.9896
 1769TIP3    H226867   5.741   5.601   0.717 -2.2844 -0.4348 -0.5548
 1770TIP3   OH226868   0.736   6.241   1.797 -0.7301  0.3404  0.1142
 1770TIP3    H126869   0.818   6.285   1.823 -0.4222 -0.2472  0.1469
 1770TIP3    H226870   0.685   6.310   1.755 -0.5082  0.8842  0.7266
 1771TIP3   OH226871   6.130   5.882   2.119  0.2132 -0.1194  0.1360
 1771TIP3    H126872   6.215   5.914   2.151 -0.5606 -0.1266  2.3774
 1771TIP3    H226873   6.144   5.788   2.105  0.3177 -0.3658  1.6503
 1772TIP3   OH226874   6.256   4.698   8.309  0.3657  0.2939 -0.3067
 1772TIP3    H126875   6.265   4.768   8.245 -0.6703 -0.2155 -1.0376
 1772TIP3    H226876   6.180   4.648   8.280  0.8179 -0.8842  0.4445
 1773TIP3   OH226877   0.385   3.048   1.385 -0.1482 -0.6636 -0.4037
 1773TIP3    H126878   0.441   3.062   1.308  1.4510  0.8747  0.9305
 1773TIP3    H226879   0.379   2.953   1.394  1.2979 -0.8760 -1.3084
 1774TIP3   OH226880   6.146   3.747   8.112 -0.4669  0.0886  0.0280
 1774TIP3    H126881   6.123   3.837   8.133  1.2801  1.2978 -2.7034
 1774TIP3    H226882   6.069   3.711   8.068 -1.6109 -0.2410  2.1705
 1775TIP3   OH226883   6.877   3.799   1.541 -0.6865 -0.0628 -0.3771
 1775TIP3    H126884   6.929   3.758   1.472 -0.0274  1.1413 -0.6098
 1775TIP3    H226885   6.889   3.741   1.617  2.1572  0.8843 -0.0040
 1776TIP3   OH226886   2.756   4.085   6.768 -0.0358  0.0124 -0.1446
 1776TIP3    H126887   2.704   4.024   6.717 -0.3856  0.4629 -0.3344
 1776TIP3    H226888   2.817   4.030   6.817  1.4591 -0.3767 -2.2863
 1777TIP3   OH226889   4.287   2.759   7.262  0.0391  0.0564  0.1849
 1777TIP3    H126890   4.351   2.689   7.245  1.3165  0.6481  2.2564
 1777TIP3    H226891   4.321   2.804   7.339 -2.5297  0.8761  0.9274
 1778TIP3   OH226892   5.652   3.588   7.327  0.1282  0.0611  0.7873
 1778TIP3    H126893   5.743   3.558   7.322  1.2212  3.0352  1.0133
 1778TIP3    H226894   5.619   3.575   7.238  1.1126 -0.0922  0.4261
 1779TIP3   OH226895   2.772   0.827   0.241  0.2312  0.0781 -0.1824
 1779TIP3    H126896   2.779   0.920   0.261 -1.1200  0.4520 -1.3122
 1779TIP3    H226897   2.685   0.802   0.273  0.0743 -0.4853 -1.0160
 1780TIP3   OH226898   0.963   4.159   2.231  0.8630  0.0338  0.3087
 1780TIP3    H126899   0.969   4.253   2.252  1.4885  0.0858 -0.0630
 1780TIP3    H226900   0.981   4.154   2.137  0.6502 -0.4437  0.2904
 1781TIP3   OH226901   4.992   0.392   1.178  0.1136  0.6042  0.2086
 1781TIP3    H126902   5.023   0.353   1.096  0.9004 -0.8609  1.1523
 1781TIP3    H226903   4.999   0.321   1.242 -2.5140  1.0581  1.1250
 1782TIP3   OH226904   0.300   0.109   7.040 -0.2503 -0.1332  0.3817
 1782TIP3    H126905   0.217   0.080   7.001 -0.0762 -3.1457  1.9888
 1782TIP3    H226906   0.365   0.048   7.008  1.6354  2.5921 -1.3997
 1783TIP3   OH226907   5.779   3.799   6.736 -0.8203 -0.3598 -0.0973
 1783TIP3    H126908   5.704   3.858   6.745 -2.0165 -1.6747 -0.8404
 1783TIP3    H226909   5.753   3.739   6.666  1.4501 -0.1370 -1.2235
 1784TIP3   OH226910   1.380   1.917   1.491 -0.1980 -0.0032 -0.1226
 1784TIP3    H126911   1.422   1.915   1.405 -0.3568  1.2151 -0.2427
 1784TIP3    H226912   1.286   1.922   1.472 -0.1772  1.7613  0.0728
 1785TIP3   OH226913   4.202   5.764   7.522  0.1839 -0.2810 -0.2942
 1785TIP3    H126914   4.185   5.810   7.440 -1.0853  1.0199  0.6451
 1785TIP3    H226915   4.216   5.833   7.586  0.6048 -1.2549  0.7055
 1786TIP3   OH226916   0.208   2.435   7.596 -0.2025  0.5343  0.3165
 1786TIP3    H126917   0.225   2.501   7.529 -1.7322 -0.6531 -1.3621
 1786TIP3    H226918   0.268   2.363   7.576 -1.2591 -0.1885 -0.3895
 1787TIP3   OH226919   1.391   1.732   2.188  0.0414  0.4466 -0.2588
 1787TIP3    H126920   1.467   1.772   2.230  0.4381  0.7666 -1.2560
 1787TIP3    H226921   1.426   1.657   2.140 -0.4857 -0.2302  0.3929
 1788TIP3   OH226922   3.545   2.200   1.701  0.0019  0.1100 -0.2885
 1788TIP3    H126923   3.586   2.250   1.771  0.3234  0.1282 -0.4859
 1788TIP3    H226924   3.596   2.120   1.696  0.0723  0.1722 -0.5979
 1789TIP3   OH226925   1.845   3.716   6.761 -0.1623  0.2242 -0.1866
 1789TIP3    H126926   1.930   3.672   6.760  0.0486  0.6336 -1.3243
 1789TIP3    H226927   1.858   3.793   6.815 -0.2621 -0.5563  0.9874
 1790TIP3   OH226928   5.856   0.471   1.473 -0.2558  0.3603  0.6144
 1790TIP3    H126929   5.833   0.559   1.503  1.1525  0.9579  0.0618
 1790TIP3    H226930   5.802   0.457   1.396 -0.3732  0.8082  0.6109
 1791TIP3   OH226931   5.092   2.914   7.781  0.4518 -0.2419  0.4009
 1791TIP3    H126932   5.145   2.959   7.715  0.5458 -0.1673  0.5272
 1791TIP3    H226933   5.147   2.842   7.811 -0.3248 -1.4775 -1.0021
 1792TIP3   OH226934   2.536   6.136   7.434 -0.7393  0.3796  0.2551
 1792TIP3    H126935   2.604   6.114   7.497  0.9945 -0.5331 -1.8089
 1792TIP3    H226936   2.542   6.231   7.424  1.2190  0.1801 -0.8765
 1793TIP3   OH226937   3.765   0.041   7.838 -0.5732 -0.3246  0.1009
 1793TIP3    H126938   3.785  -0.045   7.874 -0.1905  0.1603  1.0774
 1793TIP3    H226939   3.676   0.060   7.867 -1.3349 -1.1209 -1.5872
 1794TIP3   OH226940   2.542   3.052   0.809 -0.2430 -0.5980  0.3249
 1794TIP3    H126941   2.523   2.959   0.799  2.5864 -1.2841  0.5442
 1794TIP3    H226942   2.550   3.065   0.903  2.5593 -0.9477  0.2119
 1795TIP3   OH226943   3.537   1.139   7.589 -0.0574  0.4583  0.2815
 1795TIP3    H126944   3.497   1.095   7.513 -0.4807 -0.1818  0.8599
 1795TIP3    H226945   3.594   1.205   7.551 -0.6740  0.5068 -0.5917
 1796TIP3   OH226946   2.845   4.436   7.673 -0.6520 -0.1193  0.0291
 1796TIP3    H126947   2.773   4.474   7.724  0.4298  0.1800  1.4174
 1796TIP3    H226948   2.851   4.491   7.595 -0.1520  1.6183  1.2269
 1797TIP3   OH226949   3.999   5.083   7.083 -0.0698  0.0037  0.1553
 1797TIP3    H126950   4.062   5.037   7.026  3.0457  3.8273  0.0554
 1797TIP3    H226951   3.949   5.138   7.023 -1.2435 -0.5232  0.6172
 1798TIP3   OH226952   3.626   2.056   0.314  0.2879  0.0340 -0.1111
 1798TIP3    H126953   3.709   2.049   0.266  0.7486 -0.4153  0.7260
 1798TIP3    H226954   3.633   2.138   0.362 -0.2484  0.5732 -0.9150
 1799TIP3   OH226955   4.363   3.022   1.277 -1.0087 -0.3847  0.3578
 1799TIP3    H126956   4.444   2.994   1.319 -0.9461  0.7730  1.0686
 1799TIP3    H226957   4.359   2.973   1.195  0.2589 -0.6593  0.4469
 1800TIP3   OH226958   4.786   5.441   8.189 -0.2731  0.3850 -0.8884
 1800TIP3    H126959   4.704   5.475   8.225  0.8777  1.8056  0.4845
 1800TIP3    H226960   4.759   5.394   8.110 -2.4041  0.8206 -0.4773
 1801TIP3   OH226961   0.405   0.387   7.092  0.0905 -0.0642 -0.3718
 1801TIP3    H126962   0.363   0.308   7.057  0.1093 -0.6051  0.7778
 1801TIP3    H226963   0.452   0.424   7.017 -0.6350 -0.6571 -1.1448
 1802TIP3   OH226964   0.135   5.185   6.677  0.0202  0.7189 -0.5988
 1802TIP3    H126965   0.177   5.271   6.671  0.2415  0.5506 -1.8839
 1802TIP3    H226966   0.208   5.123   6.672 -0.2864  0.4399 -1.9183
 1803TIP3   OH226967   2.780   6.397   2.595 -0.2133  0.3027  0.2594
 1803TIP3    H126968   2.764   6.361   2.507  0.3635  0.4218  0.1035
 1803TIP3    H226969   2.731   6.339   2.653 -2.7057  1.6855 -0.3333
 1804TIP3   OH226970   5.797   2.488   6.746  0.3509 -0.5472  0.0903
 1804TIP3    H126971   5.842   2.535   6.816  2.8164  1.7653 -2.7710
 1804TIP3    H226972   5.866   2.441   6.699 -1.0093 -1.1272 -1.4513
 1805TIP3   OH226973   2.443   0.006   0.879  0.1189 -0.1019  0.0367
 1805TIP3    H126974   2.465  -0.087   0.871 -0.6850 -0.1695 -2.0041
 1805TIP3    H226975   2.505   0.050   0.820  0.5566  0.6927  1.0614
 1806TIP3   OH226976   0.077   4.832   8.281 -0.1212 -0.3065  0.9204
 1806TIP3    H126977   0.010   4.807   8.218 -1.9953 -1.1357  3.1103
 1806TIP3    H226978   0.157   4.839   8.229 -1.3999 -1.6464 -1.4036
 1807TIP3   OH226979   2.270   3.082   7.895  0.2249  0.4744  0.1179
 1807TIP3    H126980   2.284   3.175   7.881  2.3625  0.1529 -0.2323
 1807TIP3    H226981   2.258   3.046   7.808  0.1687  0.3243  0.1873
 1808TIP3   OH226982   0.469   0.774   1.214 -0.3248  0.2329 -0.1744
 1808TIP3    H126983   0.441   0.823   1.137  0.0123 -0.9639 -1.0871
 1808TIP3    H226984   0.563   0.764   1.203  0.0783  1.7795  1.4368
 1809TIP3   OH226985   3.587   0.921   7.190 -0.2690  0.8875  0.6441
 1809TIP3    H126986   3.667   0.913   7.241 -0.6492 -0.6753  1.0536
 1809TIP3    H226987   3.616   0.950   7.104  0.9997 -1.5689  0.1647
 1810TIP3   OH226988   1.143   6.213   8.208 -0.0658 -0.4500 -0.3560
 1810TIP3    H126989   1.115   6.125   8.232  1.4125 -1.1490 -1.0018
 1810TIP3    H226990   1.195   6.200   8.128  0.7362  0.9139 -0.0919
 1811TIP3   OH226991   3.136   4.160   7.554 -0.5788 -0.2999  0.6663
 1811TIP3    H126992   3.122   4.251   7.531 -0.1337 -0.2837  0.4406
 1811TIP3    H226993   3.153   4.116   7.470  2.9386  0.0878  1.0072
 1812TIP3   OH226994   2.446   1.245   1.143 -0.1779 -0.0473  0.7595
 1812TIP3    H126995   2.351   1.249   1.143 -0.1971  0.0163  2.1489
 1812TIP3    H226996   2.472   1.291   1.223  1.0915  1.2761 -0.3540
 1813TIP3   OH226997   5.381   5.555   0.668  0.1479 -0.0768 -0.3502
 1813TIP3    H126998   5.477   5.548   0.661  0.1518 -1.3423  0.5820
 1813TIP3    H226999   5.348   5.479   0.620 -0.4965  1.3379 -2.2423
 1814TIP3   OH227000   2.851   1.709   8.424 -0.2459  0.1298  0.0096
 1814TIP3    H127001   2.805   1.748   8.349 -0.0673  0.8414  0.2555
 1814TIP3    H227002   2.799   1.632   8.446 -1.2881  0.8672  0.2282
 1815TIP3   OH227003   2.920   2.795   8.149 -0.1198 -0.0247  0.0356
 1815TIP3    H127004   2.838   2.839   8.169 -0.4988 -1.1654  1.1208
 1815TIP3    H227005   2.931   2.731   8.219  2.6232  1.2839  0.9471
 1816TIP3   OH227006   0.045   2.831   8.556 -0.2958 -0.3177  0.8985
 1816TIP3    H127007  -0.034   2.848   8.606  1.0225 -0.1106  3.0234
 1816TIP3    H227008   0.076   2.745   8.587  0.0391 -0.6589 -0.3008
 1817TIP3   OH227009   3.230   0.404   1.359 -0.1227 -0.1682  0.2304
 1817TIP3    H127010   3.150   0.434   1.316  0.6232 -0.5965 -1.5521
 1817TIP3    H227011   3.263   0.334   1.302  0.3769 -1.4987  2.0868
 1818TIP3   OH227012   4.599   4.699   3.002  0.3346 -0.4949 -0.3303
 1818TIP3    H127013   4.690   4.725   2.984  0.2812  1.3477  1.6801
 1818TIP3    H227014   4.595   4.607   2.974  3.1245 -0.9647  0.5033
 1819TIP3   OH227015   6.686   4.360   8.072 -0.5862 -0.3184  0.1484
 1819TIP3    H127016   6.609   4.325   8.027 -1.4934 -0.0806  1.4453
 1819TIP3    H227017   6.743   4.284   8.084 -1.3321 -0.8330  0.5559
 1820TIP3   OH227018   5.057   0.445   8.135  0.2832  0.3763  0.0105
 1820TIP3    H127019   5.032   0.423   8.225 -0.4329  0.9670 -0.0294
 1820TIP3    H227020   4.977   0.431   8.084  0.6459  0.1883 -0.5109
 1821TIP3   OH227021   1.549   6.138   0.397  0.0538  0.5986  0.2944
 1821TIP3    H127022   1.644   6.133   0.385 -0.3163 -0.1162 -3.9368
 1821TIP3    H227023   1.530   6.232   0.395  0.6306  0.7237  0.3701
 1822TIP3   OH227024   3.673   1.574   0.356  1.4687 -1.0422  0.7039
 1822TIP3    H127025   3.752   1.615   0.319  1.0314 -1.8426 -1.2592
 1822TIP3    H227026   3.701   1.487   0.382  1.3965 -1.0778  0.6625
 1823TIP3   OH227027   6.596   0.684   8.596 -0.0450 -1.2101  0.2832
 1823TIP3    H127028   6.529   0.625   8.561 -0.8858  0.2369 -0.6500
 1823TIP3    H227029   6.664   0.687   8.528 -1.2332  0.8589 -0.9251
 1824TIP3   OH227030   2.829   1.471   2.686 -0.0645 -0.0114  0.1598
 1824TIP3    H127031   2.901   1.508   2.737  1.3426 -0.5630 -1.3301
 1824TIP3    H227032   2.756   1.464   2.748  0.5758  2.2615  1.2582
 1825TIP3   OH227033   4.366   2.593   8.253 -0.2041 -0.1117  0.3072
 1825TIP3    H127034   4.404   2.517   8.210  1.1625  0.8604 -0.2647
 1825TIP3    H227035   4.283   2.607   8.208 -0.3522 -1.1138  0.2544
 1826TIP3   OH227036   2.909   0.529   0.244 -0.0503 -0.3125 -0.6767
 1826TIP3    H127037   2.897   0.595   0.176 -1.4787  0.3204  0.1385
 1826TIP3    H227038   2.826   0.529   0.292  1.0232 -0.4640  1.2986
 1827TIP3   OH227039   0.297   6.585   1.327 -0.5178 -0.0571 -0.2950
 1827TIP3    H127040   0.267   6.529   1.255  2.0874 -0.7553 -0.9353
 1827TIP3    H227041   0.311   6.525   1.400 -1.3172  0.3583  0.2062
 1828TIP3   OH227042   6.816   1.937   8.620  0.0999 -0.2456 -0.6930
 1828TIP3    H127043   6.830   1.948   8.526  0.1005  1.1433 -0.5578
 1828TIP3    H227044   6.876   2.000   8.660 -1.5338  0.8522  0.1485
 1829TIP3   OH227045   0.971   2.889   0.272 -0.4817 -0.0619 -0.2592
 1829TIP3    H127046   0.958   2.983   0.278 -0.1089 -0.0030 -0.3478
 1829TIP3    H227047   1.025   2.867   0.348 -0.3216 -0.1586 -0.4010
 1830TIP3   OH227048   2.943   2.966   7.668  0.1081  0.1709 -0.4489
 1830TIP3    H127049   2.879   3.017   7.719  1.7114  1.3570  0.4655
 1830TIP3    H227050   2.976   2.900   7.729  1.5106  1.1375 -0.1183
 1831TIP3   OH227051   0.947   2.256   2.033  0.2571  0.1682 -0.0963
 1831TIP3    H127052   0.996   2.319   2.087 -0.1722 -0.5301  1.1469
 1831TIP3    H227053   0.875   2.229   2.089  0.1792 -1.0976 -0.7864
 1832TIP3   OH227054   2.156   1.590   0.383  0.3061  0.0872 -0.6129
 1832TIP3    H127055   2.159   1.677   0.344  0.0486 -0.7819 -2.6934
 1832TIP3    H227056   2.107   1.602   0.465  1.1233  2.0388 -0.3735
 1833TIP3   OH227057   3.157   3.800   0.630  0.7801 -0.4221  0.0562
 1833TIP3    H127058   3.155   3.838   0.718 -0.7536 -0.7177  0.1707
 1833TIP3    H227059   3.144   3.874   0.571  2.6795 -0.0850 -0.0138
 1834TIP3   OH227060   0.191   1.773   0.151 -0.2765 -0.3584 -0.2130
 1834TIP3    H127061   0.124   1.720   0.107  0.5445 -0.6061 -1.1882
 1834TIP3    H227062   0.177   1.757   0.244 -0.7088 -1.4654 -0.4585
 1835TIP3   OH227063   2.921   4.353   0.418 -0.1817 -0.1477  0.0018
 1835TIP3    H127064   2.999   4.346   0.474  0.1563 -1.1196 -0.5688
 1835TIP3    H227065   2.911   4.266   0.379 -0.6349  0.4018 -1.1624
 1836TIP3   OH227066   3.327   4.404   1.101 -0.9951  0.0063 -0.3853
 1836TIP3    H127067   3.239   4.378   1.128 -0.9136  0.0860 -0.0259
 1836TIP3    H227068   3.359   4.457   1.174 -1.1784  1.1605 -1.1199
 1837TIP3   OH227069   3.669   5.645   2.003 -0.9186 -0.1439 -0.2102
 1837TIP3    H127070   3.674   5.552   1.983  0.6738 -0.0873 -0.1555
 1837TIP3    H227071   3.609   5.650   2.078 -1.8887 -0.9818 -0.8953
 1838TIP3   OH227072   0.311   2.455   0.317 -0.0458 -0.2014 -0.7246
 1838TIP3    H127073   0.400   2.485   0.298  0.0053  0.1016 -0.0350
 1838TIP3    H227074   0.254   2.515   0.269  0.0664  0.8455  0.4038
 1839TIP3   OH227075   3.936   1.480   6.912 -0.1944  0.2254  1.2240
 1839TIP3    H127076   3.968   1.395   6.883 -1.2085 -0.1341  1.1000
 1839TIP3    H227077   3.840   1.472   6.910 -0.3364  0.5942  3.4285
 1840TIP3   OH227078   5.187   5.938   2.439  0.2201  0.6875  0.6221
 1840TIP3    H127079   5.223   6.026   2.430  1.6631 -0.0477 -2.3466
 1840TIP3    H227080   5.253   5.890   2.488  1.3411  0.4009 -1.0794
 1841TIP3   OH227081   0.629   2.115   0.085  0.2240  0.1395 -0.7445
 1841TIP3    H127082   0.662   2.130  -0.004  1.6877  2.0113  0.0446
 1841TIP3    H227083   0.568   2.187   0.099 -1.8222 -1.4395 -0.9811
 1842TIP3   OH227084   4.518   0.342   1.651 -0.0777  0.1836 -0.2546
 1842TIP3    H127085   4.546   0.413   1.594 -2.5326  0.5452 -1.1617
 1842TIP3    H227086   4.535   0.262   1.601  1.5305  0.1957  0.2445
 1843TIP3   OH227087   1.651   2.506   2.133 -0.0878  0.3930 -0.0367
 1843TIP3    H127088   1.705   2.497   2.055 -0.0082  0.9470 -0.0486
 1843TIP3    H227089   1.680   2.588   2.174 -0.1907  0.1575  0.5243
 1844TIP3   OH227090   2.027   1.701   8.190 -0.6943  0.0327  0.2131
 1844TIP3    H127091   1.982   1.748   8.260  0.1312 -1.3234  1.7228
 1844TIP3    H227092   2.020   1.758   8.114 -1.3058  1.7329  1.4864
 1845TIP3   OH227093   4.454   4.640   2.048 -0.3665 -0.5403 -0.8159
 1845TIP3    H127094   4.406   4.644   1.965 -0.5819  0.7331 -0.6535
 1845TIP3    H227095   4.387   4.653   2.115  0.0020 -0.1659 -0.5163
 1846TIP3   OH227096   0.932   2.144   8.546  0.2190 -0.3037  0.2728
 1846TIP3    H127097   0.985   2.098   8.611  0.8227  0.6113  0.4473
 1846TIP3    H227098   0.991   2.159   8.472  0.4955  1.4685  0.8022
 1847TIP3   OH227099   0.421   3.506   0.526 -0.8043  0.3561  0.0707
 1847TIP3    H127100   0.423   3.486   0.433 -0.8105  3.3629 -0.6744
 1847TIP3    H227101   0.481   3.579   0.536 -0.3946 -0.2288  2.5596
 1848TIP3   OH227102   5.564   6.187   7.554  0.7330 -0.5333 -0.0317
 1848TIP3    H127103   5.477   6.226   7.566  1.3848  0.8825  0.4019
 1848TIP3    H227104   5.550   6.113   7.495 -0.6101  0.2893 -0.7967
 1849TIP3   OH227105   4.440   3.324   1.590 -0.2091  0.0359  0.3530
 1849TIP3    H127106   4.528   3.292   1.613 -0.2795 -1.1160 -0.8900
 1849TIP3    H227107   4.449   3.419   1.589  1.8310 -0.0666 -2.5874
 1850TIP3   OH227108   3.809   3.626   7.753 -0.5835 -0.5598 -0.6928
 1850TIP3    H127109   3.846   3.690   7.814 -0.6522 -0.7438 -0.4567
 1850TIP3    H227110   3.736   3.673   7.711 -0.0067 -0.1479 -1.2648
 1851TIP3   OH227111   1.932   4.974   1.733 -0.0269 -0.2848  0.1859
 1851TIP3    H127112   1.865   5.002   1.670 -1.2476 -0.6812  1.2788
 1851TIP3    H227113   1.985   5.053   1.747 -1.2539  0.5094  0.5185
 1852TIP3   OH227114   1.918   3.144   1.437  0.3190 -0.0620  0.0629
 1852TIP3    H127115   2.010   3.169   1.449  0.5601 -1.2952  1.0243
 1852TIP3    H227116   1.868   3.216   1.477  0.9682 -0.7907  2.2979
 1853TIP3   OH227117   2.790   2.586   1.656  0.0298 -0.6242 -0.3087
 1853TIP3    H127118   2.832   2.555   1.737  0.2679  1.3040  0.3460
 1853TIP3    H227119   2.704   2.615   1.684 -0.4287 -1.2599 -1.0295
 1854TIP3   OH227120   6.768   2.277   1.772 -0.1620 -0.1652  0.7615
 1854TIP3    H127121   6.855   2.243   1.793  1.1647  3.3821  1.6164
 1854TIP3    H227122   6.715   2.256   1.849 -1.0335 -4.5961 -0.7214
 1855TIP3   OH227123   1.711   0.796   0.701 -0.4982  0.3252  0.3256
 1855TIP3    H127124   1.766   0.795   0.623  1.2973 -0.0892  1.5455
 1855TIP3    H227125   1.689   0.888   0.714 -0.7666  0.4062 -0.6120
 1856TIP3   OH227126   0.544   4.853   2.446 -0.2286  0.2838 -0.8331
 1856TIP3    H127127   0.456   4.883   2.467 -0.0669 -0.1737  0.6002
 1856TIP3    H227128   0.532   4.796   2.370 -0.6683  3.0099 -2.9590
 1857TIP3   OH227129   4.195   1.367   1.529  0.0558 -0.9248 -0.6014
 1857TIP3    H127130   4.194   1.459   1.502  1.3010 -0.5384  0.5285
 1857TIP3    H227131   4.141   1.322   1.465  0.6842  0.3597 -2.0845
 1858TIP3   OH227132   2.660   6.035   0.690  0.1599 -0.5533  0.2484
 1858TIP3    H127133   2.717   5.976   0.640 -0.7856  0.4795 -2.2419
 1858TIP3    H227134   2.719   6.077   0.753  1.3345 -2.2714  0.3669
 1859TIP3   OH227135   0.607   0.240   7.198 -0.2697  0.4625  0.2813
 1859TIP3    H127136   0.556   0.303   7.148 -1.2474 -0.1340  0.5113
 1859TIP3    H227137   0.615   0.278   7.285  2.8226  2.2895 -0.6487
 1860TIP3   OH227138   5.170   0.443   7.789 -0.2217  0.4966 -0.3471
 1860TIP3    H127139   5.077   0.465   7.797 -0.6160 -0.8611 -1.0661
 1860TIP3    H227140   5.174   0.377   7.721  1.3208  0.7236 -0.5160
 1861TIP3   OH227141   6.480   1.098   2.097  0.5797 -0.5775  0.8160
 1861TIP3    H127142   6.469   1.124   2.188  0.5272 -1.6516  1.1283
 1861TIP3    H227143   6.438   1.013   2.091 -0.9753  0.2243 -0.6414
 1862TIP3   OH227144   6.118   2.726   8.235  0.6130 -0.6256 -0.1867
 1862TIP3    H127145   6.127   2.821   8.246  0.8839 -0.8129  1.6704
 1862TIP3    H227146   6.025   2.712   8.220  0.3479 -0.1328  0.8589
 1863TIP3   OH227147   6.052   4.174   1.692  0.1693  0.0679  0.9256
 1863TIP3    H127148   6.142   4.187   1.719  0.6382  0.3112 -0.6610
 1863TIP3    H227149   6.055   4.170   1.596 -1.4502 -0.2776  0.8483
 1864TIP3   OH227150   0.830   3.129   0.657 -0.4891 -0.2136 -0.3622
 1864TIP3    H127151   0.904   3.071   0.678  1.1900  1.9697  0.2178
 1864TIP3    H227152   0.771   3.120   0.732  0.0518 -0.7269  0.0143
 1865TIP3   OH227153   1.242   5.238   0.205 -0.3648 -0.6339 -0.0065
 1865TIP3    H127154   1.189   5.184   0.147  0.1402  0.6094 -1.6817
 1865TIP3    H227155   1.179   5.291   0.254 -0.7423 -0.7819 -0.3360
 1866TIP3   OH227156   1.636   4.431   0.285 -0.0400 -0.0949 -0.0875
 1866TIP3    H127157   1.634   4.503   0.222  0.4505 -0.5863 -0.6775
 1866TIP3    H227158   1.654   4.473   0.369 -1.5453  0.6689 -0.1130
 1867TIP3   OH227159   0.319   4.266   1.077 -0.6719  0.7641  0.1564
 1867TIP3    H127160   0.378   4.242   1.149 -0.7744 -1.0389 -0.3250
 1867TIP3    H227161   0.289   4.183   1.041 -2.2279  1.6417 -0.6846
 1868TIP3   OH227162   4.736   1.666   2.159 -0.4192  0.1153 -0.0085
 1868TIP3    H127163   4.659   1.608   2.162 -0.2523 -0.2871 -2.0647
 1868TIP3    H227164   4.751   1.680   2.066  1.0193  1.5465  0.4072
 1869TIP3   OH227165   0.855   6.112   6.736 -0.4328  0.4081 -0.1410
 1869TIP3    H127166   0.785   6.134   6.797 -0.0701 -2.5795  1.5504
 1869TIP3    H227167   0.811   6.080   6.658 -0.9279  0.4881  0.1042
 1870TIP3   OH227168   4.029   6.705   0.787 -0.2278 -0.1915  0.2422
 1870TIP3    H127169   4.000   6.703   0.696  1.6410 -0.1526 -0.4018
 1870TIP3    H227170   4.093   6.777   0.790  0.2156 -0.6170  1.4206
 1871TIP3   OH227171   5.325   4.451   0.585  0.5804  0.1677 -0.0119
 1871TIP3    H127172   5.336   4.357   0.569 -2.9190 -0.1672 -1.5121
 1871TIP3    H227173   5.335   4.491   0.499 -0.8819  0.7034  0.0302
 1872TIP3   OH227174   2.919   1.560   1.178  1.0402  0.0181 -0.5231
 1872TIP3    H127175   2.889   1.649   1.196 -0.9217 -0.9453  1.4863
 1872TIP3    H227176   2.851   1.522   1.123 -0.1727 -1.3315  1.7582
 1873TIP3   OH227177   5.064   5.726   0.316 -0.0832 -0.4055 -0.2940
 1873TIP3    H127178   4.977   5.737   0.355 -0.9595 -0.1290 -2.1875
 1873TIP3    H227179   5.104   5.813   0.323 -0.2012 -0.3771  0.0534
 1874TIP3   OH227180   3.682   0.890   8.107 -0.3263  0.2101  0.0001
 1874TIP3    H127181   3.643   0.817   8.059  1.1805 -0.4388 -0.2945
 1874TIP3    H227182   3.707   0.952   8.039  0.0362  0.1753  0.1009
 1875TIP3   OH227183   0.198   0.666   8.548  0.0749 -0.2914 -0.0954
 1875TIP3    H127184   0.237   0.752   8.529 -0.2224  0.0356  0.7201
 1875TIP3    H227185   0.108   0.673   8.515  0.3482 -0.6639 -0.9687
 1876TIP3   OH227186   6.614   1.731   2.571 -0.9528 -0.3473  0.1717
 1876TIP3    H127187   6.681   1.725   2.639 -0.5132  1.1346 -0.0977
 1876TIP3    H227188   6.532   1.744   2.620 -0.8530 -0.7243  0.4480
 1877TIP3   OH227189   6.724   5.481   2.191 -0.3987  0.5793  0.1336
 1877TIP3    H127190   6.633   5.452   2.181 -0.3179  0.5679 -0.6455
 1877TIP3    H227191   6.760   5.476   2.102  0.3986  0.4679  0.4600
 1878TIP3   OH227192   1.625   1.496   0.118 -0.2209 -0.1069 -0.3111
 1878TIP3    H127193   1.673   1.427   0.072 -0.8517 -1.0172  0.3677
 1878TIP3    H227194   1.573   1.450   0.183 -1.9305  0.8505 -0.9267
 1879TIP3   OH227195   3.532   0.435   7.656 -0.2061 -0.4735  0.2659
 1879TIP3    H127196   3.488   0.500   7.602 -0.3124  0.7565  1.7726
 1879TIP3    H227197   3.624   0.438   7.627 -0.4105 -0.4119 -0.3805
 1880TIP3   OH227198   5.919   0.379   2.662 -1.0149  0.1095  0.5210
 1880TIP3    H127199   5.879   0.464   2.643 -0.1165  0.3223 -0.5032
 1880TIP3    H227200   5.969   0.394   2.743 -0.5081  0.6919  0.1148
 1881TIP3   OH227201   2.336   4.194   0.248  0.0004 -0.1351 -0.2199
 1881TIP3    H127202   2.243   4.175   0.238  0.0825  0.2079 -1.9218
 1881TIP3    H227203   2.367   4.130   0.312 -1.3983 -0.2528  0.3641
 1882TIP3   OH227204   3.105   5.378   7.496  0.2924 -0.1895  0.9268
 1882TIP3    H127205   3.078   5.465   7.468  0.4523 -0.3269  0.3183
 1882TIP3    H227206   3.039   5.319   7.459  0.2755 -0.3389  1.1940
 1883TIP3   OH227207   2.676   3.562   0.382  0.5638  0.5479  0.0405
 1883TIP3    H127208   2.715   3.512   0.454  0.2425 -0.2270 -0.3125
 1883TIP3    H227209   2.636   3.496   0.326 -0.2219  1.2334 -0.2308
 1884TIP3   OH227210   6.369   3.646   1.253  0.1481  0.0012  0.1393
 1884TIP3    H127211   6.462   3.635   1.273  0.1368  1.8453  1.4395
 1884TIP3    H227212   6.332   3.559   1.263  1.8886 -1.0217 -1.5277
 1885TIP3   OH227213   4.607   5.642   7.867  0.0241  0.6310  0.3321
 1885TIP3    H127214   4.660   5.567   7.891  1.1235  0.7529 -1.5163
 1885TIP3    H227215   4.620   5.705   7.938  0.1078 -0.4091  1.2633
 1886TIP3   OH227216   0.601   0.034   2.339  0.0832  0.4470  0.5203
 1886TIP3    H127217   0.662   0.088   2.390  0.8336 -1.4521  1.7348
 1886TIP3    H227218   0.551   0.097   2.287  0.8518  2.3011  1.9189
 1887TIP3   OH227219   5.084   4.008   8.342 -0.2584 -0.2564  0.2851
 1887TIP3    H127220   5.117   4.098   8.336  1.9334 -0.9856  0.6367
 1887TIP3    H227221   4.992   4.018   8.368 -0.2379  1.8736 -0.2694
 1888TIP3   OH227222   5.175   1.685   1.647 -0.3547 -0.4301  0.3464
 1888TIP3    H127223   5.254   1.732   1.675  0.1509 -0.6958 -0.6022
 1888TIP3    H227224   5.146   1.732   1.569 -0.1180 -1.3920 -0.3377
 1889TIP3   OH227225   4.286   0.329   1.798 -0.1966  0.4340 -0.2716
 1889TIP3    H127226   4.254   0.239   1.789 -0.4636  0.6913 -2.7878
 1889TIP3    H227227   4.374   0.326   1.761  1.0766  0.6496  2.4976
 1890TIP3   OH227228   4.392   6.749   2.022  0.3359  0.1020 -0.3057
 1890TIP3    H127229   4.365   6.837   2.051  1.5478  0.4938 -0.3084
 1890TIP3    H227230   4.463   6.765   1.960  1.1886 -0.9063  0.3771
 1891TIP3   OH227231   4.669   2.836   7.328 -0.1037 -0.6464 -0.5882
 1891TIP3    H127232   4.625   2.752   7.314 -0.2826 -0.5444 -0.6446
 1891TIP3    H227233   4.653   2.884   7.246 -2.1079  0.3941  0.3511
 1892TIP3   OH227234   6.813   0.018   1.738  0.5291  0.0942  0.0002
 1892TIP3    H127235   6.819  -0.037   1.816 -1.4432  0.2374  0.3065
 1892TIP3    H227236   6.877   0.088   1.752 -0.8470  1.0031  2.2579
 1893TIP3   OH227237   3.878   2.616   0.134  0.0252 -0.1903  0.3828
 1893TIP3    H127238   3.964   2.604   0.172 -0.1151 -2.0837  0.1789
 1893TIP3    H227239   3.895   2.632   0.041  0.2413  2.1029  0.7515
 1894TIP3   OH227240   0.305   2.598   7.368  0.4296 -0.6141  0.2859
 1894TIP3    H127241   0.341   2.514   7.336  0.4845 -0.2422 -0.6697
 1894TIP3    H227242   0.256   2.632   7.293 -0.0110 -0.0240  0.8382
 1895TIP3   OH227243   1.109   1.984   6.824  0.4715 -0.5736 -0.3067
 1895TIP3    H127244   1.148   1.967   6.909  1.6715 -0.7884 -0.8794
 1895TIP3    H227245   1.108   1.899   6.780 -0.7690 -0.6025 -0.2845
 1896TIP3   OH227246   0.291   5.336   0.327 -0.0363 -0.5454  0.6030
 1896TIP3    H127247   0.265   5.258   0.377 -1.1415 -0.1839  0.6263
 1896TIP3    H227248   0.208   5.377   0.302  0.5174  1.0346  1.2208
 1897TIP3   OH227249   5.950   3.430   0.544 -0.1870  0.0325 -0.7959
 1897TIP3    H127250   5.905   3.462   0.466 -1.3969  0.7831  0.1746
 1897TIP3    H227251   5.999   3.505   0.576 -1.9510  0.6247  0.7206
 1898TIP3   OH227252   5.900   2.491   2.164  0.1404 -0.0188  0.1418
 1898TIP3    H127253   5.992   2.510   2.147  0.7741 -1.5642  1.5329
 1898TIP3    H227254   5.895   2.395   2.166 -1.5671  0.0353 -0.2350
 1899TIP3   OH227255   0.273   1.332   2.395  0.7926  0.9378 -0.2157
 1899TIP3    H127256   0.312   1.258   2.348  0.4842  0.5310  0.1613
 1899TIP3    H227257   0.210   1.292   2.455  0.9406  1.4719  0.3068
 1900TIP3   OH227258   3.087   1.502   2.319  0.0625  0.1957  0.0069
 1900TIP3    H127259   3.110   1.411   2.341 -1.3651 -0.0306  0.6578
 1900TIP3    H227260   3.106   1.509   2.225  2.3806 -0.0446  0.3870
 1901TIP3   OH227261   6.253   6.220   7.282  0.3322 -0.2666 -0.1708
 1901TIP3    H127262   6.245   6.135   7.240  0.3285 -0.5357  0.3698
 1901TIP3    H227263   6.295   6.275   7.216  0.6612 -0.7806 -0.3972
 1902TIP3   OH227264   0.385   4.353   2.193 -0.5793 -0.0134  0.1971
 1902TIP3    H127265   0.345   4.266   2.195 -0.3593 -0.1147  1.4765
 1902TIP3    H227266   0.480   4.336   2.192 -0.5381  0.2075  0.1752
 1903TIP3   OH227267   3.298   5.550   2.328  0.3873 -0.6732  0.9074
 1903TIP3    H127268   3.205   5.529   2.330  0.5484 -1.6307 -0.2330
 1903TIP3    H227269   3.330   5.527   2.415 -0.2675 -1.2502  1.0084
 1904TIP3   OH227270   1.317   0.673   1.863  0.0425 -0.5633 -0.0883
 1904TIP3    H127271   1.245   0.613   1.884 -3.9546  3.3991 -0.8449
 1904TIP3    H227272   1.321   0.732   1.938  1.9059 -0.0855 -0.5267
 1905TIP3   OH227273   2.210   4.029   1.072 -0.0322 -0.2755  0.2305
 1905TIP3    H127274   2.293   4.061   1.036  0.0272 -1.3532 -0.6188
 1905TIP3    H227275   2.235   3.983   1.152  0.3007 -1.3418 -0.4741
 1906TIP3   OH227276   0.413   6.009   6.578 -0.0237  0.0823  0.4833
 1906TIP3    H127277   0.413   6.096   6.537  1.4839 -0.4445 -0.7486
 1906TIP3    H227278   0.321   5.986   6.588 -0.5111  0.3022 -2.5948
 1907TIP3   OH227279   6.456   0.536   2.154  0.0043  0.6400  0.5752
 1907TIP3    H127280   6.529   0.497   2.106  0.1134  0.3173  0.9918
 1907TIP3    H227281   6.491   0.617   2.190 -0.3231  1.3192 -0.5852
 1908TIP3   OH227282   4.999   0.871   1.451 -0.0051 -0.2362  0.1120
 1908TIP3    H127283   4.939   0.886   1.377  2.5817  0.9319 -1.9248
 1908TIP3    H227284   5.019   0.778   1.446  0.0828 -0.1885 -0.6682
 1909TIP3   OH227285   5.125   6.057   2.170 -0.4443 -0.3147  0.5978
 1909TIP3    H127286   5.083   6.009   2.241  0.2358 -1.0883  0.4860
 1909TIP3    H227287   5.111   6.149   2.192  1.4635 -0.4807  2.8213
 1910TIP3   OH227288   1.240   4.478   2.554  0.0177  0.5537  0.8905
 1910TIP3    H127289   1.171   4.516   2.500 -0.2989 -0.9522  0.1952
 1910TIP3    H227290   1.204   4.395   2.585  1.2105  0.1188  1.1886
 1911TIP3   OH227291   3.274   0.754   8.505  0.0384 -0.4952  0.4343
 1911TIP3    H127292   3.295   0.722   8.418  2.9874  1.2173  0.4132
 1911TIP3    H227293   3.308   0.687   8.565  0.0018 -0.6080  0.3293
 1912TIP3   OH227294   4.208   4.188   7.202  0.4051 -0.4127  0.2266
 1912TIP3    H127295   4.248   4.169   7.117 -1.1525 -2.2795 -0.1548
 1912TIP3    H227296   4.149   4.262   7.185  0.0616 -0.8083 -0.3519
 1913TIP3   OH227297   0.996   2.022   8.282 -0.0786  0.2415  0.3189
 1913TIP3    H127298   0.911   2.037   8.240 -0.4028  0.9685  1.2194
 1913TIP3    H227299   1.019   1.932   8.258 -1.0654  0.0652  0.0180
 1914TIP3   OH227300   2.298   2.303   1.453  0.7438  0.0614  0.3215
 1914TIP3    H127301   2.314   2.340   1.540 -2.9901  0.8097  0.8909
 1914TIP3    H227302   2.334   2.367   1.392  3.2279 -0.3729  1.2226
 1915TIP3   OH227303   1.987   4.677   7.214  0.3077 -0.0313  0.2816
 1915TIP3    H127304   2.021   4.629   7.290  1.7800  0.4227 -0.0600
 1915TIP3    H227305   1.988   4.769   7.243 -0.6232 -0.0016  0.2448
 1916TIP3   OH227306   0.060   6.506   0.688 -0.0079 -0.1215  0.1338
 1916TIP3    H127307   0.103   6.581   0.647  0.1881  0.5863  1.5778
 1916TIP3    H227308  -0.010   6.544   0.741 -2.2104 -1.2254 -1.7932
 1917TIP3   OH227309   0.389   1.772   7.702  0.1400  0.2733 -0.4845
 1917TIP3    H127310   0.348   1.690   7.730 -1.1800  0.9041 -0.5444
 1917TIP3    H227311   0.483   1.751   7.699 -0.1277 -1.0974 -0.0448
 1918TIP3   OH227312   4.853   3.167   0.443  0.1747 -0.3530  0.0880
 1918TIP3    H127313   4.840   3.230   0.514  0.5214  0.8019 -0.8467
 1918TIP3    H227314   4.860   3.221   0.364  1.1182 -1.5252 -0.6546
 1919TIP3   OH227315   6.246   3.942   1.574 -0.0711  0.2514  0.2140
 1919TIP3    H127316   6.227   3.952   1.667 -0.8036  0.6499  0.0316
 1919TIP3    H227317   6.165   3.968   1.530  1.5157  4.4644 -0.6991
 1920TIP3   OH227318   6.306   1.447   7.521 -0.1788 -0.0024  0.1922
 1920TIP3    H127319   6.293   1.372   7.463  0.6819  0.5511 -0.7459
 1920TIP3    H227320   6.233   1.505   7.501 -0.2146 -0.0797  0.0963
 1921TIP3   OH227321   3.291   5.570   0.793 -0.2153 -0.3261 -0.6114
 1921TIP3    H127322   3.317   5.501   0.731  2.2473  0.2307 -0.3129
 1921TIP3    H227323   3.213   5.535   0.836  0.5800 -2.6695 -0.9288
 1922TIP3   OH227324   3.876   3.923   1.807  0.2051  0.0747  0.1782
 1922TIP3    H127325   3.914   3.875   1.881 -1.2296 -0.7044  0.4367
 1922TIP3    H227326   3.933   3.902   1.733 -0.2983 -1.9320  0.3210
 1923TIP3   OH227327   2.111   1.159   2.371  0.4874 -0.7038 -0.0220
 1923TIP3    H127328   2.024   1.125   2.353  0.2328 -1.1005  1.8014
 1923TIP3    H227329   2.122   1.150   2.465  2.3598 -0.3031 -0.1551
 1924TIP3   OH227330   6.167   3.879   2.490  0.1529  0.4006 -0.4602
 1924TIP3    H127331   6.087   3.910   2.533 -0.1757  0.9791 -1.4434
 1924TIP3    H227332   6.203   3.957   2.447 -0.1034 -0.3355 -2.1014
 1925TIP3   OH227333   0.580   0.469   1.017 -0.1115  0.5783 -0.3274
 1925TIP3    H127334   0.578   0.431   1.105  1.1060 -0.4863 -0.7259
 1925TIP3    H227335   0.659   0.523   1.016 -0.1946  0.6948 -0.7315
 1926TIP3   OH227336   3.019   2.309   6.696 -0.4569 -0.4139  0.2131
 1926TIP3    H127337   2.954   2.264   6.751 -2.1132  1.4719 -0.1070
 1926TIP3    H227338   2.968   2.349   6.626  1.3697 -0.8826 -1.4849
 1927TIP3   OH227339   1.317   4.868   2.678 -0.2029 -0.3572  0.5663
 1927TIP3    H127340   1.304   4.940   2.741 -1.9237  2.8092 -3.0268
 1927TIP3    H227341   1.407   4.879   2.647 -0.5733  0.5473 -0.2315
 1928TIP3   OH227342   1.466   2.190   1.189  0.0149  0.2492 -0.1464
 1928TIP3    H127343   1.422   2.199   1.274 -0.8983 -0.8581 -0.4722
 1928TIP3    H227344   1.444   2.101   1.160 -0.5917  0.9700 -2.0386
 1929TIP3   OH227345   2.656   1.391   0.218  0.0750  0.3591 -0.2954
 1929TIP3    H127346   2.636   1.306   0.258  0.0694 -0.1484 -1.3608
 1929TIP3    H227347   2.658   1.452   0.292 -2.6097 -0.0573  0.2211
 1930TIP3   OH227348   5.767   3.374   6.791 -0.1246 -0.1205 -0.6443
 1930TIP3    H127349   5.793   3.414   6.874 -2.4332 -0.1500  0.1828
 1930TIP3    H227350   5.793   3.438   6.724  1.3382  0.1161  0.1151
 1931TIP3   OH227351   1.685   2.845   0.988  0.0221 -0.0690 -0.1365
 1931TIP3    H127352   1.684   2.776   1.054  0.7426  1.0199  1.0537
 1931TIP3    H227353   1.772   2.842   0.950  0.2728  0.5856  0.3711
 1932TIP3   OH227354   3.576   2.581   1.985 -0.3228 -0.0412 -0.2458
 1932TIP3    H127355   3.664   2.574   2.022 -0.2464 -1.8578 -0.6779
 1932TIP3    H227356   3.580   2.657   1.928  1.0968 -0.3410 -0.5829
 1933TIP3   OH227357   1.929   5.424   0.454 -0.2148  0.3424 -0.0233
 1933TIP3    H127358   1.854   5.468   0.495  1.6943  0.9231  3.2066
 1933TIP3    H227359   1.891   5.350   0.408 -2.9345  1.7298 -0.2436
 1934TIP3   OH227360   5.157   5.115   0.420  0.0162 -0.2500  0.5670
 1934TIP3    H127361   5.145   5.039   0.363  0.9999 -0.5066  0.6804
 1934TIP3    H227362   5.086   5.174   0.396  0.4040 -0.3501 -0.9423
 1935TIP3   OH227363   6.293   2.825   0.393  0.0350 -0.4134  0.9120
 1935TIP3    H127364   6.259   2.754   0.447  1.7310 -2.1890 -0.2034
 1935TIP3    H227365   6.364   2.785   0.343  0.7194  1.9647 -0.1750
 1936TIP3   OH227366   1.717   5.376   1.825 -0.4740  0.4138  0.2024
 1936TIP3    H127367   1.745   5.386   1.734  0.2964 -0.5291  0.3100
 1936TIP3    H227368   1.793   5.335   1.869 -1.8658 -1.9433  0.5968
 1937TIP3   OH227369   6.202   2.608   0.899  0.0045  0.1325 -0.3508
 1937TIP3    H127370   6.248   2.600   0.983 -0.6995  1.6803  0.2193
 1937TIP3    H227371   6.124   2.659   0.920 -0.8910 -0.6347 -1.7084
 1938TIP3   OH227372   0.375   3.035   0.415  0.1520  0.1764  0.0407
 1938TIP3    H127373   0.378   3.098   0.487  0.5824 -0.4610  0.5967
 1938TIP3    H227374   0.452   3.055   0.363  0.9919 -0.6626  0.9094
 1939TIP3   OH227375   6.851   4.467   1.650  0.4352 -0.3639 -0.1127
 1939TIP3    H127376   6.773   4.504   1.692 -0.1598 -0.6294 -0.9609
 1939TIP3    H227377   6.920   4.475   1.716 -0.2739  0.0089  0.5971
 1940TIP3   OH227378   1.378   4.831   0.645 -0.1457 -0.4167  0.5709
 1940TIP3    H127379   1.443   4.861   0.709  2.3750 -0.7324 -1.6858
 1940TIP3    H227380   1.336   4.911   0.614  0.6246 -0.0010  0.5832
 1941TIP3   OH227381   0.138   0.001   8.157  0.6916 -0.1817  0.0061
 1941TIP3    H127382   0.093  -0.046   8.086 -0.7625  0.1312  0.7052
 1941TIP3    H227383   0.095  -0.028   8.237  0.8472  1.1334  0.5933
 1942TIP3   OH227384   2.391   1.441   2.579  0.6493  0.5206  0.2855
 1942TIP3    H127385   2.425   1.521   2.619 -0.7679  0.3677  1.9127
 1942TIP3    H227386   2.379   1.381   2.652  0.1166 -0.5914 -0.6862
 1943TIP3   OH227387   4.334   5.591   0.836  0.5748 -0.5135 -0.1586
 1943TIP3    H127388   4.387   5.551   0.767  2.4387  0.8536  0.3808
 1943TIP3    H227389   4.317   5.680   0.805 -0.7979 -0.7041  0.0127
 1944TIP3   OH227390   5.218   6.169   0.602 -0.1701  0.7814  0.1795
 1944TIP3    H127391   5.130   6.131   0.598  0.7350 -1.4084 -0.6731
 1944TIP3    H227392   5.255   6.137   0.684  0.4961  0.0561 -0.3901
 1945TIP3   OH227393   4.463   6.076   8.259 -0.7479  0.0798  0.0525
 1945TIP3    H127394   4.401   6.149   8.263  0.9198  1.5173  1.1342
 1945TIP3    H227395   4.484   6.067   8.166 -3.8438 -1.6742 -0.6335
 1946TIP3   OH227396   6.092   6.210   1.809  0.0618 -0.1428  0.1907
 1946TIP3    H127397   6.102   6.292   1.761 -3.2561  0.2789  0.0065
 1946TIP3    H227398   6.100   6.234   1.901  1.2114 -0.0520  0.0890
 1947TIP3   OH227399   4.357   4.405   8.358 -0.5434 -0.0922  0.1489
 1947TIP3    H127400   4.364   4.392   8.452  0.9179 -1.5551 -0.1276
 1947TIP3    H227401   4.279   4.460   8.347  0.3251  1.7138  2.3090
 1948TIP3   OH227402   4.315   1.884   0.545  0.6016 -0.8736  1.0747
 1948TIP3    H127403   4.304   1.808   0.488 -2.5140  1.0281 -1.2244
 1948TIP3    H227404   4.257   1.865   0.620 -1.9009 -0.0409 -0.5199
 1949TIP3   OH227405   1.573   1.543   8.061 -0.2910 -0.8547  0.4837
 1949TIP3    H127406   1.482   1.541   8.033 -0.1442  1.4572 -0.3536
 1949TIP3    H227407   1.606   1.455   8.044 -1.6528 -1.0073 -1.7186
 1950TIP3   OH227408   5.346   3.256   1.325  0.4462 -0.2217  0.2292
 1950TIP3    H127409   5.368   3.164   1.312  2.6763  0.4736 -1.6384
 1950TIP3    H227410   5.259   3.266   1.287 -0.5485 -1.8165  1.9249
 1951TIP3   OH227411   6.826   5.292   1.256  0.0287  0.6625 -0.2103
 1951TIP3    H127412   6.813   5.260   1.167  1.0301  2.7203 -1.1551
 1951TIP3    H227413   6.878   5.224   1.299 -1.5911 -0.9778 -0.7239
 1952TIP3   OH227414   0.713   5.187   7.504  0.2299 -0.4286  0.0101
 1952TIP3    H127415   0.794   5.228   7.473  0.2332  0.3325  0.9685
 1952TIP3    H227416   0.738   5.099   7.529  0.1250 -1.2835 -2.5843
 1953TIP3   OH227417   1.048   0.998   1.691  0.0242 -0.4166  0.5198
 1953TIP3    H127418   1.011   0.910   1.702 -1.3275  0.2448  1.7724
 1953TIP3    H227419   1.066   1.027   1.781 -0.1638  0.8058  0.1818
 1954TIP3   OH227420   2.827   0.633   1.405  0.2173  0.5273  0.5960
 1954TIP3    H127421   2.878   0.714   1.400 -0.8635  1.3609  2.3763
 1954TIP3    H227422   2.737   0.660   1.391 -0.2158 -0.2896  1.7085
 1955TIP3   OH227423   3.372   2.020   0.586 -0.0772 -0.5032 -0.3606
 1955TIP3    H127424   3.317   2.075   0.531 -0.9130 -0.8390  0.1174
 1955TIP3    H227425   3.433   1.978   0.525  1.2978  1.7086 -0.6284
 1956TIP3   OH227426   3.413   1.218   3.003  0.7869  0.0301 -0.0541
 1956TIP3    H127427   3.338   1.181   3.051  0.8767  0.4650  0.4293
 1956TIP3    H227428   3.376   1.290   2.952  1.0999  1.2308  1.3405
 1957TIP3   OH227429   0.313   3.234   0.605 -0.0170 -1.0555  0.4066
 1957TIP3    H127430   0.230   3.242   0.652  0.2445 -1.7461  1.0136
 1957TIP3    H227431   0.358   3.317   0.620 -1.7960  0.5642 -2.3922
 1958TIP3   OH227432   4.489   2.089   1.245 -0.1025  0.3727 -0.3893
 1958TIP3    H127433   4.555   2.158   1.237  1.2239 -0.8755 -0.5385
 1958TIP3    H227434   4.519   2.019   1.187  0.1753 -1.5343  1.8896
 1959TIP3   OH227435   2.818   6.391   1.308  0.5602  0.4494  0.0383
 1959TIP3    H127436   2.910   6.405   1.331  0.8603  0.7268 -1.2326
 1959TIP3    H227437   2.778   6.477   1.316  0.6211  0.5083 -0.2799
 1960TIP3   OH227438   6.674   3.886   1.202  0.3845 -0.2177 -0.2714
 1960TIP3    H127439   6.678   3.791   1.215  1.6045  0.0446  1.7112
 1960TIP3    H227440   6.621   3.897   1.124  2.4241 -2.6445 -2.1601
 1961TIP3   OH227441   1.294   0.477   6.603  0.6418 -0.5644 -0.0620
 1961TIP3    H127442   1.283   0.472   6.698 -2.0674 -0.6416 -0.2963
 1961TIP3    H227443   1.343   0.398   6.580 -1.8141 -2.5528  0.9815
 1962TIP3   OH227444   0.441   2.827   7.443  0.1367 -0.0196  0.1023
 1962TIP3    H127445   0.407   2.748   7.401  1.3557  0.3294 -1.7025
 1962TIP3    H227446   0.379   2.847   7.512 -1.3184 -1.3974 -0.7438
 1963TIP3   OH227447   0.985   6.387   0.277 -0.1660 -0.0782  0.5530
 1963TIP3    H127448   1.027   6.467   0.245 -0.6379  0.1739  0.5614
 1963TIP3    H227449   1.008   6.321   0.213  1.5829 -0.3207  1.3758
 1964TIP3   OH227450   3.559   0.347   2.697  0.5310  0.4296 -0.1191
 1964TIP3    H127451   3.609   0.268   2.718  0.5089  1.1506  3.1192
 1964TIP3    H227452   3.474   0.314   2.668  1.0080 -0.7348 -0.2402
 1965TIP3   OH227453   0.200   5.187   2.082  0.1250  0.0312  0.2526
 1965TIP3    H127454   0.150   5.151   2.009  0.2111  2.2976 -1.0199
 1965TIP3    H227455   0.287   5.151   2.072 -0.3000 -1.0490  0.3032
 1966TIP3   OH227456   3.517   2.599   0.497  0.1204 -0.2080  0.6425
 1966TIP3    H127457   3.463   2.520   0.507  1.1177 -0.8545  1.0546
 1966TIP3    H227458   3.454   2.671   0.503 -0.7456 -0.9504  0.7702
 1967TIP3   OH227459   6.719   2.982   7.760 -0.2136  0.3766 -0.0050
 1967TIP3    H127460   6.637   2.939   7.737 -0.4942  1.4113 -1.0381
 1967TIP3    H227461   6.751   3.018   7.677  0.7889  0.8137  0.5588
 1968TIP3   OH227462   1.396   1.536   2.484  1.0799 -0.8525 -0.3619
 1968TIP3    H127463   1.439   1.576   2.409  1.0487 -1.9278 -0.9789
 1968TIP3    H227464   1.314   1.502   2.448 -0.1009  0.7414  0.6836
 1969TIP3   OH227465   3.330   6.842   1.587 -0.7825  0.3339 -0.2698
 1969TIP3    H127466   3.334   6.839   1.682 -0.1949 -1.6359 -0.3315
 1969TIP3    H227467   3.397   6.906   1.562 -0.3111  0.1838  0.5858
 1970TIP3   OH227468   5.230   3.003   7.575 -0.0847 -0.4743 -0.1121
 1970TIP3    H127469   5.318   2.986   7.607 -0.3919 -0.5591  0.6931
 1970TIP3    H227470   5.241   3.012   7.480  0.9237  0.4139  0.0677
 1971TIP3   OH227471   1.343   6.061   2.218 -0.0158  0.1065  0.1169
 1971TIP3    H127472   1.258   6.057   2.260 -0.2694 -1.3309 -0.4643
 1971TIP3    H227473   1.367   6.154   2.219 -1.3478  0.4594  0.7232
 1972TIP3   OH227474   6.669   6.437   8.390 -0.2925 -0.1722  0.1432
 1972TIP3    H127475   6.668   6.524   8.428  0.2863  0.4362 -1.1610
 1972TIP3    H227476   6.735   6.441   8.321 -1.1025 -1.2769 -0.7512
 1973TIP3   OH227477   1.590   2.235   1.854 -0.5871 -0.0629 -0.8611
 1973TIP3    H127478   1.678   2.200   1.867  0.0122  1.7707  0.4155
 1973TIP3    H227479   1.532   2.170   1.892 -0.0560 -2.3629 -3.6067
 1974TIP3   OH227480   4.740   3.858   0.431 -0.0874  0.2843 -0.6010
 1974TIP3    H127481   4.709   3.927   0.490  0.9014  2.5461 -2.5247
 1974TIP3    H227482   4.661   3.824   0.390 -0.8196 -1.5804  2.1583
 1975TIP3   OH227483   1.722   3.469   7.391  0.2558 -0.1882  0.2932
 1975TIP3    H127484   1.730   3.500   7.301 -0.4979  1.2397  0.6939
 1975TIP3    H227485   1.646   3.410   7.389  0.0974  0.0206  0.0322
 1976TIP3   OH227486   6.116   6.524   7.092  0.0397  0.5322 -0.4139
 1976TIP3    H127487   6.137   6.570   7.011 -0.1778  2.3561  0.5281
 1976TIP3    H227488   6.025   6.547   7.110  0.0466  0.0320  0.2913
 1977TIP3   OH227489   0.043   0.238   7.824  0.3998 -0.4647  0.2413
 1977TIP3    H127490   0.071   0.178   7.894  1.9128 -0.1655 -0.0628
 1977TIP3    H227491   0.017   0.180   7.752 -0.3554 -0.7628  0.7353
 1978TIP3   OH227492   6.791   4.096   0.866 -0.4433 -0.2218 -0.4979
 1978TIP3    H127493   6.790   4.001   0.865 -1.5289 -0.2500  0.7655
 1978TIP3    H227494   6.706   4.122   0.831 -0.4733  0.2466 -0.0989
 1979TIP3   OH227495   1.755   3.506   0.135  0.3148 -0.1599  0.2735
 1979TIP3    H127496   1.730   3.453   0.059  0.1151  1.7046 -1.0119
 1979TIP3    H227497   1.839   3.469   0.163 -0.2143 -1.6824 -0.0188
 1980TIP3   OH227498   5.642   4.593   8.548  0.2605 -0.4218 -0.1035
 1980TIP3    H127499   5.616   4.685   8.545  1.0169 -0.1776  0.5264
 1980TIP3    H227500   5.657   4.575   8.640  1.2668 -0.8361 -0.3265
 1981TIP3   OH227501   6.406   0.071   7.059  0.4166  0.2755 -0.0086
 1981TIP3    H127502   6.316   0.103   7.065 -0.5391 -2.4636  2.2003
 1981TIP3    H227503   6.454   0.123   7.124 -0.3722 -0.3947  1.1628
 1982TIP3   OH227504   4.888   2.290   0.526  0.7816 -0.2436 -0.1616
 1982TIP3    H127505   4.971   2.250   0.500  1.4289  0.6829  0.4192
 1982TIP3    H227506   4.875   2.362   0.464  1.0989  0.4465  0.5581
 1983TIP3   OH227507   1.413   2.613   7.648  0.4982  0.2387  0.0105
 1983TIP3    H127508   1.411   2.590   7.740  1.0836  0.1409  0.0027
 1983TIP3    H227509   1.438   2.532   7.603 -0.0836  0.2062 -0.2591
 1984TIP3   OH227510   4.342   2.443   0.250 -0.9229 -0.0912 -0.5728
 1984TIP3    H127511   4.434   2.426   0.228 -0.2993  3.4258 -1.3820
 1984TIP3    H227512   4.345   2.473   0.341 -1.2892 -0.2050 -0.5243
 1985TIP3   OH227513   4.364   3.354   7.223  0.5710 -0.3636 -0.2141
 1985TIP3    H127514   4.377   3.439   7.265  1.4059 -0.4239 -0.3333
 1985TIP3    H227515   4.269   3.340   7.226  0.4185  0.5884 -0.2305
 1986TIP3   OH227516   0.018   5.538   2.395 -0.1428  0.0962  0.2208
 1986TIP3    H127517   0.096   5.516   2.345  0.1201 -0.6417  0.9493
 1986TIP3    H227518  -0.055   5.513   2.338  0.0793  2.3007 -1.1636
 1987TIP3   OH227519   0.000   5.245   8.447  0.3578  0.1961 -0.4180
 1987TIP3    H127520  -0.064   5.313   8.466  1.0388  0.5102  0.9012
 1987TIP3    H227521  -0.045   5.184   8.388 -0.4057  1.5404 -1.2795
 1988TIP3   OH227522   2.666   2.947   8.255 -0.1559 -0.4594  0.4377
 1988TIP3    H127523   2.726   3.009   8.295 -0.1005 -0.1224 -0.1642
 1988TIP3    H227524   2.588   2.998   8.234 -0.2920 -0.6957  0.3580
 1989TIP3   OH227525   5.493   0.579   1.951  0.1690 -0.6804  0.2165
 1989TIP3    H127526   5.539   0.496   1.963 -1.4059 -1.6014  0.0425
 1989TIP3    H227527   5.409   0.555   1.913 -0.9522  0.8447  1.5998
 1990TIP3   OH227528   6.413   2.443   2.074 -0.2369 -0.1159  0.2709
 1990TIP3    H127529   6.417   2.387   2.152  1.3354 -0.8146 -0.2637
 1990TIP3    H227530   6.323   2.431   2.041 -0.8547  0.0146  1.8189
 1991TIP3   OH227531   0.506   6.194   8.169  0.2572  0.3312 -0.7883
 1991TIP3    H127532   0.567   6.229   8.234  1.4577  1.3214 -2.3757
 1991TIP3    H227533   0.462   6.272   8.134 -0.7954 -0.2404 -0.7618
 1992TIP3   OH227534   2.104   5.913   1.341  0.3896 -0.3271  0.2082
 1992TIP3    H127535   2.107   5.830   1.389 -3.9125 -0.5927  0.4592
 1992TIP3    H227536   2.062   5.974   1.402 -0.3637  0.8031 -1.3704
 1993TIP3   OH227537   5.490   4.925   1.786 -0.7516  0.5725  0.3897
 1993TIP3    H127538   5.476   4.942   1.693  1.1891  2.4841  0.3714
 1993TIP3    H227539   5.419   4.865   1.810 -0.7185 -0.8151 -2.5246
 1994TIP3   OH227540   3.561   5.098   1.537  0.2823 -0.2221  0.1155
 1994TIP3    H127541   3.512   5.163   1.587 -0.1966 -0.1121 -0.4868
 1994TIP3    H227542   3.653   5.116   1.559  0.2783  1.5444 -1.0434
 1995TIP3   OH227543   2.607   4.826   0.406  0.5712 -0.0458  0.2152
 1995TIP3    H127544   2.584   4.781   0.487  1.2708 -0.0573  0.4109
 1995TIP3    H227545   2.699   4.806   0.392  0.5090  0.1144 -0.4844
 1996TIP3   OH227546   6.010   2.333   8.608  0.3774 -0.2526  0.1240
 1996TIP3    H127547   6.053   2.325   8.523  0.4058  2.8402 -0.2752
 1996TIP3    H227548   6.080   2.356   8.669  0.0162 -0.0812  0.4842
 1997TIP3   OH227549   2.078   6.115   7.084  0.2818  0.1286  0.6968
 1997TIP3    H127550   2.001   6.068   7.053  1.1694 -1.5323  0.8598
 1997TIP3    H227551   2.077   6.198   7.037 -0.4752 -0.7246 -0.8658
 1998TIP3   OH227552   6.521   1.083   7.912  0.1629 -0.0728  0.1629
 1998TIP3    H127553   6.498   1.065   7.821 -0.9203  0.6327  0.2740
 1998TIP3    H227554   6.480   1.167   7.930  1.4800  0.4282  0.9204
 1999TIP3   OH227555   2.196   4.759   7.901 -0.3415 -0.3290 -0.4087
 1999TIP3    H127556   2.159   4.670   7.904  0.5280 -0.6950 -0.0982
 1999TIP3    H227557   2.142   4.806   7.838 -1.1262 -0.9398 -0.2052
 2000TIP3   OH227558   3.217   5.991   7.585 -0.2038 -0.5165  0.5523
 2000TIP3    H127559   3.126   5.980   7.556 -0.1825  1.0334 -0.2495
 2000TIP3    H227560   3.209   6.034   7.670 -0.2511 -4.5091  2.7986
 2001TIP3   OH227561   0.008   6.765   7.940 -0.0961 -0.1058 -0.7276
 2001TIP3    H127562  -0.024   6.784   7.851  0.4831 -1.9931 -1.3970
 2001TIP3    H227563  -0.038   6.684   7.965  0.5313 -0.1649  0.2668
 2002TIP3   OH227564   2.809   6.278   6.752  0.3950 -0.0458 -0.2752
 2002TIP3    H127565   2.715   6.284   6.731  0.1249 -1.6942  0.3144
 2002TIP3    H227566   2.841   6.206   6.698  1.0278 -0.3734  0.5276
 2003TIP3   OH227567   0.518   5.557   2.156  0.1345  0.0726 -0.1537
 2003TIP3    H127568   0.516   5.467   2.186  1.8648  0.2332  0.5614
 2003TIP3    H227569   0.534   5.609   2.235 -0.9392  1.0351 -0.5333
 2004TIP3   OH227570   3.617   4.923   0.711 -0.1229 -0.0167  0.2038
 2004TIP3    H127571   3.644   5.015   0.705 -0.3394  0.0191 -0.3526
 2004TIP3    H227572   3.608   4.896   0.619 -0.3145 -0.5166  0.3705
 2005TIP3   OH227573   2.372   2.704   2.344  0.2800  0.8669  0.5401
 2005TIP3    H127574   2.349   2.797   2.350  1.2693  1.0395  2.4719
 2005TIP3    H227575   2.337   2.665   2.424 -1.1041 -0.7139 -0.7484
 2006TIP3   OH227576   3.276   0.601   2.445 -0.3125  0.4366  0.1944
 2006TIP3    H127577   3.230   0.585   2.528 -0.8304 -0.4759 -0.2587
 2006TIP3    H227578   3.318   0.687   2.458 -1.5807  0.9881  0.8620
 2007TIP3   OH227579   2.189   5.080   1.953 -0.1374  0.1326  0.2585
 2007TIP3    H127580   2.189   4.992   1.915  1.5850  0.5951 -0.9879
 2007TIP3    H227581   2.278   5.091   1.988 -0.0805  1.6096 -0.2734
 2008TIP3   OH227582   5.874   3.533   0.286 -0.1167 -0.3168  0.1531
 2008TIP3    H127583   5.886   3.520   0.192  1.1049  1.8823 -0.0617
 2008TIP3    H227584   5.818   3.610   0.292  1.2111  0.5912  1.2093
 2009TIP3   OH227585   0.647   1.123   0.266 -0.1381 -0.1622 -0.0277
 2009TIP3    H127586   0.661   1.200   0.322 -0.3362  1.0382 -1.5466
 2009TIP3    H227587   0.559   1.135   0.231  0.1107 -0.6825 -0.8700
 2010TIP3   OH227588   5.704   0.880   1.060  0.7795 -0.0664  0.4062
 2010TIP3    H127589   5.647   0.864   1.135  1.3639  0.5047  0.9886
 2010TIP3    H227590   5.684   0.970   1.034  2.4386  0.6886  1.5587
 2011TIP3   OH227591   0.489   5.766   8.479 -0.3618 -0.3952 -0.1632
 2011TIP3    H127592   0.568   5.763   8.425  0.0937  1.0944  0.3839
 2011TIP3    H227593   0.432   5.698   8.441  1.2124 -1.5930 -0.4637
 2012TIP3   OH227594   3.484   6.030   0.468 -0.2915 -0.0575 -0.2012
 2012TIP3    H127595   3.480   6.118   0.507  1.1729 -0.2597  0.4637
 2012TIP3    H227596   3.396   5.994   0.482  0.5182 -0.7565  4.5430
 2013TIP3   OH227597   5.443   5.930   0.548 -0.0662  0.4243 -0.1318
 2013TIP3    H127598   5.489   5.851   0.518 -0.7391  0.3296 -0.9764
 2013TIP3    H227599   5.379   5.898   0.612  1.4398  0.6373  1.5508
 2014TIP3   OH227600   4.578   5.252   2.420 -0.4666  0.1894 -0.1932
 2014TIP3    H127601   4.649   5.220   2.477 -2.4683 -1.7991  1.3493
 2014TIP3    H227602   4.564   5.342   2.448  1.6003  0.7255 -0.7282
 2015TIP3   OH227603   2.907   0.662   6.593 -0.6540  0.1907 -0.1566
 2015TIP3    H127604   2.990   0.620   6.572 -0.0822  1.4228 -0.4415
 2015TIP3    H227605   2.848   0.590   6.615  0.1153 -0.7984 -1.2252
 2016TIP3   OH227606   4.022   0.452   3.310 -0.0491 -0.3766  0.4183
 2016TIP3    H127607   4.073   0.371   3.323  0.3455  0.1460  2.3043
 2016TIP3    H227608   4.089   0.518   3.292 -0.2888 -0.2033  0.1583
 2017TIP3   OH227609   2.684   4.322   6.892  0.3977  0.2224  0.1853
 2017TIP3    H127610   2.715   4.247   6.842 -0.5953  2.1064 -3.5728
 2017TIP3    H227611   2.745   4.392   6.872 -0.0421  1.0929  1.7208
 2018TIP3   OH227612   5.518   3.662   0.117  0.3068  0.1294 -0.0236
 2018TIP3    H127613   5.534   3.740   0.064 -1.0987  0.5328  0.1011
 2018TIP3    H227614   5.483   3.696   0.200 -1.4992 -0.6444 -0.4146
 2019TIP3   OH227615   5.564   4.330   7.464  0.2712  0.0172 -0.5561
 2019TIP3    H127616   5.649   4.306   7.427  0.7347  0.8798 -0.0999
 2019TIP3    H227617   5.510   4.349   7.387  0.3095 -1.0803 -0.8699
 2020TIP3   OH227618   5.629   4.389   7.104  0.0637 -0.0211 -0.0859
 2020TIP3    H127619   5.558   4.371   7.165 -0.3977 -1.7427 -1.0494
 2020TIP3    H227620   5.662   4.475   7.129 -1.2549  0.0752  1.4423
 2021TIP3   OH227621   4.891   4.676   1.868 -0.2646 -0.1053  1.4257
 2021TIP3    H127622   4.920   4.609   1.806 -1.0646  0.4514  0.4223
 2021TIP3    H227623   4.939   4.656   1.949  0.6284 -0.9845  0.7066
 2022TIP3   OH227624   5.366   5.139   7.321 -0.1572  0.2148 -0.1312
 2022TIP3    H127625   5.272   5.159   7.316 -0.3707 -0.7532 -0.1500
 2022TIP3    H227626   5.384   5.089   7.242 -0.2587 -2.0251  1.1712
 2023TIP3   OH227627   3.610   6.807   0.718  0.2514  0.1435 -0.3528
 2023TIP3    H127628   3.633   6.895   0.687  0.5642  0.0946 -0.2636
 2023TIP3    H227629   3.520   6.816   0.751  0.0975  0.3094 -0.8101
 2024TIP3   OH227630   5.408   4.979   1.546 -0.1273  0.6041  0.2171
 2024TIP3    H127631   5.389   5.071   1.562 -1.5303  0.6340 -1.3574
 2024TIP3    H227632   5.467   4.978   1.471 -1.4315  0.2215 -0.8527
 2025TIP3   OH227633   1.258   3.232   0.965 -1.0059  0.3322 -0.1601
 2025TIP3    H127634   1.305   3.315   0.964  2.1756 -1.3315 -0.4294
 2025TIP3    H227635   1.241   3.214   1.057 -0.1638  0.4817  0.0232
 2026TIP3   OH227636   6.577   0.463   0.645 -0.2422  0.1800  0.1793
 2026TIP3    H127637   6.673   0.468   0.635 -0.3093  1.6134  0.1113
 2026TIP3    H227638   6.564   0.395   0.711  1.0089  2.0113  2.4643
 2027TIP3   OH227639   3.746   0.155   1.061  0.1537  0.1022 -0.2968
 2027TIP3    H127640   3.705   0.224   1.113 -0.0376  1.0627 -1.6587
 2027TIP3    H227641   3.691   0.078   1.076 -1.2222  0.9421 -0.8142
 2028TIP3   OH227642   6.526   3.852   1.581  0.0070 -0.0797 -0.5725
 2028TIP3    H127643   6.439   3.891   1.571  0.5227  1.2438 -0.0050
 2028TIP3    H227644   6.586   3.922   1.558  0.9735 -0.4180  0.8486
 2029TIP3   OH227645   3.652   2.670   6.944 -0.4920 -0.2940  0.0786
 2029TIP3    H127646   3.602   2.682   6.862 -2.6094  0.4644  1.3908
 2029TIP3    H227647   3.638   2.578   6.967  2.0914 -1.1966 -1.5455
 2030TIP3   OH227648   6.257   0.505   1.522  0.3179  0.4348  0.2420
 2030TIP3    H127649   6.281   0.538   1.436  0.7994 -0.4698  0.0157
 2030TIP3    H227650   6.291   0.569   1.584 -0.5773  1.4175 -0.2492
 2031TIP3   OH227651   0.111   0.701   8.163 -0.2326  0.6219  0.1384
 2031TIP3    H127652   0.166   0.622   8.162  0.0312  0.7909 -2.0018
 2031TIP3    H227653   0.044   0.684   8.097  1.3766  3.1850 -2.3676
 2032TIP3   OH227654   4.254   2.254   1.964 -0.6138 -0.6401 -0.8701
 2032TIP3    H127655   4.305   2.335   1.958 -2.6602  0.8532  0.5182
 2032TIP3    H227656   4.267   2.225   2.054 -1.9881 -0.3576 -0.5661
 2033TIP3   OH227657   4.750   5.858   7.191 -0.1402 -0.1101  0.5467
 2033TIP3    H127658   4.746   5.881   7.098  0.6712  0.6311  0.6778
 2033TIP3    H227659   4.660   5.863   7.222 -0.2154  1.2366  0.1577
 2034TIP3   OH227660   6.140   1.433   2.673  0.1203 -0.2928  0.4409
 2034TIP3    H127661   6.155   1.448   2.580  1.4350 -0.0249  0.6752
 2034TIP3    H227662   6.162   1.517   2.715 -0.7759 -0.3043  0.9808
 2035TIP3   OH227663   6.554   4.045   0.705  0.3628 -0.3389  0.0919
 2035TIP3    H127664   6.483   4.063   0.643  1.3628 -2.0580 -1.6675
 2035TIP3    H227665   6.611   3.985   0.658  1.8667 -0.6900  2.2613
 2036TIP3   OH227666   6.742   6.078   1.689 -0.0892  0.7767  0.3904
 2036TIP3    H127667   6.768   6.163   1.654  1.0588 -0.5365 -2.2559
 2036TIP3    H227668   6.678   6.045   1.627  1.7429 -1.5188 -0.4468
 2037TIP3   OH227669   3.881   0.365   1.738  0.2687  0.2258 -0.1346
 2037TIP3    H127670   3.932   0.353   1.658  0.9559 -0.5426  0.4145
 2037TIP3    H227671   3.799   0.404   1.707  0.8280  0.6693 -1.1224
 2038TIP3   OH227672   4.406   0.497   0.806 -0.3256  0.0055  0.3111
 2038TIP3    H127673   4.435   0.447   0.882  0.7165 -0.2637 -0.2302
 2038TIP3    H227674   4.445   0.451   0.731  1.2880  1.9871 -0.1614
 2039TIP3   OH227675   3.508   0.710   0.665  0.3070  0.5620 -0.2327
 2039TIP3    H127676   3.455   0.708   0.584  0.2275  1.3756 -0.2071
 2039TIP3    H227677   3.481   0.631   0.712  1.5024 -0.8044 -1.7076
 2040TIP3   OH227678   2.368   5.771   1.808 -0.1723 -0.0932  0.2814
 2040TIP3    H127679   2.281   5.770   1.848 -1.0769  0.1391 -1.5415
 2040TIP3    H227680   2.362   5.704   1.739  0.3461  1.3760 -1.2595
 2041TIP3   OH227681   2.181   2.311   2.369  0.2025 -0.1159 -0.0139
 2041TIP3    H127682   2.251   2.270   2.319 -0.1178 -1.4059  0.5656
 2041TIP3    H227683   2.146   2.241   2.425 -0.8944  0.7400  0.4217
 2042TIP3   OH227684   0.782   4.094   0.211 -0.0061  0.0596 -0.1623
 2042TIP3    H127685   0.687   4.080   0.218  0.1364 -0.3463  1.1954
 2042TIP3    H227686   0.820   4.011   0.240  0.7882  1.0899  1.9459
 2043TIP3   OH227687   4.206   5.160   0.949 -0.1966  0.0440  0.2823
 2043TIP3    H127688   4.264   5.085   0.936  1.3045  1.2449 -0.3097
 2043TIP3    H227689   4.163   5.143   1.032 -1.7440 -2.6138 -0.9240
 2044TIP3   OH227690   0.607   4.260   8.493 -0.6062 -0.6412  0.8618
 2044TIP3    H127691   0.521   4.291   8.466 -1.0289 -0.6038  2.1833
 2044TIP3    H227692   0.618   4.295   8.582  0.0209 -2.0957  1.3856
 2045TIP3   OH227693   5.585   4.039   0.784  0.1236  0.0243 -0.0071
 2045TIP3    H127694   5.672   4.035   0.824  0.1534  1.6449  0.1185
 2045TIP3    H227695   5.543   3.957   0.811  2.2308 -1.7345 -1.6052
 2046TIP3   OH227696   2.328   3.652   1.937  0.1172  0.1919 -0.0502
 2046TIP3    H127697   2.373   3.735   1.924 -0.6544  0.3377 -2.0778
 2046TIP3    H227698   2.248   3.659   1.886 -0.8279 -1.1622  1.1567
 2047TIP3   OH227699   5.798   2.191   7.987 -0.8922  0.2880  0.0507
 2047TIP3    H127700   5.719   2.162   7.942 -1.7328  0.1754  1.5559
 2047TIP3    H227701   5.812   2.281   7.957 -1.4456  0.2252 -0.4036
 2048TIP3   OH227702   5.658   1.236   2.846  0.3969 -0.1747  0.4665
 2048TIP3    H127703   5.749   1.260   2.833 -0.0543  0.7212 -1.3095
 2048TIP3    H227704   5.661   1.143   2.869  1.7989  0.0882  1.4908
 2049TIP3   OH227705   6.430   5.129   6.737 -0.2292 -0.0219  0.7946
 2049TIP3    H127706   6.512   5.108   6.692 -2.9080 -2.8147 -3.6107
 2049TIP3    H227707   6.413   5.221   6.716  1.5906  0.5534  1.6720
 2050TIP3   OH227708   4.923   1.327   2.203 -1.0568  0.0800  0.5800
 2050TIP3    H127709   4.831   1.319   2.177 -0.7573 -1.8058 -0.0391
 2050TIP3    H227710   4.945   1.242   2.241  0.3051  0.6769  1.1906
 2051TIP3   OH227711   6.137   4.423   7.404  0.9817 -0.1535 -0.1795
 2051TIP3    H127712   6.124   4.364   7.330  0.4550 -0.9253  0.5200
 2051TIP3    H227713   6.232   4.420   7.420  0.9709 -0.7600 -0.1968
 2052TIP3   OH227714   2.085   3.010   2.588  0.2103  0.5756 -0.2307
 2052TIP3    H127715   2.003   3.059   2.597  0.1705  0.2808  1.3134
 2052TIP3    H227716   2.146   3.072   2.547  0.3573  2.2259  2.2463
 2053TIP3   OH227717   4.577   3.304   0.828  0.4388  0.5147 -0.1871
 2053TIP3    H127718   4.589   3.211   0.812  1.1443  0.1561  2.0285
 2053TIP3    H227719   4.483   3.314   0.842  0.0486  0.5642 -2.5048
 2054TIP3   OH227720   5.690   5.554   7.584  0.0022 -0.0864 -0.0274
 2054TIP3    H127721   5.603   5.514   7.589  0.1700 -0.6342 -1.3120
 2054TIP3    H227722   5.744   5.490   7.540  0.8283  0.6601 -0.1256
 2055TIP3   OH227723   4.333   5.820   0.665 -0.3727 -0.0268 -0.1616
 2055TIP3    H127724   4.274   5.895   0.673  1.0778  1.1219  0.1759
 2055TIP3    H227725   4.411   5.856   0.622  0.2242 -1.4309 -0.2945
 2056TIP3   OH227726   3.167   1.217   7.539  0.0074 -0.1457  0.0651
 2056TIP3    H127727   3.100   1.190   7.476 -1.9174 -0.1659  2.0420
 2056TIP3    H227728   3.213   1.289   7.495 -1.2164 -0.1975 -1.3898
 2057TIP3   OH227729   2.103   2.167   8.324  0.1608 -0.3468 -0.2383
 2057TIP3    H127730   2.122   2.090   8.378 -0.6975 -0.6589 -0.3685
 2057TIP3    H227731   2.010   2.159   8.303  0.0232  0.8026 -0.1271
 2058TIP3   OH227732   5.621   0.444   0.467 -0.7925  0.0215  0.0280
 2058TIP3    H127733   5.610   0.535   0.495 -2.0230 -0.7282  2.2354
 2058TIP3    H227734   5.706   0.443   0.424  0.6133  1.6879  2.4764
 2059TIP3   OH227735   0.750   2.851   1.445  0.1437 -0.3878 -0.0620
 2059TIP3    H127736   0.757   2.871   1.538 -0.6488 -0.9125  0.1215
 2059TIP3    H227737   0.714   2.762   1.442  1.6255 -1.0015 -0.8625
 2060TIP3   OH227738   5.766   1.596   7.370  0.2454 -0.0571 -0.2660
 2060TIP3    H127739   5.860   1.611   7.354  0.0673  0.1498 -1.1541
 2060TIP3    H227740   5.740   1.533   7.303 -0.0673 -0.7904  0.5316
 2061TIP3   OH227741   6.081   3.786   0.925  0.4233 -0.0405  0.2307
 2061TIP3    H127742   6.040   3.782   1.012  0.8210 -3.4437  0.4225
 2061TIP3    H227743   6.171   3.758   0.940  0.4627 -0.8056 -1.2761
 2062TIP3   OH227744   3.359   6.145   8.090  0.5775 -0.3414 -0.1265
 2062TIP3    H127745   3.325   6.057   8.105 -1.7689  1.0519  4.2039
 2062TIP3    H227746   3.454   6.135   8.098  0.3137 -2.3678  1.1710
 2063TIP3   OH227747   3.049   2.057   6.975 -0.1378 -0.1986  0.4915
 2063TIP3    H127748   2.971   2.021   7.018  0.6166 -2.2563  0.2722
 2063TIP3    H227749   3.041   2.151   6.985 -2.1914 -0.4080  1.2731
 2064TIP3   OH227750   5.367   5.186   8.337  0.2068  0.3720 -0.2007
 2064TIP3    H127751   5.303   5.201   8.406 -0.0033 -2.3054  0.2928
 2064TIP3    H227752   5.324   5.218   8.258 -1.4981 -0.6624  0.2413
 2065TIP3   OH227753   0.847   4.117   8.571 -0.4679 -0.4010 -0.7608
 2065TIP3    H127754   0.831   4.097   8.663  0.5412 -1.8135 -0.8594
 2065TIP3    H227755   0.769   4.165   8.542 -0.4099  0.8636  1.0323
 2066TIP3   OH227756   1.250   3.131   0.392  0.2133  0.7718  0.0797
 2066TIP3    H127757   1.226   3.039   0.405  0.1628  0.4792 -1.8203
 2066TIP3    H227758   1.336   3.127   0.349  0.0480  1.5963 -0.3398
 2067TIP3   OH227759   1.188   0.106   7.656 -0.5882 -0.3936 -0.6817
 2067TIP3    H127760   1.113   0.068   7.610 -0.2459 -1.4492 -0.4020
 2067TIP3    H227761   1.265   0.068   7.612 -0.2459 -0.3428 -0.1331
 2068TIP3   OH227762   5.904   2.187   2.104 -0.1354  0.0496  0.7545
 2068TIP3    H127763   5.898   2.112   2.162 -1.7683  0.9870  1.8804
 2068TIP3    H227764   5.851   2.164   2.028  0.8269 -0.6081  0.2636
 2069TIP3   OH227765   1.630   3.741   2.611 -0.1427  0.2806  0.6217
 2069TIP3    H127766   1.694   3.749   2.541 -0.9131  2.2495  0.0740
 2069TIP3    H227767   1.648   3.656   2.651  2.5185  0.5752  0.2265
 2070TIP3   OH227768   3.196   5.881   1.960  0.3307 -0.1805  0.0446
 2070TIP3    H127769   3.239   5.796   1.964  1.8479  0.5838  0.5351
 2070TIP3    H227770   3.265   5.944   1.978 -0.6358  1.2124 -0.9334
 2071TIP3   OH227771   5.706   4.143   6.992 -0.4574 -0.0817  0.5984
 2071TIP3    H127772   5.786   4.176   6.951 -0.3366  0.2906  1.1241
 2071TIP3    H227773   5.669   4.219   7.038 -1.0568 -0.2738  0.4475
 2072TIP3   OH227774   0.977   4.392   8.615 -0.0689  0.1483 -0.1161
 2072TIP3    H127775   0.916   4.388   8.688 -1.0840 -0.5858 -0.9822
 2072TIP3    H227776   1.017   4.305   8.612  0.0238  0.1981 -0.4001
 2073TIP3   OH227777   3.334   0.202   7.439  0.0569 -0.1207  0.7028
 2073TIP3    H127778   3.338   0.115   7.478 -0.7645 -0.1600  0.7064
 2073TIP3    H227779   3.311   0.260   7.511  1.3256  0.2278  0.8654
 2074TIP3   OH227780   1.625   3.103   0.900  0.6567 -0.2388 -0.0195
 2074TIP3    H127781   1.644   3.009   0.906 -0.1271 -0.4638 -0.8100
 2074TIP3    H227782   1.533   3.107   0.874  0.3352  0.7744  1.1669
 2075TIP3   OH227783   3.912   5.959   0.548 -0.1876  0.0187 -0.3811
 2075TIP3    H127784   3.850   6.003   0.606 -1.0642 -1.9241  0.2648
 2075TIP3    H227785   3.862   5.887   0.510  0.7029  0.5603 -2.7193
 2076TIP3   OH227786   6.530   5.384   1.221 -0.1999 -0.0784  0.6960
 2076TIP3    H127787   6.588   5.338   1.160 -1.1172  1.5757 -1.5672
 2076TIP3    H227788   6.587   5.446   1.266  0.3961 -0.9677  1.2046
 2077TIP3   OH227789   3.309   5.098   1.393  0.6080 -0.0347  0.0455
 2077TIP3    H127790   3.318   5.070   1.302  2.7433 -0.7112  0.3978
 2077TIP3    H227791   3.395   5.134   1.416 -0.1687  0.9943  1.5223
 2078TIP3   OH227792   0.175   6.374   6.861 -0.3551  0.3689 -0.2760
 2078TIP3    H127793   0.264   6.371   6.895 -0.6324  1.4539  0.6176
 2078TIP3    H227794   0.136   6.449   6.905 -2.3816 -1.3019  0.9302
 2079TIP3   OH227795   5.002   3.957   1.929 -0.1130 -0.6028  0.6023
 2079TIP3    H127796   4.982   3.864   1.930 -0.8621 -0.4445  1.0763
 2079TIP3    H227797   4.964   3.991   2.009  0.0659  0.1347  0.3858
 2080TIP3   OH227798   2.526   0.753   0.971 -0.2272  0.0465 -0.3498
 2080TIP3    H127799   2.445   0.803   0.962 -1.1473 -1.5848 -2.0822
 2080TIP3    H227800   2.499   0.672   1.015  0.3104 -0.7486 -1.4238
 2081TIP3   OH227801   1.381   3.720   0.585  0.1429  0.2103  1.1414
 2081TIP3    H127802   1.468   3.732   0.622  0.9519  0.0407 -0.6157
 2081TIP3    H227803   1.394   3.657   0.514 -1.0772  1.5088 -0.2931
 2082TIP3   OH227804   2.325   1.299   6.899  0.3551  0.2900 -0.0790
 2082TIP3    H127805   2.317   1.208   6.871 -1.6203  0.3388  0.1875
 2082TIP3    H227806   2.295   1.350   6.824 -2.7649  0.5006  1.1649
 2083TIP3   OH227807   4.754   0.564   8.243 -0.2907 -0.4108 -0.3257
 2083TIP3    H127808   4.794   0.538   8.326  0.5669 -3.1637 -1.5099
 2083TIP3    H227809   4.732   0.657   8.256  1.1492 -0.3386  2.4216
 2084TIP3   OH227810   6.576   6.069   1.459 -0.1526  0.8167 -0.1536
 2084TIP3    H127811   6.534   6.021   1.531 -1.5534  1.1819 -0.7035
 2084TIP3    H227812   6.642   6.009   1.426  0.5842  0.6756  1.4897
 2085TIP3   OH227813   3.083   2.365   0.549 -0.8070 -0.4035  0.3836
 2085TIP3    H127814   3.102   2.452   0.583 -1.5798 -1.2656  3.3209
 2085TIP3    H227815   3.022   2.381   0.477  0.9770  1.5517 -0.8343
 2086TIP3   OH227816   2.405   3.803   7.645  0.3230  0.3026 -0.3074
 2086TIP3    H127817   2.490   3.847   7.638  0.5302 -0.2301 -1.4780
 2086TIP3    H227818   2.368   3.808   7.557 -0.0308 -1.0498 -0.2677
 2087TIP3   OH227819   4.665   4.830   7.279 -0.1506  0.4096  0.1659
 2087TIP3    H127820   4.641   4.749   7.323  3.3034 -0.9895 -0.2297
 2087TIP3    H227821   4.600   4.841   7.210 -1.2937 -1.4356  0.8903
 2088TIP3   OH227822   3.790   1.275   7.539 -0.2551  0.0796  0.7364
 2088TIP3    H127823   3.880   1.267   7.571 -0.1704 -0.7474  0.3173
 2088TIP3    H227824   3.782   1.367   7.514 -0.2186  0.6813  2.7637
 2089TIP3   OH227825   6.002   2.213   0.991 -0.4682  1.0574 -0.5785
 2089TIP3    H127826   6.039   2.278   0.931  0.2119  1.5244  0.3135
 2089TIP3    H227827   5.932   2.260   1.037 -2.0228  0.2643 -2.0402
 2090TIP3   OH227828   4.316   2.537   0.928 -0.0828  0.4494 -0.5096
 2090TIP3    H127829   4.279   2.561   1.013 -0.1751  1.5804 -0.8507
 2090TIP3    H227830   4.319   2.619   0.879  1.2901  0.0789 -1.1040
 2091TIP3   OH227831   5.059   1.218   0.424  0.0958  0.3972 -0.4367
 2091TIP3    H127832   5.131   1.168   0.386 -0.0850  0.6512 -1.1363
 2091TIP3    H227833   5.098   1.302   0.447  0.5826 -0.3012  1.4559
 2092TIP3   OH227834   2.226   2.958   1.898  0.4110 -0.1080  0.4086
 2092TIP3    H127835   2.177   3.031   1.936 -1.7305 -0.2619 -1.8020
 2092TIP3    H227836   2.282   2.998   1.833 -0.6115 -0.3578 -0.6590
 2093TIP3   OH227837   5.409   1.798   1.734 -0.6945  0.1891  0.4423
 2093TIP3    H127838   5.479   1.821   1.672 -1.9103 -1.6099 -1.7460
 2093TIP3    H227839   5.455   1.755   1.807  0.7530  2.1280  0.7548
 2094TIP3   OH227840   5.838   2.554   7.814 -0.0973 -0.7812 -0.1595
 2094TIP3    H127841   5.849   2.579   7.906  2.6065 -1.1825 -0.2865
 2094TIP3    H227842   5.913   2.497   7.795 -0.0968 -0.0461 -2.8403
 2095TIP3   OH227843   6.548   6.043   1.905 -0.1464 -0.1489  0.6962
 2095TIP3    H127844   6.568   6.019   1.996 -0.3941  1.8817  1.3463
 2095TIP3    H227845   6.634   6.048   1.863  0.1961  1.2460  1.4899
 2096TIP3   OH227846   2.565   4.687   0.824 -0.7634 -0.0074 -0.1070
 2096TIP3    H127847   2.509   4.642   0.887 -0.6506 -1.4729 -1.0091
 2096TIP3    H227848   2.538   4.653   0.739 -0.9900  2.0165 -0.9129
 2097TIP3   OH227849   1.422   6.340   7.723 -0.1323  0.0217 -0.1093
 2097TIP3    H127850   1.386   6.413   7.773 -2.4573 -0.1354 -1.4114
 2097TIP3    H227851   1.507   6.371   7.692 -0.3120  1.4933  0.8009
 2098TIP3   OH227852   4.960   6.115   0.019 -0.1281 -0.0791  0.2183
 2098TIP3    H127853   4.944   6.195  -0.031  2.5657  0.0790 -0.5680
 2098TIP3    H227854   4.986   6.146   0.106  1.2136 -0.0192 -0.1748
 2099TIP3   OH227855   5.261   3.296   0.947  0.0441 -0.3296 -0.1127
 2099TIP3    H127856   5.277   3.214   0.993  0.9243 -1.1066 -1.7135
 2099TIP3    H227857   5.348   3.326   0.920 -0.4262  0.1546 -1.1553
 2100TIP3   OH227858   2.975   0.099   2.661 -0.0198 -0.8898  0.2192
 2100TIP3    H127859   2.979   0.183   2.707  1.5294 -1.2096  0.7122
 2100TIP3    H227860   2.964   0.034   2.731  2.1824 -1.3668  0.1870
 2101TIP3   OH227861   0.818   1.810   2.758 -0.3244 -0.1640  0.3807
 2101TIP3    H127862   0.897   1.859   2.781 -0.1765 -0.3432  0.2630
 2101TIP3    H227863   0.754   1.877   2.734  0.2126 -0.0427 -0.8309
 2102TIP3   OH227864   3.703   3.748   2.131 -0.3440 -0.3085  0.3265
 2102TIP3    H127865   3.670   3.708   2.211 -1.6397 -1.4735 -0.7224
 2102TIP3    H227866   3.780   3.696   2.108 -1.1430 -1.2892 -0.2219
 2103TIP3   OH227867   3.861   0.294   8.495 -0.2279 -0.4556 -0.6099
 2103TIP3    H127868   3.794   0.325   8.435 -0.9208 -1.1174 -0.2014
 2103TIP3    H227869   3.839   0.336   8.578 -0.3077 -0.8865 -0.4098
 2104TIP3   OH227870   4.595   6.136   2.319 -0.1653  0.3614 -0.2181
 2104TIP3    H127871   4.608   6.041   2.312 -0.0328  0.4528 -1.4989
 2104TIP3    H227872   4.558   6.149   2.406 -0.2375 -0.8723 -0.0453
 2105TIP3   OH227873   5.759   0.716   1.554  0.1921  0.2447 -0.5485
 2105TIP3    H127874   5.703   0.733   1.630 -1.8946  0.4804 -2.0390
 2105TIP3    H227875   5.805   0.799   1.539 -0.1591  0.5156 -0.1546
 2106TIP3   OH227876   1.243   4.911   3.321 -0.8695 -0.7717  0.3568
 2106TIP3    H127877   1.334   4.886   3.335 -0.1087  0.4435 -1.7671
 2106TIP3    H227878   1.238   5.002   3.352 -1.3578 -0.8622  0.5419
 2107TIP3   OH227879   2.339   1.353   2.327 -0.1093 -0.3501  0.2431
 2107TIP3    H127880   2.365   1.367   2.418 -0.4577  0.5323  0.2225
 2107TIP3    H227881   2.243   1.355   2.329 -0.1574 -1.7425  0.0571
 2108TIP3   OH227882   3.827   6.688   6.850 -0.0949  0.0447  0.5925
 2108TIP3    H127883   3.773   6.723   6.778  1.5163 -0.4698 -0.9400
 2108TIP3    H227884   3.803   6.742   6.925  0.2650  2.6485 -1.0076
 2109TIP3   OH227885   1.621   4.552   2.154 -0.1303  0.1753  0.6134
 2109TIP3    H127886   1.567   4.475   2.171  0.4679 -0.5427 -0.6286
 2109TIP3    H227887   1.622   4.600   2.237 -0.1449 -1.3857  1.5476
 2110TIP3   OH227888   3.670   1.727   2.640 -0.0189 -0.2980 -0.0942
 2110TIP3    H127889   3.668   1.736   2.545  1.5005  2.1089 -0.0084
 2110TIP3    H227890   3.733   1.657   2.656  1.0440  0.4191 -0.9054
 2111TIP3   OH227891   2.925   6.810   2.854  0.0398 -0.8782 -0.1556
 2111TIP3    H127892   2.863   6.820   2.927 -0.2598 -1.0252 -0.3874
 2111TIP3    H227893   3.011   6.816   2.895 -0.1219 -0.1608  0.1086
 2112TIP3   OH227894   1.611   1.839   1.988  0.1126 -0.0766 -0.2034
 2112TIP3    H127895   1.683   1.838   1.924  0.4967  0.2918  0.2166
 2112TIP3    H227896   1.539   1.795   1.943  0.1970  0.6829 -1.1132
 2113TIP3   OH227897   2.140   1.145   2.631 -0.1019  0.0449 -0.4484
 2113TIP3    H127898   2.188   1.214   2.677  0.2859 -0.9936  0.7560
 2113TIP3    H227899   2.183   1.064   2.658 -0.9557 -0.7235 -1.3356
 2114TIP3   OH227900   2.293   2.879   1.084  0.2707  0.0912 -0.2202
 2114TIP3    H127901   2.199   2.897   1.091  0.4704  0.6123  2.1430
 2114TIP3    H227902   2.298   2.785   1.068 -0.6388  0.2758 -1.7876
 2115TIP3   OH227903   6.469   6.807   1.651 -0.1473 -0.4428  0.1284
 2115TIP3    H127904   6.398   6.818   1.587 -1.7517  0.3035  1.9450
 2115TIP3    H227905   6.452   6.721   1.690 -0.6718  0.1613  1.2629
 2116TIP3   OH227906   5.010   6.303   8.076  0.1289 -0.0311  0.1237
 2116TIP3    H127907   5.036   6.286   7.985 -0.8350 -0.2843 -0.1200
 2116TIP3    H227908   5.017   6.397   8.086 -1.5820  0.2540 -0.8334
 2117TIP3   OH227909   2.719   0.461   8.594  0.4400 -0.1550  0.3041
 2117TIP3    H127910   2.764   0.529   8.544 -1.3259  0.9807  0.1441
 2117TIP3    H227911   2.715   0.386   8.535 -0.2997  0.6690 -0.7369
 2118TIP3   OH227912   1.095   3.491   0.174  0.2008  0.1256 -0.1726
 2118TIP3    H127913   1.065   3.528   0.256  2.6654 -1.6460  1.6957
 2118TIP3    H227914   1.125   3.566   0.122 -3.3768  1.4990 -0.5173
 2119TIP3   OH227915   4.603   6.789   1.875 -0.1337  0.2821  0.3436
 2119TIP3    H127916   4.688   6.766   1.838 -0.6684 -0.6789 -0.3298
 2119TIP3    H227917   4.616   6.875   1.915  0.6772  0.9881 -1.3601
 2120TIP3   OH227918   5.697   6.764   0.371  0.4931 -0.3397 -0.1239
 2120TIP3    H127919   5.630   6.801   0.313  0.5875  1.7321  1.0132
 2120TIP3    H227920   5.674   6.796   0.458 -0.7738 -4.8401  1.5088
 2121TIP3   OH227921   3.993   0.556   2.424  0.3527 -0.3987 -0.2338
 2121TIP3    H127922   3.994   0.604   2.341 -0.2598  0.3538  0.1739
 2121TIP3    H227923   3.908   0.512   2.426 -0.4793  1.1503  0.8237
 2122TIP3   OH227924   2.655   1.712   0.729 -0.2667  0.4915  0.0561
 2122TIP3    H127925   2.582   1.715   0.667  0.6937 -0.8566 -1.2120
 2122TIP3    H227926   2.630   1.772   0.799 -2.8836 -0.4561  0.0156
 2123TIP3   OH227927   0.564   0.104   2.960  0.6373  0.1353  0.3076
 2123TIP3    H127928   0.477   0.078   2.928  0.4899 -0.4713  1.1567
 2123TIP3    H227929   0.549   0.189   3.003  0.5666  0.2820 -0.0058
 2124TIP3   OH227930   5.301   5.177   0.014  0.4775 -0.2820  0.0040
 2124TIP3    H127931   5.310   5.265   0.049  0.3621  0.3168 -1.3954
 2124TIP3    H227932   5.220   5.180  -0.038  0.7249 -1.0567 -0.4477
 2125TIP3   OH227933   1.072   0.850   1.075  0.3573 -0.2884 -0.3138
 2125TIP3    H127934   1.120   0.815   1.000 -0.0359 -0.6214 -0.4147
 2125TIP3    H227935   1.123   0.823   1.151  0.7992  0.1185 -0.4599
 2126TIP3   OH227936   1.283   4.187   0.169  0.1478  0.0090  0.0121
 2126TIP3    H127937   1.294   4.178   0.074  2.0539 -0.8133  0.2691
 2126TIP3    H227938   1.213   4.124   0.190  1.7875 -2.1195 -0.5076
 2127TIP3   OH227939   0.005   6.424   1.135 -0.8800 -0.0910 -0.0035
 2127TIP3    H127940  -0.009   6.474   1.216  0.1179 -1.2430  0.9222
 2127TIP3    H227941  -0.054   6.465   1.072 -0.4799  1.9035  0.8353
 2128TIP3   OH227942   0.305   5.965   1.184 -0.1322 -0.4724  0.8907
 2128TIP3    H127943   0.305   5.965   1.088  0.0862  0.5899  0.8704
 2128TIP3    H227944   0.272   6.052   1.207 -2.3094 -1.4712  1.8146
 2129TIP3   OH227945   3.444   6.272   0.590  0.0301 -0.3475 -0.3714
 2129TIP3    H127946   3.487   6.341   0.641 -2.2802  2.5175 -2.0065
 2129TIP3    H227947   3.351   6.281   0.609 -0.4778 -2.2246 -1.6114
 2130TIP3   OH227948   3.509   1.276   8.522 -0.1761  0.0813  0.4176
 2130TIP3    H127949   3.430   1.321   8.492 -0.0745  1.2947  1.8393
 2130TIP3    H227950   3.490   1.183   8.509 -0.9735  0.4446 -1.2299
 2131TIP3   OH227951   5.602   6.061   7.890  0.0697  0.5175  0.3425
 2131TIP3    H127952   5.588   6.054   7.984 -1.8099 -1.2782 -0.0025
 2131TIP3    H227953   5.514   6.060   7.853  0.7685  1.3500 -1.4608
 2132TIP3   OH227954   1.979   3.531   2.225 -0.0620  0.3213  0.7898
 2132TIP3    H127955   2.038   3.602   2.200 -0.5485 -0.0542 -1.7295
 2132TIP3    H227956   2.037   3.458   2.248  0.4569  0.6195  0.4393
 2133TIP3   OH227957   4.053   1.028   7.168 -0.3243  0.3704 -0.2785
 2133TIP3    H127958   4.046   0.939   7.135  0.9693 -0.0335  0.4909
 2133TIP3    H227959   4.127   1.066   7.120  0.6322  0.2497  1.0459
 2134TIP3   OH227960   4.488   1.053   2.018  0.0958  1.1681 -0.1150
 2134TIP3    H127961   4.544   0.986   2.056 -0.0984  0.2592 -1.3850
 2134TIP3    H227962   4.429   1.005   1.959 -0.3956  2.3880 -0.6521
 2135TIP3   OH227963   6.263   0.317   1.287  0.6086 -0.7000 -0.2068
 2135TIP3    H127964   6.268   0.316   1.382  0.4098 -1.3696 -0.1946
 2135TIP3    H227965   6.177   0.353   1.268  1.2484  0.9147 -0.1800
 2136TIP3   OH227966   6.376   3.382   1.318  0.1876 -0.6117 -0.1995
 2136TIP3    H127967   6.463   3.357   1.287 -0.2074  0.1026 -2.0447
 2136TIP3    H227968   6.316   3.323   1.273 -0.3317 -0.5465  0.3928
 2137TIP3   OH227969   2.396   3.552   2.318 -0.3773 -0.3508  0.2460
 2137TIP3    H127970   2.407   3.644   2.340 -0.0038 -0.1571 -0.7038
 2137TIP3    H227971   2.372   3.510   2.401 -0.0793  0.5132  0.7811
 2138TIP3   OH227972   6.593   3.262   0.742 -0.8691 -0.1643 -0.1451
 2138TIP3    H127973   6.621   3.189   0.797 -0.1036  0.8595  0.8769
 2138TIP3    H227974   6.510   3.233   0.704 -1.2147 -1.0915  1.2222
 2139TIP3   OH227975   2.914   5.209   1.755  0.1507  0.1511 -0.8375
 2139TIP3    H127976   2.821   5.208   1.733 -0.0473  1.5357 -0.2056
 2139TIP3    H227977   2.923   5.282   1.816  1.4938 -0.5548 -0.1365
 2140TIP3   OH227978   5.808   1.304   8.619  0.1862 -0.0274 -0.0812
 2140TIP3    H127979   5.780   1.353   8.541 -1.0715 -0.6940 -0.0725
 2140TIP3    H227980   5.891   1.264   8.592  0.9244  1.5447 -0.2991
 2141TIP3   OH227981   1.905   0.006   2.260 -0.0044  0.6126 -0.6765
 2141TIP3    H127982   1.892  -0.053   2.185 -0.6323  1.4167 -1.2114
 2141TIP3    H227983   1.906  -0.053   2.336  3.1787 -0.5489 -1.4273
 2142TIP3   OH227984   6.755   6.615   0.859 -0.2438 -0.4973 -0.2766
 2142TIP3    H127985   6.794   6.666   0.930 -0.3706  0.3280 -0.7817
 2142TIP3    H227986   6.681   6.668   0.829 -0.9174 -1.3987 -0.2400
 2143TIP3   OH227987   4.473   2.909   1.002 -0.0095 -0.1807 -0.0729
 2143TIP3    H127988   4.434   2.871   0.923  0.0792  1.1360 -0.7704
 2143TIP3    H227989   4.562   2.871   1.004  0.0287 -0.1338 -0.6701
 2144TIP3   OH227990   2.336   6.229   0.812 -0.4127  0.4597 -0.0799
 2144TIP3    H127991   2.283   6.282   0.872 -0.1755  0.2143  0.3454
 2144TIP3    H227992   2.289   6.146   0.804 -1.1122  0.9434 -1.2322
 2145TIP3   OH227993   0.895   1.177   8.448  0.5729  0.3336 -0.2418
 2145TIP3    H127994   0.908   1.159   8.355 -2.6926 -1.0876 -0.5727
 2145TIP3    H227995   0.963   1.126   8.492  1.1796 -0.2595 -1.8020
 2146TIP3   OH227996   5.598   1.068   8.373 -0.2537  0.4954 -0.0374
 2146TIP3    H127997   5.639   1.154   8.378  2.0371 -0.2949 -2.6433
 2146TIP3    H227998   5.639   1.018   8.444  0.7206  0.7494 -0.3949
 2147TIP3   OH227999   4.691   1.403   0.707 -0.2490  0.4777 -0.8517
 2147TIP3    H128000   4.747   1.336   0.669  1.6689 -0.1589  2.6865
 2147TIP3    H228001   4.746   1.482   0.710 -0.3299  0.5044  0.5070
 2148TIP3   OH228002   3.006   3.592   0.731 -0.8616  0.3062  0.0541
 2148TIP3    H128003   3.005   3.519   0.669  0.8095 -0.3611  0.7566
 2148TIP3    H228004   3.031   3.668   0.677 -2.2856  0.3352 -0.6141
 2149TIP3   OH228005   2.097   6.227   8.498 -0.5146 -0.2284  0.1018
 2149TIP3    H128006   2.011   6.210   8.536  0.2058 -2.0403  1.0728
 2149TIP3    H228007   2.148   6.265   8.570 -0.1760 -0.3121 -0.0888
 2150TIP3   OH228008   4.023   4.368   7.041 -0.1536  0.4337 -0.5111
 2150TIP3    H128009   3.933   4.350   7.015 -0.3544 -1.3079  1.1488
 2150TIP3    H228010   4.018   4.449   7.091 -0.6740  0.6914 -0.9644
 2151TIP3   OH228011   3.280   1.475   1.495  0.6557  0.1444  0.2379
 2151TIP3    H128012   3.373   1.459   1.480  0.6520  0.3374  0.0001
 2151TIP3    H228013   3.257   1.543   1.431  0.0428 -0.8452 -0.6307
 2152TIP3   OH228014   5.904   1.059   7.062 -0.3292  1.0306 -0.0373
 2152TIP3    H128015   5.920   1.011   7.143  0.2115  1.9539  0.4114
 2152TIP3    H228016   5.978   1.036   7.005 -0.4226  0.8102 -0.0701
 2153TIP3   OH228017   3.478   0.266   0.895  0.1102  0.0733  0.0055
 2153TIP3    H128018   3.504   0.274   0.987 -1.9048 -0.7775  0.7069
 2153TIP3    H228019   3.404   0.204   0.896 -0.1062  0.2199 -2.1582
 2154TIP3   OH228020   3.185   6.720   2.214  0.5235 -0.6088 -0.4866
 2154TIP3    H128021   3.234   6.790   2.170  1.5705 -1.2771 -0.4042
 2154TIP3    H228022   3.142   6.764   2.287  1.3391 -0.0773 -0.3146
 2155TIP3   OH228023   2.512   6.347   7.961  0.3064 -0.2127 -0.3036
 2155TIP3    H128024   2.473   6.414   7.904  1.0362 -0.8912 -1.6674
 2155TIP3    H228025   2.606   6.366   7.959  0.3601 -0.3505  0.5616
 2156TIP3   OH228026   3.002   1.319   8.322 -0.3151  0.0630 -0.3841
 2156TIP3    H128027   2.971   1.384   8.259  1.1971  0.9043 -0.3132
 2156TIP3    H228028   2.956   1.340   8.403  0.7512  1.5995 -0.1403
 2157TIP3   OH228029   5.648   0.396   0.748  0.2846 -0.2574  0.0618
 2157TIP3    H128030   5.696   0.479   0.749  1.5717 -0.9717 -0.1385
 2157TIP3    H228031   5.624   0.384   0.656  0.8695 -0.5106 -0.0678
 2158TIP3   OH228032   0.060   2.120   0.138  0.2232 -0.7575  0.1894
 2158TIP3    H128033   0.141   2.144   0.184 -0.2627 -0.9728  1.1938
 2158TIP3    H228034   0.020   2.204   0.116  1.6056 -0.6116 -2.0052
 2159TIP3   OH228035   5.049   0.112   2.512  0.7641 -0.3056  0.3804
 2159TIP3    H128036   5.107   0.050   2.466 -0.1820 -0.8835 -0.0531
 2159TIP3    H228037   5.008   0.162   2.442  1.0272  0.3848  0.7083
 2160TIP3   OH228038   3.002   0.650   7.751  0.3750 -0.1984 -0.0192
 2160TIP3    H128039   2.988   0.579   7.815  0.9890 -0.8110 -0.5553
 2160TIP3    H228040   3.096   0.650   7.736  0.2588  0.0854 -0.7620
 2161TIP3   OH228041   2.224   2.069   0.918  0.3862  0.1429  0.0541
 2161TIP3    H128042   2.272   2.149   0.941  0.5125 -0.0982  0.6361
 2161TIP3    H228043   2.289   2.013   0.876  0.8560 -0.5443  1.6393
 2162TIP3   OH228044   1.923   1.601   8.587  0.0174 -0.1485 -0.1611
 2162TIP3    H128045   1.842   1.559   8.558  0.3101  0.1276 -1.4393
 2162TIP3    H228046   1.976   1.529   8.623 -0.8503 -0.2999  0.8707
 2163TIP3   OH228047   3.161   0.225   8.070  0.2714 -0.1463  0.1592
 2163TIP3    H128048   3.249   0.195   8.049 -0.6324 -1.1088 -2.7460
 2163TIP3    H228049   3.105   0.185   8.004 -2.1625  1.6137  0.9768
 2164TIP3   OH228050   4.709   5.352   6.980  0.6441  0.1832  0.1816
 2164TIP3    H128051   4.739   5.441   6.957  0.4967  0.3749  0.7292
 2164TIP3    H228052   4.642   5.366   7.047 -1.0130 -0.2008 -1.2956
 2165TIP3   OH228053   5.889   2.286   2.865 -0.0552 -0.3165 -0.5042
 2165TIP3    H128054   5.829   2.248   2.801  0.8424 -0.2320 -1.4130
 2165TIP3    H228055   5.921   2.211   2.916 -0.9799 -0.3523  0.0497
 2166TIP3   OH228056   1.505   6.040   1.967 -0.0939 -0.0715 -0.3253
 2166TIP3    H128057   1.463   6.046   2.053  1.6843  1.1907  0.5141
 2166TIP3    H228058   1.489   5.951   1.938 -0.4684 -0.6162  1.4580
 2167TIP3   OH228059   4.041   1.630   1.485 -0.6453 -0.6870 -0.6851
 2167TIP3    H128060   4.021   1.724   1.482  0.4408 -0.4375 -0.6547
 2167TIP3    H228061   3.958   1.587   1.464 -1.5165  0.2290  0.7357
 2168TIP3   OH228062   2.221   5.581   7.148 -0.2651  0.0288 -0.1589
 2168TIP3    H128063   2.302   5.538   7.173 -0.1162  0.6251  0.3936
 2168TIP3    H228064   2.241   5.675   7.148 -0.8977  0.1738 -0.2060
 2169TIP3   OH228065   0.047   5.482   7.154  0.0625  0.1425  0.4196
 2169TIP3    H128066   0.068   5.487   7.060 -1.0357 -1.4616  0.0492
 2169TIP3    H228067  -0.000   5.564   7.172  0.4140  0.5377 -0.3856
 2170TIP3   OH228068   4.116   5.951   6.915  0.0385 -0.0262  0.0127
 2170TIP3    H128069   4.140   6.034   6.876 -0.9895 -0.4477 -1.6111
 2170TIP3    H228070   4.108   5.890   6.841 -2.8911 -0.6342  0.6731
 2171TIP3   OH228071   1.884   1.295   2.583 -0.9173 -0.1613  0.0338
 2171TIP3    H128072   1.912   1.234   2.651 -0.5145 -0.1311 -0.1029
 2171TIP3    H228073   1.877   1.241   2.504 -0.0608  0.0627 -0.2021
 2172TIP3   OH228074   6.418   2.605   7.530  0.3654 -0.3424 -0.8366
 2172TIP3    H128075   6.337   2.575   7.488 -0.5315  1.4080 -0.4156
 2172TIP3    H228076   6.484   2.541   7.501 -0.8419 -0.9603 -2.4018
 2173TIP3   OH228077   3.869   0.924   1.939  0.3872  0.1224 -0.9100
 2173TIP3    H128078   3.898   0.923   1.847 -1.9842 -0.1113 -1.7347
 2173TIP3    H228079   3.821   1.007   1.948  2.0776  0.9942  0.6831
 2174TIP3   OH228080   0.276   0.696   0.346 -0.5688  0.5408  0.5966
 2174TIP3    H128081   0.288   0.645   0.426 -1.9468  1.1649  1.2325
 2174TIP3    H228082   0.198   0.749   0.363 -0.2411  1.4932 -0.7510
 2175TIP3   OH228083   0.423   2.275   8.314 -0.3346 -0.1398 -0.0427
 2175TIP3    H128084   0.327   2.281   8.322 -0.7378  0.8575 -3.7194
 2175TIP3    H228085   0.447   2.352   8.263  2.4557 -0.4873  0.6299
 2176TIP3   OH228086   2.858   0.409   7.113 -0.3212 -0.4823  0.4643
 2176TIP3    H128087   2.852   0.388   7.206  3.3977 -3.1340  0.3511
 2176TIP3    H228088   2.812   0.337   7.069  0.9453 -1.2097  0.2747
 2177TIP3   OH228089   0.277   0.049   0.145  0.1906 -0.7968  0.3068
 2177TIP3    H128090   0.362   0.034   0.105  0.3044 -2.5707  1.1396
 2177TIP3    H228091   0.270   0.145   0.152  1.2558 -0.5560 -1.5188
 2178TIP3   OH228092   4.354   0.359   0.240  0.3011  0.4617 -0.7103
 2178TIP3    H128093   4.334   0.448   0.267 -1.7298  0.6310 -2.4917
 2178TIP3    H228094   4.270   0.312   0.247  0.5592 -0.4339 -2.8231
 2179TIP3   OH228095   4.354   3.920   0.664 -0.5641 -0.1600 -0.0467
 2179TIP3    H128096   4.344   3.982   0.736  0.2597 -1.8573  1.6187
 2179TIP3    H228097   4.400   3.845   0.703 -0.7520 -1.4587 -2.1674
 2180TIP3   OH228098   6.277   3.882   8.490 -0.0801 -0.1446 -0.2830
 2180TIP3    H128099   6.316   3.803   8.452  2.1324 -1.0383  3.2857
 2180TIP3    H228100   6.224   3.850   8.563  0.8834  1.6072  1.2725
 2181TIP3   OH228101   6.838   2.983   8.198 -0.2820 -0.3985 -0.2398
 2181TIP3    H128102   6.838   3.076   8.176 -1.2700 -0.7001 -1.5539
 2181TIP3    H228103   6.909   2.975   8.262 -1.2087  1.5301  1.1472
 2182TIP3   OH228104   0.391   2.519   7.816 -0.4173  0.0750  0.0103
 2182TIP3    H128105   0.346   2.460   7.875  0.5719 -1.8492 -1.0585
 2182TIP3    H228106   0.325   2.545   7.751 -0.2628 -2.0850 -1.0915
 2183TIP3   OH228107   2.072   4.545   1.759 -0.2683 -0.3663  0.1128
 2183TIP3    H128108   2.030   4.612   1.814 -0.3916  1.1204 -1.6913
 2183TIP3    H228109   2.067   4.465   1.811 -0.6255  0.8953  2.1278
 2184TIP3   OH228110   5.369   6.240   1.561 -0.0364  0.9440 -0.4216
 2184TIP3    H128111   5.437   6.256   1.626  0.0121  2.7819 -0.8561
 2184TIP3    H228112   5.412   6.185   1.495  0.2240 -0.0613  0.5632
 2185TIP3   OH228113   0.641   1.005   0.757  0.2062  0.2109 -0.1303
 2185TIP3    H128114   0.686   0.925   0.784 -0.6406 -0.4515 -0.6382
 2185TIP3    H228115   0.605   0.984   0.671 -0.5837  0.9245  0.0215
 2186TIP3   OH228116   1.519   2.427   1.642 -0.1840 -0.0583 -0.2071
 2186TIP3    H128117   1.602   2.417   1.690 -0.7927 -0.5648  0.7777
 2186TIP3    H228118   1.527   2.511   1.598  0.9645 -0.2250 -0.3529
 2187TIP3   OH228119   6.067   6.393   8.161 -0.2144 -0.3816 -0.2444
 2187TIP3    H128120   6.102   6.355   8.242 -0.2278 -0.6136 -0.3453
 2187TIP3    H228121   5.972   6.392   8.174 -0.1765  0.9582  0.3498
 2188TIP3   OH228122   5.770   3.584   8.614 -0.2103 -0.0301 -0.5710
 2188TIP3    H128123   5.677   3.606   8.614 -0.1641  0.4500 -3.3198
 2188TIP3    H228124   5.812   3.657   8.661 -1.2952 -1.3154  2.7020
 2189TIP3   OH228125   1.537   6.406   2.254  0.3770 -0.3993  0.5649
 2189TIP3    H128126   1.468   6.461   2.290  0.4577 -0.3244  0.6049
 2189TIP3    H228127   1.542   6.432   2.162 -0.2792 -1.0472  0.3355
 2190TIP3   OH228128   3.167   1.511   2.616 -0.5837 -0.5260  0.3227
 2190TIP3    H128129   3.108   1.540   2.685  0.4336 -1.6126  1.6980
 2190TIP3    H228130   3.119   1.441   2.571 -1.4745  0.5617 -0.4960
 2191TIP3   OH228131   1.108   5.514   1.455 -0.8488 -0.3018 -0.3252
 2191TIP3    H128132   1.069   5.570   1.522 -0.7851  0.0328 -0.5692
 2191TIP3    H228133   1.202   5.533   1.460 -0.8631 -0.1621 -0.6191
 2192TIP3   OH228134   0.635   6.213   6.847 -0.1167 -0.0016  0.0777
 2192TIP3    H128135   0.576   6.254   6.910 -2.6693 -0.9307 -1.5756
 2192TIP3    H228136   0.612   6.253   6.763  0.9438 -1.1213 -0.7871
 2193TIP3   OH228137   3.499   5.992   1.204  0.0674  0.4124 -0.1619
 2193TIP3    H128138   3.481   6.045   1.283 -0.6304  0.5554 -0.4088
 2193TIP3    H228139   3.446   6.033   1.136  0.6056  0.2326 -0.6869
 2194TIP3   OH228140   1.679   2.978   0.165  0.6473  0.4342  0.1977
 2194TIP3    H128141   1.695   2.948   0.254 -0.4671  1.7737  0.9004
 2194TIP3    H228142   1.761   3.020   0.139  1.2721 -0.7159  0.2353
 2195TIP3   OH228143   3.485   1.813   6.691 -0.4609  0.0399 -0.6884
 2195TIP3    H128144   3.465   1.755   6.765 -3.1666 -1.4962 -2.4647
 2195TIP3    H228145   3.564   1.775   6.652 -0.3621 -0.5238  0.0279
 2196TIP3   OH228146   6.325   5.430   0.436 -0.6217 -0.0966 -0.0227
 2196TIP3    H128147   6.417   5.415   0.457 -0.7620 -1.9973 -0.5488
 2196TIP3    H228148   6.318   5.524   0.424  0.8275  0.3211  1.9351
 2197TIP3   OH228149   3.644   4.465   7.383 -0.3025 -0.3741 -0.5827
 2197TIP3    H128150   3.596   4.386   7.358  0.1230 -0.9353  0.3313
 2197TIP3    H228151   3.729   4.434   7.413  0.3278  0.5443 -1.3609
 2198TIP3   OH228152   5.512   3.027   2.699  0.5145 -0.2415  0.3641
 2198TIP3    H128153   5.571   2.963   2.739 -2.1198 -1.6797  2.2074
 2198TIP3    H228154   5.425   2.990   2.709 -0.7737  1.6662 -2.4646
 2199TIP3   OH228155   0.302   6.123   7.745 -0.1821 -0.1748  0.6917
 2199TIP3    H128156   0.235   6.135   7.678 -0.0684  0.6061  0.7067
 2199TIP3    H228157   0.281   6.189   7.811 -0.6491 -1.3138  1.7326
 2200TIP3   OH228158   5.721   6.406   7.554  0.6934 -0.7494  0.5009
 2200TIP3    H128159   5.776   6.394   7.476  0.0386  1.1738 -0.3085
 2200TIP3    H228160   5.658   6.335   7.550  0.4615 -0.4813 -0.9310
 2201TIP3   OH228161   1.888   3.608   1.622 -0.0764 -0.4789  0.0704
 2201TIP3    H128162   1.803   3.630   1.660 -0.5819 -0.9458 -0.7653
 2201TIP3    H228163   1.876   3.618   1.527 -0.3570 -4.2024 -0.4147
 2202TIP3   OH228164   4.595   3.539   8.175  0.5248 -0.1407 -0.2599
 2202TIP3    H128165   4.683   3.574   8.168  0.7812 -0.5379  0.6804
 2202TIP3    H228166   4.588   3.511   8.267 -1.6198  2.6470  0.5816
 2203TIP3   OH228167   3.190   3.149   2.042  0.2226 -0.1850 -0.1538
 2203TIP3    H128168   3.180   3.119   1.952  0.2023  0.6755 -0.4451
 2203TIP3    H228169   3.192   3.245   2.036  1.1300 -0.1308  0.6653
 2204TIP3   OH228170   6.471   5.359   2.224 -0.4275  0.1498  0.3124
 2204TIP3    H128171   6.388   5.407   2.222 -0.2257  0.5153  0.5863
 2204TIP3    H228172   6.485   5.339   2.316  0.2475  0.9089  0.3868
 2205TIP3   OH228173   5.658   1.940   0.887  0.3349 -0.0685  0.0054
 2205TIP3    H128174   5.635   2.026   0.923  1.1669  0.9177 -1.6498
 2205TIP3    H228175   5.754   1.944   0.877  0.6347 -1.9071  1.5453
 2206TIP3   OH228176   0.365   4.706   7.425  0.2095 -0.2738  0.0796
 2206TIP3    H128177   0.393   4.625   7.467  0.3088 -1.4497 -2.1239
 2206TIP3    H228178   0.446   4.755   7.411  0.6333 -1.4437 -1.8119
 2207TIP3   OH228179   0.261   0.311   0.183 -0.3185  0.0018 -0.6538
 2207TIP3    H128180   0.302   0.394   0.155 -1.6651  1.3869  1.1988
 2207TIP3    H228181   0.294   0.298   0.272 -1.1009 -0.7976 -0.4748
 2208TIP3   OH228182   1.285   1.459   2.722  0.2565 -0.3794  0.5842
 2208TIP3    H128183   1.214   1.404   2.689 -1.9123  1.9922  0.9465
 2208TIP3    H228184   1.314   1.509   2.646  0.6388 -0.3943  0.7165
 2209TIP3   OH228185   6.653   1.059   6.660 -0.3757 -0.2729 -0.0256
 2209TIP3    H128186   6.711   1.126   6.697 -0.8593  0.3417 -0.3551
 2209TIP3    H228187   6.709   1.007   6.602 -0.3615  0.9906 -1.1994
 2210TIP3   OH228188   4.439   1.331   2.529  0.2851 -0.7318  0.1426
 2210TIP3    H128189   4.456   1.418   2.565 -1.5104 -0.5302  0.6071
 2210TIP3    H228190   4.388   1.287   2.597 -1.3953 -1.0854 -1.2858
 2211TIP3   OH228191   0.608   1.135   1.254  0.0053  0.0312 -0.3475
 2211TIP3    H128192   0.631   1.065   1.316 -1.4250 -0.2782 -0.1338
 2211TIP3    H228193   0.615   1.216   1.304 -0.8849 -0.1960  0.1489
 2212TIP3   OH228194   6.384   6.659   7.485  0.1930  0.0005 -0.3506
 2212TIP3    H128195   6.317   6.602   7.522  0.7947 -0.7401 -0.3730
 2212TIP3    H228196   6.359   6.672   7.394 -0.4030  0.4770 -0.1253
 2213TIP3   OH228197   3.031   5.892   2.685  0.3369  0.2627  0.6011
 2213TIP3    H128198   3.084   5.899   2.764 -0.9663  1.5164  1.4134
 2213TIP3    H228199   2.958   5.835   2.711 -0.1950  0.8310  0.3769
 2214TIP3   OH228200   2.260   5.213   1.408  0.3606 -0.5021 -0.5336
 2214TIP3    H128201   2.311   5.168   1.341  2.3468 -0.3702  0.7826
 2214TIP3    H228202   2.308   5.294   1.425 -0.5476 -0.1357  0.4282
 2215TIP3   OH228203   4.088   3.493   1.477 -0.2316 -0.7195 -0.0835
 2215TIP3    H128204   4.014   3.533   1.523 -0.1298  1.6489 -1.7801
 2215TIP3    H228205   4.049   3.420   1.429 -1.4035  0.1139 -0.4537
 2216TIP3   OH228206   1.636   0.548   8.619  0.5837  0.7084 -0.2872
 2216TIP3    H128207   1.624   0.559   8.525 -0.0745 -1.6296 -0.5490
 2216TIP3    H228208   1.557   0.585   8.657  0.0023  0.0383 -0.8123
 2217TIP3   OH228209   3.362   1.416   2.448 -0.2123  0.2300 -0.1460
 2217TIP3    H128210   3.423   1.439   2.378  0.5268 -0.2940  0.3116
 2217TIP3    H228211   3.322   1.499   2.474  1.5753  0.8688  0.7164
 2218TIP3   OH228212   3.082   0.634   7.090 -0.4091 -0.2454 -0.5227
 2218TIP3    H128213   3.033   0.677   7.019 -2.1141  1.0932  1.3362
 2218TIP3    H228214   3.027   0.561   7.117 -0.0886 -0.3611 -0.1642
 2219TIP3   OH228215   5.555   3.438   1.396 -0.6585 -0.3314  0.0116
 2219TIP3    H128216   5.587   3.357   1.356 -0.4403 -0.4148  0.3506
 2219TIP3    H228217   5.460   3.424   1.405 -1.0499  0.4641 -2.2633
 2220TIP3   OH228218   2.119   6.238   1.524 -0.2275  0.1427 -0.7924
 2220TIP3    H128219   2.058   6.185   1.472 -0.3725  0.8026 -1.2987
 2220TIP3    H228220   2.102   6.328   1.497 -0.9386  0.5961  1.0727
 2221TIP3   OH228221   6.366   3.664   7.485  0.0101 -0.6244 -0.5125
 2221TIP3    H128222   6.375   3.710   7.569 -1.1281 -1.0655 -0.1189
 2221TIP3    H228223   6.312   3.722   7.431  0.6906 -0.3695 -0.9271
 2222TIP3   OH228224   0.178   4.095   1.365  0.7379 -0.2412 -0.3779
 2222TIP3    H128225   0.121   4.161   1.404 -1.2567 -2.3911  0.5981
 2222TIP3    H228226   0.135   4.072   1.283  1.0604 -0.7843 -0.3973
 2223TIP3   OH228227   1.984   3.358   0.334  0.7187  0.2119  0.2646
 2223TIP3    H128228   2.025   3.342   0.419 -0.0085  0.7451  0.7312
 2223TIP3    H228229   2.057   3.374   0.274  1.2467 -0.3601  0.7499
 2224TIP3   OH228230   4.003   2.507   0.461 -0.3826 -0.4874 -0.2250
 2224TIP3    H128231   3.911   2.479   0.465 -1.0006  1.5026  1.8896
 2224TIP3    H228232   4.005   2.572   0.391 -0.9170  0.3395  0.4947
 2225TIP3   OH228233   1.597   5.017   7.897 -0.5453 -0.5163 -0.0912
 2225TIP3    H128234   1.670   5.001   7.837 -1.1886  0.7877 -1.2698
 2225TIP3    H228235   1.519   5.014   7.842 -1.0007  2.8632  0.1597
 2226TIP3   OH228236   4.012   0.021   1.076 -0.5804 -0.6074  0.2317
 2226TIP3    H128237   3.987  -0.069   1.098 -1.7225 -0.4292 -0.2600
 2226TIP3    H228238   4.077   0.044   1.142 -1.3093 -1.3062  1.2296
 2227TIP3   OH228239   6.762   2.016   1.988 -0.3365  0.4634  0.0034
 2227TIP3    H128240   6.854   2.042   1.978  0.0279 -1.0599 -1.0093
 2227TIP3    H228241   6.720   2.092   2.028  1.7880  0.4208  2.6156
 2228TIP3   OH228242   1.078   4.243   2.512 -0.1248 -0.5708  0.1861
 2228TIP3    H128243   1.020   4.243   2.588 -1.0174  0.4259 -0.4596
 2228TIP3    H228244   1.034   4.299   2.448  0.1545 -2.1007 -1.4267
 2229TIP3   OH228245   6.200   5.243   0.604  0.2244 -0.5104  0.2015
 2229TIP3    H128246   6.257   5.300   0.553 -0.0187 -0.5943 -0.1741
 2229TIP3    H228247   6.190   5.165   0.549 -1.4755  0.1101 -0.4516
 2230TIP3   OH228248   3.398   4.900   0.886  0.0607 -0.1075  0.0459
 2230TIP3    H128249   3.328   4.840   0.859  0.2698 -1.0628  1.5070
 2230TIP3    H228250   3.464   4.892   0.818  0.5121 -2.3383  0.6548
 2231TIP3   OH228251   3.208   3.784   1.713 -0.1155  0.1087  0.0178
 2231TIP3    H128252   3.152   3.808   1.788 -0.5820  0.9988 -0.5896
 2231TIP3    H228253   3.186   3.692   1.695  1.1482 -0.6238  1.9298
 2232TIP3   OH228254   6.097   2.866   1.543 -0.1490  0.1026  0.1014
 2232TIP3    H128255   6.135   2.806   1.608  0.0889 -0.1748 -0.2848
 2232TIP3    H228256   6.029   2.815   1.500 -1.3938  0.7850  1.1880
 2233TIP3   OH228257   0.083   1.630   7.631  0.1435 -0.3997  0.2177
 2233TIP3    H128258   0.009   1.691   7.638  0.3555 -0.1341  0.1715
 2233TIP3    H228259   0.050   1.558   7.578 -0.2475 -0.5329  0.6348
 2234TIP3   OH228260   2.436   6.388   2.841  0.2009 -0.3900 -0.6833
 2234TIP3    H128261   2.489   6.326   2.792 -1.2547 -0.9527 -1.6088
 2234TIP3    H228262   2.352   6.391   2.794 -0.0549  1.6665 -0.2005
 2235TIP3   OH228263   5.612   4.450   0.883  0.1762  0.5536  0.1072
 2235TIP3    H128264   5.678   4.513   0.911  0.9430 -0.1799  0.0226
 2235TIP3    H228265   5.528   4.493   0.898  0.5118  0.3555  3.2664
 2236TIP3   OH228266   1.906   4.447   6.813  0.0605 -0.3017 -0.2430
 2236TIP3    H128267   1.852   4.526   6.815 -1.2920 -1.0884 -2.2174
 2236TIP3    H228268   1.993   4.477   6.789 -0.2379  0.6631 -0.1499
 2237TIP3   OH228269   6.304   3.008   1.119  0.2627  0.3875  0.4660
 2237TIP3    H128270   6.284   3.099   1.096  1.2553  0.5185  0.0759
 2237TIP3    H228271   6.303   2.961   1.036  1.5288  0.4035  0.4262
 2238TIP3   OH228272   4.178   0.827   2.592  0.2488  0.4669 -0.4368
 2238TIP3    H128273   4.123   0.899   2.621 -0.5531 -0.7059  1.0580
 2238TIP3    H228274   4.250   0.824   2.655 -0.7062 -1.1655  0.6268
 2239TIP3   OH228275   0.663   2.423   7.677 -0.1641  0.5238  0.0326
 2239TIP3    H128276   0.699   2.417   7.589 -0.5510  1.7296 -0.2224
 2239TIP3    H228277   0.571   2.448   7.665 -0.2287  0.6851  0.7620
 2240TIP3   OH228278   4.352   3.748   6.845  0.3882  0.3638  0.5412
 2240TIP3    H128279   4.324   3.688   6.776  3.7433  0.9201 -1.5169
 2240TIP3    H228280   4.395   3.693   6.910 -0.8062  0.0860  1.1226
 2241TIP3   OH228281   6.634   1.386   2.244  0.0372  0.0480 -0.2221
 2241TIP3    H128282   6.566   1.392   2.311  0.3573 -1.2659  0.2428
 2241TIP3    H228283   6.686   1.466   2.256 -0.8969  0.6397 -0.0163
 2242TIP3   OH228284   1.235   3.255   7.633  0.0209  0.0947  0.1655
 2242TIP3    H128285   1.281   3.175   7.606 -0.9598 -0.2705 -0.4604
 2242TIP3    H228286   1.174   3.273   7.561  0.4172  1.5667  0.1725
 2243TIP3   OH228287   2.249   0.571   0.220  0.7299 -0.1577  0.0168
 2243TIP3    H128288   2.188   0.500   0.198  1.0816 -0.1543 -0.9964
 2243TIP3    H228289   2.293   0.591   0.138  1.7031  0.2214  0.6234
 2244TIP3   OH228290   2.707   3.687   1.656  0.5616 -0.0917 -0.3296
 2244TIP3    H128291   2.687   3.615   1.596 -0.5945  0.4722 -0.6574
 2244TIP3    H228292   2.647   3.675   1.729 -0.3604  1.0793 -0.8527
 2245TIP3   OH228293   2.566   0.221   1.305 -0.5650  0.5847 -0.9757
 2245TIP3    H128294   2.525   0.296   1.349  0.8583  0.4987  0.6398
 2245TIP3    H228295   2.506   0.198   1.234 -1.6770  2.4219 -0.6879
 2246TIP3   OH228296   3.827   0.957   0.816 -0.5688  0.1611  0.5215
 2246TIP3    H128297   3.766   0.956   0.743 -0.4717 -1.0767  0.4354
 2246TIP3    H228298   3.892   1.023   0.792 -0.4216 -0.3789 -0.6101
 2247TIP3   OH228299   5.389   1.061   1.065  0.2988 -0.7761 -0.7101
 2247TIP3    H128300   5.443   1.087   0.991 -0.3916  1.0002 -0.6558
 2247TIP3    H228301   5.428   1.106   1.140  0.3766 -1.7191 -0.1724
 2248TIP3   OH228302   5.781   5.275   7.704 -0.7696 -0.2812  0.5830
 2248TIP3    H128303   5.786   5.296   7.611  0.2913  1.3973  0.9880
 2248TIP3    H228304   5.765   5.181   7.706 -1.7828 -0.2021 -1.2975
 2249TIP3   OH228305   4.945   3.039   0.724 -0.1967  0.5332 -0.6840
 2249TIP3    H128306   4.953   3.129   0.756 -2.0157  0.7226 -0.6149
 2249TIP3    H228307   4.957   2.985   0.802  1.4756  0.6600 -0.8266
 2250TIP3   OH228308   5.280   4.666   0.123 -0.3008  0.5236  0.3805
 2250TIP3    H128309   5.319   4.753   0.123 -1.4970  1.0727  0.6567
 2250TIP3    H228310   5.239   4.658   0.037 -2.6374  1.3988  1.3226
 2251TIP3   OH228311   5.764   2.251   2.461  0.0413 -0.0286  0.6066
 2251TIP3    H128312   5.784   2.344   2.471  2.7994 -0.4046 -0.5337
 2251TIP3    H228313   5.763   2.216   2.550 -0.6917  1.0037  1.0175
 2252TIP3   OH228314   6.816   6.576   1.357 -0.2843 -0.0020  0.7689
 2252TIP3    H128315   6.790   6.654   1.406  2.4713  1.5911 -0.0943
 2252TIP3    H228316   6.872   6.527   1.418  1.7893  1.1498 -0.0904
 2253TIP3   OH228317   2.638   4.356   7.173  0.0848 -0.3256  0.7626
 2253TIP3    H128318   2.566   4.298   7.196 -0.5923  0.7207  1.3730
 2253TIP3    H228319   2.662   4.331   7.083 -1.2244 -0.5251  0.4511
 2254TIP3   OH228320   3.004   2.466   6.980 -0.6846  0.5665 -0.0685
 2254TIP3    H128321   3.019   2.442   6.889  2.7572 -0.0986  0.5173
 2254TIP3    H228322   2.922   2.423   7.004  0.7721 -3.4606 -1.5466
 2255TIP3   OH228323   0.166   4.105   0.019  0.5533  0.0941 -0.1612
 2255TIP3    H128324   0.122   4.097   0.104 -1.9125 -0.3017 -1.3765
 2255TIP3    H228325   0.195   4.196   0.016 -1.2805  0.7457  0.2608
 2256TIP3   OH228326   6.074   4.364   1.352 -0.0303  0.9117  0.2573
 2256TIP3    H128327   6.135   4.419   1.401  1.0122 -1.3608  1.6498
 2256TIP3    H228328   6.123   4.284   1.333 -1.8669 -0.0630 -0.6406
 2257TIP3   OH228329   4.994   4.271   0.690  0.3579 -0.5873  0.2053
 2257TIP3    H128330   5.021   4.329   0.761  0.5906  0.9406 -1.0834
 2257TIP3    H228331   4.917   4.313   0.653 -1.0775 -2.4837  0.8604
 2258TIP3   OH228332   4.398   2.701   7.774  0.1740  0.2130  0.2525
 2258TIP3    H128333   4.350   2.636   7.825 -1.2586  0.9598 -0.0921
 2258TIP3    H228334   4.403   2.777   7.832 -0.7190  0.7705 -0.3709
 2259TIP3   OH228335   0.988   4.415   1.099  0.4858 -0.1328  0.4846
 2259TIP3    H128336   1.002   4.322   1.119 -0.7381 -0.2457  0.9205
 2259TIP3    H228337   0.931   4.446   1.169 -0.8018  0.4228 -0.7552
 2260TIP3   OH228338   1.312   0.916   0.527  0.1899  0.9624  0.2287
 2260TIP3    H128339   1.257   0.984   0.565 -0.8870 -0.4304  1.2755
 2260TIP3    H228340   1.333   0.858   0.601 -1.5240 -1.5508 -1.1107
 2261TIP3   OH228341   4.925   3.869   7.615  0.0903  0.4802 -0.2101
 2261TIP3    H128342   4.935   3.780   7.581 -0.8933  0.5261 -0.6489
 2261TIP3    H228343   4.999   3.917   7.578  0.1660  0.0380 -0.6483
 2262TIP3   OH228344   4.152   6.240   2.142  0.3290 -0.1054  0.4546
 2262TIP3    H128345   4.189   6.310   2.088  0.4912 -0.5550 -0.0310
 2262TIP3    H228346   4.226   6.181   2.159 -0.2873 -1.5072 -1.3123
 2263TIP3   OH228347   2.196   1.722   0.787 -0.0274  0.0874 -0.1795
 2263TIP3    H128348   2.211   1.738   0.880 -0.5989  1.4879 -0.3048
 2263TIP3    H228349   2.126   1.782   0.763  0.5317  0.1931 -1.6523
 2264TIP3   OH228350   0.001   2.782   7.431 -0.5249 -0.0697  0.1167
 2264TIP3    H128351  -0.089   2.813   7.420 -0.2806  0.5044 -0.3050
 2264TIP3    H228352   0.048   2.816   7.355 -0.1349 -1.0739 -0.0991
 2265TIP3   OH228353   3.802   3.080   7.311  0.5142 -0.4206 -0.3649
 2265TIP3    H128354   3.788   3.002   7.257 -0.0986 -0.2435 -0.4721
 2265TIP3    H228355   3.884   3.117   7.280  0.8597 -1.0766 -0.2491
 2266TIP3   OH228356   1.295   6.581   7.781 -0.3100 -0.0546 -0.4431
 2266TIP3    H128357   1.237   6.649   7.813 -0.0511  0.6457 -1.4355
 2266TIP3    H228358   1.383   6.613   7.800 -0.1891 -1.3294  1.5097
 2267TIP3   OH228359   2.979   3.668   1.330 -0.3226 -0.1273  0.4959
 2267TIP3    H128360   2.955   3.752   1.368 -1.8530  0.8690 -2.3452
 2267TIP3    H228361   3.075   3.671   1.325 -0.3634  2.2708 -1.0022
 2268TIP3   OH228362   3.824   0.944   7.314 -0.7617  0.1753 -0.1987
 2268TIP3    H128363   3.894   0.969   7.254  1.2790  1.0331  2.3317
 2268TIP3    H228364   3.852   0.859   7.350 -1.7568 -0.1585 -0.1823
 2269TIP3   OH228365   0.774   6.536   1.448 -0.6455  0.1884 -0.0147
 2269TIP3    H128366   0.696   6.516   1.500  0.3140 -0.8504  1.1085
 2269TIP3    H228367   0.842   6.481   1.487  0.7435  1.3719 -0.7073
 2270TIP3   OH228368   1.882   4.128   6.735  0.5697 -0.3249 -0.2285
 2270TIP3    H128369   1.851   4.219   6.742  1.2095  0.0224 -1.5174
 2270TIP3    H228370   1.804   4.075   6.752  0.6598  0.3692  2.9473
 2271TIP3   OH228371   5.563   5.138   0.435 -0.6435  0.1217 -0.0085
 2271TIP3    H128372   5.655   5.162   0.427 -0.1924 -1.5352 -0.0705
 2271TIP3    H228373   5.543   5.152   0.527 -0.2190  0.0738  0.0924
 2272TIP3   OH228374   1.380   5.693   0.561 -0.6195  0.1624  0.5291
 2272TIP3    H128375   1.374   5.662   0.651  0.2112 -0.8421  0.2431
 2272TIP3    H228376   1.405   5.785   0.569 -0.9983  0.2029  1.3248
 2273TIP3   OH228377   2.901   5.500   1.120 -0.2242  0.3761  0.3597
 2273TIP3    H128378   2.884   5.450   1.200  0.1411  0.4399  0.4779
 2273TIP3    H228379   2.826   5.480   1.063 -0.2097 -0.1070  0.5032
 2274TIP3   OH228380   2.394   1.926   2.504 -0.0285  0.0980 -0.9043
 2274TIP3    H128381   2.317   1.931   2.448 -1.1533  1.1694  0.6602
 2274TIP3    H228382   2.359   1.911   2.592  1.5740  0.2785 -0.1959
 2275TIP3   OH228383   4.125   1.529   0.925 -0.3461 -0.6795 -0.2068
 2275TIP3    H128384   4.098   1.553   0.837  1.1920  1.0582 -0.2587
 2275TIP3    H228385   4.198   1.587   0.945 -0.5053 -1.1651  2.1374
 2276TIP3   OH228386   1.487   3.160   8.419  0.2507 -0.3671 -0.8556
 2276TIP3    H128387   1.550   3.093   8.392 -0.4906 -0.8861 -1.3264
 2276TIP3    H228388   1.402   3.115   8.420  0.0626 -0.0665  1.2232
 2277TIP3   OH228389   4.999   0.674   1.124 -0.4936 -0.3796  0.1413
 2277TIP3    H128390   4.956   0.589   1.113  0.3789 -0.8461  0.2847
 2277TIP3    H228391   5.045   0.689   1.042 -1.5633  0.5026 -0.3269
 2278TIP3   OH228392   4.288   1.977   8.361 -0.0631  0.4731 -0.1669
 2278TIP3    H128393   4.247   2.018   8.285 -1.2912  3.5657  1.9294
 2278TIP3    H228394   4.267   2.036   8.433  1.4971 -1.9892  2.5012
 2279TIP3   OH228395   4.579   4.522   1.602 -0.5011 -0.1227  0.2510
 2279TIP3    H128396   4.619   4.522   1.689 -0.6983 -0.4496  0.3447
 2279TIP3    H228397   4.486   4.534   1.619 -0.3143  1.9812 -0.0433
 2280TIP3   OH228398   1.866   5.168   0.565 -0.0134  0.0316  0.7386
 2280TIP3    H128399   1.773   5.145   0.568 -0.6893  2.2041 -0.8246
 2280TIP3    H228400   1.879   5.224   0.642 -0.3747  0.8539  0.2147
 2281TIP3   OH228401   2.092   1.833   7.956 -0.1045  0.0609 -0.0120
 2281TIP3    H128402   2.184   1.810   7.939 -0.2322  0.0392 -0.6819
 2281TIP3    H228403   2.043   1.755   7.929 -0.5470  1.0662 -2.3368
 2282TIP3   OH228404   0.499   4.813   8.349 -0.6829  0.2949  0.0094
 2282TIP3    H128405   0.551   4.872   8.405 -1.4336  0.9866 -0.0031
 2282TIP3    H228406   0.453   4.872   8.289 -2.8251 -0.1343  1.1228
 2283TIP3   OH228407   6.196   6.311   2.176  0.0105  0.5208  0.5800
 2283TIP3    H128408   6.193   6.267   2.261  1.2832 -0.9580 -0.0921
 2283TIP3    H228409   6.104   6.329   2.155 -0.3151  1.3458  2.4350
 2284TIP3   OH228410   1.637   5.703   3.037 -0.4033 -0.6136 -0.3059
 2284TIP3    H128411   1.554   5.676   2.999 -0.2594  0.6380 -1.6183
 2284TIP3    H228412   1.635   5.799   3.031 -0.2598 -0.3517  2.7005
 2285TIP3   OH228413   3.291   0.330   2.638  0.2465 -0.2403 -0.1229
 2285TIP3    H128414   3.292   0.242   2.601 -1.9395 -0.6121  0.5604
 2285TIP3    H228415   3.219   0.374   2.594 -0.6561  0.1943  1.6804
 2286TIP3   OH228416   5.017   5.298   7.967  0.3565  0.3694  0.3309
 2286TIP3    H128417   5.025   5.279   8.061  1.9339  0.2287  0.1895
 2286TIP3    H228418   5.007   5.393   7.962 -1.4897  0.2332  0.7091
 2287TIP3   OH228419   2.035   2.197   1.450  0.2484  0.5398 -0.6763
 2287TIP3    H128420   2.123   2.230   1.436 -0.6215  3.6985  0.3747
 2287TIP3    H228421   1.994   2.199   1.364  0.5040  1.4910 -0.7907
 2288TIP3   OH228422   2.482   4.154   7.756  0.4999  0.3407  0.3929
 2288TIP3    H128423   2.485   4.111   7.841 -2.4510 -0.4511  0.2201
 2288TIP3    H228424   2.565   4.130   7.714  0.5248 -2.2352  1.7032
 2289TIP3   OH228425   5.652   3.270   0.356 -1.0588 -0.5507  0.4517
 2289TIP3    H128426   5.598   3.298   0.282 -0.0332  1.4238  0.3932
 2289TIP3    H228427   5.718   3.214   0.316 -1.7551 -1.2225  0.2103
 2290TIP3   OH228428   0.770   3.223   7.571  0.4375  0.2706  0.0164
 2290TIP3    H128429   0.808   3.145   7.611  1.3266 -0.2442 -1.7349
 2290TIP3    H228430   0.830   3.294   7.595  0.0776  0.2971  0.9084
 2291TIP3   OH228431   2.407   6.283   1.645 -0.1181  0.2895  0.5591
 2291TIP3    H128432   2.469   6.283   1.572 -0.6394 -0.3729  0.1079
 2291TIP3    H228433   2.345   6.214   1.623  0.9864 -1.4938  2.7383
 2292TIP3   OH228434   3.453   5.034   7.609  0.2215  0.1746  0.1455
 2292TIP3    H128435   3.545   5.056   7.625  0.2026  1.1227 -0.8980
 2292TIP3    H228436   3.412   5.118   7.589 -0.9710 -0.1877  0.9927
 2293TIP3   OH228437   5.073   2.029   7.817  0.5139 -0.1447 -0.2943
 2293TIP3    H128438   5.014   1.958   7.841 -0.8876  1.2290  0.4992
 2293TIP3    H228439   5.073   2.028   7.721 -2.0898  0.7675 -0.3880
 2294TIP3   OH228440   0.970   1.604   7.062 -0.3879 -0.2283  0.0073
 2294TIP3    H128441   0.943   1.513   7.078 -0.1102 -0.7610 -2.1863
 2294TIP3    H228442   1.021   1.600   6.982  0.2181  1.8001  0.2336
 2295TIP3   OH228443   4.622   0.174   1.984  0.3089 -0.3494  0.2337
 2295TIP3    H128444   4.621   0.266   1.959 -2.7787 -0.3978 -0.2673
 2295TIP3    H228445   4.591   0.174   2.075 -0.8287 -0.8934 -0.1277
 2296TIP3   OH228446   6.086   5.009   0.312 -0.1486  0.2229  0.3099
 2296TIP3    H128447   6.151   5.066   0.273 -0.1211  0.8000  1.1735
 2296TIP3    H228448   6.012   5.011   0.251 -0.4383  1.7703  0.6774
 2297TIP3   OH228449   5.378   1.839   1.261  0.0926  0.2477  0.2280
 2297TIP3    H128450   5.436   1.912   1.237  0.6777 -0.7557 -1.6329
 2297TIP3    H228451   5.300   1.853   1.207 -0.3475  0.2005  0.8446
 2298TIP3   OH228452   6.141   1.280   8.059  0.3537 -0.5079  0.5673
 2298TIP3    H128453   6.235   1.267   8.061 -0.0321 -5.1649 -0.3596
 2298TIP3    H228454   6.125   1.333   7.981  2.1597  0.5356  0.8688
 2299TIP3   OH228455   3.810   6.232   0.430  0.1436 -0.2471  0.8302
 2299TIP3    H128456   3.744   6.257   0.366 -1.7884  1.2120  3.2041
 2299TIP3    H228457   3.811   6.137   0.428 -1.0807 -0.2611 -0.1964
 2300TIP3   OH228458   4.478   6.492   8.012 -0.2643 -0.3435  0.1614
 2300TIP3    H128459   4.500   6.405   7.981 -0.4606 -0.4666  0.3626
 2300TIP3    H228460   4.545   6.549   7.975  0.2574 -0.6768  0.5802
 2301TIP3   OH228461   3.324   0.668   8.240  0.0617  0.2381 -0.1026
 2301TIP3    H128462   3.270   0.589   8.238  0.6949 -0.2132  0.1030
 2301TIP3    H228463   3.293   0.721   8.167 -0.2612 -0.2769 -0.3436
 2302TIP3   OH228464   3.653   2.216   0.513 -0.1512  0.0716 -0.4292
 2302TIP3    H128465   3.652   2.170   0.597 -0.3224 -1.6120 -1.2914
 2302TIP3    H228466   3.567   2.256   0.505 -0.3088 -0.1893 -0.0209
 2303TIP3   OH228467   5.448   1.087   8.126 -0.1814 -0.5546  0.1808
 2303TIP3    H128468   5.515   1.040   8.175 -0.6579  0.6232  2.0652
 2303TIP3    H228469   5.435   1.168   8.176 -2.6678 -0.5484 -0.3899
 2304TIP3   OH228470   1.764   2.039   2.161 -0.0835  0.0525  0.3126
 2304TIP3    H128471   1.768   2.041   2.066 -0.4918 -1.2714  0.2466
 2304TIP3    H228472   1.678   2.076   2.183  0.0149  0.3648  0.1741
 2305TIP3   OH228473   2.749   3.353   1.740 -0.0539 -0.5397 -0.0411
 2305TIP3    H128474   2.668   3.395   1.710  0.0294 -0.8804 -0.7518
 2305TIP3    H228475   2.809   3.425   1.755 -0.9476 -0.1392  1.9983
 2306TIP3   OH228476   0.785   6.158   2.164 -0.2031 -0.3751 -0.4234
 2306TIP3    H128477   0.751   6.077   2.203 -0.4438 -0.5462 -0.9676
 2306TIP3    H228478   0.708   6.199   2.124 -0.4141  0.9682  1.2323
 2307TIP3   OH228479   6.321   0.521   0.033 -0.4392  0.3737 -0.5225
 2307TIP3    H128480   6.233   0.494   0.007 -0.7109  0.5184  0.1983
 2307TIP3    H228481   6.380   0.467  -0.019 -0.9661 -0.3448 -0.3858
 2308TIP3   OH228482   4.375   2.274   1.025 -0.1586 -0.5900  0.0032
 2308TIP3    H128483   4.335   2.347   0.977 -2.4831 -1.9696 -0.3090
 2308TIP3    H228484   4.358   2.293   1.117  2.9071  1.2542  0.3184
 2309TIP3   OH228485   4.669   4.016   8.113 -0.2183 -0.4940 -0.1842
 2309TIP3    H128486   4.618   4.021   8.032  1.0129  0.5575 -0.9377
 2309TIP3    H228487   4.759   4.003   8.084  0.4003  0.9332  0.9575
 2310TIP3   OH228488   4.414   0.822   0.991  0.2652  0.7227  0.1558
 2310TIP3    H128489   4.453   0.772   0.919  0.2052  1.2944 -0.2825
 2310TIP3    H228490   4.373   0.897   0.948 -0.1124  0.8638  0.7522
 2311TIP3   OH228491   2.439   3.132   8.122 -0.0239 -0.1088  0.1412
 2311TIP3    H128492   2.372   3.187   8.163  1.3787  1.4366  0.4483
 2311TIP3    H228493   2.392   3.053   8.095 -2.0203  1.0444  0.0771
 2312TIP3   OH228494   0.093   6.296   1.779  0.0685  0.0910 -0.2880
 2312TIP3    H128495   0.166   6.240   1.805 -0.3253 -0.0363  0.5464
 2312TIP3    H228496   0.066   6.262   1.694 -1.2614 -2.0937  0.9235
 2313TIP3   OH228497   5.822   4.298   1.341  0.0541 -0.0849 -0.1182
 2313TIP3    H128498   5.913   4.326   1.334  0.5650 -1.7178 -0.3088
 2313TIP3    H228499   5.773   4.366   1.294  1.3009  0.1773 -1.1164
 2314TIP3   OH228500   4.296   1.476   7.017  0.1538  0.2258  0.7740
 2314TIP3    H128501   4.377   1.527   7.011  0.8594 -0.9926 -0.9974
 2314TIP3    H228502   4.318   1.402   7.072 -0.3492  0.8792  1.8792
 2315TIP3   OH228503   0.349   2.706   1.446  0.1879  0.1079 -0.3293
 2315TIP3    H128504   0.369   2.698   1.540 -2.8909 -1.1080  0.3232
 2315TIP3    H228505   0.351   2.616   1.414 -0.9722  0.2702 -0.8913
 2316TIP3   OH228506   0.679   0.330   1.242  0.0069 -0.6058  0.0413
 2316TIP3    H128507   0.614   0.260   1.243 -0.2739 -0.4713 -2.1748
 2316TIP3    H228508   0.760   0.286   1.217 -0.1955 -0.1910 -1.4878
 2317TIP3   OH228509   0.682   0.438   0.255  0.1150 -0.1525 -1.0423
 2317TIP3    H128510   0.710   0.516   0.207 -0.8973  2.5536  2.3607
 2317TIP3    H228511   0.588   0.431   0.236 -0.2454  0.8059  0.2905
 2318TIP3   OH228512   2.941   3.904   1.453  1.1046  0.3327 -0.4014
 2318TIP3    H128513   2.891   3.908   1.534  0.2222  0.0202 -0.9262
 2318TIP3    H228514   3.013   3.966   1.467  0.4137  1.0107  0.2477
 2319TIP3   OH228515   0.499   5.528   7.127 -0.2333 -0.4896 -0.6502
 2319TIP3    H128516   0.416   5.510   7.083  0.1234 -3.7034 -0.2773
 2319TIP3    H228517   0.536   5.441   7.144  1.2480  0.6506  2.9735
 2320TIP3   OH228518   6.035   1.336   7.343 -0.3262  0.0107  0.0048
 2320TIP3    H128519   6.021   1.264   7.405  1.3106 -0.4666 -0.1310
 2320TIP3    H228520   5.994   1.412   7.385  0.2570 -0.4221  1.4219
 2321TIP3   OH228521   1.211   3.956   0.535 -0.9156 -0.0513  0.1377
 2321TIP3    H128522   1.241   3.868   0.560 -1.2038 -0.3397 -0.4839
 2321TIP3    H228523   1.288   3.996   0.494 -0.9432 -0.2373 -0.1049
 2322TIP3   OH228524   2.529   3.304   1.311  0.6760 -0.3625 -0.2616
 2322TIP3    H128525   2.611   3.286   1.265  1.7378  0.0763  1.3974
 2322TIP3    H228526   2.504   3.221   1.350  0.7727 -0.3100 -0.0868
 2323TIP3   OH228527   1.352   5.634   0.818 -0.4677  0.5437 -0.3834
 2323TIP3    H128528   1.334   5.690   0.894 -1.3025 -3.4037  2.6382
 2323TIP3    H228529   1.276   5.576   0.813 -1.2621  1.5814 -5.4742
 2324TIP3   OH228530   6.128   4.938   6.584 -0.1353 -0.3355 -0.1657
 2324TIP3    H128531   6.096   4.861   6.630 -0.3881 -1.0207 -1.4337
 2324TIP3    H228532   6.073   4.943   6.505 -0.3739  1.3616  0.0765
 2325TIP3   OH228533   6.129   4.708   0.266 -0.1024  0.2767 -0.8597
 2325TIP3    H128534   6.072   4.697   0.342  1.3683  0.3094  0.2790
 2325TIP3    H228535   6.088   4.779   0.216 -0.7146  0.7383  0.2509
 2326TIP3   OH228536   5.442   5.522   1.901 -0.4158  0.3107  0.1782
 2326TIP3    H128537   5.466   5.551   1.812 -0.4537 -1.1172 -0.3315
 2326TIP3    H228538   5.431   5.427   1.892 -1.4572  0.2892  1.4991
 2327TIP3   OH228539   2.247   3.704   8.415 -0.4559 -1.2000 -0.3824
 2327TIP3    H128540   2.224   3.796   8.404 -1.5975 -1.3600  0.5087
 2327TIP3    H228541   2.290   3.680   8.333 -0.0849  0.1382 -0.5963
 2328TIP3   OH228542   1.397   1.421   7.537 -0.3711  0.1499  0.1941
 2328TIP3    H128543   1.471   1.369   7.567 -0.0834  0.1104 -0.5564
 2328TIP3    H228544   1.424   1.512   7.553 -0.9316  0.0896  1.6357
 2329TIP3   OH228545   6.321   0.618   7.861  0.2520  0.4830 -0.2186
 2329TIP3    H128546   6.366   0.559   7.920  0.9239 -1.0230 -2.1324
 2329TIP3    H228547   6.229   0.613   7.886  0.1816 -1.9627 -0.7326
 2330TIP3   OH228548   3.343   4.333   8.168 -0.4999  0.1138 -0.0736
 2330TIP3    H128549   3.369   4.263   8.108 -1.6962 -1.3419  1.0516
 2330TIP3    H228550   3.279   4.384   8.118 -1.0332 -0.7227 -0.2691
 2331TIP3   OH228551   1.117   0.729   0.427 -0.5979  0.1552  0.2076
 2331TIP3    H128552   1.160   0.647   0.449  1.9358  0.6543 -2.3463
 2331TIP3    H228553   1.176   0.797   0.461 -2.3626  1.0178  1.7738
 2332TIP3   OH228554   3.265   4.989   8.097 -0.4043 -0.6746  0.4400
 2332TIP3    H128555   3.180   4.962   8.131 -1.0872 -0.9943 -1.4240
 2332TIP3    H228556   3.294   5.058   8.157 -0.7998 -2.2245  2.5320
 2333TIP3   OH228557   5.587   4.700   0.697 -0.2263  0.5297 -0.2357
 2333TIP3    H128558   5.493   4.713   0.712 -0.4743 -0.2987 -1.0435
 2333TIP3    H228559   5.606   4.616   0.738  0.2318  0.8272  0.1734
 2334TIP3   OH228560   1.114   5.962   0.508  0.5514  0.0193 -0.9822
 2334TIP3    H128561   1.043   5.905   0.535  0.7963 -0.3572 -1.1223
 2334TIP3    H228562   1.149   5.922   0.428 -0.0760  1.0439 -1.7970
 2335TIP3   OH228563   0.180   3.454   1.560 -0.1086  0.4261 -0.1254
 2335TIP3    H128564   0.198   3.426   1.470  0.2595 -2.5973  0.8091
 2335TIP3    H228565   0.255   3.422   1.611 -1.6849 -0.5225  1.7006
 2336TIP3   OH228566   3.677   2.157   7.506  0.4364  0.0654 -0.0018
 2336TIP3    H128567   3.607   2.106   7.546  0.2883  0.6393  0.4944
 2336TIP3    H228568   3.640   2.188   7.424 -0.5153  1.7229  0.9892
 2337TIP3   OH228569   0.570   5.894   2.829  0.0393 -0.1909 -0.0215
 2337TIP3    H128570   0.522   5.875   2.748 -1.7211  2.8000  0.1830
 2337TIP3    H228571   0.502   5.917   2.892  1.3629 -2.4181  2.4271
 2338TIP3   OH228572   5.727   0.151   1.403 -0.0921  0.2779 -0.3320
 2338TIP3    H128573   5.632   0.149   1.405 -0.1978  2.1900 -0.8781
 2338TIP3    H228574   5.749   0.149   1.310  0.2746  1.6932 -0.3042
 2339TIP3   OH228575   6.635   6.404   7.276 -0.2041 -0.2397  0.0795
 2339TIP3    H128576   6.563   6.416   7.215 -0.5049 -0.1059  0.4553
 2339TIP3    H228577   6.708   6.375   7.222 -0.1068  1.0948 -0.5285
 2340TIP3   OH228578   5.764   4.968   7.834  0.1492  0.1894 -0.0050
 2340TIP3    H128579   5.697   4.970   7.765  0.2796 -1.7877 -0.2474
 2340TIP3    H228580   5.815   4.890   7.815 -0.5195 -1.1133  2.9902
 2341TIP3   OH228581   1.988   0.499   0.412  0.1976  0.1315 -0.4042
 2341TIP3    H128582   2.053   0.560   0.447  1.4468 -0.3051 -1.8446
 2341TIP3    H228583   1.931   0.553   0.358  0.9704  0.1361 -1.2395
 2342TIP3   OH228584   1.125   5.197   1.306  0.6013 -0.3322 -0.1164
 2342TIP3    H128585   1.044   5.149   1.289  1.2307 -1.0685 -1.1332
 2342TIP3    H228586   1.133   5.198   1.402  0.0035 -1.2916 -0.0487
 2343TIP3   OH228587   3.270   6.145   7.813 -0.1771 -0.2599  0.4821
 2343TIP3    H128588   3.314   6.152   7.897  0.8484 -0.1370 -0.0436
 2343TIP3    H228589   3.204   6.214   7.814  0.2628  0.1618  0.9324
 2344TIP3   OH228590   3.301   5.524   8.514 -0.1795  0.0408 -0.1197
 2344TIP3    H128591   3.346   5.608   8.504  1.9711 -0.9353  0.6962
 2344TIP3    H228592   3.305   5.484   8.427  1.6683 -0.5239  0.1895
 2345TIP3   OH228593   2.091   3.919   7.615 -0.2507 -0.7321 -0.3422
 2345TIP3    H128594   2.152   3.926   7.688  1.0074 -0.4909 -1.3787
 2345TIP3    H228595   2.101   3.829   7.584 -2.9857 -1.8339  1.5819
 2346TIP3   OH228596   6.259   4.898   0.776 -0.0766 -0.5631  0.0915
 2346TIP3    H128597   6.246   4.924   0.685  0.3252 -1.3045 -0.1889
 2346TIP3    H228598   6.283   4.979   0.821 -1.1232 -0.0307 -0.2834
 2347TIP3   OH228599   4.966   2.533   1.028  0.1688 -0.0381 -0.3643
 2347TIP3    H128600   4.998   2.454   0.983 -0.4397  0.7950 -2.3573
 2347TIP3    H228601   4.934   2.589   0.958  0.2411  1.8505  1.0486
 2348TIP3   OH228602   5.868   0.308   0.882  0.0810 -0.7862 -0.1954
 2348TIP3    H128603   5.788   0.344   0.843  1.0325  0.0873 -1.4234
 2348TIP3    H228604   5.886   0.230   0.830  0.0934 -0.9081 -0.0068
 2349TIP3   OH228605   1.853   4.313   8.582 -0.1991  0.0801  0.0968
 2349TIP3    H128606   1.760   4.315   8.602  0.2353 -1.0526  2.4468
 2349TIP3    H228607   1.870   4.223   8.553  0.5513 -0.3915  1.9086
 2350TIP3   OH228608   6.267   4.485   7.055 -0.2607 -0.2052 -0.9930
 2350TIP3    H128609   6.325   4.532   7.115 -1.5479  1.0565 -0.6621
 2350TIP3    H228610   6.273   4.393   7.082 -1.0040  0.3593  1.2925
 2351TIP3   OH228611   6.118   2.069   0.529  0.0212  0.0413 -0.3010
 2351TIP3    H128612   6.064   2.015   0.588 -0.1788  1.7170  1.1455
 2351TIP3    H228613   6.102   2.033   0.442 -1.1617 -1.3367  0.4347
 2352TIP3   OH228614   5.237   3.811   1.599 -0.5189 -0.2054 -0.0091
 2352TIP3    H128615   5.228   3.792   1.506  1.4759  1.5284 -0.6415
 2352TIP3    H228616   5.149   3.833   1.628 -1.5035 -2.4442 -1.0029
 2353TIP3   OH228617   1.798   0.539   6.757 -0.3852  0.5900  0.4836
 2353TIP3    H128618   1.859   0.612   6.749 -0.4007  0.4637 -1.1037
 2353TIP3    H228619   1.712   0.577   6.742 -0.7966  0.8347  3.0902
 2354TIP3   OH228620   5.230   1.466   8.472  0.4219 -0.1775 -0.3276
 2354TIP3    H128621   5.202   1.451   8.562  0.6641 -0.8546 -0.3647
 2354TIP3    H228622   5.151   1.499   8.428 -0.8044 -3.3630 -0.7813
 2355TIP3   OH228623   2.727   2.982   2.389 -0.1724 -0.1252 -0.3397
 2355TIP3    H128624   2.715   2.942   2.475 -1.4871  0.3939 -0.2485
 2355TIP3    H228625   2.692   3.071   2.399 -0.1779  0.0009 -1.3564
 2356TIP3   OH228626   4.837   2.221   0.225 -0.1561 -0.3893 -0.7598
 2356TIP3    H128627   4.927   2.191   0.222 -0.0119 -0.6261  2.2484
 2356TIP3    H228628   4.785   2.140   0.223 -0.1611 -0.4018 -0.3180
 2357TIP3   OH228629   1.552   1.415   2.826  0.8556 -0.5127  0.3739
 2357TIP3    H128630   1.461   1.404   2.796  0.3440  0.9629  1.2568
 2357TIP3    H228631   1.544   1.472   2.902  2.5280 -0.5268  0.5755
 2358TIP3   OH228632   2.478   6.679   7.453 -0.1557 -0.0247 -0.0530
 2358TIP3    H128633   2.438   6.749   7.505  1.2023  0.2687  0.6184
 2358TIP3    H228634   2.494   6.719   7.368 -2.9918 -0.6914 -1.0224
 2359TIP3   OH228635   6.613   6.705   0.477  0.0537  0.5054 -0.1119
 2359TIP3    H128636   6.688   6.760   0.502 -2.6636  4.5984 -0.0707
 2359TIP3    H228637   6.561   6.698   0.557  0.4298 -2.7059 -0.0029
 2360TIP3   OH228638   2.151   2.704   0.032  0.1419 -0.4752  0.0615
 2360TIP3    H128639   2.242   2.682   0.011  0.4868  1.3112 -0.4863
 2360TIP3    H228640   2.147   2.799   0.025 -1.3680 -0.3557  1.7511
 2361TIP3   OH228641   0.135   5.137   1.429  0.0830  0.1548  0.7427
 2361TIP3    H128642   0.093   5.058   1.464 -0.2097  0.9007  2.1443
 2361TIP3    H228643   0.186   5.171   1.503  0.7220  0.9263 -0.0406
 2362TIP3   OH228644   4.226   2.512   7.402  0.2713 -0.0949 -0.2377
 2362TIP3    H128645   4.216   2.607   7.414  0.9569 -0.3339  3.5550
 2362TIP3    H228646   4.164   2.490   7.333 -1.3766  2.8592  0.1269
 2363TIP3   OH228647   1.970   0.006   6.812  0.2621 -0.0833  0.3490
 2363TIP3    H128648   1.939   0.088   6.773 -1.5067  0.2102  2.1956
 2363TIP3    H228649   1.919  -0.062   6.768 -0.0032  0.0239  0.4905
 2364TIP3   OH228650   2.821   1.046   1.412 -0.1198 -0.5563 -0.6812
 2364TIP3    H128651   2.893   0.984   1.430  0.5921  0.6843  1.1453
 2364TIP3    H228652   2.863   1.118   1.365 -0.8450 -1.2016 -2.3694
 2365TIP3   OH228653   0.808   1.253   7.993  0.1090  0.0114  0.7330
 2365TIP3    H128654   0.809   1.262   7.898 -1.7010  2.0632  0.8154
 2365TIP3    H228655   0.873   1.316   8.024  0.1113 -0.0526  0.8584
 2366TIP3   OH228656   2.670   4.308   1.969  0.1192 -0.6090 -0.3159
 2366TIP3    H128657   2.643   4.328   2.058  0.5500 -0.5772 -0.1915
 2366TIP3    H228658   2.597   4.339   1.914 -0.1647 -0.6688  0.0224
 2367TIP3   OH228659   2.280   1.675   2.321  0.0860 -0.4480 -0.3964
 2367TIP3    H128660   2.207   1.688   2.261  0.5564 -0.4570 -0.9916
 2367TIP3    H228661   2.306   1.584   2.308  1.1529 -0.0435 -1.3224
 2368TIP3   OH228662   1.414   4.350   3.299  0.0578 -0.1325  0.1455
 2368TIP3    H128663   1.377   4.274   3.344  0.5476 -1.9264 -2.2963
 2368TIP3    H228664   1.492   4.317   3.255 -0.9574  1.1674 -2.9025
 2369TIP3   OH228665   6.026   1.519   1.811 -0.0529  0.2851  0.0347
 2369TIP3    H128666   6.017   1.610   1.781  1.4605  0.6052  0.4577
 2369TIP3    H228667   6.109   1.518   1.860  1.6051 -1.9903 -2.4938
 2370TIP3   OH228668   1.854   5.754   0.625 -0.1588  0.9483  0.4895
 2370TIP3    H128669   1.784   5.785   0.683 -0.4363  0.7411  0.2669
 2370TIP3    H228670   1.930   5.807   0.650  0.3427 -0.6394  2.6009
 2371TIP3   OH228671   5.842   0.206   2.399  0.0195 -0.7510 -0.0928
 2371TIP3    H128672   5.844   0.227   2.492  0.2027 -0.3560 -0.1845
 2371TIP3    H228673   5.823   0.112   2.396 -0.8062 -0.6060  0.3222
 2372TIP3   OH228674   3.098   1.789   3.343  0.1275 -0.1604 -0.0064
 2372TIP3    H128675   3.067   1.767   3.255 -1.5066  1.9676 -0.0590
 2372TIP3    H228676   3.147   1.870   3.332  1.7976 -1.0117  0.7862
 2373TIP3   OH228677   0.660   5.165   0.223  0.3403  0.0414  0.1902
 2373TIP3    H128678   0.708   5.096   0.267 -1.5235 -0.5441  1.4165
 2373TIP3    H228679   0.727   5.226   0.192  1.9789 -1.9791 -0.3951
 2374TIP3   OH228680   4.912   0.468   0.221 -0.0253  0.2910 -0.5379
 2374TIP3    H128681   4.825   0.508   0.210  0.5066  1.4425 -0.6956
 2374TIP3    H228682   4.924   0.463   0.315 -0.0948  0.5233 -0.5143
 2375TIP3   OH228683   4.757   3.839   0.910 -0.3935  0.0056  0.1071
 2375TIP3    H128684   4.810   3.919   0.909  1.5888 -1.2225  1.1793
 2375TIP3    H228685   4.796   3.784   0.842  0.0978 -1.1372  1.2837
 2376TIP3   OH228686   3.401   1.020   8.466  0.5712  0.5637  0.7733
 2376TIP3    H128687   3.389   0.927   8.483 -1.0295  1.2746  4.8272
 2376TIP3    H228688   3.313   1.052   8.445  0.9124  1.3494  0.4795
 2377TIP3   OH228689   0.081   0.267   8.092  0.3185  0.1410 -0.6029
 2377TIP3    H128690   0.161   0.319   8.089  1.0251 -0.7901  0.8546
 2377TIP3    H228691   0.108   0.182   8.127 -1.2102 -0.3785 -0.5829
 2378TIP3   OH228692   4.719   5.195   7.729 -0.8002  0.4912  0.2132
 2378TIP3    H128693   4.661   5.123   7.703  0.6184 -0.8406  0.6482
 2378TIP3    H228694   4.807   5.158   7.726 -0.0720  2.0603  0.9878
 2379TIP3   OH228695   4.390   3.517   0.621 -0.8204 -0.2881  0.4968
 2379TIP3    H128696   4.479   3.482   0.624 -0.8233 -0.2784  0.7050
 2379TIP3    H228697   4.392   3.592   0.681 -0.9122 -0.1598  0.3384
 2380TIP3   OH228698   1.171   2.644   2.047 -0.1207 -0.3542 -0.0911
 2380TIP3    H128699   1.175   2.670   2.139 -0.3306 -0.5379 -0.0284
 2380TIP3    H228700   1.242   2.579   2.038  0.2356  0.0448 -0.1862
 2381TIP3   OH228701   2.147   2.389   8.172 -0.0693 -0.0124 -0.1590
 2381TIP3    H128702   2.151   2.320   8.239 -0.0244 -0.4116 -0.5684
 2381TIP3    H228703   2.130   2.342   8.090 -0.0232  0.4636 -0.4438
 2382TIP3   OH228704   5.266   1.803   7.154  0.0110  0.8838 -0.4449
 2382TIP3    H128705   5.362   1.803   7.146  0.0466  1.1442 -0.0514
 2382TIP3    H228706   5.247   1.733   7.216 -0.1842 -0.3674 -1.8660
 2383TIP3   OH228707   2.176   2.356   7.858  0.0387 -0.2439 -0.1263
 2383TIP3    H128708   2.081   2.350   7.853 -0.0298 -0.7861  1.2479
 2383TIP3    H228709   2.196   2.448   7.843 -0.8015  0.0668  0.5942
 2384TIP3   OH228710   3.818   0.226   0.347 -1.2917 -0.7456 -0.0471
 2384TIP3    H128711   3.778   0.313   0.344  0.4652  0.1031 -0.6733
 2384TIP3    H228712   3.866   0.226   0.430  1.0567  0.0634 -1.3156
 2385TIP3   OH228713   5.373   1.513   0.702  0.5291  0.3685  1.0904
 2385TIP3    H128714   5.461   1.479   0.687  0.6907  1.0806  0.3762
 2385TIP3    H228715   5.382   1.608   0.700 -0.3883  0.4535  0.1587
 2386TIP3   OH228716   4.155   3.520   0.106 -0.4001  0.1605  0.0104
 2386TIP3    H128717   4.078   3.477   0.144  0.1309 -0.3374  0.5516
 2386TIP3    H228718   4.216   3.448   0.088 -0.1031  0.5373 -0.5217
 2387TIP3   OH228719   2.253   6.494   1.360 -0.1127  0.6404 -0.4802
 2387TIP3    H128720   2.162   6.511   1.337  0.0654  2.4181  0.0277
 2387TIP3    H228721   2.283   6.430   1.295 -1.5485  0.4438 -0.9748
 2388TIP3   OH228722   4.030   0.510   0.447  0.1874  0.2061 -0.5274
 2388TIP3    H128723   4.089   0.439   0.474 -0.3384 -0.1772 -0.3817
 2388TIP3    H228724   3.989   0.539   0.528  0.1583  0.4662 -0.6336
 2389TIP3   OH228725   5.321   5.358   0.456 -0.0869 -0.7173 -0.0094
 2389TIP3    H128726   5.391   5.342   0.393  0.0249 -1.5040  0.2966
 2389TIP3    H228727   5.255   5.292   0.436 -0.7368  0.0082 -0.2792
 2390TIP3   OH228728   4.201   5.225   7.422  0.2187  0.1645  0.8206
 2390TIP3    H128729   4.244   5.307   7.444  1.3175 -0.3286  0.5542
 2390TIP3    H228730   4.147   5.246   7.345  2.4984  0.0651 -0.8840
 2391TIP3   OH228731   6.329   0.207   0.490 -0.7485  0.1276  0.4446
 2391TIP3    H128732   6.420   0.198   0.462 -0.2634  0.6501  1.7769
 2391TIP3    H228733   6.299   0.287   0.448 -0.2635  0.5134  0.8223
 2392TIP3   OH228734   6.805   3.371   1.059  0.4493  0.1983  0.0708
 2392TIP3    H128735   6.835   3.296   1.008  0.6140  0.2159  0.1411
 2392TIP3    H228736   6.717   3.346   1.087  0.3997  0.1445 -0.1311
 2393TIP3   OH228737   1.390   3.474   0.964 -0.0074  0.1212 -0.7424
 2393TIP3    H128738   1.416   3.540   1.028 -1.1509 -0.9516  0.9215
 2393TIP3    H228739   1.470   3.454   0.915  0.6438  1.7819 -0.3976
 2394TIP3   OH228740   4.180   5.860   0.964  0.9512 -0.1558 -0.6217
 2394TIP3    H128741   4.141   5.817   0.888 -0.2497  0.4170 -0.3572
 2394TIP3    H228742   4.180   5.793   1.032  0.3755 -0.1567 -0.6166
 2395TIP3   OH228743   0.233   1.524   7.813  0.2130  0.1005  0.3662
 2395TIP3    H128744   0.220   1.582   7.887  1.7594  0.9816 -0.0087
 2395TIP3    H228745   0.177   1.561   7.744  0.5582  0.6584  0.3812
 2396TIP3   OH228746   2.733   1.805   0.056 -0.0308  0.2584 -0.4363
 2396TIP3    H128747   2.747   1.739  -0.011  2.6372 -2.2611  2.2616
 2396TIP3    H228748   2.802   1.870   0.042 -0.8900  1.0077 -1.3791
 2397TIP3   OH228749   0.022   3.660   7.538 -0.0651  0.0534 -0.3683
 2397TIP3    H128750  -0.002   3.624   7.452  0.3434 -2.9891  0.6870
 2397TIP3    H228751   0.107   3.700   7.524 -0.0171 -0.3779 -1.4041
 2398TIP3   OH228752   0.025   5.277   0.841  0.8700  0.3776  0.1025
 2398TIP3    H128753  -0.003   5.288   0.750 -2.6193  0.6321  1.0554
 2398TIP3    H228754   0.046   5.184   0.850  0.7262  0.2543 -0.8143
 2399TIP3   OH228755   2.918   6.400   8.547  0.2926  0.0747 -0.2016
 2399TIP3    H128756   2.962   6.485   8.539  1.9537 -0.4893  1.9504
 2399TIP3    H228757   2.924   6.361   8.460 -1.4085  2.5108 -1.5161
 2400TIP3   OH228758   5.323   0.218   2.527 -0.3268  0.1472 -0.2051
 2400TIP3    H128759   5.231   0.191   2.531 -0.2227 -0.1830  0.0950
 2400TIP3    H228760   5.328   0.280   2.455 -0.9600  0.8437  0.3403
 2401TIP3   OH228761   6.797   3.073   7.510 -0.4111 -0.3522 -0.5413
 2401TIP3    H128762   6.846   3.127   7.448 -0.4375 -1.9260 -1.9897
 2401TIP3    H228763   6.739   3.021   7.456 -0.8489 -1.3858  0.8638
 2402TIP3   OH228764   1.135   0.203   7.909 -0.2704  0.0637 -0.7552
 2402TIP3    H128765   1.169   0.192   7.821  0.7828 -1.5600 -0.1837
 2402TIP3    H228766   1.042   0.181   7.903 -0.6645  1.8102 -1.7846
 2403TIP3   OH228767   5.714   1.449   7.154  0.0633  0.7792  0.1184
 2403TIP3    H128768   5.765   1.475   7.077  1.5504  0.1631  0.8529
 2403TIP3    H228769   5.687   1.359   7.136 -1.4503  1.3461 -0.5901
 2404TIP3   OH228770   4.284   4.245   0.588  0.2690  0.2666  0.1312
 2404TIP3    H128771   4.307   4.335   0.565  0.5396  0.4931  1.2184
 2404TIP3    H228772   4.368   4.205   0.614  0.0065  0.0030  0.5890
 2405TIP3   OH228773   3.016   0.792   1.191  0.3839  0.0657  0.2791
 2405TIP3    H128774   2.946   0.731   1.166 -0.5696  0.8387  0.9693
 2405TIP3    H228775   2.990   0.875   1.152  1.7981  0.0062 -0.8603
 2406TIP3   OH228776   3.004   2.147   8.109  0.3505 -0.0017 -0.4242
 2406TIP3    H128777   3.029   2.067   8.154 -0.1350  0.7539  1.3119
 2406TIP3    H228778   2.987   2.121   8.019  0.8483 -1.7070 -0.0492
 2407TIP3   OH228779   3.505   1.496   1.090 -0.9039 -0.6190 -0.3000
 2407TIP3    H128780   3.466   1.440   1.022  0.5906 -3.0808  0.7638
 2407TIP3    H228781   3.588   1.455   1.110 -0.7071  0.8045  2.1286
 2408TIP3   OH228782   2.962   0.795   2.466  0.2628  0.1133  0.1143
 2408TIP3    H128783   2.907   0.870   2.491  0.5040  0.3596 -0.0856
 2408TIP3    H228784   3.049   0.818   2.498  0.3139 -0.1318  0.1466
 2409TIP3   OH228785   2.161   1.254   0.927  0.8174  0.0445  0.0354
 2409TIP3    H128786   2.090   1.263   0.862  0.0065  0.0625  0.8995
 2409TIP3    H228787   2.237   1.295   0.885 -0.4357  2.8065  0.2186
 2410TIP3   OH228788   0.956   0.402   2.162 -0.6462 -0.2439  0.2916
 2410TIP3    H128789   1.041   0.444   2.174 -0.7072 -0.0056 -0.0830
 2410TIP3    H228790   0.941   0.353   2.243  1.3058 -2.9371 -0.8671
 2411TIP3   OH228791   1.162   0.910   1.370  0.2295 -0.3389 -0.4037
 2411TIP3    H128792   1.114   0.976   1.320 -1.4710 -0.6757  0.6875
 2411TIP3    H228793   1.205   0.959   1.440 -1.4192 -0.3847  0.6905
 2412TIP3   OH228794   4.307   5.947   2.456 -0.1343 -0.1477 -0.6844
 2412TIP3    H128795   4.353   5.864   2.473  1.0236  0.1154 -2.2836
 2412TIP3    H228796   4.364   6.014   2.494  0.7807  0.1644 -2.5025
 2413TIP3   OH228797   5.327   6.761   8.034  0.1844  0.4054  0.3593
 2413TIP3    H128798   5.388   6.706   7.986  0.3803  1.4752 -0.6686
 2413TIP3    H228799   5.332   6.730   8.124 -0.0403 -1.5174 -0.2602
 2414TIP3   OH228800   2.151   1.509   7.619  0.2220 -0.2878  0.5720
 2414TIP3    H128801   2.137   1.528   7.711 -1.8188  0.2458  0.2150
 2414TIP3    H228802   2.138   1.415   7.611 -2.3195 -0.0174  0.5044
 2415TIP3   OH228803   2.602   2.226   1.747  0.0977 -0.2726  0.0780
 2415TIP3    H128804   2.686   2.179   1.743  0.8081  0.8377  1.2629
 2415TIP3    H228805   2.537   2.157   1.759  1.0952 -0.9979  1.5670
 2416TIP3   OH228806   4.816   3.490   7.680  0.6392 -0.1479  0.0879
 2416TIP3    H128807   4.857   3.540   7.751  1.0280 -1.2680  0.6652
 2416TIP3    H228808   4.864   3.516   7.602  0.8318  0.3825  0.3755
 2417TIP3   OH228809   6.534   5.588   2.450  0.0039  0.1139 -0.1817
 2417TIP3    H128810   6.548   5.611   2.358 -0.3669 -0.1208 -0.2995
 2417TIP3    H228811   6.554   5.495   2.454 -1.1248 -0.1456 -0.2764
 2418TIP3   OH228812   5.506   6.074   8.137 -0.2304 -0.2005 -0.4943
 2418TIP3    H128813   5.441   6.116   8.081 -0.7500  0.3869  0.5262
 2418TIP3    H228814   5.456   6.046   8.215  0.5012 -0.8664 -0.2537
 2419TIP3   OH228815   2.614   3.227   2.344 -0.1852 -0.1989  0.5725
 2419TIP3    H128816   2.669   3.304   2.332 -0.3464 -0.2493 -0.5671
 2419TIP3    H228817   2.547   3.255   2.406  0.5101  0.1711  1.1761
 2420TIP3   OH228818   2.601   6.438   7.363  0.5303  0.4238 -0.8225
 2420TIP3    H128819   2.663   6.409   7.431 -3.2623 -0.5846  2.6030
 2420TIP3    H228820   2.534   6.487   7.412 -2.0534  0.4091 -4.0370
 2421TIP3   OH228821   5.965   3.845   2.163  0.2250 -0.2487  0.2915
 2421TIP3    H128822   5.909   3.768   2.153  1.1554 -1.0058  0.7596
 2421TIP3    H228823   5.938   3.883   2.247 -1.4422  0.9687 -0.7626
 2422TIP3   OH228824   0.882   2.930   7.609  0.2439  0.1221 -0.1264
 2422TIP3    H128825   0.959   2.915   7.555 -0.5786  1.0739 -1.6212
 2422TIP3    H228826   0.915   2.925   7.699  2.0665  0.6066 -0.7233
 2423TIP3   OH228827   3.441   3.063   7.899  0.0309  0.5334 -0.1744
 2423TIP3    H128828   3.526   3.057   7.854 -0.4210 -1.5884 -0.8712
 2423TIP3    H228829   3.464   3.068   7.992  1.0490 -3.6575  0.0046
 2424TIP3   OH228830   1.860   1.275   0.326 -0.5022  0.7794  0.8888
 2424TIP3    H128831   1.865   1.259   0.420 -2.8803 -0.8043  0.8256
 2424TIP3    H228832   1.830   1.365   0.318  0.1729  1.0833  1.6033
 2425TIP3   OH228833   1.850   3.805   2.451  0.4385 -0.0604 -0.0590
 2425TIP3    H128834   1.895   3.887   2.471 -0.6889  0.6863 -0.4792
 2425TIP3    H228835   1.850   3.800   2.355  0.3825 -0.4845 -0.0398
 2426TIP3   OH228836   4.324   3.498   2.295 -0.1181  0.1157  0.1848
 2426TIP3    H128837   4.401   3.515   2.241  0.6049 -0.8763  0.8904
 2426TIP3    H228838   4.289   3.415   2.262 -1.1493  0.7608 -0.4086
 2427TIP3   OH228839   4.861   4.937   6.828  0.8038  0.4764 -0.1741
 2427TIP3    H128840   4.934   4.985   6.789  0.6976  1.4077  0.7399
 2427TIP3    H228841   4.816   5.001   6.882  0.4437 -0.5612  0.8006
 2428TIP3   OH228842   1.369   2.552   2.340  0.2614  0.0437  0.5778
 2428TIP3    H128843   1.443   2.546   2.280 -1.3198  0.4365 -1.5110
 2428TIP3    H228844   1.367   2.467   2.384  2.2296  0.2100  1.1268
 2429TIP3   OH228845   6.400   4.633   1.184  0.5822 -0.1581  0.4486
 2429TIP3    H128846   6.344   4.628   1.107 -0.8443 -0.3977  1.4614
 2429TIP3    H228847   6.489   4.633   1.149  0.0873  4.1037 -1.5253
 2430TIP3   OH228848   6.801   5.458   7.672  0.0289  0.3632 -0.0902
 2430TIP3    H128849   6.747   5.389   7.633  0.6781 -0.0278 -0.3099
 2430TIP3    H228850   6.862   5.482   7.603  0.4335  0.4820  0.3057
 2431TIP3   OH228851   1.768   6.705   8.589 -0.4406  0.1054 -0.2570
 2431TIP3    H128852   1.682   6.718   8.548 -1.2040  0.3460  1.3760
 2431TIP3    H228853   1.751   6.703   8.683  1.2305 -0.7813  0.0701
 2432TIP3   OH228854   1.102   3.468   1.847  0.2062 -0.0864  0.1036
 2432TIP3    H128855   1.055   3.385   1.835  1.2232 -0.4140 -2.2186
 2432TIP3    H228856   1.173   3.446   1.908 -0.6839 -0.4001  1.0557
 2433TIP3   OH228857   6.186   0.253   1.612 -0.4152 -0.5701  0.2257
 2433TIP3    H128858   6.268   0.207   1.597 -1.3413 -2.2919  0.2645
 2433TIP3    H228859   6.203   0.343   1.583  2.2340 -0.1947  2.5444
 2434TIP3   OH228860   6.793   4.957   0.734 -0.1964 -0.0015 -0.1455
 2434TIP3    H128861   6.785   4.865   0.710 -0.4918  0.0522 -0.2609
 2434TIP3    H228862   6.886   4.969   0.754  0.0451 -0.0740 -1.1566
 2435TIP3   OH228863   2.185   6.515   7.571  0.2034  0.2220 -0.4067
 2435TIP3    H128864   2.252   6.506   7.503  1.3125  3.3237  0.0879
 2435TIP3    H228865   2.141   6.597   7.550 -1.5439 -0.3219  0.9119
 2436TIP3   OH228866   4.634   5.870   2.366  0.0241  0.4213  0.8187
 2436TIP3    H128867   4.686   5.807   2.317 -0.2452  2.5326 -2.4803
 2436TIP3    H228868   4.580   5.817   2.425  1.3311 -2.2187 -0.2223
 2437TIP3   OH228869   1.040   1.452   0.287  0.9797 -0.1682  0.1140
 2437TIP3    H128870   1.007   1.428   0.373 -1.6569  2.7173  0.0669
 2437TIP3    H228871   1.126   1.492   0.305  0.8382 -0.3643  1.3033
 2438TIP3   OH228872   2.428   1.945   0.759  0.4524 -0.4520  0.1742
 2438TIP3    H128873   2.415   2.026   0.710 -0.5476 -0.9336 -0.4023
 2438TIP3    H228874   2.445   1.879   0.691 -0.0093 -0.9530  0.5304
 2439TIP3   OH228875   3.005   3.362   2.491  0.1712 -0.6650  0.8161
 2439TIP3    H128876   3.034   3.286   2.439  0.3714 -0.4771  0.6489
 2439TIP3    H228877   3.087   3.398   2.526  0.4330  1.2313 -1.5046
 2440TIP3   OH228878   2.721   4.393   0.815  0.2546  0.2625  0.2485
 2440TIP3    H128879   2.704   4.321   0.754  1.7164 -0.1218  0.2472
 2440TIP3    H228880   2.635   4.430   0.833 -0.3048 -0.1358 -1.4033
 2441TIP3   OH228881   2.927   4.585   2.691  0.0704  0.3580  0.3098
 2441TIP3    H128882   2.878   4.667   2.695 -0.5783  0.0703 -1.2065
 2441TIP3    H228883   3.018   4.612   2.681 -0.3164  0.9731 -2.2788
 2442TIP3   OH228884   5.196   2.483   0.638  0.7235 -0.3992  0.0851
 2442TIP3    H128885   5.142   2.549   0.594  1.7013  1.4872  1.6217
 2442TIP3    H228886   5.137   2.444   0.703 -0.2909 -2.1866 -1.7611
 2443TIP3   OH228887   1.401   6.772   0.512  0.1162 -0.2900 -0.1131
 2443TIP3    H128888   1.426   6.851   0.465  1.9624 -1.3152 -0.9362
 2443TIP3    H228889   1.307   6.764   0.497  0.1985  0.8575 -1.3735
 2444TIP3   OH228890   6.798   2.359   0.149 -0.3837 -0.1076  0.0165
 2444TIP3    H128891   6.764   2.358   0.239 -1.3992 -1.1283 -0.3579
 2444TIP3    H228892   6.729   2.402   0.098 -0.7246 -1.3200 -0.5849
 2445TIP3   OH228893   6.011   2.816   1.987 -0.4912  0.1122  0.3473
 2445TIP3    H128894   6.050   2.758   2.053 -1.3647  0.8787  1.5913
 2445TIP3    H228895   6.085   2.859   1.946  0.0684 -0.2150  0.9989
 2446TIP3   OH228896   2.027   5.242   8.482  0.0716  0.0964  0.1053
 2446TIP3    H128897   2.050   5.314   8.540 -0.2394  0.4417 -0.1977
 2446TIP3    H228898   2.044   5.163   8.533 -1.7426  0.4054  1.2792
 2447TIP3   OH228899   6.461   6.791   2.280  0.3796  0.3240  0.5990
 2447TIP3    H128900   6.392   6.807   2.217 -0.2760  1.7778  1.6298
 2447TIP3    H228901   6.485   6.699   2.267 -1.3338 -0.0480 -0.1617
 2448TIP3   OH228902   6.381   6.508   2.246  0.0066 -0.3349 -0.4894
 2448TIP3    H128903   6.439   6.432   2.240  0.6595  0.1820 -0.9362
 2448TIP3    H228904   6.295   6.474   2.220 -0.1616 -1.3581  1.2202
 2449TIP3   OH228905   5.479   6.159   2.821 -0.6797  0.0476  0.3272
 2449TIP3    H128906   5.456   6.086   2.763  1.5522 -0.4380 -0.0337
 2449TIP3    H228907   5.517   6.117   2.898 -0.3662  0.7920  0.5879
 2450TIP3   OH228908   4.053   1.303   2.093  0.3002 -0.3327  0.3864
 2450TIP3    H128909   4.107   1.256   2.158  0.3332 -0.5558  0.1990
 2450TIP3    H228910   3.963   1.278   2.115  0.0201  2.0409  2.3331
 2451TIP3   OH228911   0.874   2.257   1.642  0.5346 -0.2553 -0.0165
 2451TIP3    H128912   0.786   2.227   1.666  0.3555  0.3708  0.1236
 2451TIP3    H228913   0.900   2.316   1.714  0.0928  1.4498 -1.1936
 2452TIP3   OH228914   4.917   6.442   1.394  0.1762 -0.0978 -0.3436
 2452TIP3    H128915   4.982   6.393   1.445 -0.3857 -1.5909 -0.9940
 2452TIP3    H228916   4.882   6.507   1.455  2.2469  0.7398  0.0267
 2453TIP3   OH228917   5.420   4.547   8.401 -0.0884 -0.1707 -0.0418
 2453TIP3    H128918   5.493   4.544   8.462 -0.4084  1.6030  0.4650
 2453TIP3    H228919   5.401   4.640   8.389 -1.0555 -0.5246 -1.6195
 2454TIP3   OH228920   6.461   5.181   1.462  0.3010  0.1886 -0.1873
 2454TIP3    H128921   6.416   5.165   1.545 -0.5633  1.6969 -0.3340
 2454TIP3    H228922   6.554   5.175   1.483  0.1339 -2.8478  0.1704
 2455TIP3   OH228923   3.503   6.569   1.516  0.3582  0.0597  0.0088
 2455TIP3    H128924   3.511   6.664   1.504 -0.4699  0.1266 -0.0484
 2455TIP3    H228925   3.530   6.554   1.607 -0.2503  0.4510  0.2596
 2456TIP3   OH228926   3.456   1.757   7.359  0.4632  0.0526  0.0177
 2456TIP3    H128927   3.384   1.749   7.421 -0.7647 -0.9686 -1.4719
 2456TIP3    H228928   3.458   1.850   7.336  0.2117  0.2415  0.7513
 2457TIP3   OH228929   5.917   5.202   0.811 -0.4463  0.1260 -0.2703
 2457TIP3    H128930   5.940   5.123   0.763  0.8167  0.4343 -0.2213
 2457TIP3    H228931   5.897   5.171   0.900 -2.3994 -0.3966 -0.8452
 2458TIP3   OH228932   0.533   1.883   2.271 -0.2625 -0.4836  0.3559
 2458TIP3    H128933   0.588   1.897   2.348  0.4712 -1.9521  0.1327
 2458TIP3    H228934   0.501   1.970   2.248  1.8886  0.4213  0.5686
 2459TIP3   OH228935   0.396   6.725   7.968 -0.1126  0.1246 -0.4827
 2459TIP3    H128936   0.312   6.724   8.015 -0.0257  3.8989  0.0890
 2459TIP3    H228937   0.383   6.791   7.900  1.6892 -0.9879 -1.9918
 2460TIP3   OH228938   4.424   1.543   8.228 -0.6500 -0.6423  0.1524
 2460TIP3    H128939   4.441   1.456   8.264  1.7409  0.4277  1.9461
 2460TIP3    H228940   4.508   1.569   8.189 -0.9536  1.2713  0.6865
 2461TIP3   OH228941   3.735   2.962   0.801 -0.1198 -0.7963  0.2355
 2461TIP3    H128942   3.736   2.895   0.870  0.9933  0.3716  1.4018
 2461TIP3    H228943   3.649   2.952   0.760 -0.6670 -1.7791  1.5266
 2462TIP3   OH228944   3.954   1.049   8.239 -0.0039 -0.6278 -0.7681
 2462TIP3    H128945   4.046   1.055   8.215  1.2509  0.7325  3.5153
 2462TIP3    H228946   3.938   0.956   8.251  1.6023 -0.7319  0.8347
 2463TIP3   OH228947   1.459   4.322   2.238  0.1268  0.0173  0.1671
 2463TIP3    H128948   1.376   4.341   2.195  1.7682  1.4007 -2.7141
 2463TIP3    H228949   1.496   4.249   2.187  1.0599 -0.0025  0.8409
 2464TIP3   OH228950   3.362   4.602   7.981 -0.2240  0.2738 -0.0668
 2464TIP3    H128951   3.435   4.594   7.920 -0.6593  4.2133 -1.3917
 2464TIP3    H228952   3.284   4.592   7.926 -0.7152 -0.8082  0.7811
 2465TIP3   OH228953   3.278   2.920   7.593 -0.0465  0.1040  0.3265
 2465TIP3    H128954   3.270   2.828   7.569 -0.3384 -0.0447  0.9643
 2465TIP3    H228955   3.330   2.959   7.523  1.2305 -0.8235  0.7218
 2466TIP3   OH228956   4.603   5.362   1.145  0.1320  0.1931 -0.6566
 2466TIP3    H128957   4.564   5.304   1.210  0.3892  1.2270  0.4572
 2466TIP3    H228958   4.571   5.329   1.061 -1.7848 -0.0105  0.1068
 2467TIP3   OH228959   3.987   2.290   1.939 -0.4042  0.0272  0.1526
 2467TIP3    H128960   4.079   2.268   1.925 -1.1617 -2.2773 -1.8982
 2467TIP3    H228961   3.948   2.212   1.978 -1.3823  1.2598  1.7882
 2468TIP3   OH228962   2.524   2.035   7.671 -0.3051  0.0173  0.2511
 2468TIP3    H128963   2.544   1.962   7.613 -0.9493 -0.5225  0.6968
 2468TIP3    H228964   2.466   1.998   7.737 -1.2714  1.0988  0.0455
 2469TIP3   OH228965   4.886   0.422   0.520  0.1341  0.0665  0.3043
 2469TIP3    H128966   4.950   0.460   0.581  0.7230 -0.5373  0.0741
 2469TIP3    H228967   4.912   0.330   0.513 -0.5851 -0.1144 -0.0270
 2470TIP3   OH228968   5.341   2.163   8.077  0.3910  0.0008 -0.0704
 2470TIP3    H128969   5.345   2.109   7.997 -1.4216  1.6153 -1.3468
 2470TIP3    H228970   5.272   2.123   8.129 -0.7843  0.8633 -0.9061
 2471TIP3   OH228971   6.787   2.479   1.582 -0.2157  0.1982 -0.7439
 2471TIP3    H128972   6.791   2.412   1.513 -1.2753 -2.9057  1.9541
 2471TIP3    H228973   6.779   2.430   1.663 -0.2577  3.6725  1.5813
 2472TIP3   OH228974   0.712   6.580   0.061 -0.1867 -0.4187  0.2798
 2472TIP3    H128975   0.684   6.671   0.049  0.4188 -0.0114  1.6675
 2472TIP3    H228976   0.723   6.572   0.156 -0.3742 -1.9961  0.1854
 2473TIP3   OH228977   1.023   1.866   1.768 -0.8383 -0.1116  0.0232
 2473TIP3    H128978   1.060   1.940   1.817 -1.5507  0.1162  0.2310
 2473TIP3    H228979   1.073   1.790   1.799 -0.9566  0.0993  0.7639
 2474TIP3   OH228980   1.498   0.408   0.585  0.1921 -0.4833  0.2870
 2474TIP3    H128981   1.585   0.397   0.546  0.7597  0.4453  1.2255
 2474TIP3    H228982   1.505   0.368   0.672 -0.1517  0.0599  0.5716
 2475TIP3   OH228983   5.449   4.157   0.528 -0.2405  0.5967  0.2890
 2475TIP3    H128984   5.530   4.201   0.556 -0.5590  1.6703 -0.4227
 2475TIP3    H228985   5.463   4.065   0.551  1.7654  0.5047 -1.0883
 2476TIP3   OH228986   5.148   4.354   1.041 -0.3683 -0.1649  0.0921
 2476TIP3    H128987   5.216   4.305   0.995  0.0966 -0.2479  0.8424
 2476TIP3    H228988   5.163   4.333   1.134  0.4370  2.0917  0.5435
 2477TIP3   OH228989   2.048   5.627   1.478 -0.3857 -0.1848  0.1019
 2477TIP3    H128990   1.957   5.654   1.485 -0.3816 -0.0245 -0.4344
 2477TIP3    H228991   2.045   5.537   1.444 -0.3205  0.2635 -1.1417
 2478TIP3   OH228992   0.764   4.916   7.505  0.1117 -0.0329 -0.3914
 2478TIP3    H128993   0.837   4.856   7.486 -0.9958 -0.9935 -1.8803
 2478TIP3    H228994   0.686   4.870   7.472 -0.9730  1.6219 -0.2612
 2479TIP3   OH228995   0.000   1.637   8.597 -0.3563  0.3034  0.6383
 2479TIP3    H128996   0.075   1.659   8.541  0.1258  2.8287  2.1431
 2479TIP3    H228997  -0.063   1.707   8.581 -2.4565 -1.6716 -0.4652
 2480TIP3   OH228998   6.588   2.694   2.601  0.2853  0.1116  0.5355
 2480TIP3    H128999   6.564   2.631   2.669  0.8531  2.2248  2.8267
 2480TIP3    H229000   6.512   2.696   2.542  0.3589 -2.8269  0.1874
 2481TIP3   OH229001   2.849   6.080   2.950 -0.1228 -0.0632  0.0286
 2481TIP3    H129002   2.914   6.113   3.012 -1.7993  2.5505  0.5236
 2481TIP3    H229003   2.900   6.029   2.887  2.0623 -0.0423  1.6515
 2482TIP3   OH229004   3.808   3.466   8.189 -0.1456  0.0845  0.1322
 2482TIP3    H129005   3.744   3.396   8.200 -0.9149  0.4050 -1.8534
 2482TIP3    H229006   3.764   3.544   8.223 -0.6809  0.2301 -0.8632
 2483TIP3   OH229007   1.123   3.683   1.663 -0.2635 -0.4934 -0.3678
 2483TIP3    H129008   1.113   3.621   1.735 -0.3395 -1.3642 -1.1066
 2483TIP3    H229009   1.118   3.629   1.584 -0.8330  0.5192 -1.0496
 2484TIP3   OH229010   0.237   4.693   0.089  0.2732  0.4240 -0.5627
 2484TIP3    H129011   0.183   4.738   0.025  0.4691  1.6472  0.1136
 2484TIP3    H229012   0.188   4.699   0.171 -0.6418 -2.3134 -0.7957
 2485TIP3   OH229013   0.648   6.861   8.257  0.1519 -0.8688 -0.1741
 2485TIP3    H129014   0.558   6.891   8.273  0.8501  0.5468  1.3684
 2485TIP3    H229015   0.695   6.939   8.229  0.7874 -1.7472 -1.7071
 2486TIP3   OH229016   4.875   4.847   1.017  0.1265  0.7255 -0.1417
 2486TIP3    H129017   4.950   4.863   0.959  0.0240  1.0895 -0.1733
 2486TIP3    H229018   4.911   4.854   1.105  0.3020  0.0804 -0.1573
 2487TIP3   OH229019   4.424   4.645   1.386  0.0547 -0.0353 -0.8130
 2487TIP3    H129020   4.518   4.632   1.397  0.1579  1.7406  1.0818
 2487TIP3    H229021   4.414   4.672   1.295  1.1843 -1.4198 -1.3926
 2488TIP3   OH229022   4.479   5.011   1.248  0.2972  0.1692  0.5094
 2488TIP3    H129023   4.444   4.970   1.327 -1.2956  0.5650  0.0341
 2488TIP3    H229024   4.518   5.093   1.278 -0.3523  0.3421  0.8885
 2489TIP3   OH229025   5.514   5.937   3.023  0.2646 -0.1288  0.4432
 2489TIP3    H129026   5.523   5.857   3.074 -0.6105 -1.4360 -1.3384
 2489TIP3    H229027   5.437   5.923   2.968 -1.1230  2.7445  1.4212
 2490TIP3   OH229028   3.940   2.959   0.590  0.0107  0.0935 -0.3335
 2490TIP3    H129029   3.951   3.049   0.562  0.7456 -0.2521 -1.2171
 2490TIP3    H229030   3.873   2.962   0.658 -1.0312  1.1153 -1.3738
 2491TIP3   OH229031   3.973   2.015   2.023 -0.0867  0.2026 -0.6157
 2491TIP3    H129032   4.022   1.939   1.993  1.0795  0.6541  0.0678
 2491TIP3    H229033   3.933   1.987   2.106 -0.3575  0.0773 -0.7870
 2492TIP3   OH229034   2.735   5.600   2.491 -0.1275  0.0960 -0.0152
 2492TIP3    H129035   2.720   5.636   2.404 -0.7745 -0.4074 -0.1152
 2492TIP3    H229036   2.830   5.587   2.496 -0.2007 -0.9422 -1.0647
 2493TIP3   OH229037   1.661   4.637   1.904  0.2110  0.9977  0.3092
 2493TIP3    H129038   1.654   4.580   1.980 -1.3584 -1.5937 -1.6126
 2493TIP3    H229039   1.744   4.683   1.916  0.9943 -0.8299  2.5619
 2494TIP3   OH229040   0.279   3.749   0.357 -0.0981  0.0069  0.0722
 2494TIP3    H129041   0.293   3.742   0.263 -0.4430 -0.5835  0.0594
 2494TIP3    H229042   0.194   3.707   0.372 -1.8459  3.2722  0.1644
 2495TIP3   OH229043   0.770   5.749   8.205 -0.1012  0.6086 -0.2775
 2495TIP3    H129044   0.817   5.771   8.124 -1.1294 -1.6800 -1.6173
 2495TIP3    H229045   0.689   5.799   8.200  1.1259  2.8816  0.9676
 2496TIP3   OH229046   2.672   1.235   1.558 -0.0561 -0.3407 -0.1624
 2496TIP3    H129047   2.610   1.272   1.495  2.3079  2.2055 -1.2130
 2496TIP3    H229048   2.736   1.189   1.505 -1.5290 -4.0763  0.9834
 2497TIP3   OH229049   5.651   1.721   0.190 -0.4121  0.1808 -0.3196
 2497TIP3    H129050   5.714   1.774   0.140 -2.5421  1.5084 -1.7701
 2497TIP3    H229051   5.650   1.637   0.145  1.0626 -0.2625  0.3925
 2498TIP3   OH229052   0.061   4.863   8.583 -0.2714  0.0727  0.2772
 2498TIP3    H129053   0.075   4.863   8.488  0.0981 -1.9020  0.3031
 2498TIP3    H229054  -0.034   4.854   8.592 -0.3195  0.3824  0.0976
 2499TIP3   OH229055   4.475   4.354   1.051 -0.0182  0.5250 -0.3146
 2499TIP3    H129056   4.447   4.300   1.124 -0.3725  1.1044 -0.0137
 2499TIP3    H229057   4.569   4.367   1.065 -0.4039  2.1224  1.0542
 2500TIP3   OH229058   3.647   4.929   8.198 -0.5104 -0.3155 -0.6973
 2500TIP3    H129059   3.570   4.962   8.151 -0.4053 -0.1091 -0.7277
 2500TIP3    H229060   3.717   4.989   8.173 -0.7234  0.5410  0.6671
 2501TIP3   OH229061   6.059   2.164   1.811 -0.2641 -0.2912 -0.2366
 2501TIP3    H129062   6.043   2.179   1.718  1.3116  0.4136 -0.4277
 2501TIP3    H229063   6.007   2.087   1.832 -1.4301  0.1156 -1.4543
 2502TIP3   OH229064   0.563   6.689   1.688  1.3214  0.5118 -0.1249
 2502TIP3    H129065   0.545   6.705   1.595 -0.9475 -0.2517  0.1276
 2502TIP3    H229066   0.521   6.763   1.733  2.2542  0.7822  0.3281
 2503TIP3   OH229067   3.726   4.112   8.389 -0.6993  0.3326 -0.5040
 2503TIP3    H129068   3.751   4.082   8.302 -0.4178 -1.3525  0.1320
 2503TIP3    H229069   3.809   4.124   8.435 -0.8872 -0.6337  0.1111
 2504TIP3   OH229070   1.031   4.579   0.255 -0.2377 -0.4855  0.5803
 2504TIP3    H129071   1.103   4.596   0.316  0.0184  1.6068 -0.2366
 2504TIP3    H229072   0.997   4.494   0.282  0.9322 -0.3826  2.5707
 2505TIP3   OH229073   1.578   2.884   1.979 -0.0690 -0.5334  0.1440
 2505TIP3    H129074   1.628   2.964   1.959 -0.0837 -0.5434  0.0666
 2505TIP3    H229075   1.489   2.905   1.952  0.2728 -1.2360 -1.6537
 2506TIP3   OH229076   2.806   4.120   0.291  0.4255  0.4768 -0.3634
 2506TIP3    H129077   2.857   4.083   0.219  0.5955 -1.9107  0.8861
 2506TIP3    H229078   2.804   4.051   0.357 -1.7837  1.6591  0.9326
 2507TIP3   OH229079   4.388   1.784   1.576  0.4322 -0.0020 -0.1659
 2507TIP3    H129080   4.348   1.744   1.499  1.4910 -0.2048 -0.6105
 2507TIP3    H229081   4.355   1.874   1.576  0.9804  0.2043 -1.2501
 2508TIP3   OH229082   0.530   2.091   8.090  0.1137 -0.7050 -0.2030
 2508TIP3    H129083   0.467   2.132   8.150  0.0029 -1.0842 -0.0553
 2508TIP3    H229084   0.515   2.135   8.006  0.4000 -0.0338  0.0831
 2509TIP3   OH229085   4.555   5.045   0.957  0.5558 -0.2580 -0.4874
 2509TIP3    H129086   4.561   5.020   1.049 -0.3697 -0.5687 -0.4959
 2509TIP3    H229087   4.578   4.965   0.909 -1.2330 -0.8236 -0.5088
 2510TIP3   OH229088   5.729   0.693   3.231  0.3066  0.0219 -0.3112
 2510TIP3    H129089   5.688   0.606   3.228  0.2538  0.0411 -0.1470
 2510TIP3    H229090   5.668   0.750   3.185  0.0970  0.0707  0.0219
 2511TIP3   OH229091   2.731   3.295   2.674  0.0686 -0.3864  0.1239
 2511TIP3    H129092   2.721   3.378   2.627 -1.1931 -0.5143  0.1385
 2511TIP3    H229093   2.826   3.285   2.684  0.2548  0.9288 -0.0893
 2512TIP3   OH229094   0.122   3.775   0.116  0.5385 -0.2588  0.1470
 2512TIP3    H129095   0.071   3.747   0.040 -0.5880 -1.6702  1.3771
 2512TIP3    H229096   0.073   3.848   0.153  0.9354  0.2380 -0.2832
 2513TIP3   OH229097   4.780   6.570   7.891  0.0485  0.4263 -0.1113
 2513TIP3    H129098   4.791   6.588   7.985  0.2857 -0.9790  0.1517
 2513TIP3    H229099   4.834   6.492   7.875  0.7606  1.1992 -1.6328
 2514TIP3   OH229100   2.820   2.206   6.868 -0.1518  0.2446 -0.4696
 2514TIP3    H129101   2.762   2.273   6.904 -0.6613 -0.1655 -0.5156
 2514TIP3    H229102   2.814   2.133   6.930  3.7621  1.7509  2.0520
 2515TIP3   OH229103   4.966   2.516   8.079  0.0521  0.3119  0.6827
 2515TIP3    H129104   4.958   2.577   8.152  1.4641 -0.2950  1.3853
 2515TIP3    H229105   5.054   2.479   8.088  0.0204 -0.2444 -0.9698
 2516TIP3   OH229106   2.831   4.659   1.514  0.0172 -0.4554  0.4673
 2516TIP3    H129107   2.801   4.715   1.586  0.2875  0.4998 -0.1322
 2516TIP3    H229108   2.755   4.652   1.456  0.2141 -0.0328  0.1481
 2517TIP3   OH229109   5.471   5.673   7.956  0.1089  0.4817 -0.3430
 2517TIP3    H129110   5.509   5.727   7.887 -0.0404 -0.2139 -0.9859
 2517TIP3    H229111   5.544   5.655   8.016  0.7033 -0.4410 -1.3089
 2518TIP3   OH229112   6.669   0.270   8.015  0.1497 -0.6022  0.6440
 2518TIP3    H129113   6.764   0.269   8.028  0.3608  1.2052 -0.5426
 2518TIP3    H229114   6.657   0.291   7.922 -1.4084 -4.0007 -0.0933
 2519TIP3   OH229115   5.179   5.735   1.326  0.1162  0.0451 -0.1338
 2519TIP3    H129116   5.125   5.750   1.404 -1.0365  1.1290 -1.0954
 2519TIP3    H229117   5.268   5.760   1.353 -0.2584  0.3411  0.8560
 2520TIP3   OH229118   5.221   1.734   0.081  0.7592 -0.0469 -0.2691
 2520TIP3    H129119   5.160   1.729   0.154  1.2232  1.3078  0.2461
 2520TIP3    H229120   5.172   1.777   0.011  1.0721  0.9300  0.1033
 2521TIP3   OH229121   6.473   4.889   7.951  0.1518  0.1019 -0.3001
 2521TIP3    H129122   6.453   4.892   7.857  2.9075 -0.2147 -1.0036
 2521TIP3    H229123   6.526   4.810   7.961 -1.8824 -1.0885  1.9976
 2522TIP3   OH229124   1.180   4.803   0.100  0.4269  0.4587 -0.2474
 2522TIP3    H129125   1.105   4.847   0.061  0.6012  1.3637  0.4256
 2522TIP3    H229126   1.142   4.724   0.140 -0.4325  1.6373  1.3728
 2523TIP3   OH229127   1.749   5.668   8.416  0.0702  0.2751  0.3084
 2523TIP3    H129128   1.844   5.656   8.414  0.0761  0.1300  1.0890
 2523TIP3    H229129   1.714   5.580   8.422 -0.2770  0.0459 -3.2475
 2524TIP3   OH229130   4.925   3.955   8.083  0.0832 -1.0540  0.3858
 2524TIP3    H129131   4.983   3.973   8.157 -0.2201  0.3563  0.3168
 2524TIP3    H229132   4.963   4.004   8.010 -0.6375 -0.9239  0.0886
 2525TIP3   OH229133   1.457   6.820   8.091 -0.2172  0.9727 -0.8468
 2525TIP3    H129134   1.364   6.825   8.111 -0.5557 -0.9701 -1.6742
 2525TIP3    H229135   1.497   6.792   8.174 -0.9723 -2.2070 -1.4182
 2526TIP3   OH229136   0.429   3.321   1.658 -0.0701 -0.0823  0.0710
 2526TIP3    H129137   0.476   3.240   1.639 -3.0734 -1.5641 -1.8177
 2526TIP3    H229138   0.485   3.390   1.622  1.4668 -1.5419 -0.4682
 2527TIP3   OH229139   1.851   1.874   1.829 -0.6173  0.1496  0.3968
 2527TIP3    H129140   1.883   1.963   1.820 -0.5455 -0.0739 -2.6180
 2527TIP3    H229141   1.825   1.849   1.740  0.9466 -3.3868  0.7560
 2528TIP3   OH229142   2.439   1.568   1.001  0.0680  0.1962  0.7697
 2528TIP3    H129143   2.382   1.643   1.016  1.2056  0.9657  1.4391
 2528TIP3    H229144   2.524   1.595   1.035  0.7347 -1.0754  0.2151
 2529TIP3   OH229145   5.162   2.810   0.669  0.9079 -0.2103  0.3087
 2529TIP3    H129146   5.240   2.842   0.715  1.3644  1.4371 -1.4838
 2529TIP3    H229147   5.191   2.800   0.578 -1.1893  1.4367 -0.6134
 2530TIP3   OH229148   5.040   6.744   8.366 -0.0550 -0.2280 -0.8480
 2530TIP3    H129149   4.971   6.811   8.363 -1.0268 -1.0839  0.9402
 2530TIP3    H229150   5.013   6.684   8.436  3.0560  0.0289  0.7839
 2531TIP3   OH229151   0.591   0.788   2.022 -0.0831 -1.0010 -0.5625
 2531TIP3    H129152   0.668   0.842   2.037  0.4190 -0.8063 -3.2742
 2531TIP3    H229153   0.620   0.698   2.039  0.7183 -0.9085 -1.3803
 2532TIP3   OH229154   2.100   6.846   7.051 -0.2869 -0.0689 -0.4654
 2532TIP3    H129155   2.083   6.756   7.079 -3.7492  1.3306  2.8934
 2532TIP3    H229156   2.061   6.852   6.964 -0.9662 -1.5432 -0.2971
 2533TIP3   OH229157   5.329   2.383   7.349 -0.4905 -0.0045  0.0204
 2533TIP3    H129158   5.237   2.384   7.373 -1.6815 -1.8959 -3.7258
 2533TIP3    H229159   5.343   2.468   7.305 -0.3020  0.4298  0.8970
 2534TIP3   OH229160   3.982   4.962   7.813 -0.1162  0.2544  0.0352
 2534TIP3    H129161   3.915   4.986   7.876  0.8002  0.5451  0.9135
 2534TIP3    H229162   3.994   4.868   7.825  1.0239  0.5359  1.2781
 2535TIP3   OH229163   4.658   1.390   1.528  0.2466  0.7069  0.1461
 2535TIP3    H129164   4.720   1.371   1.599  0.9368  1.1672 -0.3121
 2535TIP3    H229165   4.588   1.326   1.539  1.5557 -0.8401 -0.2165
 2536TIP3   OH229166   5.115   3.090   8.599  0.2130 -0.2287  0.9962
 2536TIP3    H129167   5.137   3.083   8.506  0.1940 -1.1496  1.0514
 2536TIP3    H229168   5.117   3.184   8.617  0.8497 -0.0825  0.2237
 2537TIP3   OH229169   3.743   0.640   3.030  0.0407 -0.3694 -0.1397
 2537TIP3    H129170   3.664   0.613   2.983 -0.0746  0.9219 -0.7455
 2537TIP3    H229171   3.775   0.560   3.071 -1.2287 -1.0475 -0.4006
 2538TIP3   OH229172   4.744   5.363   0.818  0.8801 -0.3266  0.0152
 2538TIP3    H129173   4.778   5.299   0.881  2.0972  0.1736 -0.0987
 2538TIP3    H229174   4.788   5.445   0.841 -2.2400  1.0864  1.5322
 2539TIP3   OH229175   4.786   1.329   7.566  0.1160  0.3593  0.1105
 2539TIP3    H129176   4.819   1.325   7.656 -1.5504 -0.0439  0.7537
 2539TIP3    H229177   4.798   1.241   7.532  0.9140  0.5582 -0.1348
 2540TIP3   OH229178   2.690   0.464   8.245 -0.2358 -0.6306  0.4616
 2540TIP3    H129179   2.762   0.502   8.294 -1.6355 -0.3173  2.4067
 2540TIP3    H229180   2.668   0.530   8.179  1.0274 -0.5990  0.0548
 2541TIP3   OH229181   2.181   2.945   2.832  0.2744 -0.1224 -0.0959
 2541TIP3    H129182   2.136   2.981   2.755  0.4621  0.1635 -0.0747
 2541TIP3    H229183   2.271   2.932   2.803  0.9875  2.3215  0.7579
 2542TIP3   OH229184   4.358   4.143   1.597 -0.1329 -0.5525 -0.3154
 2542TIP3    H129185   4.344   4.064   1.545 -0.1804 -0.7333 -0.0324
 2542TIP3    H229186   4.371   4.111   1.686 -1.7593 -0.1497  0.0928
 2543TIP3   OH229187   0.598   0.513   8.004  0.2238  0.2441  0.4424
 2543TIP3    H129188   0.534   0.566   7.956  1.0448 -0.9187 -2.0516
 2543TIP3    H229189   0.659   0.577   8.041  0.5916  1.1619 -1.6000
 2544TIP3   OH229190   0.629   1.357   0.435  0.3669  0.0872  0.4035
 2544TIP3    H129191   0.604   1.427   0.375 -1.2719 -0.7188  0.0949
 2544TIP3    H229192   0.551   1.340   0.487  1.5150  0.2466  2.3018
 2545TIP3   OH229193   6.397   6.400   8.485  0.0516 -0.3463  0.2451
 2545TIP3    H129194   6.358   6.481   8.452 -1.1874 -0.4282  1.4387
 2545TIP3    H229195   6.485   6.399   8.447 -0.5173  0.6740 -1.1836
 2546TIP3   OH229196   4.043   2.742   0.961 -0.1498  0.0520 -0.0313
 2546TIP3    H129197   4.054   2.708   0.873  1.0742 -1.5372  0.6877
 2546TIP3    H229198   4.010   2.668   1.012  1.2222  0.2819  1.2826
 2547TIP3   OH229199   6.468   0.826   8.074  0.2756  0.4462 -0.0969
 2547TIP3    H129200   6.452   0.887   8.002 -0.0863 -1.0543 -1.3399
 2547TIP3    H229201   6.561   0.838   8.095  0.0381  1.9333  0.1995
 2548TIP3   OH229202   2.623   4.357   2.662 -0.0850 -0.1208 -0.7411
 2548TIP3    H129203   2.666   4.372   2.746 -1.8945  2.1682 -0.1118
 2548TIP3    H229204   2.605   4.263   2.660  0.2153 -0.2594  1.3154
 2549TIP3   OH229205   5.060   5.140   2.446  0.1670  0.1513  0.7771
 2549TIP3    H129206   4.965   5.127   2.448  0.0450  0.5527 -0.9400
 2549TIP3    H229207   5.095   5.053   2.424  0.1801  0.0371  1.2571
 2550TIP3   OH229208   4.534   6.624   1.215 -0.0151  0.0791  0.7034
 2550TIP3    H129209   4.447   6.586   1.203  0.0632  0.2377 -0.4745
 2550TIP3    H229210   4.591   6.550   1.235 -0.0566 -0.2972 -0.5397
 2551TIP3   OH229211   0.640   0.265   8.161  0.0150  0.1349 -0.1255
 2551TIP3    H129212   0.581   0.293   8.231  0.7282 -0.8506  0.9001
 2551TIP3    H229213   0.593   0.287   8.080 -1.4142  0.0694  0.6559
 2552TIP3   OH229214   0.358   4.912   6.758  0.1758  0.3568 -0.1769
 2552TIP3    H129215   0.287   4.877   6.704 -0.4137 -0.9165  1.3454
 2552TIP3    H229216   0.425   4.844   6.757  0.9907  1.1365 -0.8003
 2553TIP3   OH229217   0.196   4.446   6.778  0.1658  0.1648  0.8253
 2553TIP3    H129218   0.145   4.501   6.837  0.1606  0.3833  0.6210
 2553TIP3    H229219   0.139   4.434   6.701 -0.2821 -1.0400  1.3133
 2554TIP3   OH229220   3.810   5.299   8.595 -0.2822  0.1716  0.4212
 2554TIP3    H129221   3.726   5.335   8.565  0.8277  1.2739 -1.5987
 2554TIP3    H229222   3.854   5.273   8.514  1.9426  1.0254  1.2926
 2555TIP3   OH229223   5.961   4.233   7.136  0.1246  0.2784 -0.6916
 2555TIP3    H129224   5.939   4.264   7.048 -0.0670  1.6695 -0.1841
 2555TIP3    H229225   6.054   4.211   7.131  0.9112  3.1153 -0.5763
 2556TIP3   OH229226   0.583   2.402   1.581  0.0702 -0.1992 -0.3541
 2556TIP3    H129227   0.628   2.407   1.665  0.6274 -1.3569 -0.5663
 2556TIP3    H229228   0.654   2.390   1.517 -0.5198 -2.2263 -0.6805
 2557TIP3   OH229229   1.488   5.101   8.278  0.0482 -0.0426  0.1982
 2557TIP3    H129230   1.464   5.029   8.336  0.6374  1.5584  2.5949
 2557TIP3    H229231   1.434   5.174   8.307  1.7623  1.3333  0.0936
 2558TIP3   OH229232   1.160   3.634   0.731  0.3455 -0.2824 -0.4823
 2558TIP3    H129233   1.187   3.682   0.809  0.5057 -3.2900  1.5109
 2558TIP3    H229234   1.236   3.636   0.674  0.7373  0.7898  0.0479
 2559TIP3   OH229235   2.725   5.243   0.566 -0.1021 -0.3234  0.8423
 2559TIP3    H129236   2.816   5.219   0.548 -0.0212 -0.3213  1.2373
 2559TIP3    H229237   2.705   5.199   0.649  0.0423  0.9609  1.5851
 2560TIP3   OH229238   2.739   3.453   0.627  0.3235 -0.5961  0.2245
 2560TIP3    H129239   2.657   3.403   0.623 -0.6555  0.9625 -0.2178
 2560TIP3    H229240   2.714   3.535   0.671  1.3107  0.5224 -1.2237
 2561TIP3   OH229241   1.309   4.370   2.891  0.3148 -0.5892 -0.8697
 2561TIP3    H129242   1.315   4.278   2.863 -2.1996 -1.0732 -0.1409
 2561TIP3    H229243   1.399   4.395   2.911  0.9922 -3.2018 -0.2296
 2562TIP3   OH229244   4.529   5.480   8.279 -0.5508 -0.4357 -0.4121
 2562TIP3    H129245   4.523   5.393   8.319 -0.7619 -1.0321 -1.6874
 2562TIP3    H229246   4.475   5.535   8.336 -2.1378 -1.5894 -0.6983
 2563TIP3   OH229247   2.522   1.762   2.863  0.4857  0.0193  0.1404
 2563TIP3    H129248   2.446   1.757   2.920 -0.2389 -0.1499 -0.8224
 2563TIP3    H229249   2.541   1.855   2.855 -0.1420  0.1136 -0.2849
 2564TIP3   OH229250   5.519   1.120   0.144  0.1677 -0.5014  0.7850
 2564TIP3    H129251   5.486   1.052   0.085  1.1368 -0.0808 -0.2677
 2564TIP3    H229252   5.555   1.071   0.218 -0.5564 -1.0579  0.7889
 2565TIP3   OH229253   0.112   2.682   0.686 -0.0597  0.1107 -0.1614
 2565TIP3    H129254   0.093   2.762   0.637 -0.1553  0.6796  0.8002
 2565TIP3    H229255   0.123   2.615   0.618 -2.8129  0.3043 -0.9402
 2566TIP3   OH229256   1.943   6.719   2.494 -0.2684 -0.6439 -0.2544
 2566TIP3    H129257   1.899   6.673   2.565 -2.1531  0.5165 -0.6118
 2566TIP3    H229258   2.012   6.769   2.539  1.2067 -2.9565  0.2317
 2567TIP3   OH229259   6.170   6.683   2.362  0.8524 -1.1467 -0.1349
 2567TIP3    H129260   6.234   6.729   2.307 -0.4432  0.7185 -0.1581
 2567TIP3    H229261   6.087   6.692   2.316  0.1643 -1.6705  0.9496
 2568TIP3   OH229262   3.282   3.747   8.228 -0.0317 -0.3953  0.2747
 2568TIP3    H129263   3.366   3.780   8.196 -1.3283  0.7576 -2.2129
 2568TIP3    H229264   3.260   3.805   8.301  0.3597  0.6721 -0.4237
 2569TIP3   OH229265   4.891   2.445   2.072 -0.1954  0.3266  0.5126
 2569TIP3    H129266   4.964   2.383   2.065 -0.9189 -0.3589 -1.5171
 2569TIP3    H229267   4.882   2.482   1.984 -4.0000 -1.6206 -0.0923
 2570TIP3   OH229268   0.794   5.037   8.035  0.5748 -0.4583 -0.3937
 2570TIP3    H129269   0.813   5.087   7.956  1.7810 -1.3674 -0.7206
 2570TIP3    H229270   0.879   5.002   8.062 -0.1251 -1.8772  0.0991
 2571TIP3   OH229271   2.371   1.643   7.724 -0.7840 -0.6526 -0.6426
 2571TIP3    H129272   2.324   1.566   7.690 -1.9711  0.4229 -1.5790
 2571TIP3    H229273   2.349   1.712   7.662  0.6086  0.3453 -0.0553
 2572TIP3   OH229274   1.786   3.304   7.095  0.2054  0.3224  0.0852
 2572TIP3    H129275   1.858   3.243   7.080  0.5599  0.2946  1.7174
 2572TIP3    H229276   1.708   3.248   7.099  0.3004  0.1767 -0.0715
 2573TIP3   OH229277   5.869   2.005   8.162  0.0370  0.1531  0.7476
 2573TIP3    H129278   5.841   2.079   8.108 -2.2358 -0.3603  1.0965
 2573TIP3    H229279   5.791   1.982   8.213  0.2916 -3.1977 -0.1682
 2574TIP3   OH229280   1.174   3.264   8.463 -0.1262  0.0158 -0.0263
 2574TIP3    H129281   1.202   3.344   8.419 -1.9957  3.0890  3.6995
 2574TIP3    H229282   1.242   3.247   8.528 -0.9618  0.2896  0.9643
 2575TIP3   OH229283   5.908   4.067   1.220 -0.6187 -0.2180 -0.1280
 2575TIP3    H129284   5.983   4.104   1.173 -0.9701 -0.9144 -1.2749
 2575TIP3    H229285   5.869   4.142   1.265  1.8061 -0.0999  2.0654
 2576TIP3   OH229286   1.362   5.264   1.490 -0.3785 -0.1197  0.7489
 2576TIP3    H129287   1.269   5.243   1.498 -0.5815  0.7271  0.6368
 2576TIP3    H229288   1.369   5.355   1.518  0.2417  0.1850 -0.3344
 2577TIP3   OH229289   1.904   3.946   7.863 -0.3496  0.3441  0.8618
 2577TIP3    H129290   1.953   4.023   7.834 -2.2078  1.1761 -0.2707
 2577TIP3    H229291   1.875   3.904   7.782 -0.5146 -0.7816  1.4863
 2578TIP3   OH229292   4.765   4.195   2.874  0.1627  0.3158  0.1927
 2578TIP3    H129293   4.776   4.235   2.787  1.0334  0.6500  0.4508
 2578TIP3    H229294   4.851   4.160   2.896 -0.3368 -0.7923  0.4314
 2579TIP3   OH229295   1.704   5.438   3.013  0.2007 -0.4252  0.0029
 2579TIP3    H129296   1.639   5.423   2.945  1.3150 -0.5014 -1.0791
 2579TIP3    H229297   1.685   5.526   3.045 -0.4458 -0.4542 -0.2877
 2580TIP3   OH229298   6.179   2.436   1.824  0.0073 -0.3431  0.5583
 2580TIP3    H129299   6.157   2.381   1.900 -0.7537  0.2528  0.7859
 2580TIP3    H229300   6.124   2.403   1.754  1.2603 -1.3936  0.0216
 2581TIP3   OH229301   4.057   3.073   0.082  0.7747 -0.5813 -0.6632
 2581TIP3    H129302   4.078   3.062   0.175 -0.1527  1.5642 -0.1485
 2581TIP3    H229303   3.990   3.007   0.065 -0.0265 -0.1254  0.5644
 2582TIP3   OH229304   0.332   1.130   8.360 -0.2686 -0.1231  0.7155
 2582TIP3    H129305   0.424   1.112   8.379 -0.0679 -0.7296 -0.7544
 2582TIP3    H229306   0.284   1.072   8.419  0.2834  0.0877  1.3827
 2583TIP3   OH229307   3.710   0.471   7.372  0.1623 -0.5406 -0.8954
 2583TIP3    H129308   3.637   0.533   7.381 -1.3359 -2.3319 -0.0880
 2583TIP3    H229309   3.688   0.399   7.432  3.3485 -0.5029  0.5287
 2584TIP3   OH229310   3.560   5.636   7.380  0.5192  0.4415 -0.1576
 2584TIP3    H129311   3.515   5.706   7.427  2.0984  0.1484  1.9035
 2584TIP3    H229312   3.516   5.555   7.408 -0.1764  0.4451 -1.1917
 2585TIP3   OH229313   0.241   4.681   1.241 -0.0284 -0.5300 -0.5727
 2585TIP3    H129314   0.213   4.592   1.264  0.9212 -0.7274 -0.1163
 2585TIP3    H229315   0.309   4.702   1.305  0.5980  0.0601 -1.3982
 2586TIP3   OH229316   0.541   3.113   0.866  0.7504  0.0502  0.1255
 2586TIP3    H129317   0.629   3.137   0.897  1.9156 -1.5385 -1.7223
 2586TIP3    H229318   0.507   3.194   0.827  1.7302  0.5033  0.1815
 2587TIP3   OH229319   1.542   5.308   1.270 -0.1527  0.0456  0.1530
 2587TIP3    H129320   1.473   5.291   1.334 -0.8312 -0.8549 -0.7678
 2587TIP3    H229321   1.562   5.222   1.233  0.7138  0.4464 -0.3507
 2588TIP3   OH229322   0.592   5.140   6.931  0.2167 -0.0803  0.2002
 2588TIP3    H129323   0.573   5.176   6.844 -1.9965  0.3874  0.8021
 2588TIP3    H229324   0.662   5.196   6.965 -0.7883  1.5115 -0.2346
 2589TIP3   OH229325   6.217   4.382   8.441  0.1580 -0.0684  0.0781
 2589TIP3    H129326   6.233   4.289   8.455  0.2343 -0.0363  0.2081
 2589TIP3    H229327   6.186   4.414   8.525 -1.3633 -0.2828 -0.3797
 2590TIP3   OH229328   1.104   4.353   0.680  0.0005  0.5322 -0.6649
 2590TIP3    H129329   1.158   4.421   0.721  1.3158  0.1613 -1.7074
 2590TIP3    H229330   1.033   4.401   0.637  0.6364  1.2123 -0.9739
 2591TIP3   OH229331   3.977   6.268   7.917  0.0713 -0.3722 -0.0629
 2591TIP3    H129332   4.056   6.248   7.867 -0.1202  0.0570 -0.5510
 2591TIP3    H229333   3.912   6.292   7.851 -0.1640  0.2944  0.3981
 2592TIP3   OH229334   6.721   1.898   0.261 -0.3689 -0.1877 -0.2128
 2592TIP3    H129335   6.792   1.905   0.324 -0.3125 -2.1508 -0.0087
 2592TIP3    H229336   6.754   1.941   0.182  0.6753 -0.2673  0.1701
 2593TIP3   OH229337   6.073   1.782   2.511  0.0677  0.1976 -0.0161
 2593TIP3    H129338   6.101   1.869   2.541  3.6561 -1.2464  1.4854
 2593TIP3    H229339   6.092   1.724   2.585 -0.7206 -2.1045 -1.4967
 2594TIP3   OH229340   1.119   1.345   7.105  0.4944 -0.4436  0.3062
 2594TIP3    H129341   1.174   1.423   7.097  0.6472 -0.6101 -0.3221
 2594TIP3    H229342   1.154   1.285   7.040 -0.5558 -0.4830 -0.2375
 2595TIP3   OH229343   4.785   2.754   7.969 -0.7126  0.4153 -1.0271
 2595TIP3    H129344   4.855   2.804   8.012 -0.6148 -0.0647 -0.6194
 2595TIP3    H229345   4.721   2.737   8.038 -0.7877  0.0586 -1.1799
 2596TIP3   OH229346   0.801   3.025   7.328  0.0455  0.1332  0.2696
 2596TIP3    H129347   0.848   3.012   7.411 -1.8658 -0.1344  1.3764
 2596TIP3    H229348   0.711   3.045   7.355 -0.0040  3.1635 -1.6581
 2597TIP3   OH229349   5.729   1.773   7.020 -0.2351 -0.5460 -0.6816
 2597TIP3    H129350   5.779   1.692   7.009  0.0391 -0.4836  0.0384
 2597TIP3    H229351   5.766   1.833   6.956  1.2455 -0.2198  0.4082
 2598TIP3   OH229352   5.928   0.473   3.209  0.3848  0.0937  0.0563
 2598TIP3    H129353   6.013   0.512   3.188  0.4298  0.4522  0.8606
 2598TIP3    H229354   5.867   0.513   3.148  0.4915  1.1856  0.6256
 2599TIP3   OH229355   5.030   5.343   0.904  0.2974  0.3582  0.1216
 2599TIP3    H129356   5.043   5.435   0.926 -1.6829  1.1984 -1.8090
 2599TIP3    H229357   4.964   5.313   0.966 -0.2900  0.7497 -0.3040
 2600TIP3   OH229358   2.397   5.073   1.748 -0.9241 -0.0052 -0.8515
 2600TIP3    H129359   2.323   5.122   1.785 -0.3991  0.6719 -0.6648
 2600TIP3    H229360   2.357   5.003   1.697 -1.6838 -0.2542  0.0559
 2601TIP3   OH229361   5.861   5.281   8.205 -0.1388 -0.3871  0.3780
 2601TIP3    H129362   5.884   5.317   8.120  1.2137 -1.1703  0.3767
 2601TIP3    H229363   5.819   5.197   8.186 -1.5422  0.2679  0.4464
 2602TIP3   OH229364   1.374   6.376   0.281  0.3533  0.1062 -0.2990
 2602TIP3    H129365   1.338   6.320   0.350  0.7888  0.1761 -0.0132
 2602TIP3    H229366   1.332   6.461   0.293  1.4749  0.5336  0.7748
 2603TIP3   OH229367   3.018   6.709   7.714 -0.1181  0.0660  0.0280
 2603TIP3    H129368   3.090   6.648   7.695  0.1359  0.5892 -0.7196
 2603TIP3    H229369   2.948   6.681   7.655 -0.1703  0.2048  0.0257
 2604TIP3   OH229370   6.258   0.873   0.557  0.0822 -0.2445 -0.3130
 2604TIP3    H129371   6.269   0.852   0.650  0.5658  0.0381 -0.3010
 2604TIP3    H229372   6.325   0.821   0.513 -0.9890 -1.3848 -0.6524
 2605TIP3   OH229373   0.025   6.494   0.080  0.2641  0.3747  0.1549
 2605TIP3    H129374   0.054   6.446   0.157 -0.8325 -0.2266  0.2170
 2605TIP3    H229375   0.044   6.586   0.100  1.0954  0.1086  0.6246
 2606TIP3   OH229376   1.205   3.788   7.775 -0.0460  0.0414 -0.4616
 2606TIP3    H129377   1.205   3.697   7.806 -1.8650 -0.1123 -0.7541
 2606TIP3    H229378   1.116   3.819   7.793  0.6338  1.8995 -0.0486
 2607TIP3   OH229379   5.247   2.511   6.577  0.1305 -0.1152  0.1748
 2607TIP3    H129380   5.222   2.582   6.636  0.1536  0.3642 -0.3790
 2607TIP3    H229381   5.342   2.504   6.588  0.1666  0.1227  0.0464
 2608TIP3   OH229382   1.336   2.676   2.591  0.4147 -0.1483 -0.3104
 2608TIP3    H129383   1.340   2.626   2.509  0.8295 -1.3306  0.4085
 2608TIP3    H229384   1.414   2.648   2.640  0.0630  0.3950  0.5783
 2609TIP3   OH229385   0.538   2.148   7.600  0.1759 -0.4851 -0.1846
 2609TIP3    H129386   0.522   2.157   7.506  1.5248  0.1545 -0.3831
 2609TIP3    H229387   0.577   2.060   7.609 -0.6646 -0.8572 -0.1043
 2610TIP3   OH229388   2.932   1.990   0.039 -0.0120  0.3190 -0.0539
 2610TIP3    H129389   2.890   2.069   0.004 -2.3577 -1.4439 -1.4506
 2610TIP3    H229390   3.025   2.004   0.023 -0.2551  3.0643  0.3600
 2611TIP3   OH229391   3.057   0.899   1.933  0.3353  0.0994  0.0039
 2611TIP3    H129392   2.976   0.851   1.951  0.2997  0.0833 -0.1966
 2611TIP3    H229393   3.030   0.967   1.871  0.2654  0.7322  0.6994
 2612TIP3   OH229394   0.631   0.977   2.267 -0.0687 -0.2738  0.4737
 2612TIP3    H129395   0.674   0.934   2.192 -0.8188 -2.1692  1.0608
 2612TIP3    H229396   0.687   0.956   2.341 -0.3233 -0.0125  0.7410
 2613TIP3   OH229397   1.187   0.996   8.419 -0.4901  0.2883 -0.1667
 2613TIP3    H129398   1.174   1.063   8.487 -2.9455 -1.3040  1.0655
 2613TIP3    H229399   1.217   0.919   8.467 -1.0733 -0.5014 -1.0379
 2614TIP3   OH229400   5.050   0.206   8.392  0.4655  0.1869 -0.5567
 2614TIP3    H129401   4.966   0.236   8.427  0.1918 -0.4940 -0.6174
 2614TIP3    H229402   5.028   0.130   8.338  1.1538 -0.1690 -0.3469
 2615TIP3   OH229403   0.871   1.884   8.531  0.5131  0.2197 -0.3080
 2615TIP3    H129404   0.897   1.966   8.489  1.7138 -0.0394 -0.1015
 2615TIP3    H229405   0.814   1.910   8.603  1.9506  1.0017  0.5921
 2616TIP3   OH229406   6.494   3.700   8.414 -0.2094  0.0799  0.2284
 2616TIP3    H129407   6.429   3.631   8.399  0.2614 -0.2386 -0.3771
 2616TIP3    H229408   6.558   3.661   8.473 -0.7242  0.4989  1.0795
 2617TIP3   OH229409   4.166   2.230   8.007 -0.8276  0.2071 -0.3276
 2617TIP3    H129410   4.234   2.267   7.951  2.7905 -2.7398  1.6743
 2617TIP3    H229411   4.115   2.305   8.037  1.0178  2.5169 -2.5670
 2618TIP3   OH229412   5.089   1.510   7.498 -0.6433 -0.3782  0.3139
 2618TIP3    H129413   5.126   1.533   7.584  0.0413  0.0520 -0.0854
 2618TIP3    H229414   5.162   1.471   7.450 -1.0517 -0.7157 -0.0388
 2619TIP3   OH229415   5.362   5.410   2.588  0.0363 -0.0186 -0.0651
 2619TIP3    H129416   5.403   5.474   2.647  0.1787  0.1454 -0.3410
 2619TIP3    H229417   5.421   5.406   2.513  0.1226 -0.6069  0.0313
 2620TIP3   OH229418   6.038   4.650   1.414  0.3532  0.1706 -0.5711
 2620TIP3    H129419   5.978   4.595   1.465  1.4724  0.5358  1.2451
 2620TIP3    H229420   6.123   4.607   1.423  0.2631 -1.0125 -4.1096
 2621TIP3   OH229421   5.009   5.929   7.236 -0.6594  0.5678 -0.2255
 2621TIP3    H129422   4.917   5.905   7.238 -0.6808  0.6274 -0.4857
 2621TIP3    H229423   5.023   5.978   7.317 -0.7658  0.2340 -0.0025
 2622TIP3   OH229424   3.567   2.698   7.937  0.1476 -0.2944  0.1080
 2622TIP3    H129425   3.625   2.694   8.014 -0.3152 -0.5785  0.4477
 2622TIP3    H229426   3.482   2.724   7.973  0.5531  2.4119 -0.6505
 2623TIP3   OH229427   5.668   2.198   0.998  0.3342  0.5063  0.5513
 2623TIP3    H129428   5.757   2.231   1.014  1.3226 -0.4680 -2.3877
 2623TIP3    H229429   5.640   2.245   0.919 -0.7570 -0.9987  0.0178
 2624TIP3   OH229430   2.165   1.210   0.153  0.3800 -0.2347 -0.0829
 2624TIP3    H129431   2.103   1.185   0.084  0.6063 -1.4463  0.1400
 2624TIP3    H229432   2.249   1.217   0.109  0.1578  1.1567 -0.3347
 2625TIP3   OH229433   2.377   3.853   2.662 -0.1717 -0.4529  0.2050
 2625TIP3    H129434   2.377   3.856   2.758 -1.4446 -0.1310  0.2032
 2625TIP3    H229435   2.313   3.918   2.636  0.5575 -0.1595 -0.8927
 2626TIP3   OH229436   2.890   3.040   2.138  0.1078  0.2660  0.1569
 2626TIP3    H129437   2.828   3.090   2.086  0.9664  1.7914  0.5480
 2626TIP3    H229438   2.845   3.026   2.221 -0.8805 -1.3289 -0.5988
 2627TIP3   OH229439   3.136   4.598   7.817  0.4985  0.5919 -0.4346
 2627TIP3    H129440   3.181   4.677   7.788  0.9466  0.9978  1.2593
 2627TIP3    H229441   3.043   4.620   7.813  0.5957  0.9772 -0.5476
 2628TIP3   OH229442   4.914   0.318   2.618  0.5687 -0.2146 -0.3051
 2628TIP3    H129443   4.987   0.379   2.626  0.9874 -0.4938 -1.6719
 2628TIP3    H229444   4.954   0.236   2.591 -0.0962 -0.8294  0.5132
 2629TIP3   OH229445   3.344   1.868   7.025 -0.5878 -0.0902 -0.2719
 2629TIP3    H129446   3.415   1.808   7.004 -1.8284 -1.1357 -1.7794
 2629TIP3    H229447   3.377   1.921   7.098  1.9497 -0.0570 -1.3441
 2630TIP3   OH229448   0.306   3.043   7.097 -0.5399 -0.5119 -0.0414
 2630TIP3    H129449   0.394   3.026   7.130 -0.3010  0.3474 -0.2045
 2630TIP3    H229450   0.301   3.138   7.090 -0.7135 -0.6345 -2.1251
 2631TIP3   OH229451   3.992   6.319   1.763 -0.0880 -0.3291  0.4088
 2631TIP3    H129452   4.056   6.248   1.762 -0.3779 -0.7199  2.7085
 2631TIP3    H229453   3.951   6.312   1.849 -1.5607  1.3851 -0.0967
 2632TIP3   OH229454   2.269   0.184   7.127  0.1412 -0.2876  0.2357
 2632TIP3    H129455   2.194   0.125   7.124 -1.3183  1.5288 -0.4360
 2632TIP3    H229456   2.342   0.132   7.092 -0.5592 -2.3560  1.6806
 2633TIP3   OH229457   4.052   4.194   8.138 -0.4674 -0.2628  0.2385
 2633TIP3    H129458   4.055   4.222   8.230 -0.5233 -0.8945  0.4323
 2633TIP3    H229459   4.045   4.276   8.089 -1.5188  0.0300  0.8427
 2634TIP3   OH229460   6.420   2.640   1.073 -0.1058 -0.1517 -0.0922
 2634TIP3    H129461   6.471   2.706   1.026 -1.2196  0.0689 -1.0379
 2634TIP3    H229462   6.486   2.586   1.117  1.0396 -0.5556 -2.1447
 2635TIP3   OH229463   4.990   2.077   7.090  0.1358 -0.5692 -0.2224
 2635TIP3    H129464   5.033   2.161   7.074 -0.4470 -0.1823  0.1604
 2635TIP3    H229465   5.034   2.016   7.032  1.3764 -0.2518  0.3518
 2636TIP3   OH229466   4.830   6.585   1.178  0.2446  0.3928  0.2197
 2636TIP3    H129467   4.830   6.540   1.094 -0.9338  0.2490  0.2873
 2636TIP3    H229468   4.865   6.521   1.240  1.1412  0.5077 -0.1475
 2637TIP3   OH229469   5.177   5.185   7.603 -0.4898 -0.1382 -0.7065
 2637TIP3    H129470   5.159   5.187   7.509 -0.9930  0.2375 -0.6037
 2637TIP3    H229471   5.096   5.214   7.644 -0.5039 -0.9858 -0.1191
 2638TIP3   OH229472   6.657   5.608   1.370  0.2002  0.0560  0.2826
 2638TIP3    H129473   6.722   5.640   1.306 -1.5266  1.0397 -1.0645
 2638TIP3    H229474   6.637   5.685   1.424  0.5623 -0.3961  1.0775
 2639TIP3   OH229475   1.120   2.508   0.651 -0.1895 -0.7939 -0.0290
 2639TIP3    H129476   1.079   2.564   0.584  1.1837  0.9747  0.5433
 2639TIP3    H229477   1.052   2.496   0.717 -1.1193 -1.4383 -1.0520
 2640TIP3   OH229478   4.361   4.786   0.582 -0.0790  0.3708  0.4501
 2640TIP3    H129479   4.455   4.801   0.575 -0.0196 -0.0495  0.3111
 2640TIP3    H229480   4.324   4.872   0.605  0.2714  0.6672 -0.0851
 2641TIP3   OH229481   6.263   6.497   1.003  0.1816 -0.3770 -0.0745
 2641TIP3    H129482   6.233   6.429   1.064 -1.1512  1.7203  1.7573
 2641TIP3    H229483   6.197   6.498   0.934 -0.8381  0.2385  0.8693
 2642TIP3   OH229484   4.460   4.087   8.312  0.4689  0.1966 -0.0576
 2642TIP3    H129485   4.534   4.094   8.252  1.0415  0.9506  0.7165
 2642TIP3    H229486   4.443   4.177   8.341  0.3455 -0.1682  1.0753
 2643TIP3   OH229487   1.699   6.006   1.563  0.3248  0.6363  0.0758
 2643TIP3    H129488   1.729   5.940   1.625  0.3992  1.2489  0.6995
 2643TIP3    H229489   1.614   6.034   1.597 -0.8629 -0.8275 -1.4779
 2644TIP3   OH229490   0.473   3.796   1.659  0.4105  0.0247 -0.4699
 2644TIP3    H129491   0.534   3.829   1.725 -1.5861 -0.3116  1.6867
 2644TIP3    H229492   0.485   3.854   1.584  1.5866  1.5077  0.7834
 2645TIP3   OH229493   2.454   4.009   0.413  0.3704  0.6903 -0.2904
 2645TIP3    H129494   2.517   4.070   0.450  2.1111 -0.7747 -0.7150
 2645TIP3    H229495   2.483   3.923   0.443 -0.8377 -0.1195 -1.3260
 2646TIP3   OH229496   2.859   2.435   0.038  0.0004  0.2792  0.3362
 2646TIP3    H129497   2.840   2.349  -0.000  1.7032  0.3165 -0.6702
 2646TIP3    H229498   2.773   2.468   0.066 -1.3120 -0.0467 -2.8421
 2647TIP3   OH229499   5.171   2.646   1.185  0.0386  0.3575  0.4008
 2647TIP3    H129500   5.174   2.739   1.159  0.2561  0.0692 -0.6527
 2647TIP3    H229501   5.093   2.612   1.141  0.6884 -0.2649 -0.2946
 2648TIP3   OH229502   1.348   5.769   0.044  0.2098 -0.5077  0.4007
 2648TIP3    H129503   1.368   5.862   0.044 -1.8072  0.0989  4.2504
 2648TIP3    H229504   1.433   5.726   0.038  1.4792  1.6425  1.7064
 2649TIP3   OH229505   0.817   5.524   7.712  0.2311 -0.2929 -0.2326
 2649TIP3    H129506   0.743   5.471   7.740 -1.2218  1.9828  0.4934
 2649TIP3    H229507   0.805   5.536   7.618 -1.7705  2.0171  0.2303
 2650TIP3   OH229508   1.671   4.564   1.370 -0.1546 -0.1754  0.2766
 2650TIP3    H129509   1.745   4.533   1.423 -0.8191  0.1042  1.3981
 2650TIP3    H229510   1.637   4.640   1.418 -2.7035 -1.7401  1.1236
 2651TIP3   OH229511   5.113   5.599   0.967  0.5091 -1.0010  0.1380
 2651TIP3    H129512   5.084   5.650   0.892  1.6650 -0.9372 -0.2803
 2651TIP3    H229513   5.201   5.631   0.986 -0.5511  0.6393  2.9812
 2652TIP3   OH229514   1.770   6.352   0.006  0.4022 -0.3386  0.2999
 2652TIP3    H129515   1.742   6.352   0.097 -0.5054 -0.7344  0.0227
 2652TIP3    H229516   1.755   6.442  -0.023 -2.3856 -0.9305 -0.3676
 2653TIP3   OH229517   5.319   5.408   2.182  0.1294  0.3824  0.2830
 2653TIP3    H129518   5.335   5.494   2.142  3.0578 -0.2592 -0.1571
 2653TIP3    H229519   5.272   5.359   2.115 -0.1247  1.1211 -0.0967
 2654TIP3   OH229520   3.263   2.387   0.759  0.3984  0.0453 -0.0099
 2654TIP3    H129521   3.226   2.330   0.826  0.5260  0.3478  0.3187
 2654TIP3    H229522   3.222   2.358   0.677  1.9132 -1.8458 -0.1707
 2655TIP3   OH229523   0.197   3.284   1.315  0.0469  0.2790 -0.3247
 2655TIP3    H129524   0.232   3.195   1.328 -0.2557  0.4228  1.8850
 2655TIP3    H229525   0.119   3.271   1.261  0.2614 -0.7340 -0.4231
 2656TIP3   OH229526   0.127   2.158   1.738  0.1846 -0.8148 -0.2818
 2656TIP3    H129527   0.078   2.079   1.717 -1.1957  0.0903 -0.5603
 2656TIP3    H229528   0.173   2.180   1.658 -1.6214  0.1848 -1.0903
 2657TIP3   OH229529   1.626   3.458   0.811  0.3400  0.2996 -0.4048
 2657TIP3    H129530   1.588   3.407   0.740  1.0095 -1.4039  0.3969
 2657TIP3    H229531   1.638   3.546   0.774  0.5026 -0.4767 -2.3230
 2658TIP3   OH229532   6.472   1.874   8.391  0.0990 -0.1559  0.3954
 2658TIP3    H129533   6.438   1.868   8.302  0.6796  2.4904 -0.0880
 2658TIP3    H229534   6.493   1.783   8.415 -1.2535 -1.0743 -1.6507
 2659TIP3   OH229535   0.007   0.646   0.782  0.0286  0.2845  0.0130
 2659TIP3    H129536   0.096   0.654   0.816  0.4507  0.1691 -1.0325
 2659TIP3    H229537   0.005   0.702   0.705  0.0118 -1.6840 -1.5057
 2660TIP3   OH229538   0.974   4.702   1.653  0.1814 -0.3459  0.1109
 2660TIP3    H129539   0.983   4.783   1.704 -0.4039 -0.5202  0.4985
 2660TIP3    H229540   1.061   4.688   1.615  0.8054 -0.5278  1.5491
 2661TIP3   OH229541   5.860   4.769   8.463  0.0399 -0.3718 -0.0283
 2661TIP3    H129542   5.781   4.717   8.474 -0.6752  0.6100 -0.4061
 2661TIP3    H229543   5.829   4.857   8.443  1.2229 -0.3695 -2.1553
 2662TIP3   OH229544   3.634   6.527   7.885  0.0327  0.2981 -0.1306
 2662TIP3    H129545   3.667   6.459   7.826  2.3982  2.7789 -1.9054
 2662TIP3    H229546   3.577   6.581   7.830  0.2685  1.2419  0.5274
 2663TIP3   OH229547   3.975   0.042   7.381  0.2691 -0.4204  0.2124
 2663TIP3    H129548   3.912  -0.030   7.387  0.3038 -0.4592  0.1173
 2663TIP3    H229549   4.060  -0.000   7.380  0.3970 -0.2980  2.0596
 2664TIP3   OH229550   6.228   6.459   7.674  0.3041 -0.5476  0.1031
 2664TIP3    H129551   6.213   6.365   7.665 -1.1713 -0.4808  1.3947
 2664TIP3    H229552   6.145   6.494   7.706  1.2136  0.9971  0.9186
 2665TIP3   OH229553   1.824   6.605   0.602 -0.0692 -0.1131 -0.0953
 2665TIP3    H129554   1.833   6.578   0.511  0.7157  2.9051 -1.0297
 2665TIP3    H229555   1.745   6.562   0.633 -1.4535  0.2727 -2.8340
 2666TIP3   OH229556   4.530   4.845   1.679 -0.0896 -0.2806 -0.1758
 2666TIP3    H129557   4.472   4.777   1.711 -1.0123  0.2977 -0.5863
 2666TIP3    H229558   4.596   4.855   1.748  0.0375 -1.5464 -0.1035
 2667TIP3   OH229559   1.116   6.117   7.299 -0.4754 -0.2957  0.1030
 2667TIP3    H129560   1.089   6.207   7.282 -0.6291 -0.2790  0.4336
 2667TIP3    H229561   1.185   6.123   7.365 -1.5559 -0.5081  1.2908
 2668TIP3   OH229562   4.412   3.445   1.924  0.0336  0.1490 -0.1258
 2668TIP3    H129563   4.454   3.475   2.005 -0.5926  0.5872  0.0422
 2668TIP3    H229564   4.455   3.497   1.855  0.1898  0.1598 -0.0222
 2669TIP3   OH229565   3.381   5.237   1.689  0.5695 -0.0930 -0.3219
 2669TIP3    H129566   3.315   5.177   1.724  0.9904 -0.1688  0.3526
 2669TIP3    H229567   3.336   5.321   1.684  0.8781  0.2493  1.7544
 2670TIP3   OH229568   1.657   6.361   6.770 -0.4848 -0.1242  0.1437
 2670TIP3    H129569   1.685   6.410   6.693  2.3188  3.2891  2.9851
 2670TIP3    H229570   1.591   6.416   6.812 -0.4221 -0.8615  1.2558
 2671TIP3   OH229571   5.297   3.049   0.320  0.2407  0.2506  0.6393
 2671TIP3    H129572   5.278   3.137   0.289  0.1570 -0.7551 -2.4393
 2671TIP3    H229573   5.220   3.025   0.372 -0.9269  1.0416 -0.6725
 2672TIP3   OH229574   3.438   1.279   7.851 -0.2967 -0.5267 -0.8476
 2672TIP3    H129575   3.423   1.274   7.945 -0.1419 -1.3508 -0.8603
 2672TIP3    H229576   3.385   1.353   7.821 -1.5288 -1.1904 -0.3538
 2673TIP3   OH229577   3.309   2.168   7.432 -0.0061  0.2889  0.0869
 2673TIP3    H129578   3.353   2.137   7.512 -1.2013 -0.8768  0.3315
 2673TIP3    H229579   3.300   2.262   7.445  1.5184  0.4185  0.4560
 2674TIP3   OH229580   5.825   0.648   0.955  0.3038 -0.1831  0.4653
 2674TIP3    H129581   5.768   0.718   0.986  1.0560  0.5103  0.3118
 2674TIP3    H229582   5.813   0.647   0.860  1.8392  1.1639  0.2140
 2675TIP3   OH229583   3.516   6.558   6.890  0.3686 -0.4907 -0.1404
 2675TIP3    H129584   3.599   6.596   6.919 -0.2972  0.2792  0.8201
 2675TIP3    H229585   3.465   6.632   6.857  0.9126 -1.2694 -3.0188
 2676TIP3   OH229586   1.403   2.415   8.472 -0.0502  0.3586  0.2616
 2676TIP3    H129587   1.400   2.502   8.434  2.1028  1.4391  2.3181
 2676TIP3    H229588   1.467   2.368   8.419  0.6434  0.8616  0.6354
 2677TIP3   OH229589   0.181   1.301   1.321  0.1207  0.0349  0.3771
 2677TIP3    H129590   0.105   1.355   1.344  0.9015  1.3177  0.0180
 2677TIP3    H229591   0.256   1.351   1.352  0.8363 -1.2504  0.7923
 2678TIP3   OH229592   1.917   4.481   1.529 -0.2858  0.0257  0.2601
 2678TIP3    H129593   1.958   4.499   1.613  0.0702 -0.1560  0.1268
 2678TIP3    H229594   1.951   4.395   1.503  0.3749  0.5091 -0.5300
 2679TIP3   OH229595   6.543   1.063   1.152 -0.1785 -0.1737 -0.2109
 2679TIP3    H129596   6.633   1.070   1.183  0.1011 -0.3630 -0.9633
 2679TIP3    H229597   6.511   0.981   1.189 -0.4329  0.4586  1.0100
 2680TIP3   OH229598   6.806   0.645   0.458 -0.6640  0.5819  0.5445
 2680TIP3    H129599   6.798   0.613   0.368 -1.4314  0.9748  0.4630
 2680TIP3    H229600   6.830   0.568   0.509 -1.8086  0.0059  0.2480
 2681TIP3   OH229601   3.284   2.255   2.955  0.0203 -0.2923  0.3334
 2681TIP3    H129602   3.212   2.191   2.959  0.9905 -1.4283  0.0889
 2681TIP3    H229603   3.245   2.336   2.990 -2.3329  0.0726 -2.6930
 2682TIP3   OH229604   0.618   0.148   0.375 -0.1045 -0.5084  0.4732
 2682TIP3    H129605   0.694   0.145   0.433  0.2451 -0.7944  0.0036
 2682TIP3    H229606   0.631   0.227   0.322 -0.9819  0.3701  1.5291
 2683TIP3   OH229607   5.860   5.605   8.369  0.6102 -0.0227 -0.7387
 2683TIP3    H129608   5.781   5.625   8.319 -0.0966 -0.8400  0.0282
 2683TIP3    H229609   5.848   5.650   8.453  1.0272 -0.0375 -0.6666
 2684TIP3   OH229610   5.374   5.503   1.537 -0.2717  0.7231  0.0584
 2684TIP3    H129611   5.393   5.590   1.500  1.3124 -0.1132 -1.2568
 2684TIP3    H229612   5.315   5.520   1.610 -1.8567  2.6969 -1.5574
 2685TIP3   OH229613   0.401   0.314   0.707  0.5586  0.1236 -0.4032
 2685TIP3    H129614   0.333   0.311   0.774  0.1296  0.5024 -0.8149
 2685TIP3    H229615   0.478   0.276   0.749  0.9136  2.2602  1.0024
 2686TIP3   OH229616   3.351   5.160   8.278  0.6839 -0.6277  0.2376
 2686TIP3    H129617   3.443   5.181   8.295  1.3074 -3.9926  1.8787
 2686TIP3    H229618   3.314   5.143   8.365 -1.4045  0.0570 -0.4400
 2687TIP3   OH229619   6.728   0.996   0.741  0.1043  0.1940  0.0491
 2687TIP3    H129620   6.679   0.937   0.684 -0.0681 -0.6276  1.0243
 2687TIP3    H229621   6.769   1.059   0.681 -0.0206 -0.6836 -0.9779
 2688TIP3   OH229622   0.875   6.280   8.163  0.0748 -0.2668  0.1834
 2688TIP3    H129623   0.838   6.215   8.104  1.5378 -0.7823 -0.2102
 2688TIP3    H229624   0.969   6.262   8.163  0.4502  1.4718  0.5306
 2689TIP3   OH229625   6.246   0.795   7.639  0.1049  0.2968  0.6507
 2689TIP3    H129626   6.227   0.795   7.733 -1.0004  2.3482  0.4896
 2689TIP3    H229627   6.225   0.706   7.611 -0.5849 -0.0566  2.1560
 2690TIP3   OH229628   4.923   0.149   0.541 -0.1989  0.4937 -0.4751
 2690TIP3    H129629   5.011   0.117   0.563  0.2298  1.2813 -0.9856
 2690TIP3    H229630   4.868   0.071   0.542 -0.1669  0.3536  2.9465
 2691TIP3   OH229631   1.871   4.072   7.020 -0.5900 -0.4722 -0.2871
 2691TIP3    H129632   1.927   4.062   6.943  0.9125  0.1845  0.6865
 2691TIP3    H229633   1.880   3.990   7.067  0.3808  0.0044  0.3828
 2692TIP3   OH229634   5.252   2.017   0.619  0.2817  0.4667 -0.3194
 2692TIP3    H129635   5.326   1.992   0.564  0.8753  0.3531  0.5046
 2692TIP3    H229636   5.291   2.032   0.705 -0.4529  1.7618 -0.1952
 2693TIP3   OH229637   0.842   0.803   1.372 -0.0509 -0.6508  0.2921
 2693TIP3    H129638   0.937   0.799   1.382  0.0043 -1.0678 -0.3239
 2693TIP3    H229639   0.815   0.880   1.421  0.8801  0.9233 -1.5283
 2694TIP3   OH229640   5.873   0.287   2.144 -0.0142 -0.7136  0.0644
 2694TIP3    H129641   5.904   0.377   2.135  1.5213 -1.3783 -2.0240
 2694TIP3    H229642   5.865   0.274   2.239 -0.6804  1.7093  0.4037
 2695TIP3   OH229643   0.278   0.670   1.816 -0.3630  0.2069 -0.7050
 2695TIP3    H129644   0.240   0.678   1.904 -0.3596  0.6081 -0.7415
 2695TIP3    H229645   0.334   0.746   1.807  1.3938 -0.9666 -0.1999
 2696TIP3   OH229646   4.220   4.697   8.617  0.0096  0.6923 -0.2126
 2696TIP3    H129647   4.205   4.683   8.710  0.3676 -1.3514 -0.4293
 2696TIP3    H229648   4.151   4.758   8.591 -1.4296 -0.3712  0.9507
 2697TIP3   OH229649   1.223   1.963   2.194  0.2037  0.2430  0.8783
 2697TIP3    H129650   1.148   1.943   2.249 -0.5415 -0.7301 -0.4447
 2697TIP3    H229651   1.271   1.881   2.187  0.0170  0.2247 -0.3140
 2698TIP3   OH229652   1.063   3.307   7.175  0.4783 -0.7340 -0.1887
 2698TIP3    H129653   1.138   3.367   7.167 -1.1161  1.3993 -0.0565
 2698TIP3    H229654   0.992   3.352   7.129 -1.4176 -1.4050  1.9081
 2699TIP3   OH229655   5.689   5.720   1.527  0.5401 -0.4411 -0.9448
 2699TIP3    H129656   5.671   5.634   1.564 -2.0955 -0.8619 -2.8702
 2699TIP3    H229657   5.736   5.767   1.595  0.3704 -2.7754  0.8877
 2700TIP3   OH229658   4.209   0.725   2.067 -0.4621  0.0028  0.5144
 2700TIP3    H129659   4.277   0.659   2.080 -0.9805 -0.8812 -1.0271
 2700TIP3    H229660   4.238   0.776   1.991 -0.4914  1.0289  1.1636
 2701TIP3   OH229661   0.621   2.623   7.951 -0.2447  0.2706 -0.1327
 2701TIP3    H129662   0.643   2.715   7.934  1.7644 -0.3468 -1.2877
 2701TIP3    H229663   0.571   2.596   7.873 -2.2143  0.7404  0.9076
 2702TIP3   OH229664   2.623   4.096   1.739 -0.2991 -0.5420 -0.0314
 2702TIP3    H129665   2.630   4.124   1.648 -1.1161 -0.1299  0.0181
 2702TIP3    H229666   2.636   4.176   1.790  2.4543 -1.1166  0.3463
 2703TIP3   OH229667   3.500   4.604   1.867  0.6882 -0.1316  0.0546
 2703TIP3    H129668   3.549   4.685   1.877  2.0073 -0.4329 -2.8529
 2703TIP3    H229669   3.566   4.535   1.869  0.5953 -0.5515 -4.0282
 2704TIP3   OH229670   6.174   5.923   8.580  0.2414 -0.5562  0.0471
 2704TIP3    H129671   6.219   5.929   8.495 -0.7183  3.2279 -0.3702
 2704TIP3    H229672   6.084   5.949   8.561  0.0750  0.6970  2.2176
 2705TIP3   OH229673   1.163   5.593   7.407  0.6846  0.5277  1.0500
 2705TIP3    H129674   1.125   5.564   7.490  0.2126 -0.6069  0.4582
 2705TIP3    H229675   1.251   5.624   7.430  0.7361 -0.2205  1.9070
 2706TIP3   OH229676   2.071   4.950   7.749 -0.3288 -0.0408  0.2129
 2706TIP3    H129677   1.995   4.964   7.806 -0.5266  1.0482 -0.2846
 2706TIP3    H229678   2.075   5.030   7.696  2.0135  0.5651  1.2034
 2707TIP3   OH229679   1.509   2.097   7.381 -0.3554  0.4724  0.2299
 2707TIP3    H129680   1.513   2.043   7.301  0.8899  1.6019 -0.5172
 2707TIP3    H229681   1.535   2.037   7.451  0.4574 -0.0623 -0.5037
 2708TIP3   OH229682   1.966   3.985   1.301 -0.0569  0.0275 -0.2826
 2708TIP3    H129683   1.940   3.963   1.390 -0.6372 -1.0478 -0.7013
 2708TIP3    H229684   2.060   3.966   1.298 -0.0692 -0.0893  0.0555
 2709TIP3   OH229685   1.074   2.115   1.007  0.4284 -0.3862 -0.0514
 2709TIP3    H129686   0.999   2.133   0.951 -0.5923  0.8172  1.6250
 2709TIP3    H229687   1.142   2.177   0.977 -0.3278  0.7032  0.4185
 2710TIP3   OH229688   1.544   1.918   0.711 -0.0481 -0.3457 -0.2318
 2710TIP3    H129689   1.460   1.962   0.702  0.3394  0.3907 -0.3893
 2710TIP3    H229690   1.608   1.990   0.715  0.5331 -0.8814  0.2575
 2711TIP3   OH229691   4.070   5.349   7.193 -0.0482 -0.0389 -0.0718
 2711TIP3    H129692   4.030   5.435   7.184 -0.2610  0.1487  2.0192
 2711TIP3    H229693   4.042   5.301   7.115 -1.0478  1.3439 -0.6139
 2712TIP3   OH229694   6.275   0.002   1.138 -0.5396  0.5351 -0.1014
 2712TIP3    H129695   6.267  -0.075   1.193 -3.0445  0.2411 -0.7560
 2712TIP3    H229696   6.191   0.008   1.092  0.0928  2.8527 -1.1210
 2713TIP3   OH229697   4.104   1.791   8.542 -0.3745 -0.2327 -0.2677
 2713TIP3    H129698   4.185   1.742   8.525  0.5354  0.7089  1.1297
 2713TIP3    H229699   4.083   1.832   8.458  0.2151 -1.0241 -0.8189
 2714TIP3   OH229700   6.276   3.138   8.167 -0.0791 -0.0915  0.2571
 2714TIP3    H129701   6.360   3.146   8.121 -0.3112 -0.6670 -0.2789
 2714TIP3    H229702   6.233   3.064   8.126 -0.5362 -0.2750  1.0442
 2715TIP3   OH229703   5.975   5.062   7.110  0.0655  0.0482  0.5212
 2715TIP3    H129704   5.958   5.156   7.112 -0.3223 -0.0301  1.5017
 2715TIP3    H229705   5.891   5.022   7.133  0.5640 -0.4773  1.5065
 2716TIP3   OH229706   6.013   2.286   8.290 -0.1259  0.4887  0.0627
 2716TIP3    H129707   6.038   2.304   8.200  1.9872 -4.3630 -0.6534
 2716TIP3    H229708   5.941   2.224   8.284  1.3844 -1.5631  1.4659
 2717TIP3   OH229709   0.284   0.834   8.350  0.5548 -0.1921 -0.2174
 2717TIP3    H129710   0.301   0.910   8.294  0.7136 -0.4251 -0.4848
 2717TIP3    H229711   0.217   0.784   8.304  1.5705 -1.0292 -0.8231
 2718TIP3   OH229712   6.380   3.003   2.693  0.4011  0.4481 -0.1300
 2718TIP3    H129713   6.383   2.909   2.710 -1.3509  0.1105 -1.3572
 2718TIP3    H229714   6.413   3.043   2.773 -0.7965 -1.1624  1.2540
 2719TIP3   OH229715   3.377   6.394   7.034  0.3698 -0.0505  0.4538
 2719TIP3    H129716   3.298   6.387   6.981 -0.6609  0.1709  1.9189
 2719TIP3    H229717   3.437   6.447   6.980 -0.7034  0.3213 -0.4051
 2720TIP3   OH229718   1.074   0.840   7.624 -0.2148  0.1130 -0.1359
 2720TIP3    H129719   1.153   0.831   7.572 -0.4413 -0.3429 -0.3992
 2720TIP3    H229720   1.075   0.932   7.653 -0.8296  0.8053 -2.1444
 2721TIP3   OH229721   1.339   2.517   8.106  0.4293  0.8387 -0.2016
 2721TIP3    H129722   1.335   2.447   8.171 -0.0853  0.6101 -0.4705
 2721TIP3    H229723   1.268   2.577   8.131 -1.7155 -0.7044 -2.1696
 2722TIP3   OH229724   2.366   6.043   8.540  0.0985 -0.2256 -0.6200
 2722TIP3    H129725   2.332   5.980   8.603  0.5708 -0.1344 -0.2719
 2722TIP3    H229726   2.314   6.122   8.555  0.3798 -0.1249 -0.1711
 2723TIP3   OH229727   6.683   4.666   0.291  0.1349  0.1492 -0.0726
 2723TIP3    H129728   6.658   4.663   0.384  1.3508  1.1058  0.3099
 2723TIP3    H229729   6.606   4.701   0.247 -0.5530 -0.5543  0.5255
 2724TIP3   OH229730   3.072   0.123   1.227 -0.5719  0.1850 -0.3062
 2724TIP3    H129731   3.073   0.139   1.133  1.1796  0.7361 -0.2313
 2724TIP3    H229732   2.990   0.162   1.258  0.2558  2.7846 -1.1648
 2725TIP3   OH229733   1.329   1.063   8.183  0.2596  0.2836  0.0423
 2725TIP3    H129734   1.277   1.038   8.259  0.8306 -0.6278  0.1577
 2725TIP3    H229735   1.401   1.114   8.220  1.1639 -1.0956  0.2936
 2726TIP3   OH229736   0.607   3.940   1.871 -0.1422 -0.1890 -0.1204
 2726TIP3    H129737   0.643   4.026   1.853 -0.8328  0.4295  1.3362
 2726TIP3    H229738   0.670   3.898   1.930  0.6131 -1.0477 -1.4665
 2727TIP3   OH229739   2.264   5.567   8.549  0.0821 -0.5572  0.3204
 2727TIP3    H129740   2.332   5.633   8.566  0.3982 -0.8769  0.3161
 2727TIP3    H229741   2.311   5.495   8.507 -0.4237 -0.4009 -0.5357
 2728TIP3   OH229742   1.134   5.485   1.111  0.5230  0.7252 -0.2983
 2728TIP3    H129743   1.208   5.543   1.132  0.9041  0.1951 -0.1320
 2728TIP3    H229744   1.118   5.498   1.018  1.7428 -0.1579 -0.6600
 2729TIP3   OH229745   4.771   1.895   0.712 -0.4069  0.3970  0.6503
 2729TIP3    H129746   4.743   1.841   0.786 -0.9944 -0.3295 -0.0874
 2729TIP3    H229747   4.851   1.853   0.681 -1.1308 -0.3627 -0.2314
 2730TIP3   OH229748   2.747   2.035   0.726  0.1252  0.0780 -0.8636
 2730TIP3    H129749   2.703   1.998   0.803  0.0770 -0.7770 -1.2850
 2730TIP3    H229750   2.676   2.056   0.666  0.2578 -1.1447 -1.4772
 2731TIP3   OH229751   1.547   2.430   7.467  0.0996 -0.0174  0.1750
 2731TIP3    H129752   1.555   2.347   7.420  0.8903 -0.5865  1.2671
 2731TIP3    H229753   1.550   2.497   7.399 -1.4968 -0.9012 -0.8101
 2732TIP3   OH229754   0.258   0.536   0.598  0.4292 -0.5817  0.5677
 2732TIP3    H129755   0.183   0.477   0.607  0.4351 -0.8996 -1.1183
 2732TIP3    H229756   0.313   0.516   0.674 -1.7556  0.5697  2.5778
 2733TIP3   OH229757   6.264   4.070   2.312 -0.0189  0.2776  0.0373
 2733TIP3    H129758   6.214   4.149   2.294  0.0022 -0.0305 -1.5094
 2733TIP3    H229759   6.351   4.089   2.279  0.2869 -0.0153  0.6524
 2734TIP3   OH229760   6.431   2.997   1.397 -0.5320 -0.3045  0.2554
 2734TIP3    H129761   6.486   3.075   1.403 -0.0306 -0.5443 -0.9350
 2734TIP3    H229762   6.470   2.945   1.326 -1.7939 -0.8807 -0.0496
 2735TIP3   OH229763   6.473   6.697   7.175 -0.1276  0.5541  0.1398
 2735TIP3    H129764   6.484   6.605   7.149  0.5309  0.9454 -1.0410
 2735TIP3    H229765   6.401   6.729   7.121 -0.2313  0.7917  0.4143
 2736TIP3   OH229766   6.098   5.945   1.840 -0.2733  0.0581  0.2028
 2736TIP3    H129767   6.093   6.040   1.838  2.7969  0.3061  0.3892
 2736TIP3    H229768   6.084   5.922   1.932  0.9018  0.5305  0.5168
 2737TIP3   OH229769   2.388   0.423   8.246  0.2160 -0.6770 -0.0697
 2737TIP3    H129770   2.461   0.434   8.185  0.3141 -1.1683 -0.0469
 2737TIP3    H229771   2.338   0.349   8.210 -1.1988  0.6712 -0.9892
 2738TIP3   OH229772   4.861   2.996   1.073  0.1323 -0.3482 -0.1266
 2738TIP3    H129773   4.833   3.061   1.009  0.5878 -0.7975 -0.7889
 2738TIP3    H229774   4.829   2.913   1.039  1.2153 -0.7156 -0.2805
 2739TIP3   OH229775   1.246   2.805   0.587 -0.0869 -0.0836 -0.7451
 2739TIP3    H129776   1.226   2.714   0.564  1.3626 -0.5279 -0.3170
 2739TIP3    H229777   1.339   2.815   0.567 -0.6727  1.9790 -2.9368
 2740TIP3   OH229778   2.201   1.063   8.073 -0.4151 -0.4963  0.5388
 2740TIP3    H129779   2.274   1.010   8.105 -0.9141 -1.0105  0.8362
 2740TIP3    H229780   2.147   1.079   8.150 -0.9539 -0.6592  0.2014
 2741TIP3   OH229781   3.901   1.682   7.168  0.4663  1.1474  0.1528
 2741TIP3    H129782   3.864   1.704   7.253 -0.3739 -1.0150  0.4138
 2741TIP3    H229783   3.828   1.643   7.119  1.8941 -1.6806  0.0589
 2742TIP3   OH229784   2.039   2.408   1.102  0.7018 -0.5160  0.2410
 2742TIP3    H129785   1.959   2.356   1.106 -0.5989  1.1348  6.5642
 2742TIP3    H229786   2.108   2.348   1.130  0.3859 -0.4004  1.2945
 2743TIP3   OH229787   0.142   6.749   7.547  0.1243 -0.6916  0.2634
 2743TIP3    H129788   0.139   6.662   7.508 -0.3261 -0.0374 -1.2297
 2743TIP3    H229789   0.184   6.803   7.480  0.5537  0.2060  1.2403
 2744TIP3   OH229790   2.982   4.823   8.595 -0.2716 -0.3506 -0.0801
 2744TIP3    H129791   3.054   4.818   8.531 -1.2476 -0.2701 -1.2172
 2744TIP3    H229792   2.957   4.915   8.595  0.5227 -0.1040  1.3736
 2745TIP3   OH229793   6.374   4.093   7.392  0.9227  0.3177 -0.1154
 2745TIP3    H129794   6.422   4.119   7.470  0.6689 -0.3102  0.2567
 2745TIP3    H229795   6.441   4.083   7.324  1.4280 -1.2861  0.5826
 2746TIP3   OH229796   2.593   2.678   0.346  0.0628  0.4041 -0.9601
 2746TIP3    H129797   2.606   2.757   0.294  0.1909 -0.0995 -1.7126
 2746TIP3    H229798   2.649   2.690   0.423 -0.7549  1.5196 -0.5181
 2747TIP3   OH229799   3.938   6.335   8.428 -0.3509 -0.3005  0.0160
 2747TIP3    H129800   3.980   6.257   8.464  1.1013  0.8516  0.9256
 2747TIP3    H229801   3.999   6.368   8.363 -0.4676  0.6344  0.3620
 2748TIP3   OH229802   5.760   5.945   8.265  0.0579  0.1252  0.6635
 2748TIP3    H129803   5.735   6.024   8.218 -0.4976 -0.5796 -0.2684
 2748TIP3    H229804   5.797   5.976   8.347  2.0478  1.4409 -0.6677
 2749TIP3   OH229805   4.274   4.648   2.248  0.1321  0.1701  0.5579
 2749TIP3    H129806   4.201   4.708   2.263 -0.8483 -0.9310  0.3740
 2749TIP3    H229807   4.232   4.564   2.227  1.4328 -0.7197  1.3201
 2750TIP3   OH229808   2.110   0.802   0.142  0.2016 -0.1963  0.0060
 2750TIP3    H129809   2.057   0.878   0.119 -0.4123  0.2316  2.4642
 2750TIP3    H229810   2.057   0.727   0.114 -0.5003  0.2663  0.0501
 2751TIP3   OH229811   4.761   6.447   2.462 -0.3923  0.5010  0.1230
 2751TIP3    H129812   4.689   6.439   2.525 -0.1405  0.1615  0.3745
 2751TIP3    H229813   4.839   6.451   2.517 -0.2361  1.0917 -0.1423
 2752TIP3   OH229814   6.660   6.432   1.728 -0.0215  0.4673 -0.3919
 2752TIP3    H129815   6.709   6.408   1.649  0.2621 -0.2020 -0.0243
 2752TIP3    H229816   6.725   6.473   1.785  0.0865 -0.2439  0.0164
 2753TIP3   OH229817   3.155   4.679   1.124 -0.6462  0.0252  0.1931
 2753TIP3    H129818   3.124   4.591   1.104  0.7091 -0.8691  1.8332
 2753TIP3    H229819   3.160   4.682   1.220 -1.6049  2.2419  0.2609
 2754TIP3   OH229820   5.734   3.476   8.336 -0.0680  0.1673  0.1300
 2754TIP3    H129821   5.725   3.494   8.430  2.4006  0.3145  0.3909
 2754TIP3    H229822   5.779   3.553   8.301 -1.4438  0.3668 -1.3307
 2755TIP3   OH229823   4.084   0.013   8.042  0.4400  0.1562  0.0983
 2755TIP3    H129824   4.109  -0.072   8.077 -0.3866 -1.1111 -2.2541
 2755TIP3    H229825   4.063  -0.003   7.950  2.5120  3.3139 -1.1010
 2756TIP3   OH229826   6.197   6.390   1.635  0.0758 -0.5818  0.4977
 2756TIP3    H129827   6.147   6.448   1.578  1.0710 -0.5562 -0.3793
 2756TIP3    H229828   6.219   6.315   1.579 -0.3062 -1.3182  1.3174
 2757TIP3   OH229829   5.417   0.678   2.778  0.3713 -0.7034 -0.2458
 2757TIP3    H129830   5.481   0.615   2.743  2.4289  1.8778 -1.4693
 2757TIP3    H229831   5.454   0.763   2.757 -3.4420  0.9942 -0.8546
 2758TIP3   OH229832   1.170   1.714   7.216 -0.3318 -0.5450  0.5162
 2758TIP3    H129833   1.238   1.647   7.215 -0.2619 -0.4712 -1.0346
 2758TIP3    H229834   1.095   1.673   7.173 -0.3489  0.3146 -0.2919
 2759TIP3   OH229835   0.545   5.449   0.783 -0.4062 -0.3027 -0.2883
 2759TIP3    H129836   0.569   5.369   0.736 -3.6813 -2.3843  1.2298
 2759TIP3    H229837   0.450   5.455   0.772 -1.0257  0.3844  3.9765
 2760TIP3   OH229838   3.816   2.307   1.095 -0.5517  0.1178  0.1406
 2760TIP3    H129839   3.800   2.244   1.025 -0.0497 -0.1807  0.2882
 2760TIP3    H229840   3.741   2.366   1.093 -0.0842  0.7039 -1.2805
 2761TIP3   OH229841   3.919   1.933   6.564  0.5477  0.3951 -0.1996
 2761TIP3    H129842   3.986   1.906   6.502  0.4226 -0.1669 -0.0913
 2761TIP3    H229843   3.961   1.925   6.650 -0.0201 -1.1114 -0.0367
 2762TIP3   OH229844   0.803   5.699   8.461 -0.1579 -0.2721  0.5968
 2762TIP3    H129845   0.790   5.708   8.367  2.0334  0.1294  0.2710
 2762TIP3    H229846   0.786   5.607   8.480 -0.6769 -0.3380 -0.1850
 2763TIP3   OH229847   0.759   5.543   7.450  0.0576  0.1927  0.1985
 2763TIP3    H129848   0.758   5.617   7.389 -0.9559  0.9784  1.1279
 2763TIP3    H229849   0.809   5.475   7.405  0.8355  1.3666 -0.7719
 2764TIP3   OH229850   3.028   1.131   0.951  0.2815 -0.2473  0.2501
 2764TIP3    H129851   3.101   1.069   0.951 -0.4024 -1.1367  2.3375
 2764TIP3    H229852   2.956   1.084   0.993 -0.5482  1.6425  1.0683
 2765TIP3   OH229853   0.819   4.438   0.582  0.2209 -0.7781 -0.4327
 2765TIP3    H129854   0.854   4.527   0.569 -0.0261 -0.3411  1.6051
 2765TIP3    H229855   0.844   4.415   0.671 -0.2894 -2.5246 -0.7012
 2766TIP3   OH229856   0.464   3.051   2.635 -0.6624  0.6696 -0.5748
 2766TIP3    H129857   0.496   3.139   2.614  0.2480  0.3291 -0.6742
 2766TIP3    H229858   0.411   3.063   2.714  0.3393  1.1594  0.0483
 2767TIP3   OH229859   0.343   6.330   7.234 -0.2846 -0.5507 -0.4974
 2767TIP3    H129860   0.263   6.279   7.238 -0.4977 -0.1436  1.5113
 2767TIP3    H229861   0.410   6.273   7.271 -0.2396  0.0701  0.4243
 2768TIP3   OH229862   2.369   4.447   0.132 -0.2840 -0.0958 -0.0367
 2768TIP3    H129863   2.339   4.433   0.042 -0.3207 -0.5369  0.0452
 2768TIP3    H229864   2.361   4.362   0.175 -0.3547  0.1304  0.4130
 2769TIP3   OH229865   5.239   3.578   0.887  0.6222  0.0962 -0.3118
 2769TIP3    H129866   5.168   3.631   0.923  2.1908  2.5785 -0.5812
 2769TIP3    H229867   5.241   3.500   0.942  0.3280  1.8627  2.4295
 2770TIP3   OH229868   3.168   3.518   1.700  0.2590 -0.4135 -0.7399
 2770TIP3    H129869   3.240   3.471   1.657  0.2742 -1.1759  0.0816
 2770TIP3    H229870   3.095   3.512   1.638  0.1897 -1.7388 -0.5744
 2771TIP3   OH229871   2.667   6.380   0.034  0.8526  0.1051  0.4923
 2771TIP3    H129872   2.632   6.294   0.011 -1.1350  1.3090 -1.4800
 2771TIP3    H229873   2.748   6.388  -0.016  1.0890 -0.6562  0.7549
 2772TIP3   OH229874   6.746   1.168   1.758  0.4211 -0.4485  0.1131
 2772TIP3    H129875   6.784   1.083   1.779  0.3997 -0.1460  1.4574
 2772TIP3    H229876   6.741   1.213   1.842 -0.9127  0.3345 -0.3668
 2773TIP3   OH229877   6.398   5.819   7.263 -0.1071  0.3478 -0.5330
 2773TIP3    H129878   6.479   5.870   7.264  0.7318 -0.8500  2.6136
 2773TIP3    H229879   6.421   5.737   7.220  0.3995 -0.0204  0.4227
 2774TIP3   OH229880   4.402   6.313   7.656 -0.3424 -0.1639 -0.3107
 2774TIP3    H129881   4.339   6.382   7.637 -1.7483 -1.5792 -1.0906
 2774TIP3    H229882   4.449   6.300   7.574 -0.1853 -0.2299 -0.2101
 2775TIP3   OH229883   0.669   6.862   2.728  0.1891  0.0736  0.5009
 2775TIP3    H129884   0.614   6.928   2.686  0.6120 -0.4611 -0.9607
 2775TIP3    H229885   0.641   6.862   2.820  0.1037  2.1775  0.5193
 2776TIP3   OH229886   6.083   1.756   1.412 -0.5553  0.1287  0.1762
 2776TIP3    H129887   6.064   1.746   1.319  0.8758 -2.4076  0.0612
 2776TIP3    H229888   6.146   1.827   1.417 -2.1762  1.6900 -0.5000
 2777TIP3   OH229889   0.906   2.085   1.230  0.1566  1.0381 -0.4137
 2777TIP3    H129890   0.853   2.059   1.155  0.0840 -1.8565  0.5096
 2777TIP3    H229891   0.995   2.088   1.197  0.0983  0.0126 -0.6881
 2778TIP3   OH229892   2.510   1.432   1.356 -0.3831 -0.1863 -0.2835
 2778TIP3    H129893   2.432   1.443   1.411  0.1623  0.3626  0.3927
 2778TIP3    H229894   2.523   1.518   1.315 -0.7775 -0.5891 -1.2642
 2779TIP3   OH229895   3.656   4.674   0.807 -0.4425  0.2634 -0.2376
 2779TIP3    H129896   3.636   4.761   0.771 -0.6326  0.3043 -0.0373
 2779TIP3    H229897   3.588   4.660   0.873 -2.6580 -1.5739 -2.7156
 2780TIP3   OH229898   5.969   3.916   0.158  0.0534  0.6720  0.0520
 2780TIP3    H129899   5.889   3.894   0.206 -0.1133  1.7602  0.2989
 2780TIP3    H229900   5.939   3.972   0.087  0.5900  1.0297  0.1039
 2781TIP3   OH229901   1.336   0.227   0.058 -0.3675 -0.2292 -0.2241
 2781TIP3    H129902   1.408   0.242   0.120  0.8103 -1.1660 -1.3227
 2781TIP3    H229903   1.372   0.252  -0.027 -2.0558  1.3163 -0.5512
 2782TIP3   OH229904   2.975   5.977   0.642  0.4407 -0.4233 -0.3731
 2782TIP3    H129905   3.033   5.922   0.695 -0.2539  0.4870  1.4151
 2782TIP3    H229906   2.919   5.915   0.595  0.2436 -1.2701  0.9284
 2783TIP3   OH229907   4.044   4.338   7.647  0.2487  0.6598 -0.0065
 2783TIP3    H129908   4.092   4.404   7.597  1.1127  1.5038  1.8186
 2783TIP3    H229909   4.098   4.259   7.642 -1.2345 -0.2883 -2.9610
 2784TIP3   OH229910   0.156   6.471   7.531  0.2320 -0.0446  0.6706
 2784TIP3    H129911   0.128   6.382   7.552  1.5042 -0.6747 -0.2538
 2784TIP3    H229912   0.251   6.466   7.525  0.1453  0.5910 -2.7538
 2785TIP3   OH229913   3.848   4.713   2.661  0.1372 -0.2397  0.4484
 2785TIP3    H129914   3.799   4.681   2.737 -0.0219 -0.4745  0.2490
 2785TIP3    H229915   3.915   4.771   2.698  0.5339 -0.9275  0.8371
 2786TIP3   OH229916   1.890   5.141   2.192 -0.3174  0.0699  0.0052
 2786TIP3    H129917   1.907   5.080   2.264  0.6358  0.2169 -0.0891
 2786TIP3    H229918   1.838   5.211   2.231  0.5960  0.3874  0.6737
 2787TIP3   OH229919   1.528   3.983   3.028 -0.1756 -0.4753 -0.1344
 2787TIP3    H129920   1.469   3.942   2.965 -1.0685 -1.5422  1.3352
 2787TIP3    H229921   1.606   4.005   2.977  0.2502 -3.7299 -1.1298
 2788TIP3   OH229922   0.703   0.768   7.832  0.0414 -0.1460  0.4259
 2788TIP3    H129923   0.702   0.831   7.904 -0.1438 -1.3880  1.5583
 2788TIP3    H229924   0.796   0.761   7.808 -0.0133  1.0358 -0.1676
 2789TIP3   OH229925   4.471   3.945   1.420 -0.2798  0.0947  0.7776
 2789TIP3    H129926   4.543   3.955   1.482  0.0650  0.6465  0.3022
 2789TIP3    H229927   4.460   3.851   1.410  1.5086 -0.0328 -0.4281
 2790TIP3   OH229928   4.071   4.320   2.399 -0.5760 -0.1266  0.2691
 2790TIP3    H129929   4.081   4.403   2.446 -0.8195  0.0635 -0.0130
 2790TIP3    H229930   4.062   4.345   2.307 -0.4093 -0.4801  0.1543
 2791TIP3   OH229931   0.681   1.675   2.990 -0.1546 -0.1481  0.0820
 2791TIP3    H129932   0.747   1.687   2.922  1.7950 -0.9842  1.7347
 2791TIP3    H229933   0.676   1.580   3.001 -2.6080 -0.1975 -0.8487
 2792TIP3   OH229934   4.652   5.798   0.726 -0.4410 -0.2990  0.5544
 2792TIP3    H129935   4.680   5.747   0.802 -0.3953  0.9298  1.3867
 2792TIP3    H229936   4.619   5.880   0.763  0.0548  0.5263 -0.7795
 2793TIP3   OH229937   3.934   5.310   7.927 -0.0042 -0.8104 -0.2782
 2793TIP3    H129938   3.856   5.364   7.943  1.2756  0.3180  3.3577
 2793TIP3    H229939   3.983   5.358   7.860 -0.1444  1.2905  1.0095
 2794TIP3   OH229940   6.832   3.247   2.050  0.2559  0.5555 -0.3979
 2794TIP3    H129941   6.776   3.263   2.125  0.2523  0.4930 -0.3877
 2794TIP3    H229942   6.868   3.160   2.063 -1.0795 -0.1644 -1.3069
 2795TIP3   OH229943   0.881   5.410   2.078  0.0236  0.0194  0.4260
 2795TIP3    H129944   0.835   5.482   2.034  0.7775  0.1110 -0.2552
 2795TIP3    H229945   0.871   5.336   2.018 -1.0954 -0.5642  1.3190
 2796TIP3   OH229946   6.160   4.325   0.601  0.0906  0.9458 -0.3176
 2796TIP3    H129947   6.118   4.301   0.683 -0.6368  0.2134 -0.8859
 2796TIP3    H229948   6.176   4.419   0.609 -0.6983  1.0359  0.3482
 2797TIP3   OH229949   2.497   0.524   0.634 -0.0292 -0.2438 -0.2979
 2797TIP3    H129950   2.414   0.516   0.587 -0.3091 -0.8152  0.2786
 2797TIP3    H229951   2.510   0.438   0.675 -0.0724  0.3849  1.1005
 2798TIP3   OH229952   0.708   5.957   0.173 -0.0925 -0.2649 -0.4996
 2798TIP3    H129953   0.720   6.033   0.116 -1.8854  1.5642  1.3559
 2798TIP3    H229954   0.628   5.915   0.141 -0.1654 -0.2285 -0.3668
 2799TIP3   OH229955   4.548   0.885   7.969  0.5125 -0.2123  0.4870
 2799TIP3    H129956   4.455   0.878   7.987  0.1850  0.8490 -0.6183
 2799TIP3    H229957   4.562   0.978   7.949  1.1600 -0.8273 -2.4648
 2800TIP3   OH229958   0.686   3.774   0.172 -0.4963 -0.0655  0.7324
 2800TIP3    H129959   0.657   3.685   0.191 -1.5974  0.0290 -0.4205
 2800TIP3    H229960   0.606   3.826   0.168 -0.1544  0.3623 -1.7166
 2801TIP3   OH229961   0.706   2.023   1.060 -0.1047  0.8224  0.1455
 2801TIP3    H129962   0.643   2.016   0.989 -0.3557 -2.8206  0.5358
 2801TIP3    H229963   0.656   2.057   1.134 -1.3579 -0.7158  0.0648
 2802TIP3   OH229964   2.764   0.247   7.973 -0.2589 -0.2484 -0.3418
 2802TIP3    H129965   2.727   0.277   7.890  0.7192 -0.3176 -0.8141
 2802TIP3    H229966   2.773   0.326   8.025 -0.3448 -0.1272 -0.5092
 2803TIP3   OH229967   4.286   3.958   2.036  0.4072  0.2880 -0.7439
 2803TIP3    H129968   4.287   3.877   2.087 -2.5457  0.8939  0.4838
 2803TIP3    H229969   4.349   3.943   1.967  1.2593 -2.3686  0.4619
 2804TIP3   OH229970   6.372   1.404   7.187  0.5382  0.1349 -0.1090
 2804TIP3    H129971   6.363   1.424   7.094 -0.3231 -0.0622 -0.0746
 2804TIP3    H229972   6.355   1.487   7.232 -1.8614 -0.3538 -0.0182
 2805TIP3   OH229973   5.443   0.214   1.381 -0.2430 -0.0995 -0.1321
 2805TIP3    H129974   5.399   0.155   1.319  0.8082 -0.9960 -0.0496
 2805TIP3    H229975   5.417   0.182   1.467  1.3885 -1.3557 -0.0487
 2806TIP3   OH229976   3.454   5.605   0.451  0.2826  0.4594  0.3303
 2806TIP3    H129977   3.380   5.547   0.435  1.4709 -0.3492 -2.9484
 2806TIP3    H229978   3.513   5.554   0.508 -0.0275 -0.3699 -0.0773
 2807TIP3   OH229979   3.220   0.422   2.252  0.5928  0.2093 -0.2148
 2807TIP3    H129980   3.157   0.351   2.262  2.2859 -1.2984  0.3129
 2807TIP3    H229981   3.226   0.461   2.340  1.2467 -0.4247  0.0299
 2808TIP3   OH229982   5.211   6.125   0.876 -0.0161 -0.0077  0.1966
 2808TIP3    H129983   5.222   6.053   0.939  1.6926 -1.6348 -1.8058
 2808TIP3    H229984   5.182   6.199   0.929 -0.9872 -1.9096  2.5060
 2809TIP3   OH229985   5.285   0.010   1.285 -1.0256  0.3831  0.6651
 2809TIP3    H129986   5.319   0.017   1.196 -1.9575  0.4344  0.3030
 2809TIP3    H229987   5.255  -0.080   1.293  0.2204  0.0117  1.3709
 2810TIP3   OH229988   1.925   3.862   0.715 -0.1121  0.5557  0.1968
 2810TIP3    H129989   1.879   3.875   0.632 -0.3843 -3.1793 -0.4159
 2810TIP3    H229990   1.994   3.799   0.695  0.7452  0.6450  2.5524
 2811TIP3   OH229991   5.297   3.416   0.640 -0.3141 -0.2837 -0.9269
 2811TIP3    H129992   5.365   3.369   0.689 -0.3693  0.4624 -0.1272
 2811TIP3    H229993   5.283   3.497   0.689 -1.5459 -0.2719 -1.2646
 2812TIP3   OH229994   3.056   1.299   0.201  0.0398 -0.2481 -0.2378
 2812TIP3    H129995   3.120   1.361   0.168 -1.8068  1.3129 -1.1019
 2812TIP3    H229996   3.045   1.323   0.293  0.8080 -0.6488 -0.0361
 2813TIP3   OH229997   3.254   1.015   7.700  0.1887  0.4296  0.1327
 2813TIP3    H129998   3.264   0.957   7.624 -0.8412  1.1593 -0.5751
 2813TIP3    H229999   3.228   1.100   7.663  1.4857  1.3191  1.1604
 2814TIP3   OH230000   3.075   3.086   1.343  0.4449 -0.4407 -1.1535
 2814TIP3    H130001   3.151   3.064   1.397  0.4658 -0.6153 -1.2513
 2814TIP3    H230002   3.023   3.145   1.397  0.6609 -0.3024 -1.0924
 2815TIP3   OH230003   4.716   0.097   2.850 -0.6022 -0.3660  0.3295
 2815TIP3    H130004   4.689   0.121   2.939 -1.5227 -0.6251  0.1304
 2815TIP3    H230005   4.705   0.178   2.799  0.2117 -0.1388  0.5120
 2816TIP3   OH230006   5.928   6.539   0.120 -0.1702 -0.5453 -0.1314
 2816TIP3    H130007   5.899   6.614   0.172 -0.1129 -0.3779 -0.3417
 2816TIP3    H230008   5.965   6.478   0.185  3.2906  1.1931 -0.2662
 2817TIP3   OH230009   1.963   0.584   0.047  0.1598 -0.4283  0.0230
 2817TIP3    H130010   1.993   0.494   0.048 -0.6236 -0.7071 -0.9269
 2817TIP3    H230011   1.884   0.584   0.102 -0.2416 -0.4680 -0.5509
 2818TIP3   OH230012   5.469   2.514   2.108 -0.4027  0.0135  0.1449
 2818TIP3    H130013   5.489   2.420   2.106  0.0697  0.1056  0.4585
 2818TIP3    H230014   5.428   2.528   2.193 -1.0017 -0.0085 -0.1332
 2819TIP3   OH230015   0.325   2.571   8.567  0.4443 -0.2034  0.1099
 2819TIP3    H130016   0.260   2.572   8.638  0.3346 -0.9106  0.0306
 2819TIP3    H230017   0.274   2.580   8.487  0.7089  2.4956  0.1667
 2820TIP3   OH230018   3.976   1.375   1.303 -0.2321 -0.1744 -0.0855
 2820TIP3    H130019   3.957   1.458   1.260  0.0806 -0.5387 -0.9449
 2820TIP3    H230020   3.906   1.364   1.367 -1.3020 -0.1370 -1.2348
 2821TIP3   OH230021   2.527   3.605   7.482  0.2924 -0.8799 -0.2470
 2821TIP3    H130022   2.575   3.600   7.565  0.2628 -1.0685 -0.2416
 2821TIP3    H230023   2.492   3.694   7.481 -0.5079 -1.1722  0.3937
 2822TIP3   OH230024   0.955   6.352   1.166 -0.2739 -0.6262 -0.4821
 2822TIP3    H130025   1.032   6.340   1.221  1.1027  0.3133 -2.0897
 2822TIP3    H230026   0.953   6.274   1.111 -0.4253 -0.6178 -0.4879
 2823TIP3   OH230027   3.893   1.529   1.069 -0.4758  0.7014 -0.2937
 2823TIP3    H130028   3.969   1.485   1.031 -1.2002 -0.0885 -0.8756
 2823TIP3    H230029   3.908   1.622   1.052  0.3304  0.5496 -0.4482
 2824TIP3   OH230030   1.486   4.724   8.564  0.1534 -0.4190 -0.2252
 2824TIP3    H130031   1.516   4.679   8.644  0.8134  1.1964  0.4713
 2824TIP3    H230032   1.566   4.742   8.515 -0.2236 -1.1391 -1.1379
 2825TIP3   OH230033   1.028   6.250   0.064 -0.2739 -0.2437 -0.2339
 2825TIP3    H130034   1.091   6.287   0.002 -1.0071  0.9198 -0.3272
 2825TIP3    H230035   1.012   6.161   0.032  0.0832  0.0113 -1.1595
 2826TIP3   OH230036   1.201   4.380   7.523  0.0454  0.0039  0.4333
 2826TIP3    H130037   1.228   4.427   7.444 -2.2791  0.9596  0.1287
 2826TIP3    H230038   1.222   4.288   7.505  0.8945  0.3940 -0.6768
 2827TIP3   OH230039   6.302   4.054   7.849  0.2234  0.1835  0.2969
 2827TIP3    H130040   6.320   3.970   7.890 -0.8121  0.6053  1.6760
 2827TIP3    H230041   6.322   4.119   7.916  2.7172  1.2172 -1.3023
 2828TIP3   OH230042   6.858   5.654   0.477  0.1862  0.3849  0.1840
 2828TIP3    H130043   6.886   5.563   0.474 -1.3117 -0.1027  0.0110
 2828TIP3    H230044   6.914   5.699   0.414  0.4924 -0.5611 -0.2339
 2829TIP3   OH230045   2.467   3.034   6.978 -0.0699 -0.0089 -0.5345
 2829TIP3    H130046   2.373   3.050   6.988 -0.1989 -1.2087  0.4688
 2829TIP3    H230047   2.473   2.973   6.904 -0.2453 -1.1451  0.3545
 2830TIP3   OH230048   0.041   6.064   0.941  0.5469  0.1304  0.4561
 2830TIP3    H130049   0.129   6.028   0.944  1.5318  2.2800 -0.0639
 2830TIP3    H230050   0.054   6.159   0.949 -1.8839  0.3816  2.5508
 2831TIP3   OH230051   4.467   5.983   7.758 -0.5125 -0.2834 -0.0525
 2831TIP3    H130052   4.518   5.945   7.686 -0.0535  0.8247 -0.3281
 2831TIP3    H230053   4.396   6.030   7.715 -1.7543 -1.7232  0.3264
 2832TIP3   OH230054   3.562   3.606   8.439  0.6559  0.3692 -0.4031
 2832TIP3    H130055   3.642   3.652   8.413 -0.3594  2.5808  0.1260
 2832TIP3    H230056   3.502   3.676   8.466 -0.9351 -1.3147  0.6740
 2833TIP3   OH230057   0.037   0.581   6.909 -0.3103 -0.1208  0.9042
 2833TIP3    H130058  -0.012   0.621   6.981 -1.6079 -0.9783  0.5374
 2833TIP3    H230059   0.026   0.641   6.835  0.1051  0.2238  1.1225
 2834TIP3   OH230060   0.766   0.613   8.431  0.7692 -0.5905  0.1925
 2834TIP3    H130061   0.710   0.690   8.441  2.8592  0.9250  0.9115
 2834TIP3    H230062   0.846   0.647   8.389  1.6235 -2.4258  0.2585
 2835TIP3   OH230063   3.951   2.182   7.520 -0.7306 -0.3221  0.3506
 2835TIP3    H130064   3.871   2.152   7.478 -0.6502 -1.0019  0.6570
 2835TIP3    H230065   3.945   2.148   7.610 -0.1995 -0.2046  0.4361
 2836TIP3   OH230066   1.987   2.874   3.015 -0.1519  0.2246 -0.6424
 2836TIP3    H130067   2.047   2.868   2.940  0.9626  0.7203  0.1720
 2836TIP3    H230068   1.970   2.967   3.025  0.9752  0.3335  0.6381
 2837TIP3   OH230069   2.219   5.027   1.206 -0.3555  0.3607  0.0002
 2837TIP3    H130070   2.140   4.981   1.237  0.4548 -0.9065  0.2626
 2837TIP3    H230071   2.280   4.957   1.185  0.5036  1.3155 -0.7722
 2838TIP3   OH230072   2.740   0.131   0.947 -0.5765  0.3236  0.1018
 2838TIP3    H130073   2.818   0.117   0.894 -0.7074 -0.2798  0.0572
 2838TIP3    H230074   2.726   0.047   0.992 -1.7964  0.0713 -0.6878
 2839TIP3   OH230075   1.416   0.350   2.174 -0.5167 -0.7300 -0.8129
 2839TIP3    H130076   1.510   0.357   2.158 -0.2481  1.7235  1.1751
 2839TIP3    H230077   1.377   0.421   2.123 -1.2524 -1.3637 -1.1636
 2840TIP3   OH230078   6.654   5.407   8.482  0.4726  0.4023  0.2297
 2840TIP3    H130079   6.573   5.362   8.457 -0.1051 -0.0028  2.5610
 2840TIP3    H230080   6.626   5.492   8.514  1.1295  0.8012 -0.2371
 2841TIP3   OH230081   0.323   5.316   2.882 -0.4507  0.5202 -0.0175
 2841TIP3    H130082   0.367   5.238   2.849 -0.6197  0.7629 -0.8484
 2841TIP3    H230083   0.374   5.342   2.959 -1.9818 -2.0086  2.0410
 2842TIP3   OH230084   4.626   3.597   1.013  0.2741 -0.7382 -0.1470
 2842TIP3    H130085   4.706   3.648   1.000  0.6952 -1.2282  0.4328
 2842TIP3    H230086   4.657   3.507   1.026 -0.4467 -1.1438 -1.0895
 2843TIP3   OH230087   6.107   4.997   7.962 -0.0598 -0.4304  0.2165
 2843TIP3    H130088   6.121   4.951   7.879 -1.1607  1.4062 -1.0606
 2843TIP3    H230089   6.024   4.962   7.995  0.7155 -1.6609  0.9475
 2844TIP3   OH230090   6.716   4.996   8.080  0.3041 -0.3903 -0.8254
 2844TIP3    H130091   6.631   4.954   8.087  0.2522 -0.4416 -1.6882
 2844TIP3    H230092   6.763   4.969   8.159 -0.2037 -0.9806 -0.7194
 2845TIP3   OH230093   3.139   1.662   7.522  0.1565  0.4616 -0.3426
 2845TIP3    H130094   3.051   1.663   7.558  1.0147  2.7252  1.9953
 2845TIP3    H230095   3.127   1.677   7.428 -1.9332  2.4463  0.1563
 2846TIP3   OH230096   6.423   1.020   3.177  0.4069 -0.2502 -0.2660
 2846TIP3    H130097   6.375   0.938   3.163  3.6852 -2.7196  1.7278
 2846TIP3    H230098   6.495   0.997   3.236  1.8756  3.9884 -0.0565
 2847TIP3   OH230099   6.462   1.971   7.428 -0.1051 -0.0809  0.3585
 2847TIP3    H130100   6.539   1.930   7.389  0.9616  0.5364  1.6991
 2847TIP3    H230101   6.435   2.037   7.365  0.1441 -0.6468 -0.3575
 2848TIP3   OH230102   1.308   5.439   6.808  0.8328 -0.6156  0.3751
 2848TIP3    H130103   1.251   5.366   6.832  1.8750 -1.2159  1.0751
 2848TIP3    H230104   1.389   5.398   6.778  1.2815  0.2448  0.3797
 2849TIP3   OH230105   1.481   3.322   0.623  0.2081  0.3041  0.2749
 2849TIP3    H130106   1.418   3.375   0.575  0.5364  2.2743  1.8890
 2849TIP3    H230107   1.428   3.257   0.669 -0.4730  0.7635  0.1419
 2850TIP3   OH230108   6.281   0.737   1.685 -0.4646  0.0576 -0.0312
 2850TIP3    H130109   6.237   0.775   1.762  1.2914 -0.1626  1.1407
 2850TIP3    H230110   6.370   0.721   1.714 -0.1417 -1.4451 -1.6884
 2851TIP3   OH230111   6.592   3.114   1.695 -0.3201 -0.2800  0.0903
 2851TIP3    H130112   6.566   3.023   1.680  0.1241 -0.3046 -0.5664
 2851TIP3    H230113   6.687   3.111   1.697 -0.1974  0.4924 -2.2008
 2852TIP3   OH230114   3.950   3.667   1.642 -0.2998 -0.0290  0.0627
 2852TIP3    H130115   3.867   3.664   1.594 -0.2882  0.7458 -0.0193
 2852TIP3    H230116   3.926   3.639   1.731 -0.5148 -0.4776 -0.1333
 2853TIP3   OH230117   6.509   6.181   7.991 -0.2071  0.2153  0.1361
 2853TIP3    H130118   6.425   6.216   7.964  0.1261 -0.2661 -1.7153
 2853TIP3    H230119   6.499   6.086   7.984  0.3701  0.1395  0.2451
 2854TIP3   OH230120   0.347   3.022   2.275 -0.9313  0.5199 -0.0248
 2854TIP3    H130121   0.384   2.957   2.335 -1.2152 -0.0004 -0.4024
 2854TIP3    H230122   0.253   3.005   2.277 -0.8511 -0.3581 -1.5541
 2855TIP3   OH230123   2.664   1.925   2.457  0.0001 -0.1828  0.1409
 2855TIP3    H130124   2.720   1.877   2.518  0.2828  0.5126  0.4294
 2855TIP3    H230125   2.578   1.927   2.499  0.1345  0.0841  0.3992
 2856TIP3   OH230126   2.528   3.822   7.901 -0.4097 -0.7694 -0.0598
 2856TIP3    H130127   2.523   3.883   7.975  1.3953  0.6706 -1.0338
 2856TIP3    H230128   2.456   3.847   7.844  0.0649  0.2285 -0.2478
 2857TIP3   OH230129   1.280   4.253   8.537 -0.2309 -0.0352  0.1939
 2857TIP3    H130130   1.265   4.220   8.448  2.8181 -0.5572 -0.2458
 2857TIP3    H230131   1.273   4.348   8.529 -1.0907 -0.1322 -0.3427
 2858TIP3   OH230132   0.623   3.679   7.560 -0.0726 -0.0954 -0.0385
 2858TIP3    H130133   0.635   3.710   7.470  1.2572  0.4377  0.2979
 2858TIP3    H230134   0.561   3.606   7.552  0.7966 -0.7359 -1.5317
 2859TIP3   OH230135   0.374   2.319   1.089 -0.1766 -0.3196 -0.4864
 2859TIP3    H130136   0.437   2.272   1.143 -1.5233 -1.5007  0.1266
 2859TIP3    H230137   0.339   2.253   1.029 -2.0944 -0.1764  0.3812
 2860TIP3   OH230138   2.920   5.084   7.668  0.2968  0.7223 -0.1290
 2860TIP3    H130139   2.832   5.114   7.647 -0.2216  0.7711  1.8430
 2860TIP3    H230140   2.974   5.163   7.666 -0.4917  1.4010  2.2441
 2861TIP3   OH230141   4.497   1.531   2.156  0.1719  0.2179  0.0840
 2861TIP3    H130142   4.459   1.550   2.242 -0.3566 -1.4271  0.2416
 2861TIP3    H230143   4.430   1.557   2.093  0.2225  0.6301  0.1976
 2862TIP3   OH230144   1.899   2.592   7.626 -0.1717 -0.1705 -0.4661
 2862TIP3    H130145   1.938   2.506   7.612  1.3835  0.6418 -1.3583
 2862TIP3    H230146   1.830   2.599   7.560 -0.5716 -0.8545 -0.1357
 2863TIP3   OH230147   3.859   3.503   2.156  0.2537  0.3432  0.0514
 2863TIP3    H130148   3.926   3.474   2.218  0.5304 -1.1545 -0.8946
 2863TIP3    H230149   3.795   3.433   2.156 -0.4167  0.9446 -0.3787
 2864TIP3   OH230150   0.795   0.231   2.807  0.0567  0.3291 -0.1544
 2864TIP3    H130151   0.778   0.150   2.759  2.2794 -0.2424 -0.1179
 2864TIP3    H230152   0.744   0.222   2.888 -3.0366  0.9123 -1.8875
 2865TIP3   OH230153   3.604   0.304   1.522 -0.1046 -0.3893  0.2418
 2865TIP3    H130154   3.644   0.389   1.537 -1.8801  0.3978  0.7734
 2865TIP3    H230155   3.612   0.258   1.605  1.3649 -1.0148 -0.2048
 2866TIP3   OH230156   3.730   4.425   8.271  0.5325  0.0191  1.0003
 2866TIP3    H130157   3.744   4.501   8.214  0.9691 -1.4529 -0.9857
 2866TIP3    H230158   3.638   4.433   8.299  0.3132  0.8228  0.1165
 2867TIP3   OH230159   3.928   6.355   2.023  0.3704 -0.2204  0.1868
 2867TIP3    H130160   3.990   6.292   2.060 -0.7300 -0.8916  0.9625
 2867TIP3    H230161   3.920   6.423   2.090  1.7442  0.9250 -0.7525
 2868TIP3   OH230162   1.943   5.017   2.420  0.4250  0.3734  0.9602
 2868TIP3    H130163   1.916   4.953   2.485 -0.1337 -1.3487 -0.8630
 2868TIP3    H230164   2.032   4.992   2.397  0.1856  0.1731  0.2005
 2869TIP3   OH230165   0.736   2.815   0.106  0.4058  0.1321  0.3111
 2869TIP3    H130166   0.753   2.752   0.035 -0.1140 -0.9543  1.1271
 2869TIP3    H230167   0.816   2.814   0.158  0.5479  0.4576  0.1036
 2870TIP3   OH230168   0.328   6.095   0.001  0.0558  0.6146 -0.3529
 2870TIP3    H130169   0.400   6.074  -0.057  0.0471 -0.9336  0.1477
 2870TIP3    H230170   0.369   6.133   0.079  0.4079 -0.6938  0.1266
 2871TIP3   OH230171   4.636   3.348   6.522 -0.0017  0.1260  0.4522
 2871TIP3    H130172   4.543   3.329   6.511 -0.6131 -0.1442  4.5250
 2871TIP3    H230173   4.672   3.269   6.561  1.4040  1.0699  1.1467
 2872TIP3   OH230174   3.470   4.514   8.339  0.0429  0.1924 -0.5602
 2872TIP3    H130175   3.404   4.563   8.389 -0.3582  0.4276 -1.3036
 2872TIP3    H230176   3.418   4.452   8.287  0.3790  0.6473 -1.4445
 2873TIP3   OH230177   0.986   4.707   7.497 -0.2468  0.1810  0.3872
 2873TIP3    H130178   0.992   4.642   7.427  2.0114 -0.8292  1.4084
 2873TIP3    H230179   0.972   4.655   7.576 -0.4504  1.1208  0.9814
 2874TIP3   OH230180   4.698   6.710   8.604  0.0114 -0.2859 -0.5069
 2874TIP3    H130181   4.699   6.791   8.552  1.3187  0.1543  0.1606
 2874TIP3    H230182   4.631   6.727   8.671 -1.1409 -0.5630 -1.5516
 2875TIP3   OH230183   2.952   1.179   8.005 -0.2450 -0.0177 -0.1217
 2875TIP3    H130184   2.987   1.221   7.927 -3.5504  3.3303 -0.0834
 2875TIP3    H230185   2.976   1.237   8.077 -0.6146 -0.9228  0.7655
 2876TIP3   OH230186   5.577   5.541   0.004  0.2093  0.1116 -0.5633
 2876TIP3    H130187   5.557   5.483   0.078 -1.2435  0.4152 -0.6866
 2876TIP3    H230188   5.601   5.482  -0.067  3.6496 -0.1333  0.6338
 2877TIP3   OH230189   0.516   6.060   1.383 -0.2809  0.3676 -0.1873
 2877TIP3    H130190   0.443   6.078   1.441 -0.0311  0.5783  0.0615
 2877TIP3    H230191   0.533   6.143   1.338 -0.4451  0.2179 -0.5318
 2878TIP3   OH230192   5.635   3.129   0.054  0.2943 -0.1277  0.3301
 2878TIP3    H130193   5.614   3.113  -0.038  1.7794  2.7457 -0.6419
 2878TIP3    H230194   5.589   3.210   0.075  0.2545 -0.5650  2.0357
 2879TIP3   OH230195   2.238   1.219   7.859  0.0578  0.5777 -0.3458
 2879TIP3    H130196   2.176   1.192   7.791  0.1195 -0.1312 -0.1280
 2879TIP3    H230197   2.218   1.161   7.934  0.9838  0.3346 -0.2805
 2880TIP3   OH230198   0.658   1.849   8.148 -0.4823 -0.0358 -0.8954
 2880TIP3    H130199   0.610   1.932   8.145 -0.0334  0.2742  0.1250
 2880TIP3    H230200   0.596   1.787   8.185 -0.9926 -0.3004 -2.1363
 2881TIP3   OH230201   3.703   3.578   7.093 -0.2661  0.5137  0.2703
 2881TIP3    H130202   3.753   3.501   7.120 -1.1152 -0.1657 -0.0413
 2881TIP3    H230203   3.706   3.637   7.168  0.6645  0.3284  0.3963
 2882TIP3   OH230204   1.851   5.343   7.603  0.2984  0.4954  0.3171
 2882TIP3    H130205   1.911   5.320   7.674  2.1544 -0.7012 -1.5296
 2882TIP3    H230206   1.810   5.260   7.578 -0.4391  0.9271  0.0558
 2883TIP3   OH230207   4.824   6.120   0.947 -0.2321  0.2713 -0.0161
 2883TIP3    H130208   4.747   6.111   0.891  0.5936 -1.5552 -0.9421
 2883TIP3    H230209   4.862   6.032   0.949  2.0451  1.2044  0.1121
 2884TIP3   OH230210   3.567   3.820   8.167 -0.0126 -0.7202 -0.0712
 2884TIP3    H130211   3.650   3.779   8.193  0.1477 -1.1534 -1.2378
 2884TIP3    H230212   3.536   3.862   8.247  1.7332  0.1423  0.2059
 2885TIP3   OH230213   5.416   2.313   8.297  0.6864  0.9862  0.0344
 2885TIP3    H130214   5.359   2.390   8.299 -1.3935 -0.4913  0.6593
 2885TIP3    H230215   5.388   2.264   8.219  0.5978 -0.0896  0.7201
 2886TIP3   OH230216   1.338   1.976   0.968  0.5087 -0.0602  0.2099
 2886TIP3    H130217   1.273   2.046   0.963  2.6656  2.1228  0.9908
 2886TIP3    H230218   1.348   1.946   0.878  0.1905  1.2749 -0.2957
 2887TIP3   OH230219   5.128   6.362   7.801  0.2433 -0.3464 -0.7465
 2887TIP3    H130220   5.097   6.308   7.728 -2.7504  1.2295 -0.8070
 2887TIP3    H230221   5.179   6.431   7.759 -0.2109 -0.2841 -1.2041
 2888TIP3   OH230222   4.211   5.775   7.793  0.0718  0.5976  0.2194
 2888TIP3    H130223   4.219   5.777   7.888  1.1043  2.1856  0.1277
 2888TIP3    H230224   4.249   5.690   7.768  0.1111  0.3231  1.1818
 2889TIP3   OH230225   3.981   1.490   0.542  0.1390 -0.2030  0.3827
 2889TIP3    H130226   3.936   1.438   0.608 -0.6277 -0.6984 -0.4961
 2889TIP3    H230227   3.995   1.428   0.470  0.8410  0.3563  0.0339
 2890TIP3   OH230228   4.385   1.833   2.110 -0.5889  0.1720 -0.0202
 2890TIP3    H130229   4.322   1.770   2.075 -0.9955  1.6859 -2.2707
 2890TIP3    H230230   4.368   1.836   2.204 -0.9570 -2.5723  0.0568
 2891TIP3   OH230231   0.280   4.670   2.125  0.4901 -0.2555  0.1573
 2891TIP3    H130232   0.200   4.626   2.152  0.3156 -0.2209 -0.3011
 2891TIP3    H230233   0.345   4.642   2.190  0.0700 -0.1258  0.6484
 2892TIP3   OH230234   0.071   3.054   2.277 -0.3306  0.4701 -0.3579
 2892TIP3    H130235   0.013   3.091   2.344 -0.4677  3.3764 -1.8968
 2892TIP3    H230236   0.030   2.971   2.253 -2.6173  1.3438  0.2219
 2893TIP3   OH230237   5.853   4.834   1.242  0.1760  0.1497  0.2640
 2893TIP3    H130238   5.789   4.902   1.262 -1.0169 -1.0030  0.4289
 2893TIP3    H230239   5.879   4.800   1.328  1.8777  1.3280  0.2853
 2894TIP3   OH230240   0.579   4.985   0.011 -0.3457 -0.8636 -0.1272
 2894TIP3    H130241   0.597   5.066   0.059  0.2422 -1.0112 -0.1000
 2894TIP3    H230242   0.483   4.976   0.016 -0.3698 -0.4329  0.2908
 2895TIP3   OH230243   4.015   4.697   7.810  0.4821 -0.2805  0.1360
 2895TIP3    H130244   4.097   4.677   7.765  1.2782  1.6252  0.6514
 2895TIP3    H230245   3.965   4.616   7.805  1.8756 -1.1141 -1.2922
 2896TIP3   OH230246   2.472   3.893   1.880  0.0896 -0.0729  0.3100
 2896TIP3    H130247   2.388   3.928   1.909  0.1828 -0.0851  0.5945
 2896TIP3    H230248   2.512   3.965   1.830  0.0227  0.0231  0.3938
 2897TIP3   OH230249   2.345   1.065   2.268 -0.3302 -0.5251 -0.4068
 2897TIP3    H130250   2.320   0.991   2.213  0.5104 -0.3080 -1.0934
 2897TIP3    H230251   2.263   1.112   2.283 -0.7225 -1.0970 -0.7023
 2898TIP3   OH230252   3.111   6.405   0.554 -0.4910 -0.0604  0.5378
 2898TIP3    H130253   3.122   6.338   0.487  0.5536 -0.7377  1.3487
 2898TIP3    H230254   3.064   6.362   0.625 -0.2378  0.1996  0.8685
 2899TIP3   OH230255   3.392   6.030   2.062 -0.6194 -0.1502  0.7502
 2899TIP3    H130256   3.467   5.991   2.106 -1.4934 -1.2549  1.3027
 2899TIP3    H230257   3.399   6.124   2.081 -0.3381 -0.4607  2.2898
 2900TIP3   OH230258   6.112   1.968   8.313  0.1739 -0.5787  0.1384
 2900TIP3    H130259   6.028   1.971   8.266 -1.4076  0.6217  2.8362
 2900TIP3    H230260   6.178   1.961   8.243 -1.7192  4.1642 -2.6181
 2901TIP3   OH230261   5.107   6.346   7.242 -0.4568  0.3661  0.0896
 2901TIP3    H130262   5.110   6.426   7.190  1.3459  0.5509  0.3999
 2901TIP3    H230263   5.125   6.276   7.179  1.1508  0.5379  0.3057
 2902TIP3   OH230264   2.329   3.495   0.410 -0.4516  0.2653 -0.0811
 2902TIP3    H130265   2.391   3.539   0.351 -0.4175  0.6684  0.2508
 2902TIP3    H230266   2.253   3.553   0.414 -0.8124 -0.1738 -0.3969
 2903TIP3   OH230267   6.533   6.191   8.270  0.3474 -0.2571 -0.2590
 2903TIP3    H130268   6.562   6.276   8.304 -2.4752  1.0900 -0.9348
 2903TIP3    H230269   6.523   6.205   8.176 -0.4459 -1.2565 -0.3400
 2904TIP3   OH230270   0.880   4.329   6.730  0.5295 -0.3348 -0.2078
 2904TIP3    H130271   0.799   4.311   6.683 -0.5504 -0.1805  1.4922
 2904TIP3    H230272   0.927   4.246   6.730  0.0749 -0.6019 -0.6561
 2905TIP3   OH230273   2.886   1.792   2.628  0.0124 -0.6124  0.0419
 2905TIP3    H130274   2.928   1.804   2.542 -0.6746 -1.2326 -0.3884
 2905TIP3    H230275   2.946   1.734   2.675  0.3599 -0.3236 -0.0333
 2906TIP3   OH230276   1.444   1.890   1.222 -0.2101 -0.4154  0.0159
 2906TIP3    H130277   1.535   1.906   1.200 -0.7808  1.5616 -1.1189
 2906TIP3    H230278   1.395   1.910   1.142 -1.5963 -2.6143  0.1945
 2907TIP3   OH230279   1.471   6.501   1.963 -0.0516 -1.1387  0.4163
 2907TIP3    H130280   1.430   6.585   1.984 -1.3038 -1.2153 -1.4648
 2907TIP3    H230281   1.554   6.524   1.921  0.5327 -0.9237  1.6349
 2908TIP3   OH230282   1.932   5.606   6.567 -0.2949 -0.3340  0.4747
 2908TIP3    H130283   1.849   5.635   6.605 -0.5317  0.8825 -0.8671
 2908TIP3    H230284   1.989   5.682   6.573 -0.0443 -0.4140 -0.7281
 2909TIP3   OH230285   0.897   4.485   1.941  0.2125  0.6310 -0.1879
 2909TIP3    H130286   0.973   4.534   1.972  0.1515 -0.1175  1.2424
 2909TIP3    H230287   0.930   4.433   1.867  0.8559  1.0069 -0.1692
 2910TIP3   OH230288   1.698   4.475   0.553  0.2364  0.0322 -0.0322
 2910TIP3    H130289   1.718   4.561   0.517  1.7994 -0.0889  0.4902
 2910TIP3    H230290   1.720   4.481   0.646  1.5423 -1.2544 -0.2153
 2911TIP3   OH230291   4.274   3.741   8.398  0.2769 -0.0799  0.2015
 2911TIP3    H130292   4.202   3.770   8.342 -0.6627 -1.5389  0.6251
 2911TIP3    H230293   4.350   3.740   8.340 -0.0582  1.2280 -0.3113
 2912TIP3   OH230294   0.695   1.924   7.542  0.0022 -0.2886  0.0563
 2912TIP3    H130295   0.708   1.930   7.447  0.9922 -0.3982  0.1668
 2912TIP3    H230296   0.686   1.830   7.559 -0.1506 -0.2709  0.0678
 2913TIP3   OH230297   1.325   6.167   7.926 -0.0869 -0.1458  0.3460
 2913TIP3    H130298   1.391   6.181   7.859 -2.0738  2.1362 -1.3012
 2913TIP3    H230299   1.320   6.250   7.973 -2.4593  0.1208 -0.2666
 2914TIP3   OH230300   2.515   6.774   3.144  0.6392  0.1168 -0.9682
 2914TIP3    H130301   2.430   6.800   3.179  1.9212  2.6741  0.5535
 2914TIP3    H230302   2.508   6.680   3.129 -2.3678  0.2316 -0.7448
 2915TIP3   OH230303   1.520   1.016   1.397 -0.5156  0.0843 -0.3200
 2915TIP3    H130304   1.466   0.998   1.474 -0.9288  2.5196  0.0232
 2915TIP3    H230305   1.467   1.074   1.342  0.0500 -1.0343 -2.1407
 2916TIP3   OH230306   3.533   5.400   0.643 -0.4325  0.4811  1.0299
 2916TIP3    H130307   3.472   5.334   0.610 -0.4809  0.1446  1.7824
 2916TIP3    H230308   3.558   5.369   0.730  1.3738  0.2466  0.4614
 2917TIP3   OH230309   3.555   5.183   1.246 -0.1703 -0.2947  0.3387
 2917TIP3    H130310   3.504   5.263   1.234 -1.4808 -1.0779  0.4032
 2917TIP3    H230311   3.557   5.143   1.159  0.5654 -0.1454  0.2839
 2918TIP3   OH230312   1.691   0.073   0.561 -0.7282 -0.3084  0.2163
 2918TIP3    H130313   1.655  -0.015   0.549  0.6822 -0.9322  0.3553
 2918TIP3    H230314   1.636   0.129   0.507 -2.1940 -1.1230  0.7982
 2919TIP3   OH230315   5.298   5.447   0.049 -0.3433 -0.4055 -0.1234
 2919TIP3    H130316   5.342   5.450  -0.036 -0.0118 -1.2043  0.0163
 2919TIP3    H230317   5.364   5.481   0.110 -0.1731 -0.9193 -0.0198
 2920TIP3   OH230318   5.561   3.786   8.467 -0.0855 -0.0873  0.3068
 2920TIP3    H130319   5.500   3.859   8.479 -0.1465  0.0030 -0.4904
 2920TIP3    H230320   5.534   3.744   8.386 -0.2926 -1.2619  0.9663
 2921TIP3   OH230321   0.505   5.768   1.320  0.0298 -0.3077 -0.2546
 2921TIP3    H130322   0.456   5.844   1.290 -0.4052  0.4877  2.2161
 2921TIP3    H230323   0.596   5.794   1.314 -0.1564  1.1636  2.1826
 2922TIP3   OH230324   0.210   5.669   0.629  0.1443  0.2508 -0.1518
 2922TIP3    H130325   0.117   5.673   0.605  0.5552 -0.9202 -2.2018
 2922TIP3    H230326   0.252   5.736   0.575  0.6387  0.0319 -0.0418
 2923TIP3   OH230327   4.556   4.185   2.021 -0.6280  0.6358  0.2155
 2923TIP3    H130328   4.494   4.136   1.966 -1.0849  2.5276 -1.0378
 2923TIP3    H230329   4.517   4.183   2.108 -1.4919  0.2127 -0.1676
 2924TIP3   OH230330   5.796   5.023   8.413  0.3762  0.2506 -0.0177
 2924TIP3    H130331   5.851   5.102   8.412  0.1373  0.4806  1.5718
 2924TIP3    H230332   5.713   5.053   8.452  0.0229 -0.6270 -0.0830
 2925TIP3   OH230333   4.203   6.561   8.413 -0.0150 -0.8604  0.2002
 2925TIP3    H130334   4.225   6.469   8.427  1.3340 -0.8351 -1.4606
 2925TIP3    H230335   4.287   6.607   8.418 -0.4194  0.0255 -0.8200
 2926TIP3   OH230336   6.232   0.309   7.962 -0.0732  0.0208 -0.2619
 2926TIP3    H130337   6.300   0.243   7.966  0.1082  0.2490  0.6660
 2926TIP3    H230338   6.150   0.260   7.970  0.0675 -0.0940  0.6782
 2927TIP3   OH230339   5.286   2.906   1.600 -0.5347  0.0938 -0.0201
 2927TIP3    H130340   5.199   2.944   1.586 -0.5265  0.7841  1.5964
 2927TIP3    H230341   5.345   2.981   1.599 -0.2793 -0.0628  1.2768
 2928TIP3   OH230342   4.088   0.588   7.832 -0.2232 -0.5725  0.1334
 2928TIP3    H130343   4.143   0.535   7.890  1.0596 -0.6581 -1.0934
 2928TIP3    H230344   4.021   0.528   7.800 -0.4875 -0.7119  0.9294
 2929TIP3   OH230345   0.792   3.913   1.290  0.2465 -0.0453 -0.3868
 2929TIP3    H130346   0.765   3.822   1.304 -0.0648 -0.1398 -1.4522
 2929TIP3    H230347   0.844   3.935   1.367 -0.6728 -0.7323  0.4577
 2930TIP3   OH230348   2.354   0.222   0.999 -0.4861 -0.2402  0.7807
 2930TIP3    H130349   2.407   0.142   0.987 -0.3858  0.0223 -0.6558
 2930TIP3    H230350   2.365   0.270   0.918 -0.5044  1.2910  1.6529
 2931TIP3   OH230351   0.296   5.240   1.638 -0.2830  0.4661  0.5717
 2931TIP3    H130352   0.377   5.251   1.687  0.2577  3.1654 -0.7288
 2931TIP3    H230353   0.229   5.281   1.692 -0.8574 -1.6726  1.5984
 2932TIP3   OH230354   2.021   3.433   8.207  0.0624  0.6877  0.1397
 2932TIP3    H130355   2.053   3.523   8.200  0.3441  0.6723  1.0813
 2932TIP3    H230356   1.937   3.441   8.252 -0.0108  0.4970  0.0391
 2933TIP3   OH230357   3.474   2.277   8.509  0.0445  0.0678 -0.2104
 2933TIP3    H130358   3.528   2.353   8.489 -0.7102  0.1385 -2.1092
 2933TIP3    H230359   3.477   2.222   8.431 -2.3182 -0.0999 -0.2753
 2934TIP3   OH230360   3.090   2.672   0.284  0.3636 -0.6508 -0.2063
 2934TIP3    H130361   3.076   2.671   0.190 -0.5576  1.1478 -0.1409
 2934TIP3    H230362   3.079   2.764   0.309  0.0674 -1.1601  1.7179
 2935TIP3   OH230363   4.499   3.058   0.143 -0.3701 -0.0004 -0.1023
 2935TIP3    H130364   4.527   3.107   0.220  1.5460 -0.6961 -0.2967
 2935TIP3    H230365   4.439   2.991   0.177 -1.0777  0.9234  0.4909
 2936TIP3   OH230366   5.712   4.387   8.348  0.2666 -0.1139  0.4203
 2936TIP3    H130367   5.726   4.456   8.413 -2.0674  0.1937  0.6701
 2936TIP3    H230368   5.748   4.423   8.267  0.8263  0.5822  0.9577
 2937TIP3   OH230369   0.851   0.506   7.800  0.3279  0.1632 -0.1777
 2937TIP3    H130370   0.775   0.537   7.849 -0.2957  0.1634 -1.1027
 2937TIP3    H230371   0.918   0.573   7.814  0.5045 -0.3089  1.4215
 2938TIP3   OH230372   2.601   0.650   2.490 -0.5268 -0.2472 -0.0489
 2938TIP3    H130373   2.624   0.733   2.531  1.1830 -0.6749 -0.0831
 2938TIP3    H230374   2.576   0.594   2.564  0.6339 -0.4120  0.2385
 2939TIP3   OH230375   3.017   4.978   6.935 -0.1784  0.4639  0.0438
 2939TIP3    H130376   3.051   4.892   6.961  0.8508  0.5802 -0.8637
 2939TIP3    H230377   2.922   4.968   6.938 -0.1277 -1.3439 -1.9613
 2940TIP3   OH230378   5.783   3.902   1.607  0.0979 -0.1267  0.1215
 2940TIP3    H130379   5.787   3.861   1.693 -0.1071  0.0756  0.2298
 2940TIP3    H230380   5.744   3.988   1.623 -0.6664 -0.3883 -0.2760
 2941TIP3   OH230381   4.828   3.212   0.918 -0.5849 -1.0008  0.7426
 2941TIP3    H130382   4.856   3.264   0.993  1.0567  1.5463 -1.4882
 2941TIP3    H230383   4.747   3.254   0.889  0.5830  0.2000 -0.8874
 2942TIP3   OH230384   5.618   1.130   7.923  0.4536  0.3255 -0.1386
 2942TIP3    H130385   5.546   1.124   7.986 -0.6733 -2.9264 -1.5398
 2942TIP3    H230386   5.689   1.080   7.964  0.8308  0.8728 -0.1157
 2943TIP3   OH230387   0.148   5.890   0.064 -0.1806 -0.4246  0.0796
 2943TIP3    H130388   0.195   5.973   0.055 -0.2745 -0.4284 -0.4822
 2943TIP3    H230389   0.214   5.828   0.093 -0.4741  0.2385  2.4044
 2944TIP3   OH230390   0.081   2.490   8.383  0.4699 -0.2189  0.3818
 2944TIP3    H130391   0.129   2.413   8.413  0.1052  0.2234  2.1955
 2944TIP3    H230392  -0.003   2.456   8.352  0.7045 -0.6556  0.2291
 2945TIP3   OH230393   2.138   5.879   7.999  0.5173 -0.0415  0.2415
 2945TIP3    H130394   2.175   5.966   7.988 -0.8559  0.4844 -0.4938
 2945TIP3    H230395   2.207   5.819   7.971  0.9418  0.8754 -0.7112
 2946TIP3   OH230396   0.761   5.660   1.532  0.2384 -0.6349  0.1292
 2946TIP3    H130397   0.764   5.752   1.505 -1.2999  0.1319  2.3017
 2946TIP3    H230398   0.669   5.636   1.523  0.4938 -1.7148  0.3297
 2947TIP3   OH230399   4.615   0.389   8.094 -0.0969 -0.6488 -0.1441
 2947TIP3    H130400   4.548   0.446   8.057 -0.0459 -0.0137  0.7092
 2947TIP3    H230401   4.678   0.449   8.134  0.3368 -1.2742  0.1272
 2948TIP3   OH230402   4.056   0.967   1.037 -0.5818 -0.2366 -0.0301
 2948TIP3    H130403   3.982   0.998   0.986 -2.3655 -1.5240  1.6401
 2948TIP3    H230404   4.079   1.040   1.094 -1.1531 -0.1276  0.0597
 2949TIP3   OH230405   6.383   1.739   7.567  0.1077 -0.2980 -0.4355
 2949TIP3    H130406   6.371   1.682   7.491  0.6714  0.6488 -1.2602
 2949TIP3    H230407   6.410   1.823   7.530 -0.1305  0.3400  0.7869
 2950TIP3   OH230408   1.669   3.970   6.697 -0.2597 -0.2708 -0.5054
 2950TIP3    H130409   1.677   3.875   6.685 -0.5475 -0.2216 -1.1339
 2950TIP3    H230410   1.598   3.980   6.760  0.1836 -0.4846  0.0446
 2951TIP3   OH230411   1.855   1.046   8.576  0.1980 -0.2867  0.3258
 2951TIP3    H130412   1.907   1.067   8.498  0.9178 -1.0802  0.5711
 2951TIP3    H230413   1.766   1.031   8.543  0.5092 -0.6606 -0.3600
 2952TIP3   OH230414   5.480   3.367   1.736 -0.0175 -0.2191  0.0849
 2952TIP3    H130415   5.428   3.445   1.755 -2.4495 -1.6340 -0.2794
 2952TIP3    H230416   5.479   3.317   1.818  0.9626 -0.1649  0.1328
 2953TIP3   OH230417   1.800   5.647   0.100  0.6269  0.0043  0.1498
 2953TIP3    H130418   1.836   5.656   0.188 -0.7469 -0.3721  0.7759
 2953TIP3    H230419   1.856   5.582   0.058 -0.3261 -1.8919  1.6786
 2954TIP3   OH230420   5.911   6.054   2.172 -0.1878 -0.0398 -0.2240
 2954TIP3    H130421   5.962   5.979   2.140  0.7998  1.0345 -1.2589
 2954TIP3    H230422   5.889   6.031   2.262 -0.0392 -1.6326 -0.5644
 2955TIP3   OH230423   5.567   6.123   0.900 -0.1598  0.0644 -0.2022
 2955TIP3    H130424   5.583   6.146   0.808  2.3986 -1.2402 -0.1610
 2955TIP3    H230425   5.513   6.044   0.896  1.0509 -0.7719 -0.6686
 2956TIP3   OH230426   3.711   0.198   7.524 -0.9576 -0.0822  0.4528
 2956TIP3    H130427   3.728   0.111   7.560 -0.9247  0.1949  1.1174
 2956TIP3    H230428   3.664   0.181   7.442  1.1733 -0.8359 -0.7057
 2957TIP3   OH230429   0.377   0.351   3.040 -0.4531 -0.4599 -0.0203
 2957TIP3    H130430   0.376   0.431   2.989  2.0920  0.2775  0.9575
 2957TIP3    H230431   0.285   0.327   3.049 -1.1004  0.4418 -3.1922
 2958TIP3   OH230432   0.408   4.549   1.630 -0.0789  0.9968 -0.4400
 2958TIP3    H130433   0.366   4.562   1.715 -1.2223 -1.9530 -0.4461
 2958TIP3    H230434   0.358   4.605   1.570 -1.5795  0.4452  0.2436
 2959TIP3   OH230435   6.113   1.760   1.684  0.2279  0.2647  0.0235
 2959TIP3    H130436   6.103   1.751   1.589  0.9073 -1.9578  0.1053
 2959TIP3    H230437   6.200   1.798   1.696  0.4428 -0.1375 -0.2431
 2960TIP3   OH230438   2.218   1.739   1.072 -0.1081 -0.2813  0.5681
 2960TIP3    H130439   2.167   1.811   1.108 -0.4423 -0.8284  1.2016
 2960TIP3    H230440   2.219   1.673   1.141  2.1226  0.0163  0.9142
 2961TIP3   OH230441   5.334   5.241   1.236  0.2807 -0.1816  0.7805
 2961TIP3    H130442   5.403   5.255   1.301  1.4282 -0.7568 -0.2667
 2961TIP3    H230443   5.273   5.313   1.250  1.7982  1.1374  0.8523
 2962TIP3   OH230444   0.174   3.729   1.327 -0.3175 -0.1716 -0.0532
 2962TIP3    H130445   0.172   3.824   1.315  0.3659 -0.1164  0.1906
 2962TIP3    H230446   0.105   3.696   1.271 -2.4114  0.6808  1.8554
 2963TIP3   OH230447   1.207   1.956   0.354  0.3297 -0.0244  0.8649
 2963TIP3    H130448   1.201   1.871   0.397  1.1292 -1.5736 -1.8316
 2963TIP3    H230449   1.300   1.968   0.335  0.0868  0.8292  0.1011
 2964TIP3   OH230450   4.739   2.801   0.932  0.4899  0.0401  0.2465
 2964TIP3    H130451   4.712   2.711   0.951 -1.7928  0.2857 -1.4512
 2964TIP3    H230452   4.805   2.792   0.863  0.7004 -0.3355  0.4891
 2965TIP3   OH230453   6.029   3.104   8.434 -0.2995 -0.1254  0.6115
 2965TIP3    H130454   5.998   3.029   8.383  0.7720 -0.7106  0.7945
 2965TIP3    H230455   6.076   3.159   8.370 -0.0798 -0.2037  0.7037
 2966TIP3   OH230456   6.781   0.719   7.622  0.2720 -0.0886 -0.5020
 2966TIP3    H130457   6.756   0.806   7.590  0.6018 -0.2342 -1.1682
 2966TIP3    H230458   6.714   0.697   7.686 -0.2355  0.3420 -0.8776
 2967TIP3   OH230459   4.834   1.927   6.735 -0.6759 -0.4660 -0.2509
 2967TIP3    H130460   4.840   2.022   6.722 -2.1125 -0.4353 -0.8700
 2967TIP3    H230461   4.911   1.905   6.788 -0.8035  1.1791  0.6778
 2968TIP3   OH230462   6.870   3.668   1.131  0.7188 -0.1855  0.5560
 2968TIP3    H130463   6.835   3.583   1.103 -0.2157  0.6411 -0.9400
 2968TIP3    H230464   6.859   3.724   1.054  0.7143  1.4657  1.7170
 2969TIP3   OH230465   2.409   2.776   8.618  0.7263 -0.3912 -0.8036
 2969TIP3    H130466   2.454   2.817   8.692 -0.0984  1.0596 -1.0568
 2969TIP3    H230467   2.405   2.845   8.552 -1.3278 -0.6261 -1.0017
 2970TIP3   OH230468   0.750   5.755   7.862 -0.4662  0.0807 -0.2142
 2970TIP3    H130469   0.690   5.809   7.811 -0.5412  1.6144  1.4375
 2970TIP3    H230470   0.721   5.665   7.845 -0.2671  0.4428 -3.1217
 2971TIP3   OH230471   6.020   1.949   2.272 -0.3881  0.1312  0.0929
 2971TIP3    H130472   5.947   1.926   2.214 -0.6643  1.9579 -0.3397
 2971TIP3    H230473   6.098   1.919   2.225 -0.7443 -0.1445 -0.3336
 2972TIP3   OH230474   4.065   1.266   7.562 -0.4617 -0.4748 -0.0752
 2972TIP3    H130475   4.065   1.358   7.586 -0.3373 -0.3581 -0.5279
 2972TIP3    H230476   4.157   1.242   7.556 -0.4049  0.1709 -2.9891
 2973TIP3   OH230477   4.704   4.463   7.918  0.1256 -0.8432  0.2955
 2973TIP3    H130478   4.706   4.498   7.829 -2.1908  0.8889  0.8284
 2973TIP3    H230479   4.705   4.368   7.907  1.5343 -0.6646 -1.4618
 2974TIP3   OH230480   4.224   4.197   6.688 -0.6655 -0.1120  0.8946
 2974TIP3    H130481   4.168   4.260   6.732  0.5508  2.0232 -0.4382
 2974TIP3    H230482   4.183   4.184   6.603  0.2784  0.7044  0.2908
 2975TIP3   OH230483   1.883   0.965   0.234 -0.2190 -0.3440  0.0832
 2975TIP3    H130484   1.871   1.001   0.146 -3.0597  1.2188  0.9933
 2975TIP3    H230485   1.962   1.009   0.267  1.4590 -1.6658 -1.9183
 2976TIP3   OH230486   1.260   1.629   8.401  0.2597  0.6866  0.3735
 2976TIP3    H130487   1.281   1.596   8.489 -0.8658 -0.0846  0.3797
 2976TIP3    H230488   1.307   1.572   8.341 -1.1868 -0.5970  0.4069
 2977TIP3   OH230489   0.030   4.313   1.433  0.4497  0.2775 -0.5094
 2977TIP3    H130490   0.022   4.392   1.487  0.2959  0.4141 -0.7309
 2977TIP3    H230491   0.069   4.344   1.351  2.3090 -0.1839  0.1293
 2978TIP3   OH230492   3.704   6.503   1.113  0.0287 -0.2261  0.2304
 2978TIP3    H130493   3.724   6.493   1.020  0.3425  0.4665  0.2168
 2978TIP3    H230494   3.698   6.414   1.146  2.1382 -0.5032  0.0105
 2979TIP3   OH230495   0.610   2.930   2.325  0.4317  0.3087 -0.6377
 2979TIP3    H130496   0.565   2.855   2.286  0.0454  0.0775  0.2207
 2979TIP3    H230497   0.642   2.981   2.251 -0.7605  0.1810 -1.2521
 2980TIP3   OH230498   2.476   4.362   1.786 -0.2207  0.0724 -0.7313
 2980TIP3    H130499   2.515   4.420   1.721 -1.6914  1.1550 -0.7091
 2980TIP3    H230500   2.388   4.344   1.753 -1.1894  1.0480  1.1473
 2981TIP3   OH230501   4.530   4.224   0.773  0.0465  0.5622 -0.9106
 2981TIP3    H130502   4.517   4.167   0.849  2.5523  0.5375 -0.4225
 2981TIP3    H230503   4.487   4.306   0.798  0.8605  0.5744  0.6007
 2982TIP3   OH230504   5.631   3.230   1.138 -0.0720  0.4520  0.1541
 2982TIP3    H130505   5.619   3.166   1.067  2.2759 -0.3877  0.4387
 2982TIP3    H230506   5.622   3.315   1.094  0.0614 -0.0555 -0.9022
 2983TIP3   OH230507   4.083   5.260   0.150 -0.0551  0.0016 -0.5085
 2983TIP3    H130508   4.044   5.230   0.231 -0.4400 -0.6353 -0.9236
 2983TIP3    H230509   4.009   5.287   0.096  0.2669  1.7317 -0.1578
 2984TIP3   OH230510   6.235   0.410   0.337  0.3369  0.2587  0.2288
 2984TIP3    H130511   6.171   0.356   0.290  0.8353  0.1594 -0.3334
 2984TIP3    H230512   6.212   0.500   0.314 -1.2521  0.4211  2.0922
 2985TIP3   OH230513   5.350   3.751   7.353  0.0531  0.4703  0.0087
 2985TIP3    H130514   5.334   3.737   7.446  0.4337 -0.1349 -0.0156
 2985TIP3    H230515   5.414   3.685   7.329 -0.6908  0.0479 -0.8867
 2986TIP3   OH230516   4.027   4.572   2.503  0.1887 -0.1828 -0.2390
 2986TIP3    H130517   3.962   4.612   2.561  0.9827 -0.4088  0.8429
 2986TIP3    H230518   4.046   4.640   2.438 -1.1852 -0.1502 -0.6302
 2987TIP3   OH230519   2.562   0.632   1.317  0.0238  0.1590  0.0651
 2987TIP3    H130520   2.573   0.597   1.228 -1.2232  0.5242 -0.2583
 2987TIP3    H230521   2.568   0.556   1.374 -3.7390 -0.8980 -0.6961
 2988TIP3   OH230522   4.583   3.629   1.733 -0.0623  0.0546  0.3524
 2988TIP3    H130523   4.604   3.721   1.751 -0.8625  0.3205  0.0207
 2988TIP3    H230524   4.516   3.634   1.665 -1.5627 -0.6978  1.7110
 2989TIP3   OH230525   0.462   4.987   0.324 -0.0066 -0.5817  0.0109
 2989TIP3    H130526   0.406   5.035   0.385  0.2601  1.3129 -1.1539
 2989TIP3    H230527   0.524   5.052   0.292  1.4533 -2.1120 -0.4183
 2990TIP3   OH230528   1.254   5.823   8.112 -0.6776  0.0637  0.0081
 2990TIP3    H130529   1.318   5.829   8.183 -1.5073 -0.2170  0.8025
 2990TIP3    H230530   1.305   5.832   8.032  0.2524  0.6278  0.6491
 2991TIP3   OH230531   0.967   5.884   7.175  0.1863  0.7887 -0.2643
 2991TIP3    H130532   0.988   5.793   7.199  0.8968  0.9159 -0.3924
 2991TIP3    H230533   1.041   5.935   7.207 -0.5045  1.4136  0.3653
 2992TIP3   OH230534   6.211   5.304   1.084 -0.3171  0.0665  0.4357
 2992TIP3    H130535   6.230   5.239   1.015  1.4093  2.0563 -1.0808
 2992TIP3    H230536   6.147   5.362   1.044  0.6187  1.1791  0.5147
 2993TIP3   OH230537   6.862   4.362   7.830  0.0788  0.2220  0.3426
 2993TIP3    H130538   6.868   4.367   7.926  2.5075 -1.7637  0.3952
 2993TIP3    H230539   6.952   4.354   7.801 -0.6660 -0.0422 -2.0707
 2994TIP3   OH230540   0.698   0.928   7.279 -0.4110 -0.0451 -0.7734
 2994TIP3    H130541   0.688   0.880   7.361 -2.0775  2.0595  0.3341
 2994TIP3    H230542   0.782   0.972   7.287  1.7311 -3.4770 -2.3010
 2995TIP3   OH230543   2.032   5.892   0.175 -0.5164  0.0339  0.1333
 2995TIP3    H130544   1.986   5.975   0.191 -1.6773 -0.5582 -0.0462
 2995TIP3    H230545   1.980   5.827   0.222 -0.1633 -0.7297 -0.5168
 2996TIP3   OH230546   2.003   2.820   7.755 -0.4650 -0.6295  0.5262
 2996TIP3    H130547   1.953   2.739   7.743 -0.1654 -0.8790  0.9438
 2996TIP3    H230548   1.936   2.887   7.770 -0.8852 -0.2931 -2.2636
 2997TIP3   OH230549   4.052   6.811   8.446 -0.0747 -0.2485 -0.0577
 2997TIP3    H130550   4.023   6.774   8.362  1.9781 -0.6103 -0.6695
 2997TIP3    H230551   4.102   6.740   8.487  0.3583  0.4814  0.7034
 2998TIP3   OH230552   6.557   5.498   0.582 -0.3911 -0.5307  0.1224
 2998TIP3    H130553   6.645   5.460   0.578 -0.1559 -0.3017  2.1821
 2998TIP3    H230554   6.529   5.485   0.672 -3.5352 -2.8332 -0.9998
 2999TIP3   OH230555   2.993   2.190   1.385  0.3383 -0.0048  0.0460
 2999TIP3    H130556   3.009   2.282   1.405  0.8176 -0.0017 -0.3423
 2999TIP3    H230557   2.906   2.189   1.345 -0.1445  0.1304  1.0756
 3000TIP3   OH230558   2.711   0.370   1.720 -0.0467 -0.0684  0.5433
 3000TIP3    H130559   2.747   0.285   1.745 -0.0050  0.3344  1.9023
 3000TIP3    H230560   2.783   0.415   1.676  0.4670 -0.0953  1.3409
 3001TIP3   OH230561   1.602   5.133   0.562 -0.1048 -0.2196 -0.5100
 3001TIP3    H130562   1.545   5.122   0.485  0.4494  0.6416 -1.0584
 3001TIP3    H230563   1.541   5.133   0.636 -1.0170  1.9684 -1.1654
 3002TIP3   OH230564   5.772   6.647   1.009  0.6163  0.2958  0.3709
 3002TIP3    H130565   5.820   6.565   1.001  0.0845 -0.2767  2.3772
 3002TIP3    H230566   5.725   6.656   0.926  1.8245 -0.6473 -0.4510
 3003TIP3   OH230567   0.688   2.898   7.839 -0.9259 -0.0328  0.3582
 3003TIP3    H130568   0.593   2.899   7.829 -0.9197 -0.3892  0.2608
 3003TIP3    H230569   0.713   2.991   7.839 -1.5138  0.1975  2.7610
 3004TIP3   OH230570   2.055   4.540   0.481 -0.2668 -0.3879  0.4380
 3004TIP3    H130571   2.056   4.634   0.460  0.6716 -0.5981 -0.5625
 3004TIP3    H230572   2.002   4.501   0.411 -2.6743 -0.3822  2.1238
 3005TIP3   OH230573   2.018   2.337   7.571 -0.3994 -0.0183 -0.0953
 3005TIP3    H130574   1.931   2.315   7.603  0.8273 -0.9044  3.0880
 3005TIP3    H230575   2.032   2.281   7.495 -2.3782 -0.2055 -0.3692
 3006TIP3   OH230576   0.158   4.990   8.029 -0.2526  0.0276 -0.2439
 3006TIP3    H130577   0.149   4.898   8.003 -1.5343  0.0180  0.1516
 3006TIP3    H230578   0.106   5.038   7.964  0.3641  0.4645 -0.4116
 3007TIP3   OH230579   6.847   1.780   8.262  0.3304 -0.2072 -0.0787
 3007TIP3    H130580   6.831   1.687   8.251  0.5501 -0.3336  0.6019
 3007TIP3    H230581   6.940   1.786   8.286  0.3992  0.2103 -0.4325
 3008TIP3   OH230582   3.078   2.524   8.114 -0.7544 -0.1160 -0.1354
 3008TIP3    H130583   3.035   2.528   8.199  1.6651 -0.2690  1.1827
 3008TIP3    H230584   3.170   2.509   8.134 -0.0840 -0.1071 -2.7972
 3009TIP3   OH230585   4.405   0.508   7.962 -0.0168  0.2110 -0.0743
 3009TIP3    H130586   4.405   0.592   8.008  0.1356 -0.1823  0.6599
 3009TIP3    H230587   4.327   0.463   7.994  0.4072 -0.3058  0.2490
 3010TIP3   OH230588   5.788   1.561   0.952  0.0279  0.0330  0.3746
 3010TIP3    H130589   5.776   1.477   0.996  0.6304 -1.0479 -1.4102
 3010TIP3    H230590   5.790   1.539   0.859  0.5391  1.9967 -0.1272
 3011TIP3   OH230591   3.634   6.122   8.124  0.3666 -0.0673 -0.2035
 3011TIP3    H130592   3.722   6.105   8.156  1.4062 -0.1731 -2.8235
 3011TIP3    H230593   3.632   6.216   8.106  0.0621 -0.1221 -0.4759
 3012TIP3   OH230594   6.332   3.041   1.658 -0.5539 -0.3536 -0.0578
 3012TIP3    H130595   6.357   3.020   1.568 -1.4719 -0.7398 -0.2367
 3012TIP3    H230596   6.248   2.997   1.670 -1.8418  1.9650  0.0562
 3013TIP3   OH230597   1.900   0.873   0.495  0.5261  0.1159  0.0107
 3013TIP3    H130598   1.995   0.868   0.508  0.5532 -0.2411 -0.3009
 3013TIP3    H230599   1.890   0.925   0.416  0.3378  2.8638  1.7250
 3014TIP3   OH230600   1.098   4.034   0.290 -0.1993 -0.4529  0.5429
 3014TIP3    H130601   1.090   3.974   0.216  0.3757 -0.4173  0.4452
 3014TIP3    H230602   1.111   3.978   0.366 -0.8443 -0.4912  0.6289
 3015TIP3   OH230603   0.030   1.845   7.988  0.5148  0.0490 -0.0021
 3015TIP3    H130604   0.031   1.754   8.017 -1.8825  0.1852  0.6922
 3015TIP3    H230605   0.078   1.892   8.056  1.5065 -0.6239 -0.2142
 3016TIP3   OH230606   2.275   3.907   7.975  0.8155 -0.5415 -0.7495
 3016TIP3    H130607   2.229   3.985   8.004 -1.4095 -1.1275 -2.3752
 3016TIP3    H230608   2.362   3.914   8.013 -0.1300  1.4146  1.2643
 3017TIP3   OH230609   3.420   3.619   7.072 -0.4246  0.2541 -0.1557
 3017TIP3    H130610   3.512   3.622   7.045 -0.2140 -1.2882  0.3412
 3017TIP3    H230611   3.400   3.526   7.081 -1.8178  0.5917  0.4932
 3018TIP3   OH230612   1.706   2.736   1.246 -0.7173  0.3703  0.3461
 3018TIP3    H130613   1.736   2.827   1.250 -0.1670  0.3062 -1.4866
 3018TIP3    H230614   1.740   2.696   1.326  1.5880  1.0669 -0.1978
 3019TIP3   OH230615   0.759   1.932   0.683 -0.6250 -0.5740 -0.1365
 3019TIP3    H130616   0.779   1.898   0.596 -1.8198  0.3355 -0.8002
 3019TIP3    H230617   0.807   2.014   0.689 -0.9013 -0.4126 -0.1192
 3020TIP3   OH230618   6.208   5.308   1.698  0.4468 -0.3772 -0.6744
 3020TIP3    H130619   6.285   5.269   1.738  0.1613 -1.2474 -0.9537
 3020TIP3    H230620   6.138   5.245   1.714  0.4017 -0.9949 -2.9028
 3021TIP3   OH230621   0.496   4.511   1.170  0.4431  0.2849 -0.3753
 3021TIP3    H130622   0.420   4.567   1.153 -0.2214 -0.3833  0.2822
 3021TIP3    H230623   0.482   4.434   1.116  1.7294  1.0348 -1.8386
 3022TIP3   OH230624   5.558   0.728   7.998  0.6672 -0.0291  0.1847
 3022TIP3    H130625   5.580   0.645   8.041 -2.8869 -0.6534  1.1331
 3022TIP3    H230626   5.630   0.787   8.020  1.6930 -1.9285  2.3009
 3023TIP3   OH230627   2.131   0.429   7.751 -0.0560 -0.2891  0.2397
 3023TIP3    H130628   2.116   0.343   7.790 -0.8420 -1.3548 -2.2276
 3023TIP3    H230629   2.213   0.420   7.703  0.2223  0.5565  0.5433
 3024TIP3   OH230630   4.988   4.951   7.547  0.6036 -0.0169 -0.2289
 3024TIP3    H130631   4.962   5.024   7.604  1.4585  1.7722 -1.9982
 3024TIP3    H230632   4.906   4.911   7.520 -0.0989  2.0658 -1.3875
 3025TIP3   OH230633   1.085   2.868   2.584  0.1388 -0.1371 -0.1289
 3025TIP3    H130634   1.169   2.832   2.557  0.4988 -0.0128  0.8101
 3025TIP3    H230635   1.022   2.798   2.565  0.8832 -1.4925  2.0708
 3026TIP3   OH230636   5.667   2.204   8.407 -0.0849  0.6956  0.0632
 3026TIP3    H130637   5.593   2.242   8.360  0.0127  0.5508 -0.2131
 3026TIP3    H230638   5.640   2.204   8.499  0.0674  1.7919  0.1180
 3027TIP3   OH230639   0.492   5.933   7.908 -0.2986  0.2360  0.1086
 3027TIP3    H130640   0.424   5.970   7.963 -1.7520  0.8970 -2.0027
 3027TIP3    H230641   0.450   5.859   7.864  0.9433 -0.5520  0.1881
 3028TIP3   OH230642   1.339   2.716   1.620  0.3199 -0.3682 -0.5340
 3028TIP3    H130643   1.324   2.744   1.530 -1.4983  1.3708  0.2489
 3028TIP3    H230644   1.260   2.666   1.643 -1.0214  2.3118  1.1843
 3029TIP3   OH230645   2.544   0.231   0.668 -0.2977 -0.2021  0.5224
 3029TIP3    H130646   2.520   0.198   0.582  0.5447 -1.4983  0.7489
 3029TIP3    H230647   2.635   0.205   0.679 -0.1761  0.5893  1.5070
 3030TIP3   OH230648   4.244   2.836   1.677 -0.1400  0.0388 -0.3468
 3030TIP3    H130649   4.161   2.813   1.717  0.7569 -0.7274  1.1799
 3030TIP3    H230650   4.244   2.932   1.674 -0.1346  0.1688  1.8808
 3031TIP3   OH230651   6.307   1.504   8.186 -0.3887  0.1057  0.1628
 3031TIP3    H130652   6.254   1.575   8.149 -1.2640 -0.9167 -0.6050
 3031TIP3    H230653   6.257   1.475   8.263  0.1878  0.5874  0.7335
 3032TIP3   OH230654   3.521   1.798   1.065 -0.1883  0.2415  0.0734
 3032TIP3    H130655   3.535   1.704   1.056 -2.3758 -0.0256 -1.3309
 3032TIP3    H230656   3.525   1.831   0.975 -1.2613  1.1712  0.3485
 3033TIP3   OH230657   4.460   3.790   2.272  0.4755  0.0820  0.1369
 3033TIP3    H130658   4.468   3.704   2.230 -0.7312 -1.0853  2.1650
 3033TIP3    H230659   4.534   3.795   2.331 -1.0409 -0.9639  2.2613
 3034TIP3   OH230660   3.096   6.069   2.174  0.7722 -0.3631  0.3873
 3034TIP3    H130661   3.191   6.081   2.179  0.7528 -0.2891  0.5790
 3034TIP3    H230662   3.072   6.036   2.260  0.9874 -2.9470 -0.4555
 3035TIP3   OH230663   0.728   0.698   1.622  0.1828  0.2288 -0.1772
 3035TIP3    H130664   0.817   0.722   1.646 -0.2116  1.8554 -0.2258
 3035TIP3    H230665   0.722   0.716   1.529  0.2638 -1.4513 -0.5372
 3036TIP3   OH230666   1.648   0.316   7.448  0.4319 -0.5972  0.5156
 3036TIP3    H130667   1.581   0.297   7.513  1.6114 -2.7262  1.2342
 3036TIP3    H230668   1.699   0.388   7.485 -1.7126  1.4436 -0.3080
 3037TIP3   OH230669   1.628   3.273   7.700 -0.1635  0.2402  0.1425
 3037TIP3    H130670   1.719   3.263   7.674 -0.8819 -0.3333 -2.4375
 3037TIP3    H230671   1.591   3.185   7.694 -0.7472  0.2966  2.0111
 3038TIP3   OH230672   5.529   3.165   8.122 -0.3737 -0.0413  0.4168
 3038TIP3    H130673   5.515   3.088   8.067 -0.4922  1.6339 -2.0661
 3038TIP3    H230674   5.443   3.207   8.128  0.1869  1.3849 -0.7415
 3039TIP3   OH230675   0.507   0.817   1.742  0.0355 -0.2838  0.4052
 3039TIP3    H130676   0.571   0.767   1.690  0.4453  0.3764  0.2631
 3039TIP3    H230677   0.553   0.836   1.824 -0.4280 -0.8809  0.8098
 3040TIP3   OH230678   4.322   3.134   0.461  0.0396 -0.0343  0.1533
 3040TIP3    H130679   4.341   3.222   0.428 -1.4572  0.3833  0.3607
 3040TIP3    H230680   4.406   3.087   0.453  0.4922  0.9644 -1.2917
 3041TIP3   OH230681   1.082   3.908   1.785 -0.5043 -0.0206  0.0443
 3041TIP3    H130682   1.091   3.831   1.728 -0.2062  0.9069 -1.2133
 3041TIP3    H230683   1.060   3.872   1.871  1.6156 -1.6220 -0.0065
 3042TIP3   OH230684   3.705   0.467   0.370 -0.6236  0.8947  0.2573
 3042TIP3    H130685   3.617   0.441   0.397 -0.6491  0.6995 -0.0097
 3042TIP3    H230686   3.728   0.539   0.429 -0.2750 -0.1682  1.4898
 3043TIP3   OH230687   3.436   2.452   1.389  0.1070 -0.3228 -0.3852
 3043TIP3    H130688   3.458   2.376   1.336  1.3792 -0.3070  0.0972
 3043TIP3    H230689   3.434   2.419   1.479 -1.6932 -0.2772 -0.3784
 3044TIP3   OH230690   2.684   0.915   7.686 -0.9430 -0.1230  0.2863
 3044TIP3    H130691   2.683   0.821   7.700 -1.4611 -0.2874 -0.7659
 3044TIP3    H230692   2.675   0.953   7.773 -1.3333 -1.0555  0.6566
 3045TIP3   OH230693   5.089   4.952   0.892 -0.2350 -0.2292  0.0293
 3045TIP3    H130694   5.111   4.989   0.977  1.3251 -0.2387 -0.3561
 3045TIP3    H230695   5.062   5.027   0.839  0.3568  0.0038  0.0516
 3046TIP3   OH230696   5.782   5.709   7.053  0.3604 -0.2123  0.3394
 3046TIP3    H130697   5.730   5.650   6.998  1.2280  0.4380 -1.2480
 3046TIP3    H230698   5.719   5.744   7.116 -0.7258 -0.8445 -0.3532
 3047TIP3   OH230699   0.662   3.519   0.229  0.4464 -0.0701  0.1271
 3047TIP3    H130700   0.701   3.482   0.308  0.2754 -1.6162 -0.4567
 3047TIP3    H230701   0.586   3.462   0.212 -0.6229  1.3774 -0.1097
 3048TIP3   OH230702   5.362   1.364   7.724  0.0452 -0.1881  0.2209
 3048TIP3    H130703   5.453   1.355   7.754  0.1121  0.6908  0.3329
 3048TIP3    H230704   5.370   1.393   7.633 -0.1255 -0.4419  0.1260
 3049TIP3   OH230705   1.782   4.823   7.623  0.5387  0.4368 -0.3057
 3049TIP3    H130706   1.866   4.782   7.604  1.0938  0.9883  0.8546
 3049TIP3    H230707   1.749   4.775   7.699  0.2654  0.8530 -0.1599
 3050TIP3   OH230708   0.873   4.339   3.027 -0.3298  0.0213 -0.1737
 3050TIP3    H130709   0.817   4.416   3.037 -0.8008 -0.4496  0.9193
 3050TIP3    H230710   0.959   4.368   3.056 -0.7429 -0.1305  1.3098
 3051TIP3   OH230711   1.125   3.941   2.382 -0.7806  0.2121  0.5291
 3051TIP3    H130712   1.146   3.913   2.471  1.3040  2.8613  0.9970
 3051TIP3    H230713   1.085   4.027   2.392  0.1827  0.9063 -1.0767
 3052TIP3   OH230714   1.836   0.949   1.848  0.4197 -0.2131  0.0204
 3052TIP3    H130715   1.899   0.879   1.833 -2.4027 -2.7960 -0.7183
 3052TIP3    H230716   1.808   0.976   1.760  0.8162  1.2703  0.3176
 3053TIP3   OH230717   2.234   2.644   7.853 -0.7999 -0.1044 -0.6900
 3053TIP3    H130718   2.140   2.652   7.870 -0.3665  0.4046  1.8563
 3053TIP3    H230719   2.273   2.721   7.894  0.7356 -0.1335 -1.9841
 3054TIP3   OH230720   2.952   1.384   0.848  0.5590  0.2655 -0.5930
 3054TIP3    H130721   2.857   1.373   0.837  0.4896 -0.4838  0.5952
 3054TIP3    H230722   2.984   1.298   0.873  1.3506  0.7899  0.2894
 3055TIP3   OH230723   1.524   4.577   2.627  0.5189 -0.0347  0.1630
 3055TIP3    H130724   1.539   4.670   2.643  2.8162 -0.6094  1.9124
 3055TIP3    H230725   1.430   4.569   2.613  0.3377  2.5984 -0.5491
 3056TIP3   OH230726   6.540   4.101   2.178 -0.2959  0.3320  0.0177
 3056TIP3    H130727   6.619   4.140   2.140 -0.4519  0.7688  0.1312
 3056TIP3    H230728   6.468   4.140   2.128 -0.5391  1.4044  1.1453
 3057TIP3   OH230729   3.567   5.185   7.901  0.1249 -0.0014 -0.3571
 3057TIP3    H130730   3.485   5.163   7.945  0.5494 -0.0579  0.4289
 3057TIP3    H230731   3.573   5.280   7.909 -0.2746  0.1049 -1.1767
 3058TIP3   OH230732   0.665   4.657   1.790  0.1918  0.4605 -0.4787
 3058TIP3    H130733   0.744   4.610   1.816 -0.6121 -0.7549 -0.1475
 3058TIP3    H230734   0.627   4.604   1.720 -0.6991  0.6376 -0.1494
 3059TIP3   OH230735   5.551   2.768   7.893 -0.7044 -0.5805  0.5784
 3059TIP3    H130736   5.531   2.689   7.942  1.8759 -1.0097  1.0287
 3059TIP3    H230737   5.583   2.737   7.808 -0.0011 -0.0278  0.6301
 3060TIP3   OH230738   1.942   1.752   0.195 -0.4945 -0.2978  0.5324
 3060TIP3    H130739   1.950   1.835   0.148 -2.4486 -0.2598  0.2003
 3060TIP3    H230740   1.929   1.687   0.127  0.5652 -0.8331  0.8231
 3061TIP3   OH230741   6.855   5.043   2.144  0.1074  0.1403  0.1742
 3061TIP3    H130742   6.760   5.058   2.142  0.1015  0.0750 -0.1141
 3061TIP3    H230743   6.892   5.131   2.141  0.0525  0.2239  1.4563
 3062TIP3   OH230744   1.105   0.082   6.385  0.1196 -0.5477 -0.2914
 3062TIP3    H130745   1.050   0.159   6.398 -0.1922 -0.7784 -0.2300
 3062TIP3    H230746   1.112   0.043   6.472 -0.2923 -0.9695 -0.4456
 3063TIP3   OH230747   1.181   1.906   2.586 -0.0752  0.1331  0.0072
 3063TIP3    H130748   1.151   1.881   2.673 -0.0749  1.1568  0.3087
 3063TIP3    H230749   1.256   1.963   2.601  0.6590 -0.6076 -0.6973
 3064TIP3   OH230750   4.626   2.382   0.092 -0.0239 -0.4235 -0.1786
 3064TIP3    H130751   4.690   2.398   0.023  0.0894  2.7800  0.5458
 3064TIP3    H230752   4.673   2.328   0.156  1.2972  0.2280 -0.5641
 3065TIP3   OH230753   3.435   1.752   7.859  0.4189  0.3564  0.1646
 3065TIP3    H130754   3.438   1.679   7.921  1.6877  0.1556 -0.1185
 3065TIP3    H230755   3.487   1.821   7.901  3.6892 -0.7131 -1.7832
 3066TIP3   OH230756   6.594   3.696   0.150 -0.2190 -0.1059  0.0924
 3066TIP3    H130757   6.650   3.643   0.094 -0.5514 -0.1063 -0.2431
 3066TIP3    H230758   6.595   3.650   0.235  1.4952  0.7032  0.5693
 3067TIP3   OH230759   0.516   3.353   6.836 -0.2826  0.3094  0.2811
 3067TIP3    H130760   0.574   3.277   6.824  1.0521  1.3520 -0.1947
 3067TIP3    H230761   0.439   3.318   6.879 -0.6563 -1.7439 -1.8170
 3068TIP3   OH230762   1.240   4.098   7.515  0.6737  0.4287  0.0303
 3068TIP3    H130763   1.285   4.132   7.592 -2.1265  0.1497  1.9677
 3068TIP3    H230764   1.261   4.004   7.515  0.6025  0.4083  0.5337
 3069TIP3   OH230765   0.322   4.223   8.160  0.4650 -0.3761  0.1229
 3069TIP3    H130766   0.274   4.205   8.241  0.4135 -2.6549 -0.3545
 3069TIP3    H230767   0.268   4.184   8.091  1.7477 -0.7435 -0.7126
 3070TIP3   OH230768   3.545   0.063   1.417  0.2898  0.6406 -0.0989
 3070TIP3    H130769   3.584   0.147   1.443 -0.3424  0.4564  1.6197
 3070TIP3    H230770   3.596  -0.003   1.464 -1.2747  0.3289  1.2950
 3071TIP3   OH230771   5.903   6.652   7.478 -0.4759  0.4046  0.0315
 3071TIP3    H130772   5.891   6.571   7.527 -1.3644 -1.1528 -2.5320
 3071TIP3    H230773   5.826   6.658   7.422 -0.6933  3.3530  0.4906
 3072TIP3   OH230774   6.669   1.278   1.995 -0.5651 -0.2277  0.5182
 3072TIP3    H130775   6.596   1.223   2.025 -1.1610  0.0048 -0.4504
 3072TIP3    H230776   6.675   1.348   2.060 -0.8106 -0.5866  0.9344
 3073TIP3   OH230777   5.944   3.168   1.612 -0.1921  0.2269 -0.3821
 3073TIP3    H130778   5.904   3.086   1.643 -1.5007  0.6646 -0.8335
 3073TIP3    H230779   5.879   3.235   1.634  0.0803  0.9059 -1.5941
 3074TIP3   OH230780   0.082   4.586   0.748  0.8641  0.8762 -0.2921
 3074TIP3    H130781   0.174   4.601   0.725  0.8588  1.8554  0.2767
 3074TIP3    H230782   0.079   4.496   0.779  1.6761  0.9178 -0.0807
 3075TIP3   OH230783   2.062   4.439   7.399 -0.1228 -0.5038 -0.6427
 3075TIP3    H130784   1.968   4.420   7.409 -0.1149 -0.3232 -0.1742
 3075TIP3    H230785   2.091   4.383   7.328 -0.6768 -0.2688 -1.0571
 3076TIP3   OH230786   0.471   5.765   0.136  0.3644 -0.2561 -0.1937
 3076TIP3    H130787   0.420   5.686   0.155  1.5035 -0.5675  1.8010
 3076TIP3    H230788   0.491   5.758   0.042 -2.7529 -0.3667 -0.9697
 3077TIP3   OH230789   1.332   4.840   8.049 -0.0470  0.6749  0.0098
 3077TIP3    H130790   1.394   4.777   8.086 -0.7931  0.0771  0.2459
 3077TIP3    H230791   1.381   4.922   8.046 -0.2419  1.0158  3.2827
 3078TIP3   OH230792   3.476   3.102   1.847  0.0537 -0.1631  0.3026
 3078TIP3    H130793   3.531   3.160   1.794 -0.8631 -1.0522 -1.7664
 3078TIP3    H230794   3.391   3.146   1.849  0.0361 -0.2226  0.9045
 3079TIP3   OH230795   0.190   6.489   8.167  0.5406  0.1030  0.0799
 3079TIP3    H130796   0.282   6.493   8.139  0.1244  0.9796 -1.2554
 3079TIP3    H230797   0.181   6.403   8.208  1.4516 -0.8658 -1.6528
 3080TIP3   OH230798   0.435   4.190   1.324 -0.5289  0.1408 -0.3005
 3080TIP3    H130799   0.466   4.131   1.392 -1.7774 -0.3943 -0.1599
 3080TIP3    H230800   0.340   4.176   1.322 -0.5029 -0.0719 -2.3412
 3081TIP3   OH230801   2.618   3.338   0.241  0.0132 -0.5904  0.2291
 3081TIP3    H130802   2.695   3.281   0.236  0.5802 -0.0848  2.1774
 3081TIP3    H230803   2.584   3.340   0.152  2.6344 -0.3352 -0.8728
 3082TIP3   OH230804   2.191   3.204   1.398  0.1166 -0.0791 -0.2448
 3082TIP3    H130805   2.281   3.173   1.385  0.2714  0.5706 -0.7237
 3082TIP3    H230806   2.197   3.267   1.469 -0.3329 -1.7072  1.3354
 3083TIP3   OH230807   3.661   5.448   1.634 -0.0738  0.2927  0.7985
 3083TIP3    H130808   3.657   5.530   1.586  2.3629  0.3265  0.5050
 3083TIP3    H230809   3.584   5.450   1.691 -2.0953  1.0576 -1.7476
 3084TIP3   OH230810   2.654   6.063   8.093  0.1446  0.2422  0.5525
 3084TIP3    H130811   2.748   6.074   8.105  0.2405  0.9658 -0.6963
 3084TIP3    H230812   2.646   6.000   8.023 -0.3148 -0.0482  0.8623
 3085TIP3   OH230813   6.755   6.277   7.507 -0.4908  0.0906  0.2215
 3085TIP3    H130814   6.756   6.338   7.434  0.9523  0.9714  0.9333
 3085TIP3    H230815   6.681   6.304   7.561 -1.2292 -0.2255 -0.6145
 3086TIP3   OH230816   0.562   2.844   0.922 -0.4242  0.0129 -0.0761
 3086TIP3    H130817   0.539   2.831   1.014 -1.2138  1.2825 -0.0639
 3086TIP3    H230818   0.558   2.939   0.909 -1.3307 -0.1924 -1.6465
 3087TIP3   OH230819   2.438   1.728   1.968 -0.2319 -0.8086  0.3209
 3087TIP3    H130820   2.374   1.663   1.940 -0.3707 -0.9769  1.0174
 3087TIP3    H230821   2.508   1.678   2.009 -0.7803 -0.4930  1.7266
 3088TIP3   OH230822   4.808   3.969   8.363  0.8458 -0.2062  0.3346
 3088TIP3    H130823   4.766   3.951   8.279  1.0018 -0.5881  0.3341
 3088TIP3    H230824   4.778   4.057   8.387  0.2986 -0.3451  0.1839
 3089TIP3   OH230825   3.730   4.743   7.597 -0.0142 -0.0675  0.0577
 3089TIP3    H130826   3.716   4.809   7.666 -0.4358 -0.6903  0.5879
 3089TIP3    H230827   3.641   4.717   7.571  0.1242  0.7186 -1.2919
 3090TIP3   OH230828   2.306   2.393   7.552  0.3157  0.1810  0.0067
 3090TIP3    H130829   2.245   2.320   7.553  0.9645 -0.3661  0.1278
 3090TIP3    H230830   2.391   2.354   7.573  0.4085  1.2171  1.7087
 3091TIP3   OH230831   1.721   2.140   0.682 -0.3095  0.2149 -0.2872
 3091TIP3    H130832   1.668   2.205   0.634  0.0657  0.0580 -0.9236
 3091TIP3    H230833   1.786   2.111   0.618  1.8174  1.8360  1.0435
 3092TIP3   OH230834   6.864   2.653   1.964 -0.7341  0.3892  0.1418
 3092TIP3    H130835   6.928   2.698   2.020  1.2947 -1.0115 -0.9568
 3092TIP3    H230836   6.883   2.685   1.876 -0.9388 -0.7124 -0.3166
 3093TIP3   OH230837   0.226   4.953   7.463  0.3867 -0.2462  0.3782
 3093TIP3    H130838   0.255   4.863   7.447 -1.7080 -0.5992 -2.0717
 3093TIP3    H230839   0.270   4.978   7.544  1.9732 -3.0398  0.5137
 3094TIP3   OH230840   6.519   1.380   0.913 -0.5191  0.1983  0.8772
 3094TIP3    H130841   6.485   1.297   0.882  0.0853 -0.4851  1.9860
 3094TIP3    H230842   6.501   1.380   1.007 -0.6238  1.3833  0.8731
 3095TIP3   OH230843   0.017   5.629   2.674  0.0267 -0.1808  0.4300
 3095TIP3    H130844   0.071   5.705   2.696 -1.5856  0.6927  1.5551
 3095TIP3    H230845  -0.002   5.640   2.581 -0.8329  1.2595  0.7459
 3096TIP3   OH230846   1.069   2.527   7.932  0.5577 -0.0874 -0.2394
 3096TIP3    H130847   1.041   2.439   7.908 -0.6102  0.0904  0.3534
 3096TIP3    H230848   1.135   2.514   8.000  1.4255 -0.5216 -1.1586
 3097TIP3   OH230849   0.272   0.285   1.226 -0.4995 -0.0761 -0.2912
 3097TIP3    H130850   0.318   0.201   1.228 -1.2257 -0.4784 -0.0450
 3097TIP3    H230851   0.317   0.338   1.292  0.1002 -0.1938 -0.5982
 3098TIP3   OH230852   3.917   4.075   1.521 -0.0286 -0.0482 -0.2036
 3098TIP3    H130853   3.859   4.150   1.524  0.7086  0.4944  1.8271
 3098TIP3    H230854   3.866   4.007   1.476 -1.5199  0.9621 -0.1054
 3099TIP3   OH230855   4.473   6.102   0.170  0.8295 -0.8369 -0.6403
 3099TIP3    H130856   4.443   6.172   0.113 -0.7057 -2.3981 -1.8690
 3099TIP3    H230857   4.539   6.056   0.119  1.0240 -0.9593 -0.2861
 3100TIP3   OH230858   3.209   2.013   8.543 -0.5578 -0.7634 -0.4437
 3100TIP3    H130859   3.246   2.043   8.459  2.7345  0.7919  1.3380
 3100TIP3    H230860   3.232   1.920   8.547  1.0014 -0.4102 -0.5109
 3101TIP3   OH230861   0.888   6.534   8.043 -0.5242  0.1492 -0.5149
 3101TIP3    H130862   0.842   6.571   8.118  2.1979  1.3119  0.7231
 3101TIP3    H230863   0.899   6.441   8.066  1.7602  0.8017  1.4969
 3102TIP3   OH230864   6.629   5.657   7.927 -0.6424  0.2749  0.3006
 3102TIP3    H130865   6.721   5.650   7.950 -0.3925 -0.8423 -0.9523
 3102TIP3    H230866   6.590   5.575   7.956 -1.2068  0.6506  0.6314
 3103TIP3   OH230867   4.301   5.872   8.113  0.1867 -0.7212  0.4328
 3103TIP3    H130868   4.373   5.925   8.079  0.6660 -1.0852  0.8652
 3103TIP3    H230869   4.227   5.933   8.120  0.3205 -0.4462 -0.4345
 3104TIP3   OH230870   0.130   6.279   7.902 -0.0804  0.5488  0.1325
 3104TIP3    H130871   0.040   6.294   7.871 -0.4980  0.1261  1.1078
 3104TIP3    H230872   0.130   6.310   7.992  0.0879 -1.6372  0.9329
 3105TIP3   OH230873   1.367   5.798   7.211  0.0331 -0.2192 -0.5590
 3105TIP3    H130874   1.462   5.794   7.216  0.1555  2.1085  1.1136
 3105TIP3    H230875   1.342   5.857   7.282 -2.4407  1.4515 -2.6066
 3106TIP3   OH230876   0.635   5.314   7.230 -0.2578  0.8712 -0.4720
 3106TIP3    H130877   0.708   5.300   7.170  0.8404  2.1726  0.4806
 3106TIP3    H230878   0.673   5.299   7.317 -0.8183  2.6526  0.1162
 3107TIP3   OH230879   1.925   1.629   7.145  0.0305  0.2685 -0.2037
 3107TIP3    H130880   1.937   1.547   7.193  1.0341  1.3803  1.5631
 3107TIP3    H230881   1.843   1.665   7.178  0.0882  0.4451 -0.2496
 3108TIP3   OH230882   3.533   2.784   1.365  0.0443 -0.1400  0.2249
 3108TIP3    H130883   3.559   2.698   1.331 -1.3405 -0.6410  0.3850
 3108TIP3    H230884   3.516   2.769   1.458 -0.5257  0.2276  0.1825
 3109TIP3   OH230885   5.082   4.915   0.259  0.0088 -0.0940 -0.0257
 3109TIP3    H130886   5.007   4.974   0.248  0.2842  0.6523  1.7437
 3109TIP3    H230887   5.051   4.850   0.321  1.1253  0.8531  1.5907
 3110TIP3   OH230888   0.236   6.152   0.424 -0.1776 -0.4851  0.3521
 3110TIP3    H130889   0.294   6.087   0.383 -0.3974 -0.1424 -0.5097
 3110TIP3    H230890   0.295   6.208   0.474 -0.1100 -2.1632  2.2668
 3111TIP3   OH230891   0.463   0.438   1.884 -0.5161  0.0441  0.2491
 3111TIP3    H130892   0.417   0.431   1.968 -3.1841  0.9824 -1.0032
 3111TIP3    H230893   0.406   0.494   1.831  0.3204 -1.6771 -2.6684
 3112TIP3   OH230894   2.334   6.561   6.757 -1.1952 -0.2839  0.3412
 3112TIP3    H130895   2.416   6.595   6.720 -2.0760 -0.3379 -1.8315
 3112TIP3    H230896   2.354   6.543   6.849  1.7328 -1.9831 -0.5224
 3113TIP3   OH230897   2.436   0.312   8.523  0.1730 -0.5297 -0.0760
 3113TIP3    H130898   2.435   0.346   8.434 -1.3204 -0.1009  0.0639
 3113TIP3    H230899   2.469   0.222   8.515 -0.2530 -0.6048 -1.1157
 3114TIP3   OH230900   2.980   6.783   0.801 -0.3471 -0.4621  0.1430
 3114TIP3    H130901   2.887   6.799   0.789 -0.1981  1.0881  0.8317
 3114TIP3    H230902   3.023   6.849   0.746  0.3612 -1.3979 -0.4637
 3115TIP3   OH230903   1.654   0.950   8.415  0.0226  0.1749  0.4327
 3115TIP3    H130904   1.624   0.872   8.369  1.7753 -0.7878  0.8276
 3115TIP3    H230905   1.673   1.013   8.345 -1.5200  0.3392  0.1172
 3116TIP3   OH230906   0.239   5.127   1.169 -0.0454 -0.1517  0.7746
 3116TIP3    H130907   0.202   5.125   1.257 -0.6515  2.5551  0.6644
 3116TIP3    H230908   0.331   5.153   1.182 -0.4052  1.2983  0.6000
 3117TIP3   OH230909   1.973   0.642   1.802 -0.3522  0.0897  0.6021
 3117TIP3    H130910   1.911   0.640   1.729 -0.2717 -0.6913  0.5494
 3117TIP3    H230911   2.021   0.559   1.795 -0.1475  0.1363  1.3783
 3118TIP3   OH230912   2.641   0.898   8.359 -0.3722  0.1723 -0.2750
 3118TIP3    H130913   2.698   0.957   8.408 -1.5911 -0.5324  2.1769
 3118TIP3    H230914   2.691   0.877   8.280  1.4812  1.8564  0.3485
 3119TIP3   OH230915   6.175   5.143   8.510  0.5677  0.1863 -0.5186
 3119TIP3    H130916   6.095   5.194   8.500  0.1826 -0.6344 -1.7876
 3119TIP3    H230917   6.145   5.057   8.541  0.7625 -0.6325 -2.4741
 3120TIP3   OH230918   2.282   4.854   7.067 -0.0532 -0.2104 -0.1393
 3120TIP3    H130919   2.198   4.892   7.042 -1.0258 -1.5066  0.9696
 3120TIP3    H230920   2.339   4.929   7.085 -0.9790  0.6841 -0.8604
 3121TIP3   OH230921   4.126   5.556   2.607 -0.6099  0.0566  0.2201
 3121TIP3    H130922   4.161   5.626   2.662 -0.4118 -0.0441  0.2232
 3121TIP3    H230923   4.062   5.599   2.551  0.8996  0.6314 -1.1458
 3122TIP3   OH230924   1.592   4.215   3.152  0.6667 -0.4536 -0.0435
 3122TIP3    H130925   1.603   4.264   3.071  3.0743  0.1493  0.5693
 3122TIP3    H230926   1.568   4.127   3.125  0.7086 -0.0719 -1.3668
 3123TIP3   OH230927   2.864   2.073   0.349  0.1659 -0.4962  0.6209
 3123TIP3    H130928   2.916   2.152   0.362 -0.3746 -0.2006  1.0582
 3123TIP3    H230929   2.912   2.023   0.283 -0.5671  1.1960 -1.3222
 3124TIP3   OH230930   5.086   4.774   8.491 -0.3677  0.0308  0.2466
 3124TIP3    H130931   5.048   4.713   8.554 -0.9127  2.2060  2.1121
 3124TIP3    H230932   5.072   4.860   8.529  1.1291  1.3044 -1.9062
 3125TIP3   OH230933   3.024   5.304   0.608 -0.9338  0.3698 -0.4600
 3125TIP3    H130934   3.037   5.387   0.654 -0.1949 -0.1001  0.2050
 3125TIP3    H230935   3.008   5.241   0.678 -0.4804 -0.2335 -0.9041
 3126TIP3   OH230936   4.181   5.025   0.706 -0.3499 -0.0290 -0.0749
 3126TIP3    H130937   4.240   5.063   0.641  0.8511  1.3172  1.7058
 3126TIP3    H230938   4.174   5.093   0.774 -1.4783 -1.4045  1.2369
 3127TIP3   OH230939   0.223   5.081   0.452 -0.3780  0.0566 -0.2049
 3127TIP3    H130940   0.134   5.107   0.477 -0.1573 -0.3094  1.0200
 3127TIP3    H230941   0.232   4.991   0.483  1.1670  0.8296  1.7528
 3128TIP3   OH230942   5.372   1.286   8.306  0.2378  0.3528  1.1633
 3128TIP3    H130943   5.332   1.372   8.321  0.2198  0.2057  2.0337
 3128TIP3    H230944   5.398   1.257   8.393  2.3399  0.4738  0.6203
 3129TIP3   OH230945   5.250   6.193   2.538  0.6162 -0.0007  0.6164
 3129TIP3    H130946   5.258   6.207   2.633  0.9707 -0.0674  0.5977
 3129TIP3    H230947   5.241   6.282   2.502 -0.5715 -0.0293  0.7986
 3130TIP3   OH230948   2.631   0.781   0.021  0.3910 -0.3781  0.2925
 3130TIP3    H130949   2.689   0.805   0.092  0.6086 -1.6085  0.5451
 3130TIP3    H230950   2.675   0.813  -0.058  0.5877  0.1788  0.6246
 3131TIP3   OH230951   1.538   4.121   8.414 -0.6911  0.0658 -0.5973
 3131TIP3    H130952   1.451   4.139   8.377 -1.1287  0.9206  0.7339
 3131TIP3    H230953   1.558   4.032   8.387 -2.0111 -0.1601 -0.9129
 3132TIP3   OH230954   0.141   6.538   2.143  0.2628  0.1647  0.3824
 3132TIP3    H130955   0.221   6.516   2.096 -0.2144 -0.9889  0.0971
 3132TIP3    H230956   0.151   6.631   2.165  1.5321  0.1103  0.0780
 3133TIP3   OH230957   0.604   1.391   7.671 -0.2543 -0.1652 -0.4283
 3133TIP3    H130958   0.542   1.329   7.635  1.4748 -2.0023 -0.4438
 3133TIP3    H230959   0.576   1.404   7.762 -1.0004 -0.4764 -0.6152
 3134TIP3   OH230960   1.714   4.219   7.704 -0.5503  0.1891 -0.4395
 3134TIP3    H130961   1.725   4.236   7.797  1.5312 -2.0825 -0.1630
 3134TIP3    H230962   1.664   4.137   7.700  1.0221 -0.7878 -1.1822
 3135TIP3   OH230963   5.418   4.077   7.492  0.0009  1.0215  0.3880
 3135TIP3    H130964   5.401   4.165   7.525  2.0630  1.6927 -0.1656
 3135TIP3    H230965   5.400   4.082   7.398  0.1599  0.8667  0.3474
 3136TIP3   OH230966   6.610   5.071   7.381  0.7375 -0.0068  0.0628
 3136TIP3    H130967   6.603   4.978   7.400  0.7576  0.1302  0.7943
 3136TIP3    H230968   6.657   5.076   7.299  2.5244 -0.5838  1.0020
 3137TIP3   OH230969   3.398   4.296   7.400 -0.2402 -0.1485 -0.4945
 3137TIP3    H130970   3.367   4.385   7.414  0.7536  0.4417 -1.8021
 3137TIP3    H230971   3.328   4.254   7.350 -0.7273 -0.1261  0.1575
 3138TIP3   OH230972   2.664   2.774   2.207 -0.0870 -0.2530  0.1658
 3138TIP3    H130973   2.693   2.856   2.248 -0.3483 -0.1625  0.1745
 3138TIP3    H230974   2.680   2.707   2.272 -1.6650  0.0542  0.9345
 3139TIP3   OH230975   5.627   3.047   1.956 -0.0592 -0.0151  0.6586
 3139TIP3    H130976   5.617   3.134   1.994  2.0850 -0.3739  2.1871
 3139TIP3    H230977   5.562   2.993   2.000 -0.3784  0.4694  0.7850
 3140TIP3   OH230978   6.461   5.983   1.165  0.3028 -0.0201 -0.4080
 3140TIP3    H130979   6.426   5.999   1.077  1.6527  1.8064 -0.6785
 3140TIP3    H230980   6.394   5.930   1.208 -0.2086 -1.3314 -2.6462
 3141TIP3   OH230981   3.968   2.467   6.999  0.4891  0.0794 -0.7203
 3141TIP3    H130982   3.986   2.560   6.986  0.6584  0.0896 -0.4361
 3141TIP3    H230983   3.901   2.465   7.067 -0.1300  0.0186 -1.3290
 3142TIP3   OH230984   2.470   6.278   0.273  0.9542  0.4224  0.0126
 3142TIP3    H130985   2.497   6.253   0.361 -2.6693 -2.0041  0.6306
 3142TIP3    H230986   2.536   6.237   0.216  1.6468 -0.5956  1.4784
 3143TIP3   OH230987   1.257   3.113   1.216 -0.0883 -0.1972 -0.4812
 3143TIP3    H130988   1.334   3.061   1.194  0.5248 -0.3120  1.7225
 3143TIP3    H230989   1.281   3.160   1.295 -2.5653 -0.8966  0.7954
 3144TIP3   OH230990   0.105   2.922   0.509  0.4177  0.3025  0.1586
 3144TIP3    H130991   0.187   2.924   0.461  0.9752  0.5043  1.0866
 3144TIP3    H230992   0.124   2.966   0.592 -0.4120 -0.3345  0.7145
 3145TIP3   OH230993   2.145   4.897   8.339 -0.2507  0.4676 -0.2335
 3145TIP3    H130994   2.138   4.826   8.402  0.7433  0.9585  0.4582
 3145TIP3    H230995   2.150   4.976   8.393  2.1808  0.7887 -0.8213
 3146TIP3   OH230996   3.724   1.829   7.350  0.0245  0.0594  0.3857
 3146TIP3    H130997   3.647   1.773   7.342 -0.0518  0.0081  1.3430
 3146TIP3    H230998   3.738   1.837   7.445 -0.9582  2.9724  0.3861
 3147TIP3   OH230999   5.296   1.371   1.099 -0.4413 -0.0676 -0.4515
 3147TIP3    H131000   5.311   1.427   1.023  0.3171 -0.7498 -0.8128
 3147TIP3    H231001   5.287   1.283   1.064  1.6834 -0.6588  0.3665
 3148TIP3   OH231002   1.969   4.052   0.901 -0.3063 -0.0062 -0.5657
 3148TIP3    H131003   2.052   4.048   0.948  0.6801  0.3720 -2.2183
 3148TIP3    H231004   1.970   3.976   0.843 -0.0029  1.2313 -2.2820
 3149TIP3   OH231005   6.390   5.340   8.465  0.3291 -0.8532  0.2358
 3149TIP3    H131006   6.370   5.381   8.381 -0.6482 -2.0053 -0.1259
 3149TIP3    H231007   6.317   5.281   8.481 -0.3990  0.5931  2.7713
 3150TIP3   OH231008   5.989   3.832   7.237 -0.3648  0.5340  0.0742
 3150TIP3    H131009   5.932   3.880   7.176 -0.4309 -0.2503 -0.4892
 3150TIP3    H231010   5.930   3.806   7.308 -0.7616 -0.3881 -0.5694
 3151TIP3   OH231011   1.393   0.142   1.812  0.0635  0.1757  0.0961
 3151TIP3    H131012   1.314   0.147   1.758  0.5041  0.9765 -0.4998
 3151TIP3    H231013   1.389   0.055   1.853  0.4200 -1.0549 -2.3134
 3152TIP3   OH231014   1.446   5.680   8.250 -0.4926  0.0456 -0.0198
 3152TIP3    H131015   1.493   5.696   8.332 -2.6389  1.3633  1.0558
 3152TIP3    H231016   1.496   5.612   8.206  1.8381  0.6959  1.4559
 3153TIP3   OH231017   4.760   2.045   7.680 -0.2764  0.2259 -0.1575
 3153TIP3    H131018   4.779   2.000   7.598 -3.3540 -1.3130 -0.1287
 3153TIP3    H231019   4.744   1.975   7.743 -1.1945  1.3739  0.9258
 3154TIP3   OH231020   1.647   2.756   2.540  0.8835  0.2132 -0.0834
 3154TIP3    H131021   1.618   2.710   2.619  0.3863  2.4340  1.0897
 3154TIP3    H231022   1.738   2.778   2.557  1.7457 -1.9052 -1.4701
 3155TIP3   OH231023   6.708   0.514   0.948  0.4019 -0.8432  0.0231
 3155TIP3    H131024   6.779   0.522   0.886 -1.4510 -0.8731 -2.2387
 3155TIP3    H231025   6.715   0.425   0.983  0.5961 -1.3649 -1.3106
 3156TIP3   OH231026   0.207   5.430   2.235  0.4225  0.0329 -0.2290
 3156TIP3    H131027   0.230   5.513   2.194  0.6262 -0.1417 -0.4744
 3156TIP3    H231028   0.219   5.365   2.166 -1.7793  0.0349 -0.6878
 3157TIP3   OH231029   2.981   3.867   7.458  0.7768 -0.0133  0.6242
 3157TIP3    H131030   2.888   3.867   7.434 -0.0550  1.7401  3.4397
 3157TIP3    H231031   3.023   3.919   7.389 -0.9393  2.1251  1.0855
 3158TIP3   OH231032   5.381   4.164   1.258  0.3117  0.3522  0.5787
 3158TIP3    H131033   5.471   4.133   1.252  0.3097  0.6491 -1.9579
 3158TIP3    H231034   5.380   4.247   1.210 -1.9672 -1.4342 -2.8738
 3159TIP3   OH231035   1.908   5.842   1.690 -0.8184 -0.1303  0.4672
 3159TIP3    H131036   1.937   5.930   1.718  1.1369  0.0897 -1.9352
 3159TIP3    H231037   1.988   5.789   1.692 -1.5453 -1.2800 -0.1943
 3160TIP3   OH231038   1.111   2.626   1.764 -0.2776  0.0652 -0.6802
 3160TIP3    H131039   1.080   2.715   1.782 -0.0579 -0.2412  1.4903
 3160TIP3    H231040   1.148   2.597   1.847  0.3675 -1.7814 -1.5751
 3161TIP3   OH231041   3.355   0.986   1.231 -0.4224  0.0557 -0.2492
 3161TIP3    H131042   3.410   1.049   1.277 -0.1058 -0.1691 -0.3183
 3161TIP3    H231043   3.294   1.039   1.180  1.0358  0.3435 -1.7707
 3162TIP3   OH231044   3.782   0.782   0.102  0.3841  0.1712 -0.6857
 3162TIP3    H131045   3.795   0.873   0.075 -0.4498  0.1446 -1.2128
 3162TIP3    H231046   3.863   0.759   0.147  0.0003  1.6597  0.8693
 3163TIP3   OH231047   3.662   2.293   1.917 -0.3742  0.0722 -0.3652
 3163TIP3    H131048   3.725   2.258   1.980 -1.0752 -1.1438 -0.3186
 3163TIP3    H231049   3.680   2.387   1.915  0.4616 -0.0491  0.7341
 3164TIP3   OH231050   6.081   3.467   1.274 -0.1643 -0.3152  0.6571
 3164TIP3    H131051   5.990   3.481   1.245  0.1690  3.0954  0.7640
 3164TIP3    H231052   6.080   3.494   1.366  1.1711  1.2355  0.2687
 3165TIP3   OH231053   4.052   3.808   2.738  0.5967 -0.0132 -0.3199
 3165TIP3    H131054   4.045   3.895   2.777 -2.3820 -0.3567  0.1610
 3165TIP3    H231055   4.132   3.811   2.686  1.5038  2.4193  1.0425
 3166TIP3   OH231056   3.300   4.849   1.648  0.3158 -0.2303 -0.0937
 3166TIP3    H131057   3.336   4.892   1.571  0.5650 -0.3242 -0.0316
 3166TIP3    H231058   3.269   4.920   1.703  0.4886 -0.1433 -0.1089
 3167TIP3   OH231059   5.080   6.540   1.029 -0.0234 -0.2923  0.1065
 3167TIP3    H131060   4.999   6.591   1.038 -1.8235 -2.9120 -0.0127
 3167TIP3    H231061   5.096   6.538   0.935  3.1994  4.3350  0.2471
 3168TIP3   OH231062   6.486   3.321   8.387  0.0804  0.1344 -0.3912
 3168TIP3    H131063   6.406   3.352   8.431  1.1811 -1.2090  2.8499
 3168TIP3    H231064   6.552   3.320   8.457  2.2010 -1.5103 -2.3037
 3169TIP3   OH231065   5.441   1.562   1.263  0.3033  0.2388 -0.3205
 3169TIP3    H131066   5.417   1.650   1.236 -0.9688  0.0132  0.0026
 3169TIP3    H231067   5.395   1.504   1.202  1.8890 -0.2059 -1.1254
 3170TIP3   OH231068   0.566   5.424   1.051  0.5898 -0.0032 -0.2389
 3170TIP3    H131069   0.549   5.330   1.054 -1.3183  0.3233  1.5928
 3170TIP3    H231070   0.570   5.445   0.958 -1.4900 -1.5157 -0.7390
 3171TIP3   OH231071   2.168   1.228   1.202  0.1455 -0.0446  0.0461
 3171TIP3    H131072   2.141   1.211   1.112 -0.2302  1.1308 -0.0743
 3171TIP3    H231073   2.132   1.314   1.223 -0.3917 -0.5992  1.5664
 3172TIP3   OH231074   0.436   1.642   1.227  0.5299 -0.3989 -0.5627
 3172TIP3    H131075   0.421   1.623   1.320 -0.1144 -0.4849 -0.6811
 3172TIP3    H231076   0.373   1.588   1.180 -0.3829  0.9646 -0.9658
 3173TIP3   OH231077   4.576   1.940   0.500  0.2163  0.2967 -0.1737
 3173TIP3    H131078   4.636   1.951   0.574 -0.5802  2.0891  0.2606
 3173TIP3    H231079   4.490   1.962   0.535  0.0153  2.8128 -1.9288
 3174TIP3   OH231080   4.318   0.129   7.571 -0.1358 -0.2668 -0.7144
 3174TIP3    H131081   4.301   0.091   7.485 -0.4678  1.8986 -1.6698
 3174TIP3    H231082   4.393   0.080   7.605 -1.3019 -2.5572 -1.2674
 3175TIP3   OH231083   5.534   4.758   7.347 -0.2501  0.4139  0.0354
 3175TIP3    H131084   5.524   4.802   7.263 -0.1932  0.2333 -0.0664
 3175TIP3    H231085   5.615   4.708   7.338 -0.1557  0.5261  0.2561
 3176TIP3   OH231086   4.663   4.112   2.463 -0.0099 -0.5237 -0.1801
 3176TIP3    H131087   4.724   4.037   2.464 -0.2317 -0.7565 -1.5308
 3176TIP3    H231088   4.659   4.141   2.554  1.5439 -0.9746  0.0645
 3177TIP3   OH231089   0.759   3.953   2.093 -0.2818 -0.1533  0.3595
 3177TIP3    H131090   0.801   3.929   2.176  1.1617  0.5298 -0.1594
 3177TIP3    H231091   0.730   4.044   2.107  2.6537  1.0875 -0.8307
 3178TIP3   OH231092   5.153   1.255   2.015  0.6317 -0.1185 -0.1153
 3178TIP3    H131093   5.070   1.208   2.014  0.0467  0.8783 -0.8394
 3178TIP3    H231094   5.164   1.282   2.106  0.4569 -0.7639  0.0969
 3179TIP3   OH231095   2.074   1.896   1.288 -0.2969  0.1289 -0.2911
 3179TIP3    H131096   2.165   1.897   1.318 -0.8533 -0.4214  1.5515
 3179TIP3    H231097   2.044   1.986   1.298  0.0626  0.3380 -1.0215
 3180TIP3   OH231098   0.604   0.084   2.014  0.0912 -0.1468  0.0179
 3180TIP3    H131099   0.648   0.106   1.932 -0.6211  1.6497  0.0753
 3180TIP3    H231100   0.674   0.086   2.080  0.2296  1.1293 -0.1358
 3181TIP3   OH231101   0.921   3.523   6.766 -0.5505  0.0788  0.3905
 3181TIP3    H131102   0.962   3.516   6.852 -0.2376  0.7386  0.3084
 3181TIP3    H231103   0.838   3.567   6.782  0.4421  2.1856  0.1340
 3182TIP3   OH231104   2.507   1.200   7.294  0.4878  0.5262  0.7007
 3182TIP3    H131105   2.599   1.176   7.299  0.7038  1.4516  1.3695
 3182TIP3    H231106   2.473   1.149   7.220  1.1269 -1.1194  1.4730
 3183TIP3   OH231107   0.743   3.838   8.400  0.2679  0.2994  0.3666
 3183TIP3    H131108   0.828   3.872   8.429  0.2958  0.8674 -0.3393
 3183TIP3    H231109   0.692   3.917   8.380  0.6570 -0.0339 -2.2369
 3184TIP3   OH231110   4.797   0.742   8.556  0.1222 -0.1550 -0.6961
 3184TIP3    H131111   4.869   0.776   8.609  1.2569 -0.1273 -2.1968
 3184TIP3    H231112   4.822   0.651   8.538 -1.7387 -1.1517  1.2944
 3185TIP3   OH231113   4.998   3.579   7.871  0.8354  0.3110 -0.1816
 3185TIP3    H131114   5.036   3.666   7.862  1.2835  0.2268  0.8212
 3185TIP3    H231115   5.073   3.519   7.867  0.5447 -0.0378 -0.7349
 3186TIP3   OH231116   1.912   6.499   2.799 -0.1013  0.0739 -0.2334
 3186TIP3    H131117   1.828   6.542   2.819 -0.9485 -1.9132  0.7162
 3186TIP3    H231118   1.889   6.408   2.780  1.6306 -0.0136 -2.2792
 3187TIP3   OH231119   3.219   5.219   1.096  0.1799 -0.7963 -0.1122
 3187TIP3    H131120   3.284   5.287   1.115 -0.8782  0.8702 -2.0514
 3187TIP3    H231121   3.271   5.142   1.072  1.5434  0.8087 -2.6896
 3188TIP3   OH231122   6.588   3.685   7.943 -0.3189 -0.3338 -0.1435
 3188TIP3    H131123   6.556   3.626   8.011  2.3615 -0.8995  0.7677
 3188TIP3    H231124   6.527   3.758   7.944 -2.0868 -1.7403  0.7187
 3189TIP3   OH231125   5.611   1.325   1.634 -0.5178  0.1743  0.1853
 3189TIP3    H131126   5.545   1.393   1.624 -1.9691 -1.1292  0.5831
 3189TIP3    H231127   5.662   1.352   1.710 -0.6304  1.1465 -0.0687
 3190TIP3   OH231128   2.932   0.299   0.113 -0.6352  0.5113  0.0601
 3190TIP3    H131129   2.852   0.247   0.113 -0.5918  0.4201  0.9448
 3190TIP3    H231130   2.906   0.386   0.143 -0.3387  0.3508  0.8134
 3191TIP3   OH231131   0.385   3.982   0.997 -0.4797  0.1520 -0.2435
 3191TIP3    H131132   0.389   4.028   0.914  3.1122  0.5957  0.0095
 3191TIP3    H231133   0.387   3.889   0.973  4.5391  0.1636 -0.9069
 3192TIP3   OH231134   5.033   0.341   2.292  0.4078  0.3819  0.0123
 3192TIP3    H131135   4.968   0.382   2.236  0.8224  1.4137  0.2605
 3192TIP3    H231136   5.094   0.411   2.313 -0.4492  0.4119  2.8383
 3193TIP3   OH231137   5.009   3.542   2.434  0.0419  0.2164 -0.2002
 3193TIP3    H131138   4.975   3.631   2.424  0.0809  0.3038  0.3825
 3193TIP3    H231139   5.063   3.546   2.513 -0.3363 -0.4284  0.0996
 3194TIP3   OH231140   0.442   4.427   0.898 -0.1041  0.0195 -0.2561
 3194TIP3    H131141   0.526   4.381   0.894  0.0254  0.3273 -1.4712
 3194TIP3    H231142   0.384   4.368   0.945  0.5078 -0.6546 -0.3409
 3195TIP3   OH231143   4.431   6.513   2.373  0.4995  0.2866 -0.0405
 3195TIP3    H131144   4.473   6.523   2.459  1.9295 -0.5494 -0.5987
 3195TIP3    H231145   4.504   6.495   2.313 -0.6211 -0.8556 -1.1285
 3196TIP3   OH231146   4.795   0.956   1.743 -0.7086  0.5304  0.2086
 3196TIP3    H131147   4.793   0.861   1.747  0.6688  0.5036  0.5337
 3196TIP3    H231148   4.787   0.976   1.650  0.7486  0.0148 -0.0573
 3197TIP3   OH231149   4.481   5.893   1.698 -0.2275  0.0744  0.0248
 3197TIP3    H131150   4.395   5.889   1.655 -0.4480  1.9092  0.1915
 3197TIP3    H231151   4.475   5.969   1.756  1.8434  0.9225 -0.7608
 3198TIP3   OH231152   2.600   5.815   7.465  0.2649 -0.2377 -0.2498
 3198TIP3    H131153   2.516   5.811   7.419 -1.2951 -0.3667  2.4243
 3198TIP3    H231154   2.601   5.902   7.504  1.7152 -0.0007 -0.7700
 3199TIP3   OH231155   5.436   3.733   0.582  0.2149  0.0032  0.2106
 3199TIP3    H131156   5.394   3.771   0.505 -2.0863 -3.2396 -0.3236
 3199TIP3    H231157   5.493   3.665   0.547  0.1115 -0.6572  1.2891
 3200TIP3   OH231158   2.127   0.370   0.049  0.9253  0.1632  0.0213
 3200TIP3    H131159   2.114   0.276   0.047 -1.2562  0.4265 -1.7458
 3200TIP3    H231160   2.160   0.392  -0.038  0.4673  1.1297  0.0700
 3201TIP3   OH231161   1.783   0.303   2.621  0.6804  0.2023  0.4016
 3201TIP3    H131162   1.783   0.399   2.630  1.1326  0.5579 -2.4751
 3201TIP3    H231163   1.875   0.278   2.634  0.4820  0.0631  1.6476
 3202TIP3   OH231164   4.951   6.263   0.294  0.1793 -0.9494 -0.5422
 3202TIP3    H131165   4.911   6.274   0.380  1.2275 -0.6438 -0.0833
 3202TIP3    H231166   5.045   6.269   0.310  0.3738  1.2247 -1.9672
 3203TIP3   OH231167   2.843   4.176   0.627  0.1450 -0.2264 -0.1757
 3203TIP3    H131168   2.804   4.109   0.570  1.1522 -1.0276  0.0498
 3203TIP3    H231169   2.870   4.245   0.566 -1.6776  0.4100 -0.3270
 3204TIP3   OH231170   6.113   0.191   3.028 -0.0491 -0.1518 -0.1512
 3204TIP3    H131171   6.093   0.281   3.003 -1.8394 -0.1624  0.9994
 3204TIP3    H231172   6.083   0.138   2.954 -1.2403  0.0877  0.1289
 3205TIP3   OH231173   2.473   5.454   7.761  0.0945  0.3130  0.2291
 3205TIP3    H131174   2.441   5.371   7.795  0.0060  0.7677  1.2995
 3205TIP3    H231175   2.396   5.511   7.760  0.3955  0.7286  0.6223
 3206TIP3   OH231176   0.828   2.319   1.075  0.0200  0.1015 -0.7300
 3206TIP3    H131177   0.844   2.243   1.131 -2.8739 -0.6545 -0.7626
 3206TIP3    H231178   0.777   2.379   1.130 -0.2691  0.7058 -1.6378
 3207TIP3   OH231179   1.526   3.820   8.061 -0.3237 -0.0684  0.2204
 3207TIP3    H131180   1.468   3.876   8.010  2.4598  1.3461 -1.6299
 3207TIP3    H231181   1.532   3.739   8.009  0.4420  0.3346 -0.3239
 3208TIP3   OH231182   3.300   1.282   8.143 -0.0075  0.3179  0.1385
 3208TIP3    H131183   3.210   1.251   8.157  0.6845 -2.0876 -0.3642
 3208TIP3    H231184   3.343   1.270   8.228  0.4943 -1.0161 -0.2821
 3209TIP3   OH231185   0.829   3.948   1.575  0.1512 -0.5742 -0.6821
 3209TIP3    H131186   0.925   3.949   1.574  0.2137 -1.8971 -2.0468
 3209TIP3    H231187   0.807   3.858   1.600 -0.7763  0.0803  0.9237
 3210TIP3   OH231188   3.101   6.677   1.941  0.2736  0.0932 -0.1844
 3210TIP3    H131189   3.160   6.629   1.999 -0.5756  0.8934  1.4027
 3210TIP3    H231190   3.087   6.618   1.867  2.4583 -0.4118 -0.2552
 3211TIP3   OH231191   1.155   1.087   7.457 -0.3072 -0.0066  0.4064
 3211TIP3    H131192   1.242   1.058   7.430 -0.8475  0.8955 -2.6456
 3211TIP3    H231193   1.172   1.166   7.509  0.7112 -0.1420  0.3084
 3212TIP3   OH231194   4.461   6.173   7.007  0.5478 -0.0314  0.2017
 3212TIP3    H131195   4.544   6.220   7.007  1.0447 -0.8191  1.7784
 3212TIP3    H231196   4.467   6.115   7.083 -0.8539 -1.1638 -0.5020
 3213TIP3   OH231197   5.236   3.746   7.611 -0.2190 -1.0954  0.1570
 3213TIP3    H131198   5.226   3.653   7.631 -1.4382 -0.9743  0.1744
 3213TIP3    H231199   5.195   3.792   7.685 -0.0846 -0.5542 -0.0941
 3214TIP3   OH231200   3.897   1.026   0.449 -0.2187 -0.1057  0.3799
 3214TIP3    H131201   3.920   0.972   0.373  0.4841  1.0562 -0.2548
 3214TIP3    H231202   3.975   1.024   0.504 -0.6880 -0.8554  1.0358
 3215TIP3   OH231203   3.923   1.407   7.830 -0.0769  0.6836  0.3591
 3215TIP3    H131204   3.933   1.326   7.879 -0.8479 -0.5456 -1.3809
 3215TIP3    H231205   3.840   1.444   7.861 -0.4687  0.0140  0.1361
 3216TIP3   OH231206   0.665   0.800   7.521 -0.1837  0.0485 -0.1259
 3216TIP3    H131207   0.579   0.783   7.560  0.3527 -0.1276  1.0311
 3216TIP3    H231208   0.711   0.851   7.587  0.2728  0.9718 -1.1397
 3217TIP3   OH231209   2.893   5.750   2.027 -0.3020  0.2109  0.1748
 3217TIP3    H131210   2.931   5.728   1.942 -2.4533 -0.6107 -0.6224
 3217TIP3    H231211   2.857   5.837   2.016  1.5330  1.1342  1.0365
 3218TIP3   OH231212   5.807   2.883   0.538 -0.9481  0.0325 -0.4060
 3218TIP3    H131213   5.817   2.937   0.460  1.6468  0.1281 -0.0874
 3218TIP3    H231214   5.896   2.867   0.568 -1.8557  0.3758  2.8424
 3219TIP3   OH231215   2.354   3.409   8.226  0.0363 -0.4569  0.3888
 3219TIP3    H131216   2.440   3.448   8.238  0.6621 -1.6311 -0.0898
 3219TIP3    H231217   2.313   3.460   8.156 -0.1221  0.8068  1.3690
 3220TIP3   OH231218   5.977   5.314   1.418  0.3320 -0.1962  0.0046
 3220TIP3    H131219   5.939   5.233   1.452  1.2222  0.0841  1.8231
 3220TIP3    H231220   5.905   5.378   1.424  0.1832 -0.3983  0.4697
 3221TIP3   OH231221   5.144   2.227   0.430  0.4417 -0.1032 -0.2341
 3221TIP3    H131222   5.161   2.152   0.487  0.5050 -0.7176 -1.0323
 3221TIP3    H231223   5.230   2.263   0.410  0.6098 -1.1274 -1.5337
 3222TIP3   OH231224   5.106   5.709   7.803 -0.6678 -0.1455 -0.3817
 3222TIP3    H131225   5.089   5.646   7.873 -0.5495 -0.3660 -0.5469
 3222TIP3    H231226   5.169   5.770   7.840 -1.1611  0.1691 -0.0534
 3223TIP3   OH231227   1.620   5.906   7.733  0.5831 -0.2033  0.0972
 3223TIP3    H131228   1.605   5.815   7.704 -1.4200 -0.7014  2.4259
 3223TIP3    H231229   1.618   5.956   7.652  0.5963 -2.1049 -1.1642
 3224TIP3   OH231230   1.526   0.132   7.890  0.1008 -0.2884 -0.1346
 3224TIP3    H131231   1.616   0.145   7.919 -0.0207  0.1051  0.0767
 3224TIP3    H231232   1.491   0.064   7.948 -0.6281  1.5717  1.7533
 3225TIP3   OH231233   3.208   5.139   8.526  0.5896  0.5917  0.1238
 3225TIP3    H131234   3.228   5.133   8.619  0.2223 -0.1303  0.1555
 3225TIP3    H231235   3.190   5.050   8.498 -1.4945  1.0542 -0.1493
 3226TIP3   OH231236   3.128   6.488   2.337  0.0172  0.1734 -0.2811
 3226TIP3    H131237   3.159   6.552   2.273 -0.9171  0.0840 -0.8272
 3226TIP3    H231238   3.095   6.415   2.285  0.2874 -0.3976  0.3246
 3227TIP3   OH231239   6.565   3.820   2.203 -0.1390  0.6189  0.2654
 3227TIP3    H131240   6.558   3.907   2.164  0.6632  0.9389  0.8161
 3227TIP3    H231241   6.652   3.819   2.244 -0.2142 -0.3738  0.4207
 3228TIP3   OH231242   4.546   3.974   6.841 -0.6321  0.1617 -0.1708
 3228TIP3    H131243   4.489   3.898   6.842  1.2089 -1.2963  0.8085
 3228TIP3    H231244   4.631   3.940   6.814  0.4558  1.7025  1.0923
 3229TIP3   OH231245   3.654   4.225   0.005  0.2056 -0.2842  0.0873
 3229TIP3    H131246   3.653   4.192  -0.085 -1.5241  1.3438 -0.5590
 3229TIP3    H231247   3.717   4.169   0.050  0.2556 -1.9112 -1.8382
 3230TIP3   OH231248   4.431   1.235   1.544 -0.1831 -0.3719 -0.4439
 3230TIP3    H131249   4.410   1.152   1.501 -1.0381  0.9590 -2.7572
 3230TIP3    H231250   4.351   1.286   1.538 -0.4454 -0.1224  3.0520
 3231TIP3   OH231251   0.152   2.369   0.861  0.8546  0.5259 -0.2860
 3231TIP3    H131252   0.144   2.275   0.850 -1.5131  0.6486  0.0027
 3231TIP3    H231253   0.098   2.407   0.791  0.7979  1.6292  0.3242
 3232TIP3   OH231254   5.872   1.953   7.816 -0.4826  0.6762 -0.5372
 3232TIP3    H131255   5.907   2.038   7.839 -0.3412  0.9075 -1.5361
 3232TIP3    H231256   5.823   1.924   7.893  2.9181 -0.2404  1.4466
 3233TIP3   OH231257   3.769   3.236   1.786 -0.7568  0.7303 -0.1947
 3233TIP3    H131258   3.819   3.313   1.811 -1.5687  0.8439  1.1832
 3233TIP3    H231259   3.788   3.172   1.855  0.1230 -0.4356 -1.4573
 3234TIP3   OH231260   0.314   3.253   8.091 -0.1217  0.8102 -1.1334
 3234TIP3    H131261   0.367   3.222   8.165  0.3590  2.1100 -0.9088
 3234TIP3    H231262   0.224   3.238   8.118  0.0719 -1.4033 -1.4984
 3235TIP3   OH231263   4.804   2.739   1.987  0.4672  0.0865 -0.3193
 3235TIP3    H131264   4.857   2.685   1.929 -0.2016 -1.1785  0.2216
 3235TIP3    H231265   4.848   2.734   2.071 -0.0236 -0.2619 -0.0789
 3236TIP3   OH231266   0.530   0.112   1.191  0.2772  0.0333 -0.3113
 3236TIP3    H131267   0.487   0.065   1.262 -0.7009  0.0826 -0.8489
 3236TIP3    H231268   0.600   0.054   1.162  0.0323 -0.4346  0.0261
 3237TIP3   OH231269   0.363   2.974   2.004 -0.9186  0.0496 -0.9393
 3237TIP3    H131270   0.366   3.000   2.096  0.2327 -0.8817 -0.6966
 3237TIP3    H231271   0.304   3.038   1.964 -1.3471  0.5467  0.4079
 3238TIP3   OH231272   4.080   0.533   8.581 -0.6342  0.0423  0.0279
 3238TIP3    H131273   4.161   0.570   8.545  0.9110 -1.8354  1.3657
 3238TIP3    H231274   4.037   0.492   8.506 -1.1011  2.1821 -0.9630
 3239TIP3   OH231275   0.205   2.065   2.634  0.8958 -0.2545  0.3051
 3239TIP3    H131276   0.140   2.082   2.702  1.8658 -2.1612  1.8062
 3239TIP3    H231277   0.276   2.020   2.679  2.5895  0.3590 -1.5755
 3240TIP3   OH231278   3.340   3.902   1.131  0.6367 -0.3400 -0.1047
 3240TIP3    H131279   3.380   3.987   1.111  0.9312 -0.5115 -0.2579
 3240TIP3    H231280   3.252   3.923   1.162 -0.1795 -0.0931 -2.4088
 3241TIP3   OH231281   2.255   3.069   1.640  0.2253  0.4077 -0.0237
 3241TIP3    H131282   2.170   3.067   1.684  0.2353  0.7727  0.0158
 3241TIP3    H231283   2.239   3.033   1.553 -0.0255  0.7286 -0.1098
 3242TIP3   OH231284   2.410   3.619   0.721 -0.0288  0.7384  0.4696
 3242TIP3    H131285   2.441   3.656   0.804 -1.4455 -0.2486  1.4850
 3242TIP3    H231286   2.415   3.524   0.734 -0.8688  0.5719 -0.3348
 3243TIP3   OH231287   6.691   4.560   7.350 -0.3236 -0.4802 -0.2855
 3243TIP3    H131288   6.705   4.605   7.267  1.6242 -2.0966 -0.9078
 3243TIP3    H231289   6.669   4.470   7.325  1.2002 -1.2338  0.8920
 3244TIP3   OH231290   6.188   3.955   2.083  0.1001  0.1206  0.0880
 3244TIP3    H131291   6.113   3.897   2.096 -0.2590  0.8604  1.5489
 3244TIP3    H231292   6.224   3.967   2.170  1.8199 -0.0530 -0.5676
 3245TIP3   OH231293   0.603   2.439   3.161  0.1368 -0.2901  0.5743
 3245TIP3    H131294   0.574   2.527   3.184 -0.6763 -0.5602  0.6218
 3245TIP3    H231295   0.663   2.451   3.087  1.6120  0.4625  1.8356
 3246TIP3   OH231296   3.990   6.442   8.147  0.4528  0.4619 -0.2252
 3246TIP3    H131297   4.009   6.358   8.106  1.7949 -0.3371  1.8329
 3246TIP3    H231298   4.067   6.496   8.127 -0.1939  1.0642 -1.1454
 3247TIP3   OH231299   4.017   1.781   1.088 -0.1427 -0.2547  0.1291
 3247TIP3    H131300   4.086   1.846   1.106 -0.1810 -0.3906  0.8082
 3247TIP3    H231301   3.955   1.828   1.032 -0.5705  0.5704  1.2512
 3248TIP3   OH231302   5.444   5.981   0.264 -0.7494  0.3369 -1.0415
 3248TIP3    H131303   5.480   5.956   0.349 -1.3827  1.6823 -0.3372
 3248TIP3    H231304   5.491   6.062   0.241  0.4289 -0.7448 -2.6796
 3249TIP3   OH231305   4.643   4.226   1.756 -0.0620 -0.0678  0.0024
 3249TIP3    H131306   4.624   4.152   1.814 -0.4015 -0.3575 -0.4689
 3249TIP3    H231307   4.601   4.301   1.798 -0.0362 -0.2155  0.2934
 3250TIP3   OH231308   2.014   5.172   8.109  0.3849  0.4500  0.5958
 3250TIP3    H131309   1.992   5.172   8.202  1.6338  0.5968  0.9087
 3250TIP3    H231310   2.099   5.216   8.104  0.0206  1.0661 -0.6963
 3251TIP3   OH231311   5.015   3.062   1.302 -0.0193 -0.1535 -0.1786
 3251TIP3    H131312   5.092   3.100   1.259 -1.0195  1.4421 -0.6747
 3251TIP3    H231313   4.949   3.059   1.233 -1.1738  0.9644  0.8245
 3252TIP3   OH231314   2.442   0.574   0.016 -0.2474 -0.3810  0.2880
 3252TIP3    H131315   2.449   0.480   0.001 -1.3201 -0.3677 -0.4353
 3252TIP3    H231316   2.531   0.607   0.007  0.0120 -1.2208 -0.2938
 3253TIP3   OH231317   2.232   0.778   0.404  0.2783  0.6489 -0.3133
 3253TIP3    H131318   2.190   0.857   0.370 -2.4192 -0.7953 -0.6167
 3253TIP3    H231319   2.251   0.725   0.327  0.0890  0.1144 -0.0035
 3254TIP3   OH231320   5.943   0.721   1.889  0.1871 -0.5370 -0.7182
 3254TIP3    H131321   5.848   0.732   1.885 -0.2564 -3.2300  0.3115
 3254TIP3    H231322   5.960   0.643   1.835  1.9134  0.2792 -1.4164
 3255TIP3   OH231323   3.760   5.849   7.472  0.4769 -0.0725 -0.1112
 3255TIP3    H131324   3.717   5.797   7.405 -2.7771 -0.1527  1.8427
 3255TIP3    H231325   3.759   5.939   7.438 -1.6014 -0.0328 -0.0336
 3256TIP3   OH231326   1.149   5.547   8.136  0.1558 -0.3679  0.3763
 3256TIP3    H131327   1.103   5.533   8.053 -2.2928  1.6243  1.2734
 3256TIP3    H231328   1.173   5.640   8.135 -0.0655 -0.2679  1.9517
 3257TIP3   OH231329   2.132   2.016   1.692 -0.0287  0.0387  0.3141
 3257TIP3    H131330   2.099   2.064   1.616 -0.2475 -1.5653 -0.6541
 3257TIP3    H231331   2.160   1.932   1.657  1.5853 -0.0740  1.7342
 3258TIP3   OH231332   6.370   1.949   8.155  0.3314  0.1115 -0.0460
 3258TIP3    H131333   6.448   1.911   8.115 -0.4004  0.5074 -1.9448
 3258TIP3    H231334   6.390   2.042   8.162  0.5698  0.0012  0.8178
 3259TIP3   OH231335   1.812   2.098   7.520 -0.5107 -0.2048  0.2806
 3259TIP3    H131336   1.875   2.096   7.447 -1.9705  0.1639 -1.0407
 3259TIP3    H231337   1.823   2.014   7.563  1.0374 -0.0643  0.2264
 3260TIP3   OH231338   0.348   2.224   0.556 -0.5003 -0.3685  0.8626
 3260TIP3    H131339   0.424   2.166   0.559 -0.5726 -0.6227 -1.0679
 3260TIP3    H231340   0.371   2.297   0.614  1.5206 -0.0975 -0.2296
 3261TIP3   OH231341   5.506   2.065   1.191  0.0713  0.0290  0.2076
 3261TIP3    H131342   5.511   2.106   1.278 -2.3100 -0.7561  0.7823
 3261TIP3    H231343   5.561   2.121   1.135 -0.9153  2.4761  1.5176
 3262TIP3   OH231344   3.210   1.259   1.134 -0.3459  0.0415  0.0343
 3262TIP3    H131345   3.142   1.226   1.076  2.2218  0.1808 -3.3475
 3262TIP3    H231346   3.214   1.353   1.117  0.3243  0.1192  0.5645
 3263TIP3   OH231347   1.252   2.612   0.250  0.5579 -0.1219 -0.2357
 3263TIP3    H131348   1.257   2.529   0.297 -0.1037 -0.2597 -0.4007
 3263TIP3    H231349   1.320   2.604   0.182  1.4100  0.0223  0.5873
 3264TIP3   OH231350   3.564   6.096   1.478  1.0534  0.5134 -0.6870
 3264TIP3    H131351   3.570   6.189   1.456 -0.5270  0.7963 -0.0787
 3264TIP3    H231352   3.638   6.080   1.537  1.0296  1.5228 -0.3669
 3265TIP3   OH231353   1.225   0.879   0.839  0.0415 -0.1448 -0.3479
 3265TIP3    H131354   1.293   0.817   0.811 -0.9737 -1.4356 -0.0878
 3265TIP3    H231355   1.273   0.951   0.879  1.3717  0.1652 -2.3441
 3266TIP3   OH231356   3.497   2.244   8.082  0.3114 -0.0597  0.3295
 3266TIP3    H131357   3.435   2.294   8.029  1.3622  1.2549  0.2744
 3266TIP3    H231358   3.528   2.174   8.024 -0.9669 -0.6165  0.3048
 3267TIP3   OH231359   0.198   0.858   7.861  0.1689  0.6581 -0.1498
 3267TIP3    H131360   0.200   0.939   7.810  2.1593  0.9765  0.3399
 3267TIP3    H231361   0.124   0.809   7.825 -0.8343  2.4981 -0.7339
 3268TIP3   OH231362   0.055   4.947   2.498  0.1917 -0.0988  0.2233
 3268TIP3    H131363   0.058   4.851   2.491  1.4294 -0.0062 -0.8027
 3268TIP3    H231364   0.147   4.974   2.499 -0.0318  1.2664 -2.9334
 3269TIP3   OH231365   1.916   5.002   8.577 -0.3164  0.5486  0.4307
 3269TIP3    H131366   1.981   5.007   8.648 -2.1739 -2.0960  2.5429
 3269TIP3    H231367   1.845   5.058   8.607 -0.8806 -0.1410  0.3956
 3270TIP3   OH231368   6.766   5.415   1.898  0.7334  0.2818  0.5529
 3270TIP3    H131369   6.751   5.458   1.814 -0.8558  0.9474  1.1259
 3270TIP3    H231370   6.722   5.330   1.890 -1.1103  1.1153  1.3089
 3271TIP3   OH231371   3.212   0.272   7.690  0.0334 -0.2827  0.2137
 3271TIP3    H131372   3.188   0.190   7.732  2.7960 -1.1221  0.3325
 3271TIP3    H231373   3.224   0.334   7.762 -0.7770 -0.1083  0.2109
 3272TIP3   OH231374   5.156   6.652   7.401 -0.5328  0.1770 -0.3499
 3272TIP3    H131375   5.082   6.711   7.411 -1.4562 -0.4737 -2.6304
 3272TIP3    H231376   5.167   6.643   7.306  1.6956 -0.7152 -0.0712
 3273TIP3   OH231377   1.018   3.940   8.459 -0.3943  0.5088  0.2212
 3273TIP3    H131378   1.108   3.962   8.482 -1.1267  3.0008  1.0199
 3273TIP3    H231379   0.966   4.015   8.489 -2.5018  0.1020 -2.0407
 3274TIP3   OH231380   1.885   1.377   1.291 -0.5014  0.2611 -0.0078
 3274TIP3    H131381   1.846   1.346   1.373 -0.8312 -0.3458 -0.3847
 3274TIP3    H231382   1.831   1.337   1.223 -1.2389  2.0435 -0.5263
 3275TIP3   OH231383   6.701   5.888   1.093  0.0471  0.0382  0.0022
 3275TIP3    H131384   6.755   5.870   1.170  1.4138  0.6808 -0.7676
 3275TIP3    H231385   6.621   5.926   1.129  0.2938 -0.4775  1.1494
 3276TIP3   OH231386   5.196   2.415   8.021  0.2610 -0.0945  0.5469
 3276TIP3    H131387   5.121   2.372   7.979  1.3465 -0.9769 -0.5634
 3276TIP3    H231388   5.264   2.347   8.025  1.4744  1.0550  0.2652
 3277TIP3   OH231389   6.339   3.152   0.107 -0.6948 -0.2756  0.1531
 3277TIP3    H131390   6.257   3.196   0.085  0.6134  1.5116 -1.4581
 3277TIP3    H231391   6.342   3.077   0.048 -0.8743  0.0219 -0.2438
 3278TIP3   OH231392   4.246   5.012   7.970 -0.0506 -0.7593 -0.0617
 3278TIP3    H131393   4.261   5.024   7.876 -1.0775 -0.2128 -0.1625
 3278TIP3    H231394   4.234   4.918   7.980  0.9229 -0.9244 -0.3387
 3279TIP3   OH231395   6.758   3.420   0.626  0.2398  0.3536  0.2824
 3279TIP3    H131396   6.696   3.363   0.673  0.5909 -0.8302 -0.6342
 3279TIP3    H231397   6.842   3.405   0.671  0.5522 -0.6936 -0.5928
 3280TIP3   OH231398   0.135   0.246   1.627  0.0568 -0.7763  0.1589
 3280TIP3    H131399   0.068   0.280   1.568 -2.1405 -1.4532  2.0751
 3280TIP3    H231400   0.184   0.323   1.655 -1.7187  0.1906  0.7701
 3281TIP3   OH231401   5.252   2.615   0.179 -0.2777 -0.1249  0.1376
 3281TIP3    H131402   5.305   2.689   0.149  1.0905 -0.8582  0.6384
 3281TIP3    H231403   5.265   2.613   0.274 -0.2538 -1.0198  0.1277
 3282TIP3   OH231404   0.024   4.666   7.628 -0.1260 -0.4857 -0.1207
 3282TIP3    H131405  -0.027   4.594   7.591  1.5614 -1.1984 -1.1960
 3282TIP3    H231406   0.019   4.735   7.562  1.4240 -1.1008 -0.9437
 3283TIP3   OH231407   4.571   1.167   7.112 -0.4697 -0.2379 -0.0562
 3283TIP3    H131408   4.609   1.230   7.173 -1.2836  0.7590 -0.5521
 3283TIP3    H231409   4.604   1.082   7.142  3.1705  0.6002 -1.1323
 3284TIP3   OH231410   1.147   5.889   1.561 -0.7118 -0.5998 -0.5848
 3284TIP3    H131411   1.102   5.809   1.587 -1.5048 -0.2984 -0.9986
 3284TIP3    H231412   1.080   5.957   1.566  0.1527  0.2074  0.5650
 3285TIP3   OH231413   3.497   5.155   1.945 -0.4468 -0.0113  0.6980
 3285TIP3    H131414   3.578   5.204   1.954  0.1453 -0.5100 -1.4307
 3285TIP3    H231415   3.454   5.193   1.868 -0.5653 -1.9447 -0.2459
 3286TIP3   OH231416   1.423   1.241   1.609 -0.1444  0.3348  0.2283
 3286TIP3    H131417   1.409   1.262   1.517 -3.3083  2.7353  1.1017
 3286TIP3    H231418   1.368   1.164   1.624 -0.5252  0.6297  0.3516
 3287TIP3   OH231419   0.135   6.005   6.629  0.1820 -0.0885  0.6239
 3287TIP3    H131420   0.137   6.101   6.637 -0.1138  0.0286 -0.6176
 3287TIP3    H231421   0.087   5.976   6.707  2.1843  0.6007  2.2005
 3288TIP3   OH231422   3.516   6.509   2.807  0.5193  0.2031 -0.0311
 3288TIP3    H131423   3.524   6.601   2.832  2.2022  0.3412 -0.9506
 3288TIP3    H231424   3.475   6.467   2.883  0.8274  1.4842  0.8802
 3289TIP3   OH231425   1.441   1.304   7.299  0.6543 -0.4672 -0.4899
 3289TIP3    H131426   1.436   1.208   7.306  2.1652 -0.6847 -1.9224
 3289TIP3    H231427   1.414   1.335   7.385  0.1094 -2.1767  0.0055
 3290TIP3   OH231428   3.311   3.505   0.487  0.3557  0.0959 -0.1932
 3290TIP3    H131429   3.281   3.524   0.576  1.5326  1.0645  0.0254
 3290TIP3    H231430   3.245   3.545   0.430  0.0115  0.1664  0.2464
 3291TIP3   OH231431   2.192   2.160   0.462  0.2472 -0.2788  0.1585
 3291TIP3    H131432   2.133   2.214   0.515 -0.0629 -0.9792  0.5432
 3291TIP3    H231433   2.266   2.218   0.442  0.4219 -0.0251  1.4539
 3292TIP3   OH231434   2.062   1.513   2.481  0.4757  0.1318 -0.2594
 3292TIP3    H131435   2.046   1.596   2.526  0.0710  0.5101 -1.0667
 3292TIP3    H231436   2.067   1.448   2.550 -0.7895  0.5961  0.2982
 3293TIP3   OH231437   0.042   2.077   7.789  0.0536  0.4876 -0.5089
 3293TIP3    H131438   0.117   2.044   7.740  0.5297  0.2493  0.3572
 3293TIP3    H231439   0.015   2.004   7.844 -0.5133  0.7305 -0.4546
 3294TIP3   OH231440   4.621   2.222   0.416 -0.2389 -0.6301  0.5329
 3294TIP3    H131441   4.628   2.135   0.455  1.3403 -0.1860  1.3193
 3294TIP3    H231442   4.711   2.246   0.394 -0.9289 -0.4270 -2.5276
 3295TIP3   OH231443   1.646   5.799   7.425  0.2547  0.4686 -0.1042
 3295TIP3    H131444   1.689   5.810   7.340  0.1954 -0.3748 -0.2547
 3295TIP3    H231445   1.710   5.830   7.489  1.3588 -1.2976 -0.2848
 3296TIP3   OH231446   4.156   1.639   0.294 -0.3398 -0.4210 -0.1991
 3296TIP3    H131447   4.182   1.629   0.202 -0.5853  0.0900 -0.3298
 3296TIP3    H231448   4.192   1.562   0.338 -0.6276 -0.9183 -0.8151
 3297TIP3   OH231449   2.971   5.657   1.764  0.2573 -0.3846 -0.0225
 3297TIP3    H131450   2.877   5.650   1.747  0.0671  0.1940  0.7319
 3297TIP3    H231451   3.004   5.713   1.693 -0.0516 -0.1753 -0.0004
 3298TIP3   OH231452   3.198   2.472   8.414  0.0110 -0.3352 -0.3696
 3298TIP3    H131453   3.269   2.506   8.358  0.1179 -0.5380 -0.3600
 3298TIP3    H231454   3.208   2.377   8.408 -0.0271 -0.3567 -0.0647
 3299TIP3   OH231455   5.449   1.668   8.162  0.0949  0.0703  0.5267
 3299TIP3    H131456   5.471   1.695   8.251 -0.9746 -0.5046  0.9858
 3299TIP3    H231457   5.511   1.598   8.142  0.1667  0.0149  0.9259
 3300TIP3   OH231458   5.236   4.077   8.113 -0.1996  0.2019 -0.0909
 3300TIP3    H131459   5.331   4.081   8.109 -0.1353 -1.2486 -0.4322
 3300TIP3    H231460   5.215   3.984   8.111 -1.6001  0.4663  0.8176
 3301TIP3   OH231461   6.651   4.751   7.808  0.3060 -0.0690 -0.0245
 3301TIP3    H131462   6.728   4.696   7.795  1.3479  1.0765  1.0221
 3301TIP3    H231463   6.678   4.838   7.779 -0.9754  0.1354 -0.6928
 3302TIP3   OH231464   0.867   3.138   2.088 -0.1758  0.2159  0.1615
 3302TIP3    H131465   0.846   3.210   2.148 -1.2323  0.1774 -0.1491
 3302TIP3    H231466   0.852   3.173   2.001  0.4810 -0.0133 -0.0514
 3303TIP3   OH231467   6.383   3.467   0.419  0.3853  0.1139  0.2793
 3303TIP3    H131468   6.347   3.483   0.507  0.0141  0.5493  0.0508
 3303TIP3    H231469   6.306   3.450   0.365  0.6624 -0.8840  0.1805
 3304TIP3   OH231470   1.367   6.849   7.504  0.0534 -0.3525  0.5334
 3304TIP3    H131471   1.460   6.853   7.524  0.9518 -0.3820 -3.0626
 3304TIP3    H231472   1.358   6.773   7.446 -2.1780 -0.1360  0.5096
 3305TIP3   OH231473   6.662   4.586   1.433  0.1554 -0.3153  0.0484
 3305TIP3    H131474   6.637   4.494   1.430 -0.5872 -0.0970 -0.8809
 3305TIP3    H231475   6.610   4.623   1.504  0.4663 -0.6128  0.4335
 3306TIP3   OH231476   0.155   4.415   1.219 -0.0010  0.0551  0.2002
 3306TIP3    H131477   0.069   4.440   1.184  0.8994  0.3606 -2.0119
 3306TIP3    H231478   0.204   4.387   1.142  1.7687 -0.4799  1.4687
 3307TIP3   OH231479   6.056   2.919   0.641 -0.1208 -0.5174 -0.1202
 3307TIP3    H131480   6.109   2.983   0.594  0.6087 -0.4905  0.7192
 3307TIP3    H231481   6.113   2.887   0.711 -0.5432 -1.9421 -0.4013
 3308TIP3   OH231482   1.573   4.451   6.707 -1.0166 -0.4111  0.3669
 3308TIP3    H131483   1.506   4.512   6.675 -0.6651 -0.5205 -0.6074
 3308TIP3    H231484   1.617   4.420   6.628  1.8776  1.5709  1.0397
 3309TIP3   OH231485   0.396   5.324   8.050 -0.4356  0.2817 -0.5787
 3309TIP3    H131486   0.448   5.325   8.130 -0.6322  0.2430 -0.4503
 3309TIP3    H231487   0.397   5.232   8.022 -0.9432  0.1726 -0.2439
 3310TIP3   OH231488   4.779   6.258   1.666  0.0587 -0.1205 -0.6108
 3310TIP3    H131489   4.831   6.255   1.747  1.5432 -0.8781 -1.5628
 3310TIP3    H231490   4.715   6.328   1.682  1.6853  1.2082  0.4202
 3311TIP3   OH231491   2.044   5.695   8.436 -0.1023  0.5299  0.0939
 3311TIP3    H131492   2.093   5.630   8.488 -0.0516  1.1394  0.8230
 3311TIP3    H231493   2.078   5.779   8.465 -0.8138  0.9224 -0.1924
 3312TIP3   OH231494   6.273   5.996   7.777  0.2046 -0.8456 -0.1035
 3312TIP3    H131495   6.350   5.972   7.829  0.3477 -0.9507 -0.3591
 3312TIP3    H231496   6.267   6.091   7.787  0.9663 -0.6968 -0.8747
 3313TIP3   OH231497   5.814   4.949   2.115 -0.4080  0.2335  0.0430
 3313TIP3    H131498   5.873   4.880   2.147  1.3688  0.7910 -1.8075
 3313TIP3    H231499   5.839   5.027   2.164  0.3102  0.4284 -0.6156
 3314TIP3   OH231500   4.326   0.116   2.131  0.0690  0.5749 -0.4486
 3314TIP3    H131501   4.250   0.103   2.187  0.8045  1.4689  0.7819
 3314TIP3    H231502   4.298   0.181   2.067 -0.5003  0.1806 -0.6082
 3315TIP3   OH231503   2.614   1.284   0.617 -0.0937 -0.4591  0.2036
 3315TIP3    H131504   2.615   1.192   0.644  1.7112 -1.1171 -1.7882
 3315TIP3    H231505   2.582   1.283   0.527 -1.6346  1.1039  0.6765
 3316TIP3   OH231506   4.836   5.224   1.037  0.2734 -0.1007 -0.4246
 3316TIP3    H131507   4.769   5.259   1.096  0.5928 -1.2696  0.6516
 3316TIP3    H231508   4.866   5.144   1.079  1.3585 -0.3346 -1.5987
 3317TIP3   OH231509   2.731   6.318   3.097 -0.0625 -0.4226  0.2518
 3317TIP3    H131510   2.800   6.367   3.053  2.1060 -2.1616  1.4952
 3317TIP3    H231511   2.715   6.242   3.041 -0.6860 -0.2351  0.1693
 3318TIP3   OH231512   1.343   0.603   8.152 -0.0136 -0.4319 -0.4959
 3318TIP3    H131513   1.317   0.546   8.080 -0.7159 -0.6911 -0.0482
 3318TIP3    H231514   1.421   0.562   8.189 -1.8024 -2.4631  1.3062
 3319TIP3   OH231515   6.147   0.714   0.115  0.0953  0.0932 -0.2843
 3319TIP3    H131516   6.211   0.653   0.080 -0.4925 -0.4963 -0.3494
 3319TIP3    H231517   6.114   0.672   0.195 -2.5689 -1.1899 -1.9088
 3320TIP3   OH231518   6.224   1.173   6.882  0.4143  0.1844 -0.0983
 3320TIP3    H131519   6.208   1.162   6.975  3.7065  0.2653  0.5748
 3320TIP3    H231520   6.257   1.263   6.873  0.3137  0.1224 -1.3333
 3321TIP3   OH231521   6.436   3.704   0.702  0.4783 -0.1498 -0.2176
 3321TIP3    H131522   6.531   3.712   0.693  0.5462 -0.3481  0.3035
 3321TIP3    H231523   6.424   3.647   0.777 -0.0535 -0.4142 -0.4987
 3322TIP3   OH231524   2.026   2.730   1.779  0.0694 -0.1910 -0.2149
 3322TIP3    H131525   2.028   2.824   1.795 -1.4009  0.0331 -1.2298
 3322TIP3    H231526   2.092   2.715   1.711  0.4761  0.0555  0.1215
 3323TIP3   OH231527   1.871   1.407   0.982 -0.1349 -0.3908  0.4613
 3323TIP3    H131528   1.817   1.432   0.907  1.1429 -0.7960 -0.6394
 3323TIP3    H231529   1.896   1.490   1.022  0.6353 -0.0607 -0.6577
 3324TIP3   OH231530   1.666   3.556   6.911  0.7597 -0.0080  0.4227
 3324TIP3    H131531   1.603   3.628   6.906  0.0766 -0.6607 -0.7433
 3324TIP3    H231532   1.743   3.589   6.865  0.4008 -0.0410 -0.2228
 3325TIP3   OH231533   2.709   0.634   7.532  0.3162  0.0270 -0.8083
 3325TIP3    H131534   2.757   0.688   7.469 -0.7231  3.6315  1.2645
 3325TIP3    H231535   2.634   0.600   7.483  1.5758 -0.5518 -2.4339
 3326TIP3   OH231536   3.263   2.943   1.527  0.2839  1.1745  0.3030
 3326TIP3    H131537   3.297   2.871   1.580  1.0696  0.3709 -1.2436
 3326TIP3    H231538   3.340   2.983   1.488 -0.2482  2.0316  0.1060
 3327TIP3   OH231539   1.145   1.101   7.793 -0.5205  0.0441  0.3224
 3327TIP3    H131540   1.110   1.165   7.731 -0.0540  0.0469  0.0590
 3327TIP3    H231541   1.189   1.154   7.859 -1.0065  0.0401  0.6502
 3328TIP3   OH231542   5.314   5.654   0.346  0.0123 -0.4118  0.4378
 3328TIP3    H131543   5.223   5.683   0.337  0.2176  0.4689  1.0281
 3328TIP3    H231544   5.308   5.566   0.382 -0.6352  0.6913  3.3477
 3329TIP3   OH231545   6.660   2.890   1.535  0.0209 -0.0606  1.0738
 3329TIP3    H131546   6.674   2.954   1.466 -1.6838 -0.4053  0.3656
 3329TIP3    H231547   6.664   2.805   1.491  1.8372 -0.4643  1.9318
 3330TIP3   OH231548   4.182   1.427   8.074  0.2838 -0.1153 -0.2225
 3330TIP3    H131549   4.263   1.466   8.041  0.6359  1.4156  2.2037
 3330TIP3    H231550   4.139   1.498   8.122 -2.0262 -1.1669 -0.6012
 3331TIP3   OH231551   1.265   1.937   0.701 -0.1825  0.0505 -0.0516
 3331TIP3    H131552   1.264   2.019   0.651 -0.1542 -0.5949 -1.1540
 3331TIP3    H231553   1.197   1.884   0.660 -0.5821 -0.2721  1.0152
 3332TIP3   OH231554   1.503   4.747   7.538 -0.1521 -0.3046  0.1110
 3332TIP3    H131555   1.465   4.818   7.485  1.3475 -0.9012 -1.8542
 3332TIP3    H231556   1.591   4.777   7.558 -0.3853 -0.5051  1.5529
 3333TIP3   OH231557   3.446   4.355   7.116 -0.0638  0.0982  0.1828
 3333TIP3    H131558   3.375   4.296   7.141  0.7450 -0.9112  0.1592
 3333TIP3    H231559   3.401   4.433   7.082 -1.1574 -0.0975  1.0931
 3334TIP3   OH231560   0.947   5.743   0.080 -0.3658 -0.4004 -0.3443
 3334TIP3    H131561   1.001   5.664   0.075  0.4580  0.1913 -1.2401
 3334TIP3    H231562   0.897   5.743  -0.001 -0.1307  0.1463 -0.4974
 3335TIP3   OH231563   4.872   4.275   2.628  0.0150  0.0517  0.4037
 3335TIP3    H131564   4.835   4.328   2.558 -0.6733 -0.4732  0.3534
 3335TIP3    H231565   4.965   4.269   2.608 -0.2613 -0.5138 -0.7423
 3336TIP3   OH231566   0.716   5.614   1.978  0.2378  0.0744 -0.3072
 3336TIP3    H131567   0.650   5.617   2.047  0.3595 -1.1293 -0.1132
 3336TIP3    H231568   0.678   5.664   1.906 -0.9430 -0.7065 -0.2510
 3337TIP3   OH231569   2.579   5.498   2.046  0.0241  0.0753  0.1613
 3337TIP3    H131570   2.540   5.454   1.971 -0.8409 -2.4362  1.9307
 3337TIP3    H231571   2.530   5.580   2.054 -1.8172 -0.9152 -0.3811
 3338TIP3   OH231572   4.494   3.525   7.008  0.0765 -0.3971  0.0760
 3338TIP3    H131573   4.569   3.550   7.062 -0.6359  2.7917 -0.2117
 3338TIP3    H231574   4.454   3.452   7.055  2.1832 -0.8417  1.3043
 3339TIP3   OH231575   2.364   5.981   7.694 -0.2704 -0.2694 -0.3401
 3339TIP3    H131576   2.402   6.032   7.622 -0.6148 -1.3817 -1.3322
 3339TIP3    H231577   2.433   5.919   7.718 -0.5367 -0.5988 -0.4257
 3340TIP3   OH231578   5.492   0.394   2.682 -0.2797  0.3650  0.3028
 3340TIP3    H131579   5.489   0.344   2.763  0.6742  1.8468  1.2970
 3340TIP3    H231580   5.439   0.343   2.620 -0.5723 -1.0694  1.6800
 3341TIP3   OH231581   1.789   6.484   7.206 -0.5290 -0.1126 -0.2124
 3341TIP3    H131582   1.712   6.526   7.166 -0.6305 -0.6888 -0.6303
 3341TIP3    H231583   1.863   6.514   7.152 -0.2396  1.6498  1.0855
 3342TIP3   OH231584   6.061   6.167   7.583 -0.0844 -0.0136 -0.2094
 3342TIP3    H131585   6.040   6.253   7.547 -1.2108 -0.6508 -1.1585
 3342TIP3    H231586   5.995   6.108   7.546  0.9821 -1.3918 -0.0324
 3343TIP3   OH231587   3.575   1.508   2.286  0.3162  0.2265  0.0546
 3343TIP3    H131588   3.621   1.442   2.338  0.3728  0.4480  0.2812
 3343TIP3    H231589   3.639   1.535   2.220 -0.0804 -0.8001 -0.7836
 3344TIP3   OH231590   5.135   5.591   1.684 -0.0337  0.0854  0.6198
 3344TIP3    H131591   5.078   5.658   1.646 -0.3640  0.1091  1.1405
 3344TIP3    H231592   5.207   5.639   1.724  0.4451  0.0476 -0.1713
 3345TIP3   OH231593   3.565   3.249   1.603 -0.1726  0.3067 -0.3901
 3345TIP3    H131594   3.637   3.258   1.666 -0.9787  0.2776  0.5582
 3345TIP3    H231595   3.591   3.175   1.548  0.6642  0.4932 -0.2694
 3346TIP3   OH231596   4.508   1.649   7.031  0.1213 -0.6072  0.1691
 3346TIP3    H131597   4.526   1.742   7.026 -0.5200 -0.4214  1.1265
 3346TIP3    H231598   4.510   1.619   6.940 -1.2583  0.6487 -0.3122
 3347TIP3   OH231599   1.055   2.916   1.773 -0.6652 -0.3528  0.0383
 3347TIP3    H131600   1.126   2.930   1.710  0.1423 -0.6499  0.8589
 3347TIP3    H231601   1.091   2.947   1.857 -1.8262  0.3372  0.3160
 3348TIP3   OH231602   2.690   3.835   7.524 -0.0944 -0.0303 -0.8487
 3348TIP3    H131603   2.719   3.767   7.584  1.1545  0.3130 -1.0227
 3348TIP3    H231604   2.706   3.917   7.571 -1.4976  0.1699 -0.6740
 3349TIP3   OH231605   3.687   6.326   7.713  0.0275  0.5012 -0.2101
 3349TIP3    H131606   3.612   6.266   7.719  0.2257  0.1844 -0.8221
 3349TIP3    H231607   3.688   6.353   7.621  0.3446  0.9297 -0.0851
 3350TIP3   OH231608   5.087   4.118   1.728 -0.2497  0.2260  1.0964
 3350TIP3    H131609   5.034   4.194   1.705  1.8735  1.5328  0.2192
 3350TIP3    H231610   5.027   4.060   1.775 -2.5928  1.2968 -0.3781
 3351TIP3   OH231611   1.856   3.666   1.362  0.2427 -0.3731 -0.0873
 3351TIP3    H131612   1.807   3.744   1.389 -1.2772 -1.8668  1.8504
 3351TIP3    H231613   1.908   3.695   1.287 -0.0930  2.5216  0.6534
 3352TIP3   OH231614   1.380   3.387   0.106  0.5061  0.3018 -0.8775
 3352TIP3    H131615   1.451   3.408   0.166 -0.0466  0.6900 -0.3515
 3352TIP3    H231616   1.302   3.423   0.147 -0.0571 -0.4412 -1.2655
 3353TIP3   OH231617   1.503   5.199   0.810  0.1777 -0.1352 -0.0295
 3353TIP3    H131618   1.422   5.168   0.851 -0.0417  0.5175  0.0375
 3353TIP3    H231619   1.508   5.292   0.832  1.9658 -0.5510  1.6491
 3354TIP3   OH231620   4.432   4.873   8.593 -0.4314  0.2323  0.4470
 3354TIP3    H131621   4.378   4.794   8.598  0.0068 -0.1750 -0.7174
 3354TIP3    H231622   4.450   4.883   8.499 -2.3777  3.0403  0.2602
 3355TIP3   OH231623   0.029   1.508   1.919  0.2412 -0.2065 -0.3995
 3355TIP3    H131624   0.077   1.564   1.981 -0.0807 -0.0681 -0.2721
 3355TIP3    H231625   0.060   1.420   1.937  0.8314 -0.0548 -0.6713
 3356TIP3   OH231626   3.856   3.689   0.410 -0.2083 -0.4465  0.2946
 3356TIP3    H131627   3.918   3.749   0.450  0.8645 -0.9538 -0.5279
 3356TIP3    H231628   3.831   3.732   0.328 -0.5272 -0.4923  0.3667
 3357TIP3   OH231629   2.301   2.769   7.311  0.1090  0.0617  0.4084
 3357TIP3    H131630   2.249   2.729   7.380  1.0735 -0.8629  0.6277
 3357TIP3    H231631   2.310   2.701   7.245  0.4651  0.4298  0.0698
 3358TIP3   OH231632   3.598   5.189   2.248 -0.0222  0.5730 -0.5634
 3358TIP3    H131633   3.666   5.122   2.242 -1.0785 -0.5457 -0.3703
 3358TIP3    H231634   3.609   5.242   2.169 -0.5537 -1.1853 -1.8651
 3359TIP3   OH231635   2.968   1.899   2.147 -0.9319 -0.0394 -0.0135
 3359TIP3    H131636   3.006   1.927   2.064 -1.3665  1.0705  0.1472
 3359TIP3    H231637   2.874   1.899   2.131 -1.0543  0.7754  0.6430
 3360TIP3   OH231638   0.054   3.617   0.433 -0.1046  0.0756 -0.5058
 3360TIP3    H131639  -0.034   3.590   0.406  0.0878 -2.4533  0.9957
 3360TIP3    H231640   0.068   3.571   0.516  2.5663  0.5445 -0.6196
 3361TIP3   OH231641   0.671   3.840   0.931  0.0871  0.3338  0.3542
 3361TIP3    H131642   0.727   3.780   0.981 -0.5048  0.3232  1.0282
 3361TIP3    H231643   0.699   3.928   0.958 -1.2944  0.3301  1.9817
 3362TIP3   OH231644   6.262   0.623   2.400  0.4327 -0.3582  0.0729
 3362TIP3    H131645   6.238   0.617   2.308  0.2030 -0.5882  0.1468
 3362TIP3    H231646   6.323   0.697   2.404 -1.7651  1.5915  0.1491
 3363TIP3   OH231647   0.813   3.244   1.794  0.1106  0.4411  0.6736
 3363TIP3    H131648   0.756   3.302   1.843 -0.9826 -0.3885  0.4297
 3363TIP3    H231649   0.753   3.186   1.747  1.1045  0.8049 -1.1651
 3364TIP3   OH231650   5.867   5.666   7.773 -0.1693  0.3071 -0.5837
 3364TIP3    H131651   5.803   5.628   7.712 -0.1472 -0.9091  0.1270
 3364TIP3    H231652   5.848   5.760   7.772 -1.6863  0.0240 -0.7290
 3365TIP3   OH231653   1.697   2.546   8.518 -0.1360  0.0662  0.5879
 3365TIP3    H131654   1.662   2.527   8.431 -0.4061  2.3912  0.1231
 3365TIP3    H231655   1.777   2.596   8.502 -0.5617  1.1452  1.6703
 3366TIP3   OH231656   2.117   5.036   0.137 -0.0851  0.5562 -0.4973
 3366TIP3    H131657   2.140   5.068   0.224 -3.1300  1.2358  0.1729
 3366TIP3    H231658   2.199   4.999   0.103  1.5428  1.4942  2.0636
 3367TIP3   OH231659   2.578   2.907   7.819 -0.4943 -0.4197  0.0895
 3367TIP3    H131660   2.546   2.830   7.866  0.8260 -0.1778  1.4620
 3367TIP3    H231661   2.515   2.976   7.839 -0.6022 -0.6361  0.4964
 3368TIP3   OH231662   1.135   6.847   0.010  1.2958 -0.4032  0.2791
 3368TIP3    H131663   1.068   6.815   0.071 -0.8904 -0.3668 -1.9368
 3368TIP3    H231664   1.113   6.939  -0.003  0.5242 -0.8564 -1.9421
 3369TIP3   OH231665   4.403   1.881   7.570  0.5352 -0.2962  0.0004
 3369TIP3    H131666   4.327   1.899   7.514  1.7631  2.6476 -0.9318
 3369TIP3    H231667   4.474   1.863   7.508  1.0965 -0.8638  0.7931
 3370TIP3   OH231668   5.544   2.084   1.668 -0.8818  0.0047 -0.1965
 3370TIP3    H131669   5.619   2.075   1.609 -0.9239  0.4221 -0.3183
 3370TIP3    H231670   5.486   2.011   1.645 -0.9873  0.2750 -0.8075
 3371TIP3   OH231671   6.557   2.429   8.511 -0.1689 -0.6409 -0.2841
 3371TIP3    H131672   6.467   2.411   8.486 -0.1466 -0.1947 -0.6917
 3371TIP3    H231673   6.591   2.343   8.538 -0.4992 -0.9497 -0.8139
 3372TIP3   OH231674   0.176   0.960   1.323 -1.1923 -0.1785 -0.1328
 3372TIP3    H131675   0.161   1.013   1.244  0.6183 -2.5152 -2.2357
 3372TIP3    H231676   0.271   0.947   1.325 -1.5602 -3.9180 -0.2905
 3373TIP3   OH231677   6.453   2.860   8.002 -0.2090  0.1547 -0.2044
 3373TIP3    H131678   6.471   2.954   7.995  2.0910 -0.2696 -0.5140
 3373TIP3    H231679   6.469   2.825   7.915  0.3101 -0.7214  0.2258
 3374TIP3   OH231680   0.337   6.603   7.246 -0.6055 -0.0513 -0.2503
 3374TIP3    H131681   0.332   6.509   7.260  0.0613 -0.1611 -0.6562
 3374TIP3    H231682   0.414   6.630   7.297 -1.0697  0.3501  0.2397
 3375TIP3   OH231683   5.023   5.581   8.037  0.4329 -0.6740  0.0210
 3375TIP3    H131684   5.065   5.656   8.079  2.0417 -1.4567 -0.1008
 3375TIP3    H231685   4.952   5.557   8.097 -1.8700  2.4744 -1.1886
 3376TIP3   OH231686   5.676   4.497   2.366 -0.2766 -0.0152  0.1380
 3376TIP3    H131687   5.594   4.542   2.387 -0.5571  0.0932 -1.1284
 3376TIP3    H231688   5.650   4.408   2.342 -0.2356  0.4498 -1.8163
 3377TIP3   OH231689   3.515   5.694   2.240 -0.4482 -0.4845  0.0003
 3377TIP3    H131690   3.432   5.655   2.269 -1.0770  0.4931 -0.4317
 3377TIP3    H231691   3.574   5.684   2.315 -0.7990 -1.6365  0.1381
 3378TIP3   OH231692   4.705   2.675   1.599 -0.5936  0.0202  0.1643
 3378TIP3    H131693   4.785   2.634   1.565 -0.3754  1.6313 -1.4441
 3378TIP3    H231694   4.634   2.624   1.559 -0.3541 -0.3336  0.1830
 3379TIP3   OH231695   1.213   5.411   7.631  0.3666  0.1507  0.1203
 3379TIP3    H131696   1.290   5.354   7.622 -0.3755 -1.0730  1.0806
 3379TIP3    H231697   1.241   5.479   7.693  0.1721 -1.3216  1.9145
 3380TIP3   OH231698   5.965   6.196   0.829 -0.2301  0.1288  0.0139
 3380TIP3    H131699   5.960   6.255   0.754  0.5241 -0.1864 -0.3055
 3380TIP3    H231700   5.891   6.136   0.818  0.7706 -0.9234 -1.3923
 3381TIP3   OH231701   1.747   1.934   1.196  0.1035 -0.5587 -0.0520
 3381TIP3    H131702   1.726   1.898   1.109  0.5238 -2.5384  0.6134
 3381TIP3    H231703   1.764   1.857   1.250  0.2344  0.6522  1.7089
 3382TIP3   OH231704   1.580   1.319   0.769 -0.5231  0.6804 -0.3309
 3382TIP3    H131705   1.647   1.386   0.757  0.1977 -0.2059 -1.6663
 3382TIP3    H231706   1.629   1.236   0.767 -1.7319 -0.0867 -2.8305
 3383TIP3   OH231707   0.001   5.811   2.359 -0.8499 -0.4097 -0.6164
 3383TIP3    H131708   0.018   5.721   2.386 -3.2081 -0.0982  2.6081
 3383TIP3    H231709   0.052   5.865   2.419 -2.0990  0.3414 -0.1661
 3384TIP3   OH231710   4.722   6.420   0.203 -0.0645  0.1078 -0.3133
 3384TIP3    H131711   4.666   6.412   0.280  0.0459  3.6822  0.2888
 3384TIP3    H231712   4.802   6.373   0.227 -0.4466  0.2228  1.3151
 3385TIP3   OH231713   5.649   1.793   7.967 -0.3189 -0.7632 -0.6065
 3385TIP3    H131714   5.577   1.847   7.999 -0.3034 -1.1991  0.1785
 3385TIP3    H231715   5.665   1.731   8.037  1.3949 -0.1411 -0.4079
 3386TIP3   OH231716   2.124   2.892   1.444 -0.5901  0.3528  0.2968
 3386TIP3    H131717   2.123   2.821   1.380 -0.7097 -0.0497  0.7437
 3386TIP3    H231718   2.086   2.967   1.397 -0.8144  0.0195 -0.0550
 3387TIP3   OH231719   1.852   5.814   0.908 -0.2587 -0.3171 -0.1930
 3387TIP3    H131720   1.932   5.864   0.924 -1.3286  0.8371  1.9894
 3387TIP3    H231721   1.854   5.743   0.972 -0.9770 -0.2621 -0.0974
 3388TIP3   OH231722   3.873   0.395   3.089 -0.2480  0.4910 -0.2778
 3388TIP3    H131723   3.933   0.416   3.160  0.5633  0.3641 -0.9063
 3388TIP3    H231724   3.903   0.310   3.057 -0.4027  0.6861 -0.9619
 3389TIP3   OH231725   2.621   1.091   0.959  0.2191 -0.0417 -0.2078
 3389TIP3    H131726   2.679   1.165   0.978  0.7892 -0.9512  1.8357
 3389TIP3    H231727   2.542   1.108   1.010 -0.5778  0.2252 -1.4785
 3390TIP3   OH231728   5.399   6.835   2.247 -0.1709  0.4481 -0.0315
 3390TIP3    H131729   5.471   6.778   2.274 -0.7477 -0.5956 -0.6106
 3390TIP3    H231730   5.358   6.788   2.174 -1.5855  0.8948  0.4402
 3391TIP3   OH231731   0.254   3.194   8.578 -0.5304 -0.1215  0.4651
 3391TIP3    H131732   0.337   3.238   8.594 -1.0000  1.2027 -0.5342
 3391TIP3    H231733   0.248   3.127   8.646  1.5182 -0.5032  0.3081
 3392TIP3   OH231734   6.742   5.869   8.257 -0.0092 -0.3740  0.2331
 3392TIP3    H131735   6.779   5.782   8.246 -1.1371 -1.1448  2.0620
 3392TIP3    H231736   6.809   5.917   8.306  1.0275  0.1552 -1.5995
 3393TIP3   OH231737   3.804   0.357   0.864  0.1207  0.1451  0.1433
 3393TIP3    H131738   3.802   0.279   0.919 -1.3094  0.2100  0.2280
 3393TIP3    H231739   3.765   0.425   0.917  3.4211  1.5963  0.9417
 3394TIP3   OH231740   4.737   5.949   1.768  0.1304 -0.0383  0.2656
 3394TIP3    H131741   4.758   6.033   1.728 -0.4627 -0.4212 -0.9039
 3394TIP3    H231742   4.649   5.928   1.735  0.4211 -1.2869  0.2205
 3395TIP3   OH231743   6.863   4.389   0.502 -0.3554 -0.0425  0.7536
 3395TIP3    H131744   6.904   4.421   0.582 -1.1424 -0.7840  1.4702
 3395TIP3    H231745   6.934   4.386   0.438  0.6144 -0.8862  1.8430
 3396TIP3   OH231746   4.211   4.710   7.630  0.0228  0.0549  0.1116
 3396TIP3    H131747   4.217   4.633   7.574 -1.6586 -0.3298  0.4218
 3396TIP3    H231748   4.239   4.782   7.574 -1.5562 -0.3356 -1.2645
 3397TIP3   OH231749   0.861   6.363   2.437  0.4875  0.3153 -0.1243
 3397TIP3    H131750   0.951   6.332   2.434  0.3050 -0.1733 -0.5086
 3397TIP3    H231751   0.861   6.427   2.509  1.4672  1.3771 -1.0318
 3398TIP3   OH231752   3.646   5.327   7.072  0.3946  0.3415  0.0977
 3398TIP3    H131753   3.720   5.294   7.122 -0.6404  0.4708  1.7984
 3398TIP3    H231754   3.638   5.267   6.998  0.5558 -1.2981  1.3568
 3399TIP3   OH231755   5.947   6.725   1.980  0.5447 -0.4355  0.3109
 3399TIP3    H131756   5.875   6.738   1.919 -0.9380 -0.2838  2.0281
 3399TIP3    H231757   6.025   6.723   1.924 -0.4738  2.0112 -1.3807
 3400TIP3   OH231758   3.555   0.601   2.091  0.7266  0.2813 -0.6383
 3400TIP3    H131759   3.580   0.659   2.163 -0.3558  1.0695 -0.8804
 3400TIP3    H231760   3.551   0.514   2.132  1.9494  0.4182 -0.1812
 3401TIP3   OH231761   5.196   1.207   1.357 -0.1175 -0.2943 -0.5947
 3401TIP3    H131762   5.271   1.155   1.387  0.5330  1.5801  1.3329
 3401TIP3    H231763   5.233   1.268   1.294  0.3166  1.4012  1.2014
 3402TIP3   OH231764   6.834   1.216   7.558 -0.0908  0.5143 -0.1241
 3402TIP3    H131765   6.767   1.249   7.619  0.8506  2.1312  0.0711
 3402TIP3    H231766   6.860   1.292   7.507  0.9237 -0.3011 -0.8601
 3403TIP3   OH231767   3.472   1.193   1.010 -0.5598 -0.1781  0.2126
 3403TIP3    H131768   3.463   1.187   1.105 -0.6194  0.7884  0.2800
 3403TIP3    H231769   3.383   1.191   0.976 -0.7561  2.2087  0.3913
 3404TIP3   OH231770   2.686   3.195   7.443 -0.1813 -0.3079 -0.6512
 3404TIP3    H131771   2.626   3.132   7.485 -0.5448 -0.1101 -0.8664
 3404TIP3    H231772   2.715   3.251   7.515 -0.8924  0.1022 -0.6796
 3405TIP3   OH231773   4.967   1.796   0.241 -0.7187 -0.0444 -0.3660
 3405TIP3    H131774   4.907   1.836   0.179 -1.6043 -0.1339  0.4111
 3405TIP3    H231775   4.926   1.713   0.264  0.5105 -0.8868 -1.0497
 3406TIP3   OH231776   5.006   2.338   1.295 -0.0557  0.3618  0.0304
 3406TIP3    H131777   4.957   2.305   1.220 -0.4744  2.7936 -0.8360
 3406TIP3    H231778   5.095   2.351   1.263 -0.0870  0.8252  0.1256
 3407TIP3   OH231779   6.555   0.468   1.140 -0.0634  0.0175  0.5170
 3407TIP3    H131780   6.599   0.489   1.058  0.2792 -0.3491  0.6009
 3407TIP3    H231781   6.625   0.435   1.197 -0.3454  0.0005  0.8581
 3408TIP3   OH231782   5.012   3.012   1.592  0.6534  0.6042  0.2852
 3408TIP3    H131783   4.995   3.084   1.652 -1.3833 -0.1377  0.6760
 3408TIP3    H231784   5.015   3.053   1.506 -0.0392  1.2037  0.5392
 3409TIP3   OH231785   6.088   1.566   0.322 -0.2957 -0.0850  0.6932
 3409TIP3    H131786   6.072   1.472   0.328  0.4924 -0.2650  0.2139
 3409TIP3    H231787   6.172   1.579   0.366 -0.7369  0.5079  1.3787
 3410TIP3   OH231788   6.819   4.254   2.098  0.2375 -0.0746 -0.6815
 3410TIP3    H131789   6.842   4.347   2.097 -1.0024  0.2407 -1.6192
 3410TIP3    H231790   6.875   4.217   2.167 -0.5159  1.6735  0.9585
 3411TIP3   OH231791   1.564   4.713   0.829  0.1711 -0.1463  0.5098
 3411TIP3    H131792   1.639   4.756   0.788 -0.9107  0.4550 -0.9217
 3411TIP3    H231793   1.557   4.628   0.785  0.6316 -0.6639  1.3951
 3412TIP3   OH231794   5.636   1.181   0.666  0.1194  0.2862 -0.0392
 3412TIP3    H131795   5.705   1.117   0.685 -0.2016 -0.9303 -2.5510
 3412TIP3    H231796   5.622   1.174   0.572 -3.6692  0.2575  0.3676
 3413TIP3   OH231797   5.332   2.641   7.680  0.0485  0.8002  0.0478
 3413TIP3    H131798   5.422   2.672   7.682  0.2311  0.2513  0.7038
 3413TIP3    H231799   5.305   2.649   7.589  1.0720  0.0932 -0.3255
 3414TIP3   OH231800   3.403   0.074   7.936  0.0834  0.5657 -0.6927
 3414TIP3    H131801   3.467   0.080   8.007 -0.7886  3.5131 -0.0143
 3414TIP3    H231802   3.439   0.131   7.867 -1.3589  1.5734 -0.6431
 3415TIP3   OH231803   4.988   3.788   1.651 -0.2653 -0.3446  0.0396
 3415TIP3    H131804   4.950   3.803   1.738  2.0886  0.5274  0.9851
 3415TIP3    H231805   4.979   3.694   1.637 -1.6263 -0.3492  0.7276
 3416TIP3   OH231806   3.277   1.447   0.103  0.6793 -0.5922  0.6043
 3416TIP3    H131807   3.327   1.403   0.034  1.8572 -0.9582  1.6483
 3416TIP3    H231808   3.274   1.539   0.076  0.1480 -0.9243 -0.4830
 3417TIP3   OH231809   1.214   6.576   0.222  0.8433 -0.1425  0.0377
 3417TIP3    H131810   1.146   6.641   0.240  0.4463 -0.2100 -1.1446
 3417TIP3    H231811   1.198   6.548   0.132  2.5452 -0.0234 -0.3494
 3418TIP3   OH231812   0.468   5.078   1.957 -0.3885  0.1140 -0.0324
 3418TIP3    H131813   0.470   5.071   2.053 -1.0625 -1.5900 -0.1146
 3418TIP3    H231814   0.446   4.990   1.927 -1.3837  0.9028 -1.7229
 3419TIP3   OH231815   6.641   0.959   0.006 -0.5824 -0.3520 -0.4176
 3419TIP3    H131816   6.560   1.002  -0.023  0.5930  1.7573 -0.7697
 3419TIP3    H231817   6.627   0.866  -0.015 -2.7708 -0.0144 -0.7526
 3420TIP3   OH231818   0.747   0.017   0.030  0.0734 -0.2605 -0.4528
 3420TIP3    H131819   0.827   0.062   0.056 -0.0922  0.0491 -0.4790
 3420TIP3    H231820   0.701   0.079  -0.026 -0.4750 -0.1950  0.0540
 3421TIP3   OH231821   0.392   3.520   8.363  0.0524  0.0610 -0.1243
 3421TIP3    H131822   0.447   3.576   8.419 -0.0616 -2.0012  2.2163
 3421TIP3    H231823   0.454   3.467   8.313  0.1401  0.8329 -0.8718
 3422TIP3   OH231824   5.819   6.126   1.894  0.2867  0.1086  0.0086
 3422TIP3    H131825   5.842   6.201   1.838 -0.6443  0.7591  0.4661
 3422TIP3    H231826   5.868   6.140   1.975  0.0707  0.2518  0.1144
 3423TIP3   OH231827   2.823   1.794   8.048  0.5964 -0.2149 -0.1108
 3423TIP3    H131828   2.782   1.872   8.084  0.8461  0.7391 -1.7918
 3423TIP3    H231829   2.760   1.761   7.983  1.6083  0.1530 -1.3270
 3424TIP3   OH231830   6.535   0.003   8.299  0.7496  0.1077  0.2860
 3424TIP3    H131831   6.542  -0.078   8.248 -0.4022  1.1538 -1.6710
 3424TIP3    H231832   6.619   0.011   8.343  1.4838 -1.3358 -0.7664
 3425TIP3   OH231833   5.308   3.293   7.728  0.2202  0.5195  0.1866
 3425TIP3    H131834   5.373   3.282   7.659 -1.0134 -1.0431 -0.7919
 3425TIP3    H231835   5.310   3.211   7.777  0.8280  1.4673  1.8369
 3426TIP3   OH231836   3.376   1.457   1.789 -0.0877 -0.4711  0.0271
 3426TIP3    H131837   3.306   1.519   1.770 -0.7482 -1.0198  0.5866
 3426TIP3    H231838   3.394   1.415   1.705 -0.7220 -0.6122 -0.0488
 3427TIP3   OH231839   2.994   6.214   1.098  0.1399  0.0393  0.2171
 3427TIP3    H131840   2.975   6.271   1.172 -0.3495  0.8237 -0.4939
 3427TIP3    H231841   3.063   6.259   1.050  0.3232 -0.3734  0.0892
 3428TIP3   OH231842   6.829   6.348   7.070  0.4891 -0.4517 -0.3460
 3428TIP3    H131843   6.830   6.444   7.072  1.5585 -0.4384 -0.9278
 3428TIP3    H231844   6.801   6.327   6.981 -0.3753 -0.7011 -0.0298
 3429TIP3   OH231845   1.310   4.081   1.854  0.0141  0.1428  0.3706
 3429TIP3    H131846   1.246   4.020   1.817 -0.8382  0.7175  0.8829
 3429TIP3    H231847   1.302   4.071   1.948 -0.5082  1.4121  0.4780
 3430TIP3   OH231848   1.930   5.806   2.208 -0.2801 -0.2217  0.5874
 3430TIP3    H131849   1.908   5.775   2.296  1.0091 -1.6765  0.4465
 3430TIP3    H231850   1.853   5.785   2.156 -0.1415 -1.6531  0.8911
 3431TIP3   OH231851   2.271   1.360   7.335 -0.2364 -0.6160  0.5504
 3431TIP3    H131852   2.345   1.311   7.298  0.6990  1.7034 -0.9002
 3431TIP3    H231853   2.302   1.386   7.423  0.9771  0.7665 -0.2292
 3432TIP3   OH231854   6.521   1.980   7.142  0.1915 -0.4953  0.5419
 3432TIP3    H131855   6.565   1.895   7.137  0.8959 -0.0719 -3.3416
 3432TIP3    H231856   6.592   2.044   7.138 -0.5035  0.2031 -1.7308
 3433TIP3   OH231857   6.783   6.057   0.367  0.6905  0.1587  0.3430
 3433TIP3    H131858   6.777   5.997   0.292  0.2842 -1.1433  1.3685
 3433TIP3    H231859   6.735   6.135   0.339  0.2366 -0.4362 -0.6245
 3434TIP3   OH231860   6.436   0.999   2.779 -0.0686  0.0376  0.0084
 3434TIP3    H131861   6.404   1.089   2.789 -2.1361 -0.7554  1.2701
 3434TIP3    H231862   6.499   0.988   2.850 -0.4586  0.2412  0.3901
 3435TIP3   OH231863   0.749   3.504   8.569  0.0919 -0.6117 -0.0718
 3435TIP3    H131864   0.832   3.459   8.554 -0.3984 -1.8618  0.7760
 3435TIP3    H231865   0.743   3.514   8.664 -0.5937 -0.2850 -0.1407
 3436TIP3   OH231866   3.938   5.518   8.356 -0.4558 -0.5382 -0.3193
 3436TIP3    H131867   3.883   5.584   8.398 -0.9370 -1.3757  0.4154
 3436TIP3    H231868   4.000   5.568   8.303 -2.0768  0.4192 -1.3884
 3437TIP3   OH231869   4.191   3.343   0.643  0.1009  0.0721  0.3594
 3437TIP3    H131870   4.253   3.415   0.632 -3.0811  2.6950 -2.7600
 3437TIP3    H231871   4.216   3.280   0.576 -1.0104  1.6095 -1.6183
 3438TIP3   OH231872   5.160   1.050   8.064 -0.2413  0.3682 -0.2268
 3438TIP3    H131873   5.220   0.997   8.012 -0.1374 -0.1289  0.3934
 3438TIP3    H231874   5.210   1.129   8.085  0.2040 -0.0448  0.2927
 3439TIP3   OH231875   6.409   0.957   2.420  0.3029  0.0532 -0.3050
 3439TIP3    H131876   6.334   0.979   2.476 -0.4248  0.0983 -1.2648
 3439TIP3    H231877   6.459   1.038   2.413 -0.3307  0.4109 -0.7910
 3440TIP3   OH231878   1.045   5.193   8.591 -0.3271 -0.7133  0.7524
 3440TIP3    H131879   0.964   5.236   8.617 -0.2982 -0.7644  0.9241
 3440TIP3    H231880   1.029   5.099   8.606 -1.1023 -0.9947 -1.4538
 3441TIP3   OH231881   4.888   2.786   2.266 -0.4617  0.0211 -0.2019
 3441TIP3    H131882   4.983   2.802   2.262 -0.5792  0.6885 -0.4634
 3441TIP3    H231883   4.849   2.872   2.252 -1.1014  0.0742  1.6782
 3442TIP3   OH231884   1.844   6.819   8.121  0.1333  0.0796  0.1696
 3442TIP3    H131885   1.865   6.799   8.212  0.5263  0.5760  0.1888
 3442TIP3    H231886   1.791   6.745   8.092  1.0887 -0.6999  0.4079
 3443TIP3   OH231887   5.329   1.056   2.229 -0.2121  0.0747  0.0326
 3443TIP3    H131888   5.393   1.094   2.168 -0.3413 -0.2716 -0.3189
 3443TIP3    H231889   5.349   1.097   2.313 -0.9432  1.6639 -0.5172
 3444TIP3   OH231890   3.661   4.896   7.821 -0.0957 -0.3324  0.5326
 3444TIP3    H131891   3.574   4.875   7.854  0.4085 -1.0242  1.4706
 3444TIP3    H231892   3.672   4.990   7.839 -1.1668  0.0907 -0.8640
 3445TIP3   OH231893   5.977   1.740   1.120 -0.0897  0.8628 -0.1635
 3445TIP3    H131894   5.942   1.829   1.121 -1.6815  0.2672  1.2791
 3445TIP3    H231895   5.908   1.688   1.079  0.2672  0.0838  0.2001
 3446TIP3   OH231896   0.964   1.937   2.320 -0.5303 -0.3571  0.1468
 3446TIP3    H131897   0.981   1.876   2.392 -0.2489 -1.1514 -0.5771
 3446TIP3    H231898   0.894   1.994   2.353  0.3305 -0.0038  1.4482
 3447TIP3   OH231899   2.467   0.360   7.912  0.1584 -0.1916 -0.5506
 3447TIP3    H131900   2.410   0.304   7.964  0.9554 -0.1589  0.3914
 3447TIP3    H231901   2.484   0.311   7.831 -0.5632 -0.5307 -0.4956
 3448TIP3   OH231902   4.304   1.059   1.390  0.5865  0.1077 -0.0244
 3448TIP3    H131903   4.241   1.002   1.434 -0.3020  1.5062  0.5715
 3448TIP3    H231904   4.275   1.062   1.299  0.7687 -0.5402 -0.1103
 3449TIP3   OH231905   3.486   4.641   1.037  0.0421 -0.6681  0.2440
 3449TIP3    H131906   3.449   4.604   1.118 -1.1603  0.4520  0.2468
 3449TIP3    H231907   3.416   4.632   0.973  0.4686 -0.2530 -0.2890
 3450TIP3   OH231908   3.085   5.900   1.581  0.1737  0.0247  0.0623
 3450TIP3    H131909   3.176   5.914   1.608 -0.2047 -1.4658  2.4651
 3450TIP3    H231910   3.034   5.953   1.643 -0.6240  0.4340 -0.9295
 3451TIP3   OH231911   3.707   2.989   7.767  0.3576 -0.2886  0.4617
 3451TIP3    H131912   3.706   3.070   7.716 -2.4739  0.9778  2.2666
 3451TIP3    H231913   3.790   2.991   7.813  0.8900  0.9346 -0.4882
 3452TIP3   OH231914   4.911   6.791   2.692 -0.2676  0.1075 -0.0185
 3452TIP3    H131915   4.868   6.855   2.748  0.9774 -0.1129  1.2408
 3452TIP3    H231916   4.960   6.844   2.629 -1.8434  0.3559 -1.1233
 3453TIP3   OH231917   6.180   5.958   1.572 -0.3794  0.0255  0.2246
 3453TIP3    H131918   6.164   5.937   1.664  1.6170  0.5424  0.7241
 3453TIP3    H231919   6.275   5.956   1.563 -0.4620  1.6673 -1.4335
 3454TIP3   OH231920   6.570   1.740   8.051 -0.0511  0.4015 -0.3029
 3454TIP3    H131921   6.548   1.703   7.965  1.9035  0.7680 -1.0081
 3454TIP3    H231922   6.660   1.772   8.041 -0.4595  2.2096  1.3182
 3455TIP3   OH231923   5.755   0.141   1.124 -0.0322 -0.1283 -0.0305
 3455TIP3    H131924   5.818   0.069   1.113 -1.5442 -1.4180 -0.6239
 3455TIP3    H231925   5.718   0.154   1.036 -2.7014 -1.4616  0.7915
 3456TIP3   OH231926   6.828   4.784   2.251  0.3536 -0.0951 -0.2223
 3456TIP3    H131927   6.876   4.738   2.320 -0.3849 -0.4678  0.0568
 3456TIP3    H231928   6.835   4.877   2.275 -0.8573 -0.2886  1.0129
 3457TIP3   OH231929   1.886   6.081   1.808 -0.7064 -0.7777 -0.3912
 3457TIP3    H131930   1.924   6.166   1.786  1.4715 -1.6744 -0.4094
 3457TIP3    H231931   1.927   6.058   1.892  0.9654 -2.9843 -1.6913
 3458TIP3   OH231932   3.196   6.374   6.704 -0.5181  0.3124  0.3259
 3458TIP3    H131933   3.223   6.285   6.682 -3.7497 -0.8992  0.7710
 3458TIP3    H231934   3.242   6.429   6.641  2.3140 -1.4989  0.6395
 3459TIP3   OH231935   3.756   1.358   1.458 -0.0392 -0.1200  0.5763
 3459TIP3    H131936   3.695   1.374   1.386 -1.1495 -1.2775  1.2294
 3459TIP3    H231937   3.710   1.388   1.536  0.5026 -0.3908  1.0021
 3460TIP3   OH231938   5.380   1.946   0.863  0.4267 -0.3024  0.1188
 3460TIP3    H131939   5.318   1.873   0.867  0.8020 -0.5813  1.2514
 3460TIP3    H231940   5.457   1.914   0.910  0.9150  0.5198 -0.1199
 3461TIP3   OH231941   2.055   2.360   0.581 -0.2922  0.4312 -0.0946
 3461TIP3    H131942   1.979   2.357   0.639  0.8403 -2.5282  1.4565
 3461TIP3    H231943   2.129   2.379   0.640  0.4424  1.0475 -1.1864
 3462TIP3   OH231944   4.362   2.842   7.512 -0.4433 -0.6324 -0.0101
 3462TIP3    H131945   4.380   2.796   7.594 -1.1323 -0.6758  0.1165
 3462TIP3    H231946   4.441   2.894   7.496  0.3339 -1.8256 -0.1464
 3463TIP3   OH231947   6.117   1.022   3.304 -0.0839  0.4166 -0.0628
 3463TIP3    H131948   6.164   0.974   3.236  2.2444 -0.1010  1.7601
 3463TIP3    H231949   6.041   0.967   3.324 -0.8442  0.5929 -2.1672
 3464TIP3   OH231950   3.243   6.608   0.441 -0.9614  0.4315  0.4607
 3464TIP3    H131951   3.185   6.546   0.485  1.8801 -1.8711  1.2454
 3464TIP3    H231952   3.247   6.577   0.350 -0.1661 -0.0805  0.6625
 3465TIP3   OH231953   6.720   6.393   2.168  0.1939 -0.0293 -0.3630
 3465TIP3    H131954   6.681   6.468   2.123 -0.0527  0.6112  0.8711
 3465TIP3    H231955   6.797   6.429   2.213  0.6631 -0.7358 -0.5825
 3466TIP3   OH231956   6.132   2.651   2.190  0.0737  0.1295  0.4127
 3466TIP3    H131957   6.152   2.724   2.249  0.8393 -0.4322  0.8556
 3466TIP3    H231958   6.192   2.581   2.216  0.9942  0.1252 -1.5423
 3467TIP3   OH231959   3.640   2.696   8.331  0.2190  0.1482 -0.0478
 3467TIP3    H131960   3.587   2.749   8.390 -0.8065 -1.7606  0.8527
 3467TIP3    H231961   3.642   2.609   8.373  0.6295 -0.9033 -2.1243
 3468TIP3   OH231962   6.688   0.340   7.752 -0.3685 -0.2951 -0.1428
 3468TIP3    H131963   6.773   0.305   7.777  0.8368  2.9263  0.7632
 3468TIP3    H231964   6.705   0.389   7.671 -1.0315  1.4079  0.6992
 3469TIP3   OH231965   1.651   3.349   1.061  0.1540  0.5449  0.0234
 3469TIP3    H131966   1.649   3.260   1.026 -0.5610  0.4884  0.1936
 3469TIP3    H231967   1.648   3.405   0.983  3.6869  0.4907 -0.3076
 3470TIP3   OH231968   3.594   6.483   3.202 -0.3941 -0.5918 -0.2786
 3470TIP3    H131969   3.538   6.523   3.269  1.1241 -2.2502  2.1675
 3470TIP3    H231970   3.534   6.429   3.151 -1.3985 -0.5516  0.8077
 3471TIP3   OH231971   3.304   5.877   8.163  0.0394 -0.4909  1.4411
 3471TIP3    H131972   3.237   5.823   8.120  1.0593 -0.7192  0.0718
 3471TIP3    H231973   3.321   5.832   8.245  0.3482 -1.8900  0.6440
 3472TIP3   OH231974   4.303   2.038   1.599 -0.0172 -0.5110  0.6967
 3472TIP3    H131975   4.262   2.059   1.516 -1.8657 -1.7604  1.2100
 3472TIP3    H231976   4.368   2.107   1.613  1.4554 -1.0729 -2.4471
 3473TIP3   OH231977   4.212   2.008   1.329  0.0229 -0.2316 -0.0634
 3473TIP3    H131978   4.300   2.031   1.300  0.4371 -0.7624  0.7392
 3473TIP3    H231979   4.156   2.073   1.287  0.9563  1.1119  0.6859
 3474TIP3   OH231980   0.425   3.430   1.353 -0.0345 -0.5618  0.1246
 3474TIP3    H131981   0.339   3.396   1.330  0.0363  0.7870 -2.5298
 3474TIP3    H231982   0.426   3.519   1.318  1.7765  0.1691  1.8166
 3475TIP3   OH231983   6.687   4.584   1.834  0.2172 -0.9219 -0.1358
 3475TIP3    H131984   6.667   4.677   1.836 -0.6871 -1.1089  1.4635
 3475TIP3    H231985   6.760   4.574   1.895  1.1850 -1.0924 -1.3021
 3476TIP3   OH231986   5.196   1.611   7.739  0.5661 -0.6051 -0.1571
 3476TIP3    H131987   5.191   1.668   7.816  2.7534  0.7496 -0.9237
 3476TIP3    H231988   5.251   1.538   7.767 -0.5678 -1.3475  0.2139
 3477TIP3   OH231989   2.027   5.370   1.399  0.1633 -0.2271  0.0927
 3477TIP3    H131990   2.100   5.308   1.402  1.1874  0.9175 -0.2740
 3477TIP3    H231991   1.981   5.348   1.318 -1.8911 -3.0552  1.8445
 3478TIP3   OH231992   5.403   2.296   0.677 -0.5273 -0.3476  0.2877
 3478TIP3    H131993   5.434   2.269   0.590  1.8877  3.3943 -0.2500
 3478TIP3    H231994   5.318   2.336   0.660  0.5407  1.6519 -0.7586
 3479TIP3   OH231995   0.812   6.196   1.410  0.1044  0.2633 -0.6406
 3479TIP3    H131996   0.891   6.142   1.403  1.3759  1.6679  1.8137
 3479TIP3    H231997   0.834   6.263   1.474 -3.3086  0.3070  0.6865
 3480TIP3   OH231998   3.273   4.644   0.847  0.3222  0.3648 -0.3729
 3480TIP3    H131999   3.262   4.589   0.770  0.5995  0.7225 -0.6771
 3480TIP3    H232000   3.199   4.623   0.904 -0.4923  0.8816 -1.2233
 3481TIP3   OH232001   3.987   2.539   1.146 -0.1848 -0.2701  0.2395
 3481TIP3    H132002   3.939   2.463   1.111  1.6449 -0.4491 -2.1701
 3481TIP3    H232003   3.954   2.549   1.235 -3.8411 -1.0242 -0.8476
 3482TIP3   OH232004   2.664   1.971   8.451 -0.1702  0.7784 -0.4757
 3482TIP3    H132005   2.662   1.889   8.499  0.7420  0.3775 -1.1022
 3482TIP3    H232006   2.572   1.997   8.444 -0.4281  0.0524  0.1077
 3483TIP3   OH232007   5.515   2.434   6.664 -0.4154 -0.1119  0.0661
 3483TIP3    H132008   5.610   2.449   6.660 -0.7992  2.4836 -0.9358
 3483TIP3    H232009   5.490   2.463   6.752 -0.3383 -0.5358  0.2316
 3484TIP3   OH232010   2.558   0.600   2.223 -0.6727  0.3230 -0.1617
 3484TIP3    H132011   2.482   0.543   2.230  0.0669 -0.5934  0.7735
 3484TIP3    H232012   2.567   0.639   2.309  0.0553  0.2320 -0.1899
 3485TIP3   OH232013   0.663   4.417   0.097  0.1261 -0.1313 -0.4631
 3485TIP3    H132014   0.652   4.512   0.088  0.4534 -0.1439 -1.0302
 3485TIP3    H232015   0.688   4.405   0.188 -2.3428  0.0944  0.3164
 3486TIP3   OH232016   4.434   5.287   7.842  0.1381  0.1112 -0.5703
 3486TIP3    H132017   4.342   5.269   7.859  0.6527 -0.3108  2.3630
 3486TIP3    H232018   4.462   5.218   7.783 -0.9106 -1.2394  0.4447
 3487TIP3   OH232019   1.360   5.381   7.948  0.3132  0.0793 -0.0771
 3487TIP3    H132020   1.434   5.362   8.005 -0.7034 -1.1704  0.8789
 3487TIP3    H232021   1.354   5.477   7.948  1.7078  0.1829  0.0926
 3488TIP3   OH232022   2.820   2.320   7.551 -0.4095 -0.0969  0.6725
 3488TIP3    H132023   2.898   2.372   7.571 -0.4782 -0.3485  1.6829
 3488TIP3    H232024   2.853   2.232   7.537 -0.4898 -0.1734  0.9512
 3489TIP3   OH232025   0.625   4.063   8.289  0.2534  0.0435 -0.0713
 3489TIP3    H132026   0.643   4.122   8.362  2.1607  0.3738 -0.7360
 3489TIP3    H232027   0.608   4.121   8.214 -0.1886 -0.2787 -0.2261
 3490TIP3   OH232028   1.502   3.410   7.057  0.4287  0.5994  0.1921
 3490TIP3    H132029   1.583   3.440   7.016  0.3286  1.0374  0.3079
 3490TIP3    H232030   1.524   3.324   7.092  0.3787 -0.0017 -1.1806
 3491TIP3   OH232031   5.914   5.171   2.311 -0.2572  0.2592 -0.0636
 3491TIP3    H132032   5.902   5.248   2.366 -0.1961 -0.4430  0.9735
 3491TIP3    H232033   5.899   5.097   2.370 -0.0218 -0.5275 -0.9602
 3492TIP3   OH232034   4.117   6.072   8.154 -0.1674  0.1661 -0.4470
 3492TIP3    H132035   4.025   6.048   8.154  0.2297 -1.5162 -1.2555
 3492TIP3    H232036   4.122   6.149   8.098 -0.9259 -0.4711 -1.4233
 3493TIP3   OH232037   5.486   0.192   8.196  0.5342  0.2817  0.8104
 3493TIP3    H132038   5.514   0.108   8.161  0.2658  0.9654 -1.1560
 3493TIP3    H232039   5.556   0.216   8.258  1.9073 -0.2378 -0.4645
 3494TIP3   OH232040   5.124   0.588   1.467 -0.0514  0.0415  0.6021
 3494TIP3    H132041   5.116   0.493   1.481  0.2804  0.0361  0.7952
 3494TIP3    H232042   5.211   0.598   1.427 -0.6283  0.1471 -0.6498
 3495TIP3   OH232043   1.840   5.410   1.576 -0.2149  0.6445 -0.5792
 3495TIP3    H132044   1.795   5.484   1.536 -2.4828 -1.6502 -2.6780
 3495TIP3    H232045   1.913   5.391   1.517 -0.5361  0.3259 -0.8798
 3496TIP3   OH232046   6.216   1.986   6.802 -0.2484  0.2852 -0.1271
 3496TIP3    H132047   6.253   2.013   6.886  1.2116  2.3977 -1.3775
 3496TIP3    H232048   6.136   1.939   6.826  1.3535 -1.3804  2.5306
 3497TIP3   OH232049   2.412   2.195   8.019  0.0297 -0.7194 -0.0148
 3497TIP3    H132050   2.501   2.195   7.982 -0.0583  0.9130 -0.2828
 3497TIP3    H232051   2.371   2.273   7.982 -0.9105 -0.4256  1.5674
 3498TIP3   OH232052   2.266   4.805   7.460  0.4102  0.3278 -0.0950
 3498TIP3    H132053   2.194   4.762   7.506  1.1799 -0.1549  0.6859
 3498TIP3    H232054   2.233   4.894   7.443 -0.9518 -0.3368 -1.1675
 3499TIP3   OH232055   2.523   1.702   7.942 -0.3887  0.0742 -0.2171
 3499TIP3    H132056   2.527   1.797   7.949 -0.3122 -0.0092  1.2897
 3499TIP3    H232057   2.472   1.686   7.863  1.9345  1.3184 -2.0584
 3500TIP3   OH232058   6.605   5.471   1.674 -0.0794  0.1087 -0.4966
 3500TIP3    H132059   6.616   5.418   1.595  0.5341 -0.1073 -0.2720
 3500TIP3    H232060   6.601   5.561   1.643  0.3262  0.0353 -0.7590
 3501TIP3   OH232061   2.346   4.985   0.923 -0.0021  0.1064  0.1107
 3501TIP3    H132062   2.282   4.953   0.860  0.5804  0.2054 -0.5380
 3501TIP3    H232063   2.361   4.911   0.982 -1.0512  0.2259  0.5625
 3502TIP3   OH232064   4.344   3.620   1.571  0.2443  0.0228  0.1396
 3502TIP3    H132065   4.268   3.567   1.546 -0.3726  0.6313  0.7064
 3502TIP3    H232066   4.307   3.698   1.610  1.1451  1.0588 -1.0039
 3503TIP3   OH232067   1.633   2.443   0.318 -0.0610  0.1718  0.2217
 3503TIP3    H132068   1.570   2.497   0.270 -0.1328  0.2416  0.3964
 3503TIP3    H232069   1.707   2.435   0.258  0.4593  1.4605  0.6476
 3504TIP3   OH232070   6.468   0.238   1.614 -0.6528  0.0570  0.4243
 3504TIP3    H132071   6.495   0.150   1.642  0.9952  0.9674  1.8886
 3504TIP3    H232072   6.541   0.269   1.560 -1.6453  0.2076 -0.8788
 3505TIP3   OH232073   1.452   4.400   1.414  0.4554 -0.0815 -0.0403
 3505TIP3    H132074   1.539   4.438   1.398 -0.0407  0.8380 -0.7085
 3505TIP3    H232075   1.424   4.367   1.328  1.0601 -2.4539  0.6096
 3506TIP3   OH232076   0.151   4.187   8.364 -0.6298 -0.3971  0.2796
 3506TIP3    H132077   0.069   4.238   8.369 -0.6580 -0.3995 -0.0876
 3506TIP3    H232078   0.146   4.126   8.437 -1.1611 -0.6914  0.0025
 3507TIP3   OH232079   4.520   2.610   7.180  0.2038  0.4070  0.3432
 3507TIP3    H132080   4.460   2.617   7.107 -0.1729  1.4583  0.7379
 3507TIP3    H232081   4.595   2.561   7.145 -0.4870 -0.1476 -0.3892
 3508TIP3   OH232082   2.075   5.016   6.939  0.2496 -0.1217 -0.6430
 3508TIP3    H132083   1.996   5.021   6.992  0.3358 -0.8877 -0.4321
 3508TIP3    H232084   2.122   5.097   6.958  0.9256 -0.9548  1.4929
 3509TIP3   OH232085   5.246   1.947   2.143 -0.0398 -0.0198  0.7679
 3509TIP3    H132086   5.155   1.919   2.127  0.3848 -1.3561  0.4924
 3509TIP3    H232087   5.253   1.954   2.238 -0.3049 -0.4151  0.8213
 3510TIP3   OH232088   3.288   1.186   0.631 -0.4396  0.3246 -0.2693
 3510TIP3    H132089   3.313   1.094   0.634  1.1117  0.7023 -1.0145
 3510TIP3    H232090   3.304   1.213   0.541 -0.6373  1.4021  0.0000
 3511TIP3   OH232091   5.732   5.252   1.722  0.1429 -0.1087  0.2421
 3511TIP3    H132092   5.821   5.222   1.738  0.4703  0.9451  0.4399
 3511TIP3    H232093   5.730   5.276   1.629 -0.0423 -0.4806  0.1483
 3512TIP3   OH232094   1.329   3.474   8.363 -0.4380  0.0339 -0.1167
 3512TIP3    H132095   1.299   3.565   8.374  0.7859  0.5223 -0.6170
 3512TIP3    H232096   1.399   3.480   8.299  0.7344 -1.0444  1.0141
 3513TIP3   OH232097   5.523   3.702   1.169 -0.4861  0.3511  0.1170
 3513TIP3    H132098   5.591   3.707   1.237 -0.2438 -0.2090 -0.0819
 3513TIP3    H232099   5.441   3.693   1.218 -0.0809 -3.2975  0.3782
 3514TIP3   OH232100   4.286   4.487   2.924  0.7096 -0.1596 -0.2379
 3514TIP3    H132101   4.271   4.395   2.947 -1.0201 -0.0937 -0.9987
 3514TIP3    H232102   4.381   4.494   2.916  0.8728 -1.8920 -0.2153
 3515TIP3   OH232103   2.016   0.162   1.302 -0.2188 -0.0765 -0.3035
 3515TIP3    H132104   2.021   0.200   1.390 -1.1747 -1.5533  0.4379
 3515TIP3    H232105   2.101   0.180   1.263 -0.2290  1.7645  0.4086
 3516TIP3   OH232106   2.352   2.682   0.479  0.1823 -0.5588  0.1241
 3516TIP3    H132107   2.326   2.773   0.463 -0.2537 -0.8455 -0.8855
 3516TIP3    H232108   2.427   2.668   0.421 -1.0447 -1.4415 -1.3379
 3517TIP3   OH232109   3.282   0.712   1.142  0.3345 -0.6632  0.2641
 3517TIP3    H132110   3.188   0.726   1.155 -0.0119  0.1932 -2.5603
 3517TIP3    H232111   3.321   0.798   1.159  0.1840 -0.2083 -1.5278
 3518TIP3   OH232112   4.715   4.360   0.089  0.0786 -0.6229  0.0558
 3518TIP3    H132113   4.739   4.436   0.143  0.5199 -0.7106 -0.0113
 3518TIP3    H232114   4.676   4.298   0.151 -0.2792 -0.3426  0.1102
 3519TIP3   OH232115   3.041   0.433   7.908  0.2232 -0.0675 -0.2118
 3519TIP3    H132116   3.129   0.470   7.917  0.2285 -0.4763  2.1542
 3519TIP3    H232117   3.016   0.409   7.997 -1.9401 -0.8085 -0.9484
 3520TIP3   OH232118   3.499   4.937   2.677  0.4911 -0.0888 -0.1271
 3520TIP3    H132119   3.456   4.876   2.736 -1.2050  1.2779  0.1286
 3520TIP3    H232120   3.523   4.885   2.601 -0.8706 -1.0885  0.0991
 3521TIP3   OH232121   4.026   2.457   8.124 -0.2680  0.3265  0.0225
 3521TIP3    H132122   3.941   2.479   8.085  0.1343 -0.9814 -1.7168
 3521TIP3    H232123   4.009   2.456   8.219 -1.8771  1.2852 -0.2151
 3522TIP3   OH232124   6.612   4.792   8.219 -0.5749  0.1600  0.1696
 3522TIP3    H132125   6.668   4.715   8.208 -1.8382 -0.5958 -1.3255
 3522TIP3    H232126   6.540   4.761   8.273 -1.2142  0.1937 -0.6415
 3523TIP3   OH232127   3.444   5.751   1.281  0.7135  0.1694  0.1093
 3523TIP3    H132128   3.488   5.827   1.241 -0.3271  1.2193  0.8960
 3523TIP3    H232129   3.359   5.785   1.310  0.7844 -0.9506  1.7428
 3524TIP3   OH232130   0.430   0.799   2.287  0.1618  0.2890 -0.1048
 3524TIP3    H132131   0.516   0.841   2.279  0.6852 -0.9318 -1.0396
 3524TIP3    H232132   0.409   0.769   2.199 -1.8420  1.6983 -0.1600
 3525TIP3   OH232133   3.074   6.244   0.807  0.1361 -0.5095  0.1515
 3525TIP3    H132134   3.141   6.306   0.835  1.1853 -1.7139  0.3682
 3525TIP3    H232135   3.118   6.189   0.742 -1.0358 -0.4721 -0.7032
 3526TIP3   OH232136   4.765   6.763   7.178 -0.1474  0.2740 -0.0846
 3526TIP3    H132137   4.674   6.754   7.150  0.5507 -0.8139 -2.2425
 3526TIP3    H232138   4.803   6.825   7.117  1.2163 -1.4513 -1.1008
 3527TIP3   OH232139   6.597   6.725   2.773  0.1085  0.1492 -0.0470
 3527TIP3    H132140   6.559   6.698   2.857 -2.0533 -0.3793 -1.1175
 3527TIP3    H232141   6.573   6.817   2.764 -1.1227 -0.2207 -0.7880
 3528TIP3   OH232142   1.051   0.354   2.871  0.1844 -0.0592  0.3165
 3528TIP3    H132143   0.984   0.292   2.843  0.4575  0.0914 -0.7431
 3528TIP3    H232144   1.006   0.415   2.928 -0.6352  0.1646 -0.5513
 3529TIP3   OH232145   6.423   6.471   2.850 -0.4624 -0.1966 -0.0047
 3529TIP3    H132146   6.351   6.410   2.867 -1.9048  1.0748 -1.1994
 3529TIP3    H232147   6.417   6.536   2.921 -1.0681  0.3637 -0.5437
 3530TIP3   OH232148   4.907   0.493   7.875 -0.3104 -0.5497 -0.0452
 3530TIP3    H132149   4.852   0.415   7.862  0.3288 -1.0238  0.0943
 3530TIP3    H232150   4.845   0.566   7.869 -0.5834 -0.8920 -2.6438
 3531TIP3   OH232151   0.777   2.902   1.727  0.2835 -0.2985 -0.0668
 3531TIP3    H132152   0.739   2.857   1.801 -0.7336  2.8924  1.5552
 3531TIP3    H232153   0.870   2.910   1.747  0.3450 -1.0560 -0.0549
 3532TIP3   OH232154   3.385   6.390   1.017  0.0911 -0.2244  0.1668
 3532TIP3    H132155   3.428   6.305   1.026 -2.0939 -1.2165  2.3584
 3532TIP3    H232156   3.373   6.420   1.107 -2.0084  0.8838 -0.4232
 3533TIP3   OH232157   6.379   3.866   8.006  0.1011 -0.5786 -0.7508
 3533TIP3    H132158   6.305   3.818   8.042  0.8923 -0.7841  0.6928
 3533TIP3    H232159   6.446   3.860   8.074  1.3388 -0.1546 -1.8997
 3534TIP3   OH232160   3.805   2.521   2.119 -0.3327 -0.0263  0.1214
 3534TIP3    H132161   3.745   2.579   2.166  0.7880  1.2062  0.1004
 3534TIP3    H232162   3.863   2.486   2.187 -1.7361 -2.1414  0.3191
 3535TIP3   OH232163   6.452   3.113   1.989  0.3326  0.4036  0.0007
 3535TIP3    H132164   6.474   3.167   2.065  2.1634  0.0504 -0.2386
 3535TIP3    H232165   6.510   3.037   1.996 -0.2737 -0.1861 -1.1529
 3536TIP3   OH232166   1.228   5.581   0.367 -0.5389 -0.4454 -0.2683
 3536TIP3    H132167   1.133   5.585   0.373 -0.5696 -0.1481 -0.8929
 3536TIP3    H232168   1.259   5.642   0.434 -0.8020 -0.0367 -0.5115
 3537TIP3   OH232169   2.101   5.659   1.894  0.0294 -0.0897  0.1130
 3537TIP3    H132170   2.068   5.714   1.965  0.0492 -0.6783  0.5895
 3537TIP3    H232171   2.045   5.582   1.896 -0.6341  0.3254 -1.1889
 3538TIP3   OH232172   3.737   2.461   0.449  0.4235  0.2135  0.7178
 3538TIP3    H132173   3.653   2.506   0.453 -0.5196 -1.2789 -0.8741
 3538TIP3    H232174   3.721   2.376   0.492  0.5623 -0.7776 -1.0770
 3539TIP3   OH232175   6.862   6.699   0.308 -0.2828  0.1980  0.1401
 3539TIP3    H132176   6.879   6.780   0.260  0.6713 -0.6180 -0.9303
 3539TIP3    H232177   6.782   6.664   0.269 -0.1945  0.1609 -0.0051
 3540TIP3   OH232178   1.895   1.405   7.995 -0.6406 -0.0610 -0.2798
 3540TIP3    H132179   1.832   1.440   7.932  0.1413 -0.5655 -1.3890
 3540TIP3    H232180   1.980   1.436   7.963 -0.3661  1.3939  1.7136
 3541TIP3   OH232181   6.584   1.107   2.976 -0.4321  0.0472  0.0343
 3541TIP3    H132182   6.603   1.200   2.985 -0.5913  0.0284  0.6646
 3541TIP3    H232183   6.514   1.091   3.040 -2.6819  0.1347 -2.2320
 3542TIP3   OH232184   5.356   6.316   1.226 -0.2523 -0.5152  0.0145
 3542TIP3    H132185   5.391   6.386   1.281  1.3631 -2.4498  1.5951
 3542TIP3    H232186   5.433   6.271   1.193 -1.2355 -0.7407 -2.1550
 3543TIP3   OH232187   5.914   6.296   1.262  0.0519  0.1063  0.5204
 3543TIP3    H132188   5.950   6.221   1.310 -0.4096  0.0200  0.7395
 3543TIP3    H232189   5.853   6.337   1.323 -2.1472 -1.2235 -0.6347
 3544TIP3   OH232190   5.362   0.657   0.604  0.2712  0.2053  0.4468
 3544TIP3    H132191   5.456   0.675   0.607  0.1025  1.1764  0.3409
 3544TIP3    H232192   5.322   0.731   0.650 -0.4561 -0.0660  0.2684
 3545TIP3   OH232193   4.370   2.494   1.947 -0.5182  0.2650  0.4356
 3545TIP3    H132194   4.374   2.532   2.034  1.7189 -0.6562  0.8085
 3545TIP3    H232195   4.448   2.527   1.902  0.4881 -2.2558  0.1411
 3546TIP3   OH232196   4.604   2.869   7.068 -0.2174  0.3381 -0.0514
 3546TIP3    H132197   4.520   2.853   7.025  0.5737 -1.9454 -0.8654
 3546TIP3    H232198   4.666   2.884   6.996  0.2894  0.9053  0.4921
 3547TIP3   OH232199   2.415   1.718   0.610  0.5133 -0.6644  0.3703
 3547TIP3    H132200   2.407   1.631   0.570 -1.7419 -0.3418 -0.0291
 3547TIP3    H232201   2.342   1.722   0.672  0.8269  0.8108  0.6660
 3548TIP3   OH232202   3.412   5.759   8.385  0.3412  0.5873 -0.5993
 3548TIP3    H132203   3.473   5.767   8.458 -0.5886  1.0302  0.1540
 3548TIP3    H232204   3.461   5.714   8.317  0.6400 -1.6236  0.9883
 3549TIP3   OH232205   5.052   0.688   1.761 -0.9003  0.0444  0.2021
 3549TIP3    H132206   5.076   0.780   1.755 -0.6348 -0.0949 -1.3136
 3549TIP3    H232207   5.054   0.657   1.670  1.6078 -2.0881  0.8756
 3550TIP3   OH232208   6.693   1.352   3.064 -0.0105 -0.3840 -0.4631
 3550TIP3    H132209   6.714   1.411   2.992  0.3240 -1.1075 -0.9773
 3550TIP3    H232210   6.741   1.387   3.139 -1.0460  0.8743 -0.3450
 3551TIP3   OH232211   2.839   3.987   8.424  0.3841  0.4498  0.0034
 3551TIP3    H132212   2.794   4.046   8.364 -1.2212 -0.3108  0.4229
 3551TIP3    H232213   2.853   3.907   8.374 -1.8303 -0.5417  0.8631
 3552TIP3   OH232214   3.672   0.945   0.559  0.2084 -0.0305 -0.6838
 3552TIP3    H132215   3.608   0.951   0.488 -2.0605 -1.8042  1.0779
 3552TIP3    H232216   3.752   0.984   0.522 -1.4609  1.1006 -3.4243
 3553TIP3   OH232217   3.658   6.794   8.359 -0.1105 -0.7875 -0.2742
 3553TIP3    H132218   3.746   6.773   8.328  0.5841  0.5654  0.6514
 3553TIP3    H232219   3.663   6.781   8.454 -1.1499 -1.4304 -0.2929
 3554TIP3   OH232220   1.131   5.661   7.152 -0.4690 -0.2009 -0.1736
 3554TIP3    H132221   1.122   5.624   7.240  0.7556 -0.3637 -0.1086
 3554TIP3    H232222   1.201   5.725   7.159 -1.7621  1.3293 -0.5726
 3555TIP3   OH232223   5.827   4.315   7.377 -1.1472 -0.0326 -0.2457
 3555TIP3    H132224   5.865   4.314   7.289  0.9385  0.3314  0.6053
 3555TIP3    H232225   5.876   4.250   7.425 -0.7068  1.3462  1.2561
 3556TIP3   OH232226   2.714   4.216   7.473  0.1656  0.6175  0.0857
 3556TIP3    H132227   2.774   4.217   7.399 -0.1889  1.3270 -0.2036
 3556TIP3    H232228   2.767   4.245   7.547  0.2940  0.7857 -0.0720
 3557TIP3   OH232229   1.910   3.175   7.699  0.1860 -0.5672 -0.5104
 3557TIP3    H132230   1.852   3.106   7.733 -0.0139 -0.5446 -0.8053
 3557TIP3    H232231   1.998   3.141   7.715  0.0983 -1.4237 -1.6914
 3558TIP3   OH232232   4.381   6.332   0.033  0.7383 -0.1295  0.2497
 3558TIP3    H132233   4.333   6.371   0.106 -0.0285  0.3815 -0.5120
 3558TIP3    H232234   4.329   6.354  -0.045  0.4544 -2.3703 -0.2587
 3559TIP3   OH232235   6.459   1.760   2.031 -0.5987  0.3951 -0.0095
 3559TIP3    H132236   6.496   1.805   1.955 -0.0813 -1.0777 -0.6658
 3559TIP3    H232237   6.536   1.730   2.080 -0.9265 -0.2465  0.1200
 3560TIP3   OH232238   0.683   2.784   2.737 -0.2906 -0.1178 -0.5567
 3560TIP3    H132239   0.721   2.781   2.824  0.0679  0.3253 -0.6913
 3560TIP3    H232240   0.691   2.695   2.703 -3.7069 -1.2708  1.1960
 3561TIP3   OH232241   3.413   3.838   2.170 -0.6063  0.7410 -0.0833
 3561TIP3    H132242   3.337   3.823   2.225 -1.9579  0.9986 -1.7865
 3561TIP3    H232243   3.428   3.755   2.125  1.3163  0.1120  1.5495
 3562TIP3   OH232244   0.117   4.765   1.823 -0.0267 -0.6822 -0.2317
 3562TIP3    H132245   0.119   4.702   1.895  0.4092 -0.3696  0.0326
 3562TIP3    H232246   0.176   4.835   1.850 -0.4670 -0.1802 -0.5477
 3563TIP3   OH232247   2.273   6.710   8.395 -0.2612 -0.1471 -0.1047
 3563TIP3    H132248   2.208   6.728   8.328 -0.1570 -0.3859 -0.2704
 3563TIP3    H232249   2.334   6.649   8.354 -0.9764 -1.4067  0.6466
 3564TIP3   OH232250   1.059   3.481   1.497  0.3930 -0.1534 -0.1707
 3564TIP3    H132251   0.979   3.460   1.449  0.8457 -0.8869 -0.6185
 3564TIP3    H232252   1.082   3.400   1.542 -0.7900  0.8662  2.4952
 3565TIP3   OH232253   1.842   3.720   0.360  0.3633  0.2124  0.2460
 3565TIP3    H132254   1.848   3.722   0.265 -0.9550  0.5748  0.1547
 3565TIP3    H232255   1.809   3.806   0.384 -1.6006 -0.6492  0.8266
 3566TIP3   OH232256   5.838   4.846   3.015 -0.1448  0.3605 -0.5712
 3566TIP3    H132257   5.744   4.828   3.013  0.0068 -0.5987  0.3349
 3566TIP3    H232258   5.876   4.788   2.948 -0.1673  0.5914 -0.7864
 3567TIP3   OH232259   4.620   1.550   1.110  0.2120 -0.5240 -0.2851
 3567TIP3    H132260   4.677   1.494   1.164 -0.1561 -0.5062  0.1178
 3567TIP3    H232261   4.534   1.542   1.149  0.3237  1.0587  0.3335
 3568TIP3   OH232262   6.354   4.131   0.555  0.7266 -0.3362  0.6302
 3568TIP3    H132263   6.275   4.115   0.607  0.7633  0.4404  0.9310
 3568TIP3    H232264   6.322   4.146   0.466  0.3688  1.7143  1.0684
 3569TIP3   OH232265   3.053   0.183   3.020 -0.1496  0.0847 -0.5841
 3569TIP3    H132266   3.049   0.267   3.067  1.5222 -0.6084  0.9250
 3569TIP3    H232267   2.992   0.193   2.947 -2.1312  1.6170  1.1455
 3570TIP3   OH232268   5.740   3.189   1.380 -0.1295  0.3090 -0.0005
 3570TIP3    H132269   5.761   3.096   1.375 -1.8727 -0.2255  1.4482
 3570TIP3    H232270   5.694   3.208   1.299 -0.7376 -0.3767  0.1780
 3571TIP3   OH232271   5.809   3.763   1.056 -0.3050 -0.8512 -0.2151
 3571TIP3    H132272   5.788   3.756   1.149 -0.3886  2.0333  0.0517
 3571TIP3    H232273   5.734   3.723   1.011 -0.8130 -1.1986  0.9030
 3572TIP3   OH232274   5.590   6.200   1.157 -0.1756 -0.9699 -0.3507
 3572TIP3    H132275   5.586   6.153   1.073  1.8068 -2.6648  0.4200
 3572TIP3    H232276   5.677   6.239   1.158  0.2950 -1.9937  1.4093
 3573TIP3   OH232277   5.448   2.610   7.240 -0.1281 -0.4007  0.1467
 3573TIP3    H132278   5.417   2.635   7.153  0.3443  0.7641  0.2885
 3573TIP3    H232279   5.543   2.613   7.233 -0.0889 -0.4785  0.6531
 3574TIP3   OH232280   3.402   5.616   7.697 -0.0367 -0.3756  0.3860
 3574TIP3    H132281   3.340   5.603   7.625  2.0955 -0.0992 -1.6362
 3574TIP3    H232282   3.437   5.704   7.682  2.1937 -1.2245  0.2856
 3575TIP3   OH232283   4.493   2.802   2.568 -0.2154 -0.2558 -0.4069
 3575TIP3    H132284   4.475   2.846   2.651 -1.7127 -0.8078 -0.4000
 3575TIP3    H232285   4.584   2.821   2.549 -0.4558  1.7342  0.2464
 3576TIP3   OH232286   1.794   6.351   1.675 -0.2321 -0.0538  0.0998
 3576TIP3    H132287   1.858   6.396   1.730 -1.2381  0.9041  0.5342
 3576TIP3    H232288   1.831   6.355   1.586  0.1087  0.8785  0.2713
 3577TIP3   OH232289   2.937   2.179   7.846  0.2687  0.4561 -0.1689
 3577TIP3    H132290   2.980   2.150   7.766 -0.7013 -0.8394 -0.2464
 3577TIP3    H232291   2.970   2.268   7.860  0.7228  0.5702 -1.7995
 3578TIP3   OH232292   4.215   1.954   8.062 -0.0873  0.6437  0.0355
 3578TIP3    H132293   4.291   1.930   8.009 -0.2059 -0.0858  0.1910
 3578TIP3    H232294   4.204   2.048   8.045  1.8369  1.1656  1.2565
 3579TIP3   OH232295   0.849   4.206   1.472 -0.2419  0.2318 -0.1219
 3579TIP3    H132296   0.837   4.115   1.501 -0.7598  0.0534 -0.8735
 3579TIP3    H232297   0.896   4.198   1.389 -0.7639  0.6194 -0.4595
 3580TIP3   OH232298   1.887   4.954   8.259  0.0111  0.3164 -0.7668
 3580TIP3    H132299   1.963   4.931   8.313 -0.6240 -0.5047 -0.1896
 3580TIP3    H232300   1.812   4.921   8.308 -0.6307  0.0326 -1.8903
 3581TIP3   OH232301   3.820   0.743   7.724 -0.5630 -0.4344 -0.0367
 3581TIP3    H132302   3.841   0.818   7.668 -0.2778  0.0030  0.6442
 3581TIP3    H232303   3.784   0.677   7.664 -1.2724  0.4235 -0.5756
 3582TIP3   OH232304   4.414   4.499   0.519  0.4033  0.3151 -0.3040
 3582TIP3    H132305   4.409   4.522   0.426 -0.2660  0.8981 -0.1276
 3582TIP3    H232306   4.371   4.571   0.565  0.4251 -0.1269  0.4370
 3583TIP3   OH232307   5.946   1.238   8.287  0.6402  0.3994 -0.3528
 3583TIP3    H132308   5.892   1.306   8.328  0.4242  0.3847 -0.6154
 3583TIP3    H232309   6.005   1.286   8.229 -0.8522  0.2337 -2.0881
 3584TIP3   OH232310   3.277   6.831   7.496  0.4657 -0.0601  0.3718
 3584TIP3    H132311   3.318   6.762   7.548  3.2743  0.8705 -0.4290
 3584TIP3    H232312   3.215   6.786   7.439  1.2085 -1.7379  0.8548
 3585TIP3   OH232313   0.249   0.037   0.435 -0.4076 -0.3192 -0.2528
 3585TIP3    H132314   0.301   0.117   0.430  1.2920 -1.2972  0.6392
 3585TIP3    H232315   0.247   0.004   0.346  1.5418 -0.8313 -0.1584
 3586TIP3   OH232316   3.926   1.323   6.468  0.0638  0.1661 -0.1747
 3586TIP3    H132317   3.904   1.405   6.424  1.5885  0.3260 -0.6756
 3586TIP3    H232318   3.988   1.348   6.537  1.1262 -0.6415 -0.8091
 3587TIP3   OH232319   2.462   1.658   7.272 -0.7087  0.1006  0.0396
 3587TIP3    H132320   2.447   1.737   7.221 -1.7134  0.8101  1.3538
 3587TIP3    H232321   2.389   1.601   7.249 -0.4081 -0.1425 -0.3264
 3588TIP3   OH232322   5.782   2.138   0.468 -0.2183  0.7750 -0.0124
 3588TIP3    H132323   5.792   2.165   0.377 -0.6206  0.3724 -0.1791
 3588TIP3    H232324   5.817   2.211   0.519  0.8720  0.6275 -0.5094
 3589TIP3   OH232325   5.883   4.180   8.618 -0.0655  0.2857 -0.0340
 3589TIP3    H132326   5.819   4.125   8.573 -0.0960  1.4037 -1.4420
 3589TIP3    H232327   5.958   4.183   8.558  0.0291  1.5511  0.1265
 3590TIP3   OH232328   2.129   5.219   1.647 -0.4896  0.4538 -0.5779
 3590TIP3    H132329   2.166   5.237   1.561  0.7792  1.2569  0.1006
 3590TIP3    H232330   2.150   5.127   1.664 -1.2424  0.1262 -1.3361
 3591TIP3   OH232331   3.385   5.399   7.908 -0.1832 -0.6904  0.1645
 3591TIP3    H132332   3.449   5.428   7.844  0.0777  2.8609  1.7762
 3591TIP3    H232333   3.301   5.430   7.874 -0.4734 -1.4659  0.1439
 3592TIP3   OH232334   1.354   4.500   0.975 -0.1942 -0.5729  0.5530
 3592TIP3    H132335   1.278   4.547   0.940 -0.2676 -0.5782  0.7062
 3592TIP3    H232336   1.378   4.549   1.054  0.8297  0.2804 -0.2472
 3593TIP3   OH232337   0.751   3.063   3.036  0.3919  0.4608  0.2289
 3593TIP3    H132338   0.817   3.123   3.002  1.6989 -1.3739 -0.6021
 3593TIP3    H232339   0.669   3.112   3.031  1.1945  1.7140 -1.6925
 3594TIP3   OH232340   6.492   4.762   0.756 -0.3105 -0.1123 -0.2486
 3594TIP3    H132341   6.428   4.829   0.777 -0.5396  0.4063 -2.3722
 3594TIP3    H232342   6.528   4.735   0.841 -3.4946 -0.6449  1.0526
 3595TIP3   OH232343   3.966   6.615   1.123  0.4367  0.3133  0.1531
 3595TIP3    H132344   3.977   6.548   1.190  0.0076  0.0155 -0.0659
 3595TIP3    H232345   3.873   6.610   1.100  0.7204 -0.0643 -0.9635
 3596TIP3   OH232346   5.045   1.989   1.320 -0.4058  0.5755  0.1763
 3596TIP3    H132347   4.958   2.026   1.304  0.2836  1.6904 -1.1446
 3596TIP3    H232348   5.065   1.940   1.240  0.2311  0.4183  0.4308
 3597TIP3   OH232349   5.831   5.881   1.727  0.3140  0.3929 -0.1479
 3597TIP3    H132350   5.775   5.921   1.793  1.7932  1.0802  0.7469
 3597TIP3    H232351   5.917   5.920   1.742  0.8439  0.1053 -2.0929
 3598TIP3   OH232352   1.983   3.288   1.183 -0.5309 -0.6169  0.0365
 3598TIP3    H132353   1.903   3.321   1.225 -0.7946 -0.3053 -0.7065
 3598TIP3    H232354   2.013   3.218   1.241 -2.0637 -1.6294 -0.3421
 3599TIP3   OH232355   2.719   2.451   7.945 -0.3927 -0.4684 -0.8094
 3599TIP3    H132356   2.694   2.463   8.036  0.9166 -1.0059 -0.3583
 3599TIP3    H232357   2.638   2.425   7.901 -1.1302  0.2237  0.1001
 3600TIP3   OH232358   6.802   2.266   8.174 -0.1350 -0.0781 -0.0233
 3600TIP3    H132359   6.772   2.353   8.200 -0.6432 -0.1422 -0.3916
 3600TIP3    H232360   6.881   2.282   8.123  0.0856  0.1330  0.3822
 3601TIP3   OH232361   2.852   0.736   2.094 -0.4975  0.1663  0.4891
 3601TIP3    H132362   2.942   0.712   2.114  0.4160  2.2038 -0.9686
 3601TIP3    H232363   2.837   0.817   2.143 -0.9826  0.7069 -0.5243
 3602TIP3   OH232364   1.708   3.440   0.432 -0.3647  0.3081  0.6654
 3602TIP3    H132365   1.766   3.433   0.357 -0.7443  0.6504  0.3377
 3602TIP3    H232366   1.720   3.357   0.479  1.0167  0.7118  1.0673
 3603TIP3   OH232367   1.719   0.872   1.284 -0.0405  0.2811  0.1378
 3603TIP3    H132368   1.657   0.925   1.332 -1.5422 -0.5482 -0.8175
 3603TIP3    H232369   1.789   0.933   1.259 -1.0857  1.5232  0.1498
 3604TIP3   OH232370   1.433   6.576   0.709 -0.0626  0.2987  0.0682
 3604TIP3    H132371   1.448   6.643   0.643  0.8972 -0.9649 -1.0372
 3604TIP3    H232372   1.338   6.560   0.706  0.0657 -0.2971 -1.5862
 3605TIP3   OH232373   4.112   6.047   1.756 -0.2483 -0.0195  0.2298
 3605TIP3    H132374   4.186   6.023   1.811  0.4340  0.3231 -0.5266
 3605TIP3    H232375   4.084   5.965   1.715 -1.0749 -0.3685  1.4369
 3606TIP3   OH232376   4.701   2.889   8.317  0.2680 -0.6086  0.3019
 3606TIP3    H132377   4.644   2.829   8.268  0.1066  0.2048 -0.5372
 3606TIP3    H232378   4.648   2.916   8.392 -1.4131  1.9113 -1.6437
 3607TIP3   OH232379   0.694   4.752   7.947  0.4168 -0.9003  0.2881
 3607TIP3    H132380   0.627   4.706   7.998 -1.6266 -0.0109 -1.4111
 3607TIP3    H232381   0.716   4.829   8.000  0.5643 -1.5240  1.1473
 3608TIP3   OH232382   6.097   1.179   0.972  0.2816  0.3065 -0.1371
 3608TIP3    H132383   6.047   1.227   0.905  0.5444 -0.2034 -0.7087
 3608TIP3    H232384   6.116   1.094   0.931 -0.4256 -0.4115  0.9541
 3609TIP3   OH232385   5.255   3.783   8.143 -0.2684 -0.6989  0.2833
 3609TIP3    H132386   5.337   3.741   8.168  0.0826 -0.7055 -0.8253
 3609TIP3    H232387   5.195   3.763   8.215  0.8691 -0.1368  1.4399
 3610TIP3   OH232388   1.635   0.476   1.631  0.7472 -0.4262 -0.2270
 3610TIP3    H132389   1.723   0.509   1.651  0.4325 -0.2129  0.8479
 3610TIP3    H232390   1.603   0.439   1.713  0.3070 -1.6469 -0.9186
 3611TIP3   OH232391   1.518   6.388   1.637 -0.4128 -0.3917 -0.6997
 3611TIP3    H132392   1.498   6.297   1.662 -0.5590 -0.2434 -0.2708
 3611TIP3    H232393   1.613   6.395   1.645 -0.5163 -0.1573  0.4781
 3612TIP3   OH232394   1.003   2.841   7.841  0.6759  0.0180  0.2354
 3612TIP3    H132395   0.973   2.875   7.925 -0.3915 -0.4081  0.0313
 3612TIP3    H232396   0.984   2.747   7.844  0.9411 -0.0604 -0.3553
 3613TIP3   OH232397   3.972   3.759   2.430 -0.5645 -0.0717 -0.1802
 3613TIP3    H132398   3.892   3.804   2.405 -1.1904 -0.8227  0.4363
 3613TIP3    H232399   3.965   3.748   2.524 -0.2737 -1.1475 -0.2712
 3614TIP3   OH232400   0.782   2.478   8.381 -0.4750  0.0913  0.4222
 3614TIP3    H132401   0.752   2.568   8.374 -2.8979 -0.7452 -0.9061
 3614TIP3    H232402   0.803   2.452   8.291 -1.4903 -1.1690  0.5210
 3615TIP3   OH232403   5.286   3.926   0.057 -0.0467 -0.0455  0.5115
 3615TIP3    H132404   5.307   4.019   0.044 -0.4798  0.5397  3.4065
 3615TIP3    H232405   5.268   3.893  -0.032 -0.0950  2.6621 -0.5808
 3616TIP3   OH232406   5.275   3.874   1.271  0.2247 -0.2114 -1.0917
 3616TIP3    H132407   5.337   3.946   1.289  1.2136 -1.0152 -1.2079
 3616TIP3    H232408   5.193   3.919   1.248  1.1080  0.9140 -2.2079
 3617TIP3   OH232409   1.549   3.690   2.198 -0.2134  0.7419 -0.1035
 3617TIP3    H132410   1.534   3.642   2.116  0.2583  1.4455 -0.6116
 3617TIP3    H232411   1.551   3.622   2.265 -0.1419  0.1044 -0.7372
 3618TIP3   OH232412   0.081   0.317   6.949  0.1253 -0.0002  0.3277
 3618TIP3    H132413   0.156   0.329   6.891 -0.6545 -1.6248 -1.1478
 3618TIP3    H232414   0.035   0.401   6.946  2.4113  1.4292  2.2004
 3619TIP3   OH232415   5.169   2.037   7.333  0.0517  0.1752  0.0482
 3619TIP3    H132416   5.165   2.015   7.240  0.2156  0.9855 -0.1594
 3619TIP3    H232417   5.240   1.983   7.368 -0.0340 -0.1553 -0.2883
 3620TIP3   OH232418   4.994   2.278   7.905  0.3849 -0.0361 -0.1496
 3620TIP3    H132419   5.034   2.191   7.914  0.4651 -0.1104 -1.1495
 3620TIP3    H232420   4.921   2.277   7.967  1.3786 -0.2069  1.0730
 3621TIP3   OH232421   4.581   0.997   7.575  0.1715  0.2082 -0.0596
 3621TIP3    H132422   4.587   0.915   7.526  0.7144 -1.2470  2.2652
 3621TIP3    H232423   4.667   1.006   7.617 -0.3840  1.1459  0.9193
 3622TIP3   OH232424   3.457   4.427   7.710  0.3203  0.6626  0.0969
 3622TIP3    H132425   3.438   4.503   7.655  1.1886  1.3082  0.6653
 3622TIP3    H232426   3.552   4.418   7.707  0.2539 -0.2247  0.2892
 3623TIP3   OH232427   6.738   2.837   2.399 -0.0096  0.5474  0.2251
 3623TIP3    H132428   6.755   2.760   2.345 -0.9570  0.5713 -0.1360
 3623TIP3    H232429   6.642   2.840   2.406  0.1065  0.1165  2.5379
 3624TIP3   OH232430   1.499   3.138   0.309 -0.0039 -0.5760 -1.0501
 3624TIP3    H132431   1.576   3.151   0.364  0.0704  0.4066 -1.3789
 3624TIP3    H232432   1.534   3.099   0.229  0.0224 -1.0213 -0.8250
 3625TIP3   OH232433   3.201   3.142   1.771  0.1004  0.2263 -0.2198
 3625TIP3    H132434   3.207   3.231   1.738 -1.3274  0.5455  0.3005
 3625TIP3    H232435   3.143   3.097   1.710  1.2274 -0.5245 -0.7807
 3626TIP3   OH232436   1.263   6.730   1.710 -0.0855  0.3096  0.3087
 3626TIP3    H132437   1.226   6.773   1.633  1.6911  0.1687 -0.6780
 3626TIP3    H232438   1.247   6.636   1.696 -0.2713  0.3284  0.3967
 3627TIP3   OH232439   2.330   4.629   0.341 -0.2486 -0.2808 -0.4399
 3627TIP3    H132440   2.396   4.629   0.411 -0.2275  0.1978 -0.4587
 3627TIP3    H232441   2.364   4.567   0.276 -0.6049 -1.2668  0.2898
 3628TIP3   OH232442   4.670   5.221   1.899  0.0318  0.1014  0.0731
 3628TIP3    H132443   4.732   5.171   1.953 -1.9804 -0.1873  2.2908
 3628TIP3    H232444   4.612   5.263   1.963 -1.2363  1.4487 -1.8704
 3629TIP3   OH232445   2.118   0.091   1.832 -0.3232 -0.7763 -0.5079
 3629TIP3    H132446   2.200   0.054   1.864  0.7784  0.6612 -1.5959
 3629TIP3    H232447   2.082   0.022   1.775 -2.1491 -3.2490  3.2267
 3630TIP3   OH232448   1.737   1.432   7.769  0.1718 -0.2902 -0.2227
 3630TIP3    H132449   1.758   1.402   7.680  2.0630 -0.3896  0.2122
 3630TIP3    H232450   1.660   1.488   7.758 -0.2605 -1.1393 -1.7701
 3631TIP3   OH232451   2.059   3.645   7.492  0.2954 -0.2010  0.3066
 3631TIP3    H132452   2.035   3.560   7.528 -0.8919 -0.9737 -2.1051
 3631TIP3    H232453   1.976   3.686   7.469  0.9503  0.5999 -0.7056
 3632TIP3   OH232454   0.424   3.801   2.060  0.5256 -0.2135 -0.1758
 3632TIP3    H132455   0.355   3.867   2.052  0.5635  0.2300  2.4014
 3632TIP3    H232456   0.482   3.818   1.985 -0.5823  1.3096 -0.7399
 3633TIP3   OH232457   2.331   2.454   0.651  0.6505 -0.1137  0.1903
 3633TIP3    H132458   2.329   2.533   0.597  0.0181  0.7878  1.4617
 3633TIP3    H232459   2.348   2.383   0.590  1.2736  1.0089 -0.9900
 3634TIP3   OH232460   6.396   3.564   8.103  0.3364  0.1832 -0.0090
 3634TIP3    H132461   6.346   3.573   8.184 -0.7068  0.0231 -0.6170
 3634TIP3    H232462   6.330   3.555   8.034  1.2009 -0.3779 -0.8037
 3635TIP3   OH232463   5.801   4.891   2.659  0.3111 -0.5227 -0.2347
 3635TIP3    H132464   5.853   4.934   2.592 -1.3097 -2.1482 -2.7120
 3635TIP3    H232465   5.818   4.941   2.739  3.8619  0.3317 -1.3473
 3636TIP3   OH232466   1.026   3.148   7.833 -0.0608  0.3628  0.7323
 3636TIP3    H132467   1.102   3.171   7.779 -1.1103 -1.2636 -1.5909
 3636TIP3    H232468   0.963   3.218   7.818 -0.9162 -0.7944 -1.4560
 3637TIP3   OH232469   2.202   5.736   0.478  0.9146 -0.0930 -0.3603
 3637TIP3    H132470   2.276   5.719   0.420  1.1520 -0.0934 -0.0575
 3637TIP3    H232471   2.197   5.658   0.533 -0.0353 -0.6142 -1.1459
 3638TIP3   OH232472   0.126   0.973   2.141 -0.0681  0.2440  0.1295
 3638TIP3    H132473   0.113   1.005   2.231 -0.1003  1.1704 -0.1889
 3638TIP3    H232474   0.221   0.980   2.127 -0.0675  0.1345  0.0840
 3639TIP3   OH232475   3.881   2.084   0.188 -0.1711 -0.5112  0.4305
 3639TIP3    H132476   3.831   2.135   0.125  1.4039 -0.2780 -0.6918
 3639TIP3    H232477   3.924   2.016   0.136  0.1352 -1.1299  1.4574
 3640TIP3   OH232478   6.157   3.058   0.342 -0.3280 -0.0881 -0.2515
 3640TIP3    H132479   6.206   3.077   0.262 -0.1008  3.4470  0.5357
 3640TIP3    H232480   6.196   2.978   0.376  1.3259 -0.2508 -2.3284
 3641TIP3   OH232481   6.755   6.782   2.035 -0.3202  0.2679 -0.1017
 3641TIP3    H132482   6.682   6.721   2.022  0.5292 -0.7286 -0.2762
 3641TIP3    H232483   6.746   6.811   2.126 -0.8301  0.0070 -0.0662
 3642TIP3   OH232484   5.514   0.192   0.405  0.0319  0.1398  0.1039
 3642TIP3    H132485   5.539   0.285   0.407  0.3204  0.0684 -0.1039
 3642TIP3    H232486   5.421   0.192   0.428  0.1010  0.4545  0.4024
 3643TIP3   OH232487   2.620   0.955   1.806  0.3198 -0.3662  0.7484
 3643TIP3    H132488   2.566   0.917   1.875  0.8686 -1.9696  0.3375
 3643TIP3    H232489   2.667   1.027   1.848 -1.0190  0.1317  1.4631
 3644TIP3   OH232490   1.471   1.749   7.475  0.5431 -0.5688  0.4759
 3644TIP3    H132491   1.484   1.750   7.380 -1.0220  0.1848  0.2263
 3644TIP3    H232492   1.559   1.756   7.512  1.0671  1.4395 -0.9676
 3645TIP3   OH232493   0.935   5.947   7.761 -0.0948 -0.2887  0.7457
 3645TIP3    H132494   0.891   6.001   7.696 -1.7586  1.8777  3.4290
 3645TIP3    H232495   0.882   5.867   7.765 -0.0517 -0.3865 -0.4311
 3646TIP3   OH232496   3.849   4.479   0.898  0.6187  0.2310 -0.1572
 3646TIP3    H132497   3.817   4.552   0.845  1.4020  0.5277 -0.2343
 3646TIP3    H232498   3.939   4.503   0.919  1.4806 -1.5223 -1.6477
 3647TIP3   OH232499   0.939   3.149   1.252  0.5885  0.3207 -0.6555
 3647TIP3    H132500   1.031   3.122   1.243  1.1742  2.2809 -1.0961
 3647TIP3    H232501   0.939   3.209   1.327 -0.6189 -0.6679  0.1866
 3648TIP3   OH232502   2.027   3.931   6.820  0.0554 -0.2021  0.6662
 3648TIP3    H132503   1.993   4.014   6.786  1.4804  0.1382  0.0106
 3648TIP3    H232504   2.118   3.949   6.842  0.8272 -1.9136 -0.7780
 3649TIP3   OH232505   2.881   5.110   0.750 -0.1415 -0.5302 -0.4621
 3649TIP3    H132506   2.830   5.034   0.724 -0.0307 -0.6763 -0.2568
 3649TIP3    H232507   2.850   5.132   0.837 -0.2373 -0.2829 -0.5572
 3650TIP3   OH232508   2.214   6.038   0.941 -0.1062 -0.4988 -0.7954
 3650TIP3    H132509   2.222   6.062   1.033  0.4966  2.9158 -1.6160
 3650TIP3    H232510   2.294   5.990   0.921  0.2784 -0.2849  0.2010
 3651TIP3   OH232511   1.878   1.701   0.956  0.3646 -0.1731  0.1583
 3651TIP3    H132512   1.783   1.708   0.970  0.3984 -0.5008  0.5522
 3651TIP3    H232513   1.902   1.785   0.917 -0.2471 -0.4549 -0.8714
 3652TIP3   OH232514   5.078   1.387   0.122  0.2860 -0.1312 -0.7125
 3652TIP3    H132515   5.145   1.414   0.186 -0.8594  0.1798  0.4036
 3652TIP3    H232516   5.033   1.314   0.164 -1.3322  0.8966 -0.5419
 3653TIP3   OH232517   4.960   5.334   1.370  0.8092  0.8613 -0.1091
 3653TIP3    H132518   5.042   5.349   1.322  1.2718  0.9942  0.7122
 3653TIP3    H232519   4.909   5.414   1.356  2.0839  2.0893  1.8738
 3654TIP3   OH232520   6.795   5.827   0.206 -0.1188  0.0477  0.4939
 3654TIP3    H132521   6.864   5.793   0.149 -0.9771 -0.4733 -0.2554
 3654TIP3    H232522   6.717   5.830   0.151 -0.5810  1.1660  1.1658
 3655TIP3   OH232523   3.848   2.053   7.234  0.0388 -0.3528  0.1226
 3655TIP3    H132524   3.771   2.096   7.269 -0.3423 -1.5545  0.8254
 3655TIP3    H232525   3.828   1.959   7.240  0.6193 -0.6575 -1.8065
 3656TIP3   OH232526   1.886   6.117   1.396  0.2165  0.0746  0.3103
 3656TIP3    H132527   1.834   6.193   1.370 -0.7112 -0.3841  0.7735
 3656TIP3    H232528   1.826   6.064   1.449  0.2394 -1.9178 -1.5199
 3657TIP3   OH232529   5.259   0.048   0.257  0.4136 -0.7149 -0.3004
 3657TIP3    H132530   5.202   0.076   0.185  0.4601  2.3760  0.7315
 3657TIP3    H232531   5.346   0.042   0.217  0.2109 -0.4251 -0.7996
 3658TIP3   OH232532   2.488   5.771   0.512  0.2940 -0.4004 -0.3270
 3658TIP3    H132533   2.438   5.795   0.434  1.5409 -0.5828 -1.2092
 3658TIP3    H232534   2.519   5.682   0.494  1.0243 -0.2468  0.1542
 3659TIP3   OH232535   5.339   1.602   0.282  0.3989 -0.2504 -0.6492
 3659TIP3    H132536   5.410   1.655   0.319  2.0390 -2.4384 -0.4114
 3659TIP3    H232537   5.331   1.632   0.192  0.9605  0.6968 -0.4047
 3660TIP3   OH232538   3.579   1.835   0.792 -0.2941  0.2997  0.3855
 3660TIP3    H132539   3.597   1.895   0.720 -0.0988  0.9685  0.9737
 3660TIP3    H232540   3.552   1.754   0.750 -0.3912  0.7446 -0.4344
 3661TIP3   OH232541   6.302   1.456   0.432  0.1721  0.0303  0.4309
 3661TIP3    H132542   6.347   1.525   0.482  0.7072  1.3461 -1.7159
 3661TIP3    H232543   6.368   1.388   0.421  0.0671 -0.2480  1.4160
 3662TIP3   OH232544   4.941   4.051   0.886  0.1786  0.3268 -0.1314
 3662TIP3    H132545   4.898   4.099   0.956 -0.1601 -1.0834  0.6742
 3662TIP3    H232546   4.986   4.118   0.834 -0.5233  1.5135  0.7506
 3663TIP3   OH232547   5.154   0.733   2.754  0.2037  0.7271  0.4528
 3663TIP3    H132548   5.134   0.811   2.808  3.3044  0.5924  2.0051
 3663TIP3    H232549   5.249   0.726   2.756  0.2216 -1.3874 -2.2508
 3664TIP3   OH232550   4.370   0.160   8.561 -0.1849 -0.0877 -0.4353
 3664TIP3    H132551   4.419   0.122   8.633 -1.1413  0.0304  0.2923
 3664TIP3    H232552   4.297   0.206   8.603 -0.9120 -0.2492 -1.4798
 3665TIP3   OH232553   6.729   2.181   7.014 -0.4794 -0.2551 -0.3343
 3665TIP3    H132554   6.812   2.198   7.059  0.7187 -1.2664 -2.0410
 3665TIP3    H232555   6.672   2.253   7.041  1.0006  0.5623  0.7664
 3666TIP3   OH232556   1.805   1.486   2.753 -0.3011 -0.3405  0.4650
 3666TIP3    H132557   1.727   1.437   2.780  1.2967 -3.3823 -0.0175
 3666TIP3    H232558   1.840   1.436   2.679  0.7900  2.3266 -0.9443
 3667TIP3   OH232559   0.155   5.936   1.415  0.5019  0.5852 -0.0214
 3667TIP3    H132560   0.199   5.927   1.499  0.8819 -0.3554 -0.3020
 3667TIP3    H232561   0.226   5.939   1.351  0.2112  1.1245 -0.3224
 3668TIP3   OH232562   2.805   5.046   8.527  0.3500 -0.7420 -0.2190
 3668TIP3    H132563   2.731   5.102   8.549  2.0395  1.8141 -0.5570
 3668TIP3    H232564   2.805   5.041   8.432  0.3977 -1.0779 -0.2052
 3669TIP3   OH232565   1.636   1.645   2.351 -0.3814 -0.5094  0.1218
 3669TIP3    H132566   1.672   1.657   2.439 -0.4923  0.4331  0.0479
 3669TIP3    H232567   1.677   1.565   2.319  0.8122 -0.0529  0.4592
 3670TIP3   OH232568   4.594   2.950   1.458  0.5207  0.2876  0.2359
 3670TIP3    H132569   4.582   2.909   1.543  1.3130 -0.7244 -0.1109
 3670TIP3    H232570   4.653   2.891   1.411 -0.2645  0.5719 -1.1894
 3671TIP3   OH232571   2.827   6.786   0.161  0.5833  0.4305 -0.2736
 3671TIP3    H132572   2.864   6.698   0.172  0.4743  0.4847  0.6268
 3671TIP3    H232573   2.786   6.805   0.245  1.3734  1.7081 -0.1418
 3672TIP3   OH232574   1.411   5.265   7.226 -0.6298  0.0629  0.1260
 3672TIP3    H132575   1.487   5.213   7.198 -0.3380  1.3850 -1.6402
 3672TIP3    H232576   1.409   5.253   7.321  1.6894 -0.1455  0.2077
 3673TIP3   OH232577   6.719   6.878   2.542 -0.4155 -0.3422 -0.3581
 3673TIP3    H132578   6.646   6.905   2.597 -1.6987 -1.6374 -1.3558
 3673TIP3    H232579   6.755   6.800   2.585 -0.0232 -0.0875 -0.2166
 3674TIP3   OH232580   1.443   2.997   1.705 -0.2383  0.7381 -0.3883
 3674TIP3    H132581   1.506   3.066   1.684  0.3975  0.5453  0.7912
 3674TIP3    H232582   1.469   2.922   1.651  1.1238  0.3649  0.7468
 3675TIP3   OH232583   3.180   5.791   0.042  0.2115 -0.5972  0.5200
 3675TIP3    H132584   3.122   5.849  -0.008  0.2337  0.2600  1.4711
 3675TIP3    H232585   3.156   5.703   0.013 -0.3178 -0.1622 -0.4206
 3676TIP3   OH232586   0.187   1.006   8.126  0.6420  0.0355  0.0670
 3676TIP3    H132587   0.237   0.948   8.069  1.5988 -0.5393  1.4436
 3676TIP3    H232588   0.115   1.037   8.071  1.4513 -0.5837 -1.4058
 3677TIP3   OH232589   3.632   2.187   0.795  0.0820 -0.5025 -0.1757
 3677TIP3    H132590   3.564   2.174   0.861  1.6383  1.8119  2.0900
 3677TIP3    H232591   3.707   2.139   0.828  0.2690 -1.1417 -1.4673
 3678TIP3   OH232592   0.098   2.569   0.086  0.0450 -0.2524  0.0149
 3678TIP3    H132593   0.029   2.503   0.095  0.3150 -0.6006 -0.4464
 3678TIP3    H232594   0.082   2.630   0.159  1.6269 -2.4361  2.3453
 3679TIP3   OH232595   6.462   6.330   1.899 -0.0030  0.4349  0.4241
 3679TIP3    H132596   6.519   6.341   1.823 -3.0800 -0.6134 -2.2995
 3679TIP3    H232597   6.484   6.243   1.933 -0.1239 -0.1136 -0.8170
 3680TIP3   OH232598   3.703   6.411   8.145 -0.3817 -0.7526 -0.3420
 3680TIP3    H132599   3.798   6.422   8.132 -0.3445  0.8835  1.0760
 3680TIP3    H232600   3.663   6.456   8.070 -0.0482  2.2622  1.1408
 3681TIP3   OH232601   2.007   5.910   6.824  0.9139 -0.0598  0.3375
 3681TIP3    H132602   1.975   5.975   6.761  2.5057  0.8153  0.3588
 3681TIP3    H232603   1.948   5.917   6.899 -1.7388 -1.9309 -1.3991
 3682TIP3   OH232604   3.447   6.577   2.419 -0.3348 -0.0124  0.0012
 3682TIP3    H132605   3.377   6.638   2.394  1.2644  1.3600 -1.3047
 3682TIP3    H232606   3.504   6.629   2.476 -0.1259 -0.9909  0.7073
 3683TIP3   OH232607   5.387   5.505   8.387 -0.0615 -0.4008  0.6414
 3683TIP3    H132608   5.451   5.480   8.321  0.4639  0.8093  0.6630
 3683TIP3    H232609   5.393   5.600   8.391 -2.2634 -0.1984  0.2435
 3684TIP3   OH232610   4.848   4.725   7.879 -0.4602  1.2915  0.0295
 3684TIP3    H132611   4.852   4.700   7.787 -0.1330 -3.5399  1.0714
 3684TIP3    H232612   4.917   4.790   7.890  1.9006 -0.5559 -2.5588
 3685TIP3   OH232613   6.238   4.167   1.194  0.0185  0.2924 -0.2907
 3685TIP3    H132614   6.187   4.160   1.113  2.0072 -0.1630 -1.5839
 3685TIP3    H232615   6.264   4.077   1.213 -0.2569  0.4245  0.7619
 3686TIP3   OH232616   3.031   0.413   2.549  0.1994  0.5861 -0.2874
 3686TIP3    H132617   2.953   0.466   2.569  1.0430  1.0568  2.0286
 3686TIP3    H232618   3.021   0.391   2.456 -1.2510  3.0114 -0.8068
 3687TIP3   OH232619   4.936   1.511   0.908  0.7562  0.1614 -0.0937
 3687TIP3    H132620   4.920   1.514   1.003 -1.2240  0.0033 -0.3716
 3687TIP3    H232621   4.933   1.418   0.886  0.4078  0.2424 -0.4067
 3688TIP3   OH232622   6.847   5.285   7.310  0.0073  0.0214  0.2594
 3688TIP3    H132623   6.769   5.337   7.328  1.2535  1.2679  2.5239
 3688TIP3    H232624   6.898   5.339   7.250 -0.7333 -0.7365 -1.1165
 3689TIP3   OH232625   4.675   4.501   8.279  0.6030  0.0519 -0.4461
 3689TIP3    H132626   4.688   4.559   8.354 -0.8864  1.3869 -1.1485
 3689TIP3    H232627   4.586   4.466   8.292  0.3719  0.2123 -1.4956
 3690TIP3   OH232628   5.990   4.980   2.485 -0.4916 -0.1294 -0.3108
 3690TIP3    H132629   5.997   4.898   2.437  1.6933 -0.6059  0.7042
 3690TIP3    H232630   6.068   4.983   2.541 -1.1122  2.0690  0.5822
 3691TIP3   OH232631   1.547   2.927   1.454 -0.7137 -0.1290 -0.1009
 3691TIP3    H132632   1.518   2.845   1.413  1.3270 -0.6593 -0.6018
 3691TIP3    H232633   1.547   2.991   1.383  1.3310 -0.6771 -0.6844
 3692TIP3   OH232634   1.604   1.811   8.550  0.4257 -0.5444 -0.2331
 3692TIP3    H132635   1.617   1.799   8.644 -1.2183 -1.1719 -0.0658
 3692TIP3    H232636   1.579   1.725   8.518 -1.0847  0.1118 -0.8676
 3693TIP3   OH232637   2.523   3.106   0.544 -0.3523 -0.5221 -0.3286
 3693TIP3    H132638   2.612   3.097   0.510  0.1423  1.1021  0.4439
 3693TIP3    H232639   2.523   3.056   0.625  0.7302  1.6722  1.1108
 3694TIP3   OH232640   2.082   5.124   0.408  0.0964  0.0744 -0.0719
 3694TIP3    H132641   2.131   5.070   0.469 -0.9217  0.2986  0.9827
 3694TIP3    H232642   2.000   5.144   0.454 -0.0685  1.4817 -0.9245
 3695TIP3   OH232643   1.065   4.611   0.928  0.0217 -1.0015 -0.0430
 3695TIP3    H132644   1.044   4.545   0.994  0.0557 -0.1409  0.8469
 3695TIP3    H232645   1.068   4.694   0.976  0.8288 -0.4591 -0.9880
 3696TIP3   OH232646   6.591   1.760   2.287 -0.3461 -0.7215 -0.5738
 3696TIP3    H132647   6.680   1.726   2.280 -0.4539 -1.2063  0.2473
 3696TIP3    H232648   6.579   1.776   2.381 -1.5083 -1.7442 -0.5221
 3697TIP3   OH232649   6.448   6.277   0.766 -0.0392 -0.3641  0.2367
 3697TIP3    H132650   6.432   6.298   0.674 -0.5517 -3.2002 -0.4267
 3697TIP3    H232651   6.360   6.268   0.803  0.1380 -1.0584  0.5008
 3698TIP3   OH232652   5.617   2.223   1.376  0.2170 -0.0293  0.0007
 3698TIP3    H132653   5.661   2.296   1.333 -0.5154 -0.2121 -1.1085
 3698TIP3    H232654   5.687   2.174   1.419  0.6661  1.6339  1.2824
 3699TIP3   OH232655   2.955   5.203   1.203 -0.5782  0.3149  0.1175
 3699TIP3    H132656   2.951   5.190   1.298 -0.6290 -0.2044  0.0460
 3699TIP3    H232657   3.047   5.221   1.185 -0.6151  0.7005  0.2992
 3700TIP3   OH232658   6.776   0.959   7.457 -0.0560  0.3549 -0.3233
 3700TIP3    H132659   6.685   0.967   7.430 -0.3235  0.1714  0.4865
 3700TIP3    H232660   6.801   1.047   7.485  0.4470  0.7095 -1.8057
 3701TIP3   OH232661   6.469   1.475   2.474  0.1611 -0.4407  0.0661
 3701TIP3    H132662   6.374   1.486   2.461  0.3705 -0.4156 -1.8045
 3701TIP3    H232663   6.499   1.563   2.498 -0.3515 -0.5797  1.2885
 3702TIP3   OH232664   2.215   1.560   1.944 -0.0890  0.5656 -0.1093
 3702TIP3    H132665   2.178   1.519   2.022  0.5033  2.9112  1.5321
 3702TIP3    H232666   2.140   1.597   1.898 -0.4847 -1.1490 -0.9275
 3703TIP3   OH232667   3.293   4.035   8.595  0.4938  0.5239  0.6080
 3703TIP3    H132668   3.339   3.974   8.653 -0.3759 -0.6440  0.1140
 3703TIP3    H232669   3.250   4.097   8.654  0.5734  0.0577  1.1572
 3704TIP3   OH232670   2.671   1.722   1.495  0.6368 -0.2609  0.2349
 3704TIP3    H132671   2.589   1.723   1.545  1.5311  0.6430  1.7562
 3704TIP3    H232672   2.726   1.660   1.542  0.8901 -0.7538 -0.6989
 3705TIP3   OH232673   4.840   5.050   0.209 -0.7182  0.7297  0.2231
 3705TIP3    H132674   4.838   5.134   0.255  2.5201  2.2910 -2.1420
 3705TIP3    H232675   4.771   5.058   0.142 -0.7780  1.2914  0.3416
 3706TIP3   OH232676   3.239   5.033   0.168 -0.1084  0.0878 -0.0927
 3706TIP3    H132677   3.187   5.039   0.248 -0.5697  0.9522 -0.4438
 3706TIP3    H232678   3.322   4.995   0.196 -0.4230 -0.0104  0.7238
 3707TIP3   OH232679   5.620   6.485   0.317 -0.5276  0.3311 -0.0705
 3707TIP3    H132680   5.691   6.422   0.327 -1.2503 -0.3641  0.9275
 3707TIP3    H232681   5.659   6.569   0.341 -0.0473 -0.0589  0.5401
 3708TIP3   OH232682   3.425   2.356   0.456  0.2885 -0.1431 -0.1417
 3708TIP3    H132683   3.396   2.424   0.396 -0.7607 -0.7058 -0.2912
 3708TIP3    H232684   3.389   2.275   0.421  0.1333 -0.5587  0.9187
 3709TIP3   OH232685   3.460   2.031   7.200 -0.5622  0.6681  0.0928
 3709TIP3    H132686   3.388   2.083   7.236 -0.2175 -0.3250  2.4743
 3709TIP3    H232687   3.534   2.091   7.197 -0.6757  0.8572  0.8405
 3710TIP3   OH232688   1.691   1.245   8.068 -0.2319  0.2477 -0.0048
 3710TIP3    H132689   1.764   1.282   8.019 -0.8218 -0.8021 -1.7700
 3710TIP3    H232690   1.634   1.207   8.001 -1.0944 -1.2613  1.5085
 3711TIP3   OH232691   3.999   0.249   2.751  0.3578 -0.0131  0.3607
 3711TIP3    H132692   3.929   0.245   2.686  1.3183  0.1662 -0.7090
 3711TIP3    H232693   3.963   0.204   2.827 -0.2690 -1.5149 -0.7766
 3712TIP3   OH232694   1.786   5.372   8.418  0.0575 -0.3180  0.5043
 3712TIP3    H132695   1.737   5.297   8.452 -0.5710 -0.4505 -0.6380
 3712TIP3    H232696   1.870   5.335   8.389 -0.6885 -0.8202 -1.1096
 3713TIP3   OH232697   6.398   1.164   8.585 -0.4012  0.0271 -0.1341
 3713TIP3    H132698   6.358   1.167   8.498 -0.6172 -0.5108 -0.0556
 3713TIP3    H232699   6.347   1.099   8.633  0.7663 -0.9075 -0.1270
 3714TIP3   OH232700   0.226   4.227   0.338 -0.7276  0.3315 -0.3903
 3714TIP3    H132701   0.282   4.151   0.325 -1.6084 -0.4945  0.5419
 3714TIP3    H232702   0.264   4.271   0.415 -1.6988 -0.5867  0.6478
 3715TIP3   OH232703   1.951   3.049   0.424  0.7874  0.2126 -0.1592
 3715TIP3    H132704   1.870   3.084   0.386 -0.2576 -0.6081  1.2163
 3715TIP3    H232705   1.923   2.973   0.476  2.8079 -1.9746 -2.0259
 3716TIP3   OH232706   4.087   6.290   0.498  0.0089 -0.4664  0.9398
 3716TIP3    H132707   4.084   6.337   0.581  0.3194  0.8241  0.2451
 3716TIP3    H232708   3.995   6.280   0.473 -0.0749 -0.6442  1.3215
 3717TIP3   OH232709   0.835   4.283   7.732 -0.3115 -0.3129  0.0409
 3717TIP3    H132710   0.876   4.369   7.727 -0.2709 -0.3273  0.1249
 3717TIP3    H232711   0.894   4.226   7.682  0.1354 -0.4727  0.7397
 3718TIP3   OH232712   0.056   0.268   2.753 -0.3618  0.3449  0.2969
 3718TIP3    H132713  -0.039   0.260   2.754 -0.4200  0.9582  0.5040
 3718TIP3    H232714   0.083   0.250   2.843  0.1751 -4.2695 -0.5741
 3719TIP3   OH232715   1.554   0.338   0.236  0.0685 -0.2716  0.2691
 3719TIP3    H132716   1.571   0.361   0.328 -2.1086 -0.4886  0.7808
 3719TIP3    H232717   1.641   0.326   0.198  1.0615  0.8999  2.0171
 3720TIP3   OH232718   1.629   4.978   7.350  0.1887 -0.5580 -0.5399
 3720TIP3    H132719   1.642   5.046   7.284 -0.6779 -0.2389 -0.4030
 3720TIP3    H232720   1.559   4.923   7.315  1.6042 -2.0447 -1.1429
 3721TIP3   OH232721   3.055   0.917   8.528 -0.1371 -0.5486 -0.1441
 3721TIP3    H132722   3.062   0.968   8.608 -2.1252 -2.6196  1.4771
 3721TIP3    H232723   3.133   0.860   8.529  1.3824  1.3569 -1.2924
 3722TIP3   OH232724   0.265   3.766   7.580 -0.7500  0.0806 -0.3476
 3722TIP3    H132725   0.299   3.685   7.541  1.2170  0.9786 -0.6170
 3722TIP3    H232726   0.238   3.740   7.668 -0.6345 -0.9887 -0.6141
 3723TIP3   OH232727   2.676   1.898   2.137 -0.1395  0.2248 -0.0156
 3723TIP3    H132728   2.648   1.820   2.089 -0.4844  0.5389 -0.3233
 3723TIP3    H232729   2.653   1.880   2.228  0.0546 -0.1580 -0.0398
 3724TIP3   OH232730   2.568   2.636   1.926 -0.2072  0.0649  0.2383
 3724TIP3    H132731   2.552   2.618   1.833  0.2008 -1.2875  0.4070
 3724TIP3    H232732   2.651   2.592   1.944 -0.7509 -0.4893  1.4689
 3725TIP3   OH232733   5.770   0.872   7.985 -0.6764 -0.3223 -0.2181
 3725TIP3    H132734   5.760   0.870   7.890  0.7489 -2.7267 -0.3926
 3725TIP3    H232735   5.863   0.859   7.999 -0.7168  0.9694  1.5359
 3726TIP3   OH232736   5.733   3.639   7.587  0.1601  0.0975  0.4150
 3726TIP3    H132737   5.681   3.629   7.508 -1.2065  0.3734  1.2585
 3726TIP3    H232738   5.796   3.708   7.566 -0.0099 -0.0247 -0.5128
 3727TIP3   OH232739   3.451   5.666   0.184  1.2072  0.0656 -0.6293
 3727TIP3    H132740   3.357   5.647   0.181  0.9849  1.1966 -2.5039
 3727TIP3    H232741   3.473   5.661   0.276 -0.6627 -0.3997 -0.1573
 3728TIP3   OH232742   1.860   0.239   6.730  0.0587 -0.4495 -0.2774
 3728TIP3    H132743   1.836   0.238   6.637  1.1723 -0.6433 -0.5745
 3728TIP3    H232744   1.874   0.332   6.749 -0.5135 -0.3728 -0.2005
 3729TIP3   OH232745   4.041   5.963   2.061 -0.7305 -0.4949 -0.2848
 3729TIP3    H132746   4.085   5.907   2.125  0.6060  0.7352 -0.0640
 3729TIP3    H232747   4.106   5.974   1.992 -0.5694  1.5554  0.1436
 3730TIP3   OH232748   1.443   3.080   7.557  0.1591 -0.1937  0.9105
 3730TIP3    H132749   1.396   3.030   7.490 -2.2792 -0.4553  2.6683
 3730TIP3    H232750   1.489   3.014   7.609  2.2425  0.0267 -0.5269
 3731TIP3   OH232751   4.859   1.142   1.931  0.1487  0.1972 -0.0120
 3731TIP3    H132752   4.780   1.177   1.972  0.3286  1.5927 -0.8033
 3731TIP3    H232753   4.827   1.085   1.862 -0.1481 -1.3148  1.2984
 3732TIP3   OH232754   3.446   3.363   7.473 -0.4982 -0.3285  0.0303
 3732TIP3    H132755   3.365   3.410   7.452 -0.9656 -0.0760  2.1801
 3732TIP3    H232756   3.514   3.430   7.474 -0.3895 -0.4106 -0.9944
 3733TIP3   OH232757   6.779   1.891   1.165  0.7004 -0.3088  0.1475
 3733TIP3    H132758   6.718   1.921   1.232  0.4746  1.1717 -0.6719
 3733TIP3    H232759   6.741   1.809   1.133 -0.0962 -0.1378  0.6292
 3734TIP3   OH232760   4.805   1.201   0.558 -0.3039 -0.2564 -0.2401
 3734TIP3    H132761   4.732   1.203   0.497 -0.3852 -1.6885 -0.2310
 3734TIP3    H232762   4.883   1.213   0.504 -0.5379  1.6453 -0.2048
 3735TIP3   OH232763   6.855   4.979   1.604  0.4976  0.1400 -0.3472
 3735TIP3    H132764   6.844   4.907   1.541  0.7780 -0.7841  0.6278
 3735TIP3    H232765   6.776   5.032   1.595  0.1833 -0.4149 -0.9323
 3736TIP3   OH232766   6.020   6.535   0.764 -0.0733 -0.2158 -0.3377
 3736TIP3    H132767   5.961   6.503   0.696 -2.0225  0.7599  0.8085
 3736TIP3    H232768   5.995   6.486   0.842  0.1583  0.6994  0.3219
 3737TIP3   OH232769   4.250   5.354   0.655 -0.0838  0.1065  0.6418
 3737TIP3    H132770   4.300   5.280   0.621  0.1022 -0.5932  2.3665
 3737TIP3    H232771   4.208   5.392   0.577  0.1922 -1.5057 -0.3373
 3738TIP3   OH232772   6.004   4.433   0.831  0.6123 -0.1061  0.0861
 3738TIP3    H132773   6.045   4.518   0.819  0.2511  0.4848  2.4534
 3738TIP3    H232774   5.921   4.452   0.875  1.1963 -1.7186  2.0462
 3739TIP3   OH232775   1.750   5.986   0.181  0.0454 -0.0129 -0.1874
 3739TIP3    H132776   1.768   5.978   0.087 -2.2890  2.6092 -1.0065
 3739TIP3    H232777   1.696   5.909   0.201 -0.2297 -0.1108 -1.2315
 3740TIP3   OH232778   1.166   5.224   7.851  0.2599  0.4138 -0.5704
 3740TIP3    H132779   1.231   5.286   7.883  0.0159  1.2282 -1.6173
 3740TIP3    H232780   1.100   5.278   7.809 -0.1491 -0.5346 -1.1649
 3741TIP3   OH232781   3.754   4.695   2.161 -0.2038 -0.4733  0.0586
 3741TIP3    H132782   3.768   4.759   2.092 -0.7981 -0.1224  0.2612
 3741TIP3    H232783   3.667   4.714   2.194 -0.6193 -1.7306 -0.2456
 3742TIP3   OH232784   5.321   2.494   1.583  0.7355 -0.1123  0.3322
 3742TIP3    H132785   5.258   2.554   1.543  1.4544  0.7495  0.4542
 3742TIP3    H232786   5.316   2.415   1.529 -0.4043 -0.0491  0.3120
 3743TIP3   OH232787   3.032   0.590   7.411  0.0465 -0.0212 -0.3775
 3743TIP3    H132788   3.005   0.664   7.465  1.7783  0.4284 -0.0364
 3743TIP3    H232789   2.977   0.518   7.439 -1.4789  1.0533 -0.5050
 3744TIP3   OH232790   1.501   0.284   7.673 -0.3417 -0.6401 -0.2402
 3744TIP3    H132791   1.481   0.237   7.754  0.4571  0.0575  0.3695
 3744TIP3    H232792   1.434   0.353   7.668  0.3237  0.0664  0.4544
 3745TIP3   OH232793   4.752   4.712   1.501 -0.1739  0.4732  0.2436
 3745TIP3    H132794   4.744   4.775   1.573 -2.6871  2.2267 -1.3955
 3745TIP3    H232795   4.731   4.627   1.541  1.6812  0.8306  2.1573
 3746TIP3   OH232796   6.166   4.796   2.786 -0.0764 -0.2744 -0.3587
 3746TIP3    H132797   6.224   4.727   2.817 -0.3327  0.9688  3.4382
 3746TIP3    H232798   6.079   4.755   2.783 -0.1045 -0.3949  1.1210
 3747TIP3   OH232799   3.544   3.567   0.128  0.4530 -0.3744 -0.2679
 3747TIP3    H132800   3.584   3.482   0.111  1.3345  0.2738 -1.5722
 3747TIP3    H232801   3.471   3.572   0.067  0.0158 -0.4399  0.2418
 3748TIP3   OH232802   4.463   0.631   1.205  0.0244  0.1844 -0.5026
 3748TIP3    H132803   4.377   0.642   1.245  0.4624  1.1283  0.2388
 3748TIP3    H232804   4.460   0.687   1.127 -0.7951 -1.5778 -1.7942
 3749TIP3   OH232805   3.063   5.084   2.012  0.0670 -0.2557  1.0759
 3749TIP3    H132806   2.981   5.125   2.040  0.8232  2.6222 -0.4890
 3749TIP3    H232807   3.041   4.991   2.000 -3.6480  0.7282 -1.4576
 3750TIP3   OH232808   3.836   6.678   7.972  0.4842  0.3754  0.2821
 3750TIP3    H132809   3.754   6.639   7.943  1.0411 -1.3015  0.8555
 3750TIP3    H232810   3.903   6.632   7.922  1.2583 -0.4893  2.0364
 3751TIP3   OH232811   0.827   1.848   6.705 -0.7810  0.2947  0.7663
 3751TIP3    H132812   0.858   1.937   6.722 -3.9185  2.3308 -2.7468
 3751TIP3    H232813   0.745   1.841   6.753 -0.9296 -0.4663  0.4260
 3752TIP3   OH232814   0.075   2.978   2.618  0.2309  0.3017  0.2434
 3752TIP3    H132815   0.134   3.014   2.685  0.7097 -1.2202  0.6697
 3752TIP3    H232816   0.038   3.055   2.576  0.7766  1.3011  1.5110
 3753TIP3   OH232817   2.480   5.611   7.257  0.2146 -0.2250  0.4449
 3753TIP3    H132818   2.477   5.534   7.314 -0.8556 -0.6009 -0.0876
 3753TIP3    H232819   2.572   5.635   7.253  0.3476 -0.3958  2.0559
 3754TIP3   OH232820   1.954   2.746   8.377  0.0819  0.4680 -0.1624
 3754TIP3    H132821   1.930   2.838   8.388 -0.3495  0.4709 -1.0961
 3754TIP3    H232822   2.035   2.737   8.428  0.2386  1.4068 -0.2275
 3755TIP3   OH232823   3.468   6.293   2.045 -0.4153 -0.9103  0.3121
 3755TIP3    H132824   3.537   6.292   1.978 -0.0017 -0.9035  0.7350
 3755TIP3    H232825   3.515   6.304   2.128 -1.0340  0.8376  0.4631
 3756TIP3   OH232826   3.265   6.450   1.584  0.2611  0.2104 -0.2291
 3756TIP3    H132827   3.351   6.491   1.578 -0.0700  0.7422 -2.2031
 3756TIP3    H232828   3.282   6.365   1.626  1.8622  0.0339 -1.1350
 3757TIP3   OH232829   0.603   0.337   7.441 -0.2500 -0.1346  0.1299
 3757TIP3    H132830   0.554   0.419   7.432  0.0359  0.0700  0.3914
 3757TIP3    H232831   0.620   0.330   7.535  0.6718  0.0712 -0.0090
 3758TIP3   OH232832   4.237   4.493   7.438  0.8403 -0.2677 -0.2706
 3758TIP3    H132833   4.306   4.532   7.384  1.0136 -0.4310 -0.1691
 3758TIP3    H232834   4.157   4.505   7.387  1.0605 -0.7539 -0.7292
 3759TIP3   OH232835   4.618   2.851   6.691 -0.6983  0.3896  0.4373
 3759TIP3    H132836   4.564   2.834   6.769  1.4760 -0.4466  1.8780
 3759TIP3    H232837   4.659   2.766   6.673  0.3984  1.0750 -0.3627
 3760TIP3   OH232838   6.318   2.490   1.392 -0.2921 -0.1948 -0.3939
 3760TIP3    H132839   6.351   2.427   1.456  0.7787  1.0368  0.3220
 3760TIP3    H232840   6.388   2.497   1.327 -0.9926 -0.7539 -1.2336
 3761TIP3   OH232841   6.710   5.196   1.583  0.3153  0.0421  0.6765
 3761TIP3    H132842   6.769   5.270   1.575 -0.1071  0.4269  1.0990
 3761TIP3    H232843   6.674   5.202   1.671 -0.3158 -0.2181  0.4471
 3762TIP3   OH232844   5.610   4.041   1.208 -0.2842  0.4356  0.0487
 3762TIP3    H132845   5.705   4.049   1.207  0.0431 -1.8106  2.8844
 3762TIP3    H232846   5.591   3.969   1.148 -0.2203  0.8022 -0.4198
 3763TIP3   OH232847   4.609   4.929   6.704  0.1849  0.0129  0.0771
 3763TIP3    H132848   4.700   4.956   6.714  0.4471 -0.8350 -0.0121
 3763TIP3    H232849   4.601   4.851   6.759 -0.3718 -0.1792 -0.2729
 3764TIP3   OH232850   1.482   2.525   0.096  0.5037 -0.2948  0.6098
 3764TIP3    H132851   1.565   2.552   0.058  1.0548 -0.9701  1.3084
 3764TIP3    H232852   1.437   2.479   0.025  1.6048 -1.7216  0.8040
 3765TIP3   OH232853   4.095   3.523   0.873  0.1984 -0.4486 -0.2164
 3765TIP3    H132854   4.102   3.451   0.936  0.6516 -1.0960 -0.9832
 3765TIP3    H232855   4.125   3.485   0.790  1.2280  0.8452 -0.4646
 3766TIP3   OH232856   0.759   1.115   1.045 -0.2583 -0.4152 -0.0870
 3766TIP3    H132857   0.703   1.109   1.122 -1.7445  2.1297 -0.8502
 3766TIP3    H232858   0.698   1.118   0.971  1.0155 -0.1413 -1.1663
 3767TIP3   OH232859   5.562   2.153   7.856  0.3265 -0.0200 -0.3270
 3767TIP3    H132860   5.537   2.238   7.821 -0.0400 -0.0679 -0.1852
 3767TIP3    H232861   5.479   2.107   7.870  0.3827  0.3463  1.4677
 3768TIP3   OH232862   3.980   6.478   7.004  0.1103 -0.6037  0.4331
 3768TIP3    H132863   3.906   6.427   7.040  0.4037 -0.9697  0.5213
 3768TIP3    H232864   3.938   6.543   6.948 -0.3128 -0.5153  0.8409
 3769TIP3   OH232865   5.506   4.438   2.066  0.2303  0.1090 -0.0783
 3769TIP3    H132866   5.421   4.411   2.102  0.3792  1.7930  1.6703
 3769TIP3    H232867   5.527   4.370   2.002  0.2876 -3.6142  3.4560
 3770TIP3   OH232868   0.958   3.867   7.850  0.6594  0.2815  0.2685
 3770TIP3    H132869   0.993   3.830   7.931  0.8625 -0.4815 -0.1575
 3770TIP3    H232870   0.895   3.802   7.819  0.7820  0.4353 -0.3249
 3771TIP3   OH232871   5.120   2.812   7.188  0.2100 -0.0068 -0.6577
 3771TIP3    H132872   5.181   2.771   7.126 -0.8759  0.9698 -2.4507
 3771TIP3    H232873   5.033   2.782   7.160 -0.3145  0.4609  0.4090
 3772TIP3   OH232874   4.628   6.319   7.864 -0.3298 -0.0481  0.2133
 3772TIP3    H132875   4.589   6.298   7.779 -0.9542  2.7988 -0.3099
 3772TIP3    H232876   4.677   6.241   7.888 -1.3803 -1.4907 -2.0400
 3773TIP3   OH232877   2.616   6.652   0.515 -0.4280 -0.6501  0.2104
 3773TIP3    H132878   2.528   6.637   0.550 -0.7554 -0.9713 -0.7134
 3773TIP3    H232879   2.645   6.566   0.485 -0.2514 -0.3446 -0.5068
 3774TIP3   OH232880   2.784   3.940   0.492  0.0629  0.3167  0.3543
 3774TIP3    H132881   2.848   3.905   0.430 -0.0676 -0.1480  0.4749
 3774TIP3    H232882   2.712   3.876   0.491 -0.3722  0.8069  0.2606
 3775TIP3   OH232883   2.309   0.676   7.134  0.3799 -0.1681  0.0935
 3775TIP3    H132884   2.317   0.581   7.128  0.7884 -0.1122 -0.3273
 3775TIP3    H232885   2.247   0.691   7.205 -0.3790 -0.7733 -0.4269
 3776TIP3   OH232886   1.453   0.658   7.847 -0.4399  0.4937  0.3753
 3776TIP3    H132887   1.420   0.569   7.860  0.3720  0.2882  1.1238
 3776TIP3    H232888   1.430   0.704   7.928 -0.3699  0.8058  0.2169
 3777TIP3   OH232889   4.806   5.617   0.914 -0.0775 -0.7036 -1.0845
 3777TIP3    H132890   4.855   5.697   0.933 -1.6181  0.9417 -3.5670
 3777TIP3    H232891   4.736   5.616   0.979  0.6609 -0.7443 -0.2673
 3778TIP3   OH232892   5.941   6.773   0.274 -0.3072 -0.1430 -0.2835
 3778TIP3    H132893   6.005   6.832   0.314 -1.2386  1.0763 -0.5205
 3778TIP3    H232894   5.867   6.773   0.335 -0.7464 -0.2268 -0.8085
 3779TIP3   OH232895   0.933   0.750   8.184  0.0935 -0.2296  0.3220
 3779TIP3    H132896   0.977   0.741   8.100  1.1594  1.2402  0.6981
 3779TIP3    H232897   0.972   0.682   8.239  0.8814  0.1441  0.2324
 3780TIP3   OH232898   2.447   3.313   0.026  0.5152 -0.1212 -0.2710
 3780TIP3    H132899   2.391   3.289   0.100  0.2956  1.0107 -0.0498
 3780TIP3    H232900   2.387   3.350  -0.038  1.1196  2.7864  0.6775
 3781TIP3   OH232901   0.066   2.567   8.102  0.1486  0.0158 -0.5278
 3781TIP3    H132902  -0.003   2.559   8.169  0.5449  1.7617  0.1404
 3781TIP3    H232903   0.038   2.641   8.048  0.8621 -0.0738 -1.0284
 3782TIP3   OH232904   3.630   4.298   0.732 -0.6215 -0.5898  0.1865
 3782TIP3    H132905   3.712   4.329   0.771 -0.6825 -1.0451  0.6821
 3782TIP3    H232906   3.639   4.203   0.728 -0.8043 -0.5901 -0.4988
 3783TIP3   OH232907   1.423   3.247   1.385  0.3767  0.2238  0.1805
 3783TIP3    H132908   1.488   3.243   1.314 -0.7862  1.0955 -0.9722
 3783TIP3    H232909   1.409   3.341   1.399 -0.8793  0.0545  0.1715
 3784TIP3   OH232910   4.834   6.854   1.194  0.7423 -0.4177  0.4702
 3784TIP3    H132911   4.859   6.762   1.188 -1.7257 -1.1599  0.2076
 3784TIP3    H232912   4.833   6.886   1.104  1.9830  0.0117  0.5934
 3785TIP3   OH232913   3.821   0.263   6.927  0.3310  0.1020 -0.6089
 3785TIP3    H132914   3.819   0.235   7.019 -0.0231 -0.1123 -0.6797
 3785TIP3    H232915   3.730   0.284   6.906  0.5628  1.1353 -0.6173
 3786TIP3   OH232916   6.347   0.383   8.303 -0.1445 -0.7094 -0.3116
 3786TIP3    H132917   6.410   0.312   8.315 -1.0980 -1.6909 -0.8173
 3786TIP3    H232918   6.262   0.342   8.323 -0.6349  0.5316  0.2371
 3787TIP3   OH232919   6.151   2.861   7.736  0.0367  0.2877  0.4472
 3787TIP3    H132920   6.195   2.942   7.710  1.4924  0.3099  2.7012
 3787TIP3    H232921   6.068   2.862   7.688  0.4108  2.6567 -0.2629
 3788TIP3   OH232922   2.554   2.938   1.882 -0.4178 -0.0887 -0.3164
 3788TIP3    H132923   2.493   2.963   1.952 -1.2921  0.1203 -1.1366
 3788TIP3    H232924   2.539   2.844   1.870 -2.2785  0.3553 -2.0613
 3789TIP3   OH232925   0.557   2.051   0.513 -0.3674 -0.2820 -0.0360
 3789TIP3    H132926   0.604   1.994   0.575 -0.1485  0.6850  0.7097
 3789TIP3    H232927   0.623   2.113   0.482 -0.7987  0.1207 -0.1630
 3790TIP3   OH232928   0.341   3.687   0.992  0.7187 -0.1576 -0.2192
 3790TIP3    H132929   0.312   3.599   1.017  1.9152 -0.5947 -0.3024
 3790TIP3    H232930   0.387   3.674   0.909 -0.4461  0.8022 -1.0618
 3791TIP3   OH232931   3.115   2.182   0.905 -0.7926 -0.0168  0.3278
 3791TIP3    H132932   3.042   2.225   0.949 -3.6412 -2.6231 -1.4044
 3791TIP3    H232933   3.125   2.098   0.951  0.2117 -0.2647 -0.3116
 3792TIP3   OH232934   3.119   4.296   0.861  0.1547 -0.0733  0.0293
 3792TIP3    H132935   3.103   4.253   0.945  0.7464  1.9364  1.2340
 3792TIP3    H232936   3.214   4.305   0.857  0.1792 -0.6363 -1.1530
 3793TIP3   OH232937   6.780   1.416   1.086  0.8351 -0.1703 -0.4425
 3793TIP3    H132938   6.814   1.368   1.011  0.8286 -0.6607 -0.1332
 3793TIP3    H232939   6.687   1.394   1.090  0.6510  0.5021 -0.7772
 3794TIP3   OH232940   1.747   3.749   0.876 -1.1640 -0.6341 -0.8368
 3794TIP3    H132941   1.804   3.807   0.826 -0.7359  1.6284  2.0184
 3794TIP3    H232942   1.801   3.673   0.897 -0.8985 -0.9189 -2.4289
 3795TIP3   OH232943   1.789   2.403   7.302  0.3759 -0.1994  0.1783
 3795TIP3    H132944   1.800   2.331   7.365 -0.5273 -0.2503  0.2877
 3795TIP3    H232945   1.859   2.389   7.238  1.5821  0.0943  1.3837
 3796TIP3   OH232946   2.885   2.223   7.231  0.4268 -0.2911  0.3464
 3796TIP3    H132947   2.859   2.312   7.208  0.6403 -0.6697 -1.5364
 3796TIP3    H232948   2.848   2.169   7.162  0.7541 -1.6095  1.1738
 3797TIP3   OH232949   0.290   2.263   1.504  0.2945  0.1115 -0.0587
 3797TIP3    H132950   0.322   2.325   1.439  0.6520  0.3923  0.3769
 3797TIP3    H232951   0.370   2.232   1.548  0.0018  0.5675  0.8188
 3798TIP3   OH232952   5.441   5.776   8.398 -0.3271 -0.2037 -0.1174
 3798TIP3    H132953   5.415   5.864   8.369  0.4063  0.1768  0.3347
 3798TIP3    H232954   5.416   5.773   8.490  0.5669 -0.0850  0.1383
 3799TIP3   OH232955   3.685   6.792   1.603 -0.3373  0.3179  0.3506
 3799TIP3    H132956   3.711   6.811   1.693  0.0005  1.1978  0.0788
 3799TIP3    H232957   3.765   6.807   1.552 -0.0718 -1.7533  0.0728
 3800TIP3   OH232958   0.052   3.219   7.757 -0.5335 -0.0676  0.4589
 3800TIP3    H132959   0.005   3.164   7.694 -0.4017  0.5377 -0.1806
 3800TIP3    H232960   0.134   3.172   7.774  0.0020  0.3586 -0.8049
 3801TIP3   OH232961   1.224   0.881   7.937  0.4057  0.0829  0.3969
 3801TIP3    H132962   1.238   0.923   8.022  1.7567 -0.4595  0.4556
 3801TIP3    H232963   1.247   0.948   7.872 -0.5666  0.4760  0.4274
 3802TIP3   OH232964   1.664   0.506   2.934  0.6511  0.0568  0.6220
 3802TIP3    H132965   1.683   0.496   2.840 -1.4854 -1.1288  0.2347
 3802TIP3    H232966   1.722   0.443   2.977  1.7854  0.7419  0.1241
 3803TIP3   OH232967   6.081   0.408   8.584  0.3180 -0.5191 -0.1936
 3803TIP3    H132968   6.070   0.360   8.502  2.3035  1.4131 -1.6906
 3803TIP3    H232969   6.022   0.482   8.578  1.6048  0.5055 -0.6438
 3804TIP3   OH232970   6.005   6.398   7.404  0.0637  0.4897 -0.0216
 3804TIP3    H132971   6.051   6.365   7.327 -1.6399  1.8125 -1.7314
 3804TIP3    H232972   5.991   6.491   7.384  0.8445  1.2530  2.5934
 3805TIP3   OH232973   3.836   5.752   8.482  0.2181  0.4508  0.3905
 3805TIP3    H132974   3.900   5.803   8.531  0.4053 -0.1850  0.8054
 3805TIP3    H232975   3.757   5.752   8.537  0.1804  0.3838  0.3369
 3806TIP3   OH232976   6.282   1.437   7.795  1.0257  0.8407 -0.5349
 3806TIP3    H132977   6.296   1.418   7.702 -2.4620 -0.7778 -0.9097
 3806TIP3    H232978   6.235   1.521   7.795  2.2919  1.5719 -0.0702
 3807TIP3   OH232979   2.781   4.871   0.715 -0.7184 -0.6818 -0.2989
 3807TIP3    H132980   2.719   4.807   0.749 -0.6372 -0.4614  0.2829
 3807TIP3    H232981   2.860   4.821   0.698 -0.3840 -0.6122  0.9338
 3808TIP3   OH232982   4.432   0.231   6.988  0.3727 -0.4887  0.0518
 3808TIP3    H132983   4.501   0.174   7.021  1.9078  1.1875 -0.0910
 3808TIP3    H232984   4.452   0.317   7.026 -1.6419  0.0536 -0.0248
 3809TIP3   OH232985   4.557   0.860   2.365 -0.1985 -0.0929 -0.4074
 3809TIP3    H132986   4.565   0.954   2.347  0.9036  0.0309  0.6208
 3809TIP3    H232987   4.575   0.851   2.458 -2.3866 -1.1074 -0.0280
 3810TIP3   OH232988   2.365   4.184   1.369 -0.0683 -0.0827  0.3880
 3810TIP3    H132989   2.312   4.243   1.316 -0.7617 -0.1270  1.0190
 3810TIP3    H232990   2.324   4.098   1.357 -0.8851  0.0769  1.7990
 3811TIP3   OH232991   0.774   2.705   6.983 -0.4632 -0.1881 -0.4087
 3811TIP3    H132992   0.730   2.626   6.951  0.3382  0.0694 -2.3177
 3811TIP3    H232993   0.864   2.697   6.950  0.6059 -0.0473  2.2231
 3812TIP3   OH232994   0.456   1.698   0.786  0.3403  0.4262  0.5814
 3812TIP3    H132995   0.407   1.617   0.796  1.2973  0.0395  2.6601
 3812TIP3    H232996   0.481   1.723   0.875  1.1217  2.3489 -0.1099
 3813TIP3   OH232997   5.349   2.919   0.037 -0.1278 -0.1038  0.2593
 3813TIP3    H132998   5.275   2.972   0.065  1.8778  2.8832  0.3157
 3813TIP3    H232999   5.347   2.923  -0.059 -0.4023 -0.5911  0.2417
 3814TIP3   OH233000   0.760   1.605   8.529 -0.1019 -0.5490  0.5767
 3814TIP3    H133001   0.673   1.638   8.550  0.2362  1.9649 -1.4914
 3814TIP3    H233002   0.817   1.682   8.536  1.1258 -1.0552 -2.4868
 3815TIP3   OH233003   5.910   4.214   0.499  0.4380  0.0270  0.0086
 3815TIP3    H133004   5.987   4.269   0.515  0.2741  0.2199  0.1402
 3815TIP3    H233005   5.836   4.268   0.527  0.3623 -0.7692  1.4405
 3816TIP3   OH233006   1.051   5.136   2.228 -0.0471 -0.3701 -0.7184
 3816TIP3    H133007   1.004   5.136   2.144  0.1953 -0.6240 -0.8558
 3816TIP3    H233008   1.017   5.059   2.274 -0.7664  0.2121 -0.2452
 3817TIP3   OH233009   1.061   3.963   1.424 -0.0676 -0.0727  0.5171
 3817TIP3    H133010   1.145   3.998   1.454 -0.0657  1.6507 -1.2962
 3817TIP3    H233011   1.085   3.891   1.366  0.2902  1.2156 -1.0128
 3818TIP3   OH233012   3.575   5.462   8.607 -0.1702 -0.1335  0.2780
 3818TIP3    H133013   3.485   5.432   8.600 -0.1080 -0.0809 -1.0931
 3818TIP3    H233014   3.571   5.542   8.659 -0.7053 -0.9166  1.4821
 3819TIP3   OH233015   3.203   0.389   0.947 -0.1943 -0.0795 -0.0973
 3819TIP3    H133016   3.152   0.327   0.998  0.6637  0.1447  1.0897
 3819TIP3    H233017   3.151   0.470   0.947 -0.6797 -0.3875 -0.4814
 3820TIP3   OH233018   2.773   5.975   1.840 -0.4042  0.2265  0.3149
 3820TIP3    H133019   2.689   5.986   1.885 -2.1560  0.7404 -2.8012
 3820TIP3    H233020   2.757   5.906   1.775  1.3971  0.7244 -0.7255
 3821TIP3   OH233021   2.236   2.731   2.051  0.5220  0.5249  0.4943
 3821TIP3    H133022   2.216   2.813   2.006 -0.2377  1.3081  2.1692
 3821TIP3    H233023   2.166   2.722   2.116  0.7575 -1.3086  0.5442
 3822TIP3   OH233024   4.599   4.768   0.977  0.1345 -0.1312  0.3290
 3822TIP3    H133025   4.608   4.696   0.915 -0.3408  0.7257 -0.7512
 3822TIP3    H233026   4.689   4.787   1.005  0.2793 -1.0005  0.4835
 3823TIP3   OH233027   5.202   1.163   8.573  0.1091  0.3929  0.0780
 3823TIP3    H133028   5.262   1.213   8.517  1.4102 -0.9455  0.1878
 3823TIP3    H233029   5.197   1.213   8.654 -0.2080  1.3429 -0.5097
 3824TIP3   OH233030   0.064   4.671   2.473  0.1652  0.1519  0.2772
 3824TIP3    H133031   0.006   4.595   2.479 -0.1655 -0.1276 -3.8242
 3824TIP3    H233032   0.151   4.636   2.495 -0.4783 -0.4115  2.1830
 3825TIP3   OH233033   3.624   4.545   6.573 -0.7445 -0.1791 -0.2768
 3825TIP3    H133034   3.672   4.503   6.644 -0.7782  1.6598  0.9277
 3825TIP3    H233035   3.533   4.545   6.603 -1.0778 -1.1883 -1.2675
 3826TIP3   OH233036   3.325   3.385   1.263 -0.2957 -0.6554 -0.0685
 3826TIP3    H133037   3.373   3.302   1.265  1.0638  0.0800 -0.7433
 3826TIP3    H233038   3.315   3.405   1.170  1.8772  1.2569  0.0095
 3827TIP3   OH233039   2.151   1.946   8.514 -0.0119 -0.1097  0.1875
 3827TIP3    H133040   2.062   1.957   8.548  0.1145  1.3651  0.0970
 3827TIP3    H233041   2.207   1.974   8.586  0.4130 -1.3810  0.3766
 3828TIP3   OH233042   4.581   2.664   1.863  0.5356  0.3110 -0.1311
 3828TIP3    H133043   4.644   2.635   1.798 -0.2059  1.9536 -1.6657
 3828TIP3    H233044   4.633   2.678   1.942  1.1575 -3.6136  0.3790
 3829TIP3   OH233045   0.544   5.675   2.412 -0.2239  0.1322  0.4999
 3829TIP3    H133046   0.475   5.740   2.420 -1.5979 -1.2407  0.1633
 3829TIP3    H233047   0.551   5.636   2.499 -0.5670 -0.3912  0.3001
 3830TIP3   OH233048   4.396   0.730   1.544  0.3546 -0.8405  0.5081
 3830TIP3    H133049   4.364   0.685   1.466  2.3453 -0.4984 -0.5766
 3830TIP3    H233050   4.489   0.708   1.548  0.9190  1.3916  1.1747
 3831TIP3   OH233051   5.549   5.348   7.389  0.4742 -0.2794  0.3779
 3831TIP3    H133052   5.502   5.265   7.392  2.1108 -1.3676 -1.2964
 3831TIP3    H233053   5.634   5.328   7.428  0.3887  1.0141  1.2667
 3832TIP3   OH233054   2.833   0.081   7.606 -0.0981  0.0794 -0.1215
 3832TIP3    H133055   2.739   0.098   7.606 -0.4565 -1.3541  2.3885
 3832TIP3    H233056   2.844   0.004   7.550 -0.6531 -0.6059  0.6910
 3833TIP3   OH233057   5.605   0.137   0.867  0.0595  0.7187  0.0493
 3833TIP3    H133058   5.614   0.215   0.812  0.0002 -0.2522 -1.4063
 3833TIP3    H233059   5.536   0.086   0.824  0.2767 -0.2533  0.8182
 3834TIP3   OH233060   6.370   4.159   8.267  0.1779 -0.0165  0.0528
 3834TIP3    H133061   6.398   4.234   8.319  0.1555  0.4498 -0.5853
 3834TIP3    H233062   6.435   4.091   8.284 -1.6570 -1.1867  3.4302
 3835TIP3   OH233063   6.262   4.941   0.517 -0.1442  0.0444 -0.1643
 3835TIP3    H133064   6.206   4.934   0.441 -0.6920 -0.9839  0.3078
 3835TIP3    H233065   6.343   4.895   0.492  0.7647  2.0398 -1.0547
 3836TIP3   OH233066   1.353   2.681   7.370  0.2458 -0.0143  0.0784
 3836TIP3    H133067   1.350   2.675   7.465  0.5435 -1.0056  0.0425
 3836TIP3    H233068   1.261   2.683   7.343  0.1342 -1.2365  0.3260
 3837TIP3   OH233069   5.750   6.764   1.797  0.3679 -0.5604 -0.0995
 3837TIP3    H133070   5.696   6.813   1.735 -1.4472  2.6123  3.5917
 3837TIP3    H233071   5.689   6.706   1.842  1.1841 -1.1740  0.2368
 3838TIP3   OH233072   6.876   3.133   8.560 -0.7470  0.1169 -0.5362
 3838TIP3    H133073   6.970   3.150   8.564 -0.9638  1.0518  1.2784
 3838TIP3    H233074   6.868   3.039   8.579 -0.2975  0.4531  1.4737
 3839TIP3   OH233075   4.111   5.004   2.172  0.6555 -0.0326  0.2219
 3839TIP3    H133076   4.185   5.062   2.154  0.3833  0.7963  1.5353
 3839TIP3    H233077   4.035   5.054   2.143  0.4634  0.0390  0.8317
 3840TIP3   OH233078   6.854   2.800   7.965 -0.2021 -0.2590 -0.1311
 3840TIP3    H133079   6.825   2.826   7.877  3.9277 -0.6453 -1.8307
 3840TIP3    H233080   6.826   2.873   8.021 -0.7392  1.2781 -2.2432
 3841TIP3   OH233081   1.776   2.652   7.398  0.0162 -0.4741  0.4711
 3841TIP3    H133082   1.715   2.697   7.340 -1.2884 -0.8041  1.5202
 3841TIP3    H233083   1.786   2.565   7.358 -1.0799 -0.7913  0.8339
 3842TIP3   OH233084   6.762   1.991   2.543 -0.5808  0.3431  0.5592
 3842TIP3    H133085   6.845   1.990   2.495  0.0598  0.3653  1.6440
 3842TIP3    H233086   6.739   1.899   2.553 -1.9513  0.3366 -1.8042
 3843TIP3   OH233087   4.806   3.359   0.625 -0.3601  0.2273  0.3057
 3843TIP3    H133088   4.891   3.360   0.668  0.3642  0.2944 -1.0525
 3843TIP3    H233089   4.743   3.366   0.696  0.7171 -1.1780  1.4577
 3844TIP3   OH233090   0.851   6.159   7.388  0.5844 -0.3214 -0.3529
 3844TIP3    H133091   0.945   6.150   7.376  0.7119  1.6750 -1.1788
 3844TIP3    H233092   0.841   6.181   7.481  0.8805 -0.8307 -0.1932
 3845TIP3   OH233093   6.441   0.259   0.785 -0.4489  0.8577  0.0848
 3845TIP3    H133094   6.427   0.237   0.693  0.7289  2.4017 -0.5192
 3845TIP3    H233095   6.474   0.178   0.825  2.0822  0.9199 -1.6209
 3846TIP3   OH233096   4.945   4.539   8.580  0.3283 -0.2540 -0.4980
 3846TIP3    H133097   4.873   4.601   8.567  1.3373  0.8313 -1.0524
 3846TIP3    H233098   4.963   4.504   8.492  0.1528 -0.9142 -0.2804
 3847TIP3   OH233099   2.036   0.849   1.025  0.4118  0.4068  0.2792
 3847TIP3    H133100   2.003   0.919   0.969 -0.7652  0.8998  1.5501
 3847TIP3    H233101   1.994   0.770   0.991 -0.1846  0.6772  0.3765
 3848TIP3   OH233102   4.128   4.659   2.781 -0.3548 -0.0216 -0.2628
 3848TIP3    H133103   4.177   4.611   2.847  0.9360 -1.4553 -2.1402
 3848TIP3    H233104   4.192   4.717   2.739 -0.5477 -0.8304 -1.7631
 3849TIP3   OH233105   4.694   3.193   1.547 -0.1928  0.1818  0.3275
 3849TIP3    H133106   4.663   3.138   1.475  0.5896 -2.2047  1.7147
 3849TIP3    H233107   4.752   3.257   1.505 -1.1241 -0.0255 -1.3552
 3850TIP3   OH233108   1.287   0.998   1.599  0.2994 -0.3373 -0.5349
 3850TIP3    H133109   1.311   0.905   1.595  1.2982 -0.1029 -0.3628
 3850TIP3    H233110   1.200   0.999   1.638  0.2036 -1.2135 -0.7048
 3851TIP3   OH233111   6.283   4.919   8.157 -0.3086  0.2171  0.4492
 3851TIP3    H133112   6.205   4.937   8.104 -0.3440  0.1357  0.4722
 3851TIP3    H233113   6.354   4.915   8.094 -0.4689 -0.6456  0.3087
 3852TIP3   OH233114   3.168   5.485   0.119  0.0181 -0.3835 -0.0390
 3852TIP3    H133115   3.222   5.509   0.044  0.6939  0.1529  0.6092
 3852TIP3    H233116   3.101   5.427   0.083  0.5411 -0.4045 -0.9938
 3853TIP3   OH233117   0.528   5.183   1.175 -0.1686  0.4477  0.4388
 3853TIP3    H133118   0.601   5.133   1.210  0.3671  1.5892  0.9924
 3853TIP3    H233119   0.496   5.234   1.250 -1.7424 -0.2472  0.2923
 3854TIP3   OH233120   4.439   1.470   0.649 -0.0597  0.2803  0.0905
 3854TIP3    H133121   4.529   1.439   0.665 -0.1220 -0.2150 -0.4744
 3854TIP3    H233122   4.448   1.535   0.579 -0.1885 -0.1084 -0.2936
 3855TIP3   OH233123   1.084   1.115   1.943 -0.3832  0.7633  0.0611
 3855TIP3    H133124   1.078   1.075   2.030  0.3920  0.4052 -0.0455
 3855TIP3    H233125   1.123   1.201   1.959 -0.3889  0.7614  0.0857
 3856TIP3   OH233126   0.404   4.775   7.758  0.9039  0.1686 -0.2186
 3856TIP3    H133127   0.452   4.718   7.818  1.2575 -1.6954 -2.1375
 3856TIP3    H233128   0.472   4.822   7.709  0.6744  0.3722 -0.3476
 3857TIP3   OH233129   0.105   3.310   0.757  0.3395  0.0469  0.2732
 3857TIP3    H133130   0.131   3.401   0.767 -0.6367  0.2066  1.5503
 3857TIP3    H233131   0.124   3.269   0.842 -1.6511 -0.2915  0.5974
 3858TIP3   OH233132   6.199   1.692   7.776 -0.7183 -0.1726  0.0833
 3858TIP3    H133133   6.108   1.707   7.753 -1.1140 -0.8669  1.1259
 3858TIP3    H233134   6.249   1.737   7.708 -1.8095  2.1002  0.6948
 3859TIP3   OH233135   2.309   0.157   7.464 -0.1827 -0.0313  0.4397
 3859TIP3    H133136   2.372   0.155   7.392 -1.0033  1.0314 -0.3450
 3859TIP3    H233137   2.309   0.068   7.498  0.4669 -0.4812 -0.6704
 3860TIP3   OH233138   1.124   0.636   8.356 -0.1801 -0.2557 -0.1080
 3860TIP3    H133139   1.183   0.627   8.281 -2.0919  0.2525 -1.7703
 3860TIP3    H233140   1.158   0.711   8.405 -0.0692  0.7494 -1.6626
 3861TIP3   OH233141   4.524   1.830   7.328 -0.3797  0.8091 -0.1557
 3861TIP3    H133142   4.592   1.875   7.276 -0.6728  0.9248 -0.4415
 3861TIP3    H233143   4.499   1.755   7.274  0.5782 -0.0960  0.6109
 3862TIP3   OH233144   2.134   2.031   0.224  0.1627  0.4695 -0.2666
 3862TIP3    H133145   2.165   2.067   0.308  1.1115 -2.4195  0.7646
 3862TIP3    H233146   2.209   2.040   0.166  0.1523  0.7696 -0.2371
 3863TIP3   OH233147   2.287   6.084   1.202 -0.0935  0.2705 -0.0554
 3863TIP3    H133148   2.219   6.044   1.255 -1.0826 -0.9321 -2.1046
 3863TIP3    H233149   2.369   6.051   1.239 -0.6955  0.0205  1.1051
 3864TIP3   OH233150   3.358   2.842   1.914 -0.1012  0.0130 -0.1004
 3864TIP3    H133151   3.358   2.933   1.883  0.2163  1.1541  2.8268
 3864TIP3    H233152   3.278   2.835   1.966  0.4648 -0.9693  0.6742
 3865TIP3   OH233153   3.349   0.795   7.141 -0.0709 -0.3737  0.1328
 3865TIP3    H133154   3.377   0.776   7.051 -1.0382  0.6559 -0.4065
 3865TIP3    H233155   3.430   0.819   7.186  0.3165 -0.0897 -0.6814
 3866TIP3   OH233156   6.502   4.563   0.522  0.5318 -0.2281  0.1645
 3866TIP3    H133157   6.440   4.568   0.449 -0.1017 -0.4801  0.6761
 3866TIP3    H233158   6.527   4.470   0.526  0.4870 -0.2316  0.3422
 3867TIP3   OH233159   5.517   4.477   7.968  0.0217 -0.0093  0.9654
 3867TIP3    H133160   5.567   4.467   7.887  1.8608  0.7089  1.9384
 3867TIP3    H233161   5.516   4.572   7.984 -0.8594 -0.0910  1.4640
 3868TIP3   OH233162   5.677   2.124   7.201  0.2622 -0.5150  0.1218
 3868TIP3    H133163   5.696   2.175   7.280 -0.3742  0.2604 -0.2058
 3868TIP3    H233164   5.586   2.147   7.179  1.0559  0.9362 -2.0116
 3869TIP3   OH233165   4.766   5.724   0.315  0.5883 -0.2517  0.4595
 3869TIP3    H133166   4.770   5.743   0.221 -1.5107  1.5326  0.6369
 3869TIP3    H233167   4.687   5.671   0.325  1.3323 -1.2670  1.1432
 3870TIP3   OH233168   6.671   1.711   0.537 -0.4057 -0.7974 -0.8922
 3870TIP3    H133169   6.703   1.769   0.606 -0.5714  0.6789 -2.0057
 3870TIP3    H233170   6.595   1.667   0.575  0.6221 -1.4661  0.4865
 3871TIP3   OH233171   6.034   6.006   0.216  0.0339 -0.3846 -0.2230
 3871TIP3    H133172   6.050   6.100   0.219  3.2171 -0.8198 -0.4166
 3871TIP3    H233173   6.037   5.983   0.123 -1.4498 -0.6084 -0.2346
 3872TIP3   OH233174   2.577   1.841   7.491  0.4494 -0.7309  0.3831
 3872TIP3    H133175   2.636   1.841   7.416  0.7544  0.4723  0.5931
 3872TIP3    H233176   2.524   1.762   7.480  2.2025 -1.9502  0.2930
 3873TIP3   OH233177   6.454   5.935   0.630  0.2324 -0.2113  0.2864
 3873TIP3    H133178   6.511   5.904   0.560 -2.1247 -1.7897 -1.0849
 3873TIP3    H233179   6.420   6.018   0.597  1.3338  0.5018  0.9017
 3874TIP3   OH233180   1.243   0.475   0.491 -0.0786  0.6858  0.2172
 3874TIP3    H133181   1.326   0.462   0.537 -0.0292 -0.2793 -0.1253
 3874TIP3    H233182   1.245   0.413   0.418 -0.4364  1.7408 -0.7229
 3875TIP3   OH233183   1.887   4.176   2.306 -0.3572  0.1911  0.1889
 3875TIP3    H133184   1.955   4.135   2.359 -2.1069 -0.7971  1.8136
 3875TIP3    H233185   1.899   4.270   2.318  0.6634  0.0273  0.4929
 3876TIP3   OH233186   3.528   3.552   2.723 -0.2823  0.3965  0.0511
 3876TIP3    H133187   3.624   3.558   2.721 -0.3185  1.5241 -2.1166
 3876TIP3    H233188   3.499   3.639   2.749 -0.6823  0.9953 -2.1946
 3877TIP3   OH233189   1.064   1.825   0.991 -0.2260 -0.7688  0.0189
 3877TIP3    H133190   1.149   1.788   1.016  0.6878 -0.4186 -2.3335
 3877TIP3    H233191   1.076   1.920   0.998 -1.2785 -0.7459  2.1241
 3878TIP3   OH233192   0.970   4.738   1.309  0.1148  0.5043 -0.0283
 3878TIP3    H133193   0.938   4.754   1.397  0.6281  0.6787  0.1301
 3878TIP3    H233194   0.907   4.678   1.270  0.1719  0.0240  0.6273
 3879TIP3   OH233195   0.436   0.777   7.663  0.1368  0.4561  0.0329
 3879TIP3    H133196   0.465   0.706   7.720  1.4356 -0.2219 -1.3948
 3879TIP3    H233197   0.341   0.765   7.657  0.2117 -0.5535  0.5906
 3880TIP3   OH233198   3.067   5.957   0.921 -0.0324  0.2325  0.0231
 3880TIP3    H133199   3.006   6.017   0.964 -2.8406 -1.9855 -0.5821
 3880TIP3    H233200   3.056   5.874   0.967  3.7134  0.0042  0.8239
 3881TIP3   OH233201   5.085   0.523   0.721  0.6336  0.4738  0.0548
 3881TIP3    H133202   5.086   0.438   0.767  0.0576  0.1284 -0.5462
 3881TIP3    H233203   5.177   0.542   0.703  0.7655 -0.0320  0.1773
 3882TIP3   OH233204   0.390   1.018   1.562 -0.5003 -0.2861  0.4120
 3882TIP3    H133205   0.426   0.942   1.609  1.0325  1.0249  1.4419
 3882TIP3    H233206   0.307   1.036   1.607 -0.9877 -1.4272  0.0289
 3883TIP3   OH233207   0.674   6.312   1.168 -0.1534 -0.0419 -0.1961
 3883TIP3    H133208   0.730   6.316   1.245  1.1067  0.2247 -1.0963
 3883TIP3    H233209   0.702   6.233   1.121 -0.7154 -0.0556 -0.5263
 3884TIP3   OH233210   6.058   3.716   7.748  0.4732  0.6528 -0.4280
 3884TIP3    H133211   6.098   3.642   7.703  0.9724 -0.0044  1.0350
 3884TIP3    H233212   6.017   3.767   7.679 -1.0222 -1.6676 -1.3833
 3885TIP3   OH233213   1.971   6.133   7.343  0.1297  0.3004  0.2524
 3885TIP3    H133214   1.980   6.099   7.254  1.3461 -1.8851  1.1341
 3885TIP3    H233215   2.049   6.187   7.356 -0.1601  0.8030 -0.0612
 3886TIP3   OH233216   5.364   6.012   7.779 -0.5094 -0.0905  0.4402
 3886TIP3    H133217   5.296   6.011   7.846 -1.8215  2.8203 -0.7038
 3886TIP3    H233218   5.316   6.003   7.696  0.8761 -1.5018 -0.2672
 3887TIP3   OH233219   1.759   0.629   1.115 -0.3944  0.1370 -0.2559
 3887TIP3    H133220   1.750   0.703   1.176  3.1328  0.3997  0.1549
 3887TIP3    H233221   1.737   0.552   1.166  0.6299  0.5317  0.8108
 3888TIP3   OH233222   4.643   4.140   1.240 -0.5208 -0.4097 -0.1633
 3888TIP3    H133223   4.641   4.048   1.214 -1.9574 -0.3930 -0.1679
 3888TIP3    H233224   4.557   4.156   1.280  0.8221  0.1129  2.7710
 3889TIP3   OH233225   1.336   4.512   8.529 -0.1876 -0.1136 -0.6549
 3889TIP3    H133226   1.305   4.499   8.618 -0.6378  0.5797 -0.7135
 3889TIP3    H233227   1.380   4.597   8.530 -0.6766  0.1528 -1.2236
 3890TIP3   OH233228   0.955   6.848   2.587 -1.0965  0.2116  0.4198
 3890TIP3    H133229   0.929   6.925   2.537  0.4164  1.5907  1.6319
 3890TIP3    H233230   1.017   6.802   2.531 -1.3939  0.3032  0.0125
 3891TIP3   OH233231   0.417   1.917   8.331  0.1827 -0.0904 -0.5225
 3891TIP3    H133232   0.477   1.974   8.379  1.1610  1.0108 -2.8876
 3891TIP3    H233233   0.454   1.830   8.340  0.1761  0.0224  0.8991
 3892TIP3   OH233234   4.849   3.362   8.460 -0.0427  0.2089  0.3263
 3892TIP3    H133235   4.813   3.294   8.404  0.7040 -1.3108  1.6025
 3892TIP3    H233236   4.794   3.360   8.539 -1.5036  2.7621 -0.4951
 3893TIP3   OH233237   3.174   2.582   1.935  0.1620 -0.1240  0.2848
 3893TIP3    H133238   3.253   2.539   1.967  0.2256 -0.5462 -0.3972
 3893TIP3    H233239   3.144   2.636   2.007  1.9839  1.3203  0.0212
 3894TIP3   OH233240   5.848   6.067   7.480 -0.0160  0.2872 -0.4269
 3894TIP3    H133241   5.772   6.123   7.466  0.0732  0.5145  0.0052
 3894TIP3    H233242   5.878   6.045   7.391 -0.5362  0.2560 -0.5951
 3895TIP3   OH233243   3.971   2.449   7.753  0.1121 -0.5935  0.1027
 3895TIP3    H133244   3.998   2.357   7.757 -1.6732 -1.1069  1.8950
 3895TIP3    H233245   3.877   2.445   7.738  0.2862  1.0482 -1.9617
 3896TIP3   OH233246   5.615   1.820   1.537  0.2381 -0.0121 -0.2425
 3896TIP3    H133247   5.624   1.759   1.464  0.2825 -0.1359 -0.1341
 3896TIP3    H233248   5.672   1.894   1.514  1.3758 -0.6899  0.3387
 3897TIP3   OH233249   3.601   5.774   8.608  0.2247 -0.2135 -0.2184
 3897TIP3    H133250   3.591   5.869   8.611  1.7483 -0.0463  0.1792
 3897TIP3    H233251   3.616   5.749   8.699 -1.2000 -0.9844 -0.1634
 3898TIP3   OH233252   0.253   1.498   0.800 -0.8507 -0.0394  0.2263
 3898TIP3    H133253   0.260   1.416   0.752  0.4358 -0.6696  1.4053
 3898TIP3    H233254   0.215   1.474   0.884 -0.5207  0.5743  0.5605
 3899TIP3   OH233255   2.935   0.507   1.643  0.6025 -0.2703  0.4835
 3899TIP3    H133256   2.912   0.587   1.690  1.4070  1.4333 -1.7878
 3899TIP3    H233257   2.934   0.533   1.550  1.9716 -2.6124 -0.2896
 3900TIP3   OH233258   0.278   1.981   8.608 -0.3251  0.1489  0.0289
 3900TIP3    H133259   0.334   2.038   8.660 -0.2237  0.7731 -0.7524
 3900TIP3    H233260   0.241   1.919   8.672  2.6347 -1.4772  0.3151
 3901TIP3   OH233261   1.848   1.257   0.632 -0.7899 -0.6268 -0.0609
 3901TIP3    H133262   1.818   1.333   0.681  0.6646 -0.4155  0.5702
 3901TIP3    H233263   1.942   1.271   0.623 -0.2379 -2.9638  1.2417
 3902TIP3   OH233264   5.838   1.850   0.066  0.5855 -0.2857  0.3573
 3902TIP3    H133265   5.916   1.827   0.015  0.2266  0.5182 -0.5765
 3902TIP3    H233266   5.829   1.945   0.056  0.2205 -0.1795  1.5256
 3903TIP3   OH233267   2.674   0.169   0.051  0.4101 -0.5801  0.2941
 3903TIP3    H133268   2.706   0.197  -0.035  0.9166 -1.6740  0.1088
 3903TIP3    H233269   2.601   0.111   0.031 -1.2560  1.2730  0.6927
 3904TIP3   OH233270   0.210   2.041   7.378  0.3015  0.0542 -0.5448
 3904TIP3    H133271   0.288   2.094   7.367  0.1806  0.8665  1.9440
 3904TIP3    H233272   0.242   1.956   7.407  0.3150  0.1688 -0.2158
 3905TIP3   OH233273   4.700   2.704   8.544  0.3164  0.2302 -0.2377
 3905TIP3    H133274   4.704   2.799   8.557 -2.0904 -0.1007  5.0285
 3905TIP3    H233275   4.609   2.687   8.520 -0.3258 -0.9136  2.7201
 3906TIP3   OH233276   2.647   2.304   0.308  0.3164  0.5656  0.5612
 3906TIP3    H133277   2.687   2.218   0.322  2.7407  1.5098 -0.2024
 3906TIP3    H233278   2.658   2.349   0.392  2.1999  1.2888 -0.0161
 3907TIP3   OH233279   6.522   2.037   1.441 -0.0865 -0.1724 -0.0987
 3907TIP3    H133280   6.574   2.074   1.369 -1.6372  0.3884 -0.9776
 3907TIP3    H233281   6.517   2.107   1.506 -0.9334  0.3139 -0.6641
 3908TIP3   OH233282   3.305   5.835   7.273  0.2147  0.2548  0.8537
 3908TIP3    H133283   3.392   5.874   7.265  0.1984  0.4408  1.5192
 3908TIP3    H233284   3.262   5.855   7.190  0.7013  0.4263  0.6388
 3909TIP3   OH233285   2.964   5.752   0.259  0.8347  0.5602 -0.1732
 3909TIP3    H133286   2.965   5.725   0.351 -0.8636 -0.5120 -0.4234
 3909TIP3    H233287   3.008   5.682   0.212 -1.1404 -0.5593 -0.4961
 3910TIP3   OH233288   4.976   6.459   2.653  0.0420 -0.1088 -0.0333
 3910TIP3    H133289   5.000   6.510   2.731  1.6473  1.2045 -1.3073
 3910TIP3    H233290   5.027   6.378   2.660 -0.1592 -0.1937  0.4837
 3911TIP3   OH233291   3.505   1.578   0.694  0.2867  0.1480 -0.6066
 3911TIP3    H133292   3.569   1.507   0.697 -0.7207 -0.8654 -1.7494
 3911TIP3    H233293   3.443   1.558   0.765  1.7420  1.7341  1.2455
 3912TIP3   OH233294   4.133   6.022   1.227  0.0277 -0.2619 -0.1650
 3912TIP3    H133295   4.153   6.115   1.238  0.4551 -0.3388 -0.2815
 3912TIP3    H233296   4.180   5.996   1.147 -1.2971 -0.2221 -0.9830
 3913TIP3   OH233297   3.767   2.389   8.073  0.0011  0.6960  0.3811
 3913TIP3    H133298   3.791   2.365   7.983  2.1074  0.0106  1.0669
 3913TIP3    H233299   3.671   2.390   8.073 -0.1196 -2.1156 -1.1756
 3914TIP3   OH233300   3.343   0.277   1.996  0.8408  0.1135  0.3071
 3914TIP3    H133301   3.355   0.305   2.087  1.1306 -0.8715  0.5872
 3914TIP3    H233302   3.272   0.331   1.963 -1.1883 -1.3631  1.9810
 3915TIP3   OH233303   6.045   2.963   8.002 -0.8521 -0.2641  0.3097
 3915TIP3    H133304   6.081   2.893   7.948 -0.8655 -1.0502  1.2934
 3915TIP3    H233305   6.038   3.038   7.942  0.1260 -0.7896 -0.5074
 3916TIP3   OH233306   5.223   5.793   0.668 -1.1565 -0.3622 -0.0057
 3916TIP3    H133307   5.267   5.709   0.678  0.7765  0.4901 -0.9996
 3916TIP3    H233308   5.146   5.774   0.615 -0.6787 -1.4716 -0.3167
 3917TIP3   OH233309   4.784   2.997   7.712 -0.3715 -0.0839 -0.7908
 3917TIP3    H133310   4.716   3.009   7.645 -1.3657 -1.4758 -0.0811
 3917TIP3    H233311   4.772   3.072   7.771  0.2142  0.9019 -1.8777
 3918TIP3   OH233312   3.657   6.668   2.599 -0.0493 -0.0736  0.1557
 3918TIP3    H133313   3.593   6.644   2.665  1.0930 -1.5447  0.7971
 3918TIP3    H233314   3.731   6.703   2.649  0.1407  0.4611 -0.4787
 3919TIP3   OH233315   4.808   1.938   0.015 -0.6505  0.2112 -0.1942
 3919TIP3    H133316   4.722   1.966   0.048 -0.9005  0.7096 -1.2312
 3919TIP3    H233317   4.793   1.850  -0.020 -0.8601  0.4893 -0.8166
 3920TIP3   OH233318   4.602   1.974   0.216 -0.0731  0.3066  0.5944
 3920TIP3    H133319   4.579   1.947   0.304  1.0962 -0.3398  0.7204
 3920TIP3    H233320   4.542   1.926   0.159  0.2766 -0.5911  0.9606
 3921TIP3   OH233321   2.486   0.523   7.368 -0.0103  0.4421 -0.6476
 3921TIP3    H133322   2.551   0.453   7.356 -0.5181 -0.3306  0.8162
 3921TIP3    H233323   2.417   0.502   7.306  0.0447 -0.1185 -0.5287
 3922TIP3   OH233324   3.478   0.818   2.404  0.1518 -0.3823 -0.4955
 3922TIP3    H133325   3.475   0.897   2.349  2.0283  0.4624  0.5582
 3922TIP3    H233326   3.557   0.772   2.376  0.8881 -0.1728  1.1464
 3923TIP3   OH233327   6.006   0.760   0.549  0.2555  0.0381 -0.2684
 3923TIP3    H133328   5.997   0.775   0.643 -0.4817  4.1969 -0.8330
 3923TIP3    H233329   6.092   0.795   0.527 -0.0681  0.2130 -1.2948
 3924TIP3   OH233330   1.934   0.672   0.824 -0.3512  0.2184 -0.0734
 3924TIP3    H133331   1.843   0.694   0.807 -0.3210  1.2709  1.0125
 3924TIP3    H233332   1.982   0.707   0.749 -0.5969  1.7921  0.4635
 3925TIP3   OH233333   3.849   0.985   7.618 -0.0598 -0.4721 -0.1776
 3925TIP3    H133334   3.834   1.066   7.668 -0.5191 -0.3523 -0.5143
 3925TIP3    H233335   3.814   1.003   7.531 -0.6449 -1.2223 -0.1014
 3926TIP3   OH233336   5.093   6.878   1.541 -0.2571 -0.5636 -0.4818
 3926TIP3    H133337   5.159   6.834   1.487  0.1659  1.5872 -1.8712
 3926TIP3    H233338   5.053   6.941   1.481 -1.7016  0.0510  1.0653
 3927TIP3   OH233339   0.640   5.426   7.914  0.0201  0.2262  0.1350
 3927TIP3    H133340   0.611   5.379   7.992  0.4631 -1.1264 -0.4883
 3927TIP3    H233341   0.595   5.510   7.919 -2.3180 -0.9523  0.3080
 3928TIP3   OH233342   1.657   5.243   8.093  0.1616 -0.2023  0.1469
 3928TIP3    H133343   1.603   5.205   8.161  0.2757 -0.2714  0.1990
 3928TIP3    H233344   1.705   5.169   8.056 -2.5415 -0.8339 -2.4979
 3929TIP3   OH233345   3.309   1.736   0.092 -0.3330 -0.2785  0.3863
 3929TIP3    H133346   3.323   1.810   0.151 -0.6260 -0.7839  1.1021
 3929TIP3    H233347   3.392   1.728   0.044  0.8109 -1.3262  2.4062
 3930TIP3   OH233348   6.299   2.632   8.078  0.4620 -0.1769 -0.0653
 3930TIP3    H133349   6.354   2.710   8.071 -0.4608  0.4935 -0.0948
 3930TIP3    H233350   6.238   2.653   8.149  0.6393 -1.1514  0.3812
 3931TIP3   OH233351   2.955   6.416   7.022  0.0803 -0.0751 -0.2490
 3931TIP3    H133352   3.024   6.349   7.021 -0.0643 -0.2386 -1.5816
 3931TIP3    H233353   2.941   6.437   6.929 -1.2658  0.3725  0.0310
 3932TIP3   OH233354   4.074   5.499   0.931 -0.0395  0.6146 -0.3122
 3932TIP3    H133355   4.044   5.557   0.861 -1.2220  1.8802  1.1618
 3932TIP3    H233356   4.074   5.555   1.009  1.4088 -0.6959  0.6792
 3933TIP3   OH233357   6.002   2.936   1.184 -0.2965 -0.0465  0.2082
 3933TIP3    H133358   5.997   2.872   1.113 -1.4160 -0.3929  0.5767
 3933TIP3    H233359   5.914   2.939   1.220  0.1862  0.3256  1.4157
 3934TIP3   OH233360   0.916   0.094   1.723  0.2847 -0.5544  0.6350
 3934TIP3    H133361   0.922   0.002   1.696  1.4493 -0.7102  1.3247
 3934TIP3    H233362   0.828   0.122   1.697  1.2499 -0.6285 -3.4589
 3935TIP3   OH233363   3.651   4.050   1.339  0.0127 -0.0350  0.3193
 3935TIP3    H133364   3.593   4.056   1.263  0.5299  2.4280  0.0502
 3935TIP3    H233365   3.724   3.996   1.309 -0.4800 -0.2856 -0.4606
 3936TIP3   OH233366   2.241   3.334   2.259  0.1542 -0.2007 -0.0794
 3936TIP3    H133367   2.277   3.415   2.293  0.4605 -0.1810 -0.4459
 3936TIP3    H233368   2.242   3.274   2.333  2.8679 -0.8580 -0.5334
 3937TIP3   OH233369   5.542   1.697   0.826 -0.0651 -0.8280 -0.2073
 3937TIP3    H133370   5.597   1.767   0.860  2.2890 -1.4033 -2.5245
 3937TIP3    H233371   5.594   1.656   0.757 -2.3594 -3.2299 -0.6943
 3938TIP3   OH233372   1.527   4.429   1.782  0.5513 -0.1294 -0.1371
 3938TIP3    H133373   1.555   4.424   1.691 -0.6926  0.4784 -0.5730
 3938TIP3    H233374   1.576   4.503   1.818  0.6220 -0.0050 -0.4825
 3939TIP3   OH233375   4.993   6.768   7.917 -0.3377  1.0171 -0.3001
 3939TIP3    H133376   5.051   6.754   7.843 -0.2287  0.1489 -0.0689
 3939TIP3    H233377   4.905   6.758   7.881 -0.2606 -1.2988 -0.0055
 3940TIP3   OH233378   6.460   4.419   8.296 -0.1834  0.1089  0.4897
 3940TIP3    H133379   6.504   4.451   8.375 -0.0045 -2.4145  1.5281
 3940TIP3    H233380   6.368   4.440   8.309 -0.3137 -1.1584  1.9248
 3941TIP3   OH233381   0.573   2.783   1.904 -0.5165 -0.1438  0.0346
 3941TIP3    H133382   0.501   2.843   1.918 -0.6739 -0.5184  0.8806
 3941TIP3    H233383   0.598   2.753   1.992  1.8243  1.3136 -0.0362
 3942TIP3   OH233384   2.279   0.587   2.350  0.4247 -0.1002 -0.3530
 3942TIP3    H133385   2.225   0.509   2.337  0.4403 -0.0029 -1.0259
 3942TIP3    H233386   2.294   0.590   2.444 -0.6736 -0.1756 -0.1653
 3943TIP3   OH233387   0.323   1.112   0.205  0.1371 -0.3478  0.0011
 3943TIP3    H133388   0.265   1.126   0.279  0.7741  0.7562  0.3250
 3943TIP3    H233389   0.285   1.039   0.157 -0.9925 -0.2397  0.7068
 3944TIP3   OH233390   0.653   4.137   1.191 -0.0206  0.0221  0.3797
 3944TIP3    H133391   0.670   4.050   1.226 -0.1179  0.6222  2.0233
 3944TIP3    H233392   0.568   4.161   1.227  0.8202  1.5069  1.5024
 3945TIP3   OH233393   5.098   6.671   0.390  0.4682 -0.8647  0.3126
 3945TIP3    H133394   5.183   6.646   0.353 -0.0090  1.2998 -2.5901
 3945TIP3    H233395   5.118   6.696   0.480  2.8649 -0.8055 -0.1547
 3946TIP3   OH233396   5.559   2.997   0.993 -0.1211  0.0999 -0.4236
 3946TIP3    H133397   5.640   3.007   0.944 -0.1470  0.3189 -0.4225
 3946TIP3    H233398   5.575   2.923   1.052  0.1156  0.2110 -0.3480
 3947TIP3   OH233399   2.692   6.364   7.648 -0.2271  0.0053 -0.1910
 3947TIP3    H133400   2.671   6.408   7.731 -1.4165 -0.5404 -0.1854
 3947TIP3    H233401   2.700   6.272   7.671  0.6039 -0.0079 -0.4957
 3948TIP3   OH233402   5.322   4.222   0.015 -0.5291 -0.3434 -0.0442
 3948TIP3    H133403   5.379   4.236   0.091 -0.7545  1.3555 -0.1677
 3948TIP3    H233404   5.236   4.204   0.053 -0.4282 -0.5341  0.0999
 3949TIP3   OH233405   3.109   6.649   8.543  0.3814  0.1521 -0.0986
 3949TIP3    H133406   3.163   6.597   8.484 -0.0148 -1.3069  0.7920
 3949TIP3    H233407   3.082   6.724   8.490 -0.9826 -1.7085 -2.2096
 3950TIP3   OH233408   0.072   1.996   2.306 -0.0499 -0.2011  0.3859
 3950TIP3    H133409   0.152   2.048   2.311 -0.1130 -0.0528 -0.0772
 3950TIP3    H233410   0.104   1.906   2.294  0.0487 -0.1588  0.3278
 3951TIP3   OH233411   5.682   1.644   1.332  0.2338 -0.3600  0.1785
 3951TIP3    H133412   5.595   1.605   1.323  0.3998 -0.2073 -2.8655
 3951TIP3    H233413   5.687   1.709   1.263  2.3604  0.5116  1.0685
 3952TIP3   OH233414   3.457   2.772   1.641 -0.7551  0.5259 -0.8279
 3952TIP3    H133415   3.438   2.791   1.733  1.9169  2.7965 -0.5914
 3952TIP3    H233416   3.519   2.699   1.644 -2.0433 -0.6083 -0.9955
 3953TIP3   OH233417   0.831   5.373   0.141  0.0990  0.5088 -0.2108
 3953TIP3    H133418   0.788   5.400   0.059  2.4160  1.0809 -1.3137
 3953TIP3    H233419   0.895   5.442   0.158  1.0344 -0.6175  1.0062
 3954TIP3   OH233420   3.735   1.877   8.383  0.3560  0.2787  0.3507
 3954TIP3    H133421   3.704   1.787   8.396  1.0835  0.4239  4.4102
 3954TIP3    H233422   3.826   1.867   8.353  0.9244 -0.4557  2.1857
 3955TIP3   OH233423   4.378   5.685   0.069  0.1262 -0.2247 -0.1910
 3955TIP3    H133424   4.471   5.683   0.049  0.1200 -2.1305 -0.2397
 3955TIP3    H233425   4.373   5.679   0.164  0.0484  0.4973 -0.1442
 3956TIP3   OH233426   5.116   4.132   0.181 -0.1796  0.3218  0.0845
 3956TIP3    H133427   5.103   4.175   0.265 -0.1092  2.1265 -0.7803
 3956TIP3    H233428   5.053   4.060   0.180  0.3132 -0.1698  1.9488
 3957TIP3   OH233429   2.642   2.759   0.984 -0.8283 -0.3414  0.2729
 3957TIP3    H133430   2.671   2.675   0.949  0.2529  1.1472 -2.7752
 3957TIP3    H233431   2.549   2.764   0.960 -0.9498 -0.7449  0.6531
 3958TIP3   OH233432   4.757   1.138   1.064 -0.4755  0.0601 -0.1137
 3958TIP3    H133433   4.673   1.115   1.104 -0.7384 -0.6242 -1.0471
 3958TIP3    H233434   4.821   1.127   1.135 -1.2055  0.9176  0.6967
 3959TIP3   OH233435   3.427   1.004   8.030 -0.2969  0.0151 -0.0448
 3959TIP3    H133436   3.357   0.937   8.033 -0.2589 -0.0326 -0.2101
 3959TIP3    H233437   3.431   1.038   8.119  0.1971 -0.7354  0.2292
 3960TIP3   OH233438   1.173   0.612   1.394  0.1589 -0.3762 -0.6062
 3960TIP3    H133439   1.216   0.693   1.419  4.0646 -1.5739 -2.5275
 3960TIP3    H233440   1.184   0.554   1.470 -4.0370  1.0516  1.4161
 3961TIP3   OH233441   3.601   5.434   2.811 -0.4587  0.6261 -0.4943
 3961TIP3    H133442   3.569   5.525   2.811  0.5354  0.9913  0.0335
 3961TIP3    H233443   3.692   5.441   2.782  1.2301  0.4488  3.9950
 3962TIP3   OH233444   3.188   5.857   7.010  0.1492 -0.3043 -0.7777
 3962TIP3    H133445   3.172   5.934   6.955  2.1799  0.9801  0.3228
 3962TIP3    H233446   3.101   5.820   7.025 -0.7873  1.2494 -2.0462
 3963TIP3   OH233447   4.117   1.693   6.444 -0.0471 -0.1499  0.0908
 3963TIP3    H133448   4.163   1.774   6.421  1.5323 -1.2315 -0.7939
 3963TIP3    H233449   4.151   1.671   6.531  2.0366 -1.4932 -0.9841
 3964TIP3   OH233450   5.636   2.068   2.323  0.5725  0.1050 -0.3331
 3964TIP3    H133451   5.699   2.132   2.356  0.7459 -0.3439  0.2030
 3964TIP3    H233452   5.626   2.004   2.394 -0.3655  0.0864 -0.4668
 3965TIP3   OH233453   2.257   1.714   6.863  0.0617 -0.2423  0.4181
 3965TIP3    H133454   2.252   1.664   6.944  3.0358 -0.2388  0.7125
 3965TIP3    H233455   2.293   1.799   6.889 -2.6199  1.2897 -0.4293
 3966TIP3   OH233456   1.273   3.172   1.830 -0.0049  0.3963  0.7142
 3966TIP3    H133457   1.280   3.125   1.914 -1.5098 -0.0545  0.6357
 3966TIP3    H233458   1.340   3.133   1.775  0.4993  0.1636  1.4785
 3967TIP3   OH233459   3.662   4.079   0.489  0.0396 -0.2779  0.0372
 3967TIP3    H133460   3.740   4.093   0.544  0.4145 -2.0237  0.0157
 3967TIP3    H233461   3.649   3.984   0.490 -0.2333 -0.3366 -2.5256
 3968TIP3   OH233462   2.310   0.780   8.091 -0.5260 -0.0642  0.0447
 3968TIP3    H133463   2.357   0.749   8.169 -0.7604  0.3845  0.3694
 3968TIP3    H233464   2.218   0.781   8.117 -0.7623 -1.1842 -0.6734
 3969TIP3   OH233465   2.123   3.985   2.380 -0.1237  0.4138  0.0245
 3969TIP3    H133466   2.122   4.013   2.471 -4.1180 -1.2666  0.6835
 3969TIP3    H233467   2.210   4.010   2.349  1.3208  1.3489  4.1408
 3970TIP3   OH233468   5.256   2.257   6.807 -0.0387  0.2001  0.0392
 3970TIP3    H133469   5.216   2.286   6.889  0.5715  0.8724  0.1045
 3970TIP3    H233470   5.295   2.336   6.770  1.5482 -0.5046  0.1549
 3971TIP3   OH233471   4.574   6.877   1.250 -0.1328  0.2954 -0.0018
 3971TIP3    H133472   4.664   6.886   1.217 -0.7700 -0.6204 -2.1786
 3971TIP3    H233473   4.552   6.785   1.235 -1.7161  0.6907 -0.2669
 3972TIP3   OH233474   4.458   0.903   0.363 -0.2400  0.3253  0.5779
 3972TIP3    H133475   4.446   0.985   0.315  0.9638 -0.2633 -0.8297
 3972TIP3    H233476   4.547   0.909   0.399 -0.3167 -0.1685  0.8567
 3973TIP3   OH233477   2.759   3.762   6.781  0.0424  0.4958  0.1596
 3973TIP3    H133478   2.764   3.694   6.714  0.9372 -1.9865  2.5712
 3973TIP3    H233479   2.851   3.781   6.802 -0.1524 -0.9615  2.6590
 3974TIP3   OH233480   5.663   1.212   6.996 -0.1307 -0.0113 -0.3005
 3974TIP3    H133481   5.593   1.172   7.048 -0.2423  0.8174  0.2041
 3974TIP3    H233482   5.738   1.153   7.008 -0.6042 -0.6684 -0.4837
 3975TIP3   OH233483   3.524   0.336   8.213 -0.2457  0.1172 -0.6514
 3975TIP3    H133484   3.599   0.373   8.259 -1.0276 -0.0867  0.8226
 3975TIP3    H233485   3.447   0.374   8.256 -1.0952 -2.7404  0.6234
 3976TIP3   OH233486   6.214   4.618   1.797 -0.0023 -0.1326  0.1252
 3976TIP3    H133487   6.198   4.696   1.744  0.6442 -0.0807 -0.0019
 3976TIP3    H233488   6.287   4.574   1.753  0.5675 -0.0732  0.9984
 3977TIP3   OH233489   5.529   1.006   7.179 -0.5266  0.2890 -0.2497
 3977TIP3    H133490   5.575   1.050   7.251 -0.2573 -0.2345 -0.0974
 3977TIP3    H233491   5.445   1.052   7.173 -0.4022  0.5775  0.1548
 3978TIP3   OH233492   3.767   0.611   0.608  0.5866  0.6811  0.3540
 3978TIP3    H133493   3.699   0.671   0.638  1.5391  2.3255 -0.6110
 3978TIP3    H233494   3.817   0.589   0.687  0.0568  0.9286  0.7617
 3979TIP3   OH233495   2.453   3.842   0.165  0.4934  0.0250  0.0608
 3979TIP3    H133496   2.540   3.840   0.127  0.4599  1.1902 -0.1153
 3979TIP3    H233497   2.465   3.878   0.253  0.0600  1.5150 -0.4477
 3980TIP3   OH233498   5.103   4.715   2.071  0.0987 -0.1860 -0.4051
 3980TIP3    H133499   5.126   4.640   2.016 -0.5570 -1.4575  0.9923
 3980TIP3    H233500   5.090   4.678   2.158 -0.4318  1.5355  0.2881
 3981TIP3   OH233501   5.954   3.350   7.937 -0.1814  0.1158  1.3758
 3981TIP3    H133502   5.902   3.322   8.012  0.6537  1.0624  2.3362
 3981TIP3    H233503   5.953   3.275   7.878 -2.0114 -0.1451  1.6865
 3982TIP3   OH233504   2.850   2.126   1.714  0.5503 -0.5272  0.4011
 3982TIP3    H133505   2.877   2.192   1.778  1.8988  1.7935 -2.3478
 3982TIP3    H233506   2.910   2.139   1.640 -2.0850 -1.7531 -2.1107
 3983TIP3   OH233507   3.626   3.598   7.485  0.8336 -0.7618 -0.0545
 3983TIP3    H133508   3.664   3.635   7.405 -1.7786  1.3939 -0.4185
 3983TIP3    H233509   3.624   3.671   7.546 -1.8293 -0.9895  0.2197
 3984TIP3   OH233510   3.977   4.418   0.544  0.0771  0.5679  0.2610
 3984TIP3    H133511   3.889   4.388   0.568  0.5093 -0.5941  0.4679
 3984TIP3    H233512   4.017   4.342   0.502  1.2230  0.8642  0.7904
 3985TIP3   OH233513   5.792   2.906   0.802 -0.4741 -0.3835  0.0191
 3985TIP3    H133514   5.812   2.995   0.832 -1.0377 -0.7178  1.4483
 3985TIP3    H233515   5.808   2.909   0.707  0.2850  1.0143  0.1623
 3986TIP3   OH233516   0.923   1.355   0.523  0.6147 -0.1610  0.0345
 3986TIP3    H133517   0.935   1.298   0.599  1.1232  1.2801  1.0945
 3986TIP3    H233518   0.836   1.333   0.489  0.2251 -0.5862  1.2695
 3987TIP3   OH233519   0.381   0.672   7.934  0.2815  0.5813  0.0502
 3987TIP3    H133520   0.332   0.591   7.923  0.2666  0.4806  0.8242
 3987TIP3    H233521   0.320   0.741   7.910  0.3385  0.3675 -0.7510
 3988TIP3   OH233522   1.620   0.124   8.430 -0.1772 -0.4822 -0.4349
 3988TIP3    H133523   1.592   0.133   8.521 -2.7814 -1.8952 -0.9846
 3988TIP3    H233524   1.632   0.030   8.418  1.0360 -0.2328 -1.3416
 3989TIP3   OH233525   1.101   2.513   1.271 -0.0021  0.0892  0.4689
 3989TIP3    H133526   1.060   2.597   1.251 -1.0284 -1.0100 -2.9122
 3989TIP3    H233527   1.088   2.501   1.365  0.3860  3.7265  1.1362
 3990TIP3   OH233528   1.155   2.064   7.693 -0.2626 -0.3144  0.0144
 3990TIP3    H133529   1.096   1.997   7.727  1.0505 -2.2422 -1.3189
 3990TIP3    H233530   1.159   2.130   7.763 -2.6718 -0.8742  0.7933
 3991TIP3   OH233531   4.201   2.521   1.741  0.0665 -0.2299 -0.4550
 3991TIP3    H133532   4.268   2.513   1.808 -0.8207 -1.2574  0.3500
 3991TIP3    H233533   4.131   2.461   1.769 -0.7023 -0.0356 -1.8409
 3992TIP3   OH233534   5.053   2.378   7.420  0.2660 -0.3354  0.2400
 3992TIP3    H133535   5.026   2.324   7.494 -0.5145 -1.4159 -0.8094
 3992TIP3    H233536   5.036   2.325   7.343  2.6505  0.0881 -0.6792
 3993TIP3   OH233537   1.694   3.149   0.529 -0.7779  0.2546 -0.7443
 3993TIP3    H133538   1.610   3.166   0.571 -0.8151  2.2882 -1.5423
 3993TIP3    H233539   1.757   3.201   0.579  0.2941 -2.1885  0.6169
 3994TIP3   OH233540   3.105   4.559   1.549  0.1148 -0.0269 -0.2402
 3994TIP3    H133541   3.010   4.572   1.554 -0.0661 -1.6121  2.1202
 3994TIP3    H233542   3.115   4.470   1.514  0.7731  0.5267 -1.4771
 3995TIP3   OH233543   0.645   5.080   1.617 -0.0695 -0.0959 -0.2956
 3995TIP3    H133544   0.620   5.134   1.691  0.5178  0.9290 -0.8169
 3995TIP3    H233545   0.568   5.027   1.597 -0.4471  0.1107  0.6125
 3996TIP3   OH233546   2.982   6.507   6.776  0.4896 -0.2243  0.5142
 3996TIP3    H133547   3.074   6.487   6.793  0.6629 -0.3380 -0.5021
 3996TIP3    H233548   2.946   6.425   6.742 -0.3477 -0.5981  2.2053
 3997TIP3   OH233549   4.883   2.950   0.002 -0.2212  0.8027  0.5011
 3997TIP3    H133550   4.977   2.939  -0.007 -0.2489  0.6106  0.4300
 3997TIP3    H233551   4.863   3.030  -0.047 -0.6182 -1.2006 -2.9403
 3998TIP3   OH233552   5.472   0.042   1.898 -0.3090  0.2051  0.0322
 3998TIP3    H133553   5.411  -0.032   1.903 -0.1166 -0.0239 -0.8672
 3998TIP3    H233554   5.534   0.028   1.970  0.1327 -0.8799 -0.5531
 3999TIP3   OH233555   4.504   1.127   2.334  0.2725  0.1766  0.2315
 3999TIP3    H133556   4.465   1.111   2.248 -1.1482 -0.0589  0.8905
 3999TIP3    H233557   4.465   1.210   2.363  1.1243  0.5077  0.4405
 4000TIP3   OH233558   4.246   4.379   1.649 -0.0132 -0.2123  0.2614
 4000TIP3    H133559   4.237   4.360   1.742  0.7238 -0.6682  0.2489
 4000TIP3    H233560   4.322   4.328   1.621  1.5961  2.1707  0.0373
 4001TIP3   OH233561   2.805   0.702   0.979 -0.7520  0.4550 -0.2440
 4001TIP3    H133562   2.714   0.731   0.977 -0.7730  0.3435 -1.3462
 4001TIP3    H233563   2.801   0.608   0.962 -0.5073  0.2083  0.9463
 4002TIP3   OH233564   6.877   5.162   6.937  0.4119  0.2661  0.1354
 4002TIP3    H133565   6.890   5.233   6.999 -1.1323  1.0151 -0.3472
 4002TIP3    H233566   6.946   5.174   6.872  2.0292 -0.5037  1.6047
 4003TIP3   OH233567   4.792   1.364   8.555  0.2984 -0.0953  0.1549
 4003TIP3    H133568   4.838   1.308   8.617  0.4074  0.1093  0.2587
 4003TIP3    H233569   4.804   1.320   8.470 -2.0187 -1.7617  0.5950
 4004TIP3   OH233570   2.041   0.413   2.421  0.1461 -0.0783 -0.2887
 4004TIP3    H133571   2.036   0.373   2.334  1.3692 -0.1218 -0.3573
 4004TIP3    H233572   2.052   0.340   2.481 -0.5369 -0.0370 -0.1118
 4005TIP3   OH233573   5.284   0.545   3.027 -0.2212 -0.2639 -0.3903
 4005TIP3    H133574   5.192   0.533   3.005  0.3415 -2.4379 -1.9192
 4005TIP3    H233575   5.319   0.603   2.960  0.0098 -1.4077 -1.2921
 4006TIP3   OH233576   2.897   3.626   7.033 -0.1571  0.1223  0.3820
 4006TIP3    H133577   2.953   3.704   7.037  0.7843 -0.5665  0.8871
 4006TIP3    H233578   2.954   3.553   7.056 -0.0808 -1.2574 -3.4674
 4007TIP3   OH233579   6.628   3.639   1.411  0.2383 -0.0979 -0.0542
 4007TIP3    H133580   6.600   3.721   1.451 -0.6757 -0.5271  0.2195
 4007TIP3    H233581   6.678   3.595   1.480  0.8311  0.2835 -0.2422
 4008TIP3   OH233582   3.474   3.661   1.874 -0.5484  0.4962 -0.4946
 4008TIP3    H133583   3.524   3.596   1.923 -1.2685 -0.2203 -0.6752
 4008TIP3    H233584   3.510   3.745   1.901 -0.6203  0.1026  0.9039
 4009TIP3   OH233585   2.027   6.508   8.355 -0.6142  0.0604  0.1977
 4009TIP3    H133586   1.982   6.553   8.427  0.4731 -0.1007  1.0128
 4009TIP3    H233587   2.052   6.577   8.294  0.4407  0.5044  1.1008
 4010TIP3   OH233588   1.292   3.779   0.914 -0.9787  0.8100  0.4182
 4010TIP3    H133589   1.359   3.788   0.846  0.3401 -0.0898  1.5675
 4010TIP3    H233590   1.274   3.869   0.942 -0.6751  1.0998 -0.2877
 4011TIP3   OH233591   3.494   1.729   1.575  0.0925 -0.4402 -0.0248
 4011TIP3    H133592   3.414   1.692   1.613 -0.1619 -0.7068 -0.8132
 4011TIP3    H233593   3.539   1.654   1.537 -0.2611 -0.0164 -1.3383
 4012TIP3   OH233594   5.631   5.707   8.229  0.7521  0.7169 -0.0290
 4012TIP3    H133595   5.569   5.703   8.302  0.4176  0.7019 -0.3153
 4012TIP3    H233596   5.664   5.797   8.231 -0.4697  1.1996 -0.8620
 4013TIP3   OH233597   2.876   3.395   7.251  0.2595 -0.1681 -0.3256
 4013TIP3    H133598   2.956   3.389   7.198  0.6522 -2.1032  0.3802
 4013TIP3    H233599   2.896   3.459   7.319  0.0695  1.6815 -1.9323
 4014TIP3   OH233600   2.023   4.587   2.830  0.5895  0.0995 -0.0101
 4014TIP3    H133601   2.033   4.670   2.878 -0.3802 -0.4051  1.1262
 4014TIP3    H233602   2.010   4.522   2.898  0.6880 -0.8954 -0.9235
 4015TIP3   OH233603   6.486   4.306   0.373 -0.1309  0.2716  0.0205
 4015TIP3    H133604   6.453   4.278   0.458  0.5517  0.7096  0.4452
 4015TIP3    H233605   6.425   4.374   0.344 -1.4638 -1.2198 -0.7525
 4016TIP3   OH233606   6.364   5.971   2.287 -0.2747 -0.1276  0.0091
 4016TIP3    H133607   6.396   6.059   2.263  0.5362 -0.5031 -0.3336
 4016TIP3    H233608   6.436   5.934   2.338 -1.2608 -0.0056  1.5339
 4017TIP3   OH233609   3.143   6.480   0.971  0.2537 -0.5280 -0.5097
 4017TIP3    H133610   3.233   6.454   0.990 -0.2965 -0.6368  2.3537
 4017TIP3    H233611   3.134   6.567   1.009 -0.6974 -0.2451 -1.3307
 4018TIP3   OH233612   5.473   6.517   1.403 -0.1497 -0.2936 -0.1189
 4018TIP3    H133613   5.390   6.562   1.418 -1.6018 -2.5897 -0.7811
 4018TIP3    H233614   5.523   6.576   1.345 -1.9019  0.4839 -0.9025
 4019TIP3   OH233615   5.865   4.671   0.718 -0.1136 -0.5529  0.1551
 4019TIP3    H133616   5.852   4.665   0.812  1.6805 -0.0806  0.4841
 4019TIP3    H233617   5.780   4.695   0.682 -0.1923  2.4601  1.9990
 4020TIP3   OH233618   5.443   4.709   2.008  0.1600  0.3189  0.4430
 4020TIP3    H133619   5.374   4.711   1.941  0.9563  3.4260 -0.4421
 4020TIP3    H233620   5.441   4.619   2.041 -2.1473 -0.5840 -1.7707
 4021TIP3   OH233621   3.799   5.081   8.028 -0.3271  0.5664 -0.3588
 4021TIP3    H133622   3.741   5.124   7.966 -0.1170  0.9552 -0.2909
 4021TIP3    H233623   3.860   5.150   8.055  0.0819  0.1986 -0.3318
 4022TIP3   OH233624   1.235   3.405   2.075  0.1815  0.1184 -0.1211
 4022TIP3    H133625   1.175   3.380   2.145 -0.4513 -1.8024 -1.2516
 4022TIP3    H233626   1.315   3.355   2.092 -0.7237 -2.1269 -1.8254
 4023TIP3   OH233627   5.056   3.339   0.737 -0.1758 -0.4490  0.1617
 4023TIP3    H133628   5.139   3.362   0.695 -0.8892 -0.3444 -1.2543
 4023TIP3    H233629   5.074   3.346   0.831  1.5128 -0.7826 -0.1009
 4024TIP3   OH233630   0.873   1.609   1.691  0.2839 -0.2688 -0.0961
 4024TIP3    H133631   0.942   1.638   1.631  0.3897  0.8769  0.5597
 4024TIP3    H233632   0.858   1.683   1.749  2.5201 -2.3103  3.4794
 4025TIP3   OH233633   4.168   6.034   0.622  0.3270  0.5602 -0.2058
 4025TIP3    H133634   4.191   6.042   0.529 -0.4762  1.7254 -0.3117
 4025TIP3    H233635   4.076   6.059   0.627 -0.0172 -0.7837  0.7236
 4026TIP3   OH233636   2.162   2.624   7.485  0.3058 -0.2476  0.3676
 4026TIP3    H133637   2.200   2.547   7.526 -1.3774  0.2429  3.0663
 4026TIP3    H233638   2.071   2.599   7.467  0.2290  0.5483 -0.4263
 4027TIP3   OH233639   2.064   5.999   0.457 -0.2686 -0.0240 -0.0716
 4027TIP3    H133640   2.044   5.913   0.419 -0.3570 -0.4862  1.0018
 4027TIP3    H233641   2.148   6.023   0.417 -1.0783  0.2188 -1.7319
 4028TIP3   OH233642   1.098   1.997   0.104 -0.3274 -0.1116 -0.0258
 4028TIP3    H133643   1.154   2.074   0.090 -0.1993  0.5140  3.0634
 4028TIP3    H233644   1.120   1.969   0.193 -1.1083 -3.1703 -0.7095
 4029TIP3   OH233645   2.810   3.070   7.880  0.3301 -0.4672 -0.0994
 4029TIP3    H133646   2.765   3.121   7.948  0.1793 -1.3212  0.4623
 4029TIP3    H233647   2.743   3.010   7.847 -0.0336  0.9617 -2.1216
 4030TIP3   OH233648   5.228   0.770   0.988  0.1425 -0.1350  0.1284
 4030TIP3    H133649   5.305   0.792   0.936  0.7805 -1.4667  0.4629
 4030TIP3    H233650   5.250   0.687   1.030 -0.7180  0.4516  1.8218
 4031TIP3   OH233651   0.728   1.894   1.715 -0.3443  0.9587  0.7012
 4031TIP3    H133652   0.696   1.911   1.627  0.1359 -1.4408  0.0123
 4031TIP3    H233653   0.823   1.897   1.707 -0.2962  0.7373  1.1489
 4032TIP3   OH233654   6.185   0.565   2.156  0.0413 -0.1774 -0.1007
 4032TIP3    H133655   6.140   0.532   2.078 -0.1825  1.0080 -0.4970
 4032TIP3    H233656   6.277   0.540   2.143  0.0246  0.1007 -0.8090
 4033TIP3   OH233657   5.101   6.265   2.809  0.1150  0.2717  0.3921
 4033TIP3    H133658   5.114   6.337   2.870 -0.8456  0.8823 -0.0976
 4033TIP3    H233659   5.132   6.188   2.856 -2.5274  0.3660  2.5348
 4034TIP3   OH233660   1.355   1.495   7.934  0.8802 -0.0100 -0.3432
 4034TIP3    H133661   1.269   1.491   7.891  0.5577 -0.3801  0.3264
 4034TIP3    H233662   1.401   1.567   7.889 -0.4615  1.4615  0.5235
 4035TIP3   OH233663   5.709   6.441   8.591  0.0317  0.7085 -0.4326
 4035TIP3    H133664   5.766   6.454   8.666 -1.3522 -1.4959  1.1060
 4035TIP3    H233665   5.680   6.530   8.567  1.3471  1.5349  0.9150
 4036TIP3   OH233666   4.248   6.348   1.584 -0.5759  0.4830 -0.4856
 4036TIP3    H133667   4.260   6.437   1.553 -0.1881  1.0103  1.1141
 4036TIP3    H233668   4.179   6.353   1.650  2.2628  0.4560  2.7728
 4037TIP3   OH233669   6.100   0.556   0.886 -0.6354  0.6307 -0.2185
 4037TIP3    H133670   6.189   0.571   0.918 -0.4308 -2.0033  0.6888
 4037TIP3    H233671   6.111   0.536   0.793  0.0293 -1.6791  0.3092
 4038TIP3   OH233672   3.722   6.091   1.679  0.1261  0.1277 -0.8394
 4038TIP3    H133673   3.703   6.170   1.729  1.2222  0.0614 -0.2957
 4038TIP3    H233674   3.751   6.027   1.744  0.8584 -0.1923 -1.4655
 4039TIP3   OH233675   0.901   1.767   8.036  0.1132  0.1608  0.2255
 4039TIP3    H133676   0.941   1.736   8.117  0.7459  2.0927  0.7169
 4039TIP3    H233677   0.816   1.801   8.062 -0.5043 -0.9509 -0.2718
 4040TIP3   OH233678   5.361   4.981   0.612  0.3477 -0.1568  0.6360
 4040TIP3    H133679   5.296   5.007   0.548  0.8742 -0.5769 -0.0787
 4040TIP3    H233680   5.386   5.063   0.655 -1.6822 -0.1479  1.9591
 4041TIP3   OH233681   0.861   2.111   6.790 -0.0027  0.1120 -0.4259
 4041TIP3    H133682   0.954   2.108   6.811 -0.4721  0.5339  1.9633
 4041TIP3    H233683   0.824   2.173   6.853 -2.2402 -1.5759  0.0378
 4042TIP3   OH233684   0.434   5.963   0.376  0.4028  0.3514 -0.1103
 4042TIP3    H133685   0.479   6.004   0.302 -2.2021  2.5281 -0.6130
 4042TIP3    H233686   0.503   5.952   0.443  2.9467 -2.0642 -2.8127
 4043TIP3   OH233687   4.205   1.191   0.368  0.6097 -0.7440 -0.1001
 4043TIP3    H133688   4.197   1.137   0.289 -0.8398  0.1453 -0.5931
 4043TIP3    H233689   4.167   1.137   0.437 -3.2539  0.4696 -1.0353
 4044TIP3   OH233690   6.191   5.006   6.942  0.0921  0.2448 -0.7657
 4044TIP3    H133691   6.108   5.023   6.988  0.1146  1.6808 -1.1900
 4044TIP3    H233692   6.259   5.027   7.006  0.1283  0.0588 -0.7430
 4045TIP3   OH233693   3.135   4.324   0.582  0.2262 -0.2244 -0.0482
 4045TIP3    H133694   3.170   4.238   0.558  0.3663  0.4438 -2.4539
 4045TIP3    H233695   3.169   4.340   0.670  2.1862 -1.5846 -0.5035
 4046TIP3   OH233696   4.230   6.178   6.846  0.5171  0.2241 -0.1960
 4046TIP3    H133697   4.315   6.176   6.890  1.1471 -1.0133 -1.3919
 4046TIP3    H233698   4.223   6.267   6.813  2.4914 -0.2331 -2.1208
 4047TIP3   OH233699   6.841   0.983   1.919 -0.2690 -0.2473 -0.1948
 4047TIP3    H133700   6.894   0.999   1.997 -1.8310  0.9454  0.6858
 4047TIP3    H233701   6.762   0.940   1.952 -0.6101 -0.4391 -1.2228
 4048TIP3   OH233702   2.885   4.980   1.495 -0.1700  0.6694  0.2054
 4048TIP3    H133703   2.937   5.058   1.515 -0.9616  1.5789 -1.1100
 4048TIP3    H233704   2.856   4.948   1.580  2.0265  0.4543  0.9385
 4049TIP3   OH233705   1.006   5.212   7.577  0.1571  0.2295  0.3796
 4049TIP3    H133706   1.073   5.272   7.610  0.9437 -0.3359 -0.1229
 4049TIP3    H233707   1.050   5.166   7.505 -0.4616 -0.8397  0.6648
 4050TIP3   OH233708   6.860   3.878   7.948  0.0355  0.6864 -0.1794
 4050TIP3    H133709   6.815   3.794   7.951  0.6853  0.3338 -0.2191
 4050TIP3    H233710   6.873   3.894   7.854  1.2785  0.0850 -0.1267
 4051TIP3   OH233711   5.717   4.002   8.256 -0.3911 -0.0768 -0.0396
 4051TIP3    H133712   5.646   4.008   8.321 -0.0639  2.3490  0.1843
 4051TIP3    H233713   5.686   4.054   8.182  1.3780  1.6099  0.3332
 4052TIP3   OH233714   4.119   1.217   1.139  0.1586 -0.1946 -0.0002
 4052TIP3    H133715   4.069   1.285   1.184  0.1642 -0.4720  0.4386
 4052TIP3    H233716   4.210   1.239   1.156  0.1660 -0.1737 -0.0665
 4053TIP3   OH233717   1.911   4.350   0.224  0.1588 -0.0011  0.0204
 4053TIP3    H133718   1.916   4.331   0.131  1.0101 -1.4216  0.3317
 4053TIP3    H233719   1.818   4.337   0.246  0.3806 -2.2142 -0.1482
 4054TIP3   OH233720   1.013   3.027   2.295 -0.7911  0.3528 -0.0594
 4054TIP3    H133721   0.963   3.088   2.240 -0.6476 -0.1783 -0.8038
 4054TIP3    H233722   0.997   3.057   2.384 -2.4379  0.2075 -0.2676
 4055TIP3   OH233723   6.620   1.362   7.681  0.2514 -0.3032  0.0992
 4055TIP3    H133724   6.546   1.303   7.694 -0.1820 -0.1646 -1.4920
 4055TIP3    H233725   6.580   1.448   7.664  0.5685 -0.6541 -3.1270
 4056TIP3   OH233726   2.064   0.129   8.162  0.0911  0.1686  0.1005
 4056TIP3    H133727   2.054   0.034   8.170 -0.3548  0.2992  1.3455
 4056TIP3    H233728   2.013   0.164   8.235  0.2214  1.3694 -0.3729
 4057TIP3   OH233729   3.584   4.769   0.065  0.2846 -0.2783  0.0919
 4057TIP3    H133730   3.626   4.754  -0.020 -1.4528 -0.3152 -0.8020
 4057TIP3    H233731   3.615   4.697   0.120 -0.6831 -1.8755 -1.3543
 4058TIP3   OH233732   6.684   3.669   7.373  0.2680 -0.0368  0.6026
 4058TIP3    H133733   6.714   3.705   7.456 -1.4564  0.9025  0.8553
 4058TIP3    H233734   6.590   3.689   7.370 -0.0664 -1.5850 -0.7848
 4059TIP3   OH233735   4.534   5.385   0.385 -1.0066  0.1753  0.5847
 4059TIP3    H133736   4.557   5.326   0.456  3.1385 -0.7962 -1.2374
 4059TIP3    H233737   4.519   5.470   0.427  1.1013 -0.3973  2.6807
 4060TIP3   OH233738   4.884   5.873   1.121  0.9315  0.2841  0.2637
 4060TIP3    H133739   4.793   5.885   1.149  1.2227  1.6987  0.7046
 4060TIP3    H233740   4.934   5.933   1.176  2.2171 -0.8899  0.4219
 4061TIP3   OH233741   4.119   0.719   7.602  0.2971  0.4726 -0.2607
 4061TIP3    H133742   4.111   0.667   7.682  2.4705 -0.8725 -0.8452
 4061TIP3    H233743   4.146   0.806   7.632 -1.4296  0.7683  0.5838
 4062TIP3   OH233744   3.711   4.787   1.067  0.0202  0.1816  0.4246
 4062TIP3    H133745   3.775   4.761   1.000  0.5403  0.6732  0.7200
 4062TIP3    H233746   3.640   4.723   1.059 -0.3166  0.7107 -1.1497
 4063TIP3   OH233747   4.323   5.552   1.374 -0.7023 -0.0322 -0.3507
 4063TIP3    H133748   4.289   5.467   1.401  0.4085  0.3337  2.5784
 4063TIP3    H233749   4.384   5.577   1.444  0.9619  2.0282 -2.3770
 4064TIP3   OH233750   3.363   4.950   2.105 -0.3045  0.0307 -0.4530
 4064TIP3    H133751   3.271   4.977   2.108 -0.9626 -1.8311 -2.1189
 4064TIP3    H233752   3.405   5.014   2.048 -0.3672  1.2987  0.8679
 4065TIP3   OH233753   0.454   1.399   7.907  0.3015 -0.2006 -0.2038
 4065TIP3    H133754   0.412   1.334   7.963  1.9483 -3.0916 -2.0442
 4065TIP3    H233755   0.382   1.443   7.862 -0.9426 -3.0252 -1.1937
 4066TIP3   OH233756   4.770   1.935   7.158  0.3433  0.0390  0.1555
 4066TIP3    H133757   4.729   1.921   7.072  0.0881 -1.7478  0.5194
 4066TIP3    H233758   4.859   1.961   7.137  0.1319  0.1586 -0.6627
 4067TIP3   OH233759   2.070   2.885   0.615  0.0953 -0.0192  0.8415
 4067TIP3    H133760   2.150   2.928   0.585 -0.1909  0.0482  0.1488
 4067TIP3    H233761   2.073   2.798   0.574 -0.5929  0.2882  0.1216
 4068TIP3   OH233762   4.356   5.420   8.069  0.3883  0.1232 -0.2478
 4068TIP3    H133763   4.393   5.334   8.053  0.1344 -0.4727  2.0280
 4068TIP3    H233764   4.419   5.463   8.127 -1.3950 -0.1683  2.0527
 4069TIP3   OH233765   5.831   1.623   2.159 -0.0892  0.0201  0.2450
 4069TIP3    H133766   5.781   1.550   2.196 -0.0922  0.9797  2.2924
 4069TIP3    H233767   5.922   1.594   2.163 -0.2373 -0.6355 -0.8517
 4070TIP3   OH233768   3.903   2.531   1.861 -0.5388 -0.4926 -0.1487
 4070TIP3    H133769   3.914   2.437   1.848  2.9922 -0.4140  1.1321
 4070TIP3    H233770   3.897   2.541   1.956  1.0245  0.6654 -0.1381
 4071TIP3   OH233771   1.372   0.547   0.066  0.2356  0.0064  0.4309
 4071TIP3    H133772   1.378   0.518   0.157 -3.9215  1.1905  1.3298
 4071TIP3    H233773   1.365   0.467   0.015  1.4948 -0.6528  1.2480
 4072TIP3   OH233774   0.894   3.780   2.864  0.5064  0.0646 -0.0804
 4072TIP3    H133775   0.955   3.843   2.902  0.4328 -0.4387  0.8919
 4072TIP3    H233776   0.951   3.714   2.823  0.6731 -0.8604  1.5581
 4073TIP3   OH233777   2.746   6.651   1.317 -0.0840  0.6126 -0.0807
 4073TIP3    H133778   2.776   6.708   1.389 -1.0744 -1.4181  2.0666
 4073TIP3    H233779   2.651   6.662   1.316 -0.3509 -1.2561  0.6962
 4074TIP3   OH233780   5.570   2.353   6.948 -0.9913  0.7468 -0.7210
 4074TIP3    H133781   5.510   2.424   6.923 -1.5669  0.1520 -1.0757
 4074TIP3    H233782   5.513   2.287   6.987 -0.6690 -0.1675 -1.7766
 4075TIP3   OH233783   4.623   4.486   1.913  0.4959 -0.1941 -0.4368
 4075TIP3    H133784   4.575   4.538   1.977  3.0174  1.2050  0.4860
 4075TIP3    H233785   4.696   4.449   1.962  2.8336  1.3733 -2.4917
 4076TIP3   OH233786   4.669   0.874   1.462 -0.1324  0.1250 -0.0949
 4076TIP3    H133787   4.713   0.845   1.382 -0.2188 -1.3648  0.3752
 4076TIP3    H233788   4.589   0.917   1.431  1.5298  2.8524 -0.9654
 4077TIP3   OH233789   1.724   6.210   2.024 -0.0213  0.0524  0.0670
 4077TIP3    H133790   1.637   6.175   2.003 -0.5356  0.4235  1.4660
 4077TIP3    H233791   1.760   6.236   1.939 -0.5729 -1.6342 -0.7465
 4078TIP3   OH233792   6.176   0.289   1.029  0.2381 -0.3058  0.3472
 4078TIP3    H133793   6.224   0.287   1.112 -0.7980  0.8919  1.0001
 4078TIP3    H233794   6.220   0.357   0.978  0.0853 -0.1678  0.4013
 4079TIP3   OH233795   5.412   2.916   0.729 -0.0458  0.1152 -0.4524
 4079TIP3    H133796   5.448   2.951   0.811 -1.5727  1.1527 -0.1980
 4079TIP3    H233797   5.474   2.946   0.662  1.1632 -0.6535  0.2663
 4080TIP3   OH233798   3.996   4.552   7.247  0.1512  0.1697  0.4229
 4080TIP3    H133799   3.914   4.576   7.290 -0.4669  0.1480 -0.7029
 4080TIP3    H233800   4.018   4.628   7.193  0.0794 -0.3883 -0.4124
 4081TIP3   OH233801   0.071   4.349   2.634  0.2748 -0.0840  0.1054
 4081TIP3    H133802   0.105   4.261   2.648 -0.9986 -0.2357  2.7941
 4081TIP3    H233803   0.148   4.406   2.642  0.9070 -0.8170 -0.5020
 4082TIP3   OH233804   4.291   5.228   8.598  0.2742  0.0175  0.6301
 4082TIP3    H133805   4.211   5.234   8.649  0.5694  4.1213  0.9493
 4082TIP3    H233806   4.361   5.238   8.662  0.7907  1.4173 -0.1042
 4083TIP3   OH233807   2.304   2.953   0.424  0.1167 -0.1854  0.6347
 4083TIP3    H133808   2.324   3.045   0.444 -0.0773 -0.4887  2.4456
 4083TIP3    H233809   2.278   2.953   0.332 -0.4743  1.6812  0.7589
 4084TIP3   OH233810   5.224   0.557   1.919  0.0734 -0.0784 -0.3045
 4084TIP3    H133811   5.145   0.571   1.867  1.8481  1.2052 -2.8267
 4084TIP3    H233812   5.237   0.640   1.966 -0.4679 -0.5690  0.7502
 4085TIP3   OH233813   5.525   1.740   0.477  0.2978  0.4936 -0.0755
 4085TIP3    H133814   5.528   1.822   0.526  0.4682  0.3948  0.0848
 4085TIP3    H233815   5.612   1.733   0.436 -0.1279  0.9929 -1.0944
 4086TIP3   OH233816   3.009   6.561   2.599 -0.4326 -0.6058  0.0817
 4086TIP3    H133817   3.041   6.549   2.509 -0.3876 -1.7495  0.2346
 4086TIP3    H233818   2.922   6.520   2.598  0.5353 -2.8644  1.1475
 4087TIP3   OH233819   1.828   6.368   1.051 -0.7321 -0.1002 -0.0415
 4087TIP3    H133820   1.879   6.318   0.986  0.7645  0.7858  0.3975
 4087TIP3    H233821   1.890   6.433   1.084 -1.2125 -1.0053  2.8477
 4088TIP3   OH233822   5.033   5.160   0.696  0.2191 -0.2674 -0.3963
 4088TIP3    H133823   5.042   5.227   0.764 -1.0732 -0.8476  0.3808
 4088TIP3    H233824   5.057   5.205   0.615  3.1209  0.0752  0.5578
 4089TIP3   OH233825   3.570   1.317   0.179  0.5052  0.0858  0.1007
 4089TIP3    H133826   3.570   1.412   0.170  1.5052  0.0777 -0.0955
 4089TIP3    H233827   3.589   1.284   0.091  0.9563 -0.2663  0.3225
 4090TIP3   OH233828   0.754   6.071   1.033 -0.0898  0.6128 -0.8274
 4090TIP3    H133829   0.701   6.043   0.959  0.0591  2.2210 -1.5832
 4090TIP3    H233830   0.844   6.070   1.000 -0.0889  2.0334 -0.9324
 4091TIP3   OH233831   6.184   2.601   7.852  0.0570 -0.2163 -0.5254
 4091TIP3    H133832   6.169   2.688   7.817 -0.6861 -0.2093 -0.2024
 4091TIP3    H233833   6.230   2.615   7.935  0.4140 -0.1621 -0.7295
 4092TIP3   OH233834   1.768   0.343   0.492  0.0932  0.2026  0.8616
 4092TIP3    H133835   1.808   0.258   0.473 -2.0118 -0.3591 -1.6849
 4092TIP3    H233836   1.839   0.406   0.486  1.1358 -1.0370 -0.5002
 4093TIP3   OH233837   3.730   5.027   7.146 -0.1559  0.7472  0.1894
 4093TIP3    H133838   3.744   5.006   7.239  0.5557  2.2350  0.4387
 4093TIP3    H233839   3.816   5.053   7.114  0.5407 -3.3055 -1.9361
 4094TIP3   OH233840   2.239   3.419   8.478 -0.8877 -0.0274  0.1763
 4094TIP3    H133841   2.266   3.384   8.393 -0.1950 -0.2925  0.4964
 4094TIP3    H233842   2.221   3.512   8.461 -1.0101 -0.1400 -0.3137
 4095TIP3   OH233843   1.914   2.772   2.557 -0.3729  0.1473  0.3322
 4095TIP3    H133844   1.951   2.685   2.543  0.0581  0.5181 -1.0053
 4095TIP3    H233845   1.986   2.832   2.537 -1.0310  0.8310 -0.0403
 4096TIP3   OH233846   0.593   0.101   7.723 -0.0937 -0.3911  0.4376
 4096TIP3    H133847   0.631   0.014   7.733 -0.2843 -0.5018  0.1990
 4096TIP3    H233848   0.567   0.105   7.632 -1.5625 -0.6937  0.8185
 4097TIP3   OH233849   4.558   3.062   7.524  0.8782 -0.1448 -0.5297
 4097TIP3    H133850   4.520   3.147   7.546  0.6771 -0.1073 -1.0029
 4097TIP3    H233851   4.545   3.054   7.429 -0.7072 -1.4775 -0.2369
 4098TIP3   OH233852   6.305   5.680   1.627  1.1159  0.7877  0.0021
 4098TIP3    H133853   6.323   5.610   1.565 -0.8671 -0.9743  1.2785
 4098TIP3    H233854   6.260   5.747   1.575 -0.7398 -0.7593 -0.5217
 4099TIP3   OH233855   0.192   4.718   7.934  0.5868 -0.3160 -0.2101
 4099TIP3    H133856   0.185   4.624   7.950  1.3231 -0.4418 -0.5619
 4099TIP3    H233857   0.266   4.726   7.874  1.3247  0.5742  0.7613
 4100TIP3   OH233858   1.454   0.319   1.519  0.3488 -0.4361  0.1432
 4100TIP3    H133859   1.525   0.368   1.561 -0.4094  2.3935 -1.6446
 4100TIP3    H233860   1.375   0.348   1.564 -0.3556  1.8420 -2.2972
 4101TIP3   OH233861   4.475   2.689   1.386 -0.6177  0.1552  0.3944
 4101TIP3    H133862   4.432   2.609   1.416 -1.1140  0.0756 -0.5008
 4101TIP3    H233863   4.464   2.751   1.459  1.5897 -1.1711  2.0037
 4102TIP3   OH233864   6.143   6.165   2.413  0.5211  0.7859 -0.1244
 4102TIP3    H133865   6.199   6.159   2.490  0.7539  2.4382 -0.1239
 4102TIP3    H233866   6.073   6.101   2.429  0.9038  0.6563  1.1622
 4103TIP3   OH233867   4.750   3.046   1.777 -0.0918  0.2865  0.6176
 4103TIP3    H133868   4.740   3.076   1.687  1.0952  0.2112  0.4451
 4103TIP3    H233869   4.740   2.951   1.772 -0.6361  0.3361  0.6703
 4104TIP3   OH233870   3.779   1.910   0.543 -0.0741 -0.6940  0.3392
 4104TIP3    H133871   3.821   1.866   0.469 -0.7060  1.2916 -1.2870
 4104TIP3    H233872   3.804   2.002   0.534 -0.6341 -0.3014  2.2987
 4105TIP3   OH233873   3.822   3.534   0.891 -0.4767  0.5279  0.5917
 4105TIP3    H133874   3.743   3.500   0.932  0.1314 -0.5731  0.9147
 4105TIP3    H233875   3.892   3.476   0.923  0.0578 -0.3299 -1.8839
 4106TIP3   OH233876   3.823   2.713   8.137  0.4379 -0.0198  0.1916
 4106TIP3    H133877   3.770   2.682   8.210 -1.4834 -0.2868 -1.2274
 4106TIP3    H233878   3.805   2.807   8.133  2.5508  0.5209  1.5620
 4107TIP3   OH233879   3.365   2.912   2.563 -0.0444  0.0261 -0.3472
 4107TIP3    H133880   3.427   2.897   2.635  1.2813 -0.5165 -1.5358
 4107TIP3    H233881   3.394   2.851   2.495 -2.0207 -0.3534 -0.8934
 4108TIP3   OH233882   6.006   0.604   0.320  0.2437  0.1956 -0.2446
 4108TIP3    H133883   5.957   0.524   0.337 -0.9237  0.3381 -2.5516
 4108TIP3    H233884   5.984   0.662   0.393  0.4308 -1.2524  1.0020
 4109TIP3   OH233885   5.647   4.698   0.409  0.6593 -0.1651  0.2850
 4109TIP3    H133886   5.624   4.709   0.501  2.0722  0.2229  0.6234
 4109TIP3    H233887   5.680   4.784   0.383  1.0390 -0.4995 -0.3523
 4110TIP3   OH233888   0.591   6.655   7.772  0.5489 -0.3092  0.3465
 4110TIP3    H133889   0.526   6.679   7.838  0.4121  1.1258 -0.2984
 4110TIP3    H233890   0.578   6.561   7.760 -0.9349 -0.1773  0.7268
 4111TIP3   OH233891   1.158   6.377   2.294  0.8807 -0.4343 -0.7478
 4111TIP3    H133892   1.153   6.317   2.369  0.3049 -1.7222 -1.7655
 4111TIP3    H233893   1.219   6.445   2.321 -0.0292 -0.3502  1.2356
 4112TIP3   OH233894   3.274   5.644   1.580 -0.5771  0.5186 -0.5952
 4112TIP3    H133895   3.282   5.626   1.487  1.7581 -1.1247 -0.1555
 4112TIP3    H233896   3.318   5.729   1.592  2.3233 -0.8767 -0.5814
 4113TIP3   OH233897   3.700   2.483   7.799 -0.0409  0.2322 -0.1800
 4113TIP3    H133898   3.704   2.577   7.818  1.7064 -0.3828  3.1891
 4113TIP3    H233899   3.607   2.462   7.801 -0.3391  1.4238  2.2707
 4114TIP3   OH233900   3.648   3.447   1.255 -0.2665  0.2268 -0.3699
 4114TIP3    H133901   3.733   3.408   1.276 -0.3365 -1.4913 -2.8797
 4114TIP3    H233902   3.596   3.434   1.335  1.0591 -0.9809  0.3503
 4115TIP3   OH233903   0.637   5.506   8.202  0.5620  0.2196  0.1859
 4115TIP3    H133904   0.689   5.586   8.201  0.5505  0.2453 -1.7476
 4115TIP3    H233905   0.697   5.438   8.170 -0.2004 -0.0013 -0.8133
 4116TIP3   OH233906   4.734   4.613   2.213  0.0118 -0.3568 -0.5760
 4116TIP3    H133907   4.790   4.690   2.201 -0.8868  0.3973 -0.0525
 4116TIP3    H233908   4.668   4.620   2.145  0.3765 -1.0996 -1.0193
 4117TIP3   OH233909   0.586   6.371   2.426 -0.2233  0.5235 -0.0646
 4117TIP3    H133910   0.680   6.384   2.435 -0.5548  3.9291 -0.1377
 4117TIP3    H233911   0.574   6.342   2.336  0.8721 -3.3933  0.8664
 4118TIP3   OH233912   4.272   0.652   8.383 -0.4623 -0.3519  0.5185
 4118TIP3    H133913   4.359   0.628   8.349 -0.2651 -0.4708  1.0968
 4118TIP3    H233914   4.211   0.597   8.333 -0.1320 -0.9576  0.7671
 4119TIP3   OH233915   3.849   3.440   7.558 -0.4812 -0.0597  0.1907
 4119TIP3    H133916   3.845   3.500   7.632 -0.6481  0.7896 -0.4843
 4119TIP3    H233917   3.775   3.465   7.502 -1.0895 -1.4770  0.3086
 4120TIP3   OH233918   5.300   3.475   7.304 -0.2543 -0.0927  0.0376
 4120TIP3    H133919   5.306   3.539   7.233  0.6324 -0.3364 -0.1182
 4120TIP3    H233920   5.300   3.390   7.261  0.9501 -0.2662  0.3346
 4121TIP3   OH233921   5.802   3.907   8.546  0.3791  0.4071 -0.2081
 4121TIP3    H133922   5.721   3.888   8.499 -0.6853  0.8748  1.3437
 4121TIP3    H233923   5.863   3.840   8.515 -1.3662 -1.6510  0.4674
 4122TIP3   OH233924   5.373   4.574   7.527  0.3322  0.4185 -0.0803
 4122TIP3    H133925   5.437   4.645   7.518  0.5065  0.2796  0.0496
 4122TIP3    H233926   5.380   4.525   7.445  0.0027  0.7210 -0.2915
 4123TIP3   OH233927   3.389   1.587   0.338  0.2689 -0.6136 -0.1371
 4123TIP3    H133928   3.477   1.623   0.328  0.5659 -1.1384  0.5158
 4123TIP3    H233929   3.354   1.584   0.249  0.9474 -0.4974 -0.4127
 4124TIP3   OH233930   6.194   5.170   2.303  0.4166 -0.2547  0.1504
 4124TIP3    H133931   6.270   5.112   2.303  0.3394 -0.4816  3.1472
 4124TIP3    H233932   6.125   5.121   2.348 -0.2587  1.4053  1.0337
 4125TIP3   OH233933   1.957   6.598   1.145 -0.6767  0.6274 -0.0709
 4125TIP3    H133934   1.933   6.679   1.189 -0.5061  0.0194  1.1869
 4125TIP3    H233935   2.014   6.626   1.073  0.1550  1.5662  0.9162
 4126TIP3   OH233936   1.750   4.889   0.682  0.2157  0.5701 -0.0990
 4126TIP3    H133937   1.791   4.927   0.604  1.7369 -0.7555  0.0094
 4126TIP3    H233938   1.782   4.942   0.755 -0.2749  1.0770 -0.2407
 4127TIP3   OH233939   1.553   3.648   7.854 -0.1350  0.0540  0.0511
 4127TIP3    H133940   1.611   3.698   7.797  2.2079 -1.9482  0.5120
 4127TIP3    H233941   1.513   3.583   7.797 -0.8774  0.5214  0.0147
 4128TIP3   OH233942   4.471   1.595   6.759 -0.0344  0.0211 -0.1082
 4128TIP3    H133943   4.494   1.554   6.676 -0.9047 -0.8846  0.0854
 4128TIP3    H233944   4.378   1.615   6.752  0.3362  1.9491 -0.1656
 4129TIP3   OH233945   3.485   0.011   2.563 -0.4118 -0.1884 -0.3606
 4129TIP3    H133946   3.407  -0.036   2.594 -1.1777  1.5600  0.5252
 4129TIP3    H233947   3.530   0.039   2.643  0.7504 -0.5527 -0.8666
 4130TIP3   OH233948   6.373   0.383   1.836  0.2114  0.2102 -0.2758
 4130TIP3    H133949   6.449   0.387   1.895  0.8984 -0.2057 -1.1190
 4130TIP3    H233950   6.404   0.336   1.759 -1.2955 -1.2496 -0.0572
 4131TIP3   OH233951   2.452   3.242   1.782 -0.1451  0.0876 -0.2049
 4131TIP3    H133952   2.383   3.253   1.716  1.2898  2.0034 -1.4736
 4131TIP3    H233953   2.411   3.271   1.864 -0.7416  1.6945 -1.0281
 4132TIP3   OH233954   2.991   5.375   6.983  0.3801  1.1772  0.3083
 4132TIP3    H133955   3.071   5.323   6.982  0.2212  0.8839 -1.6440
 4132TIP3    H233956   3.014   5.456   6.937 -0.4985  0.9441 -0.5951
 4133TIP3   OH233957   1.224   4.805   3.060  0.0434  0.3993  0.1504
 4133TIP3    H133958   1.194   4.862   3.130  0.1102 -0.2167  0.6931
 4133TIP3    H233959   1.247   4.723   3.104  2.4500  0.8093 -0.2340
 4134TIP3   OH233960   4.649   6.523   1.798  0.0684  0.8402 -0.1024
 4134TIP3    H133961   4.639   6.567   1.882 -0.6567  0.2310  0.1480
 4134TIP3    H233962   4.559   6.504   1.770  0.2985  1.0446 -1.0257
 4135TIP3   OH233963   3.203   4.069   8.302 -0.3569 -0.0304  0.0108
 4135TIP3    H133964   3.234   4.155   8.272  0.6357 -0.4866 -0.3121
 4135TIP3    H233965   3.226   4.066   8.395 -1.4206  0.4921  0.3080
 4136TIP3   OH233966   3.659   0.638   7.931  0.3147 -0.1612  0.1583
 4136TIP3    H133967   3.703   0.675   7.855 -0.4276  0.9711  0.2581
 4136TIP3    H233968   3.660   0.544   7.916 -0.0495  0.0559 -1.3840
 4137TIP3   OH233969   0.978   6.008   8.608  0.5682 -0.0800  0.4360
 4137TIP3    H133970   1.026   5.942   8.556  0.6741  0.4664 -0.1734
 4137TIP3    H233971   0.924   5.956   8.667  0.8899 -0.7198  0.1876
 4138TIP3   OH233972   4.152   3.415   1.994 -0.2958 -0.7078  0.2009
 4138TIP3    H133973   4.244   3.432   1.973 -0.2497  1.1361  1.5866
 4138TIP3    H233974   4.154   3.383   2.084 -0.9870 -1.1442  0.0709
 4139TIP3   OH233975   2.223   0.609   8.389 -0.0453  0.6740 -0.1320
 4139TIP3    H133976   2.309   0.652   8.396 -0.2176  1.0408 -0.2225
 4139TIP3    H233977   2.238   0.533   8.333  0.6592 -0.4475  1.5034
 4140TIP3   OH233978   6.862   4.813   7.393  0.2361 -0.1522 -0.2060
 4140TIP3    H133979   6.931   4.878   7.406 -0.6993  0.9702 -0.6463
 4140TIP3    H233980   6.857   4.803   7.298 -0.5324  0.1421 -0.1985
 4141TIP3   OH233981   2.786   2.968   1.069  0.3202 -0.5806 -1.3297
 4141TIP3    H133982   2.858   2.965   1.005 -0.0207 -1.2192 -1.6888
 4141TIP3    H233983   2.720   2.908   1.034  0.5596 -1.7535  0.1444
 4142TIP3   OH233984   3.637   1.098   0.307 -0.1347 -0.1003  0.0025
 4142TIP3    H133985   3.602   1.172   0.259  0.9547 -0.1716 -0.9295
 4142TIP3    H233986   3.699   1.056   0.247 -1.1790 -2.1530  0.2502
 4143TIP3   OH233987   2.073   5.450   0.075 -0.1688  0.6484  0.2089
 4143TIP3    H133988   2.109   5.405   0.152 -2.2706 -0.8943  0.3913
 4143TIP3    H233989   2.149   5.491   0.034  1.1551  0.8545  2.6396
 4144TIP3   OH233990   5.786   5.706   0.004  0.0226 -0.1077  0.2364
 4144TIP3    H133991   5.821   5.690   0.091  0.9464 -1.5908 -0.3603
 4144TIP3    H233992   5.702   5.660   0.003  0.2682 -0.5642  0.1854
 4145TIP3   OH233993   1.925   3.173   0.946  0.5293 -0.1098  0.0408
 4145TIP3    H133994   1.851   3.113   0.939  2.6089 -2.7349 -1.0103
 4145TIP3    H233995   1.925   3.202   1.037 -2.5648  1.1435 -0.2609
 4146TIP3   OH233996   1.009   5.904   8.180 -0.0499 -0.7887 -0.4353
 4146TIP3    H133997   0.985   5.835   8.242 -0.8273 -1.2512 -1.2188
 4146TIP3    H233998   1.098   5.882   8.153  0.7509  0.0726  1.3585
 4147TIP3   OH233999   5.814   4.260   7.948 -0.1073  0.1565  0.3030
 4147TIP3    H134000   5.750   4.204   7.992  0.7617  0.2499  1.7323
 4147TIP3    H234001   5.895   4.210   7.948  0.2313  0.6908 -0.0390
 4148TIP3   OH234002   5.295   0.814   7.991 -0.1752  0.0957  0.1397
 4148TIP3    H134003   5.387   0.788   7.997 -0.1396 -0.1923 -1.3915
 4148TIP3    H234004   5.249   0.751   8.046  0.2273 -1.6163 -1.3881
 4149TIP3   OH234005   1.464   1.789   0.376  0.1213 -0.1700  0.2549
 4149TIP3    H134006   1.469   1.873   0.422  0.8245 -0.4145  0.6405
 4149TIP3    H234007   1.534   1.793   0.311 -0.2353 -0.2210 -0.1343
 4150TIP3   OH234008   1.587   2.679   1.781 -0.2045 -0.4470 -0.0118
 4150TIP3    H134009   1.596   2.754   1.841  0.0593  0.1057 -0.7183
 4150TIP3    H234010   1.493   2.670   1.768 -0.3324 -1.3403  1.4146
 4151TIP3   OH234011   4.988   2.856   8.112  0.5740 -0.1506 -0.3047
 4151TIP3    H134012   4.997   2.946   8.079  1.9654 -1.3309 -3.5042
 4151TIP3    H234013   5.076   2.832   8.140  0.6215 -1.1359 -1.2732
 4152TIP3   OH234014   5.376   1.459   1.510 -0.7292 -0.1640 -0.3800
 4152TIP3    H134015   5.409   1.518   1.442 -0.4430  1.4790  1.0938
 4152TIP3    H234016   5.316   1.513   1.562  1.2671 -0.3950  2.4124
 4153TIP3   OH234017   0.578   4.778   3.117 -0.0740 -0.2326 -0.7600
 4153TIP3    H134018   0.579   4.827   3.034  2.7543  1.2245  0.0240
 4153TIP3    H234019   0.602   4.843   3.183 -3.2810 -1.0781  1.4912
 4154TIP3   OH234020   0.438   5.890   2.051 -0.3995 -0.0956 -0.1953
 4154TIP3    H134021   0.396   5.878   1.966  0.1890  1.0761 -0.6768
 4154TIP3    H234022   0.426   5.983   2.071 -1.0142 -0.4648  1.2795
 4155TIP3   OH234023   2.425   1.231   8.600 -0.0361 -0.5079  0.5253
 4155TIP3    H134024   2.393   1.181   8.525  0.9096 -0.3929  0.0272
 4155TIP3    H234025   2.515   1.200   8.613  0.1287  0.1495  1.0196
 4156TIP3   OH234026   1.016   2.289   7.819  0.6312  0.1947 -0.2339
 4156TIP3    H134027   0.965   2.313   7.742 -0.1929 -0.6029  0.0391
 4156TIP3    H234028   0.960   2.227   7.866  1.0799  0.7201  1.0395
 4157TIP3   OH234029   1.876   1.165   7.295  0.2962 -0.0374  0.3062
 4157TIP3    H134030   1.809   1.153   7.228  0.3009  1.4657 -0.0004
 4157TIP3    H234031   1.919   1.080   7.302 -0.0794 -0.3726 -1.1835
 4158TIP3   OH234032   5.915   5.284   8.524  0.5586  0.5613 -0.2898
 4158TIP3    H134033   5.921   5.338   8.603  2.3707  0.3849 -0.2535
 4158TIP3    H234034   5.924   5.345   8.452  3.7013  0.3335 -0.2385
 4159TIP3   OH234035   5.660   1.154   0.976  0.2508  0.5568 -0.2047
 4159TIP3    H134036   5.706   1.199   0.905  0.9824  1.7594  0.9961
 4159TIP3    H234037   5.677   1.207   1.054  2.6274 -2.6112  1.6975
 4160TIP3   OH234038   2.295   5.889   0.124  0.5047  0.2417 -0.2224
 4160TIP3    H134039   2.202   5.872   0.133  0.3094  0.9851 -0.6941
 4160TIP3    H234040   2.318   5.942   0.200  0.5948 -0.1492  0.0217
 4161TIP3   OH234041   3.173   4.778   1.388  0.0930  0.3128 -0.0901
 4161TIP3    H134042   3.158   4.865   1.424  0.8983  1.4191 -2.2516
 4161TIP3    H234043   3.188   4.723   1.465 -2.0645  1.6786  1.4414
 4162TIP3   OH234044   1.538   1.639   7.740  0.0949  0.1202 -0.1150
 4162TIP3    H134045   1.609   1.679   7.690  1.4146 -1.6116  0.2767
 4162TIP3    H234046   1.474   1.709   7.752  2.0135  1.9218  0.0569
 4163TIP3   OH234047   4.059   4.055   2.299 -0.0784  0.4236 -0.0791
 4163TIP3    H134048   4.112   4.108   2.359  0.6158 -0.7004  0.3335
 4163TIP3    H234049   4.122   4.020   2.236  0.1316 -2.6116  1.6155
 4164TIP3   OH234050   6.064   0.593   7.957  0.7937 -0.8391  0.1403
 4164TIP3    H134051   5.973   0.565   7.958  0.4811  0.0995 -0.5625
 4164TIP3    H234052   6.098   0.568   8.043 -0.2042 -0.9378  0.5137
 4165TIP3   OH234053   3.706   1.063   7.880  0.0407 -0.4534 -0.2554
 4165TIP3    H134054   3.774   0.999   7.857  0.3905  0.7166 -2.7928
 4165TIP3    H234055   3.755   1.140   7.909 -0.1358  0.3269 -1.9135
 4166TIP3   OH234056   2.636   0.552   1.923 -0.2269  0.0552  0.1317
 4166TIP3    H134057   2.663   0.488   1.857  0.1332  0.8413 -0.4925
 4166TIP3    H234058   2.540   0.543   1.927 -0.1591 -0.7328  0.2898
 4167TIP3   OH234059   4.696   5.365   7.919  0.2575  0.6243 -0.4371
 4167TIP3    H134060   4.747   5.312   7.857  0.4848 -1.1431  1.1573
 4167TIP3    H234061   4.605   5.339   7.905  0.2507  0.6306 -0.4065
 4168TIP3   OH234062   3.840   0.459   2.014  0.0160 -0.1224 -0.5202
 4168TIP3    H134063   3.870   0.460   1.923  0.8707  1.2961 -0.2564
 4168TIP3    H234064   3.850   0.550   2.044 -0.2713 -0.5508  0.9837
 4169TIP3   OH234065   6.143   5.633   8.272  0.1408  0.2479  0.0609
 4169TIP3    H134066   6.099   5.713   8.242 -0.3167 -0.0159  0.0077
 4169TIP3    H234067   6.103   5.614   8.357  0.4172  0.2054  0.1818
 4170TIP3   OH234068   0.555   5.549   6.605 -0.5215 -0.3405 -0.1559
 4170TIP3    H134069   0.532   5.627   6.555  2.7258  0.5821 -0.4638
 4170TIP3    H234070   0.616   5.581   6.672  1.6253 -2.6553 -0.8663
 4171TIP3   OH234071   4.813   4.274   2.285 -0.7031 -0.2251 -0.8182
 4171TIP3    H134072   4.752   4.217   2.331  0.3341 -0.8690 -0.1800
 4171TIP3    H234073   4.800   4.361   2.324 -1.0788 -0.3995 -0.5598
 4172TIP3   OH234074   2.768   3.022   0.460  1.1255  0.5525 -0.3892
 4172TIP3    H134075   2.761   2.931   0.489  0.0023  0.1814 -1.7344
 4172TIP3    H234076   2.843   3.056   0.509  0.4252 -0.5223  1.5745
 4173TIP3   OH234077   1.500   2.485   7.877  0.0134  0.4011 -0.2924
 4173TIP3    H134078   1.440   2.503   7.950  0.1322 -0.2092 -0.0403
 4173TIP3    H234079   1.471   2.401   7.841  1.7600 -0.8103  0.9393
 4174TIP3   OH234080   5.232   5.672   2.076 -0.0657 -0.0889 -0.3132
 4174TIP3    H134081   5.287   5.682   1.998 -0.3604  1.5845 -0.3538
 4174TIP3    H234082   5.237   5.758   2.119 -0.6560 -0.6998  1.0122
 4175TIP3   OH234083   3.323   0.433   7.224  0.1040 -0.0749  0.1012
 4175TIP3    H134084   3.330   0.338   7.233  1.7935 -0.0379 -0.4961
 4175TIP3    H234085   3.379   0.468   7.294  0.3078  0.4529 -0.3138
 4176TIP3   OH234086   1.542   2.293   0.938  0.3456  0.0134  0.6268
 4176TIP3    H134087   1.496   2.271   1.019  0.8695  0.1780  0.9750
 4176TIP3    H234088   1.502   2.237   0.871 -3.5278  3.2314 -0.1223
 4177TIP3   OH234089   3.783   1.109   6.392  0.0682  0.7590  0.1736
 4177TIP3    H134090   3.702   1.151   6.362  0.7273  2.0201  0.1000
 4177TIP3    H234091   3.842   1.181   6.413  1.2513 -0.1303  0.0539
 4178TIP3   OH234092   4.278   3.739   1.035 -0.0102  0.0405  0.0032
 4178TIP3    H134093   4.214   3.700   0.975 -0.1855 -0.4230  0.4838
 4178TIP3    H234094   4.291   3.672   1.102  1.5136 -0.1606 -0.4620
 4179TIP3   OH234095   4.026   4.140   0.463  0.0526  0.4024 -0.3273
 4179TIP3    H134096   4.039   4.061   0.411  1.2565  0.8173 -0.6910
 4179TIP3    H234097   4.112   4.156   0.504  0.2656  2.3084 -1.3909
 4180TIP3   OH234098   1.156   3.812   1.228  0.2601  0.0721 -0.0006
 4180TIP3    H134099   1.226   3.851   1.176  1.1826  0.7527  1.7048
 4180TIP3    H234100   1.158   3.719   1.205  1.7452  0.0758  0.0589
 4181TIP3   OH234101   3.132   2.674   0.881  0.9092 -0.3238 -0.4434
 4181TIP3    H134102   3.210   2.627   0.852  0.8665 -2.8338  2.8481
 4181TIP3    H234103   3.117   2.642   0.970 -1.7019  2.9270  0.4896
 4182TIP3   OH234104   3.658   3.819   0.552  0.2700 -0.3899 -0.1227
 4182TIP3    H134105   3.608   3.768   0.488 -0.0363  0.0525 -0.2413
 4182TIP3    H234106   3.730   3.761   0.579 -0.8607 -1.4144  0.7964
 4183TIP3   OH234107   0.976   2.748   1.309 -0.0691 -0.0323 -0.2093
 4183TIP3    H134108   0.934   2.763   1.225  0.4855 -0.5284 -0.5900
 4183TIP3    H234109   0.921   2.793   1.372 -0.8764 -0.2279 -0.7546
 4184TIP3   OH234110   6.403   2.297   0.073 -0.3068 -0.2722 -0.2065
 4184TIP3    H134111   6.472   2.256   0.126 -0.1626  1.1683  0.7961
 4184TIP3    H234112   6.386   2.235   0.003  0.4983 -1.6256  0.7535
 4185TIP3   OH234113   5.397   1.293   7.117 -0.0502  0.5230  0.6032
 4185TIP3    H134114   5.433   1.377   7.091 -0.0053  0.8385  1.6517
 4185TIP3    H234115   5.386   1.245   7.035  0.0095  1.5087  0.0071
 4186TIP3   OH234116   6.651   4.355   7.644 -0.1307 -0.3023 -0.1123
 4186TIP3    H134117   6.614   4.424   7.699  2.1409  2.4008 -1.6759
 4186TIP3    H234118   6.729   4.326   7.692  1.1969  1.2256 -1.2506
 4187TIP3   OH234119   2.197   3.144   0.909  0.2134  0.4259 -0.2057
 4187TIP3    H134120   2.204   3.066   0.964  0.2725 -1.4362 -2.6596
 4187TIP3    H234121   2.105   3.168   0.913  0.0312 -0.2706 -0.0261
 4188TIP3   OH234122   0.977   3.294   0.015  0.4205  0.0663 -0.3615
 4188TIP3    H134123   0.993   3.380   0.055 -0.7083 -0.2829  0.8752
 4188TIP3    H234124   1.040   3.290  -0.057 -0.2147  2.3848 -1.1384
 4189TIP3   OH234125   1.380   1.129   0.822 -0.1657  0.2542 -0.1737
 4189TIP3    H134126   1.452   1.094   0.770  0.4414 -0.0130  0.8169
 4189TIP3    H234127   1.423   1.170   0.897 -0.8816  2.6854 -1.0082
 4190TIP3   OH234128   5.181   0.956   0.363 -0.4018  0.6170  0.0867
 4190TIP3    H134129   5.186   0.906   0.444  0.1881  0.7311  0.1312
 4190TIP3    H234130   5.200   0.893   0.294 -1.6788  0.3518 -0.0387
 4191TIP3   OH234131   1.608   4.641   8.256  0.0214  0.7382  0.3448
 4191TIP3    H134132   1.664   4.640   8.333  1.0939  1.7939 -0.3718
 4191TIP3    H234133   1.632   4.722   8.211 -0.0757 -0.1702 -1.4320
 4192TIP3   OH234134   6.120   4.841   8.509 -0.7749 -0.4707 -0.1729
 4192TIP3    H134135   6.025   4.824   8.512 -0.9995  0.6698 -0.3674
 4192TIP3    H234136   6.154   4.776   8.447 -1.5299 -0.4926 -0.5774
 4193TIP3   OH234137   5.743   3.363   0.726 -0.1627 -0.1055  0.0897
 4193TIP3    H134138   5.814   3.371   0.663 -0.3006  0.0597 -0.0479
 4193TIP3    H234139   5.708   3.452   0.734 -0.9206 -0.3378 -0.5104
 4194TIP3   OH234140   3.017   4.336   7.274  0.5430 -0.0313 -0.3567
 4194TIP3    H134141   3.102   4.292   7.274  1.1052  0.8885  1.9313
 4194TIP3    H234142   2.955   4.269   7.247  1.6939 -1.4289  0.3002
 4195TIP3   OH234143   0.351   1.276   1.520 -0.1274 -0.0698  0.1787
 4195TIP3    H134144   0.275   1.254   1.574  0.3986  0.6847  1.2931
 4195TIP3    H234145   0.383   1.193   1.486  0.4092 -0.8077  2.3004
 4196TIP3   OH234146   2.064   1.247   1.766 -0.1060 -0.1181 -0.4654
 4196TIP3    H134147   2.055   1.311   1.695  1.6443 -0.0250 -0.6283
 4196TIP3    H234148   1.978   1.246   1.808 -0.9206  0.4796 -2.0244
 4197TIP3   OH234149   3.735   1.345   1.173 -0.1816 -0.1497 -0.2377
 4197TIP3    H134150   3.786   1.273   1.210  0.7708  0.7507  0.2663
 4197TIP3    H234151   3.800   1.402   1.133 -0.9166  0.4355 -0.6162
 4198TIP3   OH234152   6.488   0.164   7.717 -0.4297  0.0064 -0.4509
 4198TIP3    H134153   6.420   0.226   7.690  1.2123  1.1186 -2.3558
 4198TIP3    H234154   6.564   0.220   7.738  0.7080 -1.2933 -0.9520
 4199TIP3   OH234155   2.015   6.758   7.626 -0.0423  0.0396 -0.9426
 4199TIP3    H134156   1.970   6.746   7.710 -0.9840 -0.2847 -1.4768
 4199TIP3    H234157   1.968   6.828   7.582  0.3381  0.0961 -1.2723
 4200TIP3   OH234158   1.799   2.804   0.395 -0.4804 -0.8862 -0.0291
 4200TIP3    H134159   1.872   2.754   0.432  0.4873 -0.3754 -1.1801
 4200TIP3    H234160   1.794   2.774   0.304 -1.2442 -0.3879 -0.1525
 4201TIP3   OH234161   4.793   0.846   1.222  0.5178  0.4789 -0.1527
 4201TIP3    H134162   4.779   0.895   1.141  1.0622  1.5729  0.3886
 4201TIP3    H234163   4.839   0.767   1.194 -0.2628  0.3181 -1.0305
 4202TIP3   OH234164   3.094   3.046   8.239  0.1017  0.2168  1.0300
 4202TIP3    H134165   3.138   2.969   8.275 -1.9344 -1.6673 -0.2255
 4202TIP3    H234166   3.119   3.047   8.146 -1.6800 -0.3746  0.4977
 4203TIP3   OH234167   6.514   1.627   7.794 -0.2560  0.2664  0.4870
 4203TIP3    H134168   6.434   1.578   7.815  0.0722  0.1913  1.6450
 4203TIP3    H234169   6.486   1.692   7.729 -0.7934 -1.1401 -0.7389
 4204TIP3   OH234170   1.741   0.554   7.533  0.2459 -0.0371 -0.1701
 4204TIP3    H134171   1.747   0.601   7.450  0.7906  0.5390  0.1943
 4204TIP3    H234172   1.744   0.622   7.600 -1.9935 -0.3361  0.3109
 4205TIP3   OH234173   0.791   3.150   7.090  0.0616  0.6067 -0.3881
 4205TIP3    H134174   0.817   3.104   7.170  0.2949  1.0467 -0.2055
 4205TIP3    H234175   0.820   3.240   7.104  0.3161  0.6371 -1.0713
 4206TIP3   OH234176   6.323   3.727   0.996  0.0398  0.5510 -0.3888
 4206TIP3    H134177   6.339   3.652   0.938  4.5493  1.8382 -1.1894
 4206TIP3    H234178   6.355   3.698   1.081 -1.3824  0.5309  0.1662
 4207TIP3   OH234179   1.590   4.433   6.974  0.4528  0.2281 -0.3796
 4207TIP3    H134180   1.545   4.356   7.011  3.4493 -1.5033 -0.0243
 4207TIP3    H234181   1.576   4.426   6.880 -0.5720  0.1185 -0.2277
 4208TIP3   OH234182   5.637   3.064   8.385  0.3205 -0.1100  0.0143
 4208TIP3    H134183   5.546   3.091   8.373  0.8043  1.7159  0.2278
 4208TIP3    H234184   5.683   3.098   8.308  1.1301  0.4903  0.7406
 4209TIP3   OH234185   4.238   1.178   8.155 -0.0067  0.0420  0.2066
 4209TIP3    H134186   4.194   1.261   8.140  0.5929  0.6955  1.8174
 4209TIP3    H234187   4.296   1.195   8.230  1.1884 -1.4348 -0.3434
 4210TIP3   OH234188   5.941   6.640   1.616  0.1823  0.5504 -0.7481
 4210TIP3    H134189   5.889   6.693   1.676 -0.4446  0.3113 -1.0731
 4210TIP3    H234190   5.954   6.556   1.661 -0.7446  0.1768 -1.1550
 4211TIP3   OH234191   3.459   6.465   8.611  0.2749 -0.4356 -0.1338
 4211TIP3    H134192   3.396   6.488   8.542  1.3542  1.0659 -0.6972
 4211TIP3    H234193   3.541   6.449   8.563  0.6830 -0.8230  0.6906
 4212TIP3   OH234194   1.405   1.343   0.547 -0.5344  0.5609  0.6817
 4212TIP3    H134195   1.476   1.363   0.608  0.1270  1.0481 -0.2358
 4212TIP3    H234196   1.341   1.296   0.600  1.3381 -1.6959  1.0670
 4213TIP3   OH234197   4.453   2.193   8.567  0.3823  0.4109  0.9187
 4213TIP3    H134198   4.509   2.252   8.617  2.3225 -0.5633  0.0084
 4213TIP3    H234199   4.461   2.223   8.476 -1.3753  0.8245  0.8523
 4214TIP3   OH234200   5.541   5.785   7.724 -0.0781 -0.1069 -0.3158
 4214TIP3    H134201   5.592   5.755   7.649 -1.4212  0.8686 -1.6856
 4214TIP3    H234202   5.536   5.880   7.713 -0.0557  0.0792  1.1802
 4215TIP3   OH234203   0.703   4.107   0.692  0.4363  0.3055  0.6577
 4215TIP3    H134204   0.770   4.058   0.644  0.2892 -0.7785  1.5106
 4215TIP3    H234205   0.656   4.155   0.624  0.7694 -0.5264 -0.1892
 4216TIP3   OH234206   3.605   5.716   2.511  0.7110  0.1426 -0.9754
 4216TIP3    H134207   3.571   5.693   2.598 -0.2006 -0.9821 -1.5980
 4216TIP3    H234208   3.594   5.811   2.506 -0.5867  0.0473 -0.4018
 4217TIP3   OH234209   4.364   5.095   0.527 -0.1971 -0.5759  0.4257
 4217TIP3    H134210   4.365   5.057   0.439  0.3121  1.2042 -0.3898
 4217TIP3    H234211   4.454   5.127   0.539 -0.8330  1.1993  0.6475
 4218TIP3   OH234212   3.171   3.297   8.293  0.1575  0.1549  0.2229
 4218TIP3    H134213   3.163   3.201   8.287 -2.0300  0.2104  1.4690
 4218TIP3    H234214   3.265   3.312   8.293  0.5748 -1.9323 -0.7137
 4219TIP3   OH234215   0.827   6.404   6.750  0.9524  0.0780  0.4258
 4219TIP3    H134216   0.885   6.473   6.783 -1.5299  1.2488  2.7705
 4219TIP3    H234217   0.846   6.328   6.803  0.6612  0.3448  0.9235
 4220TIP3   OH234218   3.384   0.709   0.407 -0.6219  0.4437  0.2525
 4220TIP3    H134219   3.442   0.701   0.332 -1.0672 -0.0135 -0.0482
 4220TIP3    H234220   3.310   0.652   0.387 -0.1239 -0.7395  1.6461
 4221TIP3   OH234221   0.995   6.572   6.911 -0.0330 -0.0189 -0.1727
 4221TIP3    H134222   1.027   6.643   6.968  0.7045 -1.9349  1.9220
 4221TIP3    H234223   1.074   6.542   6.865 -0.4825  0.9618 -1.6677
 4222TIP3   OH234224   3.979   5.167   2.449  0.6440  0.2659  0.1427
 4222TIP3    H134225   4.065   5.207   2.466  0.7174  0.1826 -0.0328
 4222TIP3    H234226   3.943   5.219   2.377  1.2097 -0.6732 -0.8427
 4223TIP3   OH234227   6.757   3.924   0.535 -0.0618 -0.1040  0.3972
 4223TIP3    H134228   6.852   3.911   0.525  0.1934  0.4793  1.7719
 4223TIP3    H234229   6.734   3.988   0.469  0.1394 -1.5847 -1.1730
 4224TIP3   OH234230   5.756   0.958   2.256  0.7805  0.2385 -1.2935
 4224TIP3    H134231   5.814   0.886   2.229 -1.2846 -2.0677  0.0439
 4224TIP3    H234232   5.731   0.937   2.345  0.4026  2.9301 -0.6711
 4225TIP3   OH234233   3.457   0.286   8.611 -0.0682  0.3738 -0.5939
 4225TIP3    H134234   3.531   0.271   8.670  0.8918 -0.2876 -1.9155
 4225TIP3    H234235   3.420   0.199   8.596 -1.3198  0.7339  0.2855
 4226TIP3   OH234236   3.482   2.151   2.791 -0.1140  0.3217  0.1820
 4226TIP3    H134237   3.422   2.186   2.858 -1.7374  0.2464 -1.1690
 4226TIP3    H234238   3.517   2.228   2.747  0.3251  0.3438  0.5534
 4227TIP3   OH234239   5.155   6.401   1.526 -0.1762 -0.0521  0.1386
 4227TIP3    H134240   5.229   6.340   1.518  1.0783  1.5926 -1.6087
 4227TIP3    H234241   5.155   6.425   1.619  1.7175  0.1478  0.1408
 4228TIP3   OH234242   5.436   0.545   7.800  0.1698  0.6869 -0.4467
 4228TIP3    H134243   5.353   0.507   7.829  0.7709 -2.0661 -1.9651
 4228TIP3    H234244   5.452   0.618   7.860 -2.5553  0.3239  0.8429
 4229TIP3   OH234245   4.515   6.051   0.873 -0.0028 -0.2750 -0.1463
 4229TIP3    H134246   4.502   6.079   0.782 -2.2080 -3.0619 -0.8442
 4229TIP3    H234247   4.434   6.077   0.917 -0.2193 -1.5538  0.2407
 4230TIP3   OH234248   5.591   5.965   6.696  0.1337 -0.4996  0.3145
 4230TIP3    H134249   5.520   5.932   6.752 -0.2260  0.6391  0.5452
 4230TIP3    H234250   5.651   6.007   6.757  0.0938  0.1360 -0.0864
 4231TIP3   OH234251   6.139   0.023   0.450 -0.9319 -0.0308 -0.5746
 4231TIP3    H134252   6.216   0.079   0.450 -0.7436 -0.2877 -0.4613
 4231TIP3    H234253   6.079   0.062   0.513 -0.1189 -0.8948  0.7688
 4232TIP3   OH234254   2.485   4.896   1.376  0.0908  0.5165 -0.4969
 4232TIP3    H134255   2.558   4.916   1.317 -0.7774  0.0270 -1.7948
 4232TIP3    H234256   2.491   4.802   1.389 -1.1773  0.1988 -1.8938
 4233TIP3   OH234257   0.565   5.903   8.149  0.1097  0.4292 -0.2033
 4233TIP3    H134258   0.560   5.908   8.054  0.9983 -0.1551 -0.2969
 4233TIP3    H234259   0.558   5.994   8.179  1.4474  0.8060 -0.9343
 4234TIP3   OH234260   6.319   6.216   7.545  0.3835 -0.0773 -0.6283
 4234TIP3    H134261   6.268   6.135   7.556  1.6672 -1.0365 -1.4174
 4234TIP3    H234262   6.316   6.233   7.451  1.5454 -0.1935 -0.6981
 4235TIP3   OH234263   3.270   0.665   7.702  0.6166  0.1754 -0.4565
 4235TIP3    H134264   3.302   0.664   7.611  0.6933 -0.2006 -0.4293
 4235TIP3    H234265   3.304   0.584   7.739 -0.5916 -0.3701 -0.5064
 4236TIP3   OH234266   0.459   5.501   0.140  0.0796 -0.1985  0.5286
 4236TIP3    H134267   0.424   5.437   0.203 -1.5172  0.5812  0.4996
 4236TIP3    H234268   0.540   5.532   0.179  0.6134 -1.8123  0.8061
 4237TIP3   OH234269   3.895   6.681   8.246 -0.0271  0.3401  0.0542
 4237TIP3    H134270   3.859   6.712   8.163  2.5906  1.8747 -0.6169
 4237TIP3    H234271   3.917   6.589   8.229  2.2935  1.1277 -1.7236
 4238TIP3   OH234272   6.397   1.993   2.265 -0.1999  0.1760  0.3766
 4238TIP3    H134273   6.477   1.944   2.247 -0.3978 -0.3313  0.8430
 4238TIP3    H234274   6.336   1.968   2.196 -0.5075 -0.7261  0.9558
 4239TIP3   OH234275   4.823   2.916   2.888 -0.3367 -0.7364  0.0240
 4239TIP3    H134276   4.811   2.941   2.796  0.1629  0.9109  0.3713
 4239TIP3    H234277   4.789   2.990   2.937  3.7505  0.6726  1.1279
 4240TIP3   OH234278   4.843   6.598   1.624 -0.5776  0.2002 -0.2490
 4240TIP3    H134279   4.872   6.675   1.673  1.5748 -0.8947  0.3524
 4240TIP3    H234280   4.779   6.555   1.681 -1.6712  1.4141 -0.5223
 4241TIP3   OH234281   2.003   3.770   0.009  0.3845  0.1693 -0.8177
 4241TIP3    H134282   2.094   3.743   0.022 -0.0113 -1.3768 -1.0263
 4241TIP3    H234283   2.008   3.864  -0.009  2.0308 -0.0756 -1.8298
 4242TIP3   OH234284   4.686   0.080   0.228 -0.3678 -0.3247  0.2924
 4242TIP3    H134285   4.762   0.023   0.215 -0.8322 -1.4343  2.0679
 4242TIP3    H234286   4.714   0.166   0.197  1.7394 -0.6297  1.2016
 4243TIP3   OH234287   0.972   0.456   8.587 -0.3249  0.2137 -0.4872
 4243TIP3    H134288   0.895   0.507   8.612 -0.9010 -0.4596 -0.8495
 4243TIP3    H234289   1.034   0.520   8.552 -0.3305  0.8949  0.7007
 4244TIP3   OH234290   5.484   0.449   8.545  0.4937 -0.2176  0.4090
 4244TIP3    H134291   5.430   0.374   8.520 -1.3594  0.9410  0.7002
 4244TIP3    H234292   5.454   0.520   8.488  0.8565  0.7658  1.3940
 4245TIP3   OH234293   4.472   0.033   0.417  0.3329 -0.0836  0.1395
 4245TIP3    H134294   4.419   0.108   0.445  0.1676  0.1380 -0.7550
 4245TIP3    H234295   4.545   0.072   0.369 -0.4069 -0.5421 -1.3901
 4246TIP3   OH234296   3.770   3.741   0.129  0.1787  0.0558 -0.8310
 4246TIP3    H134297   3.708   3.667   0.131  0.0084  0.2077  0.1339
 4246TIP3    H234298   3.771   3.769   0.038  1.6642 -2.3135 -1.6316
 4247TIP3   OH234299   6.789   6.823   7.682  0.4098  0.0774 -0.1916
 4247TIP3    H134300   6.714   6.770   7.656  1.4120 -1.6136  0.2225
 4247TIP3    H234301   6.865   6.774   7.650  1.4859  0.1033  2.1429
 4248TIP3   OH234302   5.778   6.353   2.344 -0.4576  0.1750  0.2549
 4248TIP3    H134303   5.727   6.399   2.410  1.0622  1.6148  0.5234
 4248TIP3    H234304   5.761   6.260   2.359 -4.3236  0.5215 -0.8381
 4249TIP3   OH234305   1.975   1.063   1.396  0.1655 -0.4069  0.0319
 4249TIP3    H134306   2.032   1.120   1.344 -0.3826  1.7888  1.7008
 4249TIP3    H234307   2.031   0.990   1.421  1.8351  0.8737  0.2428
 4250TIP3   OH234308   0.919   1.184   0.724  0.6869 -0.6273 -0.0444
 4250TIP3    H134309   0.863   1.191   0.801  0.3527  0.0849 -0.3471
 4250TIP3    H234310   0.946   1.092   0.723 -0.8441 -1.1166 -0.1470
 4251TIP3   OH234311   2.229   2.158   1.913  0.4240 -0.0557  0.0862
 4251TIP3    H134312   2.211   2.129   1.824  0.9691  0.5089 -0.2130
 4251TIP3    H234313   2.248   2.078   1.961 -0.6396 -0.4461 -0.1152
 4252TIP3   OH234314   4.054   6.269   7.496 -0.0101 -0.2358 -0.3005
 4252TIP3    H134315   3.968   6.305   7.516 -0.1240 -0.2798 -0.6964
 4252TIP3    H234316   4.108   6.346   7.473 -0.3327 -0.3277 -1.4330
 4253TIP3   OH234317   0.882   1.746   2.118  0.3068 -0.0212  0.1121
 4253TIP3    H134318   0.947   1.683   2.087  0.9338  0.4923  0.3826
 4253TIP3    H234319   0.925   1.792   2.189 -0.5186  0.0011  0.6120
 4254TIP3   OH234320   2.623   1.932   0.954  0.0815  0.8920  0.2018
 4254TIP3    H134321   2.539   1.960   0.918 -1.1136  1.0540  2.8939
 4254TIP3    H234322   2.618   1.955   1.047  2.4297 -0.6609  0.7895
 4255TIP3   OH234323   6.753   4.415   0.211  0.1210  0.0184  0.3609
 4255TIP3    H134324   6.716   4.502   0.225  3.0065  1.5307 -0.3973
 4255TIP3    H234325   6.735   4.367   0.292 -0.9347  1.5764  1.0894
 4256TIP3   OH234326   5.111   1.274   7.124  0.0098  0.3045 -0.0749
 4256TIP3    H134327   5.105   1.253   7.030  1.8174  1.8655 -0.6202
 4256TIP3    H234328   5.205   1.278   7.141 -0.2380 -1.4958  2.2409
 4257TIP3   OH234329   6.849   6.565   1.873 -0.2323 -0.0210 -0.0930
 4257TIP3    H134330   6.838   6.643   1.927 -0.6336 -0.1851  0.0606
 4257TIP3    H234331   6.914   6.513   1.919  0.1718  0.3069 -0.2891
 4258TIP3   OH234332   2.995   2.117   3.186  0.0620  0.5524  0.0924
 4258TIP3    H134333   2.913   2.089   3.227  0.8527  1.0142  2.0812
 4258TIP3    H234334   2.968   2.175   3.114 -1.3472  0.4835  0.5406
 4259TIP3   OH234335   2.460   0.603   7.776  0.4652  0.3052  0.6355
 4259TIP3    H134336   2.549   0.576   7.756  0.3513 -0.1402  0.7113
 4259TIP3    H234337   2.415   0.522   7.799  0.2578  0.6346  1.4241
 4260TIP3   OH234338   4.925   1.113   8.465  0.0513  0.3799  0.1110
 4260TIP3    H134339   5.004   1.119   8.518 -0.0910 -0.0467  0.3740
 4260TIP3    H234340   4.926   1.024   8.429 -1.9607 -0.8723  2.7675
 4261TIP3   OH234341   2.719   5.761   8.057  0.8883 -0.3604 -0.3008
 4261TIP3    H134342   2.810   5.753   8.086  1.4255 -1.4247 -2.1219
 4261TIP3    H234343   2.668   5.720   8.127  2.0285 -1.8903 -0.3088
 4262TIP3   OH234344   1.468   5.292   8.618  0.1581 -0.2647 -0.1344
 4262TIP3    H134345   1.433   5.244   8.693  2.3221 -2.0248 -0.1604
 4262TIP3    H234346   1.409   5.271   8.546  0.1732 -1.6298  0.2369
 4263TIP3   OH234347   2.306   3.596   1.527 -0.1100 -0.4910 -0.1806
 4263TIP3    H134348   2.286   3.687   1.549  2.3896  0.2979 -0.7846
 4263TIP3    H234349   2.302   3.594   1.431 -2.4159 -1.6755 -0.1267
 4264TIP3   OH234350   0.193   0.754   7.292 -0.2064 -0.2299  0.0302
 4264TIP3    H134351   0.248   0.782   7.365 -2.0258 -0.1603  1.4578
 4264TIP3    H234352   0.177   0.661   7.308 -0.0750 -0.3849 -0.6841
 4265TIP3   OH234353   3.847   3.019   8.259  0.3256 -0.2866 -0.0690
 4265TIP3    H134354   3.893   3.079   8.318 -0.4360 -0.1291  0.3706
 4265TIP3    H234355   3.840   3.068   8.176  0.6777 -0.1999 -0.0510
 4266TIP3   OH234356   2.387   5.896   2.279 -0.7133 -0.2570 -0.0022
 4266TIP3    H134357   2.382   5.821   2.337  0.9457  0.1253  0.6974
 4266TIP3    H234358   2.396   5.971   2.338  0.6258  0.1742 -0.7144
 4267TIP3   OH234359   5.140   5.116   1.096 -0.2090  0.5729 -0.7297
 4267TIP3    H134360   5.118   5.196   1.048  1.8981  0.1726 -2.5326
 4267TIP3    H234361   5.203   5.145   1.163  0.3625  0.4863 -1.2208
 4268TIP3   OH234362   6.117   0.433   1.927  0.3539 -0.5138 -0.1138
 4268TIP3    H134363   6.206   0.436   1.892  0.0295  2.4647 -1.0142
 4268TIP3    H234364   6.060   0.452   1.852 -0.9462 -0.9180  0.7197
 4269TIP3   OH234365   1.851   5.943   7.524 -0.3555  0.6135 -0.2449
 4269TIP3    H134366   1.894   6.001   7.461 -0.7298  0.1523 -0.9392
 4269TIP3    H234367   1.923   5.904   7.574 -0.1008  1.7137  0.2777
 4270TIP3   OH234368   5.990   0.946   3.602  0.0267 -0.3325 -0.4896
 4270TIP3    H134369   6.036   1.022   3.566  1.8774 -1.5348 -0.7673
 4270TIP3    H234370   6.011   0.874   3.543  0.4757 -1.6562  1.1933
 4271TIP3   OH234371   5.478   3.814   0.894 -0.6145  0.4814  0.2533
 4271TIP3    H134372   5.506   3.769   0.973  2.0472  1.1908 -0.2002
 4271TIP3    H234373   5.417   3.754   0.852  0.4973 -1.3516  1.1627
 4272TIP3   OH234374   0.164   2.785   2.094 -0.0156 -0.1521  0.2274
 4272TIP3    H134375   0.242   2.731   2.087 -0.0815 -0.1384 -0.7631
 4272TIP3    H234376   0.169   2.824   2.181  1.0100 -0.2508  0.2171
 4273TIP3   OH234377   3.248   4.688   0.454  0.4778  0.1932 -0.7289
 4273TIP3    H134378   3.181   4.712   0.390  1.5805  2.2967 -1.1567
 4273TIP3    H234379   3.273   4.598   0.429 -0.9475  0.0111 -1.6114
 4274TIP3   OH234380   4.028   0.574   6.654 -0.9525  0.1124 -0.0067
 4274TIP3    H134381   4.079   0.576   6.735 -0.0484  1.1992 -0.5566
 4274TIP3    H234382   3.995   0.485   6.648 -1.8167  0.2434  2.0039
 4275TIP3   OH234383   5.914   3.576   1.488 -0.2518  0.2725  0.0105
 4275TIP3    H134384   5.858   3.536   1.554 -1.3126  1.4807 -0.1283
 4275TIP3    H234385   6.001   3.578   1.528 -0.6215 -0.1965  0.8476
 4276TIP3   OH234386   3.754   6.623   0.851 -0.5681 -0.6269 -0.2379
 4276TIP3    H134387   3.717   6.708   0.825  0.1111 -0.5672 -1.0365
 4276TIP3    H234388   3.848   6.636   0.846 -0.3821 -0.6955  2.0282
 4277TIP3   OH234389   5.285   0.362   8.014  0.9090  0.0912  0.7909
 4277TIP3    H134390   5.256   0.375   7.923  2.1648  2.7141  0.6655
 4277TIP3    H234391   5.204   0.368   8.065 -0.0190 -2.8136 -0.1542
 4278TIP3   OH234392   4.959   6.473   3.014 -0.1622  0.1653 -0.0377
 4278TIP3    H134393   4.875   6.510   2.986  0.0314  0.9380  0.3538
 4278TIP3    H234394   5.025   6.532   2.977  0.2094 -0.4372 -0.3470
 4279TIP3   OH234395   2.423   3.969   0.769  0.7556  0.3119  0.3956
 4279TIP3    H134396   2.405   3.880   0.800  0.7918 -0.4908 -1.7130
 4279TIP3    H234397   2.518   3.970   0.757  0.5644 -0.0638 -1.4220
 4280TIP3   OH234398   1.943   3.545   0.869  0.2771 -0.0092  0.0509
 4280TIP3    H134399   2.013   3.521   0.930  0.5784  0.4113 -0.1266
 4280TIP3    H234400   1.988   3.581   0.793 -0.1483  0.9542  0.2357
 4281TIP3   OH234401   5.764   1.268   0.268  0.2394 -0.3707  0.0513
 4281TIP3    H134402   5.747   1.298   0.179  1.9006  1.1926  0.2114
 4281TIP3    H234403   5.784   1.175   0.259 -2.9765 -1.1282 -0.7170
 4282TIP3   OH234404   2.912   5.462   1.423 -0.8843 -0.1995 -0.2589
 4282TIP3    H134405   2.916   5.529   1.491  0.4062 -0.4679 -0.0557
 4282TIP3    H234406   2.980   5.400   1.446 -1.5013 -1.1535 -0.9176
 4283TIP3   OH234407   0.827   3.034   2.632 -0.1937  0.5802  0.1566
 4283TIP3    H134408   0.874   3.112   2.664 -0.4933 -0.6213  4.1404
 4283TIP3    H234409   0.893   2.965   2.631 -0.8652 -0.1444  1.6129
 4284TIP3   OH234410   6.462   0.679   0.489 -0.2056  0.0048  0.1372
 4284TIP3    H134411   6.503   0.605   0.534  2.2966  0.4204 -1.2576
 4284TIP3    H234412   6.472   0.659   0.396 -2.7005  0.4914 -0.3083
 4285TIP3   OH234413   4.198   2.649   0.032  0.4735 -0.5318 -0.2935
 4285TIP3    H134414   4.225   2.638   0.123  2.1427  0.5605 -0.6013
 4285TIP3    H234415   4.280   2.645  -0.018 -0.1836  0.6189 -1.5547
 4286TIP3   OH234416   4.695   6.314   1.375 -0.4695  0.4354 -0.1199
 4286TIP3    H134417   4.670   6.280   1.462  2.9012 -0.9023  0.4990
 4286TIP3    H234418   4.777   6.361   1.391  1.1218 -1.2303 -2.7480
 4287TIP3   OH234419   2.509   1.778   0.259 -0.0589  0.8807 -0.1780
 4287TIP3    H134420   2.571   1.806   0.191  1.0972 -1.2994 -0.0917
 4287TIP3    H234421   2.436   1.739   0.211  1.4857 -2.1577 -0.2858
 4288TIP3   OH234422   0.511   0.430   2.292  1.1000 -0.0712  0.0745
 4288TIP3    H134423   0.458   0.351   2.305  0.9251  0.0227 -0.0535
 4288TIP3    H234424   0.447   0.501   2.290  1.1725 -0.0146 -0.6670
 4289TIP3   OH234425   2.812   2.037   7.488 -0.1414  0.0847 -0.2820
 4289TIP3    H134426   2.833   2.038   7.395 -0.5802  1.7590 -0.3853
 4289TIP3    H234427   2.717   2.029   7.491 -0.2081  0.9267 -0.0045
 4290TIP3   OH234428   2.030   4.228   1.488 -0.9023  0.2274 -0.1922
 4290TIP3    H134429   1.993   4.143   1.466  0.4841 -0.4642  0.0689
 4290TIP3    H234430   2.059   4.264   1.405 -0.1344 -0.2276 -0.1314
 4291TIP3   OH234431   1.999   6.499   2.150  0.0958 -0.0241  0.2641
 4291TIP3    H134432   1.928   6.563   2.147 -0.0498 -0.0627  2.0221
 4291TIP3    H234433   2.078   6.551   2.162  0.4082  0.0192 -1.7130
 4292TIP3   OH234434   2.296   3.499   7.932 -0.2114 -0.0457 -0.0667
 4292TIP3    H134435   2.244   3.492   7.851  0.9121 -3.4887 -0.6431
 4292TIP3    H234436   2.386   3.503   7.902  0.1504  0.0288  1.0014
 4293TIP3   OH234437   3.152   5.444   1.712 -0.0664 -0.1405  0.1624
 4293TIP3    H134438   3.213   5.514   1.692  0.1811 -0.5638 -0.6159
 4293TIP3    H234439   3.084   5.486   1.765  0.0856  0.6811 -0.2703
 4294TIP3   OH234440   1.579   3.673   2.977 -0.1843  0.3403  0.4229
 4294TIP3    H134441   1.667   3.637   2.990 -0.7681 -0.6745  1.9054
 4294TIP3    H234442   1.545   3.684   3.066 -0.4021  3.8131  0.0556
 4295TIP3   OH234443   3.739   6.666   1.353 -0.4054  0.0328  0.2736
 4295TIP3    H134444   3.720   6.625   1.268  0.9290  1.4572 -0.7935
 4295TIP3    H234445   3.722   6.598   1.417 -1.3330 -1.1465 -1.1573
 4296TIP3   OH234446   5.552   2.483   8.544  0.4354  0.2263  0.3786
 4296TIP3    H134447   5.548   2.423   8.619  1.6288 -1.5740 -0.9346
 4296TIP3    H234448   5.583   2.566   8.582  2.2847 -0.9959  1.7018
 4297TIP3   OH234449   1.242   2.390   0.388 -0.6410 -0.4697 -0.3453
 4297TIP3    H134450   1.175   2.337   0.344 -1.1828 -1.0521  1.1087
 4297TIP3    H234451   1.201   2.417   0.470 -0.2271  1.9206 -0.8567
 4298TIP3   OH234452   3.146   3.672   1.028  0.7347 -0.0478 -0.7741
 4298TIP3    H134453   3.075   3.641   0.972  1.0227  1.4409 -2.0581
 4298TIP3    H234454   3.194   3.593   1.052 -1.8035 -1.2097  0.8739
 4299TIP3   OH234455   3.058   4.180   8.579  0.1835  0.2777  0.3902
 4299TIP3    H134456   3.059   4.275   8.574 -0.6883  0.3515  1.3122
 4299TIP3    H234457   2.983   4.154   8.525 -0.0889  0.1740  0.8133
 4300TIP3   OH234458   2.847   6.698   6.894 -0.2235 -0.2378 -0.3061
 4300TIP3    H134459   2.829   6.788   6.867  1.6151  0.4482  0.5331
 4300TIP3    H234460   2.890   6.659   6.818 -0.0489 -0.0385 -0.3146
 4301TIP3   OH234461   3.342   1.117   2.499  0.2646 -0.2864  0.0396
 4301TIP3    H134462   3.397   1.121   2.420  2.8393 -0.8321  1.6910
 4301TIP3    H234463   3.332   1.208   2.526  1.4626 -0.2440  0.3954
 4302TIP3   OH234464   6.505   0.328   8.542  0.1108 -0.5182 -0.0971
 4302TIP3    H134465   6.496   0.270   8.617 -0.0131 -2.4927 -1.5501
 4302TIP3    H234466   6.585   0.299   8.498  1.2355  1.8181  0.2175
 4303TIP3   OH234467   4.575   3.018   0.451  0.4493 -0.1283 -0.1010
 4303TIP3    H134468   4.583   2.945   0.513  1.4687  0.5959  0.6510
 4303TIP3    H234469   4.660   3.063   0.456  0.1802  0.5439 -1.2726
 4304TIP3   OH234470   6.642   6.609   2.469  0.0877 -0.2601  0.0952
 4304TIP3    H134471   6.737   6.614   2.474 -0.0152  1.4963  1.5709
 4304TIP3    H234472   6.614   6.699   2.454 -1.3578 -0.6700  0.1464
 4305TIP3   OH234473   2.666   2.160   7.868 -0.1714  0.0114 -0.4675
 4305TIP3    H134474   2.644   2.105   7.793  0.2155 -1.3625  0.3962
 4305TIP3    H234475   2.761   2.171   7.863  0.1575 -1.8186  0.9266
 4306TIP3   OH234476   2.562   3.805   8.197  0.2770 -0.1618 -0.6031
 4306TIP3    H134477   2.575   3.710   8.199  0.4872 -0.1142  1.0333
 4306TIP3    H234478   2.648   3.841   8.218 -0.3460  0.3234  1.2342
 4307TIP3   OH234479   6.513   1.263   7.398  0.5034  0.3690 -0.2738
 4307TIP3    H134480   6.466   1.316   7.333  2.0746  1.3908 -0.6532
 4307TIP3    H234481   6.519   1.176   7.359  0.4104  0.6705 -0.9720
 4308TIP3   OH234482   3.902   0.067   0.834 -0.6122 -0.9612 -0.1774
 4308TIP3    H134483   3.883   0.095   0.924  1.1610 -1.3684  0.3653
 4308TIP3    H234484   3.929  -0.025   0.844 -2.0757 -1.5519 -1.3627
 4309TIP3   OH234485   6.286   0.340   7.679  0.0364  0.7686 -1.0233
 4309TIP3    H134486   6.286   0.422   7.631  0.0122  1.2760 -0.1755
 4309TIP3    H234487   6.281   0.366   7.771  1.3265 -0.1234 -0.6715
 4310TIP3   OH234488   5.845   2.506   0.299 -0.2542  0.7905 -0.0706
 4310TIP3    H134489   5.856   2.560   0.377 -0.2368  0.2480  0.3068
 4310TIP3    H234490   5.932   2.500   0.260 -0.0838  0.3387  0.3594
 4311TIP3   OH234491   6.031   6.693   8.433 -0.1143 -0.2267  0.5119
 4311TIP3    H134492   5.977   6.637   8.377 -0.9487 -1.2940  2.2731
 4311TIP3    H234493   6.098   6.635   8.468  3.7266  1.4639 -3.1883
 4312TIP3   OH234494   2.971   3.079   7.243 -0.3772  0.4069  0.2849
 4312TIP3    H134495   2.988   2.993   7.281 -1.8511  0.1789  0.4932
 4312TIP3    H234496   3.056   3.110   7.213 -0.0576 -1.8939 -1.4444
 4313TIP3   OH234497   1.965   2.330   1.704  0.1700 -0.5714 -0.2911
 4313TIP3    H134498   1.910   2.404   1.680  0.7022  0.2362  0.8991
 4313TIP3    H234499   1.964   2.273   1.627  0.2561  0.9614 -1.4676
 4314TIP3   OH234500   1.481   6.856   0.068  0.1290  0.2156 -0.1585
 4314TIP3    H134501   1.406   6.913   0.082  0.5858  1.0762 -1.1142
 4314TIP3    H234502   1.452   6.794   0.001  0.0560  0.1487 -0.0644
 4315TIP3   OH234503   3.875   1.237   8.039 -0.0813  0.1388 -0.3920
 4315TIP3    H134504   3.803   1.275   8.088  1.1281  1.3483  0.5470
 4315TIP3    H234505   3.904   1.163   8.092 -0.6053 -0.3253 -0.7521
 4316TIP3   OH234506   6.644   0.778   0.990 -0.2072  0.5718  0.1221
 4316TIP3    H134507   6.668   0.829   0.912  0.1616  0.5253  0.2072
 4316TIP3    H234508   6.691   0.696   0.980  0.6590  0.9628  0.9118
 4317TIP3   OH234509   3.606   2.036   1.193  0.3826 -0.5936  0.1890
 4317TIP3    H134510   3.571   2.101   1.132  0.7490 -0.7219 -0.1616
 4317TIP3    H234511   3.595   1.952   1.147 -2.0051 -1.0800  1.4474
 4318TIP3   OH234512   1.841   4.192   0.582 -0.1411 -1.0183 -0.2603
 4318TIP3    H134513   1.776   4.167   0.647  0.0162 -0.8637 -0.0397
 4318TIP3    H234514   1.804   4.271   0.541  0.4808 -0.1822  0.7486
 4319TIP3   OH234515   0.233   5.745   8.087 -0.3499 -0.1108  0.0637
 4319TIP3    H134516   0.266   5.722   8.174 -0.1230 -0.5891 -0.1444
 4319TIP3    H234517   0.245   5.840   8.081 -1.3821  0.1032  0.9689
 4320TIP3   OH234518   0.251   6.854   7.291  0.3614  0.0407  0.3201
 4320TIP3    H134519   0.258   6.922   7.225 -1.0671 -0.2063 -0.1265
 4320TIP3    H234520   0.304   6.782   7.258 -1.2089 -0.5059 -1.1598
 4321TIP3   OH234521   0.904   3.021   8.335 -0.0662 -0.0207 -0.8745
 4321TIP3    H134522   0.909   3.028   8.431 -1.1975  0.3332 -0.8164
 4321TIP3    H234523   0.907   3.112   8.304  1.7698 -0.1868 -1.3022
 4322TIP3   OH234524   4.936   6.834   0.213  0.1932 -0.0212 -0.1861
 4322TIP3    H134525   4.991   6.788   0.276 -1.6743 -1.4387  0.4975
 4322TIP3    H234526   4.922   6.771   0.142 -0.2348  0.4450 -0.5295
 4323TIP3   OH234527   4.510   0.390   1.051 -0.2555  0.1769 -0.7150
 4323TIP3    H134528   4.599   0.419   1.032 -0.2119 -0.2908 -1.2385
 4323TIP3    H234529   4.474   0.459   1.106  0.6364  0.0846  0.0257
 4324TIP3   OH234530   2.417   3.517   2.848  0.7475  0.1881  0.1212
 4324TIP3    H134531   2.495   3.563   2.818 -0.0810  1.2486 -0.4583
 4324TIP3    H234532   2.377   3.575   2.913  0.3796 -0.2777  0.3191
 4325TIP3   OH234533   1.604   6.351   0.838  0.2954 -0.1368 -0.4525
 4325TIP3    H134534   1.665   6.390   0.901  0.7204 -0.7119 -0.5041
 4325TIP3    H234535   1.562   6.427   0.796 -0.2041  0.2583  0.7043
 4326TIP3   OH234536   0.968   4.878   1.085  0.4468 -0.2797 -0.2237
 4326TIP3    H134537   0.974   4.964   1.126 -1.2917 -0.7189  1.0868
 4326TIP3    H234538   0.972   4.816   1.158  1.1738 -1.3096 -1.1033
 4327TIP3   OH234539   2.624   4.958   7.783  0.6220 -0.3624  0.1982
 4327TIP3    H134540   2.550   5.011   7.814  0.7088 -0.0179 -0.1682
 4327TIP3    H234541   2.620   4.966   7.688 -0.0862 -2.0093  0.0707
 4328TIP3   OH234542   3.368   3.915   7.615  0.2944  0.3006 -0.1051
 4328TIP3    H134543   3.315   3.857   7.561  0.6170  0.3135 -0.4402
 4328TIP3    H234544   3.354   4.003   7.578 -0.5437  0.5065  0.6789
 4329TIP3   OH234545   2.547   4.880   8.475 -0.1912 -0.4673 -0.1228
 4329TIP3    H134546   2.517   4.791   8.457  1.5186 -1.1110  0.0178
 4329TIP3    H234547   2.588   4.875   8.561 -0.6704  0.6288  0.1912
 4330TIP3   OH234548   5.268   6.695   0.009  0.2276  0.4334 -0.4185
 4330TIP3    H134549   5.204   6.638  -0.034  0.1586 -0.8244  1.2466
 4330TIP3    H234550   5.227   6.781   0.010 -0.3109  0.2029 -1.6839
 4331TIP3   OH234551   5.281   5.084   2.805 -0.0763 -0.2391 -0.1712
 4331TIP3    H134552   5.277   5.142   2.881 -0.6041  0.1126 -0.4650
 4331TIP3    H234553   5.219   5.121   2.742 -1.4896 -1.8974  0.1818
 4332TIP3   OH234554   4.286   2.626   6.999 -0.5517  0.3516 -0.4866
 4332TIP3    H134555   4.197   2.655   7.018 -0.0140  1.1922  0.8620
 4332TIP3    H234556   4.279   2.532   6.986 -1.4774  0.2492  0.6963
 4333TIP3   OH234557   0.392   0.064   0.945  0.9015  0.4207  0.4474
 4333TIP3    H134558   0.348   0.149   0.943 -0.5238 -0.2828 -0.5863
 4333TIP3    H234559   0.453   0.069   1.019 -1.3643  1.2848  2.3831
 4334TIP3   OH234560   4.346   3.906   7.872  0.6469 -0.0042  0.1234
 4334TIP3    H134561   4.422   3.964   7.875 -0.0281  0.9036  0.4246
 4334TIP3    H234562   4.315   3.901   7.962  1.1192 -1.4531  0.2303
 4335TIP3   OH234563   0.700   5.723   3.023 -0.2037 -0.2028  0.6948
 4335TIP3    H134564   0.794   5.719   3.004 -0.4141 -0.1951 -0.4081
 4335TIP3    H234565   0.665   5.784   2.958 -1.1470 -1.1051  0.3278
 4336TIP3   OH234566   2.478   4.391   7.500  0.4546  0.2452 -0.4300
 4336TIP3    H134567   2.394   4.354   7.526  0.3469  0.4424 -0.4943
 4336TIP3    H234568   2.540   4.318   7.506  0.9006  0.7385  2.5562
 4337TIP3   OH234569   0.265   0.180   7.509 -0.2315 -0.1755  0.1429
 4337TIP3    H134570   0.337   0.122   7.483  2.1045  3.0064 -1.2745
 4337TIP3    H234571   0.229   0.211   7.426 -1.5222  0.2499  0.8440
 4338TIP3   OH234572   2.212   5.256   7.009  0.0902  0.5109 -0.4326
 4338TIP3    H134573   2.152   5.311   6.958  2.7942  1.8621 -2.4042
 4338TIP3    H234574   2.269   5.216   6.943 -0.2455 -2.8983  1.1300
 4339TIP3   OH234575   4.520   5.392   2.108 -0.3352 -0.5898 -0.1052
 4339TIP3    H134576   4.612   5.382   2.132  0.1931 -0.3588 -1.8781
 4339TIP3    H234577   4.509   5.486   2.094 -0.9362 -0.5755  0.4118
 4340TIP3   OH234578   1.397   1.417   8.275 -0.4069 -0.1140 -0.3299
 4340TIP3    H134579   1.450   1.347   8.313 -2.7908 -0.7345  2.1789
 4340TIP3    H234580   1.334   1.372   8.219 -0.1267  0.3293 -1.0109
 4341TIP3   OH234581   3.240   0.323   6.843  0.2417 -0.2368 -0.7325
 4341TIP3    H134582   3.304   0.271   6.892  1.7093  1.3387 -0.8942
 4341TIP3    H234583   3.251   0.412   6.876 -2.5443 -0.0294 -0.1105
 4342TIP3   OH234584   4.093   6.428   1.313 -0.4020 -0.6189 -0.2759
 4342TIP3    H134585   4.160   6.380   1.264  1.2886  0.7554  0.5574
 4342TIP3    H234586   4.086   6.381   1.397 -0.3200 -0.6360 -0.2785
 4343TIP3   OH234587   5.269   0.077   7.796 -0.2142  0.2157 -0.3025
 4343TIP3    H134588   5.252  -0.011   7.764 -0.5545  0.5806 -1.1643
 4343TIP3    H234589   5.249   0.134   7.722 -0.9349  1.0905  0.5390
 4344TIP3   OH234590   6.531   6.677   8.115 -0.1423  0.2934 -0.3436
 4344TIP3    H134591   6.622   6.647   8.118 -0.3112 -0.1828  0.2144
 4344TIP3    H234592   6.492   6.630   8.041 -0.4621 -1.0734  0.6526
 4345TIP3   OH234593   1.657   4.122   0.294  0.5232 -0.3741 -0.0128
 4345TIP3    H134594   1.676   4.105   0.202  0.7490 -0.2135  0.0046
 4345TIP3    H234595   1.642   4.216   0.299  0.2693 -0.4183  0.0719
 4346TIP3   OH234596   5.604   5.492   1.679  0.3328 -0.1286 -0.2103
 4346TIP3    H134597   5.529   5.478   1.622  1.2632 -1.0213 -1.2476
 4346TIP3    H234598   5.627   5.405   1.711  1.9110 -0.1201 -1.2032
 4347TIP3   OH234599   6.271   2.366   8.378 -0.1873  0.3252  0.6698
 4347TIP3    H134600   6.189   2.333   8.341 -1.5032 -0.9674  4.3220
 4347TIP3    H234601   6.312   2.290   8.419  2.0371  1.2952  0.3962
 4348TIP3   OH234602   6.020   3.763   8.422  0.0895 -0.4284  0.4178
 4348TIP3    H134603   5.956   3.761   8.351  0.8864 -1.8606 -0.3030
 4348TIP3    H234604   6.079   3.834   8.398  0.6056 -1.1769 -0.6046
 4349TIP3   OH234605   5.174   3.589   1.195  0.0630  0.5104  0.5004
 4349TIP3    H134606   5.193   3.581   1.288  0.7213 -0.2457  0.3176
 4349TIP3    H234607   5.212   3.673   1.169  1.9388 -0.2952  0.4576
 4350TIP3   OH234608   4.499   5.254   0.147 -0.5790  0.2642 -0.0854
 4350TIP3    H134609   4.525   5.292   0.231  1.6416 -0.2108 -0.4979
 4350TIP3    H234610   4.557   5.294   0.083 -0.0278 -1.7228 -0.9194
 4351TIP3   OH234611   3.754   1.312   0.432 -0.8198  0.2244 -0.2350
 4351TIP3    H134612   3.693   1.252   0.388 -0.7556  0.2008 -0.2927
 4351TIP3    H234613   3.829   1.317   0.372 -0.5022 -0.2204  0.1195
 4352TIP3   OH234614   1.912   2.687   0.181  0.6466  0.1667 -0.2483
 4352TIP3    H134615   1.970   2.683   0.105 -0.4127  1.1085 -1.1512
 4352TIP3    H234616   1.945   2.619   0.240  1.6664 -0.4074 -1.4238
 4353TIP3   OH234617   4.168   0.350   8.001 -0.3973  0.0018 -0.1582
 4353TIP3    H134618   4.195   0.269   8.045 -1.8614 -0.3360  0.1947
 4353TIP3    H234619   4.078   0.332   7.974  0.3027  0.3195 -2.9989
 4354TIP3   OH234620   4.018   4.133   8.432 -0.4051  0.1080  0.1417
 4354TIP3    H134621   4.038   4.208   8.488  1.4077  0.6321 -1.1446
 4354TIP3    H234622   4.098   4.081   8.431 -0.5590 -0.1546 -1.5247
 4355TIP3   OH234623   0.817   4.388   8.357  0.6620 -0.2199 -0.3386
 4355TIP3    H134624   0.742   4.352   8.403 -0.2543  2.4589  0.4854
 4355TIP3    H234625   0.882   4.405   8.425  1.0972 -0.3611 -0.7108
 4356TIP3   OH234626   4.834   2.434   8.475  0.0656  0.2503  0.4398
 4356TIP3    H134627   4.922   2.450   8.510  0.4678 -1.1814  0.1594
 4356TIP3    H234628   4.799   2.521   8.458  0.8923  0.8973  1.8664
 4357TIP3   OH234629   0.634   3.155   0.306 -0.3769  0.0682  0.0553
 4357TIP3    H134630   0.681   3.107   0.375 -1.6740  0.8279  1.5215
 4357TIP3    H234631   0.700   3.170   0.239  1.1998  0.0930  1.5295
 4358TIP3   OH234632   1.647   3.136   1.948 -0.1704 -0.2209  0.3221
 4358TIP3    H134633   1.718   3.201   1.948 -0.0450 -0.3548 -0.2604
 4358TIP3    H234634   1.570   3.184   1.918 -0.3606 -0.0520  1.0458
 4359TIP3   OH234635   0.286   6.488   1.044 -0.3406  0.3344 -0.1336
 4359TIP3    H134636   0.213   6.440   1.004  0.1729 -0.4377 -0.1678
 4359TIP3    H234637   0.358   6.425   1.046  0.7734  1.4707 -1.4000
 4360TIP3   OH234638   2.261   6.150   7.446  0.6157 -0.1313 -0.1067
 4360TIP3    H134639   2.226   6.062   7.464  2.5437 -0.6713  1.4069
 4360TIP3    H234640   2.354   6.135   7.427  0.7931  1.5188 -0.7032
 4361TIP3   OH234641   1.476   5.323   7.674  0.1709  0.9331  0.4783
 4361TIP3    H134642   1.438   5.331   7.761 -0.1837  0.8676  0.3317
 4361TIP3    H234643   1.570   5.333   7.688  0.0982  1.1236  0.8394
 4362TIP3   OH234644   2.509   4.335   8.139 -0.5511  0.5147  0.2683
 4362TIP3    H134645   2.476   4.424   8.137 -0.9171  0.3754 -0.4866
 4362TIP3    H234646   2.604   4.344   8.146 -0.6951  0.9212  2.3327
 4363TIP3   OH234647   6.218   3.494   7.633  0.2564  0.0074  0.7309
 4363TIP3    H134648   6.140   3.458   7.590 -1.4826  2.6178  1.4592
 4363TIP3    H234649   6.262   3.544   7.564  1.1726 -1.1955  0.4058
 4364TIP3   OH234650   1.212   0.290   0.285  0.3434 -0.5116 -0.4180
 4364TIP3    H134651   1.206   0.260   0.194 -0.7719 -1.2410 -0.1279
 4364TIP3    H234652   1.123   0.281   0.319  0.4673  0.9661  0.3772
 4365TIP3   OH234653   1.864   1.814   8.426 -0.1697  0.0836  0.2614
 4365TIP3    H134654   1.777   1.816   8.463  0.5162 -0.8395  2.0509
 4365TIP3    H234655   1.910   1.747   8.477  1.5841  0.5512 -0.6252
 4366TIP3   OH234656   1.880   4.980   7.968  0.4596 -0.2274  0.3992
 4366TIP3    H134657   1.911   5.055   8.018 -0.9578  0.1844  0.7120
 4366TIP3    H234658   1.875   4.909   8.031  0.0265 -0.0820  0.5336
 4367TIP3   OH234659   0.844   1.009   7.833  0.4718  0.3240 -0.1225
 4367TIP3    H134660   0.939   0.997   7.842  0.6529  2.0506  0.4785
 4367TIP3    H234661   0.834   1.086   7.778 -0.5675  0.8299  0.7342
 4368TIP3   OH234662   0.030   6.537   1.614 -0.0960 -0.0548 -0.2884
 4368TIP3    H134663  -0.000   6.571   1.697 -0.0512  0.0588 -0.3190
 4368TIP3    H234664   0.126   6.539   1.620 -0.0924 -0.2588 -0.2548
 4369TIP3   OH234665   2.621   2.919   0.185 -0.2311 -0.2577  0.0180
 4369TIP3    H134666   2.675   2.979   0.237 -1.4948  0.3506  0.6742
 4369TIP3    H234667   2.642   2.940   0.094  0.1497  0.4311  0.2589
 4370TIP3   OH234668   2.556   0.792   7.118 -0.2074 -0.1626  0.2671
 4370TIP3    H134669   2.488   0.724   7.109  0.7977 -1.0820 -0.8512
 4370TIP3    H234670   2.514   0.872   7.087 -1.0554 -0.5221  0.4499
 4371TIP3   OH234671   5.918   1.211   2.120 -0.1310  0.0198 -0.1473
 4371TIP3    H134672   5.908   1.186   2.028 -0.8647  0.8631 -0.2974
 4371TIP3    H234673   5.829   1.213   2.155 -0.0020  1.3887  0.1337
 4372TIP3   OH234674   1.018   4.834   8.152  0.3715  0.2331  0.1222
 4372TIP3    H134675   0.943   4.816   8.207  1.0494 -2.2231  0.3861
 4372TIP3    H234676   1.093   4.835   8.212  0.8418 -0.1363 -0.4338
 4373TIP3   OH234677   6.205   5.428   2.309 -0.2261 -0.5695 -0.7025
 4373TIP3    H134678   6.208   5.332   2.304 -1.2465 -0.6561  0.0103
 4373TIP3    H234679   6.147   5.446   2.382  0.3561  0.6077 -0.5133
 4374TIP3   OH234680   0.512   5.033   2.230 -0.0893 -0.7332 -0.1848
 4374TIP3    H134681   0.430   4.991   2.256 -1.8248  1.5473 -1.6177
 4374TIP3    H234682   0.578   4.991   2.285 -2.1344 -2.8223  0.8873
 4375TIP3   OH234683   4.766   3.027   2.252  0.2243  0.0239  0.2096
 4375TIP3    H134684   4.833   3.081   2.209  0.4078  0.1898  0.6893
 4375TIP3    H234685   4.739   3.080   2.328 -1.6034  0.6797 -0.8333
 4376TIP3   OH234686   2.417   3.310   0.887 -0.0930 -0.5286  0.1209
 4376TIP3    H134687   2.428   3.332   0.794  1.0793 -1.1669  0.0994
 4376TIP3    H234688   2.358   3.235   0.887 -1.5665  0.5740  0.0212
 4377TIP3   OH234689   4.184   2.659   7.955  0.6226  0.2119  1.0843
 4377TIP3    H134690   4.146   2.583   8.000  0.1181  0.0413  0.3980
 4377TIP3    H234691   4.114   2.689   7.896  0.7150  1.3831  1.5470
 4378TIP3   OH234692   3.769   5.132   0.605 -0.3940  0.0077  0.2781
 4378TIP3    H134693   3.727   5.218   0.610 -2.2580 -0.7967 -0.4036
 4378TIP3    H234694   3.855   5.145   0.645 -0.3566  2.3244 -0.3685
 4379TIP3   OH234695   3.607   2.009   2.507 -0.6124  0.2256 -0.0355
 4379TIP3    H134696   3.653   1.934   2.468 -1.2431 -0.6800  0.9361
 4379TIP3    H234697   3.674   2.077   2.512 -0.0119 -0.2761 -0.8760
 4380TIP3   OH234698   1.933   1.997   0.053 -0.0538  0.1361  0.6120
 4380TIP3    H134699   1.980   2.018   0.133 -0.6849 -0.5256  1.1709
 4380TIP3    H234700   1.862   2.061   0.049 -1.0733 -0.9126  1.5193
 4381TIP3   OH234701   5.805   3.258   8.145 -0.3775  0.0460 -0.9056
 4381TIP3    H134702   5.714   3.230   8.134 -0.8286  1.3476 -0.5905
 4381TIP3    H234703   5.809   3.296   8.232  0.8116 -1.1666 -0.3817
 4382TIP3   OH234704   2.770   4.828   1.725  0.1650  0.4951  0.1744
 4382TIP3    H134705   2.803   4.765   1.788  0.0193 -0.9000 -1.0809
 4382TIP3    H234706   2.729   4.897   1.778  1.2837  0.1006  1.6055
 4383TIP3   OH234707   6.507   3.200   0.306 -0.1632 -0.0267  0.0451
 4383TIP3    H134708   6.454   3.204   0.227  0.0351  0.2530 -0.0784
 4383TIP3    H234709   6.512   3.291   0.336 -0.1486 -0.1159  0.3198
 4384TIP3   OH234710   5.085   6.590   8.121 -0.2973  0.1524 -0.2730
 4384TIP3    H134711   5.082   6.644   8.200 -0.3123  0.8559 -0.7465
 4384TIP3    H234712   5.062   6.650   8.050 -2.1688 -0.8981 -0.6201
 4385TIP3   OH234713   3.539   4.730   7.327 -0.0323 -0.1842  0.3564
 4385TIP3    H134714   3.601   4.766   7.263 -1.1608  0.6970 -0.2822
 4385TIP3    H234715   3.570   4.641   7.344  1.5619  0.3228  0.2788
 4386TIP3   OH234716   4.876   3.262   7.836 -0.4957  0.1785  0.2108
 4386TIP3    H134717   4.799   3.246   7.890  0.4308  1.1615  1.8853
 4386TIP3    H234718   4.852   3.337   7.782 -0.4550  0.9877  1.2955
 4387TIP3   OH234719   3.862   4.871   0.137 -0.0711 -0.6977  0.2587
 4387TIP3    H134720   3.930   4.873   0.204  1.3482  1.5402 -1.1095
 4387TIP3    H234721   3.813   4.953   0.150 -0.6113 -0.8636 -0.6155
 4388TIP3   OH234722   3.144   3.031   2.466  0.0374 -0.0061 -0.0971
 4388TIP3    H134723   3.219   2.977   2.490  0.2402 -0.2929 -1.3281
 4388TIP3    H234724   3.080   3.014   2.536  0.4457 -1.1309  0.0318
 4389TIP3   OH234725   3.648   5.746   8.220  0.2414  0.1050 -0.4897
 4389TIP3    H134726   3.743   5.759   8.213  0.3981  0.4039  1.7040
 4389TIP3    H234727   3.619   5.740   8.129  2.3097  0.3101 -1.2306
 4390TIP3   OH234728   3.543   1.570   1.346  0.0137 -0.5297 -0.1463
 4390TIP3    H134729   3.532   1.548   1.254 -0.0039  0.3904 -0.3760
 4390TIP3    H234730   3.634   1.600   1.353 -0.2991  0.4337 -0.0941
 4391TIP3   OH234731   0.101   6.649   8.374 -0.0496  0.2271 -0.2557
 4391TIP3    H134732   0.174   6.664   8.433  1.1114 -0.1984 -1.5345
 4391TIP3    H234733   0.137   6.596   8.304 -1.1975  1.3019 -1.7309
 4392TIP3   OH234734   0.437   1.968   1.985  0.4373 -0.2804  0.3788
 4392TIP3    H134735   0.438   2.010   2.071 -0.2412  0.0169  0.2429
 4392TIP3    H234736   0.410   1.878   2.002  0.9269 -0.3973  0.5504
 4393TIP3   OH234737   1.890   0.179   1.968  0.1677  0.1748  0.7082
 4393TIP3    H134738   1.974   0.163   1.924  0.9235 -0.3638  2.2658
 4393TIP3    H234739   1.827   0.124   1.921  1.5694 -2.9283  2.2249
 4394TIP3   OH234740   3.383   3.543   2.175 -0.1924  0.4514  0.3892
 4394TIP3    H134741   3.416   3.591   2.251 -0.5622  3.3250 -1.1241
 4394TIP3    H234742   3.291   3.528   2.194 -0.0198  0.1385  0.9874
 4395TIP3   OH234743   2.883   4.089   7.247  0.2169  0.1827 -0.2940
 4395TIP3    H134744   2.864   4.062   7.157  1.6311  0.0407 -0.5731
 4395TIP3    H234745   2.976   4.070   7.258  0.0583  0.2191  1.2018
 4396TIP3   OH234746   4.715   2.441   0.722 -0.8067 -0.3553 -0.1259
 4396TIP3    H134747   4.776   2.392   0.667  0.5086  0.5535  0.4971
 4396TIP3    H234748   4.630   2.400   0.705 -0.1066 -1.3725 -1.3205
 4397TIP3   OH234749   2.020   5.654   6.940  0.1123  0.5907 -0.3680
 4397TIP3    H134750   2.083   5.687   7.004  0.2131 -0.9515  0.3834
 4397TIP3    H234751   2.025   5.716   6.868  3.2321  0.0480 -0.7862
 4398TIP3   OH234752   2.568   4.237   0.529 -0.8832  0.1596 -0.3833
 4398TIP3    H134753   2.601   4.316   0.486  0.1446  1.1541  2.0471
 4398TIP3    H234754   2.481   4.262   0.561 -1.2842 -0.2911 -1.0961
 4399TIP3   OH234755   4.530   1.034   1.167  0.2998  0.7492  0.0670
 4399TIP3    H134756   4.453   1.076   1.204  0.8161  0.6519  1.3204
 4399TIP3    H234757   4.496   0.960   1.117 -0.4795  1.3751 -0.3414
 4400TIP3   OH234758   2.363   4.898   0.131 -0.1503  0.4593  0.4824
 4400TIP3    H134759   2.332   4.814   0.165 -0.5979  0.2731 -0.3649
 4400TIP3    H234760   2.457   4.885   0.117 -0.4968 -0.4787 -1.2460
 4401TIP3   OH234761   3.501   5.735   0.804  0.3761 -0.3486  0.3018
 4401TIP3    H134762   3.467   5.795   0.738  1.1212  2.2142  2.1113
 4401TIP3    H234763   3.424   5.695   0.844 -0.0991 -1.3618 -1.5003
 4402TIP3   OH234764   6.145   2.291   2.047  0.1766  0.3602  0.5469
 4402TIP3    H134765   6.067   2.242   2.073  1.0026  0.3818  3.4668
 4402TIP3    H234766   6.217   2.230   2.057  0.8764  1.2505  1.1581
 4403TIP3   OH234767   4.009   2.671   0.700  0.5299 -0.1565 -0.4552
 4403TIP3    H134768   4.006   2.593   0.644 -1.8487 -0.5948  0.1729
 4403TIP3    H234769   3.951   2.734   0.658 -1.0057 -0.3588  1.1971
 4404TIP3   OH234770   1.425   2.839   2.943  0.1555  0.0306  0.1476
 4404TIP3    H134771   1.456   2.753   2.970 -1.0456 -0.5007 -0.0821
 4404TIP3    H234772   1.345   2.852   2.995 -0.6500  0.2161 -1.1011
 4405TIP3   OH234773   5.672   1.375   8.342 -0.1143 -0.1658  0.2735
 4405TIP3    H134774   5.577   1.363   8.351 -0.1561  0.4601  0.7680
 4405TIP3    H234775   5.683   1.419   8.258 -0.3804  0.9549  0.8112
 4406TIP3   OH234776   4.830   0.118   7.032 -0.4326 -0.0832  0.0959
 4406TIP3    H134777   4.905   0.176   7.048 -1.5354  0.9430  1.8943
 4406TIP3    H234778   4.756   0.163   7.073 -2.1786 -0.8006 -2.0763
 4407TIP3   OH234779   2.868   3.841   0.255 -0.1452 -0.2560  0.5818
 4407TIP3    H134780   2.948   3.797   0.226  0.2370  0.0926  1.0802
 4407TIP3    H234781   2.799   3.805   0.200  0.5918  0.5933 -0.9452
 4408TIP3   OH234782   0.847   1.254   7.716 -0.0815  0.0073 -0.0560
 4408TIP3    H134783   0.889   1.255   7.630  0.2985  0.8502  0.1311
 4408TIP3    H234784   0.761   1.293   7.700 -0.1574 -0.1840 -0.1212
 4409TIP3   OH234785   2.210   4.338   2.355  0.2633  0.5112  0.0159
 4409TIP3    H134786   2.260   4.271   2.401  1.1137  1.4202  0.4558
 4409TIP3    H234787   2.151   4.374   2.421  2.2170  2.5506  0.7906
 4410TIP3   OH234788   2.217   1.672   7.125 -0.5521  0.0278  0.3583
 4410TIP3    H134789   2.131   1.631   7.137 -1.1119 -0.9949 -4.9197
 4410TIP3    H234790   2.203   1.764   7.146 -2.0382 -0.5883  2.4430
 4411TIP3   OH234791   3.992   0.783   1.716  0.0022  0.2639 -0.0515
 4411TIP3    H134792   4.032   0.827   1.641  0.4979 -1.0991 -0.6096
 4411TIP3    H234793   4.065   0.742   1.762 -0.5543 -0.8503 -0.1371
 4412TIP3   OH234794   2.280   5.548   1.648  0.8549 -0.0765  0.5822
 4412TIP3    H134795   2.195   5.587   1.625  0.2010 -1.8070 -0.0645
 4412TIP3    H234796   2.304   5.498   1.571  1.5965 -1.0731  1.4462
 4413TIP3   OH234797   1.095   4.607   2.080 -0.5019  0.1636 -0.5500
 4413TIP3    H134798   1.014   4.623   2.129  0.9987  0.5312  1.9973
 4413TIP3    H234799   1.125   4.695   2.056 -0.4708  0.0777 -0.8254
 4414TIP3   OH234800   2.331   2.528   0.177  0.3228  0.3975  0.2901
 4414TIP3    H134801   2.303   2.620   0.179  1.2986  0.6941  1.1235
 4414TIP3    H234802   2.422   2.531   0.147  0.9978 -0.1043  2.1638
 4415TIP3   OH234803   6.498   1.101   0.896  0.3109  0.3110 -0.2042
 4415TIP3    H134804   6.507   1.085   0.990 -0.0802  1.5435  0.0662
 4415TIP3    H234805   6.563   1.043   0.855  1.3037  0.6001  0.9005
 4416TIP3   OH234806   3.103   6.388   7.848 -0.3773 -0.2739 -0.0346
 4416TIP3    H134807   3.024   6.422   7.890  1.1131  2.1538  1.0537
 4416TIP3    H234808   3.077   6.370   7.758 -1.9306  1.5610 -0.0175
 4417TIP3   OH234809   2.082   6.276   1.797  0.2360 -0.2531  0.0882
 4417TIP3    H134810   2.080   6.323   1.713 -1.2600  0.9238  0.7231
 4417TIP3    H234811   2.145   6.325   1.850  0.6605 -0.5780 -0.1116
 4418TIP3   OH234812   2.876   3.745   8.213 -0.8321 -0.2528  0.2352
 4418TIP3    H134813   2.885   3.821   8.156 -2.8314 -0.7205 -0.7817
 4418TIP3    H234814   2.966   3.722   8.238  0.0359  0.4881 -2.0375
 4419TIP3   OH234815   2.873   1.852   1.215  0.5665  0.5507 -0.8164
 4419TIP3    H134816   2.799   1.911   1.230  1.2601  0.8956  1.7594
 4419TIP3    H234817   2.934   1.904   1.162 -0.4279  0.7337 -1.8226
 4420TIP3   OH234818   0.912   3.290   8.258 -0.2084  0.0426  0.6911
 4420TIP3    H134819   0.912   3.382   8.284 -0.5915  1.5128 -3.6978
 4420TIP3    H234820   0.993   3.279   8.209 -0.5044 -1.8033  0.5553
 4421TIP3   OH234821   3.273   2.220   0.093  0.0052  0.5463 -0.5218
 4421TIP3    H134822   3.342   2.248   0.033  2.3353 -1.8374  0.8211
 4421TIP3    H234823   3.226   2.152   0.044 -1.0891  1.7621 -1.2205
 4422TIP3   OH234824   1.358   3.792   1.927 -0.1384 -0.4523 -0.3459
 4422TIP3    H134825   1.382   3.707   1.964  3.6516  0.7742  0.4921
 4422TIP3    H234826   1.329   3.844   2.002 -0.6573 -0.4515 -0.5449
 4423TIP3   OH234827   4.855   3.678   1.212  0.1270  0.4575  0.2671
 4423TIP3    H134828   4.852   3.648   1.303  1.0779  0.5131  0.3244
 4423TIP3    H234829   4.866   3.773   1.220  0.2516  0.4567  0.0902
 4424TIP3   OH234830   2.999   0.778   6.837 -0.0260 -0.2067 -0.1502
 4424TIP3    H134831   2.916   0.750   6.876  0.1777  0.9841  1.2156
 4424TIP3    H234832   2.988   0.759   6.743 -2.1289  0.5748 -0.1268
 4425TIP3   OH234833   1.623   4.693   7.807 -0.2580  0.4391  0.0697
 4425TIP3    H134834   1.540   4.651   7.784 -0.1209 -0.5450  1.2974
 4425TIP3    H234835   1.631   4.681   7.901  1.8792 -0.6219 -0.1909
 4426TIP3   OH234836   0.884   2.164   0.810 -0.2004  0.2151  0.0015
 4426TIP3    H134837   0.798   2.202   0.792 -0.5853  0.8172  2.6536
 4426TIP3    H234838   0.946   2.232   0.784 -0.7754  1.6400  2.0838
 4427TIP3   OH234839   2.325   6.779   1.802  0.1782  0.1018 -0.4004
 4427TIP3    H134840   2.393   6.845   1.785  0.9730 -0.1597  1.4823
 4427TIP3    H234841   2.352   6.738   1.884  0.1655 -3.1811 -1.9003
 4428TIP3   OH234842   3.525   6.126   7.717  0.3826 -0.5353 -0.0228
 4428TIP3    H134843   3.552   6.048   7.764  1.0344 -0.4490 -0.2509
 4428TIP3    H234844   3.429   6.127   7.724  0.5100  0.2186  2.5112
 4429TIP3   OH234845   1.114   2.043   1.957 -0.4781 -0.3662 -0.8073
 4429TIP3    H134846   1.136   2.016   2.046  1.0939  0.6280 -0.8598
 4429TIP3    H234847   1.054   2.117   1.969  0.7189  0.5879 -0.5128
 4430TIP3   OH234848   6.277   0.874   2.067  0.2367 -0.2192  0.3150
 4430TIP3    H134849   6.230   0.883   1.985  0.8632 -1.5249 -0.2247
 4430TIP3    H234850   6.212   0.839   2.128  0.3375 -1.5706 -0.3004
 4431TIP3   OH234851   1.196   0.328   1.299 -0.5653  0.1584  0.0769
 4431TIP3    H134852   1.271   0.304   1.245  0.0031 -0.4689  1.1069
 4431TIP3    H234853   1.233   0.382   1.369 -0.7810 -1.3583  1.4375
 4432TIP3   OH234854   3.662   2.063   8.608  0.0577 -0.8255 -0.2558
 4432TIP3    H134855   3.660   2.087   8.516  1.6610 -0.8850 -0.3245
 4432TIP3    H234856   3.601   2.124   8.650  1.8023  1.4900 -0.8729
 4433TIP3   OH234857   1.374   0.361   8.449  0.0805  0.1962 -0.2094
 4433TIP3    H134858   1.396   0.328   8.362  1.0505  0.4744 -0.0818
 4433TIP3    H234859   1.289   0.403   8.438  0.3543  0.5460 -1.1064
 4434TIP3   OH234860   1.245   5.608   7.835 -0.2473  0.4381  0.0669
 4434TIP3    H134861   1.289   5.692   7.820  1.2157 -0.0317  1.4830
 4434TIP3    H234862   1.152   5.631   7.841  0.3216  2.4223  3.1068
 4435TIP3   OH234863   6.418   5.015   2.315 -0.1253 -0.0512  0.2859
 4435TIP3    H134864   6.441   5.041   2.404  2.6276  1.6053 -0.7681
 4435TIP3    H234865   6.400   4.921   2.321  0.8090 -0.1487  2.4329
 4436TIP3   OH234866   4.243   1.516   0.032 -0.2979  0.5077 -0.0878
 4436TIP3    H134867   4.308   1.516  -0.038 -0.3676  0.2097 -0.1529
 4436TIP3    H234868   4.159   1.524  -0.014 -0.3140  0.8095 -0.0089
 4437TIP3   OH234869   3.861   6.360   2.919 -0.4427  0.9082 -0.0033
 4437TIP3    H134870   3.924   6.293   2.947 -0.6210  0.9607  0.5164
 4437TIP3    H234871   3.786   6.311   2.887 -0.9801  0.8655  1.3023
 4438TIP3   OH234872   2.117   3.677   0.688 -0.2133  0.3765 -0.9116
 4438TIP3    H134873   2.106   3.642   0.599  1.9581 -0.7666 -0.7922
 4438TIP3    H234874   2.211   3.679   0.702 -0.3782  2.9761  0.4733
 4439TIP3   OH234875   5.186   4.419   1.326  0.6824 -0.3309 -0.4028
 4439TIP3    H134876   5.184   4.329   1.361 -0.5773 -1.3581 -2.8216
 4439TIP3    H234877   5.276   4.432   1.298  0.7330 -1.1212 -0.6361
 4440TIP3   OH234878   4.626   1.899   6.930  0.1735 -0.2364 -0.1931
 4440TIP3    H134879   4.698   1.910   6.868 -0.6502  1.3245 -0.9441
 4440TIP3    H234880   4.547   1.895   6.876 -0.5034  0.4216  0.6986
 4441TIP3   OH234881   1.905   5.476   2.071  0.5479 -0.1811 -0.3240
 4441TIP3    H134882   1.840   5.422   2.115  0.6321 -0.6921 -0.8105
 4441TIP3    H234883   1.916   5.435   1.985 -0.4677  1.4425 -1.2869
 4442TIP3   OH234884   1.564   6.130   7.548  1.3867  0.2819 -0.5129
 4442TIP3    H134885   1.540   6.190   7.619  1.9567 -0.8221  0.6623
 4442TIP3    H234886   1.637   6.173   7.504 -0.6919  2.2707 -2.2351
 4443TIP3   OH234887   2.849   2.845   1.616  0.1064  0.2835 -0.3567
 4443TIP3    H134888   2.831   2.758   1.651 -0.1616  0.2618 -0.5434
 4443TIP3    H234889   2.900   2.829   1.537 -1.3829  0.1922 -1.3436
 4444TIP3   OH234890   4.007   2.798   2.732 -0.0533 -0.1385  0.6923
 4444TIP3    H134891   4.011   2.842   2.647 -0.7026 -3.2634 -1.1287
 4444TIP3    H234892   4.095   2.811   2.770  0.1416  1.5926 -0.2642
 4445TIP3   OH234893   2.104   3.092   7.500  0.3852  0.6536 -0.0516
 4445TIP3    H134894   2.169   3.060   7.437  1.5393 -0.5464  1.6570
 4445TIP3    H234895   2.037   3.023   7.502  0.1712  0.8562 -0.2189
 4446TIP3   OH234896   3.224   4.070   7.966 -0.1087 -0.1743  0.0934
 4446TIP3    H134897   3.203   4.119   7.887  1.3813 -0.2690 -0.3981
 4446TIP3    H234898   3.320   4.071   7.970 -0.0047  3.0978  3.8989
 4447TIP3   OH234899   3.870   6.643   7.455  0.5295 -1.1797 -0.1730
 4447TIP3    H134900   3.925   6.621   7.530  0.6902 -0.1393  0.0286
 4447TIP3    H234901   3.922   6.617   7.379  1.1489 -0.5349  0.0283
 4448TIP3   OH234902   3.503   1.456   7.621  0.2465  0.3117  0.3815
 4448TIP3    H134903   3.498   1.364   7.646  1.1703  0.1216 -0.0983
 4448TIP3    H234904   3.559   1.457   7.544 -0.9264  1.1091 -0.5046
 4449TIP3   OH234905   5.760   2.609   0.563 -0.4846  0.4149 -0.1527
 4449TIP3    H134906   5.777   2.704   0.565  1.8423  0.0898 -0.9194
 4449TIP3    H234907   5.667   2.602   0.542 -0.7020  2.5301 -0.1739
 4450TIP3   OH234908   1.218   4.857   7.569  0.5151 -0.4817  0.3064
 4450TIP3    H134909   1.249   4.862   7.478  0.7864  0.5128  0.4491
 4450TIP3    H234910   1.128   4.825   7.562  0.3334  0.1544 -0.3542
 4451TIP3   OH234911   5.089   0.126   8.049  0.0357 -0.3594  0.1005
 4451TIP3    H134912   5.051   0.045   8.015 -0.6541 -0.2803  0.6529
 4451TIP3    H234913   5.014   0.184   8.061  0.6294  0.7528 -1.2853
 4452TIP3   OH234914   1.473   1.633   1.302  0.1398 -0.3513 -0.3741
 4452TIP3    H134915   1.482   1.728   1.298  0.7905 -0.4094 -0.4023
 4452TIP3    H234916   1.494   1.603   1.213 -0.2402 -0.5093 -0.4133
 4453TIP3   OH234917   6.693   0.971   8.334  0.2324 -0.4324  0.3127
 4453TIP3    H134918   6.654   1.040   8.280  2.2183  0.3273 -0.2353
 4453TIP3    H234919   6.621   0.910   8.351 -1.5687  1.6839  0.7079
 4454TIP3   OH234920   5.179   2.681   7.897 -0.2290  0.5907 -0.0402
 4454TIP3    H134921   5.224   2.658   7.816 -2.7677 -0.2826 -1.3319
 4454TIP3    H234922   5.178   2.600   7.948  0.8275  0.9761  0.6143
 4455TIP3   OH234923   0.908   1.080   6.771 -0.1739  0.0033  0.1395
 4455TIP3    H134924   0.888   0.998   6.816 -1.8989  0.4656  0.3064
 4455TIP3    H234925   0.993   1.106   6.805 -0.4155 -0.8101  1.4424
 4456TIP3   OH234926   0.879   2.801   2.949  0.0774 -0.1326 -0.1943
 4456TIP3    H134927   0.847   2.866   3.011  0.9462  0.4797 -0.3642
 4456TIP3    H234928   0.974   2.816   2.945  0.4564 -2.0398  0.4963
 4457TIP3   OH234929   1.819   1.041   7.014  0.1464 -0.6913  0.2220
 4457TIP3    H134930   1.728   1.013   7.017 -0.2110  0.3383 -0.4748
 4457TIP3    H234931   1.869   0.964   7.040 -0.9333 -1.1620  0.9735
 4458TIP3   OH234932   6.237   2.305   0.507  0.9072 -0.1321  0.2660
 4458TIP3    H134933   6.185   2.225   0.516 -1.4814  1.4013  1.2052
 4458TIP3    H234934   6.327   2.278   0.523  0.6075 -3.0827 -2.1004
 4459TIP3   OH234935   3.453   6.401   7.299 -0.5898  0.0139 -0.0436
 4459TIP3    H134936   3.412   6.377   7.215 -1.0110 -0.7560  0.3645
 4459TIP3    H234937   3.429   6.329   7.358  0.9517 -0.2070  0.3529
 4460TIP3   OH234938   4.752   3.462   1.902  0.5292  0.0380  0.1506
 4460TIP3    H134939   4.701   3.430   1.976  0.3033  1.6921  0.7587
 4460TIP3    H234940   4.689   3.512   1.850  1.0791  0.3731 -0.1990
 4461TIP3   OH234941   6.379   1.025   1.419 -0.3582 -0.2089  0.0465
 4461TIP3    H134942   6.418   1.033   1.506 -1.1793  0.1626  0.3906
 4461TIP3    H234943   6.446   0.981   1.367  0.5019  0.3788  0.6248
 4462TIP3   OH234944   1.121   1.764   0.523 -0.0258 -0.2681 -0.4740
 4462TIP3    H134945   1.186   1.696   0.504 -0.2076 -0.9702  1.2157
 4462TIP3    H234946   1.037   1.719   0.519 -0.0851 -0.4285  1.5946
 4463TIP3   OH234947   1.946   6.802   1.659  0.3207 -0.0647 -0.1631
 4463TIP3    H134948   1.868   6.857   1.656  0.4913  0.1397 -1.3987
 4463TIP3    H234949   1.914   6.714   1.640  0.5116  0.1932 -1.8269
 4464TIP3   OH234950   4.120   6.770   2.146 -0.3916  0.1067  0.0020
 4464TIP3    H134951   4.197   6.768   2.203 -1.8075 -0.7458  1.9957
 4464TIP3    H234952   4.071   6.847   2.175 -0.8693 -0.0321 -0.4420
 4465TIP3   OH234953   6.787   6.555   8.119  0.3424 -0.0058  0.0835
 4465TIP3    H134954   6.880   6.536   8.133  0.5783 -0.0669 -1.3756
 4465TIP3    H234955   6.762   6.500   8.045 -0.6233  0.6486 -0.0996
 4466TIP3   OH234956   1.289   5.283   8.399 -0.6313 -0.3707 -0.1167
 4466TIP3    H134957   1.270   5.377   8.396 -0.8386 -0.3805  0.6304
 4466TIP3    H234958   1.208   5.241   8.370  0.2862 -0.2982 -3.1697
 4467TIP3   OH234959   0.193   0.287   7.268 -0.2313 -0.0528 -0.2638
 4467TIP3    H134960   0.239   0.275   7.185 -2.4281  0.6144 -1.6638
 4467TIP3    H234961   0.172   0.381   7.270  0.2874  0.0517  1.3463
 4468TIP3   OH234962   4.558   4.536   8.613 -0.0039 -0.3988  0.0212
 4468TIP3    H134963   4.609   4.463   8.647  1.0068 -0.9350 -2.4338
 4468TIP3    H234964   4.470   4.500   8.601 -1.0363  0.3914  3.7924
 4469TIP3   OH234965   4.215   4.122   7.704  0.1973  0.4886 -0.1015
 4469TIP3    H134966   4.163   4.060   7.756 -0.8178  0.2188 -1.3994
 4469TIP3    H234967   4.217   4.084   7.617 -4.1129  4.1552 -2.2201
 4470TIP3   OH234968   2.449   4.726   7.761  0.1406 -0.6391  0.0197
 4470TIP3    H134969   2.469   4.817   7.739  0.5668 -0.4028  1.3499
 4470TIP3    H234970   2.354   4.725   7.773  0.0273 -0.5606 -0.8133
 4471TIP3   OH234971   4.315   5.376   1.116 -0.3842 -0.2490  0.1680
 4471TIP3    H134972   4.279   5.317   1.182 -0.1489  0.9538  1.4239
 4471TIP3    H234973   4.380   5.428   1.163 -0.2264  0.6693 -1.0084
 4472TIP3   OH234974   2.092   5.963   8.392  0.6646  0.0394 -0.6448
 4472TIP3    H134975   2.123   6.019   8.463 -2.2874  0.5356  0.3643
 4472TIP3    H234976   2.070   6.024   8.321  0.6845 -0.1780 -0.8402
 4473TIP3   OH234977   1.381   5.008   7.734 -0.6179 -0.6283 -0.5906
 4473TIP3    H134978   1.321   4.943   7.695 -2.6906  2.0443 -2.2097
 4473TIP3    H234979   1.323   5.066   7.783  1.0646  0.4410  0.1889
 4474TIP3   OH234980   2.460   4.531   1.190  0.3450  0.4787 -0.3078
 4474TIP3    H134981   2.474   4.582   1.270  1.5275  1.7078 -1.2652
 4474TIP3    H234982   2.534   4.470   1.187  0.5711  0.7736 -0.7178
 4475TIP3   OH234983   1.945   5.300   0.832 -0.1003  0.0532  0.1010
 4475TIP3    H134984   2.011   5.300   0.902  0.2843  0.3613 -0.2601
 4475TIP3    H234985   1.925   5.392   0.817  1.1557  0.1128 -1.4366
 4476TIP3   OH234986   1.270   1.241   7.997 -0.1492 -0.2284  0.2896
 4476TIP3    H134987   1.320   1.182   8.053 -0.2049 -1.3723 -0.8086
 4476TIP3    H234988   1.334   1.308   7.971  0.4561 -0.8806  0.0404
 4477TIP3   OH234989   0.712   2.489   2.176 -0.2329 -0.3914 -0.4198
 4477TIP3    H134990   0.778   2.452   2.234  1.8629 -0.0226 -2.4553
 4477TIP3    H234991   0.663   2.413   2.144 -0.4836 -0.7159  0.7167
 4478TIP3   OH234992   6.860   5.671   1.205  0.4816 -0.3242 -0.5052
 4478TIP3    H134993   6.881   5.594   1.152 -1.3591  0.0117 -1.8573
 4478TIP3    H234994   6.943   5.715   1.219  1.2758 -1.4557 -1.5209
 4479TIP3   OH234995   0.913   3.407   0.868  0.3650 -0.1257  0.2795
 4479TIP3    H134996   0.978   3.457   0.820 -1.1775  2.4612  0.7188
 4479TIP3    H234997   0.866   3.472   0.920  0.5397 -2.4688  3.7125
 4480TIP3   OH234998   0.721   1.278   6.789  0.0121  0.0111 -0.5550
 4480TIP3    H134999   0.793   1.219   6.767 -1.1317 -1.0105 -1.7400
 4480TIP3    H235000   0.710   1.331   6.710  1.0680  1.9425  0.5110
 4481TIP3   OH235001   1.508   1.179   8.359 -0.3125 -0.0748 -0.2708
 4481TIP3    H135002   1.602   1.196   8.366 -0.7697  2.5239  0.8571
 4481TIP3    H235003   1.476   1.183   8.449 -1.6123 -0.0068 -0.7178
 4482TIP3   OH235004   5.012   1.830   2.046  0.9649 -0.3915  0.6326
 4482TIP3    H135005   4.967   1.818   1.962 -1.3547 -0.8347  1.8745
 4482TIP3    H235006   5.021   1.742   2.081  0.7467 -0.1016  1.4345
 4483TIP3   OH235007   3.588   4.155   7.531 -0.1846 -0.1996  0.8324
 4483TIP3    H135008   3.520   4.197   7.478  1.0620  0.3927 -0.3558
 4483TIP3    H235009   3.628   4.090   7.474 -2.1875 -3.3085  2.7007
 4484TIP3   OH235010   4.015   0.948   3.019 -0.4335 -0.0513  0.0156
 4484TIP3    H135011   4.034   1.033   3.059 -1.0498 -0.1554  0.5595
 4484TIP3    H235012   3.997   0.891   3.094 -0.1473 -0.6298 -0.3540
 4485TIP3   OH235013   2.143   0.702   1.240 -0.0780 -0.2414 -0.0096
 4485TIP3    H135014   2.103   0.749   1.167  0.5688  1.3227  0.5897
 4485TIP3    H235015   2.144   0.766   1.311  0.0879 -1.4529  1.1113
 4486TIP3   OH235016   6.491   5.610   1.935  0.3600  0.5051  0.4352
 4486TIP3    H135017   6.573   5.583   1.893 -0.7261  0.3337 -1.6948
 4486TIP3    H235018   6.426   5.548   1.902 -0.9405  1.6246  0.8152
 4487TIP3   OH235019   6.249   2.256   7.148  0.0225  0.3077 -0.0524
 4487TIP3    H135020   6.220   2.171   7.116  0.8564  0.1974 -0.5688
 4487TIP3    H235021   6.334   2.239   7.189  1.8397  1.2967 -3.0389
 4488TIP3   OH235022   5.029   4.003   1.218  0.2007  0.8184  0.3485
 4488TIP3    H135023   5.064   4.060   1.286  2.3005 -1.0197  0.9148
 4488TIP3    H235024   4.961   4.056   1.175 -0.5411  2.3861  3.1971
 4489TIP3   OH235025   4.192   0.990   7.875 -0.0404 -0.5404  0.2600
 4489TIP3    H135026   4.251   0.953   7.809  0.9449  0.1241  0.7554
 4489TIP3    H235027   4.231   1.075   7.897 -2.2388  0.8643 -0.8627
 4490TIP3   OH235028   4.501   5.141   1.645 -0.3345 -0.6331 -0.0347
 4490TIP3    H135029   4.542   5.179   1.722 -1.4542  1.8364 -0.5559
 4490TIP3    H235030   4.517   5.047   1.653  1.4027 -0.2401  2.0721
 4491TIP3   OH235031   4.772   6.307   3.166 -0.3423 -0.3595 -0.3037
 4491TIP3    H135032   4.858   6.343   3.141 -0.2438  1.4313  2.1473
 4491TIP3    H235033   4.725   6.298   3.084  0.7889  2.5922 -1.4355
 4492TIP3   OH235034   6.489   2.817   7.709 -0.8657 -0.3573  0.0489
 4492TIP3    H135035   6.455   2.743   7.658  0.6016 -0.8641 -0.2289
 4492TIP3    H235036   6.419   2.883   7.705 -2.5065 -1.9586  0.8773
 4493TIP3   OH235037   1.849   4.708   6.808  0.0596 -0.2149  0.5086
 4493TIP3    H135038   1.800   4.724   6.727 -1.9715 -1.9879  1.2965
 4493TIP3    H235039   1.931   4.757   6.796 -1.3838  1.9902 -1.3503
 4494TIP3   OH235040   0.921   0.301   0.296  0.1388  0.4010 -1.1423
 4494TIP3    H135041   0.891   0.228   0.350 -0.2790  1.9307  0.7666
 4494TIP3    H235042   0.849   0.364   0.297  1.0324  1.4641 -1.5897
 4495TIP3   OH235043   6.005   5.208   2.019 -0.1692  1.2135  0.7103
 4495TIP3    H135044   6.006   5.182   2.111 -1.0014  1.6541  0.8502
 4495TIP3    H235045   6.045   5.134   1.973  0.1292  0.9312  1.4076
 4496TIP3   OH235046   3.650   3.661   2.378 -0.2370 -0.4073 -0.3385
 4496TIP3    H135047   3.643   3.694   2.468 -0.5863 -0.0317 -0.4987
 4496TIP3    H235048   3.732   3.612   2.377  0.7163  1.1126 -0.2895
 4497TIP3   OH235049   5.913   5.425   0.174 -0.1977 -0.0513 -0.5550
 4497TIP3    H135050   5.886   5.501   0.226 -0.7084 -0.3717 -0.3402
 4497TIP3    H235051   5.985   5.387   0.224 -2.3135 -1.8700  1.3928
 4498TIP3   OH235052   5.951   1.631   7.639  0.0057 -0.5114  0.4142
 4498TIP3    H135053   5.856   1.639   7.629 -0.2631 -2.4278  1.0356
 4498TIP3    H235054   5.984   1.631   7.549 -0.3132  2.0936  0.1976
 4499TIP3   OH235055   5.306   3.856   0.321 -0.7885 -0.2666 -0.5375
 4499TIP3    H135056   5.257   3.917   0.376  0.9654  1.6202 -0.9901
 4499TIP3    H235057   5.269   3.867   0.233 -0.0179  0.6806 -0.7526
 4500TIP3   OH235058   2.339   4.852   8.148  0.0379 -0.1689 -0.0031
 4500TIP3    H135059   2.288   4.832   8.070 -1.8923 -0.4647  1.2678
 4500TIP3    H235060   2.274   4.866   8.217  1.6699 -0.4439  1.6859
 4501TIP3   OH235061   4.508   3.098   7.270  0.5396  0.6116  0.2097
 4501TIP3    H135062   4.472   3.187   7.264  0.3026  0.4955 -0.0928
 4501TIP3    H235063   4.568   3.091   7.196 -0.4976  0.0446 -0.6055
 4502TIP3   OH235064   5.637   4.788   2.280  0.0392  0.1763  0.3441
 4502TIP3    H135065   5.718   4.818   2.238 -0.6567  1.3360 -0.2101
 4502TIP3    H235066   5.602   4.721   2.220 -1.0613  1.9727 -1.1151
 4503TIP3   OH235067   3.317   4.212   7.749  0.2694 -0.1971  0.1093
 4503TIP3    H135068   3.377   4.285   7.731 -1.7637  2.0800  1.8836
 4503TIP3    H235069   3.254   4.215   7.677  0.7574 -0.9104 -0.3610
 4504TIP3   OH235070   3.222   6.108   0.581 -0.1287  0.3297  0.1451
 4504TIP3    H135071   3.145   6.052   0.568  0.6723 -0.5828 -0.7999
 4504TIP3    H235072   3.234   6.153   0.497  3.8898 -4.1044 -2.1344
 4505TIP3   OH235073   1.038   3.538   8.476  0.3307  0.1252 -0.3214
 4505TIP3    H135074   1.110   3.563   8.533 -0.7484  1.7245  0.4044
 4505TIP3    H235075   1.064   3.568   8.389  1.0954 -0.4873 -0.3072
 4506TIP3   OH235076   3.457   3.231   0.864  0.2015 -0.0981  0.0864
 4506TIP3    H135077   3.397   3.164   0.829 -1.6921  1.9691 -0.8696
 4506TIP3    H235078   3.515   3.251   0.791  0.4840 -0.3827  0.2322
 4507TIP3   OH235079   5.334   6.458   2.451  0.5875 -0.7499 -0.2579
 4507TIP3    H135080   5.414   6.511   2.446 -0.8068  1.5577  0.4814
 4507TIP3    H235081   5.264   6.519   2.430 -1.0772 -2.5555 -0.2055
 4508TIP3   OH235082   3.733   5.141   7.577 -0.1692 -0.6051 -0.2246
 4508TIP3    H135083   3.828   5.144   7.589 -0.0752 -0.3342 -1.0261
 4508TIP3    H235084   3.708   5.231   7.555 -0.6931 -0.5551  0.4981
 4509TIP3   OH235085   4.343   1.680   0.953  0.1116  0.5072 -0.0451
 4509TIP3    H135086   4.299   1.746   0.900  1.9862  0.6696 -1.4863
 4509TIP3    H235087   4.427   1.666   0.910 -0.0408 -2.5714  0.4032
 4510TIP3   OH235088   4.598   6.426   0.637 -0.3657 -0.6902 -0.4268
 4510TIP3    H135089   4.543   6.402   0.563  0.4176 -0.1223 -1.2189
 4510TIP3    H235090   4.586   6.521   0.647 -0.8331 -0.8341  0.4869
 4511TIP3   OH235091   0.841   1.366   7.066  0.1811  0.1209 -0.0708
 4511TIP3    H135092   0.823   1.313   6.988  0.6411 -0.7161  0.3744
 4511TIP3    H235093   0.933   1.350   7.085 -0.1189 -0.3352  1.1084
 4512TIP3   OH235094   1.868   1.697   7.913  0.5580 -0.2347  0.0624
 4512TIP3    H135095   1.802   1.700   7.982  0.6037 -0.5381  0.1188
 4512TIP3    H235096   1.824   1.656   7.838  0.1946  1.0140 -0.4359
 4513TIP3   OH235097   3.939   1.163   1.612 -0.6927 -0.1596  0.2203
 4513TIP3    H135098   3.913   1.198   1.697 -1.3573 -0.2852  0.0737
 4513TIP3    H235099   3.877   1.202   1.550 -2.1724 -2.3854  0.1750
 4514TIP3   OH235100   6.578   3.209   1.105 -0.4592  0.1017  0.1066
 4514TIP3    H135101   6.612   3.123   1.080 -0.7153  0.2227 -0.6542
 4514TIP3    H235102   6.486   3.194   1.123 -0.2464 -0.0169  1.1659
 4515TIP3   OH235103   4.991   5.788   1.577  0.2782  0.3416  0.1823
 4515TIP3    H135104   4.903   5.752   1.567 -0.0936  1.2753 -0.0079
 4515TIP3    H235105   4.983   5.879   1.549  1.7442 -0.0834 -1.8647
 4516TIP3   OH235106   3.238   6.248   0.335  0.6965 -0.3817  0.4346
 4516TIP3    H135107   3.326   6.279   0.312 -0.4940  1.2229 -2.4366
 4516TIP3    H235108   3.223   6.173   0.277 -0.6926  0.9037 -0.9469
 4517TIP3   OH235109   6.558   6.249   0.355  0.3312  0.4097  0.2122
 4517TIP3    H135110   6.545   6.225   0.264  0.3479  0.3350  0.2289
 4517TIP3    H235111   6.497   6.193   0.403  0.6817  0.0856  0.2883
 4518TIP3   OH235112   4.409   5.938   3.208 -0.6327  0.1793 -0.7270
 4518TIP3    H135113   4.413   6.033   3.195  0.3423  0.1548 -0.6627
 4518TIP3    H235114   4.476   5.903   3.150  0.7878 -0.2676  1.0976
 4519TIP3   OH235115   4.470   3.606   7.324  0.2088 -0.1683  0.2364
 4519TIP3    H135116   4.535   3.627   7.257  0.2905 -0.6703  0.1548
 4519TIP3    H235117   4.518   3.614   7.407  0.6032 -1.3213  0.1368
 4520TIP3   OH235118   6.833   2.135   1.053 -0.1115 -0.1414 -0.4884
 4520TIP3    H135119   6.800   2.045   1.052 -0.1405 -0.1464  0.3710
 4520TIP3    H235120   6.794   2.176   0.975 -0.5390 -0.7144 -0.5770
 4521TIP3   OH235121   3.605   5.162   8.369 -0.2612 -0.0296 -0.0054
 4521TIP3    H135122   3.688   5.200   8.340 -1.1197  1.8303 -0.1870
 4521TIP3    H235123   3.621   5.068   8.373  1.4753  0.1766 -1.2548
 4522TIP3   OH235124   2.146   0.424   1.850 -0.0579 -0.5685  0.5000
 4522TIP3    H135125   2.165   0.416   1.944 -0.1475  0.3669  0.6086
 4522TIP3    H235126   2.112   0.338   1.825  1.8279 -1.4593  0.8649
 4523TIP3   OH235127   6.100   4.474   0.101  0.5082 -0.5373 -0.7807
 4523TIP3    H135128   6.022   4.422   0.117  1.1285 -0.6739  2.4338
 4523TIP3    H235129   6.084   4.557   0.145  0.6429  1.0314 -3.5006
 4524TIP3   OH235130   5.753   3.352   1.607  0.3634  0.0773  0.4059
 4524TIP3    H135131   5.669   3.394   1.628 -0.1458 -0.1975 -0.9498
 4524TIP3    H235132   5.735   3.304   1.526  1.6030 -0.7192  0.5909
 4525TIP3   OH235133   0.108   2.456   0.518  0.1879 -0.1295 -0.2922
 4525TIP3    H135134   0.097   2.364   0.543 -1.9714  0.4000  0.9232
 4525TIP3    H235135   0.185   2.456   0.461  0.6725 -2.5700  0.2516
 4526TIP3   OH235136   2.183   0.279   0.657 -0.0538 -0.4065 -0.3745
 4526TIP3    H135137   2.251   0.220   0.626  1.3650  0.5961  0.6925
 4526TIP3    H235138   2.201   0.362   0.611 -2.1331 -0.7780 -2.0215
 4527TIP3   OH235139   5.666   0.781   1.845  0.1619 -0.1058 -0.3188
 4527TIP3    H135140   5.598   0.719   1.873  1.6806 -1.4059  0.6852
 4527TIP3    H235141   5.637   0.865   1.879 -1.3966 -0.4288 -0.7376
 4528TIP3   OH235142   4.190   2.745   1.427 -0.1678 -0.6054  0.5815
 4528TIP3    H135143   4.202   2.766   1.519 -0.6185 -0.1482  0.5353
 4528TIP3    H235144   4.124   2.675   1.426 -0.5648 -0.2332  0.5735
 4529TIP3   OH235145   3.111   2.848   2.061 -0.0882  0.5488 -0.3190
 4529TIP3    H135146   3.080   2.938   2.075  0.3168  0.3463  2.4581
 4529TIP3    H235147   3.075   2.798   2.135 -0.8225 -1.7676 -2.1204
 4530TIP3   OH235148   0.504   3.226   7.148  0.0367  0.4388  0.3272
 4530TIP3    H135149   0.561   3.293   7.186  0.1028  0.6875 -0.2036
 4530TIP3    H235150   0.558   3.147   7.145 -0.0031  0.3872  0.8420
 4531TIP3   OH235151   6.268   0.965   0.088 -0.4571 -0.4015 -0.0277
 4531TIP3    H135152   6.177   0.955   0.116 -1.2422  0.9296 -1.8895
 4531TIP3    H235153   6.285   0.888   0.033 -0.3775 -0.7400  0.4620
 4532TIP3   OH235154   3.186   4.081   1.478  0.2616 -0.4414 -0.0402
 4532TIP3    H135155   3.155   4.069   1.568  2.3019  2.4995  1.2158
 4532TIP3    H235156   3.274   4.044   1.478  0.4643  0.0295 -0.7108
 4533TIP3   OH235157   5.424   5.774   1.420  0.4470  0.1321  0.4429
 4533TIP3    H135158   5.516   5.752   1.433  0.2124 -1.0067  0.2521
 4533TIP3    H235159   5.423   5.870   1.417  1.5962  0.1660  0.6093
 4534TIP3   OH235160   0.558   3.226   2.294  0.2375 -0.1563 -0.1430
 4534TIP3    H135161   0.556   3.262   2.383  0.6079 -1.3320  0.3618
 4534TIP3    H235162   0.517   3.140   2.301  1.6037 -0.9009 -0.7904
 4535TIP3   OH235163   6.766   2.199   2.269 -0.0095  0.4316 -0.0817
 4535TIP3    H135164   6.827   2.127   2.290 -1.1921 -0.3031  1.0036
 4535TIP3    H235165   6.797   2.233   2.185  0.7759 -1.1456 -0.4718
 4536TIP3   OH235166   2.833   0.204   1.337  0.6733 -1.1332 -0.4078
 4536TIP3    H135167   2.740   0.215   1.321  1.0870  0.8791 -1.8347
 4536TIP3    H235168   2.842   0.206   1.432 -0.8543 -2.9720 -0.1727
 4537TIP3   OH235169   5.346   2.257   1.451  0.5651  0.3004 -0.4182
 4537TIP3    H135170   5.439   2.249   1.428  1.0200 -0.8101  1.5239
 4537TIP3    H235171   5.327   2.176   1.498 -1.5259  0.3353 -1.1469
 4538TIP3   OH235172   4.724   5.964   0.048  0.1372 -0.2695 -0.8096
 4538TIP3    H135173   4.682   5.940  -0.034  0.9335 -1.1114 -0.9878
 4538TIP3    H235174   4.791   6.028   0.023 -0.4091  0.3691 -0.6517
 4539TIP3   OH235175   0.947   1.992   0.475  0.3290  0.2832 -0.8659
 4539TIP3    H135176   0.899   2.013   0.395 -1.0771  0.3507 -0.0290
 4539TIP3    H235177   1.004   1.919   0.450  0.3109  0.6578 -2.0516
 4540TIP3   OH235178   1.236   6.036   0.742  0.1936  0.4484 -0.4563
 4540TIP3    H135179   1.319   5.988   0.746  0.2121  0.3212 -1.8416
 4540TIP3    H235180   1.206   6.024   0.652 -1.3931  0.3948  0.0455
 4541TIP3   OH235181   1.710   1.370   2.083  0.0724  0.0373 -0.2598
 4541TIP3    H135182   1.733   1.281   2.056  0.9689  0.6304 -1.6065
 4541TIP3    H235183   1.716   1.369   2.178  0.3243 -1.2679 -0.2700
 4542TIP3   OH235184   5.327   5.232   1.593  0.5517  0.7455  0.2521
 4542TIP3    H135185   5.248   5.262   1.637 -0.5050  1.0241 -1.7281
 4542TIP3    H235186   5.374   5.312   1.570  0.6267  0.6552  0.0815
 4543TIP3   OH235187   1.644   5.604   2.185  0.6225 -0.1817 -0.0117
 4543TIP3    H135188   1.587   5.545   2.135  0.6917 -0.2205 -0.0441
 4543TIP3    H235189   1.714   5.627   2.124 -0.0165  0.8533 -0.3850
 4544TIP3   OH235190   0.045   5.053   1.000 -0.3497 -0.3071  0.1975
 4544TIP3    H135191   0.090   5.007   0.929 -1.5728 -0.5845 -0.4341
 4544TIP3    H235192   0.113   5.074   1.063  0.4101 -2.0888  0.0130
 4545TIP3   OH235193   6.618   0.584   2.522 -0.1217  0.4863 -0.3386
 4545TIP3    H135194   6.585   0.663   2.566  2.5000  1.6746 -0.3123
 4545TIP3    H235195   6.602   0.600   2.429 -1.4805  0.0772 -0.1873
 4546TIP3   OH235196   0.429   4.052   0.741 -0.0014  0.6399 -0.1349
 4546TIP3    H135197   0.517   4.066   0.775  0.0389  0.5175 -0.1902
 4546TIP3    H235198   0.441   4.035   0.648  0.0891 -1.2940  0.1842
 4547TIP3   OH235199   5.008   3.294   8.209 -0.2552 -0.0271 -0.4314
 4547TIP3    H135200   4.985   3.246   8.130 -0.9585 -0.3265 -0.0568
 4547TIP3    H235201   4.930   3.287   8.265  0.1638  0.3286  0.2142
 4548TIP3   OH235202   4.828   0.227   8.120  0.2633  0.1550  0.3439
 4548TIP3    H135203   4.812   0.161   8.186  0.9306  0.3998  0.7608
 4548TIP3    H235204   4.744   0.272   8.109 -0.0530 -0.4200  0.4285
 4549TIP3   OH235205   2.520   5.778   1.375 -0.2792  0.0124 -0.0206
 4549TIP3    H135206   2.438   5.823   1.395 -0.8264 -0.1504 -1.6650
 4549TIP3    H235207   2.569   5.777   1.457 -2.0883 -0.2137  1.1055
 4550TIP3   OH235208   3.082   3.737   7.662 -0.1266 -0.0261  0.2033
 4550TIP3    H135209   3.125   3.761   7.745  0.6093  0.6227 -0.3541
 4550TIP3    H235210   3.026   3.812   7.642  0.6410  0.3643 -0.5146
 4551TIP3   OH235211   2.169   6.005   1.694  0.2646  0.4109  0.3821
 4551TIP3    H135212   2.236   6.009   1.762  0.3648  1.9675  0.2219
 4551TIP3    H235213   2.146   6.096   1.677 -2.2447 -0.0703  0.7769
 4552TIP3   OH235214   5.125   0.025   1.808 -0.1572 -0.2918  0.1232
 4552TIP3    H135215   5.163   0.109   1.834 -1.3976  0.3756 -0.1374
 4552TIP3    H235216   5.137   0.022   1.713 -0.2438 -0.3371  0.1136
 4553TIP3   OH235217   6.005   3.340   7.529  0.3761  0.4511  0.5158
 4553TIP3    H135218   5.940   3.323   7.598 -1.0203  1.6378 -0.4677
 4553TIP3    H235219   6.033   3.252   7.502 -0.0243 -0.0625  1.6632
 4554TIP3   OH235220   1.959   6.562   1.816  0.1176  0.2653  0.0236
 4554TIP3    H135221   2.005   6.642   1.790 -0.0915  0.1403 -0.7550
 4554TIP3    H235222   2.029   6.500   1.837  0.3033  0.2476 -0.6267
 4555TIP3   OH235223   2.090   4.740   1.474  0.3425 -0.5506  0.1494
 4555TIP3    H135224   2.021   4.676   1.494  0.1774 -0.8762 -1.3309
 4555TIP3    H235225   2.045   4.808   1.424  0.3611  1.1618  2.3097
 4556TIP3   OH235226   2.727   4.955   1.262 -0.4320  0.3883 -0.6398
 4556TIP3    H135227   2.793   4.933   1.197  0.5399  1.1967  0.0570
 4556TIP3    H235228   2.771   4.945   1.346 -1.0582  1.3509 -0.1829
 4557TIP3   OH235229   6.421   4.729   8.517  0.1316  0.4886  0.4747
 4557TIP3    H135230   6.361   4.721   8.443  0.5105  1.9314 -0.0137
 4557TIP3    H235231   6.367   4.764   8.587  0.0216  0.1259  0.5779
 4558TIP3   OH235232   5.443   2.703   1.744  0.1146 -0.2165  0.7536
 4558TIP3    H135233   5.397   2.772   1.697  1.6408  0.6444  0.4914
 4558TIP3    H235234   5.419   2.623   1.697  0.1741  0.4083 -0.3617
 4559TIP3   OH235235   6.781   1.672   1.744 -0.1196 -0.0285  0.1275
 4559TIP3    H135236   6.821   1.644   1.662 -2.6181 -2.3211 -0.4661
 4559TIP3    H235237   6.829   1.624   1.811 -1.3508 -2.3711 -0.5281
 4560TIP3   OH235238   4.484   5.678   0.338  0.1875  0.1683  0.1879
 4560TIP3    H135239   4.397   5.660   0.374  0.6348 -1.2416  0.6314
 4560TIP3    H235240   4.508   5.762   0.377 -1.0420  0.6759 -0.0852
 4561TIP3   OH235241   1.720   0.733   7.759 -0.4759  0.2214 -0.4168
 4561TIP3    H135242   1.792   0.699   7.812 -0.2091  3.8050  1.9006
 4561TIP3    H235243   1.648   0.673   7.774  1.1572 -1.8480 -0.4375
 4562TIP3   OH235244   5.256   0.848   2.059 -0.1776  0.0001 -0.2004
 4562TIP3    H135245   5.184   0.861   1.997 -2.5970 -0.3392  2.3371
 4562TIP3    H235246   5.253   0.925   2.116 -0.1212 -1.1234  1.3860
 4563TIP3   OH235247   6.404   4.934   7.644  0.0011  0.3045  0.6350
 4563TIP3    H135248   6.398   5.029   7.636  0.3617  0.4221  1.6713
 4563TIP3    H235249   6.488   4.912   7.604  0.0376  0.4461  0.6336
 4564TIP3   OH235250   4.075   2.173   7.136  0.5535 -0.0561  0.2731
 4564TIP3    H135251   4.137   2.103   7.159  2.1267  1.1155 -0.2320
 4564TIP3    H235252   3.997   2.153   7.187  0.8395 -2.3370 -0.0551
 4565TIP3   OH235253   1.132   2.307   8.161 -0.5900  0.7078  0.2909
 4565TIP3    H135254   1.073   2.239   8.194 -0.8450 -0.1969 -1.8387
 4565TIP3    H235255   1.220   2.270   8.171 -0.8021 -0.7077 -2.2623
 4566TIP3   OH235256   3.191   0.427   8.280 -0.7871 -0.5088  0.3561
 4566TIP3    H135257   3.157   0.388   8.360 -1.0643  1.2934  1.1634
 4566TIP3    H235258   3.171   0.363   8.212 -0.0937 -2.3301  1.7522
 4567TIP3   OH235259   3.620   0.040   8.096  0.1477  0.0114 -0.2221
 4567TIP3    H135260   3.605   0.037   8.191 -0.7395 -0.9333 -0.3719
 4567TIP3    H235261   3.704   0.085   8.087 -1.8655  4.4794  0.7430
 4568TIP3   OH235262   3.648   5.256   0.833  0.3069 -0.1982 -0.4550
 4568TIP3    H135263   3.610   5.188   0.888 -0.0916 -0.4296 -1.0124
 4568TIP3    H235264   3.738   5.265   0.865  0.2823 -0.7961 -0.2090
 4569TIP3   OH235265   1.139   3.225   2.552 -0.3549  0.8190 -0.1554
 4569TIP3    H135266   1.175   3.147   2.593 -0.6371  0.5380 -0.4377
 4569TIP3    H235267   1.081   3.262   2.619  1.3724  1.9755  0.7849
 4570TIP3   OH235268   1.342   1.828   7.847 -0.4444  0.0368  0.0575
 4570TIP3    H135269   1.373   1.881   7.921  0.4845 -0.0452 -0.2607
 4570TIP3    H235270   1.274   1.882   7.807 -1.0464  0.0336  1.0318
 4571TIP3   OH235271   0.171   4.086   7.959 -0.6393 -0.2356 -0.4457
 4571TIP3    H135272   0.215   4.098   7.875  0.4210 -0.0458  0.1126
 4571TIP3    H235273   0.130   4.000   7.953 -0.3252 -0.3509 -1.0561
 4572TIP3   OH235274   2.304   2.115   7.495  0.4955 -0.7107  0.2094
 4572TIP3    H135275   2.383   2.075   7.531  2.4860  1.3074 -1.5895
 4572TIP3    H235276   2.281   2.061   7.419  0.3410 -1.1158  0.5451
 4573TIP3   OH235277   1.981   4.451   8.192 -0.2439 -0.2542 -0.2181
 4573TIP3    H135278   2.002   4.360   8.211  0.3186 -0.2401 -0.7507
 4573TIP3    H235279   2.043   4.477   8.124  0.6485  0.9936  1.0177
 4574TIP3   OH235280   0.812   5.234   7.040 -0.0139 -0.1567  0.7687
 4574TIP3    H135281   0.852   5.158   7.082  0.9990 -0.2983 -0.3752
 4574TIP3    H235282   0.881   5.301   7.041 -0.6905  0.5566  1.2184
 4575TIP3   OH235283   4.610   2.534   7.697 -0.6485  0.1522  0.0496
 4575TIP3    H135284   4.521   2.565   7.713 -1.1343 -1.3560  0.4936
 4575TIP3    H235285   4.657   2.610   7.664 -2.1254  0.9620 -0.2775
 4576TIP3   OH235286   3.115   1.879   1.047 -0.5889  0.2000  0.4723
 4576TIP3    H135287   3.066   1.799   1.031 -2.5075  1.0551  1.7086
 4576TIP3    H235288   3.203   1.861   1.014 -0.7766 -2.6151  1.3121
 4577TIP3   OH235289   1.093   0.681   2.666  0.0621  0.0304  0.4114
 4577TIP3    H135290   1.134   0.595   2.677 -0.1548 -0.1985 -0.5116
 4577TIP3    H235291   1.007   0.661   2.628 -0.1737  0.6284  0.6272
 4578TIP3   OH235292   1.081   1.845   2.840 -0.1924 -0.7709  0.3547
 4578TIP3    H135293   1.134   1.889   2.907 -1.3428 -0.4447  1.0863
 4578TIP3    H235294   1.072   1.755   2.871 -0.5528 -0.6725  0.5454
 4579TIP3   OH235295   4.154   0.348   7.074 -0.5650  0.4495  0.2228
 4579TIP3    H135296   4.214   0.310   7.138 -4.4205 -1.9618  2.9003
 4579TIP3    H235297   4.129   0.432   7.111 -1.6353 -0.2646  1.1858
 4580TIP3   OH235298   3.733   1.726   6.532  0.0835  0.4761 -0.4191
 4580TIP3    H135299   3.778   1.657   6.484 -0.1846  0.3048 -0.4266
 4580TIP3    H235300   3.791   1.802   6.526  1.0793 -0.1419  0.7995
 4581TIP3   OH235301   1.169   3.698   8.297  0.6102  0.6527  0.6527
 4581TIP3    H135302   1.234   3.751   8.252  1.6143 -0.8410  0.2488
 4581TIP3    H235303   1.090   3.704   8.242  1.2301  0.3871 -0.2911
 4582TIP3   OH235304   4.723   4.889   1.866  0.1219 -0.2329 -0.2804
 4582TIP3    H135305   4.784   4.816   1.873  1.6196  0.9258 -0.6822
 4582TIP3    H235306   4.717   4.924   1.955 -0.0199 -0.3924 -0.2266
 4583TIP3   OH235307   1.429   6.707   1.017  0.2461  0.0254 -0.5013
 4583TIP3    H135308   1.479   6.627   1.031  0.5051 -0.2217 -2.5272
 4583TIP3    H235309   1.452   6.734   0.928 -1.4058  1.2309 -0.6017
 4584TIP3   OH235310   3.668   1.496   8.572  0.2851  0.3670  0.0989
 4584TIP3    H135311   3.617   1.424   8.535  1.6865 -1.5873  1.7426
 4584TIP3    H235312   3.646   1.572   8.517 -2.7146 -0.8159 -0.5453
 4585TIP3   OH235313   6.785   1.862   0.717  0.4094  0.1070 -0.0896
 4585TIP3    H135314   6.743   1.808   0.784 -0.2216  1.1616  0.3922
 4585TIP3    H235315   6.877   1.864   0.741  0.3779 -0.4410  0.0908
 4586TIP3   OH235316   4.854   1.693   7.544 -0.6405 -0.4297 -0.4339
 4586TIP3    H135317   4.763   1.701   7.570  0.1213  0.8854  2.1775
 4586TIP3    H235318   4.903   1.698   7.626  1.8834  1.0038 -1.9008
 4587TIP3   OH235319   5.121   2.627   1.444  0.6047  0.2277  0.0527
 4587TIP3    H135320   5.032   2.599   1.423  0.6942 -0.2676  0.2995
 4587TIP3    H235321   5.160   2.649   1.359  0.0486  1.0676  0.0087
 4588TIP3   OH235322   6.041   1.868   0.300  0.5905  0.0024 -0.2134
 4588TIP3    H135323   5.948   1.864   0.324  0.8102 -1.2382  0.5245
 4588TIP3    H235324   6.073   1.778   0.312  2.1345  0.6228  0.5958
 4589TIP3   OH235325   0.614   0.414   1.653 -0.1678  0.2967 -0.0216
 4589TIP3    H135326   0.695   0.466   1.651  0.2350 -0.3468 -0.6562
 4589TIP3    H235327   0.577   0.432   1.740  0.5539  0.7536  0.2019
 4590TIP3   OH235328   5.512   1.962   0.244 -0.2324 -0.3649 -0.7280
 4590TIP3    H135329   5.456   1.941   0.318 -0.1365  0.6001 -0.3629
 4590TIP3    H235330   5.572   1.889   0.237  0.1484 -0.1926  0.5356
 4591TIP3   OH235331   3.627   4.499   2.432  0.1567 -0.0929  0.4743
 4591TIP3    H135332   3.697   4.460   2.379 -0.9793 -0.0045 -1.1667
 4591TIP3    H235333   3.584   4.425   2.473  0.3886 -0.2551  0.4270
 4592TIP3   OH235334   1.495   5.048   1.243  0.7609  0.3350  0.0651
 4592TIP3    H135335   1.506   5.007   1.329 -1.0882  1.9294  1.1460
 4592TIP3    H235336   1.435   4.990   1.196  1.3264 -0.2486  0.0520
 4593TIP3   OH235337   4.204   5.301   1.471  0.3291 -0.2317  0.3028
 4593TIP3    H135338   4.203   5.285   1.565  1.9745  0.6800  0.5152
 4593TIP3    H235339   4.188   5.215   1.432 -3.8228 -0.1130  1.3335
 4594TIP3   OH235340   4.246   6.295   8.429  0.2882 -0.0018 -0.1551
 4594TIP3    H135341   4.178   6.227   8.436  1.3356 -1.0540  0.1189
 4594TIP3    H235342   4.273   6.292   8.338 -1.1304  1.5487 -0.6701
 4595TIP3   OH235343   0.456   4.567   8.282  0.9488 -0.1048 -0.6655
 4595TIP3    H135344   0.420   4.497   8.337 -1.8037  0.0190 -2.1262
 4595TIP3    H235345   0.460   4.643   8.340 -0.4655 -0.3489 -0.2165
 4596TIP3   OH235346   6.558   2.448   1.254 -0.6605 -0.3788  0.6859
 4596TIP3    H135347   6.641   2.481   1.219  0.2100 -1.8299  1.3048
 4596TIP3    H235348   6.562   2.353   1.242 -3.3827 -0.3386 -1.7047
 4597TIP3   OH235349   3.971   4.792   0.939 -0.0480  0.3751  0.1070
 4597TIP3    H135350   3.977   4.880   0.902 -0.0294  1.0077  1.5480
 4597TIP3    H235351   4.014   4.736   0.874 -0.5328  1.3354 -1.0817
 4598TIP3   OH235352   5.556   4.833   8.495  0.2900 -0.1947 -0.3372
 4598TIP3    H135353   5.522   4.865   8.411 -0.0495  1.1523  0.2804
 4598TIP3    H235354   5.531   4.901   8.558 -1.7068 -2.3115  1.3510
 4599TIP3   OH235355   3.661   1.858   2.005 -0.2428 -0.2301  0.4924
 4599TIP3    H135356   3.608   1.796   1.955 -0.1905 -0.0741  0.2397
 4599TIP3    H235357   3.735   1.806   2.036  0.3095 -0.0925 -0.5323
 4600TIP3   OH235358   4.076   3.953   0.239  0.5633  0.2260  0.6298
 4600TIP3    H135359   4.155   3.934   0.290  0.7694  0.1185  0.2753
 4600TIP3    H235360   4.083   3.896   0.162 -1.1910 -1.8480  1.8872
 4601TIP3   OH235361   5.963   3.136   7.781 -0.0400  0.2384  0.0843
 4601TIP3    H135362   6.015   3.135   7.700  0.6783 -3.3833  0.4464
 4601TIP3    H235363   5.872   3.132   7.750  0.2172 -0.9220 -0.5825
 4602TIP3   OH235364   0.784   5.293   0.522  0.2832 -0.1235  0.0168
 4602TIP3    H135365   0.717   5.353   0.491 -0.2976 -0.6466  0.2203
 4602TIP3    H235366   0.734   5.218   0.557  0.9885 -0.8500 -0.5058
 4603TIP3   OH235367   4.829   6.306   1.950  0.2729 -0.1950 -0.0801
 4603TIP3    H135368   4.919   6.302   1.983  0.1322 -0.0883  0.3281
 4603TIP3    H235369   4.810   6.399   1.941  0.1685 -0.2144 -0.0655
 4604TIP3   OH235370   2.404   0.542   1.740  0.2128  0.3855 -0.0608
 4604TIP3    H135371   2.316   0.529   1.777  0.2418  0.5202  0.0534
 4604TIP3    H235372   2.400   0.627   1.697  0.7526  1.1545  1.3154
 4605TIP3   OH235373   5.233   3.138   8.183  0.3735  0.3757 -0.8452
 4605TIP3    H135374   5.171   3.211   8.180 -2.1055 -1.5778 -0.7948
 4605TIP3    H235375   5.195   3.071   8.126  3.2202 -0.4507 -1.9384
 4606TIP3   OH235376   5.765   2.579   1.012 -0.0868  0.6725 -0.1870
 4606TIP3    H135377   5.724   2.637   1.076 -2.4129  1.5086 -2.2759
 4606TIP3    H235378   5.696   2.561   0.948  2.1165  0.0143 -2.5510
 4607TIP3   OH235379   3.885   4.203   1.058  0.3524 -0.4860  0.0549
 4607TIP3    H135380   3.854   4.140   0.994  0.5953  1.2837 -1.9214
 4607TIP3    H235381   3.958   4.247   1.014  0.7394  0.5689  1.6837
 4608TIP3   OH235382   5.624   2.547   8.291 -0.3473  0.6891 -0.4631
 4608TIP3    H135383   5.626   2.635   8.329  0.6644  0.5968 -0.2830
 4608TIP3    H235384   5.603   2.490   8.364 -1.5616  0.8225 -0.6881
 4609TIP3   OH235385   5.089   6.129   8.282  0.2366 -0.6048  0.0318
 4609TIP3    H135386   5.012   6.167   8.324 -0.4826 -1.7294 -0.2079
 4609TIP3    H235387   5.095   6.173   8.198  0.1661 -0.1503  0.2607
 4610TIP3   OH235388   3.957   5.730   7.643  0.5879  0.1293  0.3821
 4610TIP3    H135389   3.899   5.776   7.582 -0.4651 -0.5039  0.8755
 4610TIP3    H235390   4.044   5.738   7.604  0.1247  0.7964 -0.5611
 4611TIP3   OH235391   2.423   1.007   7.082  0.9752  0.2302  0.1031
 4611TIP3    H135392   2.410   1.053   6.999  1.3222 -0.4849 -0.3570
 4611TIP3    H235393   2.339   1.015   7.127  1.4002  2.4128  0.6130
 4612TIP3   OH235394   6.806   1.088   0.154 -0.2512  0.2293  0.0874
 4612TIP3    H135395   6.746   1.033   0.104 -0.9211  0.9832  0.0345
 4612TIP3    H235396   6.751   1.160   0.186  0.2868  0.0652  1.4379
 4613TIP3   OH235397   1.873   6.496   0.320  0.3042  0.5754  0.1141
 4613TIP3    H135398   1.943   6.505   0.256 -0.8418 -0.5034 -1.3475
 4613TIP3    H235399   1.874   6.403   0.344 -0.8482  0.4733 -0.1966
 4614TIP3   OH235400   3.447   1.521   7.998  0.1987  0.0054 -0.2424
 4614TIP3    H135401   3.501   1.448   8.028 -1.6382 -1.0370  0.7324
 4614TIP3    H235402   3.402   1.551   8.077  0.3053  1.6936 -0.7820
 4615TIP3   OH235403   4.151   0.183   8.240 -0.0187 -0.8058 -0.3314
 4615TIP3    H135404   4.225   0.168   8.300  0.1687  1.1921 -0.0131
 4615TIP3    H235405   4.150   0.105   8.185  0.4219 -2.2825  1.6130
 4616TIP3   OH235406   1.569   2.585   1.034 -0.4139  0.4543 -0.4168
 4616TIP3    H135407   1.538   2.676   1.028 -2.1542  0.0372  1.2346
 4616TIP3    H235408   1.490   2.532   1.029  0.6243 -1.0435 -1.8385
 4617TIP3   OH235409   6.546   0.739   1.802  0.1888  0.0906  0.4674
 4617TIP3    H135410   6.537   0.834   1.816 -2.2603 -0.0400  0.1828
 4617TIP3    H235411   6.605   0.710   1.871  0.1809  1.6814  1.1903
 4618TIP3   OH235412   3.296   1.765   2.522  0.7334  0.5433 -0.4789
 4618TIP3    H135413   3.274   1.790   2.432 -2.3378  0.7829  0.2302
 4618TIP3    H235414   3.216   1.726   2.556  0.8774  2.8531  2.9778
 4619TIP3   OH235415   1.076   1.577   2.876  0.1717 -0.2436 -0.6379
 4619TIP3    H135416   1.138   1.548   2.809 -1.1956 -0.5868 -1.8338
 4619TIP3    H235417   1.066   1.502   2.934  1.2853  0.0115 -0.1075
 4620TIP3   OH235418   3.367   4.369   0.099 -0.1056 -0.0575  0.0502
 4620TIP3    H135419   3.396   4.402   0.183 -0.5292 -0.4274  0.3475
 4620TIP3    H235420   3.441   4.317   0.067  1.1019  2.2229 -1.0546
 4621TIP3   OH235421   1.844   1.568   0.414 -0.0271 -0.3922 -0.1436
 4621TIP3    H135422   1.887   1.618   0.345 -0.0009 -0.0030  0.1512
 4621TIP3    H235423   1.807   1.635   0.472 -1.9831 -0.6925 -0.9707
 4622TIP3   OH235424   4.400   0.524   7.699  0.8607  0.0210 -0.1895
 4622TIP3    H135425   4.340   0.462   7.657 -0.7254  0.9746  0.5739
 4622TIP3    H235426   4.384   0.512   7.793  2.5375 -0.3149  0.0881
 4623TIP3   OH235427   1.799   4.393   7.495 -0.3657 -0.1134 -0.8475
 4623TIP3    H135428   1.793   4.330   7.566  0.7974  1.1198  0.4130
 4623TIP3    H235429   1.725   4.453   7.509  1.3611  1.7491  1.0770
 4624TIP3   OH235430   0.065   2.448   2.292  0.6774  0.2391  0.6264
 4624TIP3    H135431   0.010   2.525   2.308 -0.5563 -0.0861 -1.5934
 4624TIP3    H235432   0.007   2.374   2.310  0.3419 -0.1060 -1.5532
 4625TIP3   OH235433   3.120   1.742   0.483 -0.0588  0.0765 -0.3798
 4625TIP3    H135434   3.130   1.732   0.388  0.2757 -1.0542 -0.2378
 4625TIP3    H235435   3.032   1.780   0.494  0.7327  2.2957 -1.2292
 4626TIP3   OH235436   1.471   0.164   2.813 -0.4602  0.0795 -0.2373
 4626TIP3    H135437   1.465   0.219   2.891 -0.8891 -0.8979  0.4318
 4626TIP3    H235438   1.411   0.091   2.830  0.9791 -1.2264 -0.5926
 4627TIP3   OH235439   4.934   4.276   7.683 -0.1276 -0.1349  0.0187
 4627TIP3    H135440   4.979   4.291   7.600 -1.1390  2.4946 -0.1554
 4627TIP3    H235441   4.843   4.302   7.666 -0.8824 -1.6461  1.3982
 4628TIP3   OH235442   2.729   6.361   0.485 -0.5500  0.8899  0.1215
 4628TIP3    H135443   2.781   6.360   0.566 -0.1265 -0.1577 -0.1489
 4628TIP3    H235444   2.643   6.329   0.511 -1.0159  2.3637  0.5149
 4629TIP3   OH235445   5.774   4.482   8.093 -0.1043 -1.0117  0.5387
 4629TIP3    H135446   5.818   4.405   8.056 -0.8148 -0.9809 -0.3946
 4629TIP3    H235447   5.719   4.515   8.022  0.0973  0.2983  0.9716
 4630TIP3   OH235448   4.397   0.629   2.426 -0.1375  0.0230  0.1118
 4630TIP3    H135449   4.452   0.694   2.381 -0.2686 -0.3789 -0.6451
 4630TIP3    H235450   4.373   0.671   2.509  1.4680  0.1424  0.5598
 4631TIP3   OH235451   3.522   6.739   7.749 -0.5657  0.3510  0.2268
 4631TIP3    H135452   3.572   6.740   7.667 -3.1424 -0.1059 -1.4789
 4631TIP3    H235453   3.487   6.827   7.757 -2.3376 -0.2342 -0.5706
 4632TIP3   OH235454   4.927   0.835   8.320 -0.4479  0.3303 -0.3000
 4632TIP3    H135455   4.985   0.773   8.276 -0.8847  1.2474 -2.2729
 4632TIP3    H235456   4.875   0.781   8.379  2.1425 -0.5660  1.3298
 4633TIP3   OH235457   2.826   2.321   8.280  0.4800  0.3414 -0.0438
 4633TIP3    H135458   2.740   2.328   8.239  0.0154 -0.2486  0.8173
 4633TIP3    H235459   2.875   2.262   8.223 -0.6558 -1.7130  1.0062
 4634TIP3   OH235460   4.957   5.619   2.980  0.1362 -0.2038 -0.0947
 4634TIP3    H135461   4.966   5.525   2.995  0.9029 -0.4574 -1.8467
 4634TIP3    H235462   4.863   5.633   2.974  0.0293 -0.9484 -0.2727
 4635TIP3   OH235463   0.428   6.672   8.474  0.7138 -0.8049  0.0133
 4635TIP3    H135464   0.505   6.641   8.426  0.9412  0.9657 -0.8414
 4635TIP3    H235465   0.441   6.766   8.483 -0.8548 -0.6222  0.7954
 4636TIP3   OH235466   0.900   6.185   7.050 -0.2188 -0.4637 -0.6634
 4636TIP3    H135467   0.981   6.178   7.000 -0.1042 -0.7219 -0.4391
 4636TIP3    H235468   0.926   6.171   7.141 -0.1982  1.3394 -0.3469
 4637TIP3   OH235469   2.219   6.753   0.048 -0.4997  0.2251 -0.2759
 4637TIP3    H135470   2.201   6.672   0.096  2.9162 -0.6977 -0.2353
 4637TIP3    H235471   2.236   6.724  -0.042  0.9535  0.8084 -0.2192
 4638TIP3   OH235472   5.153   3.474   7.543 -0.0103 -0.0493 -0.5452
 4638TIP3    H135473   5.210   3.506   7.473  0.2793  0.3881 -0.1247
 4638TIP3    H235474   5.214   3.434   7.606 -0.0842  0.9820  0.2085
 4639TIP3   OH235475   0.679   3.438   1.927 -0.6650 -0.0988 -0.1247
 4639TIP3    H135476   0.730   3.518   1.919  0.0722 -0.4102  1.1797
 4639TIP3    H235477   0.627   3.450   2.007 -1.6978 -0.3169 -0.7370
 4640TIP3   OH235478   3.972   4.179   1.838  0.1674 -0.0766  1.0514
 4640TIP3    H135479   3.969   4.238   1.763  0.1029 -0.7773  0.4903
 4640TIP3    H235480   3.933   4.097   1.806  1.1516 -0.7489  1.5098
 4641TIP3   OH235481   5.571   6.424   1.652 -0.4676  0.3194 -0.2285
 4641TIP3    H135482   5.524   6.417   1.569 -0.5571  1.7124 -0.3205
 4641TIP3    H235483   5.508   6.465   1.712 -0.5175 -0.9634  0.6421
 4642TIP3   OH235484   5.528   5.945   1.809 -0.3441  0.0079  0.2892
 4642TIP3    H135485   5.468   5.972   1.879  1.9436  0.3201  2.2469
 4642TIP3    H235486   5.544   6.026   1.760 -2.4421 -0.3345 -1.1054
 4643TIP3   OH235487   5.899   2.405   3.117  0.2871  0.3698  0.7389
 4643TIP3    H135488   5.883   2.389   3.024 -3.4467  1.9674  0.9473
 4643TIP3    H235489   5.886   2.320   3.159 -0.7786  0.1734  0.0433
 4644TIP3   OH235490   5.144   6.411   1.810 -0.0281 -0.2512 -0.0272
 4644TIP3    H135491   5.100   6.489   1.844  0.5080  0.1062 -0.1512
 4644TIP3    H235492   5.236   6.423   1.833  0.2788 -0.1902 -1.2410
 4645TIP3   OH235493   0.820   1.562   2.595  0.1774 -0.1440  0.1706
 4645TIP3    H135494   0.823   1.645   2.643  0.3628 -0.3925  0.6006
 4645TIP3    H235495   0.911   1.547   2.569 -0.2161  1.1356 -2.3029
 4646TIP3   OH235496   5.605   6.832   8.165 -0.0524  0.2260  0.5253
 4646TIP3    H135497   5.578   6.740   8.164  1.7277 -0.3258  0.3174
 4646TIP3    H235498   5.700   6.829   8.174  0.0265  2.0608  0.6288
 4647TIP3   OH235499   1.552   5.579   0.009  0.1339  0.6396 -0.1977
 4647TIP3    H135500   1.536   5.504   0.066 -0.4550  1.2265  0.4416
 4647TIP3    H235501   1.641   5.607   0.030  0.4073  0.0535 -0.5381
 4648TIP3   OH235502   4.476   0.284   0.614 -0.4577  0.2258  0.2893
 4648TIP3    H135503   4.380   0.283   0.614 -0.4977 -1.3627 -1.6996
 4648TIP3    H235504   4.501   0.200   0.652  0.2190  1.1092  1.9071
 4649TIP3   OH235505   4.891   0.097   0.924  0.2330  0.1682  0.0673
 4649TIP3    H135506   4.865   0.143   0.844  2.5306 -1.6696 -1.8858
 4649TIP3    H235507   4.971   0.142   0.952  1.1754 -1.0856 -0.5171
 4650TIP3   OH235508   3.077   3.888   1.169 -0.2895 -0.6666  0.1240
 4650TIP3    H135509   3.036   3.856   1.250  0.6364 -0.4484  0.6984
 4650TIP3    H235510   3.117   3.810   1.131 -0.5569 -0.7328 -0.0233
 4651TIP3   OH235511   2.739   6.525   7.894 -0.1919 -0.5000  0.1026
 4651TIP3    H135512   2.772   6.436   7.902 -0.9353 -0.7755  0.1847
 4651TIP3    H235513   2.817   6.580   7.897  0.3165 -1.1782 -0.5675
 4652TIP3   OH235514   0.679   0.638   0.451 -0.4519  0.8878 -0.5561
 4652TIP3    H135515   0.643   0.589   0.525  0.2706  0.3558 -0.5427
 4652TIP3    H235516   0.692   0.572   0.383  2.3493  0.6313  0.1098
 4653TIP3   OH235517   5.924   4.747   7.801  0.3373  0.4129 -0.0148
 4653TIP3    H135518   6.011   4.722   7.832 -0.2565  1.3881  2.6259
 4653TIP3    H235519   5.874   4.665   7.800  0.5746  0.2563  0.9649
 4654TIP3   OH235520   1.345   6.208   8.543  0.1465  0.1775  0.0764
 4654TIP3    H135521   1.376   6.202   8.633  1.8353  0.9807 -0.3946
 4654TIP3    H235522   1.322   6.119   8.518  2.0197 -0.4777  0.5455
 4655TIP3   OH235523   4.785   5.615   6.954 -0.7912 -0.3824 -0.1610
 4655TIP3    H135524   4.872   5.634   6.990 -0.5600 -1.5111 -0.1105
 4655TIP3    H235525   4.745   5.702   6.943 -0.2269  0.0820  1.2152
 4656TIP3   OH235526   4.644   0.603   0.565  0.0351  0.0349  0.9491
 4656TIP3    H135527   4.592   0.589   0.486  0.4517 -0.9148  0.8348
 4656TIP3    H235528   4.727   0.558   0.547  1.7643  3.0978  0.2790
 4657TIP3   OH235529   4.315   3.248   0.849  0.3698  0.5221 -0.7368
 4657TIP3    H135530   4.276   3.161   0.861 -0.9007  1.1609  0.0011
 4657TIP3    H235531   4.260   3.290   0.783 -0.2955  1.4659  0.3735
 4658TIP3   OH235532   1.218   2.990   1.547  0.0124 -0.2016 -0.2731
 4658TIP3    H135533   1.218   2.921   1.481  0.1742 -0.9974  0.5467
 4658TIP3    H235534   1.293   2.971   1.602  0.4763  1.0453 -0.4469
 4659TIP3   OH235535   6.316   1.628   8.574 -0.3515 -0.0889  0.4314
 4659TIP3    H135536   6.245   1.691   8.582 -1.6432 -1.4510  0.2263
 4659TIP3    H235537   6.289   1.555   8.630  1.2197 -0.3596  0.8786
 4660TIP3   OH235538   4.653   1.321   2.081 -0.0299  0.3377  0.2289
 4660TIP3    H135539   4.596   1.396   2.098 -0.5084  0.9589 -3.3441
 4660TIP3    H235540   4.595   1.253   2.048  0.8624 -0.1988 -0.2871
 4661TIP3   OH235541   1.899   2.163   1.232  0.3421  0.1341 -0.0063
 4661TIP3    H135542   1.858   2.076   1.232  2.3008 -0.8325 -0.6059
 4661TIP3    H235543   1.828   2.222   1.258 -1.6236 -1.3372 -1.6683
 4662TIP3   OH235544   1.983   0.504   1.041  0.4270  0.6104  0.0814
 4662TIP3    H135545   1.952   0.524   1.130  2.2546  0.2736  0.8387
 4662TIP3    H235546   1.933   0.564   0.985 -1.5982  0.0467  1.1764
 4663TIP3   OH235547   1.909   5.503   7.950  0.4681 -0.1171  0.0324
 4663TIP3    H135548   1.917   5.597   7.939 -0.9392  0.2005  1.3256
 4663TIP3    H235549   1.958   5.484   8.030  1.3680 -0.6114 -0.6255
 4664TIP3   OH235550   4.129   2.943   7.082 -0.7962 -0.2199  0.0979
 4664TIP3    H135551   4.177   2.920   7.162  1.7976  0.6375 -1.0889
 4664TIP3    H235552   4.082   3.023   7.105 -0.0321  0.0544  0.7889
 4665TIP3   OH235553   0.167   1.269   7.860 -1.1103 -0.0983 -0.0817
 4665TIP3    H135554   0.196   1.357   7.835 -0.6108 -0.2378 -0.0155
 4665TIP3    H235555   0.176   1.218   7.779 -1.8600  0.0231 -0.2417
 4666TIP3   OH235556   4.027   6.553   7.824  0.5011  0.3459  0.2677
 4666TIP3    H135557   4.048   6.600   7.744  0.5988 -1.3494 -0.7578
 4666TIP3    H235558   4.096   6.577   7.886  0.5988  1.4328 -0.2570
 4667TIP3   OH235559   2.435   2.175   1.179  0.1082  0.0173  0.2714
 4667TIP3    H135560   2.448   2.270   1.175  2.2732 -0.2236  0.2899
 4667TIP3    H235561   2.366   2.163   1.244 -2.1584  1.6781 -1.6624
 4668TIP3   OH235562   1.365   5.944   7.441 -0.4869 -0.3600 -0.1382
 4668TIP3    H135563   1.310   5.949   7.519  0.4054 -3.1541  0.7822
 4668TIP3    H235564   1.451   5.974   7.471 -0.3622 -0.5567 -0.3017
 4669TIP3   OH235565   6.769   5.484   1.000  0.1711  0.2652  0.0128
 4669TIP3    H135566   6.823   5.425   0.947 -0.3340 -0.6705  0.5187
 4669TIP3    H235567   6.767   5.566   0.950  0.9356 -0.1146 -0.6705
 4670TIP3   OH235568   2.559   1.427   7.973  0.0892 -0.1947 -0.2489
 4670TIP3    H135569   2.645   1.426   7.931 -0.1900  0.2422 -0.8453
 4670TIP3    H235570   2.522   1.512   7.949  0.6335  0.8958  2.3789
 4671TIP3   OH235571   1.267   0.783   2.371 -0.3974 -0.0380 -0.1379
 4671TIP3    H135572   1.283   0.694   2.403 -2.1351 -0.5178 -0.4766
 4671TIP3    H235573   1.220   0.826   2.442 -2.1650 -0.3602 -1.0592
 4672TIP3   OH235574   0.555   6.408   6.658 -0.0477 -0.0202 -0.1862
 4672TIP3    H135575   0.649   6.420   6.644 -0.3569  1.4905 -1.2621
 4672TIP3    H235576   0.537   6.459   6.737 -0.0811  0.3221 -0.4119
 4673TIP3   OH235577   5.099   3.366   8.601  0.3261  0.1045 -0.0448
 4673TIP3    H135578   5.155   3.433   8.563 -1.7694  1.1237 -1.5480
 4673TIP3    H235579   5.015   3.377   8.556 -0.3661 -2.9753  0.2889
 4674TIP3   OH235580   0.688   2.269   0.435 -0.4043  0.1615  0.1573
 4674TIP3    H135581   0.654   2.295   0.521 -1.7978 -0.5457 -0.1362
 4674TIP3    H235582   0.710   2.352   0.392 -3.1916  0.8655 -0.1459
 4675TIP3   OH235583   3.935   5.152   0.360  0.3197  0.2999 -0.2167
 4675TIP3    H135584   3.862   5.168   0.300  1.2594 -0.2040 -1.5223
 4675TIP3    H235585   3.924   5.219   0.428 -0.3279  1.3829 -1.3468
 4676TIP3   OH235586   0.506   1.413   1.057  0.0393 -0.1959 -0.1634
 4676TIP3    H135587   0.581   1.440   1.110 -0.2983  1.6921 -0.5708
 4676TIP3    H235588   0.542   1.358   0.988  0.5262 -2.5237  1.8135
 4677TIP3   OH235589   3.193   4.169   0.195  0.2631  0.0865  0.7490
 4677TIP3    H135590   3.229   4.258   0.195  0.8737 -0.1495  1.5156
 4677TIP3    H235591   3.126   4.171   0.127  0.5535  1.0173  0.4642
 4678TIP3   OH235592   0.105   4.475   2.230  0.3596  0.7535 -0.0364
 4678TIP3    H135593   0.184   4.422   2.225  0.9036  1.6569 -2.2259
 4678TIP3    H235594   0.062   4.447   2.310  1.8913 -1.1660  0.1790
 4679TIP3   OH235595   5.167   6.072   7.991 -0.1671  0.7728  0.5140
 4679TIP3    H135596   5.072   6.072   7.996 -0.1179  2.2218  2.8717
 4679TIP3    H235597   5.191   5.980   8.000 -1.3116  0.1821 -1.6621
 4680TIP3   OH235598   5.894   1.785   2.865  0.3629  0.1124  0.1620
 4680TIP3    H135599   5.928   1.722   2.929  1.8027  0.9426  0.2493
 4680TIP3    H235600   5.947   1.771   2.787 -1.5597 -1.0834 -1.0160
 4681TIP3   OH235601   0.436   2.021   2.785  0.1099  0.3785 -0.1075
 4681TIP3    H135602   0.392   2.024   2.870  1.8764 -0.3703  0.8725
 4681TIP3    H235603   0.516   2.071   2.797  0.9134 -0.6484 -0.9876
 4682TIP3   OH235604   6.650   2.185   8.593  0.0201  0.1095  0.2031
 4682TIP3    H135605   6.713   2.136   8.539  1.9185  0.9717  1.5288
 4682TIP3    H235606   6.598   2.117   8.637 -0.1420 -0.6176 -1.0758
 4683TIP3   OH235607   1.475   5.006   1.508  0.0994 -0.3742 -0.7160
 4683TIP3    H135608   1.436   5.093   1.505 -2.4406 -1.4081 -0.4450
 4683TIP3    H235609   1.472   4.982   1.601 -0.1886 -1.1320 -0.9123
 4684TIP3   OH235610   2.447   0.811   0.612  0.2279 -0.4955  0.1658
 4684TIP3    H135611   2.489   0.794   0.528  0.0167  0.4093 -0.1339
 4684TIP3    H235612   2.442   0.725   0.654  0.5525 -0.9199 -0.6379
 4685TIP3   OH235613   5.644   3.904   7.465  0.0939 -0.3507  0.0302
 4685TIP3    H135614   5.564   3.955   7.464 -0.1516 -0.5800  2.5376
 4685TIP3    H235615   5.631   3.837   7.398 -1.7256 -0.2509  0.2426
 4686TIP3   OH235616   2.880   5.961   0.102 -0.1023 -0.0455  0.0726
 4686TIP3    H135617   2.867   6.046   0.144  1.1983 -0.2381  0.9247
 4686TIP3    H235618   2.831   5.899   0.156  0.7718 -0.1484  0.7681
 4687TIP3   OH235619   5.125   6.294   1.073  0.0582  0.0902 -0.6976
 4687TIP3    H135620   5.079   6.377   1.087 -2.2622 -0.9817 -1.4642
 4687TIP3    H235621   5.212   6.308   1.110 -0.2885  2.8238 -0.7302
 4688TIP3   OH235622   2.684   5.694   0.165 -0.2940 -0.4171 -0.2745
 4688TIP3    H135623   2.762   5.704   0.219  0.3217  2.0366 -1.4811
 4688TIP3    H235624   2.615   5.672   0.227  0.8076  0.0924  1.1999
 4689TIP3   OH235625   4.497   5.215   8.326 -0.0007 -0.3269  0.1004
 4689TIP3    H135626   4.455   5.219   8.412  0.9881 -1.1599  0.6489
 4689TIP3    H235627   4.486   5.124   8.298 -0.3716 -0.0476 -0.6902
 4690TIP3   OH235628   3.738   0.468   8.308 -0.3068  0.1278  0.0515
 4690TIP3    H135629   3.713   0.543   8.363 -1.3340  0.6831 -1.1321
 4690TIP3    H235630   3.796   0.505   8.242  0.0128 -0.3333  0.0681
 4691TIP3   OH235631   5.689   6.342   7.945  0.1036 -0.4053  0.2508
 4691TIP3    H135632   5.650   6.276   7.888 -0.3109 -1.5006  1.7294
 4691TIP3    H235633   5.756   6.294   7.994 -0.4268  0.1708  1.5821
 4692TIP3   OH235634   0.775   1.511   1.057 -0.3056 -0.0321  0.0555
 4692TIP3    H135635   0.755   1.494   0.965  2.3695 -1.7186 -0.3298
 4692TIP3    H235636   0.767   1.606   1.066 -0.2953  0.2142 -2.0131
 4693TIP3   OH235637   3.539   0.277   1.785 -0.4265  0.1020  0.0477
 4693TIP3    H135638   3.471   0.258   1.850 -0.5836  1.7891  0.4210
 4693TIP3    H235639   3.576   0.361   1.812  0.2665  0.3075 -1.4265
 4694TIP3   OH235640   4.358   6.079   7.350 -0.6439  0.1073  0.1194
 4694TIP3    H135641   4.422   6.137   7.392 -0.6891  1.2409 -1.3041
 4694TIP3    H235642   4.412   6.013   7.307 -0.3884  1.0677 -1.0874
 4695TIP3   OH235643   0.905   4.031   2.653 -0.6594 -0.6866 -0.1730
 4695TIP3    H135644   0.841   4.062   2.717 -0.7999  0.6190 -0.9127
 4695TIP3    H235645   0.984   4.016   2.704 -0.3709  1.6043  0.1604
 4696TIP3   OH235646   3.334   3.602   0.746  0.4180 -0.4005 -0.1903
 4696TIP3    H135647   3.366   3.690   0.728  0.6930 -0.5315 -0.3526
 4696TIP3    H235648   3.254   3.615   0.797 -0.4940  0.0095 -1.6518
 4697TIP3   OH235649   3.779   4.879   0.490  0.1613 -0.0773 -0.4063
 4697TIP3    H135650   3.874   4.877   0.480  0.2852 -0.5244  0.7662
 4697TIP3    H235651   3.760   4.967   0.523 -0.0392  0.6380 -2.2678
 4698TIP3   OH235652   2.727   3.357   7.663  0.1130 -0.0500 -0.3400
 4698TIP3    H135653   2.677   3.392   7.737 -1.2335 -2.4491  0.0102
 4698TIP3    H235654   2.803   3.314   7.703 -0.1482 -0.5854 -0.4063
 4699TIP3   OH235655   0.206   1.705   1.456 -1.0611  0.4405  0.1467
 4699TIP3    H135656   0.266   1.641   1.495 -1.5096 -2.0066 -2.8130
 4699TIP3    H235657   0.240   1.789   1.485 -0.3758 -0.9881  4.2106
 4700TIP3   OH235658   3.043   0.616   0.838 -0.4996  0.5271 -0.2848
 4700TIP3    H135659   3.043   0.638   0.745 -1.5552  0.0428 -0.4100
 4700TIP3    H235660   2.956   0.640   0.869  0.0308  1.2452  0.7342
 4701TIP3   OH235661   3.563   2.081   8.311 -0.3852  0.8564  0.7726
 4701TIP3    H135662   3.568   2.116   8.222 -0.9843 -0.9110  0.0001
 4701TIP3    H235663   3.628   2.011   8.313 -2.1574 -0.8710  0.8384
 4702TIP3   OH235664   2.982   4.516   0.839  0.1182  0.4390  0.1536
 4702TIP3    H135665   2.892   4.487   0.827  0.2167  0.3311 -0.3345
 4702TIP3    H235666   3.033   4.436   0.844  0.1622  0.4956  0.6592
 4703TIP3   OH235667   0.199   3.608   7.812  0.1560  0.2274 -0.0811
 4703TIP3    H135668   0.249   3.629   7.890  1.4225 -2.4708 -0.0757
 4703TIP3    H235669   0.112   3.585   7.844  0.5737 -0.5486  0.5230
 4704TIP3   OH235670   5.134   2.127   8.280  0.3911  0.2704  0.0034
 4704TIP3    H135671   5.124   2.218   8.306 -0.5587  0.3233 -0.4990
 4704TIP3    H235672   5.047   2.088   8.295  0.7484 -0.5198  0.0995
 4705TIP3   OH235673   3.470   1.289   1.598  0.1177 -0.3657 -0.5408
 4705TIP3    H135674   3.424   1.207   1.617 -0.2496  0.2033  1.2016
 4705TIP3    H235675   3.550   1.284   1.650 -0.6098  0.9745  0.8039
 4706TIP3   OH235676   3.610   2.644   0.110  0.1586 -0.5251  0.1655
 4706TIP3    H135677   3.574   2.616   0.194 -1.8568  0.8241 -0.1911
 4706TIP3    H235678   3.705   2.638   0.122 -0.0561 -3.6789  1.3476
 4707TIP3   OH235679   3.353   5.313   7.598 -0.5965 -0.7066  0.0301
 4707TIP3    H135680   3.271   5.344   7.559 -0.0227 -0.3407 -0.9083
 4707TIP3    H235681   3.421   5.367   7.558 -0.0709  0.7560  2.6263
 4708TIP3   OH235682   0.708   3.647   1.298 -0.2231  1.0334 -0.2768
 4708TIP3    H135683   0.728   3.581   1.365 -0.3505 -1.9836 -2.9775
 4708TIP3    H235684   0.615   3.637   1.281  0.0056  1.0014 -1.6105
 4709TIP3   OH235685   1.838   3.144   2.585  0.1351 -0.2541 -0.2194
 4709TIP3    H135686   1.803   3.159   2.497  0.0699  1.1575  0.0263
 4709TIP3    H235687   1.761   3.145   2.642  0.2607 -0.3539 -0.0478
 4710TIP3   OH235688   0.105   6.134   7.544 -0.0416  0.1216 -0.0522
 4710TIP3    H135689   0.022   6.182   7.546  0.8067  1.6232 -0.0558
 4710TIP3    H235690   0.138   6.145   7.455  0.0501 -0.6995 -0.1283
 4711TIP3   OH235691   1.916   2.595   6.345 -0.5025 -0.1209  0.2047
 4711TIP3    H135692   1.959   2.549   6.272 -2.8066  0.0498 -1.3981
 4711TIP3    H235693   1.987   2.636   6.393  1.2177 -1.0583 -1.3966
 4712TIP3   OH235694   5.347   3.038   8.402  0.4295  0.6204  0.0565
 4712TIP3    H135695   5.378   3.128   8.418  1.2947  0.4253 -0.4405
 4712TIP3    H235696   5.297   3.044   8.320  0.2386  0.6978  0.1773
 4713TIP3   OH235697   3.451   6.030   0.040  0.4136  0.0036  0.3764
 4713TIP3    H135698   3.390   5.967   0.078 -0.4914 -0.4684 -1.7596
 4713TIP3    H235699   3.442   6.108   0.096  0.2807 -1.1447  2.0165
 4714TIP3   OH235700   2.401   5.446   1.422 -0.0630  0.1091  0.1376
 4714TIP3    H135701   2.490   5.470   1.448  0.2403 -0.8687  0.0273
 4714TIP3    H235702   2.406   5.435   1.327 -0.4659  0.7238  0.0430
 4715TIP3   OH235703   4.442   6.801   0.134  0.2970 -0.1039 -0.6681
 4715TIP3    H135704   4.375   6.757   0.186  3.4867 -3.0790  1.3521
 4715TIP3    H235705   4.490   6.855   0.197  0.8429  0.6676 -1.7119
 4716TIP3   OH235706   5.834   5.034   0.177  0.2622 -0.4966  0.3296
 4716TIP3    H135707   5.747   4.999   0.194  0.2390 -0.2223  0.7775
 4716TIP3    H235708   5.824   5.083   0.095 -0.5534  1.3907  1.4834
 4717TIP3   OH235709   5.334   0.503   2.388  0.2020 -0.3444 -0.2070
 4717TIP3    H135710   5.319   0.596   2.369 -0.6130 -0.2377  0.8323
 4717TIP3    H235711   5.322   0.459   2.304  2.1455  0.6265 -1.0652
 4718TIP3   OH235712   3.506   6.153   0.984 -0.0513 -0.4639 -0.3292
 4718TIP3    H135713   3.581   6.096   1.003  0.2563 -0.5765 -1.7478
 4718TIP3    H235714   3.457   6.106   0.916 -1.0145 -0.0457  0.0620
 4719TIP3   OH235715   1.343   6.246   0.933  0.0487  0.0440 -0.0177
 4719TIP3    H135716   1.424   6.281   0.897  0.1972 -0.9556 -0.6896
 4719TIP3    H235717   1.366   6.220   1.023  0.4322 -0.1168 -0.1633
 4720TIP3   OH235718   5.102   1.028   1.026 -0.3370  0.9806 -0.0689
 4720TIP3    H135719   5.184   1.062   1.063 -0.1757 -0.5619  1.1148
 4720TIP3    H235720   5.128   0.945   0.984 -1.4905 -0.2720  1.5935
 4721TIP3   OH235721   3.294   5.371   7.028  0.1803 -0.4600 -0.5216
 4721TIP3    H135722   3.305   5.308   6.957 -0.3040 -0.3306 -0.7149
 4721TIP3    H235723   3.262   5.450   6.985  0.1721 -0.2861 -0.1983
 4722TIP3   OH235724   3.353   2.520   0.257  0.6718  0.2205  0.0351
 4722TIP3    H135725   3.302   2.595   0.225 -0.3941 -0.5106 -0.0417
 4722TIP3    H235726   3.328   2.447   0.199  1.8292 -0.1667 -0.0082
 4723TIP3   OH235727   3.102   0.948   0.543  0.3704  0.1618  0.1243
 4723TIP3    H135728   3.028   1.008   0.553 -1.0149 -1.2743 -0.9380
 4723TIP3    H235729   3.165   0.997   0.491  0.8203  1.9041  2.1454
 4724TIP3   OH235730   3.102   5.785   7.996 -0.0603  0.4594  0.1537
 4724TIP3    H135731   3.027   5.809   7.941  1.0309 -1.0296 -2.1850
 4724TIP3    H235732   3.167   5.854   7.979  1.2113 -1.2383 -2.6048
 4725TIP3   OH235733   6.216   2.685   1.708  0.5110  0.7153 -0.2514
 4725TIP3    H135734   6.261   2.601   1.715 -0.6591  0.1167  0.4099
 4725TIP3    H235735   6.236   2.730   1.790  0.3724  0.6836 -0.1996
 4726TIP3   OH235736   3.360   3.395   1.919  0.0937  0.1569 -0.2499
 4726TIP3    H135737   3.367   3.473   1.863 -0.0767  1.1886  1.0939
 4726TIP3    H235738   3.319   3.428   1.999 -0.9667 -1.5518 -0.0457
 4727TIP3   OH235739   6.035   1.242   1.794 -0.2731 -0.1835 -0.1339
 4727TIP3    H135740   5.967   1.244   1.726  0.0193 -1.2684 -0.4693
 4727TIP3    H235741   6.031   1.330   1.833 -0.3065  0.5440 -1.6889
 4728TIP3   OH235742   5.929   1.320   2.817 -0.1925  0.1135  0.5165
 4728TIP3    H135743   5.966   1.323   2.905 -0.4249 -0.0456  0.6211
 4728TIP3    H235744   5.999   1.353   2.760 -1.1701  3.5494  1.0941
 4729TIP3   OH235745   0.008   6.790   1.012  0.1458  0.1734  0.3177
 4729TIP3    H135746   0.033   6.825   1.097 -3.6503  2.4794  0.7232
 4729TIP3    H235747   0.036   6.856   0.949 -0.0529  0.1441  0.1951
 4730TIP3   OH235748   5.284   1.537   7.293  0.5485 -0.1647  0.5658
 4730TIP3    H135749   5.362   1.540   7.349  0.6189 -0.6823  0.4983
 4730TIP3    H235750   5.297   1.459   7.239  0.4965  0.3484 -0.1952
 4731TIP3   OH235751   0.032   5.620   0.052  0.1811  0.5868 -0.1390
 4731TIP3    H135752   0.101   5.570   0.008  1.2959  2.4242 -0.6321
 4731TIP3    H235753   0.009   5.568   0.128  1.2108 -0.7015 -0.6639
 4732TIP3   OH235754   5.561   5.132   8.569 -0.0233  0.4003  0.0302
 4732TIP3    H135755   5.587   5.204   8.512 -0.9738  0.6865 -0.0605
 4732TIP3    H235756   5.470   5.151   8.592  0.3464  0.3393  1.7186
 4733TIP3   OH235757   0.515   4.054   7.930  0.3293 -0.2915  0.6938
 4733TIP3    H135758   0.461   4.060   7.852 -3.8549 -1.4414  3.1716
 4733TIP3    H235759   0.527   4.145   7.958  0.7137  0.0468 -0.5402
 4734TIP3   OH235760   6.869   2.960   1.985 -0.3904 -0.6779  0.1147
 4734TIP3    H135761   6.863   2.924   1.897 -0.4350 -1.4620  0.4314
 4734TIP3    H235762   6.949   2.921   2.021 -0.6956 -0.8321  0.6287
 4735TIP3   OH235763   5.115   5.896   6.977  0.2550  0.2425  0.1515
 4735TIP3    H135764   5.086   5.861   7.061  0.6008  0.6591  0.4536
 4735TIP3    H235765   5.134   5.988   6.995  0.7946  0.2197 -0.2677
 4736TIP3   OH235766   3.527   5.309   0.285  0.1394  0.3277  0.0801
 4736TIP3    H135767   3.465   5.359   0.232 -0.1574  0.2739  0.3736
 4736TIP3    H235768   3.478   5.285   0.363  1.4729  3.1204  1.9245
 4737TIP3   OH235769   0.796   4.144   7.375  0.2647  0.5245  0.3500
 4737TIP3    H135770   0.853   4.132   7.450  0.0378  1.3444  0.6645
 4737TIP3    H235771   0.851   4.186   7.309  0.4043  0.0014  0.1225
 4738TIP3   OH235772   4.383   0.930   6.971 -0.5307  0.5158  0.1907
 4738TIP3    H135773   4.427   0.916   7.054 -1.6575  0.5376  0.8076
 4738TIP3    H235774   4.345   1.017   6.978 -2.3331 -0.2408  0.4784
 4739TIP3   OH235775   3.180   5.181   6.825  0.9043 -0.4641 -0.2035
 4739TIP3    H135776   3.115   5.128   6.871  0.8180  1.0833  1.5690
 4739TIP3    H235777   3.217   5.121   6.759 -1.9523 -1.5277 -1.0098
 4740TIP3   OH235778   4.743   4.720   8.510 -0.2646  0.7433 -0.1727
 4740TIP3    H135779   4.744   4.812   8.536 -0.6987  1.1004 -1.3759
 4740TIP3    H235780   4.653   4.692   8.527 -0.2930  0.7131 -0.3718
 4741TIP3   OH235781   3.973   1.343   0.258  0.0109  0.2580 -0.7448
 4741TIP3    H135782   4.043   1.278   0.260 -1.3858 -1.3087 -1.2879
 4741TIP3    H235783   3.984   1.388   0.174  0.6330  0.3588 -0.6169
 4742TIP3   OH235784   1.783   4.573   8.045 -0.2555 -0.3022 -0.1735
 4742TIP3    H135785   1.811   4.570   8.137 -2.3900  1.4220  0.6215
 4742TIP3    H235786   1.707   4.516   8.041 -1.1121  0.8188 -0.4506
 4743TIP3   OH235787   3.621   0.328   1.246 -0.3310  0.2363  0.0994
 4743TIP3    H135788   3.624   0.330   1.342 -0.0072  1.4677  0.0799
 4743TIP3    H235789   3.543   0.277   1.226 -0.6424  0.3286  1.0329
 4744TIP3   OH235790   6.297   1.278   3.107 -0.9867  0.2404  0.1094
 4744TIP3    H135791   6.372   1.235   3.148 -1.3857  0.1443  0.7604
 4744TIP3    H235792   6.325   1.296   3.017 -0.9016 -1.6956 -0.2967
 4745TIP3   OH235793   2.857   2.092   2.314  0.6912  0.0907 -0.1868
 4745TIP3    H135794   2.799   2.030   2.359 -2.0869  0.6816 -2.5927
 4745TIP3    H235795   2.914   2.037   2.261 -2.3311 -0.6811 -3.0001
 4746TIP3   OH235796   5.552   2.633   2.769  0.4030  0.1240 -0.1901
 4746TIP3    H135797   5.494   2.561   2.794 -1.4399  1.3084 -0.8668
 4746TIP3    H235798   5.636   2.591   2.751 -0.3157 -1.7066  0.4767
 4747TIP3   OH235799   4.053   4.939   2.659 -0.3170 -0.4055 -0.1146
 4747TIP3    H135800   4.061   4.953   2.565  0.5364 -1.4744 -0.2150
 4747TIP3    H235801   4.142   4.951   2.693 -0.3590 -1.3163  0.3581
 4748TIP3   OH235802   1.522   3.867   0.778 -0.6286 -0.0203 -0.1572
 4748TIP3    H135803   1.553   3.954   0.801  0.0743 -0.2471 -0.2294
 4748TIP3    H235804   1.598   3.810   0.790 -0.3949 -0.2674 -2.3806
 4749TIP3   OH235805   5.486   1.018   1.454  0.6290  0.2892 -0.1846
 4749TIP3    H135806   5.502   0.978   1.539 -3.5109  0.6208  0.9857
 4749TIP3    H235807   5.497   0.946   1.391  0.3332 -0.8982  1.0646
 4750TIP3   OH235808   5.412   6.609   0.568  0.5854 -0.1273  0.3162
 4750TIP3    H135809   5.372   6.692   0.541  2.4387  0.8749  0.4906
 4750TIP3    H235810   5.407   6.554   0.489 -1.7198 -0.3362  0.5328
 4751TIP3   OH235811   4.981   4.073   7.192 -0.8639 -0.1168 -0.3386
 4751TIP3    H135812   4.963   4.136   7.123  0.6283  0.1921 -0.4877
 4751TIP3    H235813   5.050   4.113   7.244 -0.6077 -1.1702  0.1716
 4752TIP3   OH235814   6.712   2.906   0.076  0.2572  0.5989 -0.1308
 4752TIP3    H135815   6.680   2.916   0.165 -2.1518 -0.4135 -0.8161
 4752TIP3    H235816   6.638   2.930   0.020  0.5718 -1.9794 -1.8282
 4753TIP3   OH235817   3.844   4.409   3.197  0.4775  0.0709  0.4912
 4753TIP3    H135818   3.859   4.436   3.287  0.1908  0.3758  0.4503
 4753TIP3    H235819   3.825   4.491   3.150  0.3211 -0.1191  0.2184
 4754TIP3   OH235820   1.164   1.163   0.649  0.4631  0.8267 -0.2632
 4754TIP3    H135821   1.225   1.134   0.718  0.3379  0.9763 -0.0900
 4754TIP3    H235822   1.106   1.225   0.693  0.6757  1.2796 -0.6132
 4755TIP3   OH235823   5.558   4.187   7.803  0.5566 -0.0741 -0.1187
 4755TIP3    H135824   5.599   4.266   7.839  3.1755 -0.2369 -2.3929
 4755TIP3    H235825   5.507   4.219   7.728  0.2162 -0.3615 -0.0092
 4756TIP3   OH235826   0.332   0.590   2.913 -0.0037 -0.1211  0.5312
 4756TIP3    H135827   0.258   0.613   2.968  0.5885  0.2822  1.1849
 4756TIP3    H235828   0.351   0.670   2.863 -0.1983 -0.3183  0.1357
 4757TIP3   OH235829   1.719   1.096   2.109  0.5346 -0.6103 -0.4978
 4757TIP3    H135830   1.691   1.065   2.023 -1.5978  0.4317 -0.2677
 4757TIP3    H235831   1.637   1.116   2.155  1.6525  0.7571  1.0513
 4758TIP3   OH235832   4.095   0.214   0.282  0.0804 -0.5246 -0.4052
 4758TIP3    H135833   4.007   0.230   0.314  0.5237  3.8626 -0.8138
 4758TIP3    H235834   4.086   0.205   0.187  0.1540  4.0806 -1.0916
 4759TIP3   OH235835   4.578   2.751   8.127 -0.0199 -0.7810 -0.3537
 4759TIP3    H135836   4.509   2.695   8.163 -0.5429  0.7809  1.1881
 4759TIP3    H235837   4.534   2.805   8.062  0.2843 -1.4486 -1.1327
 4760TIP3   OH235838   1.811   0.910   8.137 -0.4194 -0.1599  0.7490
 4760TIP3    H135839   1.747   0.956   8.082 -0.5255 -1.3174 -0.1405
 4760TIP3    H235840   1.777   0.821   8.144  0.3028 -0.3846  1.5771
 4761TIP3   OH235841   2.684   2.050   1.244 -0.7266  0.0662  0.1380
 4761TIP3    H135842   2.687   2.095   1.328 -0.7867  0.7542 -0.2227
 4761TIP3    H235843   2.621   2.100   1.193  0.9395  1.0254 -1.0907
 4762TIP3   OH235844   1.400   3.773   1.507 -0.0484 -0.1125 -0.0596
 4762TIP3    H135845   1.324   3.765   1.565 -1.7238 -0.6096 -2.1608
 4762TIP3    H235846   1.399   3.864   1.479  1.5238  0.4609  1.5750
 4763TIP3   OH235847   1.256   3.501   7.144  0.0636  0.3459  0.5779
 4763TIP3    H135848   1.342   3.475   7.111 -0.1305 -0.8641  0.9700
 4763TIP3    H235849   1.215   3.547   7.071 -0.3416 -2.2183 -0.9188
 4764TIP3   OH235850   6.845   3.256   0.260 -0.2417  0.7564  0.1437
 4764TIP3    H135851   6.786   3.267   0.186 -1.2387  0.8255  0.9142
 4764TIP3    H235852   6.907   3.328   0.253  0.4568  0.0467 -1.3014
 4765TIP3   OH235853   4.047   2.095   1.718  0.3307 -0.2066  0.0437
 4765TIP3    H135854   4.139   2.108   1.738  0.4146 -0.1347 -0.3864
 4765TIP3    H235855   4.004   2.091   1.804  0.4511  1.7798  0.2250
 4766TIP3   OH235856   4.729   4.495   1.053 -0.3599  0.1766 -0.5181
 4766TIP3    H135857   4.781   4.573   1.071  1.1807 -0.8405 -0.3610
 4766TIP3    H235858   4.736   4.483   0.958  0.2953 -0.3391 -0.4150
 4767TIP3   OH235859   5.231   5.814   8.046  0.1606  0.5277 -0.1435
 4767TIP3    H135860   5.178   5.823   8.125  1.4016  2.4430  0.5302
 4767TIP3    H235861   5.313   5.776   8.076 -0.2933 -1.1993 -0.9755
 4768TIP3   OH235862   3.295   3.687   8.604  0.1346 -0.4552 -0.0420
 4768TIP3    H135863   3.346   3.752   8.653 -0.6203 -0.8439  1.2960
 4768TIP3    H235864   3.237   3.739   8.548  0.9364 -0.0046 -0.4744
 4769TIP3   OH235865   4.588   5.737   8.130 -0.0186  0.2105  0.2168
 4769TIP3    H135866   4.541   5.738   8.213  0.4757 -0.7151  0.5161
 4769TIP3    H235867   4.560   5.817   8.086 -1.1172  0.1622  0.8025
 4770TIP3   OH235868   6.879   0.919   7.208 -0.2567 -0.0610  0.2746
 4770TIP3    H135869   6.835   0.929   7.292 -1.3362 -1.6011 -0.0708
 4770TIP3    H235870   6.956   0.865   7.227  0.7227  1.3695  0.6038
 4771TIP3   OH235871   2.553   1.398   8.283  0.1880 -0.5802 -0.3580
 4771TIP3    H135872   2.520   1.309   8.293  0.6401 -0.6162  0.9636
 4771TIP3    H235873   2.577   1.405   8.190 -0.5351 -1.5846 -0.6264
 4772TIP3   OH235874   0.440   4.691   8.038  0.0546  0.0714  0.1369
 4772TIP3    H135875   0.440   4.637   8.117 -2.3254  0.7031  0.6392
 4772TIP3    H235876   0.348   4.695   8.012  0.3885  2.3894 -0.9023
 4773TIP3   OH235877   4.518   3.211   8.236  0.3094 -0.3607  0.3296
 4773TIP3    H135878   4.466   3.139   8.272 -0.7687  0.7215  1.0305
 4773TIP3    H235879   4.504   3.283   8.298  0.1735  0.8946 -1.1093
 4774TIP3   OH235880   0.031   3.475   7.304 -0.3466 -0.0383  0.6499
 4774TIP3    H135881   0.070   3.552   7.262 -1.4835 -0.4474 -1.3070
 4774TIP3    H235882  -0.043   3.453   7.248  0.5271 -3.1906  0.5434
 4775TIP3   OH235883   0.720   4.826   1.542  0.1332  0.1452  0.3997
 4775TIP3    H135884   0.789   4.799   1.603  0.3493  1.1725  0.6292
 4775TIP3    H235885   0.717   4.922   1.550 -0.7935  0.1772 -0.1756
 4776TIP3   OH235886   2.876   0.059   6.745 -0.2816  0.2202 -0.0149
 4776TIP3    H135887   2.925   0.075   6.664  1.5532  0.7336  1.1473
 4776TIP3    H235888   2.901   0.130   6.803 -1.7920  0.0163  0.9266
 4777TIP3   OH235889   4.670   1.979   1.021 -0.6283  0.3442  0.4700
 4777TIP3    H135890   4.692   1.899   0.973  0.8021  0.7455  0.4132
 4777TIP3    H235891   4.600   2.020   0.970  1.0472  0.9070 -1.4545
 4778TIP3   OH235892   3.504   3.036   8.441  0.8290 -0.4836 -0.0576
 4778TIP3    H135893   3.439   3.077   8.498 -1.3590 -1.6250 -1.5748
 4778TIP3    H235894   3.576   3.013   8.499 -0.2679  0.4720  1.7875
 4779TIP3   OH235895   0.768   6.693   2.351 -0.2969 -0.0442  0.0843
 4779TIP3    H135896   0.701   6.738   2.300 -1.5787 -3.9792 -2.1167
 4779TIP3    H235897   0.835   6.670   2.286 -0.2217 -2.0930  0.8358
 4780TIP3   OH235898   0.624   1.274   0.854  0.0116  0.3194  0.7309
 4780TIP3    H135899   0.624   1.204   0.788 -1.4448  0.0751  0.9626
 4780TIP3    H235900   0.669   1.347   0.811  0.0956 -0.2112 -0.1113
 4781TIP3   OH235901   3.134   1.459   2.035  0.5143 -0.2860  0.3396
 4781TIP3    H135902   3.108   1.461   1.943  0.8348 -1.2940  0.2146
 4781TIP3    H235903   3.221   1.499   2.036  0.1905  0.4210  0.3201
 4782TIP3   OH235904   1.582   3.857   1.750  0.2660  0.3295 -0.3962
 4782TIP3    H135905   1.497   3.836   1.789  0.8703 -1.6772 -0.0218
 4782TIP3    H235906   1.578   3.951   1.732 -1.2858  0.6726  1.4219
 4783TIP3   OH235907   0.467   2.078   1.737 -0.0203  0.1098 -0.5391
 4783TIP3    H135908   0.544   2.124   1.770  1.2597 -1.4039 -1.3020
 4783TIP3    H235909   0.439   2.023   1.810 -0.0345  0.2241 -0.4575
 4784TIP3   OH235910   4.574   4.049   7.853  0.3898  0.4697  0.4734
 4784TIP3    H135911   4.559   4.143   7.842  0.6867  0.4473 -0.1257
 4784TIP3    H235912   4.583   4.015   7.764 -1.6081 -0.4448  0.5644
 4785TIP3   OH235913   2.055   2.519   2.512  0.2218  0.0314 -0.3509
 4785TIP3    H135914   2.077   2.487   2.600  1.6320 -0.9468 -1.0236
 4785TIP3    H235915   2.095   2.455   2.453 -0.6908  0.6865 -1.7093
 4786TIP3   OH235916   0.716   6.436   7.370  0.0869 -0.4944  0.1020
 4786TIP3    H135917   0.806   6.449   7.401  0.2350 -1.0597 -0.0694
 4786TIP3    H235918   0.726   6.416   7.277 -0.3449  1.1202 -0.3097
 4787TIP3   OH235919   5.278   1.277   0.245 -0.7187 -0.4417  0.6445
 4787TIP3    H135920   5.305   1.346   0.306  0.0265 -0.3211  0.2031
 4787TIP3    H235921   5.350   1.214   0.247 -0.4549 -0.2068 -0.4332
 4788TIP3   OH235922   5.883   6.349   0.616  0.1722  0.0498  0.4713
 4788TIP3    H135923   5.909   6.311   0.532  0.9698 -0.6953  1.0288
 4788TIP3    H235924   5.789   6.330   0.623 -0.2369  1.4306 -0.9034
 4789TIP3   OH235925   2.857   4.821   7.619  0.0720  0.1336 -0.2906
 4789TIP3    H135926   2.863   4.794   7.710  1.8275 -0.9659 -0.6875
 4789TIP3    H235927   2.887   4.912   7.619  1.1389 -0.1949  0.1174
 4790TIP3   OH235928   4.900   6.777   7.424  0.1101  0.5565 -0.3043
 4790TIP3    H135929   4.857   6.790   7.339 -2.6661  1.8806  1.1693
 4790TIP3    H235930   4.934   6.864   7.447 -2.0608  1.0394  1.3264
 4791TIP3   OH235931   5.129   0.532   2.562  0.1074  0.2742  0.3513
 4791TIP3    H135932   5.209   0.513   2.514 -0.1515 -0.1489  0.0732
 4791TIP3    H235933   5.148   0.611   2.612  1.8167 -1.6221  2.9294
 4792TIP3   OH235934   6.352   5.208   1.962 -0.3442 -0.3025 -0.5855
 4792TIP3    H135935   6.270   5.174   1.998 -0.0544 -0.2830  0.0924
 4792TIP3    H235936   6.390   5.260   2.033  0.8228 -1.2506 -0.5055
 4793TIP3   OH235937   4.459   6.594   8.306 -0.1291 -0.1705  0.4489
 4793TIP3    H135938   4.459   6.689   8.292  2.1145 -0.0168  1.1671
 4793TIP3    H235939   4.522   6.561   8.242 -0.1039 -1.0527  0.9206
 4794TIP3   OH235940   2.650   6.789   2.361 -0.1931 -0.3968 -0.5019
 4794TIP3    H135941   2.590   6.715   2.357 -0.6143 -0.0741 -0.1894
 4794TIP3    H235942   2.695   6.778   2.444 -0.1671 -0.3664 -0.5121
 4795TIP3   OH235943   0.676   6.693   7.177 -0.0046 -0.1953  0.0897
 4795TIP3    H135944   0.689   6.605   7.143  0.3990  0.3878 -1.3436
 4795TIP3    H235945   0.622   6.737   7.111  1.2791  1.1402 -0.1245
 4796TIP3   OH235946   1.054   2.333   0.156  0.3915  0.3326 -0.1464
 4796TIP3    H135947   0.976   2.279   0.168  0.9122 -0.7099 -1.2524
 4796TIP3    H235948   1.022   2.423   0.160 -0.8023 -0.0781 -0.1825
 4797TIP3   OH235949   1.686   3.444   1.320  0.1565  0.5969 -0.0358
 4797TIP3    H135950   1.673   3.415   1.229  2.3395 -0.1366 -0.1711
 4797TIP3    H235951   1.715   3.535   1.312  0.2380  0.5680 -0.0707
 4798TIP3   OH235952   6.211   5.735   7.690  0.6947  0.1127 -0.0416
 4798TIP3    H135953   6.213   5.824   7.724 -2.0099 -1.2892  4.8373
 4798TIP3    H235954   6.219   5.679   7.767  0.5126 -3.9057 -2.5971
 4799TIP3   OH235955   2.149   3.941   0.410 -0.6401  0.6894  0.0089
 4799TIP3    H135956   2.133   4.012   0.347 -2.0886  0.4658  0.0973
 4799TIP3    H235957   2.234   3.961   0.447  0.4068  0.6835 -2.2248
 4800TIP3   OH235958   6.698   4.145   0.397 -0.0909 -0.5466  0.0006
 4800TIP3    H135959   6.735   4.204   0.463 -1.0660 -1.5646  1.5268
 4800TIP3    H235960   6.607   4.174   0.387 -0.2868 -1.1529  0.0008
 4801TIP3   OH235961   5.446   6.235   2.043  0.0401  0.1819 -0.0273
 4801TIP3    H135962   5.459   6.211   2.135  1.6553 -0.6066 -0.4359
 4801TIP3    H235963   5.403   6.159   2.004  0.0807  0.1950 -0.0976
 4802TIP3   OH235964   6.824   0.219   0.776 -0.2814  0.3154 -0.4880
 4802TIP3    H135965   6.784   0.226   0.863 -1.0612 -0.6523 -0.7575
 4802TIP3    H235966   6.912   0.187   0.793 -0.6740 -0.5686 -0.0973
 4803TIP3   OH235967   5.653   6.653   0.758  0.0860 -0.0793 -0.1049
 4803TIP3    H135968   5.658   6.735   0.709  1.5102 -0.4820 -0.6967
 4803TIP3    H235969   5.595   6.598   0.707  0.1356  0.1249 -0.3843
 4804TIP3   OH235970   5.850   4.821   1.591  0.0545 -0.3153 -0.9304
 4804TIP3    H135971   5.779   4.763   1.564  0.5431 -0.6059 -1.6363
 4804TIP3    H235972   5.861   4.805   1.685 -0.1465 -0.9978 -1.0234
 4805TIP3   OH235973   2.778   2.324   1.275 -0.2335 -0.7053  0.3557
 4805TIP3    H135974   2.692   2.311   1.315  1.8679  0.2241  6.0703
 4805TIP3    H235975   2.787   2.419   1.268  0.4996 -0.7832  0.1609
 4806TIP3   OH235976   5.832   6.424   1.750  0.3606  0.7502  0.3181
 4806TIP3    H135977   5.747   6.426   1.707  0.9337 -0.2450 -0.8917
 4806TIP3    H235978   5.811   6.431   1.844 -0.9328  2.2171 -0.0317
 4807TIP3   OH235979   4.821   3.493   0.392  0.0477  0.5277  0.5704
 4807TIP3    H135980   4.885   3.561   0.416  0.4830 -0.1890  1.4846
 4807TIP3    H235981   4.811   3.440   0.471  0.5532 -1.1628 -0.4532
 4808TIP3   OH235982   6.652   2.733   1.763  0.0402  0.1505  0.1577
 4808TIP3    H135983   6.734   2.682   1.765  0.4628  0.8102 -0.1393
 4808TIP3    H235984   6.661   2.789   1.686 -0.2033  1.0505  0.7824
 4809TIP3   OH235985   5.001   5.950   7.509  0.3819 -0.0715  0.2898
 4809TIP3    H135986   5.090   5.983   7.520  1.2976 -2.5315  1.0857
 4809TIP3    H235987   4.945   6.019   7.543  1.9744  1.4700 -0.0652
 4810TIP3   OH235988   1.959   0.693   8.425  0.1371  0.5500  0.3641
 4810TIP3    H135989   2.051   0.667   8.421 -0.0209  0.1515 -1.1646
 4810TIP3    H235990   1.934   0.676   8.516  1.3625 -0.0661  0.6131
 4811TIP3   OH235991   6.182   6.548   0.018  0.3196  0.1650  0.1440
 4811TIP3    H135992   6.204   6.455   0.026  1.9678  0.5632  0.7909
 4811TIP3    H235993   6.091   6.554   0.046 -0.4402 -1.4984 -1.7259
 4812TIP3   OH235994   0.980   4.089   7.616 -0.4823  0.6898 -0.1344
 4812TIP3    H135995   0.978   4.026   7.688  0.2335  0.2434 -0.4962
 4812TIP3    H235996   1.071   4.088   7.586 -0.6676  1.2286 -0.7312
 4813TIP3   OH235997   4.627   5.201   0.625 -0.0084 -0.4833 -0.6320
 4813TIP3    H135998   4.681   5.123   0.626  1.2672  0.3475  1.4016
 4813TIP3    H235999   4.674   5.264   0.679 -0.6171  1.9857 -2.7533
 4814TIP3   OH236000   1.015   0.195   1.952  0.4436 -0.6071  0.0508
 4814TIP3    H136001   0.969   0.121   1.914 -1.0925 -0.5530  1.6902
 4814TIP3    H236002   0.957   0.227   2.021  1.7632  1.1541  0.4242
 4815TIP3   OH236003   3.922   0.784   8.329 -0.0536  0.1247 -0.0509
 4815TIP3    H136004   3.961   0.697   8.336 -1.8866 -0.6071  2.0746
 4815TIP3    H236005   3.837   0.769   8.287 -0.0778  1.0111 -0.3451
 4816TIP3   OH236006   6.404   2.214   0.857  0.5211  0.0544 -0.0259
 4816TIP3    H136007   6.358   2.197   0.940 -0.1746  1.9481  0.0384
 4816TIP3    H236008   6.463   2.287   0.877  1.6538 -0.6230 -0.7860
 4817TIP3   OH236009   2.996   4.289   1.442 -0.4289 -0.1703  0.1603
 4817TIP3    H136010   2.951   4.226   1.386  0.5977  0.7197 -1.7525
 4817TIP3    H236011   3.079   4.246   1.465 -0.3209 -0.0532 -0.0114
 4818TIP3   OH236012   5.939   6.216   1.559 -1.0635  0.0495  0.4536
 4818TIP3    H136013   5.983   6.194   1.641 -2.0757 -0.6236  0.8342
 4818TIP3    H236014   5.925   6.311   1.565  1.9858  0.6953 -0.5393
 4819TIP3   OH236015   6.133   0.528   8.199 -0.4088 -0.9812 -0.5295
 4819TIP3    H136016   6.078   0.466   8.246  0.8221 -1.0602  0.8874
 4819TIP3    H236017   6.222   0.499   8.218  0.2847  1.9366  1.3108
 4820TIP3   OH236018   3.182   5.771   0.615  0.3534 -0.1418  0.2471
 4820TIP3    H136019   3.254   5.718   0.647  0.4023  0.6203  1.4788
 4820TIP3    H236020   3.126   5.710   0.568  1.2262 -0.9563  0.2320
 4821TIP3   OH236021   0.802   4.447   0.875  0.2843 -0.4834 -0.1848
 4821TIP3    H136022   0.870   4.443   0.943 -0.3917  1.1961  0.6150
 4821TIP3    H236023   0.731   4.393   0.909 -0.3020  0.8561  0.7451
 4822TIP3   OH236024   3.790   0.204   2.574  0.1072 -0.1109  0.0529
 4822TIP3    H136025   3.827   0.161   2.497 -1.1405  0.5107 -0.9216
 4822TIP3    H236026   3.714   0.151   2.596 -0.1750  0.3440  0.1793
 4823TIP3   OH236027   2.380   2.164   2.255 -0.3558 -0.7382 -0.1240
 4823TIP3    H136028   2.471   2.142   2.234  0.5601  0.3049  2.3650
 4823TIP3    H236029   2.333   2.082   2.245  1.1544 -1.6637 -0.0242
 4824TIP3   OH236030   2.117   4.354   2.618  0.0304 -0.0032 -0.4427
 4824TIP3    H136031   2.184   4.331   2.682 -0.1548 -0.0458 -0.2654
 4824TIP3    H236032   2.105   4.448   2.628  2.9915  0.8601 -3.2306
 4825TIP3   OH236033   1.413   2.453   1.980 -0.7507 -0.0686 -0.6716
 4825TIP3    H136034   1.437   2.478   1.891  1.6058  1.2195  0.2208
 4825TIP3    H236035   1.497   2.443   2.025 -1.8657  0.3107  1.6475
 4826TIP3   OH236036   6.226   1.121   0.490 -0.5369  0.0720 -0.0824
 4826TIP3    H136037   6.306   1.121   0.438 -1.1193  2.0092 -1.1093
 4826TIP3    H236038   6.232   1.043   0.544  2.4666  0.6211  0.5467
 4827TIP3   OH236039   0.194   3.863   0.719  0.5686  0.0569 -0.3373
 4827TIP3    H136040   0.167   3.885   0.630 -1.6365  0.0015  0.2644
 4827TIP3    H236041   0.226   3.946   0.755 -2.9019  1.3047  0.2458
 4828TIP3   OH236042   2.219   4.831   1.848  0.1025 -0.3976  0.3237
 4828TIP3    H136043   2.131   4.794   1.841  0.3757 -1.1609  0.7324
 4828TIP3    H236044   2.266   4.796   1.772  0.1033 -0.1489  0.2110
 4829TIP3   OH236045   1.246   4.640   1.836  0.7998 -0.0810 -0.2019
 4829TIP3    H136046   1.250   4.554   1.878  3.5507 -0.3913 -0.9233
 4829TIP3    H236047   1.281   4.625   1.748  1.1521  1.7248 -0.3969
 4830TIP3   OH236048   6.230   6.181   0.901  0.4398 -0.0128 -0.4866
 4830TIP3    H136049   6.136   6.184   0.883 -0.1067 -0.4932  1.9237
 4830TIP3    H236050   6.237   6.198   0.995  2.9741  2.3730 -0.9735
 4831TIP3   OH236051   4.099   3.012   0.340  0.3931  0.2168  0.6769
 4831TIP3    H136052   4.192   3.027   0.359  0.1955  0.5969  1.4196
 4831TIP3    H236053   4.054   3.053   0.414 -0.4005  0.7472 -0.0949
 4832TIP3   OH236054   6.195   1.133   2.519 -0.3459  0.1846 -0.0201
 4832TIP3    H136055   6.208   1.228   2.524 -2.3252  0.5100 -0.2632
 4832TIP3    H236056   6.126   1.122   2.454 -1.0773 -1.3436  0.9772
 4833TIP3   OH236057   4.332   1.240   2.763  0.0337  0.1715 -0.4753
 4833TIP3    H136058   4.255   1.183   2.767  0.5794 -0.5331  0.0173
 4833TIP3    H236059   4.369   1.238   2.851 -0.0004  1.3818 -0.4160
 4834TIP3   OH236060   5.562   1.631   1.923  0.5930 -0.3953  0.6169
 4834TIP3    H136061   5.473   1.611   1.953 -0.3915 -0.6967 -2.2325
 4834TIP3    H236062   5.586   1.709   1.973 -1.1808 -0.3906  1.5873
 4835TIP3   OH236063   0.455   5.756   7.301 -0.2068  0.3479  0.0634
 4835TIP3    H136064   0.481   5.664   7.293  0.8839  0.7675 -1.5387
 4835TIP3    H236065   0.537   5.805   7.297 -0.7811  1.4177  0.8686
 4836TIP3   OH236066   2.002   6.605   0.858 -0.2059 -0.5549 -0.3254
 4836TIP3    H136067   2.005   6.700   0.868 -1.5967 -0.6122  1.1583
 4836TIP3    H236068   1.954   6.591   0.776 -0.2780  0.0119 -0.3849
 4837TIP3   OH236069   6.262   1.987   7.076  0.4540 -0.2256 -0.0108
 4837TIP3    H136070   6.233   1.922   7.141 -0.2701  2.0003  2.0400
 4837TIP3    H236071   6.357   1.987   7.083  0.5689 -1.8956 -0.9681
 4838TIP3   OH236072   1.226   5.607   1.934  0.7050 -0.6597 -0.3010
 4838TIP3    H136073   1.227   5.593   2.029  1.2149 -4.3327 -0.6991
 4838TIP3    H236074   1.139   5.641   1.915  0.5127 -0.1035  1.4422
 4839TIP3   OH236075   2.574   1.677   8.376 -0.4451  0.4410  0.1411
 4839TIP3    H136076   2.573   1.584   8.353 -0.3495  0.3557  0.4690
 4839TIP3    H236077   2.482   1.698   8.395 -0.7207  0.8136 -1.4533
 4840TIP3   OH236078   1.519   4.902   1.757 -0.1965 -0.0415  0.1303
 4840TIP3    H136079   1.570   4.967   1.804 -0.3164 -1.0896  1.7976
 4840TIP3    H236080   1.528   4.822   1.809 -1.7839 -0.8031 -0.6845
 4841TIP3   OH236081   0.567   0.479   2.773  0.4608 -0.5117 -0.2830
 4841TIP3    H136082   0.519   0.529   2.839 -0.5438 -0.0950 -1.2959
 4841TIP3    H236083   0.500   0.431   2.725  1.1593 -0.7821 -1.0255
 4842TIP3   OH236084   4.925   3.286   0.186 -0.1071 -0.0421  0.1350
 4842TIP3    H136085   4.996   3.306   0.126 -1.8680  2.0324 -1.3970
 4842TIP3    H236086   4.904   3.370   0.227 -2.6034 -0.2635 -0.5652
 4843TIP3   OH236087   4.242   3.831   1.678  0.4322 -0.5703  0.2289
 4843TIP3    H136088   4.179   3.813   1.747  1.6696  1.5977  2.0637
 4843TIP3    H236089   4.321   3.858   1.724  0.0076  5.7813 -1.7479
 4844TIP3   OH236090   6.529   6.249   2.330 -0.0637  0.3230  0.8501
 4844TIP3    H136091   6.604   6.278   2.278  0.2406  0.5394  1.3993
 4844TIP3    H236092   6.567   6.193   2.398 -0.7144 -2.1980 -0.7165
 4845TIP3   OH236093   0.981   0.185   0.041  0.3759  0.0440 -1.2358
 4845TIP3    H136094   0.989   0.258  -0.021  2.7233 -0.6303 -1.8227
 4845TIP3    H236095   0.968   0.227   0.126  2.8979  1.2860 -1.3733
 4846TIP3   OH236096   2.995   6.054   2.423 -0.1734  0.6957  0.3184
 4846TIP3    H136097   3.012   5.994   2.496  0.1491  0.3173 -0.0551
 4846TIP3    H236098   2.915   6.021   2.383 -0.8080  1.3892  0.9801
 4847TIP3   OH236099   2.126   3.164   2.039 -0.0998 -0.0586 -0.1892
 4847TIP3    H136100   2.166   3.233   2.092 -0.1420 -0.0383 -0.1841
 4847TIP3    H236101   2.081   3.109   2.102 -0.2848  0.0559 -0.2192
 4848TIP3   OH236102   5.903   6.419   7.764 -0.1889 -0.5966  0.0957
 4848TIP3    H136103   5.856   6.413   7.681 -0.3343  1.3049 -0.0059
 4848TIP3    H236104   5.950   6.336   7.771 -1.3030 -1.3832 -1.1716
 4849TIP3   OH236105   3.330   0.455   7.893  0.4508 -0.5161  0.1936
 4849TIP3    H136106   3.342   0.470   7.987  0.8287 -3.0421  0.6238
 4849TIP3    H236107   3.416   0.424   7.863  0.2262 -0.0860 -0.9343
 4850TIP3   OH236108   5.308   5.784   1.789  0.3885  0.1107 -0.3517
 4850TIP3    H136109   5.400   5.793   1.764  0.5975  0.1213  0.3869
 4850TIP3    H236110   5.289   5.864   1.839 -0.1496  0.3160 -0.8760
 4851TIP3   OH236111   1.068   5.334   0.482  0.2890  0.4330 -0.3668
 4851TIP3    H136112   1.014   5.395   0.432 -1.8779 -1.4151 -0.4598
 4851TIP3    H236113   1.007   5.264   0.507  2.0145 -0.3002  2.1219
 4852TIP3   OH236114   3.036   1.226   2.537 -0.2399  0.3395  0.6555
 4852TIP3    H136115   2.957   1.275   2.514  0.2358  0.7599 -0.1385
 4852TIP3    H236116   3.003   1.142   2.569 -1.0086 -0.5310 -2.0696
 4853TIP3   OH236117   6.207   5.349   8.144  0.1838  0.3190 -0.0693
 4853TIP3    H136118   6.121   5.307   8.141  0.4070 -0.0948 -1.0575
 4853TIP3    H236119   6.191   5.433   8.187 -0.1209 -1.0902  2.7800
 4854TIP3   OH236120   4.489   4.207   2.271  0.3857 -0.5425 -0.0449
 4854TIP3    H136121   4.558   4.203   2.337 -0.7857 -0.1633  1.2503
 4854TIP3    H236122   4.408   4.197   2.321 -0.6663  1.9562 -1.1213
 4855TIP3   OH236123   2.105   4.166   0.616 -0.3882 -0.6062 -0.2531
 4855TIP3    H136124   2.017   4.197   0.596 -1.4503 -1.7008  2.2443
 4855TIP3    H236125   2.115   4.086   0.563  0.6598  1.4061 -3.3555
 4856TIP3   OH236126   4.131   5.639   8.140 -0.8727 -0.6232 -0.0525
 4856TIP3    H136127   4.174   5.564   8.100 -0.2132 -0.1245 -0.2769
 4856TIP3    H236128   4.202   5.694   8.172 -1.3544 -1.2552  2.3148
 4857TIP3   OH236129   1.335   0.306   3.012  0.2717  0.2111  0.1520
 4857TIP3    H136130   1.245   0.297   2.982 -0.4092  1.3073  1.7437
 4857TIP3    H236131   1.365   0.389   2.973  0.3491  0.2022  0.1920
 4858TIP3   OH236132   2.810   0.720   1.777  0.3509 -0.2248 -0.3920
 4858TIP3    H136133   2.749   0.791   1.755 -0.0378 -0.1363  0.9400
 4858TIP3    H236134   2.762   0.665   1.839  1.1375 -0.9180 -0.3880
 4859TIP3   OH236135   1.538   1.976   8.065 -0.1445  0.7153  0.0358
 4859TIP3    H136136   1.593   2.049   8.038 -1.5708  0.3815 -4.7601
 4859TIP3    H236137   1.599   1.905   8.083  1.1160  1.6487 -0.4118
 4860TIP3   OH236138   1.222   1.035   2.218  0.0169  0.1243 -0.0292
 4860TIP3    H136139   1.207   0.954   2.266  1.7575 -0.2534 -0.0454
 4860TIP3    H236140   1.192   1.104   2.278 -1.4668 -0.5081 -0.0144
 4861TIP3   OH236141   4.136   3.783   0.543  0.1921  0.3884 -0.0081
 4861TIP3    H136142   4.068   3.776   0.610 -0.9455  1.7915 -0.9702
 4861TIP3    H236143   4.206   3.833   0.585 -1.1736  2.6741 -0.2765
 4862TIP3   OH236144   2.163   0.838   7.843  0.3138  0.7148 -0.0151
 4862TIP3    H136145   2.138   0.884   7.923  0.0756 -0.2836  0.4986
 4862TIP3    H236146   2.258   0.849   7.838  0.7879 -1.7143  2.0546
 4863TIP3   OH236147   3.081   1.419   6.776 -0.5855 -0.3223 -0.1747
 4863TIP3    H136148   3.136   1.365   6.719  1.7888  0.5577  1.1051
 4863TIP3    H236149   3.125   1.504   6.778 -1.1615  0.0050  2.0509
 4864TIP3   OH236150   4.712   5.589   8.618 -0.1319  0.4746  0.0212
 4864TIP3    H136151   4.752   5.502   8.614 -0.6569  0.2869 -3.4558
 4864TIP3    H236152   4.777   5.647   8.579 -1.5108  0.8429 -1.8495
 4865TIP3   OH236153   0.888   6.160   0.419  0.0717 -0.7221 -0.0903
 4865TIP3    H136154   0.916   6.228   0.359  0.1743 -1.8958 -1.4284
 4865TIP3    H236155   0.970   6.118   0.447 -0.0946 -1.5914 -0.8759
 4866TIP3   OH236156   2.392   5.364   1.134 -0.4438  0.1167  0.4255
 4866TIP3    H136157   2.402   5.339   1.042  2.5726  1.7691  0.1704
 4866TIP3    H236158   2.465   5.321   1.178 -1.5860 -0.2703  2.0268
 4867TIP3   OH236159   1.968   4.768   1.924 -0.7298  0.5616 -0.5614
 4867TIP3    H136160   1.928   4.785   2.009  0.7123  1.5198 -0.0381
 4867TIP3    H236161   1.946   4.845   1.872  0.4433  1.1418 -0.2394
 4868TIP3   OH236162   1.559   0.598   1.960 -0.2053 -0.2022  0.2216
 4868TIP3    H136163   1.557   0.509   1.926 -0.0807  0.4586 -1.6835
 4868TIP3    H236164   1.474   0.635   1.935  0.1726  0.5313 -0.0375
 4869TIP3   OH236165   2.883   1.753   7.539 -0.1209 -0.3867 -0.7990
 4869TIP3    H136166   2.843   1.746   7.625  1.1529  0.5323 -0.0928
 4869TIP3    H236167   2.848   1.835   7.503 -0.3037 -0.5377 -0.9658
 4870TIP3   OH236168   1.741   2.984   7.767  0.1996 -0.4288 -0.4703
 4870TIP3    H136169   1.671   2.976   7.831  1.9674 -1.1179  1.4990
 4870TIP3    H236170   1.704   2.950   7.686 -1.7134 -0.7440  0.4752
 4871TIP3   OH236171   3.156   6.043   0.195 -0.1338 -0.0182  0.4203
 4871TIP3    H136172   3.061   6.032   0.189 -0.3873  1.3908  1.4180
 4871TIP3    H236173   3.191   5.960   0.163 -1.6537 -0.1010 -1.1867
 4872TIP3   OH236174   1.097   6.704   7.154  0.1053  0.4534 -0.3734
 4872TIP3    H136175   1.120   6.797   7.165 -0.3884  0.7986 -2.0397
 4872TIP3    H236176   1.178   6.663   7.122  0.8963 -0.1233  2.1272
 4873TIP3   OH236177   0.744   5.664   7.137 -0.6365  0.4982  0.1668
 4873TIP3    H136178   0.783   5.631   7.056  0.9770  2.2138  0.1784
 4873TIP3    H236179   0.657   5.623   7.140  0.8313 -3.0037 -0.1903
 4874TIP3   OH236180   3.027   5.524   2.180 -0.9225 -0.2227 -0.2654
 4874TIP3    H136181   3.005   5.469   2.255 -0.0710 -0.7078 -0.3589
 4874TIP3    H236182   2.982   5.608   2.197  1.2224  0.5703  2.0345
 4875TIP3   OH236183   4.952   1.596   0.004  0.1976 -0.3426 -0.0699
 4875TIP3    H136184   4.899   1.545  -0.057  2.0135 -1.3531 -0.8758
 4875TIP3    H236185   5.001   1.531   0.054 -0.1558  0.5284  1.4983
 4876TIP3   OH236186   6.619   1.884   1.804 -0.3370  0.3446 -0.2219
 4876TIP3    H136187   6.665   1.924   1.878 -1.7665 -0.0751  0.9482
 4876TIP3    H236188   6.678   1.815   1.774 -0.5530 -0.8680  1.8948
 4877TIP3   OH236189   0.719   2.564   1.769 -0.3596  0.3533  0.0962
 4877TIP3    H136190   0.789   2.581   1.833 -0.3975 -2.3285  0.9630
 4877TIP3    H236191   0.655   2.634   1.785  0.2000  0.4689  2.1969
 4878TIP3   OH236192   0.555   2.198   1.257  0.6463 -0.0137  0.1003
 4878TIP3    H136193   0.520   2.140   1.324 -1.4008  1.6136  0.5252
 4878TIP3    H236194   0.613   2.257   1.304  1.0713 -0.3638  0.0214
 4879TIP3   OH236195   0.840   6.637   1.200 -0.4268  0.2644  0.6216
 4879TIP3    H136196   0.857   6.555   1.154  1.1015  0.8350  0.1007
 4879TIP3    H236197   0.837   6.613   1.293 -2.4491 -0.7290  0.3474
 4880TIP3   OH236198   1.441   2.519   6.595 -0.2816  0.1328 -0.1382
 4880TIP3    H136199   1.380   2.491   6.527  1.2084 -0.7860 -1.1717
 4880TIP3    H236200   1.387   2.567   6.658 -1.9146 -0.0089 -1.3596
 4881TIP3   OH236201   3.976   5.724   0.818 -0.1742 -0.1123 -0.6699
 4881TIP3    H136202   3.892   5.693   0.786  0.0687 -2.1925  0.4830
 4881TIP3    H236203   3.957   5.806   0.863 -1.5163 -0.3697 -0.7465
 4882TIP3   OH236204   1.613   3.848   8.340 -0.0934 -0.3900 -0.3549
 4882TIP3    H136205   1.704   3.822   8.325 -0.1156 -0.4970 -0.3080
 4882TIP3    H236206   1.574   3.850   8.252  0.1062  0.2390 -0.4334
 4883TIP3   OH236207   2.064   5.283   3.033  0.5951 -0.0255  0.0039
 4883TIP3    H136208   1.987   5.264   3.086 -0.1154 -0.5363 -1.1614
 4883TIP3    H236209   2.060   5.377   3.016  0.0639 -0.0920 -0.2724
 4884TIP3   OH236210   3.086   6.374   1.351  0.0078  0.1154  0.5030
 4884TIP3    H136211   3.153   6.364   1.284 -0.3717 -1.8031  0.3648
 4884TIP3    H236212   3.134   6.396   1.431  0.5851  0.8789 -0.0322
 4885TIP3   OH236213   4.391   2.839   0.292  0.3106  0.0507  0.7695
 4885TIP3    H136214   4.368   2.788   0.371 -1.1636 -1.9014 -0.8024
 4885TIP3    H236215   4.451   2.782   0.244  1.3919  1.3302  0.5635
 4886TIP3   OH236216   6.703   6.652   6.775 -0.3491  0.0222  0.0612
 4886TIP3    H136217   6.666   6.735   6.804  0.7836  0.3695  0.5371
 4886TIP3    H236218   6.740   6.671   6.689  0.0444  0.0559  0.2348
 4887TIP3   OH236219   2.639   2.185   2.139  0.8519  0.2797 -0.2978
 4887TIP3    H136220   2.655   2.092   2.121  0.1847  0.2076 -0.5547
 4887TIP3    H236221   2.719   2.216   2.181  1.7012 -0.0254 -1.6336
 4888TIP3   OH236222   5.371   4.657   1.484 -0.2180  0.4877 -0.2296
 4888TIP3    H136223   5.302   4.687   1.424 -0.0333 -0.5414 -0.9810
 4888TIP3    H236224   5.359   4.562   1.488  0.2128  0.4723  0.8289
 4889TIP3   OH236225   1.011   4.912   8.543  0.1274 -0.3849  0.1910
 4889TIP3    H136226   0.927   4.920   8.498 -0.2171 -0.7189  0.7699
 4889TIP3    H236227   1.065   4.860   8.483  0.3156  0.7971 -0.7143
 4890TIP3   OH236228   3.929   3.747   0.702 -0.1642 -0.3715  0.1026
 4890TIP3    H136229   3.878   3.685   0.752 -1.0205  0.4582  0.2873
 4890TIP3    H236230   3.979   3.796   0.768  0.2025 -0.5896 -0.0103
 4891TIP3   OH236231   6.056   0.487   1.236  0.2086  0.1937 -0.1949
 4891TIP3    H136232   5.998   0.496   1.311 -0.9311 -0.0628 -1.0145
 4891TIP3    H236233   6.121   0.556   1.247 -0.4074  0.6640  0.6031
 4892TIP3   OH236234   2.939   5.606   7.335  0.0198 -0.3903  0.2048
 4892TIP3    H136235   2.844   5.617   7.342 -0.0724  2.2263 -2.7478
 4892TIP3    H236236   2.955   5.599   7.241  2.8289  0.9246  0.4801
 4893TIP3   OH236237   6.252   1.771   1.014  0.2141  0.4707  0.1898
 4893TIP3    H136238   6.177   1.751   1.070  1.4257 -2.7927  0.8541
 4893TIP3    H236239   6.242   1.713   0.939  1.0362  1.4824 -0.7343
 4894TIP3   OH236240   2.859   6.337   1.768  0.1107 -0.5908  0.4151
 4894TIP3    H136241   2.772   6.329   1.806 -0.5016  0.6057 -0.6321
 4894TIP3    H236242   2.898   6.251   1.777 -1.1869 -1.1456  0.9090
 4895TIP3   OH236243   2.878   2.602   8.327  0.4573  0.2383  0.1791
 4895TIP3    H136244   2.854   2.511   8.308  1.9718 -0.3547  0.9552
 4895TIP3    H236245   2.870   2.610   8.422  3.3362 -0.0672  0.5317
 4896TIP3   OH236246   0.628   2.268   0.782  0.1633 -0.7047 -0.1041
 4896TIP3    H136247   0.584   2.184   0.793  0.0833 -0.8581 -1.4403
 4896TIP3    H236248   0.557   2.329   0.762  0.3921 -0.7085 -1.0078
 4897TIP3   OH236249   1.231   2.381   7.383 -0.3989 -0.5077  0.0958
 4897TIP3    H136250   1.165   2.414   7.322 -1.5098 -0.8431  1.0662
 4897TIP3    H236251   1.187   2.384   7.468  1.4031  0.8069  1.0395
 4898TIP3   OH236252   3.578   0.153   7.292  0.3066 -0.2548 -0.2414
 4898TIP3    H136253   3.561   0.078   7.235 -0.3058 -1.0096  0.8910
 4898TIP3    H236254   3.495   0.167   7.338  0.5428  0.8505 -0.1117
 4899TIP3   OH236255   0.191   1.326   8.499 -0.2357  0.2548 -0.3867
 4899TIP3    H136256   0.235   1.268   8.437  1.4113 -1.3029  2.0753
 4899TIP3    H236257   0.098   1.317   8.478 -0.2451 -4.3121  0.5115
 4900TIP3   OH236258   4.865   0.994   8.067 -0.3362 -0.0368  0.3834
 4900TIP3    H136259   4.961   0.988   8.075 -0.4872 -1.9036  1.5298
 4900TIP3    H236260   4.834   0.907   8.094 -2.3929  0.7405  0.6679
 4901TIP3   OH236261   5.667   1.416   3.126 -0.5062 -0.1232  0.1449
 4901TIP3    H136262   5.604   1.418   3.053 -1.9741  1.1176  1.3733
 4901TIP3    H236263   5.646   1.336   3.173  1.6864 -1.9517 -1.7220
 4902TIP3   OH236264   2.613   6.292   1.469  0.2487  0.5343  0.3969
 4902TIP3    H136265   2.630   6.198   1.474 -1.3958  0.1716 -0.0566
 4902TIP3    H236266   2.670   6.324   1.399  0.2147 -0.2856 -0.0088
 4903TIP3   OH236267   1.722   5.625   1.437  0.5468 -0.3166 -0.2678
 4903TIP3    H136268   1.727   5.687   1.365 -2.0114 -0.1317 -0.3883
 4903TIP3    H236269   1.696   5.678   1.512 -0.4554 -1.0217 -0.0916
 4904TIP3   OH236270   1.279   4.802   1.223 -0.0597 -0.2989 -0.4322
 4904TIP3    H136271   1.289   4.733   1.288  1.8478  0.5072  0.1906
 4904TIP3    H236272   1.199   4.848   1.249 -0.5347 -1.3582  0.0110
 4905TIP3   OH236273   2.949   4.184   1.939 -0.1299 -0.8331 -0.0083
 4905TIP3    H136274   2.871   4.238   1.935  0.3607 -0.1810 -0.8498
 4905TIP3    H236275   2.933   4.125   2.013 -1.2299 -0.4325  0.0870
 4906TIP3   OH236276   0.165   0.924   0.764 -0.3414  0.8923  0.3969
 4906TIP3    H136277   0.243   0.879   0.731  1.0143  3.3990 -0.0708
 4906TIP3    H236278   0.101   0.917   0.693 -0.2431 -0.4459  0.4274
 4907TIP3   OH236279   4.948   6.105   0.643 -0.0502  0.0089  0.0748
 4907TIP3    H136280   4.906   6.042   0.584  0.5010 -1.9485  1.6487
 4907TIP3    H236281   4.902   6.187   0.627 -0.5960 -0.6731 -2.3093
 4908TIP3   OH236282   4.296   0.889   1.856 -0.6162  0.2034 -0.6287
 4908TIP3    H136283   4.327   0.852   1.774 -0.2471  1.2906 -1.0033
 4908TIP3    H236284   4.244   0.965   1.829  0.8752  1.5647  0.1680
 4909TIP3   OH236285   5.072   5.858   8.251  0.7426  0.6055 -0.3649
 4909TIP3    H136286   4.988   5.834   8.291  0.1945 -0.4625 -2.0750
 4909TIP3    H236287   5.087   5.949   8.280 -0.4061  0.4223  0.9105
 4910TIP3   OH236288   3.889   3.338   1.329  0.7494 -0.0529 -0.3239
 4910TIP3    H136289   3.879   3.288   1.410 -0.9024 -1.8376 -1.5432
 4910TIP3    H236290   3.940   3.280   1.272  1.7072  1.0857 -0.6637
 4911TIP3   OH236291   6.673   2.016   8.094 -0.5393  0.4182  0.3716
 4911TIP3    H136292   6.725   2.003   8.015  1.4751  0.6520  1.5605
 4911TIP3    H236293   6.699   2.102   8.126 -0.6581 -0.0178  1.7059
 4912TIP3   OH236294   0.483   5.295   7.630  0.5143  0.4501  0.0954
 4912TIP3    H136295   0.441   5.215   7.662  1.4388  0.8151  2.3931
 4912TIP3    H236296   0.569   5.267   7.599  0.3337  0.3772 -0.3508
 4913TIP3   OH236297   3.189   4.129   1.775 -0.0656  0.3555 -0.3563
 4913TIP3    H136298   3.120   4.160   1.834  0.7614  0.9886  0.3012
 4913TIP3    H236299   3.181   4.033   1.778 -1.0451  0.4240 -0.4531
 4914TIP3   OH236300   6.865   1.092   0.963  0.8427  0.0355 -0.0351
 4914TIP3    H136301   6.883   1.015   1.017  0.8683  0.2418  0.2562
 4914TIP3    H236302   6.840   1.057   0.878 -0.6168 -0.3350  0.5262
 4915TIP3   OH236303   2.915   2.520   0.401  0.3623  0.3234 -0.0366
 4915TIP3    H136304   2.990   2.558   0.355 -0.1508 -1.1569 -2.2368
 4915TIP3    H236305   2.876   2.594   0.447  1.0644  1.9039 -1.8193
 4916TIP3   OH236306   1.499   1.165   0.026  0.0777  0.3774  0.3596
 4916TIP3    H136307   1.509   1.254   0.059 -0.0320  0.2876  0.6391
 4916TIP3    H236308   1.486   1.111   0.105  0.3986  0.0793  0.2149
 4917TIP3   OH236309   2.840   4.501   7.393  0.3340  0.1772  0.7831
 4917TIP3    H136310   2.837   4.583   7.344 -0.8932 -1.0551 -1.3703
 4917TIP3    H236311   2.901   4.446   7.343  0.1022 -0.6935  1.4306
 4918TIP3   OH236312   3.796   3.786   1.011  0.3902  0.1188  0.4285
 4918TIP3    H136313   3.701   3.790   1.003  0.4760  0.5612 -0.4532
 4918TIP3    H236314   3.820   3.700   0.978  0.4136  0.5441 -0.6933
 4919TIP3   OH236315   1.124   3.253   1.621  0.4953  0.0626 -0.1681
 4919TIP3    H136316   1.128   3.172   1.571 -0.9670 -0.4413  0.4685
 4919TIP3    H236317   1.160   3.230   1.707  0.4709  0.1945 -0.1218
 4920TIP3   OH236318   6.241   0.467   0.648 -0.3657 -0.0809 -0.3513
 4920TIP3    H136319   6.335   0.453   0.642 -0.1987  0.7201  0.1478
 4920TIP3    H236320   6.210   0.464   0.557 -0.1659 -2.1349 -0.4003
 4921TIP3   OH236321   3.662   1.009   1.104  0.8979 -0.4469 -0.7633
 4921TIP3    H136322   3.697   0.971   1.023 -0.5312  0.0005 -1.6189
 4921TIP3    H236323   3.598   1.074   1.075 -0.8929 -1.4533  0.7269
 4922TIP3   OH236324   5.368   6.594   7.166  0.1821  0.2394 -0.9010
 4922TIP3    H136325   5.450   6.616   7.122  1.0351  2.6321  1.5661
 4922TIP3    H236326   5.300   6.635   7.111  0.9636  1.0989 -1.2547
 4923TIP3   OH236327   6.307   2.949   0.829 -0.0821 -0.3502  0.5711
 4923TIP3    H136328   6.393   2.908   0.816  0.3467  0.2366  1.4688
 4923TIP3    H236329   6.306   3.021   0.765  0.0117 -0.4715  0.4307
 4924TIP3   OH236330   5.955   5.895   7.963 -0.7561  0.0747  0.5366
 4924TIP3    H136331   5.982   5.804   7.952  1.3984  0.6185  0.8440
 4924TIP3    H236332   5.890   5.910   7.894 -0.5152 -1.4383 -0.0508
 4925TIP3   OH236333   2.591   1.991   0.425 -0.2329 -0.2341 -0.3283
 4925TIP3    H136334   2.556   1.912   0.384 -0.1661  0.0981 -1.0498
 4925TIP3    H236335   2.685   1.986   0.411 -0.3841  0.9723 -2.2990
 4926TIP3   OH236336   1.474   2.061   2.085  0.2723  0.4128 -0.4322
 4926TIP3    H136337   1.488   2.020   2.170  1.2926 -1.7403 -1.5461
 4926TIP3    H236338   1.481   1.989   2.022 -3.8841  1.2679 -2.1707
 4927TIP3   OH236339   6.835   5.917   0.624  0.2870 -0.0275 -0.6274
 4927TIP3    H136340   6.773   5.847   0.604  0.2032  0.2158 -1.2212
 4927TIP3    H236341   6.840   5.969   0.544  1.2524 -0.0418 -0.5983
 4928TIP3   OH236342   0.888   5.320   0.828  0.0600  0.3137  0.5952
 4928TIP3    H136343   0.852   5.330   0.740  0.5800  0.2326  0.3702
 4928TIP3    H236344   0.882   5.226   0.846  1.6244  0.0604 -0.0857
 4929TIP3   OH236345   5.092   1.774   8.266 -0.0818  0.1534 -0.2116
 4929TIP3    H136346   5.159   1.816   8.320 -0.6567 -0.2316  0.8255
 4929TIP3    H236347   5.014   1.829   8.277  0.0403  0.5695 -1.3684
 4930TIP3   OH236348   4.637   6.308   2.938  0.0132  0.4243 -0.5076
 4930TIP3    H136349   4.669   6.387   2.895 -1.1532  1.8403  1.0777
 4930TIP3    H236350   4.551   6.293   2.899  0.1565  0.0553 -0.6780
 4931TIP3   OH236351   6.459   6.551   7.882  0.6174 -0.0726 -0.1312
 4931TIP3    H136352   6.372   6.521   7.910  0.3063  1.4492  0.6832
 4931TIP3    H236353   6.442   6.619   7.817  1.0600  1.5809  1.3729
 4932TIP3   OH236354   1.169   6.831   6.909  0.2609 -0.1772  0.0773
 4932TIP3    H136355   1.233   6.781   6.959  0.2053  0.7917  1.1542
 4932TIP3    H236356   1.204   6.919   6.905 -0.9454  0.3526  0.6169
 4933TIP3   OH236357   4.196   0.658   0.839 -0.0563  0.4092 -0.2639
 4933TIP3    H136358   4.257   0.584   0.844 -1.5388 -0.9766 -1.3450
 4933TIP3    H236359   4.240   0.721   0.782  0.3660 -0.5859 -1.0823
 4934TIP3   OH236360   3.309   3.454   0.982 -0.2029  0.4894  0.2444
 4934TIP3    H136361   3.298   3.377   0.927  1.4731 -1.3528  2.2776
 4934TIP3    H236362   3.398   3.484   0.963 -0.0732  0.5926  0.9627
 4935TIP3   OH236363   2.431   1.161   1.669  0.1815  0.1642  0.6661
 4935TIP3    H136364   2.386   1.149   1.585  1.1465  0.0467  0.1562
 4935TIP3    H236365   2.523   1.147   1.649  0.5117  0.9173  1.5991
 4936TIP3   OH236366   3.591   0.217   6.769 -0.3053  0.1265 -0.2873
 4936TIP3    H136367   3.559   0.288   6.713 -0.8200  0.7775  0.8151
 4936TIP3    H236368   3.522   0.205   6.835  0.0692 -0.9630 -0.0674
 4937TIP3   OH236369   3.250   1.969   1.619  0.8364 -0.0994  0.5429
 4937TIP3    H136370   3.331   1.942   1.575  1.0828 -0.7987  1.3819
 4937TIP3    H236371   3.180   1.937   1.561  1.0830  2.6092 -1.4390
 4938TIP3   OH236372   2.704   1.200   7.581  0.7637 -0.0822  0.4182
 4938TIP3    H136373   2.645   1.170   7.512 -1.2167  2.5873  0.8065
 4938TIP3    H236374   2.716   1.123   7.637 -5.3640 -0.1477  2.3290
 4939TIP3   OH236375   6.138   3.983   0.749 -0.7076 -0.2675 -0.4674
 4939TIP3    H136376   6.101   3.914   0.803  0.5579  0.2133  1.0840
 4939TIP3    H236377   6.119   3.955   0.659 -1.8400 -1.6749  0.1606
 4940TIP3   OH236378   0.607   1.368   8.230  0.4005 -0.5864  0.3166
 4940TIP3    H136379   0.527   1.323   8.203  0.1699  0.7156 -1.3115
 4940TIP3    H236380   0.676   1.325   8.180  0.5794 -0.9770  0.8912
 4941TIP3   OH236381   1.694   1.749   8.171  0.9093  0.0253 -0.2671
 4941TIP3    H136382   1.701   1.718   8.261 -1.0260  3.3860  1.2292
 4941TIP3    H236383   1.636   1.686   8.129 -1.1237  0.2774  1.9458
 4942TIP3   OH236384   4.706   2.479   7.987 -0.4663  0.2079 -0.4111
 4942TIP3    H136385   4.790   2.501   8.028 -1.9107  0.6727  2.4685
 4942TIP3    H236386   4.700   2.539   7.912  0.8751  1.5562  0.5031
 4943TIP3   OH236387   4.476   6.311   0.398  0.9742  0.9786  0.4913
 4943TIP3    H136388   4.413   6.371   0.359 -1.4875 -0.6542  1.7375
 4943TIP3    H236389   4.467   6.230   0.347  1.6834  0.5493  1.0286
 4944TIP3   OH236390   3.223   6.114   8.474 -0.5601 -0.0564  0.2234
 4944TIP3    H136391   3.151   6.050   8.475 -0.1136 -0.5607  0.5889
 4944TIP3    H236392   3.294   6.070   8.521  0.0808  0.3296 -0.3782
 4945TIP3   OH236393   5.953   2.460   7.440  0.3927  0.6958 -0.5453
 4945TIP3    H136394   5.879   2.517   7.463 -1.1991 -1.4525 -0.0019
 4945TIP3    H236395   5.984   2.427   7.524 -1.6242 -2.6129 -0.9494
 4946TIP3   OH236396   5.950   1.100   7.478  0.0030  0.2676  0.5308
 4946TIP3    H136397   5.956   1.038   7.406 -1.1062  0.3806  0.3255
 4946TIP3    H236398   6.032   1.090   7.525 -0.5780 -2.1674  1.1611
 4947TIP3   OH236399   3.880   5.130   1.646 -0.1600 -0.4739  0.6976
 4947TIP3    H136400   3.882   5.224   1.666 -0.0066 -0.2858 -0.1577
 4947TIP3    H236401   3.929   5.122   1.565 -1.1498 -1.1471  0.1448
 4948TIP3   OH236402   2.607   4.808   0.112 -0.2931  0.5079 -0.8919
 4948TIP3    H136403   2.626   4.817   0.205  0.3912 -0.2074 -0.9467
 4948TIP3    H236404   2.627   4.716   0.093 -3.9176 -0.4204 -0.9616
 4949TIP3   OH236405   1.693   2.333   1.383  0.0150 -0.3705 -0.6946
 4949TIP3    H136406   1.676   2.267   1.450 -0.4997 -0.6556 -1.0977
 4949TIP3    H236407   1.606   2.357   1.350  0.1997  0.4882 -0.5764
 4950TIP3   OH236408   4.101   6.704   7.608 -0.3846 -0.2037  0.0084
 4950TIP3    H136409   4.183   6.657   7.595 -0.5488 -0.2055 -1.1444
 4950TIP3    H236410   4.128   6.790   7.641  0.0662 -0.2791 -0.1588
 4951TIP3   OH236411   1.837   1.075   2.403  0.0572 -0.3695  0.0769
 4951TIP3    H136412   1.827   1.016   2.478  0.9035 -0.5586  0.0508
 4951TIP3    H236413   1.748   1.087   2.370 -0.5932  1.1255  2.1587
 4952TIP3   OH236414   2.474   3.363   0.624 -0.4080 -0.3046 -0.0504
 4952TIP3    H136415   2.409   3.395   0.561  0.6551 -0.9613 -1.5582
 4952TIP3    H236416   2.489   3.272   0.598  2.0976  0.2116 -0.6653
 4953TIP3   OH236417   1.336   4.449   0.196 -0.1946  0.4210 -0.4925
 4953TIP3    H136418   1.314   4.356   0.184 -0.0227  0.5164 -1.7469
 4953TIP3    H236419   1.414   4.447   0.252 -1.0504 -0.0997  0.7218
 4954TIP3   OH236420   6.326   4.150   8.595 -0.2398 -0.3605 -0.0793
 4954TIP3    H136421   6.414   4.170   8.627  0.0403  1.6623 -1.8451
 4954TIP3    H236422   6.334   4.065   8.552  0.8607 -0.2373 -0.1446
 4955TIP3   OH236423   2.518   4.653   1.770  0.1318 -0.1019 -0.4446
 4955TIP3    H136424   2.568   4.725   1.732  2.2292 -0.6669  1.0721
 4955TIP3    H236425   2.434   4.654   1.723  0.2453  3.0143 -0.7472
 4956TIP3   OH236426   2.238   3.879   1.313  0.1054  0.3025  0.1900
 4956TIP3    H136427   2.288   3.819   1.257  1.8900  1.1880  0.7761
 4956TIP3    H236428   2.254   3.847   1.402 -0.3312  0.6410  0.3928
 4957TIP3   OH236429   2.911   2.285   1.030  0.6732 -0.3420  0.0977
 4957TIP3    H136430   2.907   2.380   1.020  4.0888 -0.0777  0.0529
 4957TIP3    H236431   2.870   2.269   1.115  0.7498  1.2814  0.4777
 4958TIP3   OH236432   0.723   5.911   7.329 -0.9674  0.1600 -0.0905
 4958TIP3    H136433   0.782   5.903   7.254 -0.0361 -0.3799  0.6776
 4958TIP3    H236434   0.741   5.998   7.365  0.8608 -0.7178  1.3153
 4959TIP3   OH236435   3.919   3.197   8.443 -0.1193 -0.0929 -0.6787
 4959TIP3    H136436   3.978   3.155   8.505 -0.9858 -1.7501 -0.9209
 4959TIP3    H236437   3.971   3.266   8.402  1.5141 -1.2613 -0.6320
 4960TIP3   OH236438   5.638   2.905   1.571 -0.0248 -0.0838 -0.3399
 4960TIP3    H136439   5.612   2.818   1.602 -1.6534 -0.1741 -1.7559
 4960TIP3    H236440   5.700   2.937   1.636  0.2243 -2.0947  0.4781
 4961TIP3   OH236441   5.791   0.980   0.747 -0.0511  0.2663 -0.0759
 4961TIP3    H136442   5.841   0.923   0.805  0.2696  0.8137  0.1931
 4961TIP3    H236443   5.777   0.927   0.668 -0.1427 -0.3378  0.3369
 4962TIP3   OH236444   4.752   2.061   2.849 -0.0562 -0.5424 -0.0723
 4962TIP3    H136445   4.731   1.983   2.899 -1.3356  0.3577  0.8380
 4962TIP3    H236446   4.842   2.082   2.873 -0.0129 -1.2232  0.3619
 4963TIP3   OH236447   1.457   3.556   2.425 -0.3474 -0.5625 -0.2518
 4963TIP3    H136448   1.488   3.496   2.493 -0.6405 -1.3694 -0.8211
 4963TIP3    H236449   1.374   3.589   2.459  0.2497  0.2641  0.4825
 4964TIP3   OH236450   5.819   6.082   2.913 -0.4812  0.3901 -0.1137
 4964TIP3    H136451   5.892   6.060   2.855 -1.2301  3.7227 -2.6580
 4964TIP3    H236452   5.813   6.008   2.974  3.0432 -1.4053 -1.6544
 4965TIP3   OH236453   5.554   1.639   7.754  0.0367 -0.1975 -0.1302
 4965TIP3    H136454   5.562   1.695   7.831  0.1456 -0.2028 -0.1367
 4965TIP3    H236455   5.573   1.550   7.786  0.4613 -0.1481 -0.2354
 4966TIP3   OH236456   1.595   0.092   1.425 -0.0806 -0.1729 -0.0418
 4966TIP3    H136457   1.530   0.153   1.458 -1.3339 -1.7339  0.4653
 4966TIP3    H236458   1.581   0.092   1.330 -0.4842 -0.1406  0.0162
 4967TIP3   OH236459   6.129   0.111   3.295  0.0403 -0.0887  0.5394
 4967TIP3    H136460   6.100   0.196   3.329  0.3038  0.2321 -0.0163
 4967TIP3    H236461   6.120   0.119   3.200  0.2886 -0.6036  0.4663
 4968TIP3   OH236462   2.151   5.487   0.608 -0.9270 -0.6952  0.4503
 4968TIP3    H136463   2.064   5.458   0.581 -1.1513  0.4497 -0.1177
 4968TIP3    H236464   2.143   5.500   0.703 -0.4242 -3.7317  1.0389
 4969TIP3   OH236465   0.128   5.844   2.017 -0.0324  0.1343 -0.1064
 4969TIP3    H136466   0.074   5.878   2.089 -1.1052 -0.7986 -0.4417
 4969TIP3    H236467   0.183   5.778   2.059  0.2462  0.4853  0.0845
 4970TIP3   OH236468   2.583   6.321   8.285  0.1150 -0.0105 -0.1670
 4970TIP3    H136469   2.640   6.396   8.298  1.2452 -0.4297 -2.2524
 4970TIP3    H236470   2.576   6.281   8.372  3.0549  0.0303  0.1980
 4971TIP3   OH236471   6.508   6.367   0.996  0.2462  0.1920  0.0482
 4971TIP3    H136472   6.494   6.326   0.911  0.8107  2.3222 -1.1551
 4971TIP3    H236473   6.466   6.453   0.989  0.5296  0.5310  1.8372
 4972TIP3   OH236474   1.824   6.239   2.732 -0.4395  0.2653 -0.1777
 4972TIP3    H136475   1.731   6.245   2.710 -1.2598  0.0657  2.8409
 4972TIP3    H236476   1.836   6.151   2.765  0.7087  0.4774  0.0201
 4973TIP3   OH236477   2.404   6.531   7.800 -0.0404 -0.8775 -0.4223
 4973TIP3    H136478   2.468   6.596   7.771  0.0896 -0.5497  0.5370
 4973TIP3    H236479   2.334   6.535   7.735 -0.6446  1.1549  0.2771
 4974TIP3   OH236480   5.424   1.254   2.404 -0.1692 -0.3486 -0.3208
 4974TIP3    H136481   5.364   1.294   2.467 -0.5399 -0.3364 -0.6803
 4974TIP3    H236482   5.454   1.328   2.351  0.4681 -0.2935  0.1010
 4975TIP3   OH236483   5.667   0.470   0.136 -0.2562 -0.6299  0.6153
 4975TIP3    H136484   5.738   0.483   0.073 -0.1130 -1.0055  0.7020
 4975TIP3    H236485   5.592   0.443   0.083  0.1965 -2.1806  0.7253
 4976TIP3   OH236486   3.711   6.643   0.500 -0.2777  0.4104  0.0580
 4976TIP3    H136487   3.645   6.676   0.561 -1.8744 -0.2569 -1.2286
 4976TIP3    H236488   3.718   6.711   0.433  0.2842  0.4229  0.1207
 4977TIP3   OH236489   3.799   3.549   6.851  0.5421 -0.2099  0.0045
 4977TIP3    H136490   3.860   3.617   6.824  2.0129 -1.3819  0.2167
 4977TIP3    H236491   3.786   3.565   6.945 -0.9341  1.1051 -0.3860
 4978TIP3   OH236492   6.788   4.519   1.163 -1.1282 -0.0502  0.0280
 4978TIP3    H136493   6.716   4.476   1.117 -1.0995  1.1949 -1.2339
 4978TIP3    H236494   6.748   4.549   1.245 -1.5512 -0.9954  0.1864
 4979TIP3   OH236495   5.063   1.959   1.757  0.2550 -0.1583 -0.1295
 4979TIP3    H136496   5.110   1.876   1.758  0.5253 -0.0424 -1.4953
 4979TIP3    H236497   4.993   1.947   1.694  0.8899  0.9340 -1.0973
 4980TIP3   OH236498   0.314   1.850   0.576 -1.1063 -0.1552  0.8179
 4980TIP3    H136499   0.349   1.935   0.552 -0.9379  0.1710  2.1709
 4980TIP3    H236500   0.375   1.815   0.641 -1.9171 -0.6862  1.3174
 4981TIP3   OH236501   0.744   0.768   0.856  0.1163  0.5236 -0.3986
 4981TIP3    H136502   0.764   0.782   0.948  0.0041  2.3489 -0.6046
 4981TIP3    H236503   0.736   0.673   0.846 -0.5512  0.3404  1.5952
 4982TIP3   OH236504   3.739   0.787   1.729 -0.2119 -0.2588  0.1022
 4982TIP3    H136505   3.834   0.776   1.725 -0.2337 -0.6650  0.5891
 4982TIP3    H236506   3.722   0.817   1.818 -0.4227  1.1078 -0.3780
 4983TIP3   OH236507   1.319   1.108   2.627  0.3242 -0.1664  0.2918
 4983TIP3    H136508   1.270   1.132   2.549 -0.0279 -0.7609  0.3217
 4983TIP3    H236509   1.253   1.076   2.688  0.7318 -0.9637  0.3398
 4984TIP3   OH236510   6.630   0.314   0.226 -0.0468 -0.3957  0.0288
 4984TIP3    H136511   6.668   0.365   0.154 -1.0496  0.2864 -0.0296
 4984TIP3    H236512   6.576   0.248   0.183  0.6711 -1.0688  0.1278
 4985TIP3   OH236513   4.782   6.111   7.986 -0.6826 -0.3073 -0.4495
 4985TIP3    H136514   4.855   6.063   7.947 -0.1267  0.6650 -0.6368
 4985TIP3    H236515   4.820   6.158   8.060 -1.4904 -1.1780  0.5547
 4986TIP3   OH236516   2.298   2.418   1.961  0.2746 -0.2036  0.1510
 4986TIP3    H136517   2.237   2.473   2.009  0.8784 -1.2195  2.1851
 4986TIP3    H236518   2.248   2.340   1.938  0.0252  0.2223 -0.8181
 4987TIP3   OH236519   1.205   0.389   1.918  0.5169  0.0206 -0.0421
 4987TIP3    H136520   1.144   0.327   1.957  0.1277  0.1811 -0.3902
 4987TIP3    H236521   1.285   0.339   1.905  0.4708 -0.1821  0.4466
 4988TIP3   OH236522   1.087   0.243   0.643 -0.2524  0.1072 -0.0433
 4988TIP3    H136523   1.145   0.214   0.714 -0.3846 -2.9036 -1.0346
 4988TIP3    H236524   1.137   0.311   0.598  0.5864  0.7713  1.7908
 4989TIP3   OH236525   3.762   4.285   1.582  0.6941 -0.1828  0.2833
 4989TIP3    H136526   3.818   4.361   1.565 -0.9792  0.8704 -0.7772
 4989TIP3    H236527   3.728   4.299   1.670 -1.4484  1.5961 -0.7503
 4990TIP3   OH236528   6.870   5.308   8.113  0.0967  0.6373 -0.0531
 4990TIP3    H136529   6.831   5.361   8.044 -1.8008 -1.0937 -0.3779
 4990TIP3    H236530   6.837   5.220   8.098  4.4514 -1.1463 -0.5373
 4991TIP3   OH236531   6.122   1.228   0.250  0.4760 -0.4693  0.0812
 4991TIP3    H136532   6.041   1.177   0.241 -0.0419  0.1691  0.9699
 4991TIP3    H236533   6.144   1.221   0.342  1.3778 -0.5260 -0.1327
 4992TIP3   OH236534   2.500   1.991   1.870 -0.0237 -0.8652 -0.4231
 4992TIP3    H136535   2.460   1.909   1.899  1.4699 -1.5729 -0.2651
 4992TIP3    H236536   2.567   2.010   1.936 -1.0609  1.0848  0.1385
 4993TIP3   OH236537   2.369   6.134   7.044 -0.5176  0.3193 -0.0611
 4993TIP3    H136538   2.431   6.207   7.053 -0.0819  0.1869 -1.6825
 4993TIP3    H236539   2.288   6.166   7.084  0.2501  0.9218  1.0679
 4994TIP3   OH236540   1.558   4.111   1.718 -0.2521 -0.2769 -0.3276
 4994TIP3    H136541   1.608   4.186   1.750  0.2294  0.1067 -1.8584
 4994TIP3    H236542   1.475   4.115   1.766  0.3517  0.3443  0.7030
 4995TIP3   OH236543   3.701   3.134   1.073 -0.0072 -0.2721  0.1955
 4995TIP3    H136544   3.781   3.183   1.058  1.1472 -1.9892  0.4615
 4995TIP3    H236545   3.693   3.077   0.996  0.1131 -1.4867  1.0530
 4996TIP3   OH236546   5.190   3.236   1.588  0.1832 -0.5096  0.0292
 4996TIP3    H136547   5.270   3.205   1.548  1.2640  0.4072  1.3663
 4996TIP3    H236548   5.204   3.225   1.682 -1.0146  0.2114  0.3214
 4997TIP3   OH236549   5.826   1.457   2.397  0.5824  0.1030 -0.0487
 4997TIP3    H136550   5.806   1.382   2.451  1.0291 -0.4513 -0.6333
 4997TIP3    H236551   5.908   1.434   2.353 -0.0452  0.2856 -1.3864
 4998TIP3   OH236552   2.471   0.703   8.366  0.0324 -0.3305  0.4546
 4998TIP3    H136553   2.525   0.782   8.374 -2.0784  1.1443  1.1055
 4998TIP3    H236554   2.532   0.631   8.378  2.3424  1.1003 -1.5921
 4999TIP3   OH236555   6.345   5.790   0.127 -0.0892  0.2536  0.4450
 4999TIP3    H136556   6.282   5.838   0.073 -2.2730 -0.6666  2.0330
 4999TIP3    H236557   6.368   5.714   0.075 -0.5320  0.4572 -0.0555
 5000TIP3   OH236558   5.338   6.475   8.156  0.0626 -0.2100 -0.1326
 5000TIP3    H136559   5.256   6.524   8.155  0.6193  0.7781 -1.5377
 5000TIP3    H236560   5.328   6.413   8.228 -2.1167 -0.5082 -0.6281
 5001TIP3   OH236561   2.801   2.188   8.537  0.8692 -0.3290  0.1494
 5001TIP3    H136562   2.745   2.115   8.510 -0.8645  1.0908 -0.2912
 5001TIP3    H236563   2.831   2.227   8.456  0.4597  0.4054  0.3423
 5002TIP3   OH236564   4.776   2.003   1.259  0.2351 -0.2672  0.4113
 5002TIP3    H136565   4.757   1.913   1.284 -1.3523 -0.2069 -0.4161
 5002TIP3    H236566   4.748   2.009   1.167 -2.6537  1.8032  1.2657
 5003TIP3   OH236567   5.930   1.559   7.901  0.1489 -0.2470  0.4262
 5003TIP3    H136568   5.949   1.633   7.959 -0.0452 -0.5407  0.8681
 5003TIP3    H236569   5.927   1.598   7.814  0.2822  0.2280  0.6280
 5004TIP3   OH236570   3.474   4.855   7.996 -0.1684  0.7220  0.6301
 5004TIP3    H136571   3.398   4.896   8.037 -0.2447  1.0239  0.1838
 5004TIP3    H236572   3.449   4.763   7.987 -0.2498  0.7011  1.0242
 5005TIP3   OH236573   6.713   2.502   8.294  0.6663  0.5321  0.0168
 5005TIP3    H136574   6.670   2.587   8.284  2.4360  1.7409  1.9842
 5005TIP3    H236575   6.689   2.473   8.382 -1.4552 -2.0383 -1.2367
 5006TIP3   OH236576   1.176   5.696   2.204 -0.2735 -0.3368 -0.4474
 5006TIP3    H136577   1.156   5.615   2.251  2.4531 -0.9304 -0.1110
 5006TIP3    H236578   1.243   5.738   2.258  0.8171  0.4288 -2.3186
 5007TIP3   OH236579   0.997   4.581   6.706 -0.0768  0.3666  0.8561
 5007TIP3    H136580   0.952   4.498   6.695 -0.1005  0.2967  1.4302
 5007TIP3    H236581   1.014   4.612   6.617  2.8565 -1.8456  0.5089
 5008TIP3   OH236582   5.876   6.403   0.980  0.1284 -0.0510 -0.0393
 5008TIP3    H136583   5.908   6.320   0.943 -1.7310 -0.1346 -1.6433
 5008TIP3    H236584   5.883   6.391   1.074  1.6444 -1.2903 -0.2648
 5009TIP3   OH236585   4.549   0.450   1.898  0.5605 -0.0802 -0.3159
 5009TIP3    H136586   4.562   0.425   1.807  0.9612 -1.7597  0.1604
 5009TIP3    H236587   4.582   0.540   1.904 -0.0065  0.2710 -1.9228
 5010TIP3   OH236588   3.871   4.109   0.124 -0.0281 -0.5788  0.2030
 5010TIP3    H136589   3.940   4.168   0.095 -0.4688  0.2855  0.8604
 5010TIP3    H236590   3.916   4.042   0.175  0.2598  0.3870  1.2494
 5011TIP3   OH236591   0.162   6.111   0.679 -0.3859  0.2045 -0.4013
 5011TIP3    H136592   0.198   6.087   0.593 -0.3628 -1.2914  0.0068
 5011TIP3    H236593   0.104   6.038   0.702  0.1517  0.2446  1.1687
 5012TIP3   OH236594   0.249   5.598   1.085 -0.2399  0.2914 -0.1756
 5012TIP3    H136595   0.327   5.599   1.140  0.3243  1.5292 -0.9710
 5012TIP3    H236596   0.253   5.514   1.039  0.1855 -0.0098  0.4043
 5013TIP3   OH236597   6.476   2.988   2.426  0.4291 -0.4250 -0.7067
 5013TIP3    H136598   6.418   2.935   2.371 -0.1621  0.3758 -0.8682
 5013TIP3    H236599   6.427   3.000   2.508  0.2578  0.4517 -0.9302
 5014TIP3   OH236600   6.870   1.201   0.593 -0.1337  0.2466  0.2175
 5014TIP3    H136601   6.922   1.205   0.673 -0.2780 -1.0685  0.4079
 5014TIP3    H236602   6.838   1.290   0.580 -0.0458  0.5003  1.5900
 5015TIP3   OH236603   4.522   1.874   1.856  0.9910  0.6687 -0.4176
 5015TIP3    H136604   4.471   1.852   1.778  0.7913  1.3876 -0.4932
 5015TIP3    H236605   4.459   1.867   1.928  1.2798 -0.4345 -0.2493
 5016TIP3   OH236606   6.212   5.024   2.615  0.0935 -0.0621  0.4057
 5016TIP3    H136607   6.287   5.081   2.598  0.2311  0.3818  2.2490
 5016TIP3    H236608   6.246   4.956   2.673 -0.5442 -0.8745 -0.1549
 5017TIP3   OH236609   2.446   4.602   8.103  0.0790  0.1032 -0.2832
 5017TIP3    H136610   2.413   4.690   8.123 -0.1646 -0.3987  1.7104
 5017TIP3    H236611   2.531   4.617   8.063  0.5492  1.2605  1.0683
 5018TIP3   OH236612   3.982   5.291   6.923 -0.4429  0.1249 -0.3331
 5018TIP3    H136613   3.991   5.240   6.843 -0.7003 -1.1760  0.4283
 5018TIP3    H236614   3.950   5.376   6.894  1.3146  0.3569 -1.7766
 5019TIP3   OH236615   0.464   5.049   0.945  0.3621  1.3726  0.0518
 5019TIP3    H136616   0.420   4.967   0.966  1.6369  0.4132 -0.8242
 5019TIP3    H236617   0.459   5.101   1.025  1.0783 -0.2884  1.2364
 5020TIP3   OH236618   2.954   0.259   0.732  0.1568 -0.7977 -0.3308
 5020TIP3    H136619   2.908   0.343   0.726  0.6956 -0.4890 -0.1245
 5020TIP3    H236620   2.933   0.215   0.649 -0.4872 -0.6471 -0.2531
 5021TIP3   OH236621   4.513   5.951   0.417  0.5566  0.6563  0.6489
 5021TIP3    H136622   4.518   6.008   0.493  0.1164  2.2089 -0.4417
 5021TIP3    H236623   4.489   6.009   0.344  2.0128 -0.5506 -0.9023
 5022TIP3   OH236624   2.044   2.186   2.117 -0.1463  0.7746  0.1427
 5022TIP3    H136625   2.097   2.148   2.046  1.8974  0.3883  1.7713
 5022TIP3    H236626   2.108   2.232   2.172 -1.8095  1.9003  1.2348
 5023TIP3   OH236627   1.277   2.311   2.442  0.1470  0.1291  0.4161
 5023TIP3    H136628   1.268   2.257   2.364 -2.7280 -0.0856  0.7972
 5023TIP3    H236629   1.300   2.249   2.511  3.2518  0.3878 -0.2037
 5024TIP3   OH236630   6.487   4.864   2.802 -0.3688 -0.6928 -0.0300
 5024TIP3    H136631   6.541   4.897   2.731 -0.4096  0.4171  0.4341
 5024TIP3    H236632   6.456   4.779   2.772 -0.7691 -0.0357 -1.5275
 5025TIP3   OH236633   4.662   5.035   8.617 -0.0270  0.3007 -0.2091
 5025TIP3    H136634   4.676   5.084   8.536 -0.4311  0.9858  0.1298
 5025TIP3    H236635   4.569   5.010   8.615 -0.2015  0.8603  0.3237
 5026TIP3   OH236636   6.629   6.875   6.916 -0.9589  0.5805  0.7054
 5026TIP3    H136637   6.607   6.946   6.857  0.3894  0.6403  0.2400
 5026TIP3    H236638   6.561   6.877   6.984 -2.2914  0.7788 -0.5847
 5027TIP3   OH236639   0.359   1.246   8.116  0.3299 -0.4007 -0.1358
 5027TIP3    H136640   0.339   1.200   8.197  0.8230 -0.4384 -0.0305
 5027TIP3    H236641   0.324   1.190   8.047  0.8049 -0.8695 -0.0035
 5028TIP3   OH236642   0.447   6.750   1.993  0.0184 -0.0828 -0.0992
 5028TIP3    H136643   0.501   6.826   2.015 -0.6926  0.8547 -1.4539
 5028TIP3    H236644   0.360   6.786   1.978 -1.0784 -1.5837  2.1704
 5029TIP3   OH236645   4.601   4.623   2.664  0.1676 -0.3036 -0.1777
 5029TIP3    H136646   4.578   4.700   2.717  1.2546 -0.9044  1.2208
 5029TIP3    H236647   4.559   4.640   2.579 -1.7396  0.6485  0.8693
 5030TIP3   OH236648   5.375   4.727   7.824 -0.0654 -0.1479  0.4534
 5030TIP3    H136649   5.332   4.795   7.772 -0.0290  0.6300  1.4127
 5030TIP3    H236650   5.431   4.681   7.761 -0.9322 -0.0259 -0.4417
 5031TIP3   OH236651   0.454   6.448   8.052 -0.4815 -0.1033  0.1358
 5031TIP3    H136652   0.512   6.515   8.088  0.1495 -0.4802 -0.1471
 5031TIP3    H236653   0.491   6.428   7.966 -0.3875 -1.1324  0.3999
 5032TIP3   OH236654   5.972   0.089   7.501  0.0675 -0.2416  0.4114
 5032TIP3    H136655   6.027   0.142   7.444  1.1844 -0.5642  1.1613
 5032TIP3    H236656   6.032   0.051   7.565 -1.2430  0.7627  2.3511
 5033TIP3   OH236657   5.908   6.321   2.119  0.2273  0.2404 -0.2042
 5033TIP3    H136658   5.914   6.229   2.147  1.3162  0.2632 -0.3592
 5033TIP3    H236659   5.878   6.367   2.198  0.3996 -0.1334  0.0852
 5034TIP3   OH236660   1.646   6.148   2.293 -0.2355  0.1894  0.0770
 5034TIP3    H136661   1.630   6.243   2.291 -0.3633  0.2060  1.2913
 5034TIP3    H236662   1.667   6.126   2.202 -2.7474  0.9422 -0.7738
 5035TIP3   OH236663   5.936   4.202   8.277 -0.0729  0.9676  0.1153
 5035TIP3    H136664   5.870   4.133   8.268 -0.3621  1.2573 -0.0108
 5035TIP3    H236665   5.887   4.279   8.306  0.3250  0.9878  0.7595
 5036TIP3   OH236666   2.268   2.886   7.676  0.3317 -0.2451 -0.4447
 5036TIP3    H136667   2.267   2.792   7.695  1.5534 -0.2823 -0.4860
 5036TIP3    H236668   2.176   2.912   7.679  0.0475 -1.2601  0.4854
 5037TIP3   OH236669   2.665   6.206   2.782 -0.3039  0.4838  0.2085
 5037TIP3    H136670   2.613   6.127   2.765  0.5700 -0.1004  0.1978
 5037TIP3    H236671   2.728   6.179   2.848  0.1146  1.1352  0.0793
 5038TIP3   OH236672   3.241   0.449   2.875 -0.2345 -0.3712 -0.3069
 5038TIP3    H136673   3.205   0.533   2.845  0.9272  0.1389 -0.3214
 5038TIP3    H236674   3.281   0.412   2.796  0.5250 -0.2554  0.0205
 5039TIP3   OH236675   2.309   1.708   8.380  0.6668 -0.0142  0.1466
 5039TIP3    H136676   2.267   1.782   8.424 -0.3247 -0.7968  0.5476
 5039TIP3    H236677   2.292   1.633   8.437 -0.0289 -0.9183 -1.2138
 5040TIP3   OH236678   1.967   2.634   0.533  0.0477 -0.1529 -1.0327
 5040TIP3    H136679   2.005   2.550   0.506  0.0590 -0.3719 -0.3526
 5040TIP3    H236680   1.899   2.610   0.596 -1.5892  0.1887 -2.5596
 5041TIP3   OH236681   5.549   2.978   0.277  0.0420  0.2404  0.1457
 5041TIP3    H136682   5.575   3.036   0.206 -0.8886 -0.2433 -0.6140
 5041TIP3    H236683   5.458   3.001   0.296 -0.0892 -0.4269  0.3765
 5042TIP3   OH236684   6.506   6.091   2.608 -0.0513  0.5466 -0.1975
 5042TIP3    H136685   6.526   6.001   2.581  1.2252  0.6325  0.4077
 5042TIP3    H236686   6.419   6.085   2.647  0.8479 -0.8721  1.7882
 5043TIP3   OH236687   1.115   6.803   0.502 -0.0935  0.1056  0.2241
 5043TIP3    H136688   1.064   6.765   0.574  1.4457  2.3227  2.6928
 5043TIP3    H236689   1.096   6.897   0.506  0.5974  0.3806 -1.8463
 5044TIP3   OH236690   2.076   1.245   8.439  0.2022 -0.3017 -0.1763
 5044TIP3    H136691   2.138   1.180   8.407 -1.2827 -0.6343 -2.7061
 5044TIP3    H236692   2.077   1.314   8.372 -0.2620  0.9571  1.0503
 5045TIP3   OH236693   3.392   5.170   0.523  0.0454 -0.1620 -0.4420
 5045TIP3    H136694   3.302   5.152   0.496  0.1024 -0.8313 -0.2085
 5045TIP3    H236695   3.438   5.087   0.510  0.2608 -0.2864  0.9019
 5046TIP3   OH236696   2.499   0.032   8.506  0.1292  0.5956  0.2148
 5046TIP3    H136697   2.419  -0.021   8.506  0.2479  0.4123 -0.4311
 5046TIP3    H236698   2.569  -0.031   8.495  0.4048  0.7086  1.2456
 5047TIP3   OH236699   0.986   4.137   0.862 -0.2426  0.0284  0.5422
 5047TIP3    H136700   0.918   4.183   0.814 -0.6936  1.1968  2.2319
 5047TIP3    H236701   1.002   4.058   0.810 -1.1184  0.9159 -1.1747
 5048TIP3   OH236702   2.645   1.015   0.685  0.0254  0.4337 -0.1897
 5048TIP3    H136703   2.629   1.029   0.778  1.4553 -2.3446  0.5815
 5048TIP3    H236704   2.588   0.942   0.661  0.1551  0.6869 -1.3399
 5049TIP3   OH236705   0.897   6.460   0.524 -0.6365 -0.3602 -0.5620
 5049TIP3    H136706   0.964   6.445   0.458 -0.5489 -1.0813 -0.3087
 5049TIP3    H236707   0.823   6.406   0.496  0.0433 -2.1653  0.9002
 5050TIP3   OH236708   4.033   0.859   0.268 -0.1069 -0.7819 -0.3397
 5050TIP3    H136709   4.093   0.786   0.283  0.7401 -0.0094  0.1749
 5050TIP3    H236710   4.051   0.886   0.178 -0.2667 -1.0646 -0.4583
 5051TIP3   OH236711   5.528   5.108   2.616 -0.0816 -0.2821  0.2377
 5051TIP3    H136712   5.605   5.164   2.627  0.5359 -0.7723 -1.2468
 5051TIP3    H236713   5.497   5.091   2.705  0.6319  1.1481  0.7812
 5052TIP3   OH236714   5.780   5.431   1.239 -0.3075 -0.5281 -0.0131
 5052TIP3    H136715   5.863   5.407   1.197 -0.5188 -0.8502 -0.2545
 5052TIP3    H236716   5.775   5.526   1.229 -1.7323 -0.8066 -3.3971
 5053TIP3   OH236717   3.849   6.765   1.811  0.1377  0.0631  0.4015
 5053TIP3    H136718   3.806   6.742   1.894 -0.7468  2.9762  0.8615
 5053TIP3    H236719   3.882   6.854   1.825  0.6952  0.3261 -2.1239
 5054TIP3   OH236720   2.153   0.483   1.458  0.0711  0.1861  0.4445
 5054TIP3    H136721   2.157   0.471   1.363 -0.4773  0.3716  0.3978
 5054TIP3    H236722   2.235   0.527   1.480  0.3874 -0.2240  0.1142
 5055TIP3   OH236723   4.865   4.640   7.603 -0.0622  0.5410 -0.0854
 5055TIP3    H136724   4.960   4.643   7.611  0.2575 -0.8711 -2.3079
 5055TIP3    H236725   4.849   4.587   7.525 -2.6703  1.7028 -0.4664
 5056TIP3   OH236726   2.019   0.205   7.404  0.6181  0.9611  0.0149
 5056TIP3    H136727   2.113   0.188   7.395  0.9320  1.7007  1.5660
 5056TIP3    H236728   1.977   0.125   7.372  1.7544  0.7776 -1.0888
 5057TIP3   OH236729   1.308   4.477   7.277  0.2073  0.8181  0.0599
 5057TIP3    H136730   1.279   4.401   7.226  2.1791  0.1601 -0.2010
 5057TIP3    H236731   1.275   4.552   7.229  0.7612  0.1709 -1.4274
 5058TIP3   OH236732   2.363   2.069   0.054  0.4526  0.0250 -0.0084
 5058TIP3    H136733   2.458   2.065   0.051  0.3770 -1.6225 -1.6723
 5058TIP3    H236734   2.341   2.149   0.006  0.9725 -0.0836 -0.4390
 5059TIP3   OH236735   0.145   5.041   1.828  0.0999 -0.0216  0.5254
 5059TIP3    H136736   0.080   4.998   1.773  0.0220  0.1106  0.5134
 5059TIP3    H236737   0.202   5.087   1.767  0.4886 -0.5247  0.5063
 5060TIP3   OH236738   2.663   5.581   7.593  0.4733 -0.1430 -0.5999
 5060TIP3    H136739   2.599   5.530   7.643 -0.3026  0.1328 -1.2971
 5060TIP3    H236740   2.624   5.669   7.586  0.4594 -0.2356 -1.8713
 5061TIP3   OH236741   3.901   5.386   1.758  0.3093 -0.8951 -0.7409
 5061TIP3    H136742   3.822   5.427   1.722  1.5541  2.3613 -0.0437
 5061TIP3    H236743   3.881   5.374   1.851  0.9774  0.9586 -0.3351
 5062TIP3   OH236744   1.182   6.458   0.740  0.0875 -0.2966 -0.3630
 5062TIP3    H136745   1.234   6.397   0.793  1.6843  1.4409  0.1553
 5062TIP3    H236746   1.113   6.488   0.799 -0.1932 -0.9125 -0.3610
 5063TIP3   OH236747   4.526   2.938   8.519 -0.2089  0.2519  0.5801
 5063TIP3    H136748   4.432   2.924   8.507 -0.4739  3.1393 -2.1216
 5063TIP3    H236749   4.532   3.002   8.589 -0.6929  2.8581 -1.5807
 5064TIP3   OH236750   4.111   4.151   1.341  0.1227  0.4715 -0.8685
 5064TIP3    H136751   4.112   4.076   1.282  1.5206 -0.5695  0.4005
 5064TIP3    H236752   4.091   4.115   1.427 -1.9498  1.9698 -0.6466
 5065TIP3   OH236753   0.626   1.917   7.873  0.4368  0.2353  0.1684
 5065TIP3    H136754   0.637   1.905   7.967  0.1099  1.2538  0.3447
 5065TIP3    H236755   0.590   1.833   7.843 -2.7905  0.9736  1.5314
 5066TIP3   OH236756   4.101   4.688   1.791  0.1330 -0.0875 -0.6905
 5066TIP3    H136757   4.162   4.747   1.835 -0.0227  0.2009 -0.8604
 5066TIP3    H236758   4.046   4.745   1.738 -1.4299 -0.1519  0.7774
 5067TIP3   OH236759   5.189   5.866   1.079 -0.3530  0.9840 -0.0890
 5067TIP3    H136760   5.194   5.817   1.162  1.5314  0.0542 -0.6807
 5067TIP3    H236761   5.096   5.883   1.067 -0.6788  1.2284  2.2604
 5068TIP3   OH236762   2.340   6.522   0.267 -0.2005 -0.1625  0.0332
 5068TIP3    H136763   2.358   6.428   0.261  0.2888  0.0192 -2.2802
 5068TIP3    H236764   2.427   6.563   0.268 -0.4114  0.3049 -0.2630
 5069TIP3   OH236765   0.804   0.959   2.040 -0.2694  0.2385  0.7681
 5069TIP3    H136766   0.891   0.922   2.026 -0.6579 -0.3175 -0.2357
 5069TIP3    H236767   0.804   1.040   1.989 -0.1669  0.5249  1.2110
 5070TIP3   OH236768   2.178   3.694   7.749  0.9636  0.2514  0.8856
 5070TIP3    H136769   2.262   3.740   7.748  0.5870  0.9440 -0.3508
 5070TIP3    H236770   2.163   3.669   7.658  0.6386 -1.4137  1.3587
 5071TIP3   OH236771   4.974   6.564   0.106  0.2829 -0.6990 -0.4123
 5071TIP3    H136772   4.881   6.578   0.123  0.8082  3.2765  0.1408
 5071TIP3    H236773   5.011   6.537   0.190  0.0361  0.6659  0.1528
 5072TIP3   OH236774   3.315   3.342   1.552 -0.5722 -0.3648 -0.1978
 5072TIP3    H136775   3.407   3.320   1.565  0.2260  1.8087 -1.6694
 5072TIP3    H236776   3.305   3.350   1.457 -1.5157  2.2730  0.0503
 5073TIP3   OH236777   6.678   3.518   0.385 -0.2927 -0.8420  0.4237
 5073TIP3    H136778   6.584   3.500   0.379  0.1068 -2.7075 -1.9189
 5073TIP3    H236779   6.708   3.464   0.458 -1.0698  0.0101  1.3939
 5074TIP3   OH236780   0.717   5.940   1.526 -0.0144 -0.0634 -0.5724
 5074TIP3    H136781   0.645   5.988   1.486  1.1445  0.3509 -2.2339
 5074TIP3    H236782   0.780   6.007   1.552  0.2909 -0.4879 -0.1897
 5075TIP3   OH236783   4.156   3.666   7.964 -0.4045  0.3563 -0.3093
 5075TIP3    H136784   4.095   3.596   7.944 -0.3735 -0.2863  1.6110
 5075TIP3    H236785   4.230   3.622   8.007 -0.1349  1.4795  0.4280
 5076TIP3   OH236786   6.808   3.114   0.959 -0.0257  0.6665  0.0604
 5076TIP3    H136787   6.876   3.063   1.003 -1.3232 -2.2736 -1.1507
 5076TIP3    H236788   6.796   3.071   0.875 -2.9418  1.4563 -0.0271
 5077TIP3   OH236789   2.271   0.440   7.245 -0.4099 -0.1424  0.1355
 5077TIP3    H136790   2.272   0.358   7.197 -0.1387 -0.0953  0.0602
 5077TIP3    H236791   2.178   0.458   7.260 -0.4717 -0.4442  0.1252
 5078TIP3   OH236792   3.008   6.331   0.178  0.2488 -0.1919  0.8017
 5078TIP3    H136793   3.103   6.320   0.185  0.0992 -1.9191  0.4479
 5078TIP3    H236794   2.993   6.353   0.086  0.3362  0.7221  0.9921
 5079TIP3   OH236795   1.250   4.033   0.907  0.4485  0.0250 -0.0035
 5079TIP3    H136796   1.272   4.071   0.822  0.1358  1.0596  0.3620
 5079TIP3    H236797   1.178   4.087   0.939 -1.1255 -1.8751 -0.1523
 5080TIP3   OH236798   0.135   3.980   0.473  0.4265 -0.2817 -0.2891
 5080TIP3    H136799   0.139   4.075   0.476  0.7732 -0.2991 -0.0968
 5080TIP3    H236800   0.137   3.958   0.380 -2.0199 -0.0243 -0.4753
 5081TIP3   OH236801   0.592   5.996   0.813  0.0363  0.1414  0.1803
 5081TIP3    H136802   0.637   6.060   0.757 -0.8702  0.4123 -0.2602
 5081TIP3    H236803   0.589   5.916   0.761  0.8399 -0.1572  0.5847
 5082TIP3   OH236804   1.787   3.609   8.080 -0.2392  0.0384  0.4813
 5082TIP3    H136805   1.806   3.640   7.992 -0.5917 -2.1058 -0.3983
 5082TIP3    H236806   1.835   3.670   8.137 -0.5697  1.8901 -1.1066
 5083TIP3   OH236807   4.496   2.108   0.855  0.0841  0.5001  0.5383
 5083TIP3    H136808   4.417   2.098   0.801  1.0662  1.5064 -1.1554
 5083TIP3    H236809   4.478   2.185   0.910  0.0659  1.0122 -0.1806
 5084TIP3   OH236810   0.055   3.487   8.228  0.0206 -0.2130  0.2019
 5084TIP3    H136811   0.085   3.455   8.313  0.3702  0.4178  0.3238
 5084TIP3    H236812   0.061   3.583   8.235 -1.2320 -0.1027 -0.0695
 5085TIP3   OH236813   6.839   0.778   8.487 -0.3602  0.2007 -0.1406
 5085TIP3    H136814   6.824   0.826   8.406 -0.3856  0.3664 -0.0385
 5085TIP3    H236815   6.862   0.846   8.551  2.1492 -0.1369 -0.5995
 5086TIP3   OH236816   0.271   1.510   0.455  0.5820  0.4004 -0.0539
 5086TIP3    H136817   0.218   1.557   0.519  0.3583  0.4254 -0.2573
 5086TIP3    H236818   0.217   1.435   0.430 -0.9454  2.3000 -2.9588
 5087TIP3   OH236819   2.692   3.234   8.086  0.7133  0.2906 -0.5757
 5087TIP3    H136820   2.757   3.233   8.156  0.9251 -0.2958 -0.7799
 5087TIP3    H236821   2.622   3.176   8.116  0.3979  0.7217 -0.4685
 5088TIP3   OH236822   1.943   1.927   7.700 -0.4437  0.1864 -0.0815
 5088TIP3    H136823   1.940   1.907   7.794 -1.6762 -1.9441 -0.5188
 5088TIP3    H236824   2.031   1.963   7.687  0.4609 -1.2260  1.5767
 5089TIP3   OH236825   4.730   6.556   2.850 -0.0695  0.2442 -0.2874
 5089TIP3    H136826   4.756   6.629   2.793 -0.1486  0.0826 -0.5345
 5089TIP3    H236827   4.660   6.592   2.905  0.7670  0.7299  0.4869
 5090TIP3   OH236828   4.538   1.779   8.105 -0.9653 -1.0020  0.0328
 5090TIP3    H136829   4.504   1.836   8.036 -3.0230 -0.5373  1.3403
 5090TIP3    H236830   4.549   1.837   8.181 -0.3020 -1.7989  0.5613
 5091TIP3   OH236831   4.255   6.675   1.134 -0.1551  0.0498 -0.2507
 5091TIP3    H136832   4.169   6.637   1.149 -0.3828  1.1003  1.3649
 5091TIP3    H236833   4.262   6.682   1.039 -2.9530  2.2843 -0.4288
 5092TIP3   OH236834   0.937   6.719   1.610  0.7685  0.2309  0.2145
 5092TIP3    H136835   0.972   6.779   1.544 -1.7062  1.2989 -0.2725
 5092TIP3    H236836   0.875   6.664   1.562 -0.3001  0.3248  1.4085
 5093TIP3   OH236837   6.228   5.225   7.898  0.0318  0.0640 -0.6997
 5093TIP3    H136838   6.232   5.266   7.985 -2.0637 -0.3283 -0.3878
 5093TIP3    H236839   6.189   5.140   7.913  1.1646 -0.6974 -1.8423
 5094TIP3   OH236840   1.123   6.784   7.849 -0.4637 -0.5230  0.1850
 5094TIP3    H136841   1.157   6.861   7.804  0.5564 -0.5420  0.8760
 5094TIP3    H236842   1.045   6.815   7.895 -1.0928 -0.3377 -0.9815
 5095TIP3   OH236843   6.599   6.650   8.542 -0.2197  0.0238  0.1127
 5095TIP3    H136844   6.509   6.637   8.574  0.1633  0.2025  1.3273
 5095TIP3    H236845   6.610   6.745   8.540  0.4270  0.0032  1.4672
 5096TIP3   OH236846   3.949   0.232   7.796 -0.0366 -0.0854  0.6258
 5096TIP3    H136847   3.876   0.172   7.783  0.1868 -0.1272 -0.6132
 5096TIP3    H236848   4.025   0.175   7.807  0.0925 -0.0446 -0.0115
 5097TIP3   OH236849   5.799   2.046   1.542 -0.3099  0.0512  0.1118
 5097TIP3    H136850   5.881   2.088   1.513 -0.4384  1.3950  1.5618
 5097TIP3    H236851   5.828   1.978   1.603 -0.2439  0.1601  0.2029
 5098TIP3   OH236852   5.104   3.495   0.268 -0.4660 -0.1329  0.6679
 5098TIP3    H136853   5.059   3.566   0.313  0.4380  0.4160  0.7353
 5098TIP3    H236854   5.121   3.529   0.180  0.4509 -0.0357  0.8640
 5099TIP3   OH236855   4.321   0.377   2.655  0.6117  0.2885 -0.4290
 5099TIP3    H136856   4.410   0.377   2.692  0.5608  1.9269 -0.2137
 5099TIP3    H236857   4.333   0.351   2.564  1.2583  0.0191 -0.2724
 5100TIP3   OH236858   4.476   1.079   0.059 -0.1298  0.0734  0.2631
 5100TIP3    H136859   4.557   1.031   0.076 -0.1782 -0.7191 -1.5228
 5100TIP3    H236860   4.491   1.166   0.097  1.3331 -0.2528  0.4714
 5101TIP3   OH236861   6.023   4.620   8.146 -0.0406 -0.0471  0.5069
 5101TIP3    H136862   5.983   4.702   8.118 -0.2555  0.6373  2.5825
 5101TIP3    H236863   5.952   4.556   8.143 -0.0589  0.0117 -0.4250
 5102TIP3   OH236864   1.470   2.087   8.467  0.4015 -0.0206  0.1867
 5102TIP3    H136865   1.513   2.004   8.489  0.4878 -0.0523 -0.0952
 5102TIP3    H236866   1.392   2.089   8.523  0.7897  0.0559  0.7262
 5103TIP3   OH236867   5.760   3.885   7.076 -0.9381  0.3850  0.0516
 5103TIP3    H136868   5.678   3.843   7.050 -0.8659 -0.8787  1.7056
 5103TIP3    H236869   5.752   3.975   7.043 -1.5189 -0.6070 -2.6924
 5104TIP3   OH236870   4.144   2.883   7.679 -0.2519 -0.1130 -0.5109
 5104TIP3    H136871   4.235   2.856   7.690  0.2380  1.9892  1.0923
 5104TIP3    H236872   4.108   2.818   7.618  2.1349 -1.3287 -0.7675
 5105TIP3   OH236873   5.908   1.927   1.794 -0.1400 -0.4644  0.3794
 5105TIP3    H136874   5.972   1.870   1.751 -1.4231 -0.3580 -1.8151
 5105TIP3    H236875   5.885   1.881   1.875  2.5232 -0.5803  1.1542
 5106TIP3   OH236876   6.813   4.117   8.094  0.2033  0.3217 -0.7490
 5106TIP3    H136877   6.905   4.142   8.082  0.4231 -0.7440 -1.3988
 5106TIP3    H236878   6.809   4.026   8.064 -0.0383 -1.3512  3.6051
 5107TIP3   OH236879   3.063   0.663   0.572 -0.5308 -0.2569  0.3935
 5107TIP3    H136880   3.100   0.642   0.486  1.3200  0.0218  1.0718
 5107TIP3    H236881   3.067   0.758   0.577 -0.0064 -0.3072  1.0382
 5108TIP3   OH236882   4.053   6.533   7.282  0.4371  0.5480 -0.3241
 5108TIP3    H136883   4.041   6.484   7.201  2.0829  2.0077 -1.5304
 5108TIP3    H236884   4.120   6.485   7.330 -0.8581 -0.5668  0.4463
 5109TIP3   OH236885   5.575   4.936   0.252 -0.4490 -0.0195  0.2007
 5109TIP3    H136886   5.488   4.914   0.219 -0.5465  0.5479  0.0750
 5109TIP3    H236887   5.559   4.991   0.329 -0.2129 -0.7677  0.8100
 5110TIP3   OH236888   6.552   4.040   1.862  0.5041 -0.3449  0.2156
 5110TIP3    H136889   6.592   4.094   1.794  1.4837 -1.9175 -0.5152
 5110TIP3    H236890   6.614   3.968   1.874 -0.3379 -0.8325  1.7836
 5111TIP3   OH236891   6.035   0.233   0.172 -0.4376  0.1250 -0.4956
 5111TIP3    H136892   6.057   0.293   0.102  0.2294 -0.3264 -0.6841
 5111TIP3    H236893   5.946   0.204   0.153 -0.4930  0.4996 -0.7979
 5112TIP3   OH236894   2.348   3.234   0.302  0.6787  0.3420  0.1112
 5112TIP3    H136895   2.443   3.239   0.309  0.7482 -1.8139  1.8745
 5112TIP3    H236896   2.316   3.311   0.348  1.5912 -0.6790  2.5864
 5113TIP3   OH236897   4.232   5.417   1.986 -0.1431  0.1731  0.4493
 5113TIP3    H136898   4.145   5.456   1.994 -0.6893 -0.6794 -0.9342
 5113TIP3    H236899   4.285   5.461   2.053 -1.4493  1.2198  0.8258
 5114TIP3   OH236900   2.280   3.656   0.077 -0.3991  0.5190  0.5544
 5114TIP3    H136901   2.323   3.736   0.107 -0.8916  0.4748  1.4021
 5114TIP3    H236902   2.285   3.660  -0.019 -0.3312  1.5111  0.5978
 5115TIP3   OH236903   5.843   1.009   1.494  0.4844 -0.3919  0.2881
 5115TIP3    H136904   5.835   1.101   1.468 -0.7772 -0.0079  1.9032
 5115TIP3    H236905   5.934   0.998   1.520  1.2276 -0.2220 -2.0102
 5116TIP3   OH236906   4.819   2.810   6.918  0.2409  0.2365  0.6371
 5116TIP3    H136907   4.860   2.779   6.999  1.7181  0.7575  0.1246
 5116TIP3    H236908   4.782   2.731   6.878  0.6594 -0.2444  1.1783
 5117TIP3   OH236909   6.662   4.189   1.676  0.3698  0.4228  0.0851
 5117TIP3    H136910   6.690   4.280   1.666 -1.1698  0.9398  0.1436
 5117TIP3    H236911   6.638   4.162   1.588 -4.2491  1.8989  0.6380
 5118TIP3   OH236912   0.157   0.970   0.036 -0.1371  0.1419 -0.2547
 5118TIP3    H136913   0.134   0.997  -0.053  1.4484  0.6585 -0.5282
 5118TIP3    H236914   0.098   1.021   0.092 -0.2815  0.7561 -0.9520
 5119TIP3   OH236915   3.871   5.512   0.131  0.4727 -0.3998  0.0845
 5119TIP3    H136916   3.847   5.437   0.076  0.5304 -0.5847  0.3083
 5119TIP3    H236917   3.935   5.560   0.079  0.5234 -0.5708 -0.0128
 5120TIP3   OH236918   3.041   0.244   7.263  0.3964  0.4350  0.1749
 5120TIP3    H136919   2.996   0.248   7.346 -0.3320  0.7687 -0.2290
 5120TIP3    H236920   3.124   0.289   7.278 -0.0740  1.1973  0.5065
 5121TIP3   OH236921   2.164   5.410   8.147 -0.1009  0.0438  0.4310
 5121TIP3    H136922   2.121   5.495   8.151  1.9882  1.1494  1.4352
 5121TIP3    H236923   2.249   5.425   8.189  0.2183 -2.6240  0.8961
 5122TIP3   OH236924   0.457   5.608   0.467  0.3208  0.2682 -0.3244
 5122TIP3    H136925   0.482   5.516   0.459 -0.2763  0.0645  0.1038
 5122TIP3    H236926   0.363   5.607   0.481  0.1378  1.0115 -1.4145
 5123TIP3   OH236927   2.917   0.377   2.010 -0.1017  0.0284  0.1581
 5123TIP3    H136928   3.000   0.403   1.970 -0.3324 -0.2100 -0.4894
 5123TIP3    H236929   2.899   0.290   1.975 -1.4035  0.6957 -0.9738
 5124TIP3   OH236930   0.447   0.629   8.292 -0.0620 -0.3998 -0.0309
 5124TIP3    H136931   0.405   0.700   8.340 -2.4830 -0.6946 -1.5352
 5124TIP3    H236932   0.507   0.673   8.231 -0.4467  0.2586  0.0575
 5125TIP3   OH236933   0.061   5.190   7.833 -0.2334 -0.4670  0.6887
 5125TIP3    H136934   0.027   5.222   7.749 -0.0471 -2.6333 -0.3003
 5125TIP3    H236935   0.093   5.268   7.878 -1.7206  0.9551 -0.5994
 5126TIP3   OH236936   0.771   4.564   1.239 -0.1545 -0.2078  0.3884
 5126TIP3    H136937   0.686   4.570   1.196 -0.5216 -0.4386  1.0796
 5126TIP3    H236938   0.754   4.521   1.322  0.9440 -2.1591 -0.3233
 5127TIP3   OH236939   4.493   1.459   7.442  0.1556 -0.6613  0.0217
 5127TIP3    H136940   4.571   1.453   7.386 -0.5551 -0.2484 -1.0421
 5127TIP3    H236941   4.479   1.370   7.472  0.6017 -0.8842 -0.4038
 5128TIP3   OH236942   2.264   6.665   1.047 -1.0031  0.1012  0.1199
 5128TIP3    H136943   2.217   6.747   1.063 -0.7549  0.1761  0.4807
 5128TIP3    H236944   2.300   6.675   0.959 -3.5796 -0.8933 -1.1480
 5129TIP3   OH236945   1.804   2.104   7.988 -0.2420 -0.6281 -0.4969
 5129TIP3    H136946   1.899   2.096   7.992  0.0183  1.9388  2.3925
 5129TIP3    H236947   1.789   2.168   7.918  0.2211 -0.6213 -0.5935
 5130TIP3   OH236948   3.841   1.808   0.874 -0.0522 -0.0645  0.1146
 5130TIP3    H136949   3.746   1.813   0.862  0.1347  2.2236 -0.8442
 5130TIP3    H236950   3.869   1.741   0.813 -1.1209 -1.4602  1.0883
 5131TIP3   OH236951   4.256   6.635   7.979  0.1559 -0.0999 -0.4687
 5131TIP3    H136952   4.297   6.715   7.946 -1.4938 -0.3200 -3.3281
 5131TIP3    H236953   4.328   6.571   7.982  1.1467  0.9886  0.2865
 5132TIP3   OH236954   4.875   0.864   0.305 -0.4934 -0.1033 -0.1862
 5132TIP3    H136955   4.938   0.802   0.343 -0.3730  0.4487  0.5447
 5132TIP3    H236956   4.810   0.876   0.374  0.0177  1.3325  0.0726
 5133TIP3   OH236957   0.849   2.772   2.447  0.1010 -0.8092 -0.1274
 5133TIP3    H136958   0.853   2.678   2.431 -0.4465 -0.8726  0.0768
 5133TIP3    H236959   0.857   2.811   2.360 -1.4977 -1.1154 -0.4543
 5134TIP3   OH236960   1.242   2.011   3.017  0.3094 -0.6187 -0.1016
 5134TIP3    H136961   1.197   2.092   2.989  1.5004  0.2290  0.3540
 5134TIP3    H236962   1.307   1.996   2.948 -0.4269 -1.6596 -0.5922
 5135TIP3   OH236963   2.642   3.581   2.724 -0.0668  0.2884 -0.0538
 5135TIP3    H136964   2.734   3.567   2.744 -0.5049  0.0944  2.0237
 5135TIP3    H236965   2.642   3.624   2.638  1.8187 -2.0128 -1.3272
 5136TIP3   OH236966   0.062   0.252   2.018 -0.0728 -0.1657 -0.2738
 5136TIP3    H136967   0.018   0.248   2.103 -1.9507  0.1780 -1.1664
 5136TIP3    H236968   0.024   0.329   1.976  0.5412 -0.5564 -1.5791
 5137TIP3   OH236969   2.571   0.937   1.521  0.2988 -0.1867  0.4207
 5137TIP3    H136970   2.612   0.934   1.435 -0.8398 -0.2934 -0.1450
 5137TIP3    H236971   2.640   0.965   1.580  0.5688  2.1118 -0.8736
 5138TIP3   OH236972   1.201   1.635   1.819  0.6720  0.2433  0.0724
 5138TIP3    H136973   1.289   1.641   1.784  0.9650  1.5111  0.9476
 5138TIP3    H236974   1.210   1.581   1.898  0.9876  1.6602  1.0416
 5139TIP3   OH236975   2.258   6.189   2.212  0.0746  0.1149 -0.3196
 5139TIP3    H136976   2.302   6.182   2.296 -0.8102  0.8590  0.2329
 5139TIP3    H236977   2.178   6.137   2.222  0.1841 -0.1663 -0.8605
 5140TIP3   OH236978   6.778   1.527   7.881 -0.0768 -0.0663 -0.4383
 5140TIP3    H136979   6.700   1.567   7.842 -0.1023 -0.0795 -0.4007
 5140TIP3    H236980   6.804   1.460   7.819  0.0287  0.0810 -0.5532
 5141TIP3   OH236981   5.054   2.748   1.673 -0.4689  0.3645 -0.0588
 5141TIP3    H136982   5.000   2.826   1.659  0.7609  1.5184  1.2080
 5141TIP3    H236983   5.060   2.707   1.587 -2.3520  0.8428 -0.4596
 5142TIP3   OH236984   1.278   0.439   7.591 -0.2490  0.6078  0.0107
 5142TIP3    H136985   1.272   0.535   7.595 -0.9952  0.5329  2.4285
 5142TIP3    H236986   1.187   0.409   7.593 -0.0139 -0.1329  1.7204
 5143TIP3   OH236987   6.663   6.535   0.181  0.3419  0.1023 -0.1996
 5143TIP3    H136988   6.594   6.595   0.152  0.8392  0.5707 -0.4378
 5143TIP3    H236989   6.708   6.510   0.100  1.3929  0.9803  0.0952
 5144TIP3   OH236990   3.282   6.645   7.995 -0.3064  0.1233 -0.6702
 5144TIP3    H136991   3.330   6.718   8.033  0.8296 -0.9493  0.0356
 5144TIP3    H236992   3.337   6.615   7.922 -0.6693 -0.1476 -0.8400
 5145TIP3   OH236993   1.962   6.823   7.356  0.0956  0.5188 -0.1312
 5145TIP3    H136994   1.875   6.783   7.350 -0.7139  1.8423  1.9502
 5145TIP3    H236995   2.015   6.772   7.294 -2.4704  0.6332 -2.6226
 5146TIP3   OH236996   6.230   2.443   7.396 -0.0127  0.1013  0.9399
 5146TIP3    H136997   6.252   2.376   7.332  2.1255  0.1891  1.4865
 5146TIP3    H236998   6.137   2.431   7.414 -0.7282  0.1671 -2.2356
 5147TIP3   OH236999   3.913   1.404   8.588  0.1952  0.1063  0.1373
 5147TIP3    H137000   3.833   1.451   8.608  0.5270  2.1932 -2.8431
 5147TIP3    H237001   3.888   1.341   8.521  0.5625 -1.2428  1.2131
 5148TIP3   OH237002   0.176   1.072   0.437 -0.0341  0.0832 -0.0495
 5148TIP3    H137003   0.112   1.136   0.467  1.8192  0.5513  3.4969
 5148TIP3    H237004   0.142   0.988   0.466  0.4152  0.2054  0.8492
 5149TIP3   OH237005   6.549   6.304   7.671  0.3812 -0.7414 -0.2839
 5149TIP3    H137006   6.467   6.264   7.643  0.7093 -1.0959 -0.7422
 5149TIP3    H237007   6.522   6.368   7.737 -0.3735 -0.1139 -1.1708
 5150TIP3   OH237008   2.477   4.576   0.592 -0.6181  0.0545  0.6309
 5150TIP3    H137009   2.399   4.521   0.584 -0.4273 -0.2824  1.0415
 5150TIP3    H237010   2.536   4.545   0.523 -0.8001  0.2222  0.4035
 5151TIP3   OH237011   1.975   0.653   7.821 -0.2362  0.1286 -0.7003
 5151TIP3    H137012   2.061   0.670   7.859 -0.2254 -1.2947 -0.0382
 5151TIP3    H237013   1.990   0.585   7.755 -0.8769 -0.2742 -0.4409
 5152TIP3   OH237014   4.343   0.459   2.095  0.5344 -0.2557  0.0825
 5152TIP3    H137015   4.391   0.460   2.013  0.6690 -0.7101  0.1508
 5152TIP3    H237016   4.267   0.404   2.078  0.3387 -0.0030  0.1391
 5153TIP3   OH237017   1.417   0.765   1.614  0.1293 -0.1668 -0.0882
 5153TIP3    H137018   1.502   0.722   1.618  0.4118  0.4528  1.4303
 5153TIP3    H237019   1.381   0.756   1.702 -1.0114  0.2901 -0.4875
 5154TIP3   OH237020   1.884   1.494   8.264  0.3905 -0.1594 -0.2043
 5154TIP3    H137021   1.909   1.442   8.187  0.1920  0.1266 -0.4646
 5154TIP3    H237022   1.942   1.570   8.262  1.0317 -0.6286  0.4703
 5155TIP3   OH237023   0.179   1.714   8.419  0.2081  0.1270 -1.1019
 5155TIP3    H137024   0.234   1.647   8.377  1.6065  0.1070  0.6311
 5155TIP3    H237025   0.241   1.778   8.454 -0.7830 -0.0417  1.1855
 5156TIP3   OH237026   2.254   2.289   8.522 -0.1962 -0.0708 -0.0197
 5156TIP3    H137027   2.299   2.370   8.497 -0.8197  0.3180  0.0864
 5156TIP3    H237028   2.208   2.261   8.443 -0.5990  0.0992  0.1509
 5157TIP3   OH237029   1.203   0.039   2.115  0.1700  0.0996  0.5988
 5157TIP3    H137030   1.143  -0.034   2.126  1.4368 -1.3447 -1.2819
 5157TIP3    H237031   1.166   0.091   2.044  0.7579 -0.4220 -0.1078
 5158TIP3   OH237032   3.653   6.829   6.709  0.2842  0.2563 -0.8208
 5158TIP3    H137033   3.568   6.803   6.675  1.0156 -0.2340 -2.3634
 5158TIP3    H237034   3.646   6.924   6.722 -1.1855 -0.0723  1.2526
 5159TIP3   OH237035   6.356   3.494   0.869 -0.8355  0.3621  0.6506
 5159TIP3    H137036   6.275   3.450   0.844 -0.1774 -0.2054 -0.6323
 5159TIP3    H237037   6.404   3.430   0.921  0.2100 -0.6284 -1.3821
 5160TIP3   OH237038   2.768   4.767   8.198  0.1154  0.0465 -0.6924
 5160TIP3    H137039   2.842   4.825   8.180 -0.4305  0.9662 -0.0103
 5160TIP3    H237040   2.783   4.737   8.287  0.5570 -1.1366 -1.1389
 5161TIP3   OH237041   0.107   3.090   1.586 -0.0774 -0.6212  0.1030
 5161TIP3    H137042   0.099   3.004   1.544  0.5344 -1.2276  1.1712
 5161TIP3    H237043   0.193   3.122   1.560 -0.3296 -0.2959 -0.3428
 5162TIP3   OH237044   0.096   1.012   2.414  0.6667  0.7903  0.3513
 5162TIP3    H137045   0.126   1.009   2.505  0.8734  1.6374  0.3185
 5162TIP3    H237046   0.078   1.104   2.398  0.6288  0.6456 -0.4700
 5163TIP3   OH237047   0.001   4.063   1.150  0.3731  0.1928 -0.1374
 5163TIP3    H137048  -0.022   4.114   1.072  1.7931  0.9213 -0.1169
 5163TIP3    H237049  -0.076   4.009   1.167 -1.9242  3.4464  0.7901
 5164TIP3   OH237050   4.472   2.402   8.108  0.6043 -0.5080 -0.1006
 5164TIP3    H137051   4.431   2.369   8.028 -2.0942  0.7989  0.6328
 5164TIP3    H237052   4.548   2.452   8.077  0.5154 -1.3253 -1.7211
 5165TIP3   OH237053   6.492   1.726   0.319 -0.0019  0.1195 -0.3734
 5165TIP3    H137054   6.491   1.699   0.411 -1.9235 -0.6781 -0.5787
 5165TIP3    H237055   6.547   1.804   0.317  1.9904 -1.1636  1.0449
 5166TIP3   OH237056   2.369   0.398   7.587 -0.6801  0.3718  0.7087
 5166TIP3    H137057   2.395   0.457   7.516  1.6565 -0.0735  1.1343
 5166TIP3    H237058   2.328   0.324   7.543  0.8447  0.0403 -0.2097
 5167TIP3   OH237059   1.535   1.940   2.353 -0.3058 -0.0297 -0.2136
 5167TIP3    H137060   1.528   2.003   2.425  1.3688  1.1438 -1.0162
 5167TIP3    H237061   1.562   1.859   2.396  1.4382  0.8471  0.4461
 5168TIP3   OH237062   1.026   0.702   7.852 -0.7079  0.0809  0.2123
 5168TIP3    H137063   1.034   0.746   7.768 -2.4761 -0.5547 -0.3409
 5168TIP3    H237064   1.108   0.722   7.898  0.7689 -0.4428 -2.0462
 5169TIP3   OH237065   0.347   1.169   7.172 -0.3442  0.3140 -0.2609
 5169TIP3    H137066   0.274   1.222   7.204 -0.7497 -0.0853 -0.5073
 5169TIP3    H237067   0.352   1.190   7.078 -1.0367 -0.6797 -0.5382
 5170TIP3   OH237068   5.371   0.470   1.509 -0.4645 -0.3040  0.1168
 5170TIP3    H137069   5.419   0.397   1.471  1.6379  0.8785  0.3461
 5170TIP3    H237070   5.439   0.533   1.535 -2.1394  1.4032  0.6151
 5171TIP3   OH237071   2.954   5.610   8.477  0.1153 -0.7368 -0.1374
 5171TIP3    H137072   2.875   5.561   8.453  1.1828 -2.3113 -0.6121
 5171TIP3    H237073   3.025   5.561   8.436  1.4393  0.0543  1.1454
 5172TIP3   OH237074   1.693   0.419   7.874  0.4415 -0.2698 -0.0977
 5172TIP3    H137075   1.705   0.334   7.916 -0.2383 -0.0644  0.5111
 5172TIP3    H237076   1.713   0.403   7.781  0.7507 -0.9889  0.0916
 5173TIP3   OH237077   6.877   4.023   0.236 -0.7654  0.5414  0.3039
 5173TIP3    H137078   6.863   4.110   0.273 -0.0366  1.3853 -1.3236
 5173TIP3    H237079   6.796   4.003   0.190 -0.0495  1.5326 -1.5055
 5174TIP3   OH237080   0.527   3.845   2.341 -0.1449 -0.4436 -0.2653
 5174TIP3    H137081   0.560   3.826   2.253 -2.0755 -2.6670 -0.6019
 5174TIP3    H237082   0.444   3.890   2.327  0.3876  0.8135  0.4808
 5175TIP3   OH237083   1.379   4.719   2.268 -0.1490 -0.5784 -0.6670
 5175TIP3    H137084   1.328   4.650   2.226  0.0349 -0.8133 -0.5012
 5175TIP3    H237085   1.455   4.675   2.304 -0.2253 -0.3543 -0.2210
 5176TIP3   OH237086   4.954   1.245   0.900  0.4215 -0.2683  0.2737
 5176TIP3    H137087   5.037   1.207   0.930  1.3827  0.7987 -0.9463
 5176TIP3    H237088   4.887   1.193   0.944  1.7188  0.3672  3.2489
 5177TIP3   OH237089   3.812   3.946   3.007 -0.3796  0.5580 -0.0779
 5177TIP3    H137090   3.821   4.007   3.080  0.2273  0.1834  0.1712
 5177TIP3    H237091   3.893   3.957   2.956  0.8200 -1.5835  1.1839
 5178TIP3   OH237092   0.892   4.389   7.004 -0.4340  0.2486  0.0171
 5178TIP3    H137093   0.880   4.374   6.910  0.3622  0.7212 -0.1657
 5178TIP3    H237094   0.812   4.355   7.044 -0.3805 -0.8101 -0.7422
 5179TIP3   OH237095   5.175   5.992   0.321  0.0545  0.1817 -0.0341
 5179TIP3    H137096   5.174   6.088   0.320  2.6373  0.2854 -0.4520
 5179TIP3    H237097   5.265   5.970   0.343  0.0604 -2.1363 -2.0321
 5180TIP3   OH237098   5.359   6.663   1.113 -0.9960 -0.0593 -0.4970
 5180TIP3    H137099   5.422   6.609   1.065 -0.4848 -1.4025  1.5398
 5180TIP3    H237100   5.277   6.615   1.108 -1.3791  0.6594 -1.4138
 5181TIP3   OH237101   1.857   5.744   7.831  0.2254  0.3725  0.2260
 5181TIP3    H137102   1.846   5.816   7.892 -0.7375 -1.6318  2.5790
 5181TIP3    H237103   1.769   5.726   7.797  0.1446 -0.7463  0.9793
 5182TIP3   OH237104   1.371   6.042   0.185 -0.4338  0.2239 -0.2192
 5182TIP3    H137105   1.336   5.967   0.233  2.5295 -1.2373 -0.1013
 5182TIP3    H237106   1.432   6.083   0.247 -2.2391  3.0636 -0.1536
 5183TIP3   OH237107   5.813   3.173   0.889  0.1509 -0.4880  0.0774
 5183TIP3    H137108   5.868   3.215   0.955 -0.2555 -0.3434  0.3284
 5183TIP3    H237109   5.773   3.245   0.841  1.6701 -0.5618 -1.4024
 5184TIP3   OH237110   4.696   1.658   1.630  0.1966  0.4097  0.0094
 5184TIP3    H137111   4.669   1.568   1.616 -0.7738  0.2172  2.5937
 5184TIP3    H237112   4.628   1.711   1.589 -0.3919 -0.0619  0.3749
 5185TIP3   OH237113   0.833   5.372   1.095 -0.1157  0.4974 -0.7387
 5185TIP3    H137114   0.751   5.420   1.083 -0.2605  0.0053 -1.8984
 5185TIP3    H237115   0.872   5.369   1.008  1.8015  1.8277  0.0184
 5186TIP3   OH237116   4.502   0.113   1.495  0.1543 -0.8004  0.3920
 5186TIP3    H137117   4.545   0.047   1.549  0.4062 -0.3575  0.7405
 5186TIP3    H237118   4.518   0.085   1.405  0.2132 -1.2379  0.5370
 5187TIP3   OH237119   5.060   1.088   2.269  0.3276  0.0005  0.0203
 5187TIP3    H137120   5.025   1.019   2.213  2.1309  0.3896 -1.7264
 5187TIP3    H237121   5.155   1.074   2.268  0.6486  1.8838  0.4445
 5188TIP3   OH237122   0.912   0.605   0.608 -0.1053  0.2436 -0.3368
 5188TIP3    H137123   0.983   0.665   0.585 -0.7983  0.8661 -0.9318
 5188TIP3    H237124   0.839   0.632   0.552 -1.1476  0.3132  0.9846
 5189TIP3   OH237125   3.419   0.143   2.334 -0.0172 -0.1986  0.0316
 5189TIP3    H137126   3.451   0.077   2.272  0.6176  0.1245  0.0064
 5189TIP3    H237127   3.443   0.108   2.420 -0.4967 -0.4340  0.0700
 5190TIP3   OH237128   5.113   0.066   0.715 -0.1273  0.4926  0.2429
 5190TIP3    H137129   5.082  -0.002   0.774  2.4373 -1.3190 -0.3264
 5190TIP3    H237130   5.147   0.134   0.772 -0.0749 -0.0399  0.8570
 5191TIP3   OH237131   3.686   5.463   7.897  0.0743 -0.6041 -0.4642
 5191TIP3    H137132   3.693   5.472   7.802  2.4633  1.7865 -0.1734
 5191TIP3    H237133   3.642   5.543   7.926  0.8994 -0.5009  0.5686
 5192TIP3   OH237134   6.361   0.489   0.938  0.5030 -0.0490  0.6715
 5192TIP3    H137135   6.425   0.485   1.009  1.2379 -1.2317 -0.0092
 5192TIP3    H237136   6.393   0.425   0.874 -1.0653 -0.2742  0.0591
 5193TIP3   OH237137   3.267   3.236   7.626 -0.0553 -0.5093  0.0305
 5193TIP3    H137138   3.331   3.276   7.568  0.5492 -2.5995 -0.8501
 5193TIP3    H237139   3.205   3.306   7.647  0.8297  0.7922 -1.5419
 5194TIP3   OH237140   2.840   3.927   1.729  0.3358  0.3809 -0.1535
 5194TIP3    H137141   2.781   4.002   1.718  1.2877  1.3096  0.7697
 5194TIP3    H237142   2.783   3.853   1.749 -0.5398  1.1726  0.3186
 5195TIP3   OH237143   2.489   5.481   1.802  0.8171  0.0877 -0.3511
 5195TIP3    H137144   2.543   5.556   1.777  0.3161  0.4101 -0.4977
 5195TIP3    H237145   2.401   5.505   1.772  0.1350  0.5559  1.8290
 5196TIP3   OH237146   1.900   5.191   1.935  0.3735 -0.6444 -0.2206
 5196TIP3    H137147   1.989   5.220   1.913 -0.0675 -0.0257 -1.2745
 5196TIP3    H237148   1.906   5.162   2.026  1.5130 -0.0177 -0.0762
 5197TIP3   OH237149   0.488   3.223   8.276  0.3188  0.2514 -0.1662
 5197TIP3    H137150   0.498   3.216   8.371 -0.2438 -0.0883 -0.1277
 5197TIP3    H237151   0.576   3.207   8.241 -0.1068 -3.2701  0.1016
 5198TIP3   OH237152   2.152   3.438   1.008  0.0520 -0.0183  0.4968
 5198TIP3    H137153   2.113   3.371   1.065  0.2743 -0.1173  0.5341
 5198TIP3    H237154   2.206   3.388   0.946  0.9330  0.1803  1.0878
 5199TIP3   OH237155   2.354   6.021   0.369 -0.4738 -0.9647 -0.4557
 5199TIP3    H137156   2.383   6.005   0.459  1.0797  1.3027 -0.4722
 5199TIP3    H237157   2.435   6.026   0.318 -1.0876  1.2442 -1.3183
 5200TIP3   OH237158   1.327   5.979   8.424  0.3869 -0.3214  0.3935
 5200TIP3    H137159   1.267   5.906   8.437  2.0647 -1.6128  1.3853
 5200TIP3    H237160   1.412   5.946   8.455  1.6493  1.3675 -1.0121
 5201TIP3   OH237161   5.921   0.820   0.047  0.5489 -0.1545 -0.0675
 5201TIP3    H137162   5.992   0.760   0.069 -0.6424 -1.1631  1.2086
 5201TIP3    H237163   5.956   0.874  -0.023  1.7294 -2.2592 -1.2047
 5202TIP3   OH237164   2.696   4.496   0.437 -0.1788 -0.2337  0.0488
 5202TIP3    H137165   2.740   4.575   0.405  1.2886 -0.4132  1.4960
 5202TIP3    H237166   2.757   4.425   0.415 -1.7757 -1.1307 -1.8556
 5203TIP3   OH237167   3.091   1.685   7.881  0.5660 -0.0034  0.7141
 5203TIP3    H137168   3.154   1.751   7.910  0.4358  0.6107 -0.3340
 5203TIP3    H237169   3.144   1.613   7.849  0.7419  0.4825 -0.1012
 5204TIP3   OH237170   2.928   6.088   8.167 -0.4357  0.5539  0.3662
 5204TIP3    H137171   2.999   6.150   8.155 -0.5756  0.5693 -0.4043
 5204TIP3    H237172   2.948   6.045   8.250 -0.0827  1.2817  0.6682
 5205TIP3   OH237173   3.656   4.356   1.833  0.1077 -0.5437  0.6196
 5205TIP3    H137174   3.569   4.317   1.822 -0.5918  1.2876 -0.8577
 5205TIP3    H237175   3.672   4.353   1.927 -1.3847 -1.2393  0.8886
 5206TIP3   OH237176   2.184   3.323   7.722  0.5657  0.2453 -0.5691
 5206TIP3    H137177   2.128   3.310   7.798  0.5887 -3.5336 -1.0497
 5206TIP3    H237178   2.123   3.334   7.649  0.5323  0.8225 -0.4619
 5207TIP3   OH237179   5.584   2.144   0.056  0.2633 -0.2511 -0.3041
 5207TIP3    H137180   5.539   2.083   0.113  0.8414 -0.7771 -0.3919
 5207TIP3    H237181   5.667   2.162   0.101 -0.2128  1.0691  0.0909
 5208TIP3   OH237182   1.734   1.679   2.588  0.2991 -0.5920  0.1082
 5208TIP3    H137183   1.799   1.740   2.621 -2.4677  1.0601  3.1444
 5208TIP3    H237184   1.741   1.603   2.646  0.0134 -0.6905  0.0151
 5209TIP3   OH237185   4.209   1.513   7.514 -0.4336  0.2044 -0.0559
 5209TIP3    H137186   4.305   1.521   7.510 -0.5298  1.4869 -0.3174
 5209TIP3    H237187   4.186   1.461   7.437  0.1623 -1.5048  0.8736
 5210TIP3   OH237188   2.598   6.588   0.205 -0.2379 -0.0521  0.4075
 5210TIP3    H137189   2.625   6.537   0.128  0.4506 -0.5278  0.9580
 5210TIP3    H237190   2.666   6.572   0.270 -1.0194  0.0227  1.2620
 5211TIP3   OH237191   1.962   2.869   7.493 -0.3058  0.4263 -0.0234
 5211TIP3    H137192   1.896   2.810   7.455 -1.3102  0.7971  1.0828
 5211TIP3    H237193   1.965   2.844   7.585 -1.1784  2.4479  0.6027
 5212TIP3   OH237194   2.931   2.854   0.848  0.1802  0.2372  0.1082
 5212TIP3    H137195   3.017   2.814   0.859  0.3013  0.7468  1.1829
 5212TIP3    H237196   2.903   2.828   0.760  0.1432 -2.3417  0.8105
 5213TIP3   OH237197   3.977   5.329   0.625 -0.6515 -0.3725  0.0833
 5213TIP3    H137198   3.990   5.371   0.540 -0.7163 -1.8095 -0.6697
 5213TIP3    H237199   4.052   5.358   0.677 -0.0745 -0.2338 -0.7855
 5214TIP3   OH237200   5.609   4.172   8.478 -0.7457  0.1582 -0.1308
 5214TIP3    H137201   5.554   4.223   8.537 -0.2303  0.2160  0.3129
 5214TIP3    H237202   5.649   4.236   8.420  0.0115  0.2982  0.5166
 5215TIP3   OH237203   5.261   6.009   7.526  0.0250 -0.2143 -0.2720
 5215TIP3    H137204   5.262   6.089   7.473  0.5889 -0.2086 -0.2548
 5215TIP3    H237205   5.337   5.959   7.495  1.2013  0.4013  1.4558
 5216TIP3   OH237206   2.817   5.138   8.205 -0.3271  0.3148 -0.4555
 5216TIP3    H137207   2.795   5.213   8.150 -2.8864  0.5550  0.7163
 5216TIP3    H237208   2.739   5.082   8.200 -0.2525 -0.1296  2.0725
 5217TIP3   OH237209   1.810   6.139   8.473  0.3678 -0.4829  0.2909
 5217TIP3    H137210   1.828   6.188   8.393 -0.8499 -1.7460 -0.8062
 5217TIP3    H237211   1.777   6.204   8.534 -1.6423  0.0489 -1.2707
 5218TIP3   OH237212   4.513   0.408   2.313 -0.6555 -0.6846 -0.4027
 5218TIP3    H137213   4.480   0.465   2.382  0.2899 -0.3480 -0.2221
 5218TIP3    H237214   4.435   0.384   2.262 -0.9245  1.9502 -1.3669
 5219TIP3   OH237215   3.967   5.324   7.550 -0.3295  0.1523 -0.0559
 5219TIP3    H137216   4.038   5.270   7.516  0.1543  1.0003 -0.4418
 5219TIP3    H237217   3.999   5.354   7.636 -0.9345 -0.8109  0.5161
 5220TIP3   OH237218   5.785   5.701   1.260 -0.2912 -0.8419 -0.4715
 5220TIP3    H137219   5.841   5.773   1.228 -0.2589 -0.9720 -0.7121
 5220TIP3    H237220   5.750   5.733   1.343 -2.4022  0.5643 -1.8044
 5221TIP3   OH237221   2.339   5.049   8.538 -0.0793  0.2024  0.0929
 5221TIP3    H137222   2.328   5.028   8.630  1.4643 -2.4256 -0.2059
 5221TIP3    H237223   2.411   4.992   8.509  0.6544  2.1855 -2.3377
 5222TIP3   OH237224   6.154   3.168   1.407 -0.2439 -0.1456  0.1678
 5222TIP3    H137225   6.191   3.255   1.399  0.3758 -0.5122 -1.2880
 5222TIP3    H237226   6.083   3.177   1.470 -0.5502  1.5259 -0.3831
 5223TIP3   OH237227   4.726   2.598   1.233  0.2803  0.3019 -0.1285
 5223TIP3    H137228   4.641   2.628   1.266  0.1002 -0.9735  0.5993
 5223TIP3    H237229   4.714   2.596   1.138 -1.3278 -2.0930  0.0339
 5224TIP3   OH237230   0.002   6.357   2.592  0.3504  0.4162 -0.3193
 5224TIP3    H137231   0.007   6.452   2.578  1.7868  0.3272 -0.5396
 5224TIP3    H237232  -0.088   6.342   2.619 -0.3277  1.6522 -1.7300
 5225TIP3   OH237233   6.437   6.778   7.732 -0.1106 -0.1796 -0.2272
 5225TIP3    H137234   6.463   6.870   7.724 -1.7008  0.6218  2.6284
 5225TIP3    H237235   6.413   6.753   7.643  0.6787  2.0383 -1.1511
 5226TIP3   OH237236   3.556   1.294   0.767 -0.3519  0.1570 -0.3633
 5226TIP3    H137237   3.533   1.270   0.857 -0.0282  0.0294 -0.3125
 5226TIP3    H237238   3.480   1.267   0.715 -0.3985 -0.0863 -0.1736
 5227TIP3   OH237239   3.436   3.162   1.154  0.1973 -0.2554 -0.0116
 5227TIP3    H137240   3.526   3.177   1.124  0.0967 -0.3791 -0.3818
 5227TIP3    H237241   3.384   3.166   1.074 -0.0436 -0.8536  0.1115
 5228TIP3   OH237242   0.871   0.344   1.493  0.3448  0.1240  0.4620
 5228TIP3    H137243   0.925   0.383   1.562 -2.2369  1.2112  1.9909
 5228TIP3    H237244   0.781   0.356   1.522 -0.7821 -2.8827 -1.2831
 5229TIP3   OH237245   1.359   0.284   7.386  0.6301  0.3104 -0.9700
 5229TIP3    H137246   1.430   0.224   7.411 -0.9203 -0.9627  0.6445
 5229TIP3    H237247   1.341   0.334   7.465  0.5171  1.4819 -1.7231
 5230TIP3   OH237248   5.703   0.177   8.564  0.3768 -0.3685 -0.1762
 5230TIP3    H137249   5.641   0.114   8.530  0.1496 -0.9985  1.3216
 5230TIP3    H237250   5.688   0.177   8.658  1.0731  1.1769 -0.0330
 5231TIP3   OH237251   2.601   3.522   8.246 -0.0124  0.2505 -0.2444
 5231TIP3    H137252   2.676   3.521   8.305 -1.4983 -0.1971  1.7593
 5231TIP3    H237253   2.634   3.487   8.163  1.6068 -1.5534  1.0974
 5232TIP3   OH237254   5.557   3.491   0.491 -0.4218 -0.2874  0.0147
 5232TIP3    H137255   5.587   3.421   0.433 -1.9486  0.2087 -1.4663
 5232TIP3    H237256   5.474   3.458   0.527 -1.2812  0.7886 -0.8841
 5233TIP3   OH237257   2.765   5.860   0.919 -0.5157 -0.3209 -0.2123
 5233TIP3    H137258   2.791   5.861   1.011  0.0094 -0.9256 -0.3486
 5233TIP3    H237259   2.763   5.952   0.893 -0.6796 -0.1485  0.4021
 5234TIP3   OH237260   0.122   2.855   1.460  0.3009 -0.0048  0.8538
 5234TIP3    H137261   0.206   2.808   1.466  0.2816 -0.0602  0.7005
 5234TIP3    H237262   0.097   2.847   1.368 -0.7110 -1.4495  1.2110
 5235TIP3   OH237263   3.635   0.133   0.160 -0.7516  0.8017 -0.4653
 5235TIP3    H137264   3.710   0.170   0.205 -0.6062  1.4760 -1.2313
 5235TIP3    H237265   3.612   0.055   0.210  1.3891 -0.2810 -1.0785
 5236TIP3   OH237266   1.773   2.421   1.013 -1.2212 -0.5013 -0.2016
 5236TIP3    H137267   1.730   2.506   1.023  0.5554  0.8412 -2.8703
 5236TIP3    H237268   1.701   2.361   0.991 -2.2924  0.6692 -0.0510
 5237TIP3   OH237269   6.279   2.633   8.465 -0.3449 -0.4871  0.2068
 5237TIP3    H137270   6.281   2.538   8.452 -0.2369 -0.4708  0.1069
 5237TIP3    H237271   6.207   2.663   8.409 -0.5771 -0.5457  0.4713
 5238TIP3   OH237272   4.676   1.714   8.437  0.3643  0.7203  0.3839
 5238TIP3    H137273   4.673   1.809   8.429 -1.2542  0.7038  0.5457
 5238TIP3    H237274   4.735   1.686   8.367  0.8140  1.8296  0.2999
 5239TIP3   OH237275   0.271   3.652   1.751 -0.0362 -0.1995  0.5159
 5239TIP3    H137276   0.358   3.682   1.722 -0.2259  0.1651  0.3215
 5239TIP3    H237277   0.245   3.587   1.685 -0.0522 -0.0738  0.3994
 5240TIP3   OH237278   5.555   5.094   7.534 -0.0088  0.0448  0.4454
 5240TIP3    H137279   5.638   5.053   7.513 -0.8470 -0.5071 -2.0838
 5240TIP3    H237280   5.502   5.085   7.454 -3.0143 -0.8905  2.3508
 5241TIP3   OH237281   6.197   4.429   7.714 -1.0238  0.1911  0.7414
 5241TIP3    H137282   6.212   4.367   7.643 -1.0183 -1.3377  2.0412
 5241TIP3    H237283   6.282   4.471   7.727 -0.7429 -0.3286  0.5927
 5242TIP3   OH237284   1.129   5.477   0.788  0.0074 -0.1332 -0.3881
 5242TIP3    H137285   1.125   5.462   0.694 -1.2974  0.3299 -0.4282
 5242TIP3    H237286   1.068   5.413   0.825 -1.6820  1.5432 -0.1326
 5243TIP3   OH237287   0.622   5.807   1.796 -0.5542 -0.5264 -0.2497
 5243TIP3    H137288   0.642   5.819   1.703 -2.3427 -0.3654 -0.6465
 5243TIP3    H237289   0.601   5.894   1.827  2.2918 -0.1489  0.9579
 5244TIP3   OH237290   5.200   4.299   8.389 -0.0131 -0.3062  0.0580
 5244TIP3    H137291   5.246   4.293   8.473 -1.6500 -0.0608  1.0131
 5244TIP3    H237292   5.264   4.338   8.330  0.7488  0.7804  1.5342
 5245TIP3   OH237293   4.576   1.678   0.145 -0.3723 -0.3486  0.0870
 5245TIP3    H137294   4.631   1.631   0.082 -0.5786 -0.5649  0.0628
 5245TIP3    H237295   4.542   1.753   0.096 -0.3867 -0.4152 -0.0059
 5246TIP3   OH237296   2.457   3.034   7.533 -0.3206 -0.2279  0.3651
 5246TIP3    H137297   2.405   3.018   7.612 -1.3347 -1.3634 -0.4959
 5246TIP3    H237298   2.393   3.032   7.461  1.0105 -3.3932 -0.9343
 5247TIP3   OH237299   2.140   6.325   7.756 -0.4941  0.2821  0.2838
 5247TIP3    H137300   2.127   6.245   7.705  1.0985 -0.4784  0.9905
 5247TIP3    H237301   2.156   6.393   7.690 -1.1563 -0.1209 -0.3032
 5248TIP3   OH237302   2.219   4.464   8.034  0.0401 -0.1053 -0.3613
 5248TIP3    H137303   2.241   4.437   7.945  1.5362  2.8904 -1.0312
 5248TIP3    H237304   2.286   4.529   8.057 -0.6307 -0.3514  2.7636
 5249TIP3   OH237305   2.808   1.618   1.855 -0.0794  0.2650 -0.9514
 5249TIP3    H137306   2.852   1.695   1.819 -0.8701  0.8576 -0.6688
 5249TIP3    H237307   2.810   1.632   1.950  0.1494 -0.2770 -0.8709
 5250TIP3   OH237308   1.831   1.015   7.642  0.1943 -0.1635 -0.2414
 5250TIP3    H137309   1.831   0.949   7.572 -1.2964 -1.6169  1.0346
 5250TIP3    H237310   1.804   0.966   7.720 -0.5439  1.8967  0.8496
 5251TIP3   OH237311   2.095   3.622   6.853  0.4996 -0.4177 -0.2867
 5251TIP3    H137312   2.146   3.554   6.897 -0.7775 -0.9198  0.4436
 5251TIP3    H237313   2.133   3.704   6.885  0.1156 -0.7783  1.1390
 5252TIP3   OH237314   2.875   4.652   7.867 -0.3624  0.4252  0.2520
 5252TIP3    H137315   2.878   4.729   7.924 -0.5102  0.3731  0.3307
 5252TIP3    H237316   2.782   4.636   7.852 -0.3063  1.2344 -1.0897
 5253TIP3   OH237317   6.310   3.917   1.858 -0.5376  0.9364  0.2833
 5253TIP3    H137318   6.381   3.981   1.868 -0.3796  0.9277 -0.6241
 5253TIP3    H237319   6.253   3.931   1.933  2.5997 -1.9194  3.6281
 5254TIP3   OH237320   1.624   6.556   1.158 -0.4698  0.0947  0.0118
 5254TIP3    H137321   1.704   6.505   1.145  1.0155  2.1239  0.7524
 5254TIP3    H237322   1.620   6.573   1.252 -1.2636  0.8265 -0.1364
 5255TIP3   OH237323   2.789   3.451   2.390 -0.3012  0.2624 -0.1000
 5255TIP3    H137324   2.861   3.412   2.440  0.5135 -0.0160 -1.4336
 5255TIP3    H237325   2.790   3.544   2.414  0.2923  0.1990  0.1377
 5256TIP3   OH237326   6.605   5.195   1.824  0.2481  0.0501  0.2420
 5256TIP3    H137327   6.533   5.256   1.838 -1.8846 -1.9121 -1.3935
 5256TIP3    H237328   6.604   5.138   1.901 -1.2411 -1.1054 -0.5798
 5257TIP3   OH237329   2.412   6.373   2.084  0.4204  0.0875 -0.1802
 5257TIP3    H137330   2.480   6.313   2.116  0.9868  1.1862  0.7313
 5257TIP3    H237331   2.337   6.355   2.140  1.0215  1.1431  1.0204
 5258TIP3   OH237332   4.335   3.393   0.355 -0.3265  0.5856 -0.2299
 5258TIP3    H137333   4.329   3.392   0.259  1.1243 -0.3444 -0.3428
 5258TIP3    H237334   4.299   3.478   0.380 -2.5576  0.0911 -1.4296
 5259TIP3   OH237335   2.591   2.504   0.136 -0.1244 -0.1920 -0.1485
 5259TIP3    H137336   2.613   2.575   0.197 -2.2830  0.7680 -0.3846
 5259TIP3    H237337   2.611   2.424   0.184 -2.0654  0.5192  2.0550
 5260TIP3   OH237338   1.596   4.887   8.130  0.6204  0.0542 -0.3191
 5260TIP3    H137339   1.566   4.968   8.171  0.8465  1.2893 -2.4556
 5260TIP3    H237340   1.623   4.913   8.042 -0.2570 -2.5184 -1.4388
 5261TIP3   OH237341   2.257   1.799   7.518 -0.4841  0.6712 -0.2844
 5261TIP3    H137342   2.170   1.760   7.527  0.4337 -2.5902 -3.3684
 5261TIP3    H237343   2.271   1.806   7.423  2.8358  0.4170  0.0505
 5262TIP3   OH237344   2.409   0.728   1.536  0.1738  0.1312  0.4532
 5262TIP3    H137345   2.434   0.685   1.454 -0.0796 -1.3956  1.1452
 5262TIP3    H237346   2.461   0.808   1.538 -0.5362  0.7128 -1.6663
 5263TIP3   OH237347   1.441   0.733   0.725  0.0791  0.0335 -0.5570
 5263TIP3    H137348   1.536   0.748   0.731 -0.0884  1.2230 -0.5480
 5263TIP3    H237349   1.431   0.639   0.737  1.2098 -0.0292  0.1331
 5264TIP3   OH237350   3.855   4.145   3.185  0.5608  0.3403  0.1596
 5264TIP3    H137351   3.849   4.240   3.187  0.8076  0.3500  1.4122
 5264TIP3    H237352   3.881   4.120   3.274  0.2748 -0.9093 -0.0739
 5265TIP3   OH237353   5.587   0.010   0.599 -0.0560 -0.2723  0.6025
 5265TIP3    H137354   5.518   0.014   0.665 -0.8427  0.6779 -0.2530
 5265TIP3    H237355   5.556   0.066   0.528  1.6486  0.3009  0.2508
 5266TIP3   OH237356   1.187   4.884   1.971  0.0432  0.6744  0.2250
 5266TIP3    H137357   1.274   4.921   1.987  0.1526  1.5749 -2.0075
 5266TIP3    H237358   1.204   4.799   1.932 -0.1906 -0.7145  2.9173
 5267TIP3   OH237359   0.731   6.295   0.141  0.2904  0.6462 -0.6655
 5267TIP3    H137360   0.819   6.322   0.167  0.1104  0.4350  0.1884
 5267TIP3    H237361   0.724   6.321   0.049  1.4681  0.1041 -0.9246
 5268TIP3   OH237362   4.661   1.466   7.216 -0.1007 -0.1098  0.3405
 5268TIP3    H137363   4.637   1.514   7.136 -1.0373 -2.6819 -1.0274
 5268TIP3    H237364   4.734   1.411   7.189  1.8379  1.3615  2.2263
 5269TIP3   OH237365   2.309   0.458   0.446  0.6371  0.2235  0.5002
 5269TIP3    H137366   2.374   0.397   0.409  1.0054  0.6222  0.4790
 5269TIP3    H237367   2.291   0.520   0.375 -0.6890 -0.5818  0.0929
 5270TIP3   OH237368   1.706   3.314   7.945  0.1224 -0.4918 -0.0259
 5270TIP3    H137369   1.683   3.311   7.852  0.7425 -0.5768 -0.1853
 5270TIP3    H237370   1.644   3.375   7.984  0.9825  0.9475 -0.8368
 5271TIP3   OH237371   4.964   0.696   8.085 -0.3403  0.1940 -0.3857
 5271TIP3    H137372   4.883   0.664   8.046  0.0332 -1.2006 -0.0899
 5271TIP3    H237373   5.012   0.617   8.110 -0.8155  0.9004  3.5003
 5272TIP3   OH237374   5.467   4.588   2.500  0.3344  0.1499  0.0485
 5272TIP3    H137375   5.486   4.669   2.547 -0.5997  0.7621 -0.5934
 5272TIP3    H237376   5.450   4.524   2.569 -2.8666  1.4585  0.6597
 5273TIP3   OH237377   0.986   0.745   1.736 -0.3192  0.2917  0.3316
 5273TIP3    H137378   0.983   0.733   1.830 -0.2593  2.3446  0.6361
 5273TIP3    H237379   1.006   0.658   1.701 -0.2810 -0.4849  2.1916
 5274TIP3   OH237380   2.883   6.788   2.078  0.3459  0.3446 -0.5509
 5274TIP3    H137381   2.861   6.695   2.073 -0.4848  0.3578  1.7566
 5274TIP3    H237382   2.977   6.791   2.060  0.3379 -0.9257 -0.8864
 5275TIP3   OH237383   1.484   1.288   1.869 -0.7587 -0.2263 -0.0484
 5275TIP3    H137384   1.572   1.322   1.851 -0.9321 -0.2949 -1.0854
 5275TIP3    H237385   1.440   1.291   1.784 -1.4515 -1.0772  0.2705
 5276TIP3   OH237386   3.284   0.035   0.896  0.3661  0.6008 -0.0447
 5276TIP3    H137387   3.299  -0.006   0.811  1.1688  0.7702  0.0082
 5276TIP3    H237388   3.301  -0.035   0.959 -1.5428  0.0838 -0.0341
 5277TIP3   OH237389   6.280   4.485   6.784 -0.1746  0.0993 -0.2911
 5277TIP3    H137390   6.273   4.393   6.760 -0.7973 -0.2265  1.0602
 5277TIP3    H237391   6.283   4.485   6.880  0.9805  1.4105 -0.2934
 5278TIP3   OH237392   6.348   1.889   1.712 -0.4331  0.2817 -0.2608
 5278TIP3    H137393   6.361   1.890   1.617 -0.1100  1.4140 -0.2222
 5278TIP3    H237394   6.437   1.882   1.748 -0.4499  1.0765 -0.0427
 5279TIP3   OH237395   1.739   1.738   7.604 -0.1866  0.0196  0.8776
 5279TIP3    H137396   1.796   1.810   7.631 -1.1048  1.8959 -1.7813
 5279TIP3    H237397   1.795   1.683   7.550 -0.2331  0.4817  0.3459
 5280TIP3   OH237398   0.712   6.703   0.820  0.0081  0.6494 -0.0598
 5280TIP3    H137399   0.620   6.728   0.823 -0.1579 -0.0151  1.4938
 5280TIP3    H237400   0.720   6.633   0.885  1.6484  0.8392 -0.0079
 5281TIP3   OH237401   2.814   0.499   0.682  0.5316 -0.6089  0.1968
 5281TIP3    H137402   2.750   0.489   0.611  0.5736 -0.1622  0.0903
 5281TIP3    H237403   2.899   0.504   0.638  0.7568 -2.1791  0.3942
 5282TIP3   OH237404   0.543   3.298   8.549  0.6431  0.0211 -0.3803
 5282TIP3    H137405   0.610   3.363   8.528  0.0646  0.1508 -1.9805
 5282TIP3    H237406   0.591   3.217   8.560  1.1142  0.1868 -1.1351
 5283TIP3   OH237407   1.993   3.056   7.980  0.1183 -0.6956 -0.5915
 5283TIP3    H137408   2.088   3.059   7.964  0.1058 -1.1981 -0.7741
 5283TIP3    H237409   1.981   3.110   8.058  0.4014  0.3599 -1.2510
 5284TIP3   OH237410   4.096   5.187   8.145 -0.2428  0.2084  0.0400
 5284TIP3    H137411   4.072   5.257   8.085 -1.3000  0.1221  0.3497
 5284TIP3    H237412   4.146   5.125   8.090 -2.1479 -0.4341 -1.0527
 5285TIP3   OH237413   3.996   1.733   0.639  0.2678 -0.3700 -0.3061
 5285TIP3    H137414   3.977   1.791   0.565  0.1893 -0.4160 -0.3217
 5285TIP3    H237415   3.985   1.645   0.603  3.2945 -0.5396 -1.1645
 5286TIP3   OH237416   1.697   6.590   8.067  0.2492 -0.6114  0.2924
 5286TIP3    H137417   1.730   6.546   7.989 -1.7366  1.6702 -2.0367
 5286TIP3    H237418   1.648   6.523   8.114 -0.5983 -1.5134 -1.7813
 5287TIP3   OH237419   0.845   0.332   8.321  0.5155  0.3499  0.9304
 5287TIP3    H137420   0.882   0.420   8.327 -0.2409  0.7699 -0.1252
 5287TIP3    H237421   0.783   0.337   8.248  1.7051 -1.5144 -0.2851
 5288TIP3   OH237422   1.457   2.892   2.374 -0.1646 -0.3580  0.0202
 5288TIP3    H137423   1.523   2.864   2.437 -0.9420  0.2103  1.1137
 5288TIP3    H237424   1.380   2.839   2.393 -0.1425 -0.8172 -1.0606
 5289TIP3   OH237425   0.671   4.444   1.500  0.4329  0.0175 -0.0464
 5289TIP3    H137426   0.588   4.395   1.505  0.5262 -0.0931  0.4777
 5289TIP3    H237427   0.737   4.376   1.489  0.1675  0.2025 -5.2647
 5290TIP3   OH237428   3.743   5.887   0.902  0.2220  0.5125 -0.1272
 5290TIP3    H137429   3.681   5.831   0.855  1.4638 -1.4074  0.3798
 5290TIP3    H237430   3.749   5.966   0.849 -2.2698  0.5694 -0.4199
 5291TIP3   OH237431   0.590   1.219   7.315 -0.2302  0.2841 -0.2216
 5291TIP3    H137432   0.544   1.174   7.244 -0.9770  0.2416  0.2820
 5291TIP3    H237433   0.532   1.210   7.391  0.8136 -0.1538  0.5459
 5292TIP3   OH237434   6.657   1.704   0.912  0.0320 -0.4284  0.3490
 5292TIP3    H137435   6.611   1.691   0.995  0.0935  0.9726  0.6355
 5292TIP3    H237436   6.641   1.624   0.863 -2.3121 -0.2172  0.6234
 5293TIP3   OH237437   1.316   4.176   0.675  0.4644  0.2439  0.2838
 5293TIP3    H137438   1.307   4.108   0.608  1.3243 -2.6572  2.8890
 5293TIP3    H237439   1.233   4.224   0.671 -0.0527 -0.6795 -1.8865
 5294TIP3   OH237440   2.256   6.075   1.950  0.4620  0.1021  0.1522
 5294TIP3    H137441   2.167   6.048   1.972  0.2818 -0.9704 -1.7053
 5294TIP3    H237442   2.277   6.143   2.015 -1.7338  0.4581  0.5725
 5295TIP3   OH237443   4.098   4.955   0.286  0.1248  0.4375 -0.1309
 5295TIP3    H137444   4.187   4.968   0.254 -0.4366  1.1276 -1.5046
 5295TIP3    H237445   4.066   5.043   0.304 -0.6748  0.2992 -0.8048
 5296TIP3   OH237446   1.524   0.871   8.079  0.1766  0.4706  0.2058
 5296TIP3    H137447   1.475   0.803   8.125  1.4835  0.9684  2.4776
 5296TIP3    H237448   1.472   0.950   8.089 -1.0161  0.0089 -1.8653
 5297TIP3   OH237449   3.227   0.755   7.991  0.6447  0.1331  0.5286
 5297TIP3    H137450   3.278   0.754   7.910  0.1130 -0.0953  0.1878
 5297TIP3    H237451   3.145   0.799   7.967 -0.0649 -1.0932  0.5782
 5298TIP3   OH237452   2.989   1.093   1.733 -0.0803 -0.3143 -0.2963
 5298TIP3    H137453   3.016   1.147   1.659 -1.1480 -1.1202 -1.3152
 5298TIP3    H237454   2.922   1.145   1.778 -0.5345 -0.4543 -0.8054
 5299TIP3   OH237455   4.945   5.760   1.897 -0.2424  0.5472  0.1338
 5299TIP3    H137456   5.018   5.820   1.881  1.7452 -2.3736 -2.9791
 5299TIP3    H237457   4.872   5.798   1.847  0.0852  1.7465  0.5194
 5300TIP3   OH237458   0.796   2.816   1.092  0.1220  0.0242  0.0184
 5300TIP3    H137459   0.822   2.904   1.063 -0.9026 -0.3643 -2.3836
 5300TIP3    H237460   0.779   2.769   1.010  3.0589 -3.2396  1.0424
 5301TIP3   OH237461   0.958   2.880   8.102 -0.0257 -0.4168 -0.1532
 5301TIP3    H137462   1.047   2.916   8.102 -0.6665  1.2937 -0.4135
 5301TIP3    H237463   0.913   2.930   8.170 -0.7420 -1.3965  0.0996
 5302TIP3   OH237464   5.130   0.955   1.793 -0.5435 -0.0890 -0.4028
 5302TIP3    H137465   5.180   0.993   1.721 -0.6240 -0.1433 -0.4867
 5302TIP3    H237466   5.063   1.020   1.813 -1.3369 -0.6212 -1.2280
 5303TIP3   OH237467   2.802   6.270   7.950 -0.1828  0.1071  0.2842
 5303TIP3    H137468   2.751   6.246   8.027 -1.1350  2.0730  0.3318
 5303TIP3    H237469   2.799   6.192   7.894 -1.6698 -0.4773  1.1242
 5304TIP3   OH237470   3.511   3.817   2.570  0.3755  0.4578 -0.2251
 5304TIP3    H137471   3.462   3.804   2.651 -0.9360 -0.5019 -1.1285
 5304TIP3    H237472   3.483   3.903   2.538 -0.9347 -0.1721 -0.8429
 5305TIP3   OH237473   0.081   4.751   0.315 -0.2416  0.6670  0.2506
 5305TIP3    H137474  -0.006   4.713   0.309 -0.8961  2.3534 -3.0761
 5305TIP3    H237475   0.074   4.820   0.380 -1.9151  1.8943 -1.1700
 5306TIP3   OH237476   3.821   1.527   1.679 -0.0407  0.0629 -0.1173
 5306TIP3    H137477   3.887   1.465   1.709 -0.0216 -0.6170 -1.5294
 5306TIP3    H237478   3.855   1.613   1.707  0.7097 -0.4002  0.4346
 5307TIP3   OH237479   2.719   1.483   2.414  0.3011 -0.0662  0.4659
 5307TIP3    H137480   2.748   1.469   2.504 -1.1198 -2.0370  0.6785
 5307TIP3    H237481   2.658   1.557   2.419  0.5940  0.1369  1.0308
 5308TIP3   OH237482   5.873   6.752   8.167 -0.3127 -0.1674 -0.2633
 5308TIP3    H137483   5.868   6.670   8.217 -0.1473  0.6723  1.1712
 5308TIP3    H237484   5.934   6.732   8.095  0.8995 -0.8942  0.9127
 5309TIP3   OH237485   3.997   1.896   8.293  0.3148  0.4145 -0.1799
 5309TIP3    H137486   4.072   1.847   8.261  0.2276 -0.7058  1.2259
 5309TIP3    H237487   3.974   1.955   8.221  2.4782  0.7382 -0.6777
 5310TIP3   OH237488   6.635   1.525   7.381  0.4072 -0.3135 -0.4180
 5310TIP3    H137489   6.727   1.499   7.380  0.6145  0.3882 -0.2330
 5310TIP3    H237490   6.587   1.444   7.400  1.1678 -0.2553  2.1556
 5311TIP3   OH237491   0.688   2.211   1.853 -0.1245 -0.0220  0.3542
 5311TIP3    H137492   0.645   2.247   1.931  0.4054  0.9372  0.2181
 5311TIP3    H237493   0.750   2.147   1.887  1.6019  1.8600  0.9263
 5312TIP3   OH237494   2.991   6.564   8.259  0.2944 -0.2185  0.6739
 5312TIP3    H137495   3.042   6.628   8.209  0.0939 -0.3046  0.3525
 5312TIP3    H237496   3.017   6.479   8.223 -0.6422 -0.2228 -0.0401
 5313TIP3   OH237497   5.439   3.019   7.799 -0.0116  0.0560 -0.6453
 5313TIP3    H137498   5.486   2.953   7.851 -0.2210  0.9446  0.7369
 5313TIP3    H237499   5.456   2.995   7.708 -0.0761 -1.8924 -0.1860
 5314TIP3   OH237500   0.146   2.241   1.236  0.4357  0.6615  0.1229
 5314TIP3    H137501   0.209   2.305   1.204  0.5621  0.6708  0.3922
 5314TIP3    H237502   0.077   2.240   1.168 -1.6526  4.0403  1.9058
 5315TIP3   OH237503   2.167   6.399   0.950 -0.1641  0.3841 -0.3455
 5315TIP3    H137504   2.217   6.450   1.013 -1.1303  0.8312  0.0692
 5315TIP3    H237505   2.115   6.463   0.902  0.9578  0.1253 -2.0031
 5316TIP3   OH237506   0.430   6.672   0.870 -0.3166 -0.2330 -0.4718
 5316TIP3    H137507   0.390   6.623   0.942 -1.3597 -0.5178 -1.2176
 5316TIP3    H237508   0.397   6.761   0.880  1.9124  0.5146  1.1348
 5317TIP3   OH237509   3.878   3.865   7.904 -0.0511 -1.0569 -0.5529
 5317TIP3    H137510   3.834   3.870   7.988  1.1779 -2.1580  0.1824
 5317TIP3    H237511   3.844   3.940   7.855 -0.5798 -0.2303  1.0094
 5318TIP3   OH237512   3.727   0.562   1.494 -0.1680  0.0682  0.3140
 5318TIP3    H137513   3.773   0.589   1.573 -1.9415 -1.1599  1.8506
 5318TIP3    H237514   3.666   0.633   1.476 -0.4490 -0.0742  0.6706
 5319TIP3   OH237515   0.370   5.973   1.665 -0.0791  0.0868 -0.4522
 5319TIP3    H137516   0.441   6.000   1.723 -1.4006 -1.1745  1.8802
 5319TIP3    H237517   0.290   6.001   1.709 -1.2189 -2.4571 -0.6769
 5320TIP3   OH237518   4.025   1.170   0.801 -0.2347 -0.0625  0.2916
 5320TIP3    H137519   3.948   1.220   0.775 -0.4069 -0.1497  0.6394
 5320TIP3    H237520   4.085   1.235   0.837  0.2943  0.1706 -0.9613
 5321TIP3   OH237521   2.851   3.545   1.093 -0.1636  0.1628 -0.2458
 5321TIP3    H137522   2.911   3.590   1.152  0.6810 -1.3843  0.1336
 5321TIP3    H237523   2.854   3.453   1.121 -2.5845 -0.0009 -0.3344
 5322TIP3   OH237524   4.281   5.592   1.672  0.3162  0.3112 -0.3086
 5322TIP3    H137525   4.231   5.671   1.651 -0.6415 -0.1488  0.1727
 5322TIP3    H237526   4.262   5.576   1.765  2.2562  0.7471  0.1986
 5323TIP3   OH237527   3.004   3.991   8.121 -0.2903  0.4704 -0.3541
 5323TIP3    H137528   3.065   4.002   8.194  0.2624 -2.7094 -0.1911
 5323TIP3    H237529   3.060   3.983   8.044 -0.6390  0.0639 -0.5719
 5324TIP3   OH237530   0.585   0.541   0.685  0.8378  0.1802 -0.1019
 5324TIP3    H137531   0.528   0.474   0.647  0.6691 -0.0058  0.4584
 5324TIP3    H237532   0.646   0.492   0.741  1.2366  0.4228 -0.3157
 5325TIP3   OH237533   3.315   6.090   2.380 -0.5447  0.1861 -0.3039
 5325TIP3    H137534   3.395   6.131   2.413 -1.3393  1.1645  0.4503
 5325TIP3    H237535   3.308   6.009   2.429 -0.9180  0.9208  0.9009
 5326TIP3   OH237536   4.361   4.630   1.775 -0.2737  0.2227  0.3334
 5326TIP3    H137537   4.372   4.538   1.799  0.6936  0.2936  0.2095
 5326TIP3    H237538   4.266   4.645   1.780 -0.3977 -0.6427  0.8344
 5327TIP3   OH237539   5.995   6.144   7.834  0.0284  0.4112 -0.1299
 5327TIP3    H137540   5.998   6.130   7.739 -1.9921  0.2161 -0.2027
 5327TIP3    H237541   6.022   6.060   7.872  0.6823  0.4408 -0.5175
 5328TIP3   OH237542   3.743   1.302   2.356  0.0043  0.1104 -0.1261
 5328TIP3    H137543   3.832   1.302   2.392  0.7419  0.5282 -1.8299
 5328TIP3    H237544   3.686   1.289   2.432  1.4563  0.8872  1.1483
 5329TIP3   OH237545   6.044   4.980   7.607 -0.5929 -0.1878  0.5622
 5329TIP3    H137546   6.005   5.037   7.540 -1.0124 -0.7750  0.2930
 5329TIP3    H237547   6.131   5.016   7.622 -0.9601  0.6939  0.6069
 5330TIP3   OH237548   2.203   6.850   0.431 -0.9792  0.3819  0.5195
 5330TIP3    H137549   2.117   6.845   0.474 -1.9958  0.3087 -1.4230
 5330TIP3    H237550   2.186   6.826   0.340  1.0744  0.6450  0.0151
 5331TIP3   OH237551   6.529   2.449   2.769 -1.0975 -0.1554  0.3651
 5331TIP3    H137552   6.584   2.386   2.723 -1.6888  0.0096 -0.6098
 5331TIP3    H237553   6.456   2.398   2.803 -0.8086 -0.2306  0.8796
 5332TIP3   OH237554   3.547   1.499   7.341 -0.4885 -0.0631  0.3979
 5332TIP3    H137555   3.537   1.478   7.248 -0.8838  1.3372  0.1064
 5332TIP3    H237556   3.554   1.594   7.344  0.1926 -0.1341  1.7541
 5333TIP3   OH237557   0.860   2.132   0.260  0.3499 -0.1369 -0.6749
 5333TIP3    H137558   0.829   2.196   0.324 -0.3231 -1.2314  0.1153
 5333TIP3    H237559   0.782   2.109   0.208  0.8878  0.7548 -1.9378
 5334TIP3   OH237560   5.955   2.748   0.969 -0.4938  0.1458  0.1628
 5334TIP3    H137561   5.889   2.680   0.986 -0.3481  0.4653  2.3213
 5334TIP3    H237562   5.913   2.809   0.910 -1.1892 -0.9908 -0.5580
 5335TIP3   OH237563   4.887   4.323   1.861  0.7450  0.3562  0.1213
 5335TIP3    H137564   4.834   4.292   1.787  1.2524  0.8820 -0.4834
 5335TIP3    H237565   4.861   4.268   1.934 -0.7119  0.6572 -0.1222
 5336TIP3   OH237566   6.867   5.975   7.965 -0.4052 -0.3574 -0.4696
 5336TIP3    H137567   6.859   5.880   7.955 -1.8620 -0.3932  0.6624
 5336TIP3    H237568   6.961   5.992   7.968 -0.1252 -2.0032  1.3801
 5337TIP3   OH237569   3.457   5.474   1.844 -0.2151  0.4073 -0.4622
 5337TIP3    H137570   3.516   5.438   1.910  1.8212  3.0686 -0.6667
 5337TIP3    H237571   3.396   5.529   1.893 -0.9643 -0.3797 -0.4941
 5338TIP3   OH237572   5.087   4.149   1.447 -0.0200 -0.1767 -0.4276
 5338TIP3    H137573   4.999   4.180   1.468 -0.6060 -1.9584  0.0135
 5338TIP3    H237574   5.133   4.150   1.531 -0.4072 -1.4596 -0.1648
 5339TIP3   OH237575   0.826   6.645   7.655  0.5415  0.3526  0.0081
 5339TIP3    H137576   0.883   6.594   7.712 -0.1955 -0.2469  0.2216
 5339TIP3    H237577   0.744   6.651   7.702  0.5599  1.6096 -0.0933
 5340TIP3   OH237578   3.286   3.523   7.971 -0.1977 -0.2588 -0.3016
 5340TIP3    H137579   3.317   3.613   7.983 -0.7222 -0.0041 -0.8353
 5340TIP3    H237580   3.366   3.472   7.961  0.2287 -0.1944  2.1048
 5341TIP3   OH237581   0.906   1.394   1.873 -0.2136  0.7755 -0.2361
 5341TIP3    H137582   0.997   1.390   1.845 -0.4447  2.1550 -1.3086
 5341TIP3    H237583   0.867   1.461   1.817 -1.3093  1.9149  1.7791
 5342TIP3   OH237584   0.971   6.560   0.888  0.2440  0.6493 -0.2098
 5342TIP3    H137585   0.901   6.598   0.835  1.0555  0.4847 -1.4421
 5342TIP3    H237586   0.927   6.492   0.940 -0.3801 -0.1333 -1.6746
 5343TIP3   OH237587   0.016   3.909   7.688 -0.0322  0.2964  0.1584
 5343TIP3    H137588   0.007   3.825   7.644 -1.1215  0.1407  0.6583
 5343TIP3    H237589  -0.041   3.968   7.638 -0.6961  0.2959  0.9048
 5344TIP3   OH237590   4.135   2.041   0.948 -0.5761  0.5166  0.4346
 5344TIP3    H137591   4.170   2.093   0.876  0.3612 -1.1236 -0.3722
 5344TIP3    H237592   4.166   2.084   1.027 -0.6177  1.6907 -0.1721
 5345TIP3   OH237593   0.922   6.024   1.696  0.0761  0.2599 -0.0553
 5345TIP3    H137594   0.991   6.022   1.763  0.2837  0.8023 -0.2480
 5345TIP3    H237595   0.847   6.065   1.740  0.7356  2.1970 -0.6077
 5346TIP3   OH237596   1.474   3.309   2.126  0.5261 -0.3992 -0.1274
 5346TIP3    H137597   1.460   3.252   2.201  0.9972 -0.7948 -0.3402
 5346TIP3    H237598   1.569   3.312   2.115  0.4780 -0.0170 -0.4580
 5347TIP3   OH237599   5.800   2.434   7.035  0.3718 -0.4263  0.2456
 5347TIP3    H137600   5.831   2.360   7.086 -0.9820 -0.0615  1.6859
 5347TIP3    H237601   5.709   2.414   7.015 -0.1224  0.9321  0.9325
 5348TIP3   OH237602   3.489   3.947   8.417  0.4656 -0.3252  0.0769
 5348TIP3    H137603   3.557   4.010   8.393 -0.8140  0.3714 -1.9229
 5348TIP3    H237604   3.424   3.999   8.465  0.2709 -0.5274  0.0340
 5349TIP3   OH237605   5.545   3.261   7.049 -0.0100 -0.1462  0.4238
 5349TIP3    H137606   5.579   3.350   7.058 -0.0348 -0.0696 -0.2103
 5349TIP3    H237607   5.622   3.208   7.029  0.1311 -0.4082  1.5908
 5350TIP3   OH237608   2.821   5.380   7.187 -0.3543 -0.1410  0.1859
 5350TIP3    H137609   2.775   5.464   7.175 -0.1850  0.1538  1.3808
 5350TIP3    H237610   2.888   5.379   7.120 -0.2194  0.7981  0.2933
 5351TIP3   OH237611   4.815   3.392   1.118  0.3864 -0.1358 -0.2959
 5351TIP3    H137612   4.774   3.380   1.204  1.3619  0.2005  0.2239
 5351TIP3    H237613   4.837   3.485   1.115  2.8860 -0.6534  0.2626
 5352TIP3   OH237614   4.811   2.319   1.691  0.5440 -0.1037 -0.3924
 5352TIP3    H137615   4.791   2.337   1.599  0.7560  0.2653 -0.3684
 5352TIP3    H237616   4.758   2.242   1.713  0.1663  0.0684 -0.7000
 5353TIP3   OH237617   0.505   5.265   8.402 -0.3731 -0.2705  0.6029
 5353TIP3    H137618   0.566   5.207   8.357  0.4137  0.5910  0.5414
 5353TIP3    H237619   0.424   5.215   8.407 -0.1272 -0.8397 -0.7167
 5354TIP3   OH237620   3.663   6.394   8.408  0.2538 -0.4745  0.2908
 5354TIP3    H137621   3.674   6.429   8.320 -1.9566  3.6605  1.3836
 5354TIP3    H237622   3.750   6.363   8.433  1.6989  1.2327 -2.1714
 5355TIP3   OH237623   0.555   5.632   2.669 -0.0889 -0.3829 -0.2261
 5355TIP3    H137624   0.583   5.627   2.761 -1.9296  1.2837  0.4988
 5355TIP3    H237625   0.482   5.570   2.663 -1.5135  1.1930  0.1158
 5356TIP3   OH237626   6.179   6.265   8.372  0.3992  0.6461  0.2250
 5356TIP3    H137627   6.260   6.299   8.411 -0.7394  2.2906  1.3135
 5356TIP3    H237628   6.123   6.246   8.447 -1.0635  1.8334 -0.5141
 5357TIP3   OH237629   3.715   6.220   1.916 -0.0478 -0.0024 -0.0467
 5357TIP3    H137630   3.793   6.264   1.951 -0.6400  0.3634  0.8567
 5357TIP3    H237631   3.736   6.127   1.920 -0.4067 -0.0535  2.1876
 5358TIP3   OH237632   4.356   2.338   7.831 -0.6039 -0.4612 -0.2873
 5358TIP3    H137633   4.434   2.304   7.786 -0.5327 -2.1736  1.0470
 5358TIP3    H237634   4.284   2.321   7.770 -0.2937 -1.2687 -0.4410
 5359TIP3   OH237635   4.759   2.221   8.052 -0.2703  0.0950 -0.7876
 5359TIP3    H137636   4.740   2.310   8.023 -0.4887  0.5629  0.7068
 5359TIP3    H237637   4.721   2.165   7.984 -1.7042  1.1063 -0.8688
 5360TIP3   OH237638   4.365   6.628   0.861  0.5577  0.6953  0.5582
 5360TIP3    H137639   4.353   6.611   0.767 -0.8528 -0.9138  0.9827
 5360TIP3    H237640   4.413   6.552   0.893  0.8105  1.1153  1.1952
 5361TIP3   OH237641   0.263   4.917   2.279 -0.2239  0.3585  0.0021
 5361TIP3    H137642   0.236   4.830   2.248  0.8026 -0.1030  0.3565
 5361TIP3    H237643   0.182   4.967   2.282 -0.9660 -0.8214  0.5123
 5362TIP3   OH237644   5.710   6.180   8.490  0.2920  0.4404  0.0824
 5362TIP3    H137645   5.689   6.224   8.407  1.5267  1.3041  0.2080
 5362TIP3    H237646   5.731   6.251   8.550  3.4931 -0.2693 -0.0197
 5363TIP3   OH237647   5.490   3.596   8.203  0.0901 -0.4723 -0.0975
 5363TIP3    H137648   5.577   3.559   8.218  0.7221 -0.0383 -2.2780
 5363TIP3    H237649   5.469   3.571   8.112 -0.9451  1.5700 -0.4819
 5364TIP3   OH237650   3.719   2.444   8.474 -0.3603  0.1289  0.0760
 5364TIP3    H137651   3.726   2.426   8.567 -0.6239  0.4745  0.1662
 5364TIP3    H237652   3.780   2.383   8.432 -0.0744  0.1292  0.4913
 5365TIP3   OH237653   4.389   0.877   7.723  0.3443 -0.3972  0.6978
 5365TIP3    H137654   4.430   0.790   7.730  0.5824 -0.3089  0.4200
 5365TIP3    H237655   4.457   0.932   7.684 -0.0799 -0.2774  0.1154
 5366TIP3   OH237656   6.194   1.057   7.608  0.0395  0.2038  0.5894
 5366TIP3    H137657   6.188   0.961   7.610  0.2378  0.0516 -2.0901
 5366TIP3    H237658   6.287   1.076   7.613  0.2586  0.0222 -1.6140
 5367TIP3   OH237659   2.769   0.420   7.743  0.7074  0.3031 -0.4369
 5367TIP3    H137660   2.857   0.440   7.777  0.3241  1.2972  0.0105
 5367TIP3    H237661   2.756   0.484   7.673  0.6634 -0.3825 -1.0582
 5368TIP3   OH237662   1.534   4.464   7.994 -0.4816 -0.2437  0.1696
 5368TIP3    H137663   1.535   4.452   7.899 -1.5015  1.1327 -0.0340
 5368TIP3    H237664   1.536   4.374   8.028  1.0641 -0.7489 -1.0996
 5369TIP3   OH237665   6.270   1.134   8.308 -0.3853  0.3836 -0.4310
 5369TIP3    H137666   6.218   1.214   8.309  0.4198  1.0777 -3.1869
 5369TIP3    H237667   6.226   1.077   8.245 -0.6024 -1.1616  1.0377
 5370TIP3   OH237668   4.434   4.287   7.759 -0.0297 -0.4030  0.0907
 5370TIP3    H137669   4.383   4.364   7.783  0.4103  0.5382 -1.8349
 5370TIP3    H237670   4.369   4.223   7.730 -0.2115  0.4091 -1.3428
 5371TIP3   OH237671   5.222   2.835   1.908  0.2670  0.1939 -0.0550
 5371TIP3    H137672   5.233   2.815   1.815  2.2226  0.0142  0.1750
 5371TIP3    H237673   5.189   2.753   1.946  1.2515 -0.3338 -0.3031
 5372TIP3   OH237674   5.425   4.010   1.642 -0.1094 -0.0677  0.6384
 5372TIP3    H137675   5.344   3.962   1.654  0.1371 -0.7964 -0.4973
 5372TIP3    H237676   5.488   3.944   1.612  0.2457  0.9277 -0.9154
 5373TIP3   OH237677   5.635   1.366   7.791 -0.2763 -0.3812 -0.1317
 5373TIP3    H137678   5.717   1.359   7.742  0.0762 -0.6285  0.4794
 5373TIP3    H237679   5.626   1.281   7.835 -1.3083 -0.6812 -0.8715
 5374TIP3   OH237680   3.495   3.295   0.495 -0.4796 -0.2653 -0.2971
 5374TIP3    H137681   3.458   3.367   0.545 -0.1513  0.1738 -0.6798
 5374TIP3    H237682   3.572   3.267   0.545 -0.4519 -0.1698 -0.2871
 5375TIP3   OH237683   3.073   4.735   7.431  0.6842  0.5664 -0.5291
 5375TIP3    H137684   3.018   4.785   7.371 -0.1137 -0.0212 -0.3083
 5375TIP3    H237685   3.029   4.744   7.516  1.4407  0.8523 -0.1575
 5376TIP3   OH237686   2.897   6.479   2.914 -0.5019  0.5993  0.2579
 5376TIP3    H137687   2.915   6.501   2.823  0.0434 -0.8351 -0.0128
 5376TIP3    H237688   2.982   6.489   2.958  0.1158 -2.1009 -0.1542
 5377TIP3   OH237689   1.664   6.157   1.110 -0.0238 -0.5510 -0.0836
 5377TIP3    H137690   1.744   6.209   1.111 -0.2347 -0.2138  1.4798
 5377TIP3    H237691   1.658   6.124   1.020  0.1989  1.9673 -1.1078
 5378TIP3   OH237692   1.203   5.608   2.493  0.2079  0.3837 -0.3847
 5378TIP3    H137693   1.118   5.566   2.480 -0.4715  1.8135 -0.7701
 5378TIP3    H237694   1.237   5.570   2.574 -1.0833  0.2541  0.1169
 5379TIP3   OH237695   0.142   5.722   1.608 -0.4045 -0.2123  0.2022
 5379TIP3    H137696   0.122   5.652   1.546  0.2752  0.3738 -0.7043
 5379TIP3    H237697   0.058   5.744   1.648 -0.5464 -1.9207  0.9329
 5380TIP3   OH237698   5.514   3.325   7.539 -0.1936  0.6833 -0.2016
 5380TIP3    H137699   5.510   3.280   7.454 -4.8793  2.2697 -1.1049
 5380TIP3    H237700   5.563   3.405   7.521 -0.2102  0.5059 -1.1108
 5381TIP3   OH237701   4.880   3.703   1.915 -0.3099  0.2755 -0.0678
 5381TIP3    H137702   4.813   3.760   1.953 -0.2394  0.7385 -0.6151
 5381TIP3    H237703   4.848   3.614   1.930 -1.4964  0.4868 -1.0749
 5382TIP3   OH237704   2.743   6.643   1.814  0.4041 -0.5419 -0.0148
 5382TIP3    H137705   2.823   6.594   1.797  2.5795  2.2193  1.6327
 5382TIP3    H237706   2.704   6.600   1.891  1.5729 -0.5120  0.6102
 5383TIP3   OH237707   2.871   0.623   2.738  0.0896 -0.5456 -0.6715
 5383TIP3    H137708   2.811   0.697   2.727  2.7456  1.8355 -0.3246
 5383TIP3    H237709   2.861   0.597   2.829  1.3006  1.5857  0.1544
 5384TIP3   OH237710   2.409   5.347   8.447  0.2424  0.1148 -0.0362
 5384TIP3    H137711   2.441   5.331   8.358 -0.0237 -0.9936  0.0482
 5384TIP3    H237712   2.367   5.265   8.472  0.1647  0.4715  1.0524
 5385TIP3   OH237713   4.044   2.733   0.333  0.1233  0.4539  0.5353
 5385TIP3    H137714   4.117   2.693   0.380  1.4960 -0.3458 -2.0552
 5385TIP3    H237715   4.072   2.824   0.319  0.5225  0.2368 -0.1607
 5386TIP3   OH237716   2.154   0.025   1.025  0.2336 -0.0167  0.0640
 5386TIP3    H137717   2.108   0.033   0.942  0.1183 -0.1144  0.1185
 5386TIP3    H237718   2.215   0.099   1.026  0.4086 -0.1543 -0.2160
 5387TIP3   OH237719   3.519   5.482   8.303  0.0894  0.1379 -0.4588
 5387TIP3    H137720   3.572   5.408   8.334 -1.4784 -1.3864 -1.2270
 5387TIP3    H237721   3.582   5.552   8.288  1.8537 -1.4878 -1.0452
 5388TIP3   OH237722   4.940   2.256   7.636  0.1721  0.1792  0.3599
 5388TIP3    H137723   4.985   2.274   7.719  1.1493  1.0921 -0.3384
 5388TIP3    H237724   4.925   2.162   7.637 -1.7150  0.4257  2.4906
 5389TIP3   OH237725   4.788   1.782   1.888  0.3464  0.1368 -0.0513
 5389TIP3    H137726   4.795   1.723   1.813  0.8766  2.1236 -1.6393
 5389TIP3    H237727   4.702   1.824   1.877  0.2258  0.1072  0.7248
 5390TIP3   OH237728   3.345   4.944   1.136  0.3720  0.0971 -0.2582
 5390TIP3    H137729   3.261   4.906   1.160  0.2294  0.6769  0.1898
 5390TIP3    H237730   3.367   4.905   1.052 -0.1773 -0.3216 -0.2065
 5391TIP3   OH237731   6.302   2.447   2.363 -0.5532 -0.3526  0.0119
 5391TIP3    H137732   6.378   2.390   2.352 -0.3009  0.1883 -1.2642
 5391TIP3    H237733   6.276   2.436   2.455  0.6567 -1.0414  0.2887
 5392TIP3   OH237734   3.162   6.212   7.088 -0.3536 -0.1967 -0.4991
 5392TIP3    H137735   3.254   6.228   7.107 -0.6153  0.0161  0.7181
 5392TIP3    H237736   3.144   6.125   7.126 -0.6748 -0.1860 -0.6197
 5393TIP3   OH237737   1.270   4.500   6.870  0.0817 -0.3484  0.0933
 5393TIP3    H137738   1.275   4.431   6.804 -0.4270 -0.9172  0.6418
 5393TIP3    H237739   1.339   4.561   6.845  0.1392 -0.7425 -0.7508
 5394TIP3   OH237740   3.061   5.337   8.407 -0.3442  0.4187  0.7268
 5394TIP3    H137741   3.107   5.268   8.455  1.7592  1.0331 -0.2463
 5394TIP3    H237742   3.106   5.339   8.322 -1.7300  1.6088 -0.0093
 5395TIP3   OH237743   6.863   2.778   0.935 -0.2715 -0.3131  0.0866
 5395TIP3    H137744   6.922   2.827   0.992 -1.4879  0.5572  0.6528
 5395TIP3    H237745   6.902   2.786   0.848 -1.1780  3.0399 -0.1371
 5396TIP3   OH237746   5.218   4.596   8.129  0.4293  0.6145  0.6251
 5396TIP3    H137747   5.221   4.690   8.147  0.5767  0.6616  0.3616
 5396TIP3    H237748   5.297   4.578   8.078 -0.0354  0.5165 -0.0851
 5397TIP3   OH237749   4.455   0.128   1.014 -0.2988 -0.7175  0.5691
 5397TIP3    H137750   4.487   0.084   1.093  3.0229 -2.1997 -1.3826
 5397TIP3    H237751   4.490   0.217   1.020  0.0930 -0.8775  0.6890
 5398TIP3   OH237752   3.157   3.967   0.856 -0.0904 -0.1328 -0.1255
 5398TIP3    H137753   3.137   4.053   0.895  0.5170  0.4390 -1.0263
 5398TIP3    H237754   3.154   3.906   0.929 -0.0636  0.7405  0.6238
 5399TIP3   OH237755   5.330   3.511   8.415 -0.3713 -0.2356 -0.7275
 5399TIP3    H137756   5.249   3.507   8.365 -0.7506  1.5596 -0.3259
 5399TIP3    H237757   5.392   3.556   8.358  0.4674 -1.8846 -1.1584
 5400TIP3   OH237758   3.438   6.789   0.197  0.2664 -0.0237 -0.4354
 5400TIP3    H137759   3.408   6.838   0.273  1.3173 -0.8646  0.5666
 5400TIP3    H237760   3.375   6.717   0.188  0.6213 -0.4152  0.1772
 5401TIP3   OH237761   5.765   2.887   1.333  0.1461  0.1854  0.2057
 5401TIP3    H137762   5.727   2.886   1.420 -0.6224  1.8180 -0.0601
 5401TIP3    H237763   5.695   2.858   1.275 -0.1694  1.4918 -0.1012
 5402TIP3   OH237764   4.290   2.648   1.174  0.1655 -0.0026 -0.3719
 5402TIP3    H137765   4.209   2.689   1.207 -0.0546 -0.0148 -0.8891
 5402TIP3    H237766   4.359   2.685   1.230 -0.3140 -0.8662  0.8350
 5403TIP3   OH237767   0.614   5.933   2.251 -0.3180 -0.2671 -0.4893
 5403TIP3    H137768   0.545   5.947   2.315 -0.1961  3.8260 -0.9646
 5403TIP3    H237769   0.568   5.927   2.167 -0.2560 -1.1054 -0.4666
 5404TIP3   OH237770   3.630   2.840   1.911 -0.8198 -0.2671 -0.2344
 5404TIP3    H137771   3.535   2.847   1.903 -0.8059  0.2512 -0.0198
 5404TIP3    H237772   3.664   2.911   1.856 -0.6206  0.6511  1.0160
 5405TIP3   OH237773   0.951   0.644   1.965 -0.1261  0.9995 -0.1877
 5405TIP3    H137774   0.857   0.626   1.976 -0.0414  0.4820 -0.3104
 5405TIP3    H237775   0.979   0.671   2.053 -0.1557  0.0608  0.1217
 5406TIP3   OH237776   3.792   1.704   1.320  0.1131 -0.1728  0.6731
 5406TIP3    H137777   3.766   1.786   1.362 -1.4463 -0.5317  0.4716
 5406TIP3    H237778   3.856   1.730   1.255  0.5320  0.7327  1.4197
 5407TIP3   OH237779   2.287   4.197   0.812  0.1076 -0.1631  0.7789
 5407TIP3    H137780   2.222   4.168   0.748  0.8936  0.1750 -0.1989
 5407TIP3    H237781   2.357   4.133   0.806  0.4332  0.1744  0.9126
 5408TIP3   OH237782   2.502   3.908   1.457  0.9358  0.0529 -0.1435
 5408TIP3    H137783   2.585   3.941   1.491  2.1220  0.6906 -3.2830
 5408TIP3    H237784   2.440   3.921   1.528  2.4099  4.3952  0.6582
 5409TIP3   OH237785   4.536   2.962   2.787 -0.3804  0.1140 -0.0387
 5409TIP3    H137786   4.624   2.927   2.769  0.6712  1.5050  2.0056
 5409TIP3    H237787   4.545   3.006   2.872 -3.0856  0.2878  0.2265
 5410TIP3   OH237788   0.403   2.451   1.345  0.0102 -0.0330 -0.2725
 5410TIP3    H137789   0.435   2.469   1.257 -0.1912  0.3856 -0.2622
 5410TIP3    H237790   0.481   2.425   1.394 -0.0618 -1.4929 -0.8780
 5411TIP3   OH237791   6.125   2.393   2.579 -0.4397 -0.2797 -0.3773
 5411TIP3    H137792   6.070   2.420   2.505  0.0114 -0.3430 -0.7380
 5411TIP3    H237793   6.147   2.475   2.624 -0.6766 -0.2376 -0.3383
 5412TIP3   OH237794   2.893   4.845   2.395  0.4715 -0.3892  0.2707
 5412TIP3    H137795   2.810   4.809   2.424  1.5703 -1.8347  1.8327
 5412TIP3    H237796   2.886   4.939   2.411 -0.4736 -0.6258  1.3483
 5413TIP3   OH237797   1.069   6.111   1.389  0.1068 -0.4614  0.2793
 5413TIP3    H137798   1.133   6.178   1.413  0.2134 -0.2606 -0.5281
 5413TIP3    H237799   1.086   6.095   1.296 -0.1439 -1.3637  0.3795
 5414TIP3   OH237800   4.780   0.500   2.211 -0.4601  0.0186 -0.2015
 5414TIP3    H137801   4.694   0.485   2.249 -0.4945 -0.6257 -0.5216
 5414TIP3    H237802   4.762   0.534   2.124 -0.4071 -1.3390 -0.7541
 5415TIP3   OH237803   0.756   2.795   8.365 -0.2814  0.0375 -0.3270
 5415TIP3    H137804   0.705   2.828   8.291  2.6658  0.3082 -2.3963
 5415TIP3    H237805   0.843   2.833   8.354  1.4524 -3.1648  0.9509
 5416TIP3   OH237806   4.116   0.985   7.427  0.7484  0.1017 -0.2144
 5416TIP3    H137807   4.099   1.053   7.493 -0.2511 -1.1504  0.8544
 5416TIP3    H237808   4.077   1.019   7.347  2.0567  1.6921 -0.2463
 5417TIP3   OH237809   3.467   6.607   8.242 -0.2715 -0.1592 -0.1935
 5417TIP3    H137810   3.534   6.538   8.246 -0.1661 -0.0348  0.2189
 5417TIP3    H237811   3.508   6.684   8.281 -0.9173 -0.3056  0.8344
 5418TIP3   OH237812   6.657   5.149   0.042 -0.0543 -0.3541 -0.0346
 5418TIP3    H137813   6.658   5.198  -0.041  2.3243 -1.5371 -0.8037
 5418TIP3    H237814   6.738   5.176   0.086  0.2397 -1.9632  0.4691
 5419TIP3   OH237815   1.000   6.544   0.026  0.1069 -0.4420 -0.8083
 5419TIP3    H137816   1.000   6.476  -0.041 -0.4986 -1.0624 -0.1903
 5419TIP3    H237817   0.908   6.564   0.041  0.2446 -0.1414 -0.3306
 5420TIP3   OH237818   3.385   4.431   6.798 -0.8295 -0.2730  0.2628
 5420TIP3    H137819   3.473   4.395   6.806 -1.7125 -2.4168  1.6458
 5420TIP3    H237820   3.381   4.500   6.864 -0.0656  0.1620 -0.1369
 5421TIP3   OH237821   0.860   6.035   7.998  0.0659  0.4164  0.4209
 5421TIP3    H137822   0.917   5.983   8.055  0.6968  0.8573  0.2174
 5421TIP3    H237823   0.890   6.014   7.909  0.4582  1.2504  0.3437
 5422TIP3   OH237824   4.596   3.906   1.099  0.1249  0.6027 -0.8790
 5422TIP3    H137825   4.591   3.816   1.130 -0.9745  0.9502  0.0455
 5422TIP3    H237826   4.657   3.904   1.025 -0.8190 -1.1043 -1.6560
 5423TIP3   OH237827   3.347   0.036   8.598  0.0730  0.3256 -0.7564
 5423TIP3    H137828   3.256   0.024   8.624  0.0844  1.2253 -0.2576
 5423TIP3    H237829   3.398   0.013   8.675  0.2748 -0.1769 -1.0349
 5424TIP3   OH237830   2.749   0.265   2.508 -0.3180  1.0249  0.4376
 5424TIP3    H137831   2.700   0.229   2.433 -1.5684  1.5997  0.9492
 5424TIP3    H237832   2.841   0.252   2.485 -0.6978 -0.3335 -0.4482
 5425TIP3   OH237833   3.269   4.836   7.733 -0.7241  0.7027  0.1973
 5425TIP3    H137834   3.207   4.891   7.781 -1.6256  1.0514 -1.3186
 5425TIP3    H237835   3.328   4.897   7.690  0.7276  0.3711  1.6271
 5426TIP3   OH237836   2.992   2.602   1.116 -0.0617  0.2636  0.1716
 5426TIP3    H137837   2.941   2.675   1.151  1.2590  1.6731 -0.7131
 5426TIP3    H237838   3.042   2.571   1.192  0.4259  1.2291  0.2645
 5427TIP3   OH237839   0.113   6.212   1.520 -0.0889 -0.4498 -0.2614
 5427TIP3    H137840   0.031   6.259   1.501  1.4915  2.1212 -1.3165
 5427TIP3    H237841   0.148   6.190   1.434  1.1327  0.0244  0.0972
 5428TIP3   OH237842   6.411   6.845   0.333 -0.5364  0.0722  0.1239
 5428TIP3    H137843   6.491   6.812   0.375 -0.3735 -0.0103 -0.2489
 5428TIP3    H237844   6.353   6.866   0.406 -0.3386 -0.2851  0.3901
 5429TIP3   OH237845   2.114   2.721   6.505  0.0825  0.3185 -0.0950
 5429TIP3    H137846   2.139   2.665   6.578  1.6507 -0.4732 -1.1722
 5429TIP3    H237847   2.139   2.809   6.533  0.6011  0.0334  0.3542
 5430TIP3   OH237848   4.172   1.754   7.400 -0.1200  0.5275  0.9241
 5430TIP3    H137849   4.102   1.791   7.453  0.1029  0.3818  1.3210
 5430TIP3    H237850   4.181   1.664   7.432 -1.9317 -0.5301 -1.2644
 5431TIP3   OH237851   6.369   2.705   2.410 -0.3257  0.0332  0.3436
 5431TIP3    H137852   6.342   2.614   2.413 -0.2406  0.0203  2.6426
 5431TIP3    H237853   6.289   2.755   2.427 -0.2768  0.3581 -0.3661
 5432TIP3   OH237854   3.743   2.991   0.370  0.2947  0.0352 -0.4404
 5432TIP3    H137855   3.836   2.998   0.345  0.7041  0.0131  1.0136
 5432TIP3    H237856   3.744   2.940   0.450 -0.6995  2.3970  1.1628
 5433TIP3   OH237857   1.973   1.798   2.696 -0.3128  0.2495  0.4736
 5433TIP3    H137858   2.014   1.884   2.704 -1.5898  0.8127  1.3586
 5433TIP3    H237859   1.975   1.761   2.784  1.7889 -1.4281 -0.2063
 5434TIP3   OH237860   3.251   6.579   7.584  0.3477  0.0467  0.1801
 5434TIP3    H137861   3.205   6.602   7.503 -1.5625 -1.8578  0.6393
 5434TIP3    H237862   3.242   6.484   7.590  1.6302  0.0071  1.9561
 5435TIP3   OH237863   3.000   5.167   7.336 -0.4363 -0.2664 -0.8036
 5435TIP3    H137864   2.951   5.234   7.290 -0.7221  0.0503 -0.0551
 5435TIP3    H237865   2.969   5.084   7.298 -0.8189 -0.0222 -1.0244
 5436TIP3   OH237866   0.559   4.301   8.128 -0.3405  0.3449  0.2083
 5436TIP3    H137867   0.467   4.284   8.148 -0.8485  0.8807 -1.4430
 5436TIP3    H237868   0.571   4.393   8.150 -0.6291  0.6674 -0.9028
 5437TIP3   OH237869   0.351   0.568   0.134  0.1001 -0.4694 -0.2866
 5437TIP3    H137870   0.345   0.627   0.209  1.9618 -0.5354 -0.0322
 5437TIP3    H237871   0.307   0.614   0.063 -1.9826 -0.5356  0.8763
 5438TIP3   OH237872   3.794   0.832   6.387  0.3285 -0.8362  0.0725
 5438TIP3    H137873   3.779   0.925   6.371 -0.6458 -0.8307  0.9061
 5438TIP3    H237874   3.745   0.813   6.468 -0.1245 -2.2339 -0.4956
 5439TIP3   OH237875   4.625   0.814   8.251  0.2183 -0.4125 -0.3721
 5439TIP3    H137876   4.609   0.884   8.315  2.4686 -0.8463  0.7680
 5439TIP3    H237877   4.639   0.860   8.169  0.4459  0.4304  0.1217
 5440TIP3   OH237878   2.729   1.326   1.075 -0.2562 -0.1454 -0.1945
 5440TIP3    H137879   2.663   1.339   1.143  1.2322 -0.2028  1.3204
 5440TIP3    H237880   2.698   1.378   1.001 -2.5391 -1.0206  0.0549
 5441TIP3   OH237881   5.843   3.130   6.715  0.1470  0.1312  0.4558
 5441TIP3    H137882   5.809   3.219   6.723 -0.1653 -0.0490  1.1377
 5441TIP3    H237883   5.937   3.139   6.730  0.0503  0.2795  0.9845
 5442TIP3   OH237884   1.943   5.341   6.596  0.2749 -0.6894  0.0987
 5442TIP3    H137885   1.959   5.338   6.690  0.2831  0.3024  0.1340
 5442TIP3    H237886   1.936   5.434   6.575  1.1910 -0.8472 -1.0364
 5443TIP3   OH237887   5.138   4.398   7.797  0.6054  0.1014 -0.1584
 5443TIP3    H137888   5.150   4.387   7.892  0.5292 -0.2103 -0.1824
 5443TIP3    H237889   5.055   4.355   7.778  0.3317  0.6765 -0.2781
 5444TIP3   OH237890   4.947   5.348   2.887 -0.1085  0.2191  0.4105
 5444TIP3    H137891   5.018   5.358   2.823 -0.5524  0.0436 -0.1265
 5444TIP3    H237892   4.887   5.287   2.845 -0.6822  0.5367  0.7631
 5445TIP3   OH237893   5.644   1.489   8.074 -0.2900 -0.7299 -0.6716
 5445TIP3    H137894   5.604   1.446   7.999  0.8863  0.5461 -2.1037
 5445TIP3    H237895   5.736   1.501   8.048  0.5648 -1.7213  1.6475
 5446TIP3   OH237896   1.555   6.719   2.180 -0.0997  0.0135 -0.3092
 5446TIP3    H137897   1.495   6.730   2.106  0.9579  0.7503 -1.0888
 5446TIP3    H237898   1.507   6.751   2.256 -0.2823  1.7204 -1.1055
 5447TIP3   OH237899   6.486   5.158   7.000  0.6467  0.3722 -0.2891
 5447TIP3    H137900   6.481   5.250   7.024 -2.1258  0.2022  0.1785
 5447TIP3    H237901   6.464   5.155   6.907  1.0310  0.2016 -0.3774
 5448TIP3   OH237902   0.800   2.300   6.990  0.0057  0.8101  0.2130
 5448TIP3    H137903   0.756   2.277   7.071  2.3704  1.1403  1.6704
 5448TIP3    H237904   0.753   2.378   6.959 -1.6143  0.0462  0.6330
 5449TIP3   OH237905   0.973   6.843   7.551 -0.1686  0.2379  0.6012
 5449TIP3    H137906   0.903   6.848   7.485 -0.2861 -1.1473  0.5899
 5449TIP3    H237907   0.936   6.788   7.619  0.7586 -0.1249  0.8134
 5450TIP3   OH237908   0.570   5.755   0.701 -0.3305  0.3516 -0.0813
 5450TIP3    H137909   0.565   5.705   0.620 -1.2860 -0.6551  0.5668
 5450TIP3    H237910   0.576   5.689   0.770  3.1807  1.1815  0.5893
 5451TIP3   OH237911   0.673   0.229   8.522 -0.1368 -0.0859 -0.3297
 5451TIP3    H137912   0.738   0.270   8.465  1.3271 -2.5670 -0.6011
 5451TIP3    H237913   0.650   0.297   8.585  1.1930  1.5018 -1.4638
 5452TIP3   OH237914   3.415   0.637   1.384 -0.3935 -0.4535 -0.3593
 5452TIP3    H137915   3.399   0.658   1.292 -0.9700 -0.3917 -0.2461
 5452TIP3    H237916   3.390   0.546   1.393 -2.2308  0.0656  0.1710
 5453TIP3   OH237917   3.161   5.084   1.751  0.1061 -0.6121 -0.3521
 5453TIP3    H137918   3.082   5.122   1.713 -0.1263 -0.6801  0.0561
 5453TIP3    H237919   3.146   5.087   1.846  1.0404  0.3720 -0.2124
 5454TIP3   OH237920   0.535   3.945   7.102 -0.6374  0.8984 -0.0219
 5454TIP3    H137921   0.551   3.873   7.041 -0.5362  0.5068  0.4626
 5454TIP3    H237922   0.439   3.946   7.112 -0.7536  1.7468 -1.1222
 5455TIP3   OH237923   1.749   4.470   0.809 -0.0230 -0.3039 -0.2148
 5455TIP3    H137924   1.820   4.422   0.851  0.3044 -1.6317 -2.1432
 5455TIP3    H237925   1.675   4.409   0.808 -0.4705  0.2268 -0.2800
 5456TIP3   OH237926   1.228   2.347   0.923  0.1924 -0.3917 -0.1875
 5456TIP3    H137927   1.272   2.347   0.838  1.2163  1.3260  0.2771
 5456TIP3    H237928   1.152   2.403   0.911  0.0590 -0.5576 -0.1110
 5457TIP3   OH237929   1.219   0.065   8.144  0.0189  0.3066  0.1726
 5457TIP3    H137930   1.208   0.134   8.079 -0.0885  0.2679  0.1497
 5457TIP3    H237931   1.137   0.065   8.194  0.9914  1.9349  1.8703
 5458TIP3   OH237932   0.785   4.705   0.814  0.0426  0.0151 -0.3538
 5458TIP3    H137933   0.791   4.625   0.866  0.1512  0.1561 -0.1481
 5458TIP3    H237934   0.876   4.728   0.794  0.0604  0.5681  0.3290
 5459TIP3   OH237935   6.245   5.096   7.357  0.3693  0.3041  0.3330
 5459TIP3    H137936   6.289   5.130   7.435  0.1790  0.5541  0.3329
 5459TIP3    H237937   6.154   5.123   7.368  0.1694 -0.3809  0.4344
 5460TIP3   OH237938   2.907   0.288   0.470  0.5087  0.7352 -0.2751
 5460TIP3    H137939   2.854   0.226   0.421 -0.2949 -0.0703  1.5077
 5460TIP3    H237940   2.932   0.355   0.406 -0.2891 -0.3648 -1.7881
 5461TIP3   OH237941   5.665   0.007   2.119  0.5394 -0.0787  0.4763
 5461TIP3    H137942   5.675   0.019   2.214 -1.7958  1.5633  0.5959
 5461TIP3    H237943   5.698   0.089   2.081 -0.9290  0.3756  0.1091
 5462TIP3   OH237944   4.750   1.086   7.802  0.3039 -0.3735  0.6663
 5462TIP3    H137945   4.783   1.174   7.815 -0.5808 -0.0549  0.8077
 5462TIP3    H237946   4.793   1.034   7.870 -0.3854  0.2725  1.6204
 5463TIP3   OH237947   4.421   2.278   1.730  0.2964 -0.0805  0.1294
 5463TIP3    H137948   4.515   2.261   1.731  0.3805  0.3836  0.5225
 5463TIP3    H237949   4.391   2.253   1.818  0.3758  1.4488  0.6299
 5464TIP3   OH237950   1.504   2.999   1.165 -0.0347  0.1269 -0.2369
 5464TIP3    H137951   1.452   2.931   1.122 -0.9466  0.9924 -0.5511
 5464TIP3    H237952   1.587   2.999   1.118  0.4030 -1.4655  0.4466
 5465TIP3   OH237953   5.815   0.649   8.268 -0.1244  0.3754 -0.1627
 5465TIP3    H137954   5.798   0.563   8.231 -0.3686 -1.1363  3.0731
 5465TIP3    H237955   5.729   0.689   8.278 -0.1269  0.4489 -0.4776
 5466TIP3   OH237956   5.050   1.929   7.548  0.6161  0.1728  0.7675
 5466TIP3    H137957   5.115   1.860   7.544 -1.8281 -2.2745 -2.0621
 5466TIP3    H237958   5.059   1.975   7.464 -0.5972  0.4046  0.7375
 5467TIP3   OH237959   4.747   4.445   0.578 -0.4446 -0.4964 -0.1305
 5467TIP3    H137960   4.666   4.398   0.599  0.0586 -1.5649 -0.5384
 5467TIP3    H237961   4.744   4.457   0.483 -0.9572  1.0653  0.0438
 5468TIP3   OH237962   6.533   0.076   1.891 -0.2784 -0.1880  0.4904
 5468TIP3    H137963   6.463   0.034   1.841  0.2046 -0.9573  0.4433
 5468TIP3    H237964   6.612   0.027   1.868  0.2133  0.4319  0.8311
 5469TIP3   OH237965   0.176   5.838   7.407 -0.1494 -0.0222  0.5078
 5469TIP3    H137966   0.269   5.844   7.388 -0.0241  1.6130  1.4478
 5469TIP3    H237967   0.132   5.870   7.328  0.1312  0.3704  0.5111
 5470TIP3   OH237968   1.379   2.213   0.718 -0.4732 -0.0992  0.2786
 5470TIP3    H137969   1.309   2.208   0.654 -0.1368  1.6138 -0.2737
 5470TIP3    H237970   1.455   2.244   0.668  0.7560 -2.0234  0.8253
 5471TIP3   OH237971   1.197   3.031   2.786 -0.2175 -0.5926  0.2734
 5471TIP3    H137972   1.142   2.963   2.747 -1.0154 -0.0777  0.4810
 5471TIP3    H237973   1.267   2.982   2.829 -1.3208 -1.3515  1.2735
 5472TIP3   OH237974   4.194   4.063   7.445  0.3390 -0.1199 -0.0545
 5472TIP3    H137975   4.102   4.037   7.444  0.4070 -0.3804  0.3792
 5472TIP3    H237976   4.202   4.124   7.371 -0.2718  0.2341  0.1657
 5473TIP3   OH237977   6.862   0.644   7.905 -0.7036 -0.2680  0.6587
 5473TIP3    H137978   6.811   0.609   7.832  0.5675  0.1989 -0.4955
 5473TIP3    H237979   6.807   0.712   7.943 -1.4651 -0.6597  0.2845
 5474TIP3   OH237980   6.558   6.587   2.007 -0.2307 -0.1255  0.2063
 5474TIP3    H137981   6.482   6.645   2.007  0.8284  1.2887  0.3523
 5474TIP3    H237982   6.528   6.510   1.957 -1.0128  1.4122 -1.8517
 5475TIP3   OH237983   3.189   6.183   1.594  0.3085  0.2411  0.1630
 5475TIP3    H137984   3.096   6.158   1.589  0.9022 -2.2724  0.0845
 5475TIP3    H237985   3.215   6.163   1.684  0.9182  0.3669  0.0215
 5476TIP3   OH237986   6.289   5.863   6.895 -0.4526  0.1514 -0.0222
 5476TIP3    H137987   6.201   5.849   6.861 -1.3933  1.8338  1.5470
 5476TIP3    H237988   6.324   5.775   6.909 -1.4977 -0.5470 -1.5007
 5477TIP3   OH237989   5.440   5.872   0.949 -0.3952  0.0344 -0.0487
 5477TIP3    H137990   5.374   5.868   1.018 -1.4840 -0.4765 -1.0869
 5477TIP3    H237991   5.521   5.844   0.992 -1.0660 -0.3546  0.9961
 5478TIP3   OH237992   5.782   6.305   7.238 -0.0080  0.3250 -0.6522
 5478TIP3    H137993   5.820   6.385   7.203 -1.1489  0.8156 -0.8217
 5478TIP3    H237994   5.845   6.237   7.217  0.5073  1.0150 -1.4078
 5479TIP3   OH237995   5.036   4.952   1.316  0.3695  0.0349  0.0841
 5479TIP3    H137996   5.025   4.858   1.329  0.7246 -0.1173 -0.6287
 5479TIP3    H237997   4.947   4.987   1.312  0.1714 -0.5563 -1.5272
 5480TIP3   OH237998   0.866   5.118   1.210  0.2929 -0.3829  0.9707
 5480TIP3    H137999   0.833   5.197   1.167  0.3321  0.2744  2.1242
 5480TIP3    H238000   0.788   5.063   1.219  0.0921 -0.1101  0.9447
 5481TIP3   OH238001   3.160   0.980   1.465 -0.5171  0.1070 -0.3964
 5481TIP3    H138002   3.245   0.961   1.425  0.0066 -0.0037  0.7124
 5481TIP3    H238003   3.163   1.074   1.484 -1.3151  0.4544 -1.8145
 5482TIP3   OH238004   5.217   6.631   1.384  0.8446 -0.0925 -0.1989
 5482TIP3    H138005   5.128   6.637   1.350  0.0454  1.4044  1.9454
 5482TIP3    H238006   5.213   6.561   1.449  1.5287 -0.7470 -0.8433
 5483TIP3   OH238007   6.306   2.091   7.790  0.0123  0.3682  0.3783
 5483TIP3    H138008   6.320   2.151   7.717 -0.7543 -0.8323 -0.7867
 5483TIP3    H238009   6.379   2.029   7.784  1.1932  1.5000  1.9911
 5484TIP3   OH238010   2.851   3.991   1.030 -0.2693  0.0586 -1.0843
 5484TIP3    H138011   2.789   3.985   0.957 -1.9717 -3.2262  0.4383
 5484TIP3    H238012   2.895   3.906   1.032  1.2278  0.7943  0.5297
 5485TIP3   OH238013   4.766   1.574   7.887  0.4384  0.5405  0.0837
 5485TIP3    H138014   4.702   1.567   7.816  2.6574 -0.5993 -1.9790
 5485TIP3    H238015   4.724   1.531   7.962 -2.0463  1.9007 -0.4277
 5486TIP3   OH238016   2.472   6.827   0.177 -0.5332  0.1053  0.4294
 5486TIP3    H138017   2.512   6.742   0.192 -1.0729 -0.1396  0.5209
 5486TIP3    H238018   2.390   6.807   0.132 -0.7791  0.5572  0.6671
 5487TIP3   OH238019   4.471   1.345   0.156 -0.1259  0.3172 -0.2920
 5487TIP3    H138020   4.398   1.391   0.197  1.9271  2.0231  1.7256
 5487TIP3    H238021   4.500   1.404   0.086  0.5063  0.6325  0.2164
 5488TIP3   OH238022   3.472   4.161   1.763  0.3316  0.0837 -0.1209
 5488TIP3    H138023   3.379   4.139   1.765  0.4579 -0.5852 -0.9715
 5488TIP3    H238024   3.498   4.147   1.672  0.9888  1.4522 -0.1746
 5489TIP3   OH238025   5.323   1.837   7.483 -0.1502  0.0696  0.1252
 5489TIP3    H138026   5.398   1.884   7.520  0.0132  0.4078 -0.6083
 5489TIP3    H238027   5.344   1.745   7.494 -0.0464  0.1619  0.7418
 5490TIP3   OH238028   4.287   5.893   1.489 -0.4512  0.4780  0.8441
 5490TIP3    H138029   4.242   5.810   1.474 -0.6318  0.5753  0.8366
 5490TIP3    H238030   4.226   5.959   1.457  0.0607  0.5699  0.0302
 5491TIP3   OH238031   2.551   6.874   1.441  0.2267  0.6764 -0.6470
 5491TIP3    H138032   2.570   6.963   1.413  0.2067  0.9030  0.0529
 5491TIP3    H238033   2.622   6.852   1.502 -0.4303  0.6639  0.1335
 5492TIP3   OH238034   6.758   4.911   1.916 -0.3203 -0.5437 -0.9551
 5492TIP3    H138035   6.832   4.873   1.869  0.4589 -0.0932 -0.1283
 5492TIP3    H238036   6.798   4.959   1.989 -1.4920 -1.4571  0.3322
 5493TIP3   OH238037   4.093   3.258   7.781  0.2016  0.3508  0.1882
 5493TIP3    H138038   4.060   3.348   7.790 -1.7557 -0.1509 -1.3878
 5493TIP3    H238039   4.078   3.236   7.689  0.8072 -1.5456  0.5075
 5494TIP3   OH238040   4.784   1.961   7.423 -0.4576 -0.1708  0.1584
 5494TIP3    H138041   4.871   1.924   7.435 -0.0460  0.6450 -0.2259
 5494TIP3    H238042   4.764   1.949   7.330 -1.6986 -2.3226  0.6470
 5495TIP3   OH238043   3.933   3.113   1.997  0.0897  0.2204  0.6340
 5495TIP3    H138044   3.943   3.019   1.986 -1.7788  0.0773 -0.2295
 5495TIP3    H238045   3.947   3.128   2.091 -1.1348 -1.1560  1.0735
 5496TIP3   OH238046   4.840   1.091   7.427 -0.0431 -0.4997 -0.2162
 5496TIP3    H138047   4.914   1.031   7.430 -1.4407 -2.2507  0.5804
 5496TIP3    H238048   4.770   1.042   7.385 -1.2291  0.5864  0.4029
 5497TIP3   OH238049   6.562   6.471   1.266 -0.4722  0.2355  0.3470
 5497TIP3    H138050   6.638   6.524   1.286  1.4197 -2.4608  0.9326
 5497TIP3    H238051   6.569   6.453   1.173 -1.1216  0.9747  0.1446
 5498TIP3   OH238052   3.862   4.870   1.689  0.4714  0.3062  0.5921
 5498TIP3    H138053   3.772   4.865   1.721 -1.0765  0.4285 -3.2215
 5498TIP3    H238054   3.888   4.961   1.705 -0.2608  0.4083  1.2463
 5499TIP3   OH238055   4.120   1.451   8.407 -0.3811 -0.4397  0.4090
 5499TIP3    H138056   4.070   1.425   8.485  0.5285  0.4023  1.2878
 5499TIP3    H238057   4.053   1.482   8.346 -1.0086 -0.0782  1.2646
 5500TIP3   OH238058   5.162   0.403   1.675  0.5096  0.5465 -0.6178
 5500TIP3    H138059   5.250   0.429   1.648  0.5127  2.7532  1.2569
 5500TIP3    H238060   5.175   0.320   1.721  1.5838  0.7268 -0.5719
 5501TIP3   OH238061   2.672   3.934   0.018  0.0211  0.0009 -0.1106
 5501TIP3    H138062   2.624   4.013   0.043  0.6925 -0.1923  2.0088
 5501TIP3    H238063   2.724   3.960  -0.058 -0.9188  1.1422 -0.3906
 5502TIP3   OH238064   6.512   1.048   1.671 -0.3422  0.0772 -0.7112
 5502TIP3    H138065   6.441   1.112   1.673  0.8430  1.4769 -1.2988
 5502TIP3    H238066   6.589   1.096   1.703  0.4845 -1.1992 -0.7011
 5503TIP3   OH238067   2.154   0.821   0.653 -0.4747 -0.5541 -0.1102
 5503TIP3    H138068   2.213   0.840   0.726  0.4375 -1.0305 -0.7037
 5503TIP3    H238069   2.211   0.784   0.585 -1.2190  0.3573 -1.2569
 5504TIP3   OH238070   3.779   6.358   0.758 -0.1469  0.0597 -0.2434
 5504TIP3    H138071   3.782   6.452   0.778 -1.1769  0.2798 -1.0160
 5504TIP3    H238072   3.802   6.353   0.665 -0.2477 -0.4325 -0.2452
 5505TIP3   OH238073   1.635   4.092   2.264 -0.3892  0.1194 -0.1735
 5505TIP3    H138074   1.723   4.126   2.282  0.6086 -0.7616 -2.8345
 5505TIP3    H238075   1.635   4.004   2.302 -0.3188  0.3025  0.2597
 5506TIP3   OH238076   0.629   1.069   8.409 -0.2105  0.0377 -0.4462
 5506TIP3    H138077   0.710   1.055   8.360 -0.5145  1.8883 -1.5642
 5506TIP3    H238078   0.635   1.158   8.442 -2.3497  0.7432 -1.7340
 5507TIP3   OH238079   5.675   2.862   8.120  0.2095 -0.4415  0.2758
 5507TIP3    H138080   5.594   2.897   8.157 -0.2276  0.1257 -1.1681
 5507TIP3    H238081   5.649   2.822   8.038  1.4633  0.2867 -0.5106
 5508TIP3   OH238082   0.435   1.863   0.292 -0.2224  0.5311 -0.1798
 5508TIP3    H138083   0.360   1.914   0.261 -0.6927  1.3455  2.1340
 5508TIP3    H238084   0.493   1.928   0.331  0.6009 -0.3745  0.1425
 5509TIP3   OH238085   0.192   1.865   1.138  0.6976 -0.0734 -0.1209
 5509TIP3    H138086   0.187   1.781   1.092  0.4008 -2.8390  4.2804
 5509TIP3    H238087   0.101   1.882   1.165  1.1563  0.0999  1.3876
 5510TIP3   OH238088   6.221   1.372   0.016  0.5462 -0.7662 -0.4979
 5510TIP3    H138089   6.302   1.320   0.017  0.4125 -1.0582  1.7102
 5510TIP3    H238090   6.167   1.333   0.086  0.0310  1.6777  0.5698
 5511TIP3   OH238091   4.935   3.623   7.473 -0.5746 -0.3167 -0.0175
 5511TIP3    H138092   5.005   3.559   7.488  0.5074  0.5487 -1.1736
 5511TIP3    H238093   4.918   3.618   7.379  0.1881  1.7075 -0.3105
 5512TIP3   OH238094   6.778   1.451   0.488  0.0699  0.1021  0.2317
 5512TIP3    H138095   6.752   1.542   0.474 -0.6353  0.0087  0.8047
 5512TIP3    H238096   6.823   1.425   0.408  0.4525  1.0158  0.1438
 5513TIP3   OH238097   2.800   1.054   8.519  0.5511 -0.6573 -0.3682
 5513TIP3    H138098   2.886   1.010   8.518  0.7929 -0.2728  0.9026
 5513TIP3    H238099   2.821   1.146   8.536 -0.1286 -0.6345  0.3837
 5514TIP3   OH238100   6.191   1.746   8.054 -0.7329 -0.3257  0.0861
 5514TIP3    H138101   6.267   1.797   8.082 -0.5235 -0.5216 -0.1214
 5514TIP3    H238102   6.206   1.730   7.961 -0.2564 -1.6754  0.3744
 5515TIP3   OH238103   1.085   1.699   0.093 -0.0226  0.4851 -0.1564
 5515TIP3    H138104   1.105   1.786   0.058  0.7564  0.6890  0.7405
 5515TIP3    H238105   0.996   1.708   0.128 -0.3096  0.6433 -0.9106
 5516TIP3   OH238106   3.737   3.946   2.706 -0.1734  0.5895 -0.7492
 5516TIP3    H138107   3.737   3.931   2.801  0.5859 -2.6109 -1.1488
 5516TIP3    H238108   3.644   3.953   2.683 -0.3657  1.3917  0.1901
 5517TIP3   OH238109   3.146   6.238   8.248  0.1848  0.3513  0.3976
 5517TIP3    H138110   3.171   6.197   8.331 -0.3874 -1.4257 -0.2551
 5517TIP3    H238111   3.223   6.229   8.192 -0.2361 -0.6425 -0.0290
 5518TIP3   OH238112   4.086   2.179   1.169  0.4301 -0.1824  0.1887
 5518TIP3    H138113   4.002   2.225   1.173 -0.1885 -1.2248 -0.3074
 5518TIP3    H238114   4.152   2.247   1.186 -0.5034  0.6624  0.5293
 5519TIP3   OH238115   2.265   5.981   6.822 -0.0213  0.5933 -0.2906
 5519TIP3    H138116   2.281   6.014   6.910 -0.3950 -2.0631  0.8826
 5519TIP3    H238117   2.172   5.960   6.820 -1.0192  4.2534 -2.7893
 5520TIP3   OH238118   2.370   5.698   7.982 -0.5118 -0.2701 -0.0635
 5520TIP3    H138119   2.454   5.690   7.937 -0.5468 -0.3495 -0.1159
 5520TIP3    H238120   2.392   5.686   8.075 -0.5484 -0.9137 -0.1332
 5521TIP3   OH238121   6.558   6.785   1.252 -0.0827 -0.7205  0.2104
 5521TIP3    H138122   6.530   6.780   1.343  1.4388  1.4430  0.8724
 5521TIP3    H238123   6.597   6.872   1.243 -2.2971  0.1386 -3.1502
 5522TIP3   OH238124   6.398   3.391   1.626  0.3432 -0.2792 -0.1415
 5522TIP3    H138125   6.411   3.485   1.628  1.0951 -0.3438 -1.2330
 5522TIP3    H238126   6.422   3.365   1.537  1.4379 -1.6770  0.5248
 5523TIP3   OH238127   6.055   5.738   0.996 -0.3755  0.1743 -0.1226
 5523TIP3    H138128   6.030   5.646   1.002  1.5431 -0.2985  1.9853
 5523TIP3    H238129   6.011   5.770   0.917 -0.5451 -2.7016 -1.2979
 5524TIP3   OH238130   1.806   2.552   1.709 -0.0422 -0.0196 -0.0306
 5524TIP3    H138131   1.719   2.588   1.730  0.3081  2.2236 -1.9297
 5524TIP3    H238132   1.867   2.619   1.738  0.7420  0.4084 -2.4258
 5525TIP3   OH238133   5.310   2.793   0.411 -0.2760  0.3737 -0.5319
 5525TIP3    H138134   5.291   2.877   0.369 -0.4707 -0.7422 -2.8614
 5525TIP3    H238135   5.405   2.785   0.408 -0.1754  0.9367  0.6523
 5526TIP3   OH238136   1.340   2.266   1.430 -0.3734  0.1275  0.0703
 5526TIP3    H138137   1.248   2.250   1.452 -0.0256 -0.6471  1.0382
 5526TIP3    H238138   1.373   2.322   1.501  0.1029 -0.2665  0.1652
 5527TIP3   OH238139   4.667   5.545   1.811  0.2769  0.1721 -0.2889
 5527TIP3    H138140   4.741   5.556   1.751  0.8385 -0.1768  0.3318
 5527TIP3    H238141   4.694   5.476   1.871 -0.0546  0.9082  0.7250
 5528TIP3   OH238142   0.636   6.092   0.524  0.0271  0.2447 -0.1258
 5528TIP3    H138143   0.712   6.094   0.466  1.1482 -1.2285  1.1911
 5528TIP3    H238144   0.616   6.184   0.541  0.7905  0.6698 -1.3958
 5529TIP3   OH238145   3.312   1.472   0.880  0.1785  0.1525 -0.0740
 5529TIP3    H138146   3.264   1.522   0.946  0.0918  1.0044 -0.7543
 5529TIP3    H238147   3.247   1.455   0.811  0.1963 -0.9591  0.1807
 5530TIP3   OH238148   5.746   2.112   6.937  0.1947  0.4824  0.3342
 5530TIP3    H138149   5.679   2.171   6.903  1.4573  1.2948 -0.8839
 5530TIP3    H238150   5.710   2.078   7.019 -1.9352  0.4117 -0.5738
 5531TIP3   OH238151   6.595   5.118   2.111 -0.2700  0.1360  0.4574
 5531TIP3    H138152   6.577   5.204   2.147 -1.1635 -0.0110  0.3816
 5531TIP3    H238153   6.532   5.060   2.154  2.0890 -1.0254  2.5948
 5532TIP3   OH238154   4.196   2.323   0.557 -0.3755  0.3372  0.1274
 5532TIP3    H138155   4.190   2.283   0.470  0.4960  2.3082 -0.9005
 5532TIP3    H238156   4.148   2.405   0.549 -0.8176  0.2630  1.7185
 5533TIP3   OH238157   1.422   5.784   2.263  0.4571 -0.2069 -0.4836
 5533TIP3    H138158   1.498   5.750   2.215 -1.3548 -1.1957 -2.8342
 5533TIP3    H238159   1.398   5.864   2.215 -1.8347 -1.6072 -1.8699
 5534TIP3   OH238160   1.000   0.569   6.811 -0.4090  0.4986 -0.1393
 5534TIP3    H138161   1.067   0.502   6.826 -1.5578 -0.0750  3.1138
 5534TIP3    H238162   0.917   0.524   6.828 -1.3425  2.2464  0.1934
 5535TIP3   OH238163   6.354   5.942   0.872 -0.2696 -0.2765 -0.7817
 5535TIP3    H138164   6.404   5.942   0.790 -0.0525  2.0058 -0.7092
 5535TIP3    H238165   6.313   6.028   0.875 -0.6115 -0.4545  1.3255
 5536TIP3   OH238166   3.539   5.854   1.834  0.3708 -0.0458 -0.3065
 5536TIP3    H138167   3.618   5.849   1.780  0.7478 -0.1537  0.2476
 5536TIP3    H238168   3.568   5.829   1.921 -0.5731 -1.4648 -0.3753
 5537TIP3   OH238169   0.451   1.890   1.025 -0.0637 -0.3105 -0.2728
 5537TIP3    H138170   0.456   1.802   1.062 -2.0903 -1.1229 -1.7792
 5537TIP3    H238171   0.360   1.917   1.038  0.6424  1.8684  0.6959
 5538TIP3   OH238172   6.301   3.770   0.158 -0.0538  0.2558 -0.2865
 5538TIP3    H138173   6.396   3.761   0.146 -0.3221 -3.5227 -0.8222
 5538TIP3    H238174   6.286   3.740   0.248 -0.7789  0.1448 -0.4423
 5539TIP3   OH238175   3.110   5.440   7.839 -0.0015 -0.4887 -0.0600
 5539TIP3    H138176   3.020   5.469   7.824 -0.4284 -1.6925  0.0616
 5539TIP3    H238177   3.104   5.378   7.912  0.7341 -1.4555 -0.7874
 5540TIP3   OH238178   5.520   2.542   8.044 -0.2244  0.3903 -0.6816
 5540TIP3    H138179   5.560   2.517   8.128  1.1127  0.7513 -1.1854
 5540TIP3    H238180   5.455   2.474   8.028  0.8788 -0.8035 -0.2966
 5541TIP3   OH238181   0.972   5.703   1.956 -0.5720  0.3705 -0.5419
 5541TIP3    H138182   0.882   5.680   1.933  0.1640 -1.4119 -1.8856
 5541TIP3    H238183   0.979   5.680   2.049 -1.2415 -0.4206 -0.6706
 5542TIP3   OH238184   6.771   1.404   1.375  0.3638 -0.4839  0.3917
 5542TIP3    H138185   6.777   1.392   1.280  0.1690  0.6467  0.2174
 5542TIP3    H238186   6.678   1.392   1.395  0.0560  1.1975  0.1212
 5543TIP3   OH238187   5.614   6.152   0.612 -0.4475 -0.0157 -0.0236
 5543TIP3    H138188   5.562   6.079   0.579 -0.3382  0.5439 -1.4961
 5543TIP3    H238189   5.704   6.128   0.592 -0.4325  0.6362 -0.7726
 5544TIP3   OH238190   2.402   1.344   0.814  0.2595  0.1937  0.1414
 5544TIP3    H138191   2.429   1.412   0.876  0.5009 -0.0972  0.3611
 5544TIP3    H238192   2.472   1.341   0.749  0.5440 -0.2449  0.4583
 5545TIP3   OH238193   3.930   6.597   6.603 -0.1278 -0.7318  0.3811
 5545TIP3    H138194   3.921   6.502   6.599 -1.2736 -0.6566  0.9392
 5545TIP3    H238195   3.905   6.620   6.693  1.4379 -0.0242  0.6745
 5546TIP3   OH238196   4.335   0.782   0.616 -0.3570  0.2156 -0.1165
 5546TIP3    H138197   4.367   0.833   0.542  0.3542 -1.7555 -1.2255
 5546TIP3    H238198   4.411   0.733   0.647 -1.0869 -0.4475  0.6837
 5547TIP3   OH238199   0.353   0.906   2.025 -0.1195 -0.2462 -0.1225
 5547TIP3    H138200   0.352   0.982   1.967 -1.8721  0.7733  1.1383
 5547TIP3    H238201   0.435   0.861   2.005 -0.3754  0.3705 -2.9223
 5548TIP3   OH238202   2.335   3.853   7.398  0.5157 -0.0783 -0.1955
 5548TIP3    H138203   2.364   3.943   7.412  0.5471  0.2631 -2.2029
 5548TIP3    H238204   2.270   3.859   7.329 -0.6149 -1.4458  0.6884
 5549TIP3   OH238205   2.818   3.528   8.434 -0.4604  0.4483 -0.2027
 5549TIP3    H138206   2.864   3.453   8.470 -1.0352 -0.1006 -0.6067
 5549TIP3    H238207   2.886   3.581   8.393 -0.3002 -0.9678 -1.8780
 5550TIP3   OH238208   4.164   6.664   0.210  0.9047 -0.2865 -0.4530
 5550TIP3    H138209   4.160   6.732   0.278  2.0010  0.4648 -1.0974
 5550TIP3    H238210   4.082   6.672   0.163  1.1476  0.8463 -0.7255
 5551TIP3   OH238211   4.675   4.357   7.652  0.2802 -0.3587  0.3857
 5551TIP3    H138212   4.671   4.377   7.558  0.7848 -0.5448  0.3266
 5551TIP3    H238213   4.583   4.342   7.676 -0.4744  3.7858  0.8181
 5552TIP3   OH238214   2.183   0.876   1.447 -0.2898 -0.1497 -0.0961
 5552TIP3    H138215   2.240   0.827   1.505  0.4639 -0.5793 -1.1596
 5552TIP3    H238216   2.227   0.960   1.435  1.2334 -1.1719 -2.4634
 5553TIP3   OH238217   6.475   3.203   2.247  0.3883 -0.2771  0.0945
 5553TIP3    H138218   6.471   3.121   2.296  0.8445  0.2125  0.9761
 5553TIP3    H238219   6.567   3.228   2.251  0.2476  0.2902 -0.1517
 5554TIP3   OH238220   1.995   3.022   2.203  0.0279 -0.1108 -0.5313
 5554TIP3    H138221   1.933   2.949   2.209  1.1422 -0.9631  2.0957
 5554TIP3    H238222   1.954   3.092   2.253 -0.2798  0.5126 -1.6321
 5555TIP3   OH238223   6.221   3.494   7.909 -0.2029  0.6680 -0.1002
 5555TIP3    H138224   6.245   3.524   7.821  0.1373  1.1538  0.1507
 5555TIP3    H238225   6.128   3.473   7.903  0.1042 -0.5869 -0.9193
 5556TIP3   OH238226   2.588   3.095   8.569 -0.2909 -0.1779  0.9819
 5556TIP3    H138227   2.523   3.054   8.512 -0.8067  0.6565  0.9501
 5556TIP3    H238228   2.551   3.182   8.588  1.6318  1.0294 -0.4649
 5557TIP3   OH238229   2.187   4.355   7.171 -0.1877 -0.3964  0.4004
 5557TIP3    H138230   2.272   4.335   7.211  0.3438  0.0712 -0.4732
 5557TIP3    H238231   2.202   4.436   7.123 -1.3595  0.1309  0.9038
 5558TIP3   OH238232   6.847   0.076   2.330 -0.1281  0.1324  0.0381
 5558TIP3    H138233   6.773   0.124   2.292  0.1935 -0.1302 -0.9377
 5558TIP3    H238234   6.812   0.039   2.411 -0.8841  0.5240 -0.0958
 5559TIP3   OH238235   6.670   3.044   2.668  0.2963  0.4657 -0.9232
 5559TIP3    H138236   6.591   3.066   2.619  0.5649  2.7977 -0.4374
 5559TIP3    H238237   6.740   3.092   2.623  1.2291 -0.6028 -0.6361
 5560TIP3   OH238238   6.549   2.166   0.273 -0.0243  0.0576 -0.0637
 5560TIP3    H138239   6.599   2.088   0.247  2.2761  0.6818  2.1783
 5560TIP3    H238240   6.468   2.130   0.308 -0.0097 -1.1691 -1.1640
 5561TIP3   OH238241   3.173   3.460   0.072  0.4791 -0.8437  0.5197
 5561TIP3    H138242   3.252   3.419   0.106  1.0466 -1.4499 -1.4256
 5561TIP3    H238243   3.202   3.546   0.042  0.0709 -0.4893  1.1058
 5562TIP3   OH238244   5.170   1.540   2.362  0.3073  0.2046  0.9534
 5562TIP3    H138245   5.263   1.531   2.341  0.0888  1.1162 -0.5359
 5562TIP3    H238246   5.146   1.626   2.328 -1.5536 -0.8336 -0.5886
 5563TIP3   OH238247   1.287   6.587   1.215 -0.0356  0.3127  0.3386
 5563TIP3    H138248   1.337   6.627   1.145 -0.2591  0.4501  0.2558
 5563TIP3    H238249   1.206   6.639   1.220 -0.1167  0.1701  0.5498
 5564TIP3   OH238250   2.283   1.604   8.098 -0.2307  0.8339 -0.3693
 5564TIP3    H138251   2.370   1.629   8.067 -0.1957  0.3224 -0.6897
 5564TIP3    H238252   2.261   1.671   8.163  1.5034 -0.4625  1.6920
 5565TIP3   OH238253   5.619   4.743   1.494 -0.4100 -0.3391 -0.3568
 5565TIP3    H138254   5.530   4.710   1.505 -0.9857  0.1810 -2.8053
 5565TIP3    H238255   5.608   4.829   1.453  1.1896  0.7749  1.3876
 5566TIP3   OH238256   4.945   2.700   0.196 -0.4059  0.1536  0.1933
 5566TIP3    H138257   4.874   2.764   0.200 -0.2784  0.3015  0.1168
 5566TIP3    H238258   5.025   2.753   0.193 -0.3507  0.0233 -1.3228
 5567TIP3   OH238259   0.687   1.340   1.436 -0.2548 -0.2531 -0.0804
 5567TIP3    H138260   0.691   1.436   1.443 -0.7906 -0.1693 -0.7635
 5567TIP3    H238261   0.744   1.309   1.505  1.2375  0.5957 -0.8748
 5568TIP3   OH238262   3.674   4.903   1.920 -0.1093  0.4152 -0.3049
 5568TIP3    H138263   3.747   4.954   1.956 -1.1102  1.8274 -0.1976
 5568TIP3    H238264   3.604   4.967   1.908 -1.2404 -0.8567 -0.6817
 5569TIP3   OH238265   0.798   1.941   1.435  0.8856 -0.4972 -0.5815
 5569TIP3    H138266   0.713   1.986   1.442  0.3085 -1.3269 -1.8229
 5569TIP3    H238267   0.839   1.979   1.357  0.9400 -1.2099 -0.9124
 5570TIP3   OH238268   3.015   4.716   0.609  0.4109 -0.3936 -0.1891
 5570TIP3    H138269   2.992   4.633   0.652 -0.6119 -0.1609 -0.2681
 5570TIP3    H238270   3.102   4.700   0.572  0.4519 -1.2570  0.2456
 5571TIP3   OH238271   2.628   4.686   7.532  0.1835 -0.4834 -0.3707
 5571TIP3    H138272   2.564   4.665   7.600 -1.0422 -1.4990 -1.7898
 5571TIP3    H238273   2.707   4.710   7.581 -0.6219 -1.2706  1.4109
 5572TIP3   OH238274   0.856   3.376   7.822  0.1295  0.2404  0.1159
 5572TIP3    H138275   0.796   3.336   7.885 -0.3439  0.7553 -0.0090
 5572TIP3    H238276   0.818   3.462   7.803  0.4694  0.2410 -0.5840
 5573TIP3   OH238277   1.315   4.213   8.255 -1.4687  0.1661  0.2154
 5573TIP3    H138278   1.254   4.159   8.205 -1.3039  1.1015 -1.0384
 5573TIP3    H238279   1.324   4.293   8.204  1.7687 -0.4153 -0.3422
 5574TIP3   OH238280   5.926   1.210   3.264  0.4475  0.4596  0.7155
 5574TIP3    H138281   5.867   1.159   3.319 -0.0804 -0.9882 -1.0687
 5574TIP3    H238282   6.013   1.176   3.284  0.3989  0.7404  1.4378
 5575TIP3   OH238283   1.744   0.282   0.063 -0.5446 -0.0367  0.0162
 5575TIP3    H138284   1.721   0.365   0.022  1.5898  0.0998 -1.0455
 5575TIP3    H238285   1.839   0.287   0.076 -0.6162 -1.6170  1.5421
 5576TIP3   OH238286   4.065   0.407   0.761 -0.1806  0.4775 -0.0545
 5576TIP3    H138287   4.089   0.498   0.780  1.4073  0.2243 -0.6490
 5576TIP3    H238288   3.978   0.396   0.799 -0.3835  2.2306  0.0603
 5577TIP3   OH238289   1.686   2.467   6.458  0.3902  0.0568  0.1047
 5577TIP3    H138290   1.621   2.511   6.513 -0.4251 -1.1538  0.1598
 5577TIP3    H238291   1.736   2.538   6.418 -0.9270  1.0281  0.1086
 5578TIP3   OH238292   4.061   4.859   0.524 -0.3454  0.0656  0.5196
 5578TIP3    H138293   4.124   4.907   0.470 -0.7259  1.4862  1.2879
 5578TIP3    H238294   4.071   4.896   0.612 -0.7019 -1.2457  1.1322
 5579TIP3   OH238295   5.761   4.984   7.405 -0.4107  0.1490  0.0161
 5579TIP3    H138296   5.779   4.952   7.317  1.4646 -2.6243  1.2541
 5579TIP3    H238297   5.832   5.046   7.424 -0.0439 -0.2775  0.0399
 5580TIP3   OH238298   0.759   1.507   0.784 -0.1243 -0.4067  0.1410
 5580TIP3    H138299   0.710   1.535   0.707  0.9198 -1.5828 -0.9802
 5580TIP3    H238300   0.835   1.565   0.786  1.4016 -2.2368 -1.4810
 5581TIP3   OH238301   2.429   5.449   0.177 -0.2701  0.4146 -0.5090
 5581TIP3    H138302   2.492   5.379   0.194 -1.2587 -0.7725 -1.5164
 5581TIP3    H238303   2.347   5.418   0.216  0.0944  2.7710  2.4521
 5582TIP3   OH238304   3.250   0.368   0.650 -0.2208  0.0684 -0.2566
 5582TIP3    H138305   3.246   0.354   0.745 -0.5199  0.5664 -0.1948
 5582TIP3    H238306   3.197   0.446   0.635  1.0022  0.8427 -0.6637
 5583TIP3   OH238307   1.673   3.361   8.544 -0.1508 -0.1273  0.1561
 5583TIP3    H138308   1.579   3.349   8.560  0.2871 -1.4439  2.1318
 5583TIP3    H238309   1.690   3.315   8.462 -0.9290 -1.4876  0.7259
 5584TIP3   OH238310   3.981   3.779   2.002 -0.0102  0.3091 -0.8354
 5584TIP3    H138311   3.973   3.684   2.008 -0.0734  0.4186  1.8335
 5584TIP3    H238312   4.058   3.801   2.054  0.0127  1.7377 -1.4054
 5585TIP3   OH238313   5.385   3.424   1.998  0.3324  0.3190 -0.2134
 5585TIP3    H138314   5.375   3.495   1.935  2.1776  0.2891 -0.5793
 5585TIP3    H238315   5.305   3.372   1.988 -0.1198  1.1984 -1.3888
 5586TIP3   OH238316   6.238   1.539   2.020  0.0031  0.7752 -0.0460
 5586TIP3    H138317   6.307   1.603   2.033  0.0483  0.8753 -0.7814
 5586TIP3    H238318   6.283   1.459   1.993 -0.1678  0.8475 -0.5522
 5587TIP3   OH238319   6.168   4.743   6.767 -0.7914 -0.1219 -0.0833
 5587TIP3    H138320   6.129   4.732   6.854  0.1285 -0.7383  0.2608
 5587TIP3    H238321   6.207   4.658   6.747 -2.7710 -0.6956 -2.0157
 5588TIP3   OH238322   3.826   3.468   0.581 -0.5285  0.5734  0.0960
 5588TIP3    H138323   3.829   3.500   0.671 -0.8210  1.6888 -0.2821
 5588TIP3    H238324   3.849   3.544   0.527 -2.2506  0.4460 -0.8773
 5589TIP3   OH238325   5.373   4.237   0.900  0.2292 -0.0229 -0.1669
 5589TIP3    H138326   5.396   4.149   0.870 -1.2769 -1.0341  1.5075
 5589TIP3    H238327   5.432   4.295   0.851  2.5045 -2.0691 -0.0251
 5590TIP3   OH238328   3.467   1.961   1.419 -0.3526  0.0511  0.2074
 5590TIP3    H138329   3.506   1.888   1.467 -0.2763 -0.0692 -0.0332
 5590TIP3    H238330   3.525   1.974   1.344 -0.6298  0.0420 -0.0104
 5591TIP3   OH238331   4.522   3.783   0.242  0.2364 -0.4481 -0.0838
 5591TIP3    H138332   4.532   3.779   0.147 -0.3079  0.7398 -0.2082
 5591TIP3    H238333   4.433   3.750   0.258 -1.3110  3.0934 -0.4246
 5592TIP3   OH238334   6.072   1.428   2.220 -0.1579 -0.7415  0.1815
 5592TIP3    H138335   6.050   1.343   2.182  0.6158 -2.3238  2.9819
 5592TIP3    H238336   6.116   1.475   2.149 -3.1518 -1.4219 -2.3710
 5593TIP3   OH238337   6.503   2.448   8.043  0.7251 -0.0285 -0.1259
 5593TIP3    H138338   6.430   2.507   8.065  1.2343  0.2989  0.7032
 5593TIP3    H238339   6.524   2.403   8.125  2.3422  0.8628 -0.0147
 5594TIP3   OH238340   1.915   3.567   7.079 -0.1202 -0.5331 -0.2800
 5594TIP3    H138341   1.849   3.498   7.068 -0.6786  0.2523 -2.2535
 5594TIP3    H238342   1.995   3.531   7.040 -0.3397 -0.1716 -1.0694
 5595TIP3   OH238343   4.231   0.059   1.216  0.2416  0.0391  0.1794
 5595TIP3    H138344   4.282   0.087   1.140 -0.6025  0.1095 -0.3747
 5595TIP3    H238345   4.230  -0.036   1.211  0.6068  0.0223  0.3885
 5596TIP3   OH238346   3.086   1.260   1.527 -0.6093 -0.3947 -0.5467
 5596TIP3    H138347   3.146   1.334   1.525 -0.4641 -0.5015 -0.1504
 5596TIP3    H238348   3.027   1.275   1.453  1.1835 -1.3482 -2.2542
 5597TIP3   OH238349   4.513   2.859   1.688 -0.3931 -0.1908  0.4180
 5597TIP3    H138350   4.523   2.801   1.764  0.7086 -1.6592 -0.8013
 5597TIP3    H238351   4.426   2.838   1.654 -0.6076 -0.0282  0.8506
 5598TIP3   OH238352   1.942   0.923   2.620 -0.3319  0.6443  0.0185
 5598TIP3    H138353   1.934   0.983   2.694 -0.6888 -1.5982  1.9245
 5598TIP3    H238354   2.026   0.945   2.579  0.4090  1.2449  1.7855
 5599TIP3   OH238355   4.308   2.784   2.324  0.3369  0.3447  0.9545
 5599TIP3    H138356   4.275   2.872   2.307  1.3840  0.5603 -0.1386
 5599TIP3    H238357   4.360   2.792   2.404 -0.2522  0.5295  1.3217
 5600TIP3   OH238358   0.278   0.341   6.764 -0.6817  0.0443 -0.0508
 5600TIP3    H138359   0.359   0.381   6.796 -0.8235  0.5091 -0.2599
 5600TIP3    H238360   0.264   0.381   6.678 -0.7225 -0.6059 -0.3459
 5601TIP3   OH238361   3.249   5.412   8.224 -0.0965  0.0850  0.4517
 5601TIP3    H138362   3.330   5.456   8.199  0.5306 -0.8296  0.8010
 5601TIP3    H238363   3.274   5.321   8.235 -0.7443  0.0892  2.4062
 5602TIP3   OH238364   4.549   0.093   2.554 -0.4611  0.0587  0.1412
 5602TIP3    H138365   4.588   0.164   2.605 -0.3859  1.2359 -1.4798
 5602TIP3    H238366   4.624   0.052   2.509 -0.7923  0.9569 -1.3078
 5603TIP3   OH238367   0.829   3.650   1.050  0.4263  0.5686 -0.2303
 5603TIP3    H138368   0.922   3.662   1.069  0.4384  1.0543 -0.5848
 5603TIP3    H238369   0.788   3.644   1.137  1.0896 -2.3085 -0.0303
 5604TIP3   OH238370   6.643   6.191   1.168 -0.2837 -0.1812 -0.3214
 5604TIP3    H138371   6.596   6.113   1.196 -1.3398  0.6983  0.4337
 5604TIP3    H238372   6.578   6.241   1.119 -0.3520  1.3316  1.2307
 5605TIP3   OH238373   0.344   2.442   1.697  0.1953 -0.6588  0.2424
 5605TIP3    H138374   0.282   2.397   1.639  0.6489 -0.0487 -0.7470
 5605TIP3    H238375   0.430   2.408   1.671  0.3345 -1.2333  1.3630
 5606TIP3   OH238376   0.963   4.956   0.591 -1.0274  0.0670  0.1379
 5606TIP3    H138377   0.926   5.009   0.662 -1.4865 -1.0371  0.7536
 5606TIP3    H238378   1.056   4.950   0.611 -1.3370 -1.2034  1.3238
 5607TIP3   OH238379   5.475   1.816   2.397 -0.0528 -0.4736 -0.1667
 5607TIP3    H138380   5.518   1.802   2.481 -0.9862 -0.5531  0.3132
 5607TIP3    H238381   5.392   1.859   2.419  0.4707  1.1442 -1.1989
 5608TIP3   OH238382   1.539   3.992   7.628  0.0343  0.6668 -0.3836
 5608TIP3    H138383   1.606   3.924   7.638 -0.5596  0.1265 -0.0010
 5608TIP3    H238384   1.469   3.949   7.577 -1.4927  0.1231  2.0111
 5609TIP3   OH238385   6.542   1.739   7.263 -0.6212  0.2280 -0.0665
 5609TIP3    H138386   6.446   1.733   7.266 -0.6756 -1.6835 -2.3941
 5609TIP3    H238387   6.573   1.661   7.308 -0.1179  0.8887  0.7659
 5610TIP3   OH238388   3.474   4.160   1.131  0.0804 -0.1550  0.3622
 5610TIP3    H138389   3.550   4.210   1.102 -0.1192 -1.0399 -1.9143
 5610TIP3    H238390   3.408   4.227   1.149 -0.3696  0.5984 -3.1593
 5611TIP3   OH238391   0.723   0.554   2.106  0.8561  0.0262 -0.0042
 5611TIP3    H138392   0.805   0.512   2.134  0.3109 -1.6280 -0.7403
 5611TIP3    H238393   0.656   0.511   2.159  0.4891  1.9959  1.2378
 5612TIP3   OH238394   2.754   0.413   0.946 -0.5686  0.0962 -0.5119
 5612TIP3    H138395   2.752   0.424   0.851 -1.6153 -0.4790 -0.5733
 5612TIP3    H238396   2.761   0.319   0.959  1.0227  0.2547  0.0034
 5613TIP3   OH238397   1.908   5.631   1.118 -0.0433  0.2558  0.0070
 5613TIP3    H138398   1.832   5.586   1.154  1.0396 -0.7222  1.1423
 5613TIP3    H238399   1.982   5.572   1.136  1.0079  1.2471 -0.9241
 5614TIP3   OH238400   5.046   4.462   0.238 -0.3766  0.0990 -0.0658
 5614TIP3    H138401   5.098   4.543   0.240 -2.0750  1.2388  1.2046
 5614TIP3    H238402   5.005   4.462   0.152  0.4309  0.0417 -0.4568
 5615TIP3   OH238403   1.760   4.942   1.107  0.4926  0.4801  0.1925
 5615TIP3    H138404   1.796   4.932   1.019 -0.0257  1.7515 -0.1914
 5615TIP3    H238405   1.694   5.011   1.098 -0.5675 -0.3420  1.2886
 5616TIP3   OH238406   3.018   1.767   2.393  0.0634 -0.0736 -0.1366
 5616TIP3    H138407   3.026   1.673   2.381 -1.0905 -0.3032  0.7012
 5616TIP3    H238408   3.031   1.804   2.305  3.2819 -0.7574 -0.0645
 5617TIP3   OH238409   6.023   0.805   0.825  1.3928  0.8692 -0.0341
 5617TIP3    H138410   6.018   0.727   0.881  0.0107  1.0399  0.1299
 5617TIP3    H238411   6.097   0.854   0.860  0.2483  1.2442  2.0662
 5618TIP3   OH238412   4.175   3.800   0.029  0.5217  0.1809 -0.3224
 5618TIP3    H138413   4.185   3.712   0.067  1.3952  0.4360  0.0750
 5618TIP3    H238414   4.230   3.798  -0.049 -0.7185 -0.1162 -1.2140
 5619TIP3   OH238415   2.092   3.619   3.141 -0.1561 -0.4070  0.2652
 5619TIP3    H138416   2.012   3.579   3.106  0.7765  0.8292 -3.7780
 5619TIP3    H238417   2.065   3.706   3.169 -0.3371 -0.0837 -0.8541
 5620TIP3   OH238418   6.426   5.072   8.339 -0.4991  0.2618 -0.5281
 5620TIP3    H138419   6.355   5.108   8.392  0.4265  1.2078  0.1030
 5620TIP3    H238420   6.382   5.013   8.277 -1.5618 -1.6545  1.8597
 5621TIP3   OH238421   0.908   1.679   7.564  0.0099  0.1573  0.0616
 5621TIP3    H138422   0.999   1.655   7.546 -0.1526 -1.6742  1.3716
 5621TIP3    H238423   0.915   1.747   7.631  0.4582 -1.2363  1.5109
 5622TIP3   OH238424   4.441   6.401   0.965  0.0315 -0.9443 -0.1538
 5622TIP3    H138425   4.521   6.398   1.017 -0.5524 -2.2808  0.7285
 5622TIP3    H238426   4.439   6.318   0.919 -0.4399 -0.5705 -0.8224
 5623TIP3   OH238427   0.387   2.447   0.764  0.2664  0.0985  0.4411
 5623TIP3    H138428   0.364   2.537   0.741  0.6738 -0.0408 -0.5794
 5623TIP3    H238429   0.309   2.413   0.808 -0.9417  0.1234 -1.5219
 5624TIP3   OH238430   5.238   6.014   1.916  0.5855 -0.6189 -0.2125
 5624TIP3    H138431   5.182   6.064   1.856 -0.3822 -2.6922 -1.1189
 5624TIP3    H238432   5.199   6.027   2.002  0.7806  0.7325 -0.3059
 5625TIP3   OH238433   0.155   2.051   2.024  0.0738  0.7832 -0.5895
 5625TIP3    H138434   0.171   2.096   2.107  1.7852 -0.8355  0.0365
 5625TIP3    H238435   0.211   2.096   1.961  1.5178 -0.1483 -0.0392
 5626TIP3   OH238436   1.564   2.564   2.708  0.4494 -0.5279 -0.0663
 5626TIP3    H138437   1.595   2.601   2.790 -0.4954 -0.3773  0.2351
 5626TIP3    H238438   1.529   2.478   2.732 -0.7584 -0.0662 -0.1254
 5627TIP3   OH238439   6.509   3.697   1.982  0.4727 -0.1743  0.1085
 5627TIP3    H138440   6.540   3.730   2.066 -2.3001  0.9136  0.8009
 5627TIP3    H238441   6.463   3.770   1.942  0.3824 -1.1361 -1.6707
 5628TIP3   OH238442   5.867   0.581   8.556  0.1145 -0.4815  0.3565
 5628TIP3    H138443   5.862   0.664   8.605 -3.4343 -1.0756  1.3239
 5628TIP3    H238444   5.813   0.597   8.478  0.6793 -1.4231 -0.2320
 5629TIP3   OH238445   3.052   0.930   7.912  0.3657 -0.2287  0.3480
 5629TIP3    H138446   3.016   1.001   7.964 -0.4736 -0.6352  0.3300
 5629TIP3    H238447   3.067   0.968   7.826 -0.8712 -0.2843  0.0953
 5630TIP3   OH238448   5.101   1.812   1.120  0.3055 -0.2033 -0.0200
 5630TIP3    H138449   5.103   1.797   1.025 -2.1941 -1.5143  0.0459
 5630TIP3    H238450   5.108   1.725   1.158 -0.9551  0.0657  0.8914
 5631TIP3   OH238451   4.446   2.225   8.306  0.2556  1.1875  0.8575
 5631TIP3    H138452   4.461   2.276   8.227  0.1227  0.4868  0.3723
 5631TIP3    H238453   4.353   2.203   8.303  0.6636 -0.6034  0.1153
 5632TIP3   OH238454   3.987   1.922   1.503  0.4291  0.3963  0.1558
 5632TIP3    H138455   4.009   1.979   1.577  1.1775 -1.1461  1.1693
 5632TIP3    H238456   4.050   1.946   1.435  0.1436  1.3948  0.2279
 5633TIP3   OH238457   6.097   0.268   8.343  0.7504 -0.2794  0.1387
 5633TIP3    H138458   6.158   0.195   8.332  1.0235  0.1008 -0.9570
 5633TIP3    H238459   6.012   0.234   8.316  0.9657 -0.0598 -0.8285
 5634TIP3   OH238460   1.552   0.581   1.326 -0.4287 -0.4701  0.8090
 5634TIP3    H138461   1.567   0.643   1.397 -0.8722 -0.2149  0.6834
 5634TIP3    H238462   1.573   0.495   1.364  0.8442 -0.1859  0.7813
 5635TIP3   OH238463   2.674   3.051   1.590  0.0827 -0.5290  0.0442
 5635TIP3    H138464   2.664   3.062   1.496  0.3730 -0.2361  0.0458
 5635TIP3    H238465   2.746   2.988   1.598  2.4073  1.9525  0.0858
 5636TIP3   OH238466   1.839   4.540   8.415 -0.2525  0.4037  0.1606
 5636TIP3    H138467   1.883   4.512   8.335 -1.5881 -0.6511 -0.2396
 5636TIP3    H238468   1.831   4.460   8.467 -2.2112  0.4027 -0.0549
 5637TIP3   OH238469   6.855   0.227   0.342  0.1903  0.7087 -0.1505
 5637TIP3    H138470   6.828   0.308   0.300 -0.4335  1.0669  0.8947
 5637TIP3    H238471   6.872   0.166   0.270  3.5841  2.5754 -1.1309
 5638TIP3   OH238472   4.359   1.314   8.391  0.1676 -0.1216 -0.4157
 5638TIP3    H138473   4.271   1.345   8.411  0.1241  0.5140 -1.5080
 5638TIP3    H238474   4.417   1.378   8.433  0.1096 -0.1204 -0.3360
 5639TIP3   OH238475   3.172   1.185   2.294 -0.2194 -0.1191  0.6748
 5639TIP3    H138476   3.267   1.197   2.286 -0.2221 -0.5539 -0.1305
 5639TIP3    H238477   3.152   1.212   2.384  0.4806  1.0851  0.4878
 5640TIP3   OH238478   4.912   1.549   8.242  0.1124 -0.2668  0.2017
 5640TIP3    H138479   4.964   1.629   8.237 -0.4429  0.0774 -0.2932
 5640TIP3    H238480   4.953   1.489   8.180 -1.4334  0.8367 -2.0602
 5641TIP3   OH238481   4.200   2.293   7.566  0.7295  0.2787 -0.1779
 5641TIP3    H138482   4.214   2.376   7.521  0.6558  0.9914  1.0438
 5641TIP3    H238483   4.136   2.246   7.513  1.6671  0.4787 -1.5181
 5642TIP3   OH238484   2.491   2.444   2.136  0.0495 -0.6979  0.3256
 5642TIP3    H138485   2.427   2.422   2.068  0.4263 -0.0616 -0.2419
 5642TIP3    H238486   2.550   2.368   2.138  0.6388 -0.2929 -0.7852
 5643TIP3   OH238487   2.708   2.023   8.152  0.1064 -0.6613 -0.4819
 5643TIP3    H138488   2.656   2.087   8.102  2.1623 -0.3038 -2.3602
 5643TIP3    H238489   2.666   2.019   8.237 -1.5827  1.3497 -1.1248
 5644TIP3   OH238490   2.511   3.789   2.415  0.6006  0.1456 -0.3768
 5644TIP3    H138491   2.480   3.812   2.503  1.5638  1.4567 -0.3438
 5644TIP3    H238492   2.601   3.758   2.429  0.8409  0.5891 -0.9073
 5645TIP3   OH238493   2.597   2.024   2.905 -0.3983 -0.0285 -0.1953
 5645TIP3    H138494   2.687   2.011   2.875 -0.2551  0.0697  0.1931
 5645TIP3    H238495   2.596   2.113   2.940 -0.4414 -0.3174  0.5354
 5646TIP3   OH238496   2.207   4.293   7.568 -0.2531 -0.2710  0.2883
 5646TIP3    H138497   2.164   4.327   7.490 -1.4160 -1.1430  0.5297
 5646TIP3    H238498   2.136   4.262   7.624  0.6373 -0.9812  1.0712
 5647TIP3   OH238499   6.387   1.648   0.618  0.8228 -0.1852  0.2554
 5647TIP3    H138500   6.412   1.729   0.664 -1.6341  0.3704  0.7421
 5647TIP3    H238501   6.326   1.605   0.677  0.2404 -1.2015 -1.0387
 5648TIP3   OH238502   2.950   4.172   7.738  0.3462  0.2894 -0.0128
 5648TIP3    H138503   3.027   4.151   7.684 -0.1834 -0.6991 -0.4062
 5648TIP3    H238504   2.920   4.257   7.705 -1.0500 -1.0913 -2.5919
 5649TIP3   OH238505   3.846   2.780   1.352  0.0047 -0.2670 -0.5099
 5649TIP3    H138506   3.786   2.784   1.278 -0.9482  1.0185  0.2859
 5649TIP3    H238507   3.857   2.686   1.369 -2.6038 -0.5702 -0.0716
 5650TIP3   OH238508   4.742   6.858   7.806 -0.6933  0.1849 -0.4585
 5650TIP3    H138509   4.686   6.857   7.883  2.2718 -0.0762  1.9154
 5650TIP3    H238510   4.787   6.943   7.811  1.3527 -0.8396 -0.3607
 5651TIP3   OH238511   5.975   5.697   0.246  0.0121  0.2188  0.1273
 5651TIP3    H138512   5.955   5.724   0.336 -1.7388  2.0129 -0.7091
 5651TIP3    H238513   6.068   5.677   0.247  0.2138  1.0130  2.1580
 5652TIP3   OH238514   6.062   2.175   7.841 -0.4462  0.0455 -0.1569
 5652TIP3    H138515   6.039   2.164   7.934 -0.1102 -1.4424 -0.2179
 5652TIP3    H238516   6.146   2.130   7.832 -0.4106  0.2970 -1.1683
 5653TIP3   OH238517   2.810   0.113   1.836  0.0591 -0.5979 -0.1476
 5653TIP3    H138518   2.797   0.032   1.885  0.8196  1.1347  3.2138
 5653TIP3    H238519   2.905   0.123   1.831 -0.0294  0.0934 -0.5286
 5654TIP3   OH238520   5.795   6.480   1.448  0.3583 -0.0625  0.3856
 5654TIP3    H138521   5.853   6.552   1.474 -0.5492  0.8809 -0.0943
 5654TIP3    H238522   5.707   6.515   1.460 -0.1213 -0.1745 -2.1651
 5655TIP3   OH238523   2.148   5.865   7.572 -0.0578 -0.4391  0.1907
 5655TIP3    H138524   2.227   5.880   7.625 -0.6605  1.5368  0.6145
 5655TIP3    H238525   2.139   5.770   7.570  2.4800 -0.7564 -0.0976
 5656TIP3   OH238526   0.931   4.725   7.834 -0.4783  0.3052  0.4247
 5656TIP3    H138527   0.850   4.726   7.885  0.1526  1.3615  1.4819
 5656TIP3    H238528   0.923   4.649   7.777 -2.7054  1.0633 -0.3532
 5657TIP3   OH238529   4.287   1.307   3.047  0.4875  0.3571 -0.3732
 5657TIP3    H138530   4.210   1.254   3.065  1.3478 -0.9510 -0.4405
 5657TIP3    H238531   4.259   1.397   3.065 -0.2445 -0.3245  2.3225
 5658TIP3   OH238532   5.908   0.343   0.449 -0.6012 -0.0507 -0.5404
 5658TIP3    H138533   5.891   0.283   0.376 -0.9573 -1.2562  0.4884
 5658TIP3    H238534   5.961   0.291   0.510  0.6690  1.2985 -0.4299
 5659TIP3   OH238535   5.157   2.601   2.048 -0.6661  0.1942  0.1202
 5659TIP3    H138536   5.201   2.519   2.066 -1.6051 -0.1099  1.1337
 5659TIP3    H238537   5.142   2.640   2.134  0.9707  2.1058 -0.3946
 5660TIP3   OH238538   2.918   3.307   8.561  0.1227  0.3591  0.0245
 5660TIP3    H138539   2.852   3.285   8.626 -0.9135  2.9617 -0.0361
 5660TIP3    H238540   3.000   3.313   8.610 -0.2253  0.0613  0.6527
 5661TIP3   OH238541   5.391   4.382   2.667  0.2131  1.0535  0.5887
 5661TIP3    H138542   5.298   4.380   2.691  0.3435 -0.9806  1.1515
 5661TIP3    H238543   5.430   4.315   2.722  2.1115  2.1341  0.6250
 5662TIP3   OH238544   2.524   5.075   0.469 -0.0465  0.3004 -0.5171
 5662TIP3    H138545   2.579   5.125   0.529  1.3461 -0.4902 -1.0922
 5662TIP3    H238546   2.560   4.986   0.472 -0.9938 -0.1261 -1.2898
 5663TIP3   OH238547   2.077   1.471   2.191  0.3235 -0.6525  0.7155
 5663TIP3    H138548   2.004   1.513   2.146  0.1743 -0.8002  0.8208
 5663TIP3    H238549   2.049   1.465   2.283  0.4077 -0.8415  0.7297
 5664TIP3   OH238550   6.125   5.493   0.697 -1.0179 -0.1101 -0.8594
 5664TIP3    H138551   6.196   5.542   0.656  0.4895 -1.6122 -0.1373
 5664TIP3    H238552   6.129   5.406   0.658 -0.0937 -1.3145  1.6922
 5665TIP3   OH238553   5.584   4.390   1.623 -0.3645 -0.0156  0.2266
 5665TIP3    H138554   5.572   4.459   1.688  1.3999  0.4588  0.1157
 5665TIP3    H238555   5.500   4.346   1.617 -0.9811  0.9244  1.6943
 5666TIP3   OH238556   5.844   2.343   1.176  0.2626 -0.0655 -0.1447
 5666TIP3    H138557   5.784   2.399   1.126 -0.9160 -0.5707  0.6542
 5666TIP3    H238558   5.875   2.399   1.248 -1.0656 -0.4624  0.7660
 5667TIP3   OH238559   3.873   1.539   7.454  0.2169 -0.0898  0.3695
 5667TIP3    H138560   3.875   1.633   7.436  1.2736 -0.0585  0.5972
 5667TIP3    H238561   3.931   1.500   7.389 -0.0034 -0.5551  0.4432
 5668TIP3   OH238562   6.848   3.807   8.481  0.3486 -0.4705  0.3889
 5668TIP3    H138563   6.899   3.779   8.405 -0.9457 -0.1985 -0.6218
 5668TIP3    H238564   6.758   3.809   8.450 -0.2085 -0.2187  1.9103
 5669TIP3   OH238565   6.010   0.054   2.801  0.3286 -0.6321  0.1837
 5669TIP3    H138566   6.005   0.034   2.707  2.9119 -0.0461 -0.1541
 5669TIP3    H238567   5.924   0.029   2.835 -0.4523 -1.5249 -2.1985
 5670TIP3   OH238568   5.472   2.630   0.661  0.0240 -0.4248  0.0300
 5670TIP3    H138569   5.453   2.724   0.659  0.6356 -0.2268  1.6011
 5670TIP3    H238570   5.413   2.591   0.597  0.1598  1.0954 -1.0614
 5671TIP3   OH238571   5.046   6.565   7.097  0.4911 -0.5862 -0.3441
 5671TIP3    H138572   5.083   6.638   7.048 -1.9236  1.7468  1.0457
 5671TIP3    H238573   4.953   6.566   7.076 -0.4307 -0.3339  3.1078
 5672TIP3   OH238574   5.715   5.085   8.082 -0.4878  0.2297 -0.0645
 5672TIP3    H138575   5.645   5.148   8.067  0.6098  1.6529  0.5071
 5672TIP3    H238576   5.736   5.051   7.995 -0.1398  1.7640 -0.6217
 5673TIP3   OH238577   0.220   6.876   1.285  0.0734 -0.1143 -0.0814
 5673TIP3    H138578   0.205   6.782   1.271 -0.6252 -0.1589  0.8729
 5673TIP3    H238579   0.288   6.879   1.352  2.5202  0.0969 -2.4079
 5674TIP3   OH238580   1.582   2.772   7.255 -0.1579 -0.2969  1.1910
 5674TIP3    H138581   1.501   2.762   7.305  0.4219  1.2291  2.5274
 5674TIP3    H238582   1.558   2.826   7.180 -0.6740 -1.1244  0.7519
 5675TIP3   OH238583   4.775   3.162   8.294 -0.0490  0.9440 -0.9693
 5675TIP3    H138584   4.769   3.068   8.277  0.0097  0.7962 -0.2015
 5675TIP3    H238585   4.694   3.198   8.257 -1.8649  0.1080  1.8421
 5676TIP3   OH238586   6.127   3.287   8.614 -0.2870 -0.3780  0.1180
 5676TIP3    H138587   6.057   3.347   8.638 -0.3867 -0.8047  0.9119
 5676TIP3    H238588   6.092   3.238   8.539 -0.7443 -0.4200  0.3569
 5677TIP3   OH238589   4.551   3.462   8.417 -0.6894  0.1474  0.3314
 5677TIP3    H138590   4.472   3.452   8.471  0.6017  1.7505  2.7089
 5677TIP3    H238591   4.623   3.460   8.481  1.1235 -0.0076 -1.6221
 5678TIP3   OH238592   3.375   1.612   2.104 -0.1803 -0.4761  0.4677
 5678TIP3    H138593   3.436   1.629   2.032  0.3669 -2.3439  0.4436
 5678TIP3    H238594   3.429   1.571   2.172 -1.1160 -0.7966  1.0376
 5679TIP3   OH238595   1.007   0.228   7.281  0.3022  0.2142  0.0224
 5679TIP3    H138596   0.931   0.170   7.287 -0.5775  1.4791  2.9598
 5679TIP3    H238597   1.083   0.171   7.290 -0.2642 -0.9496 -1.9384
 5680TIP3   OH238598   5.888   6.802   7.732 -0.5458  0.0541 -0.7433
 5680TIP3    H138599   5.867   6.787   7.640 -1.2208 -0.7573 -0.4758
 5680TIP3    H238600   5.974   6.844   7.731  0.6257 -2.2060 -1.6593
 5681TIP3   OH238601   4.100   1.449   7.259 -0.1804  0.1868 -0.0296
 5681TIP3    H138602   4.014   1.406   7.256  0.5047 -1.4387  1.4848
 5681TIP3    H238603   4.162   1.377   7.246  0.9937  1.5030 -2.3479
 5682TIP3   OH238604   3.315   2.798   0.516  0.2281 -0.0212 -0.3694
 5682TIP3    H138605   3.250   2.728   0.528  0.2288  0.1232  0.5213
 5682TIP3    H238606   3.276   2.856   0.451 -0.7722  0.3455  0.5488
 5683TIP3   OH238607   4.427   1.004   2.615 -0.3401  0.6413 -0.0573
 5683TIP3    H138608   4.496   1.043   2.561 -0.1558  1.7628  0.9418
 5683TIP3    H238609   4.367   1.076   2.632 -0.5564  0.2475  0.9560
 5684TIP3   OH238610   6.408   3.277   7.755 -0.1627 -0.4253  0.2156
 5684TIP3    H138611   6.361   3.320   7.826 -0.8090 -0.2094 -0.3225
 5684TIP3    H238612   6.499   3.276   7.783 -0.3729 -0.1383  0.9393
 5685TIP3   OH238613   3.612   1.624   8.324  0.1855  0.4600 -0.3539
 5685TIP3    H138614   3.528   1.643   8.281 -0.5021 -1.3555  0.1303
 5685TIP3    H238615   3.677   1.652   8.260 -0.8027 -0.4417 -1.8191
 5686TIP3   OH238616   3.452   0.989   0.757 -0.2432 -0.3640  0.3002
 5686TIP3    H138617   3.524   1.041   0.720 -0.1531 -1.7612 -1.5860
 5686TIP3    H238618   3.479   0.898   0.745 -0.7690 -0.9372  2.7996
 5687TIP3   OH238619   3.878   2.104   0.924  0.0638 -0.6985  0.4521
 5687TIP3    H138620   3.877   2.028   0.866  0.4182  1.3039 -2.4154
 5687TIP3    H238621   3.963   2.098   0.970  1.0300 -0.9971 -1.2886
 5688TIP3   OH238622   4.229   0.978   2.882  0.1846  0.0294  0.0628
 5688TIP3    H138623   4.183   1.007   2.804  0.7715  1.6713  0.2979
 5688TIP3    H238624   4.159   0.959   2.945 -0.2585 -0.6178 -0.5969
 5689TIP3   OH238625   2.428   2.410   1.674 -0.3965 -0.0401  0.2647
 5689TIP3    H138626   2.482   2.340   1.710  1.1769  0.4546 -1.0220
 5689TIP3    H238627   2.387   2.450   1.751  0.5896 -0.8129  1.2292
 5690TIP3   OH238628   0.133   6.167   7.234  0.3496 -0.0175  0.1057
 5690TIP3    H138629   0.070   6.227   7.194 -1.2389 -0.0419  2.3896
 5690TIP3    H238630   0.093   6.080   7.224 -0.7312  0.0976  2.6790
 5691TIP3   OH238631   4.110   1.441   6.649  0.4020  0.0162 -1.0221
 5691TIP3    H138632   4.175   1.396   6.703  0.7657 -0.6824 -2.0308
 5691TIP3    H238633   4.124   1.534   6.668 -0.0824 -0.2363  0.7611
 5692TIP3   OH238634   1.655   3.686   0.589  0.4144 -0.0854 -0.3967
 5692TIP3    H138635   1.705   3.763   0.562  0.9421  0.1646  1.1712
 5692TIP3    H238636   1.680   3.618   0.526  1.2960  0.5467 -0.7510
 5693TIP3   OH238637   4.088   5.035   1.153 -0.4081  0.8993 -0.3896
 5693TIP3    H138638   4.031   4.961   1.175 -0.1027  0.7608 -0.0422
 5693TIP3    H238639   4.059   5.105   1.211  1.3700  0.0945  1.6295
 5694TIP3   OH238640   6.187   6.738   1.799  0.1959 -0.0262 -0.4569
 5694TIP3    H138641   6.190   6.645   1.776 -0.4944 -0.0994 -0.2647
 5694TIP3    H238642   6.180   6.783   1.714  0.3230 -0.1569 -0.5374
 5695TIP3   OH238643   3.891   5.281   0.963 -0.3101  0.1388  0.5084
 5695TIP3    H138644   3.932   5.290   1.049 -1.0557 -1.2566  1.0477
 5695TIP3    H238645   3.949   5.329   0.903  1.3606 -0.6008  1.4578
 5696TIP3   OH238646   4.108   2.138   0.346 -0.8469  0.2617  0.6273
 5696TIP3    H138647   4.142   2.050   0.327  0.3974  1.1089 -1.3961
 5696TIP3    H238648   4.015   2.133   0.324 -0.4790 -0.1889 -0.9475
 5697TIP3   OH238649   2.592   5.193   1.237 -0.6818 -0.7329  0.1961
 5697TIP3    H138650   2.565   5.211   1.327 -1.4894 -0.8753 -0.0093
 5697TIP3    H238651   2.645   5.113   1.243 -0.8686 -0.8341  0.5241
 5698TIP3   OH238652   5.064   6.165   1.766  0.4271 -0.0849  0.3578
 5698TIP3    H138653   5.019   6.146   1.683 -0.0926 -1.5244  0.9295
 5698TIP3    H238654   5.083   6.259   1.762  1.1507 -0.2671 -1.7370
 5699TIP3   OH238655   4.054   3.377   8.304 -0.1030 -0.9601 -0.0129
 5699TIP3    H138656   4.104   3.364   8.224 -0.8154  0.1661 -0.6649
 5699TIP3    H238657   3.971   3.416   8.275 -0.6877 -1.2430  1.1994
 5700TIP3   OH238658   3.604   0.532   1.831  0.1326  0.3123  0.0181
 5700TIP3    H138659   3.637   0.617   1.804 -1.7994  1.2629  0.4371
 5700TIP3    H238660   3.585   0.542   1.925  0.1180 -0.6579  0.1307
 5701TIP3   OH238661   3.954   3.242   1.586 -0.0889  0.0756 -0.6986
 5701TIP3    H138662   3.874   3.245   1.638 -0.2289  1.4294 -0.9677
 5701TIP3    H238663   4.020   3.207   1.647 -0.9693 -1.6401 -0.6547
 5702TIP3   OH238664   0.286   1.528   8.193  0.4314 -0.6681  0.1057
 5702TIP3    H138665   0.320   1.441   8.170  0.1382 -0.2621 -2.0913
 5702TIP3    H238666   0.194   1.526   8.166  0.9557  0.9673 -2.1218
 5703TIP3   OH238667   6.379   5.654   0.983 -1.0187  0.2770 -0.5326
 5703TIP3    H138668   6.314   5.715   0.947 -1.1870  1.4301  1.5810
 5703TIP3    H238669   6.340   5.621   1.064  0.5875  0.2118  0.2631
 5704TIP3   OH238670   0.056   6.114   6.909 -0.4683 -0.3152  0.4183
 5704TIP3    H138671   0.055   6.209   6.898  0.2001 -0.3586 -0.1025
 5704TIP3    H238672  -0.013   6.097   6.973 -1.1144  0.4409 -0.0488
 5705TIP3   OH238673   5.085   4.947   1.885 -0.2932  0.1455  0.0810
 5705TIP3    H138674   5.074   4.864   1.932 -0.9377 -0.2640 -0.7533
 5705TIP3    H238675   5.078   4.923   1.793 -3.2519  1.4472 -0.1632
 5706TIP3   OH238676   4.311   3.946   0.375  0.5158 -0.0395 -0.2430
 5706TIP3    H138677   4.390   3.949   0.320  0.9981  0.3775  0.4621
 5706TIP3    H238678   4.344   3.948   0.465 -0.1947 -2.2520  0.1312
 5707TIP3   OH238679   4.591   1.624   7.643  0.1415 -0.5794 -0.1869
 5707TIP3    H138680   4.560   1.558   7.581 -0.7840  0.2519 -0.6326
 5707TIP3    H238681   4.537   1.701   7.626  1.1209  0.2711  0.4044
 5708TIP3   OH238682   1.415   0.914   1.128 -0.0675 -0.1674  0.1913
 5708TIP3    H138683   1.408   0.824   1.096 -3.1858  0.2510 -0.6819
 5708TIP3    H238684   1.423   0.906   1.223 -3.5129 -1.4582  0.5015
 5709TIP3   OH238685   2.439   0.969   0.218  0.3979 -0.1271 -0.1835
 5709TIP3    H138686   2.402   0.953   0.131 -0.2149 -0.3636  0.1197
 5709TIP3    H238687   2.447   0.883   0.258  0.2923  0.0179  0.1551
 5710TIP3   OH238688   3.349   1.386   2.781  0.1739  0.3275 -0.2172
 5710TIP3    H138689   3.303   1.449   2.836 -0.4659  1.9290 -2.4535
 5710TIP3    H238690   3.309   1.395   2.694  1.6310 -1.5380 -1.1685
 5711TIP3   OH238691   2.820   1.384   2.187  0.1134  0.7324  0.2105
 5711TIP3    H138692   2.914   1.375   2.171  0.6431  1.3240  2.6670
 5711TIP3    H238693   2.814   1.428   2.272 -2.3987  1.5037 -0.3037
 5712TIP3   OH238694   2.249   1.483   6.706  0.2241 -0.2709 -0.1948
 5712TIP3    H138695   2.243   1.569   6.749 -0.1270  0.6991 -2.0907
 5712TIP3    H238696   2.162   1.468   6.670 -0.0083 -1.9372  0.9601
 5713TIP3   OH238697   6.568   1.498   8.577  0.0405 -0.4295  0.2793
 5713TIP3    H138698   6.602   1.531   8.494  1.2567  1.1202  1.3323
 5713TIP3    H238699   6.479   1.533   8.582  0.9897  2.1411  0.9545
 5714TIP3   OH238700   4.766   0.667   1.978  0.0714  0.0132 -0.0017
 5714TIP3    H138701   4.686   0.719   1.979  0.3964  0.5223  0.5675
 5714TIP3    H238702   4.787   0.656   1.886  0.3079  1.4179 -0.1416
 5715TIP3   OH238703   0.800   3.367   1.485 -0.5535 -0.1069  0.5521
 5715TIP3    H138704   0.711   3.388   1.512 -0.5820  1.2660 -0.4722
 5715TIP3    H238705   0.835   3.313   1.555 -2.8568 -2.4599  0.0375
 5716TIP3   OH238706   1.628   3.598   1.695 -0.5807 -0.0090  0.0450
 5716TIP3    H138707   1.554   3.537   1.699 -0.9735  0.5155  1.6738
 5716TIP3    H238708   1.594   3.679   1.731  0.1945  0.9280 -1.2552
 5717TIP3   OH238709   2.125   1.540   1.305  0.0130  0.3861 -0.1246
 5717TIP3    H138710   2.038   1.500   1.302 -0.9261  2.1509  1.6664
 5717TIP3    H238711   2.159   1.517   1.392  0.0751  2.1396  0.3432
 5718TIP3   OH238712   5.083   2.998   0.461 -0.0149 -0.0527 -0.8256
 5718TIP3    H138713   5.005   3.052   0.444  0.2578  0.6557  0.0774
 5718TIP3    H238714   5.093   3.002   0.556 -0.2545 -2.1028 -0.6819
 5719TIP3   OH238715   6.329   4.527   0.284  0.4155 -0.3485  0.2242
 5719TIP3    H138716   6.287   4.612   0.293  2.4835  0.8159 -0.4938
 5719TIP3    H238717   6.267   4.475   0.233 -0.4001  1.0860 -0.3028
 5720TIP3   OH238718   2.715   4.698   2.032  0.3229  0.0988 -0.5740
 5720TIP3    H138719   2.655   4.746   1.975  0.0072 -0.4280 -0.6871
 5720TIP3    H238720   2.724   4.754   2.110  0.6985  0.7895 -1.0984
 5721TIP3   OH238721   2.364   2.329   0.353 -0.0348 -0.2260  0.9841
 5721TIP3    H138722   2.454   2.313   0.324 -1.1152 -1.7246 -1.9489
 5721TIP3    H238723   2.338   2.410   0.309 -0.9570 -1.3030 -0.5698
 5722TIP3   OH238724   1.293   4.596   1.513  0.4464 -0.3156  0.1955
 5722TIP3    H138725   1.341   4.516   1.490  0.5005 -0.6872  1.5053
 5722TIP3    H238726   1.362   4.658   1.537  0.3399 -0.3837  0.6840
 5723TIP3   OH238727   5.684   6.125   1.601 -0.3451 -0.8079  0.2005
 5723TIP3    H138728   5.716   6.204   1.558 -1.0130  0.1161  1.3301
 5723TIP3    H238729   5.761   6.068   1.607  0.1725 -0.2058 -0.5515
 5724TIP3   OH238730   4.763   5.166   2.789  0.0777 -0.7548 -0.2672
 5724TIP3    H138731   4.790   5.087   2.837 -1.2098  0.1299  2.0808
 5724TIP3    H238732   4.668   5.163   2.790 -0.0162 -0.6356 -2.8235
 5725TIP3   OH238733   0.151   1.127   1.660 -0.1634 -0.3746  0.0096
 5725TIP3    H138734   0.109   1.211   1.642 -0.2153 -0.3457  0.2693
 5725TIP3    H238735   0.094   1.062   1.619 -0.3536 -0.3189  0.1857
 5726TIP3   OH238736   6.797   4.446   2.442  0.0334  0.2991  0.4812
 5726TIP3    H138737   6.714   4.398   2.442  0.7051 -0.9311 -0.3540
 5726TIP3    H238738   6.852   4.397   2.503  1.0470 -0.6319 -1.1127
 5727TIP3   OH238739   6.153   5.662   7.962 -0.3554  0.1528  0.2122
 5727TIP3    H138740   6.152   5.634   8.053 -1.8888  0.6542  0.3746
 5727TIP3    H238741   6.128   5.585   7.912 -0.7789  0.2143  0.3285
 5728TIP3   OH238742   3.096   2.028   7.322  0.4335 -0.1884  0.1585
 5728TIP3    H138743   3.165   2.078   7.365 -1.0630 -0.0489  2.6148
 5728TIP3    H238744   3.044   2.093   7.276  1.7579 -0.2728 -1.5392
 5729TIP3   OH238745   6.259   5.690   0.365 -0.5738 -0.0827  0.6322
 5729TIP3    H138746   6.288   5.734   0.445  0.1975 -1.1512  0.9621
 5729TIP3    H238747   6.310   5.730   0.295 -1.2932  0.8990  0.6508
 5730TIP3   OH238748   1.845   5.862   8.214  0.1173  0.3793 -0.4236
 5730TIP3    H138749   1.896   5.860   8.295  1.3755 -0.8893 -1.2098
 5730TIP3    H238750   1.777   5.795   8.227  0.1612  0.3533 -0.3272
 5731TIP3   OH238751   5.914   1.178   0.506 -0.3825  0.3320 -0.3785
 5731TIP3    H138752   5.845   1.170   0.440 -1.5481 -0.9877  0.9318
 5731TIP3    H238753   5.973   1.105   0.487 -1.6410 -1.1149  1.0091
 5732TIP3   OH238754   4.204   1.051   0.112  0.3467 -0.6008 -0.2222
 5732TIP3    H138755   4.296   1.072   0.127  1.0609 -2.4889 -1.5215
 5732TIP3    H238756   4.203   1.005   0.027 -1.7759 -0.7215 -0.1952
 5733TIP3   OH238757   6.525   4.186   1.206 -0.0172  0.2406 -0.4271
 5733TIP3    H138758   6.538   4.106   1.154 -0.9713  0.2829 -0.7462
 5733TIP3    H238759   6.437   4.178   1.242  0.2188  0.7359  0.2802
 5734TIP3   OH238760   3.455   4.024   1.517  0.2918 -0.2444 -0.9137
 5734TIP3    H138761   3.476   3.932   1.533 -0.5732 -0.6013 -1.7320
 5734TIP3    H238762   3.518   4.052   1.451  1.0871  0.0104 -0.0833
 5735TIP3   OH238763   3.359   0.535   0.075 -0.3850  0.1790  0.8368
 5735TIP3    H138764   3.441   0.572   0.108  0.8308  1.6781 -3.2795
 5735TIP3    H238765   3.385   0.456   0.028 -1.4480  0.0609  0.4242
 5736TIP3   OH238766   1.463   3.611   7.454 -0.3983  0.4419  0.2460
 5736TIP3    H138767   1.501   3.618   7.366  2.0169  4.1934  1.3313
 5736TIP3    H238768   1.456   3.517   7.469  2.1583 -0.4321 -2.7453
 5737TIP3   OH238769   5.740   0.192   0.208 -0.5957 -0.2487  0.0419
 5737TIP3    H138770   5.710   0.282   0.204  1.5553  0.5974  1.2933
 5737TIP3    H238771   5.695   0.155   0.285  2.0668  1.3431  2.5948
 5738TIP3   OH238772   0.880   2.617   1.986 -0.1556  0.0084 -0.0836
 5738TIP3    H138773   0.839   2.568   2.058  0.5295 -0.7441 -0.1988
 5738TIP3    H238774   0.973   2.599   1.995 -0.1690 -1.1506 -1.9243
 5739TIP3   OH238775   5.824   1.721   0.409 -0.4188  0.2102  0.1850
 5739TIP3    H138776   5.767   1.713   0.333 -0.6553  2.0509  0.1199
 5739TIP3    H238777   5.833   1.632   0.443 -2.3555 -0.2887 -0.5034
 5740TIP3   OH238778   0.522   2.322   2.041 -0.0064 -0.3856 -0.1144
 5740TIP3    H138779   0.473   2.272   2.107 -0.3762  0.7126  0.4620
 5740TIP3    H238780   0.462   2.327   1.967 -0.7980  0.9251  0.5771
 5741TIP3   OH238781   1.702   6.763   7.364 -0.7126  0.2479  0.1490
 5741TIP3    H138782   1.636   6.694   7.375 -0.8052  0.3561  0.2808
 5741TIP3    H238783   1.674   6.832   7.424 -0.1429  0.0465  0.6502
 5742TIP3   OH238784   6.750   2.566   1.109  0.2983 -0.0765  0.0153
 5742TIP3    H138785   6.801   2.632   1.063  0.6308 -0.0586  0.4076
 5742TIP3    H238786   6.724   2.503   1.041 -1.4272  1.3070 -0.6888
 5743TIP3   OH238787   4.941   6.092   1.543  0.1994 -0.6512  0.3791
 5743TIP3    H138788   4.853   6.127   1.557  0.0054 -0.7845 -0.4470
 5743TIP3    H238789   4.959   6.109   1.450  1.4614  0.3007  0.7625
 5744TIP3   OH238790   5.944   4.897   8.157 -0.3531 -0.4464  0.0254
 5744TIP3    H138791   5.960   4.898   8.251  0.2479 -1.4421 -0.0631
 5744TIP3    H238792   5.850   4.917   8.149  0.1373  2.7234  0.6647
 5745TIP3   OH238793   3.086   0.076   1.914  0.4752 -0.0690 -1.1398
 5745TIP3    H138794   3.101  -0.018   1.906 -0.8695 -0.7259  2.1642
 5745TIP3    H238795   3.154   0.107   1.974 -1.1313  0.2405  0.6464
 5746TIP3   OH238796   1.234   5.059   0.845 -0.5314 -0.4496  0.0903
 5746TIP3    H138797   1.177   5.088   0.916  0.3759  1.0408  0.2605
 5746TIP3    H238798   1.276   4.980   0.879 -1.5929 -0.8989  0.4074
 5747TIP3   OH238799   1.804   3.002   1.239  0.2814 -0.4471 -0.1967
 5747TIP3    H138800   1.835   3.043   1.320  0.2982 -2.9526  1.1788
 5747TIP3    H238801   1.882   2.990   1.186  0.9690 -2.3066  1.1508
 5748TIP3   OH238802   3.150   3.168   0.226 -0.0557 -0.2594 -0.4246
 5748TIP3    H138803   3.189   3.127   0.149  0.8849 -1.7866  0.8006
 5748TIP3    H238804   3.216   3.231   0.255  0.6909 -1.3841  0.4549
 5749TIP3   OH238805   0.085   2.957   7.239 -0.2866  0.3607  0.0777
 5749TIP3    H138806   0.162   2.967   7.182 -0.2473  0.0471  0.0728
 5749TIP3    H238807   0.077   3.041   7.283 -0.1999  0.5411 -0.2476
 5750TIP3   OH238808   5.532   1.752   7.213  0.6814 -0.0249  0.0480
 5750TIP3    H138809   5.555   1.779   7.302  2.3121  1.4760 -0.7609
 5750TIP3    H238810   5.613   1.762   7.163  0.2390 -2.4605 -1.2891
 5751TIP3   OH238811   6.291   1.217   1.667  0.4715 -0.4879  0.5428
 5751TIP3    H138812   6.248   1.277   1.607  0.2082 -0.9948  0.2174
 5751TIP3    H238813   6.223   1.192   1.729  0.8677  0.4290  1.3823
 5752TIP3   OH238814   2.841   5.553   7.803 -1.0549 -0.2452 -0.0231
 5752TIP3    H138815   2.802   5.565   7.716 -0.2144 -0.2827 -0.4135
 5752TIP3    H238816   2.866   5.642   7.830  2.6357 -0.5712 -1.7217
 5753TIP3   OH238817   0.946   2.619   0.472  0.1304  0.0745 -0.3273
 5753TIP3    H138818   0.905   2.704   0.489  1.5196  1.1400 -1.9582
 5753TIP3    H238819   0.894   2.582   0.400 -1.0333 -0.9347  0.9684
 5754TIP3   OH238820   2.486   6.688   1.212 -0.1694  0.2000 -0.2907
 5754TIP3    H138821   2.418   6.658   1.152  0.7909 -1.5296 -0.5645
 5754TIP3    H238822   2.551   6.730   1.157  0.9909 -1.8899 -0.6206
 5755TIP3   OH238823   1.055   2.385   7.137  0.2199 -0.1490 -0.0808
 5755TIP3    H138824   0.969   2.425   7.124  0.9975  1.0843 -1.8764
 5755TIP3    H238825   1.094   2.382   7.049  1.4695 -2.0023  0.4586
 5756TIP3   OH238826   5.031   5.910   0.836  0.3168  0.0841 -0.1222
 5756TIP3    H138827   5.113   5.872   0.805  0.3609  0.9326 -1.0986
 5756TIP3    H238828   5.031   5.999   0.801 -1.1020  0.0414 -0.3002
 5757TIP3   OH238829   1.897   4.681   2.592 -0.8142  0.1251 -0.6675
 5757TIP3    H138830   1.874   4.770   2.616  0.8881  0.5753 -0.5886
 5757TIP3    H238831   1.923   4.640   2.675 -1.3990 -0.3891 -0.7344
 5758TIP3   OH238832   4.601   0.084   0.777 -0.0922  0.2637  0.3111
 5758TIP3    H138833   4.595  -0.001   0.734 -0.2458  0.7691 -0.7075
 5758TIP3    H238834   4.577   0.067   0.868 -1.4275 -0.5646 -0.1602
 5759TIP3   OH238835   4.559   2.781   0.595  0.2567  0.3420  0.0599
 5759TIP3    H138836   4.651   2.773   0.622 -0.1152 -3.5427  0.6397
 5759TIP3    H238837   4.549   2.717   0.525 -1.6345  2.0730 -1.3643
 5760TIP3   OH238838   5.030   1.312   8.115  0.0300  0.7007  0.7396
 5760TIP3    H138839   5.085   1.324   8.037 -1.2177  0.2229 -0.2417
 5760TIP3    H238840   5.021   1.218   8.123 -0.6592  0.7731  0.8690
 5761TIP3   OH238841   1.506   0.074   0.348 -0.0159  0.2038  0.0535
 5761TIP3    H138842   1.451   0.144   0.313 -0.4871 -0.6927 -1.0518
 5761TIP3    H238843   1.526   0.019   0.272 -0.8175 -1.6531  1.1213
 5762TIP3   OH238844   5.677   2.286   0.756 -0.4353 -0.5618 -0.3675
 5762TIP3    H138845   5.614   2.259   0.690 -0.5620 -0.6525 -0.2096
 5762TIP3    H238846   5.753   2.316   0.706  0.0453 -1.9927 -0.5376
 5763TIP3   OH238847   1.004   0.153   1.364  0.0954  0.0431 -0.0499
 5763TIP3    H138848   0.949   0.204   1.423  1.6185 -0.5521  2.0099
 5763TIP3    H238849   1.067   0.216   1.329  2.3503 -0.3363  2.9441
 5764TIP3   OH238850   5.623   6.322   8.239  0.1155 -0.1204  0.5506
 5764TIP3    H138851   5.618   6.353   8.148 -1.2124 -1.5819  0.0804
 5764TIP3    H238852   5.580   6.236   8.237  2.0555 -1.2049  2.1147
 5765TIP3   OH238853   6.178   4.844   1.561  0.3497 -0.0117  0.2449
 5765TIP3    H138854   6.100   4.814   1.515  0.6663 -0.1511 -0.2107
 5765TIP3    H238855   6.234   4.880   1.492  0.5136  0.4712  0.6189
 5766TIP3   OH238856   4.465   6.113   1.843 -0.1958  0.2196 -0.0993
 5766TIP3    H138857   4.404   6.060   1.893 -0.2781 -0.6508 -1.0770
 5766TIP3    H238858   4.476   6.193   1.895  1.3815 -1.4678  2.3596
 5767TIP3   OH238859   1.516   2.572   1.363  0.4112  0.3518  0.5246
 5767TIP3    H138860   1.573   2.631   1.312  0.4777  1.3640  1.7215
 5767TIP3    H238861   1.451   2.541   1.300  0.8294  1.1253 -0.3111
 5768TIP3   OH238862   6.484   6.726   0.713  0.7870 -0.6331 -0.4156
 5768TIP3    H138863   6.473   6.772   0.796  0.2385  1.3969 -1.5358
 5768TIP3    H238864   6.401   6.680   0.700  0.3418  0.1737 -0.4773
 5769TIP3   OH238865   3.248   1.747   0.769  0.6882  0.3248  0.3268
 5769TIP3    H138866   3.203   1.831   0.761  1.3254  0.6264 -0.2069
 5769TIP3    H238867   3.190   1.694   0.823  1.3093  1.8344  2.6377
 5770TIP3   OH238868   2.832   1.101   0.309  0.7691  0.3284 -0.2174
 5770TIP3    H138869   2.861   1.092   0.400  1.4334 -2.3939 -0.6318
 5770TIP3    H238870   2.893   1.164   0.271  1.4610  0.3106  0.8199
 5771TIP3   OH238871   5.138   0.061   8.604 -0.3050  0.4584  0.6415
 5771TIP3    H138872   5.116   0.112   8.526 -0.4129  2.3495  1.8446
 5771TIP3    H238873   5.053   0.035   8.640 -0.2829  0.5272  0.7403
 5772TIP3   OH238874   2.701   0.509   0.397  0.6043 -0.2043  0.2980
 5772TIP3    H138875   2.626   0.479   0.347 -0.0077 -1.0643  1.6797
 5772TIP3    H238876   2.668   0.581   0.450  1.2066  0.5790 -0.3398
 5773TIP3   OH238877   3.813   1.002   1.338  0.2879 -0.7088 -0.3778
 5773TIP3    H138878   3.744   0.955   1.385 -0.1301  0.3861  0.1534
 5773TIP3    H238879   3.778   1.015   1.250 -0.3726  0.1889  0.0037
 5774TIP3   OH238880   1.922   4.184   8.262  0.6596  0.8110 -0.6844
 5774TIP3    H138881   1.827   4.187   8.265  0.4086 -2.1056 -1.9901
 5774TIP3    H238882   1.946   4.122   8.332  1.3520 -0.4022 -1.9474
 5775TIP3   OH238883   6.185   6.881   7.973 -0.2409 -0.1161  0.0382
 5775TIP3    H138884   6.146   6.795   7.983 -0.4515 -0.0886 -0.5266
 5775TIP3    H238885   6.275   6.870   8.003 -0.3691 -0.4390  0.3160
 5776TIP3   OH238886   4.400   1.163   7.926 -0.1300  0.0787 -0.0941
 5776TIP3    H138887   4.491   1.186   7.943  0.3021 -0.9215 -0.9023
 5776TIP3    H238888   4.354   1.182   8.008  0.8562  0.3479  0.4076
 5777TIP3   OH238889   5.306   6.716   1.994  0.7874 -0.0076  0.3015
 5777TIP3    H138890   5.228   6.674   2.032  1.6008  0.0142  2.1123
 5777TIP3    H238891   5.362   6.644   1.967  0.4053 -0.0266 -0.4640
 5778TIP3   OH238892   4.881   2.517   1.446 -0.6059 -0.5164  0.3458
 5778TIP3    H138893   4.930   2.438   1.428  3.6831  1.6298  1.3649
 5778TIP3    H238894   4.855   2.550   1.360  0.7702 -1.1952 -0.3476
 5779TIP3   OH238895   0.303   4.039   7.713  0.5387 -0.0621 -0.3738
 5779TIP3    H138896   0.239   3.975   7.681 -0.2622  0.0727  0.8679
 5779TIP3    H238897   0.313   4.102   7.642 -3.6368  2.0748  0.6167
 5780TIP3   OH238898   4.587   6.754   1.593  0.3059  0.3617  0.4621
 5780TIP3    H138899   4.533   6.705   1.655 -0.5398 -2.5271 -2.2637
 5780TIP3    H238900   4.677   6.732   1.618  0.0541  0.4513  1.5149
 5781TIP3   OH238901   5.960   6.605   7.939  0.2922 -0.0498 -0.3620
 5781TIP3    H138902   5.945   6.678   7.879 -1.9448  1.2726  1.6456
 5781TIP3    H238903   5.914   6.531   7.899 -1.9878  1.0522  0.0730
 5782TIP3   OH238904   0.979   6.443   1.825 -0.5422 -0.1503  0.1652
 5782TIP3    H138905   0.932   6.520   1.794 -3.4914 -2.0130 -0.3938
 5782TIP3    H238906   1.006   6.466   1.914  0.9135  2.3547 -0.8203
 5783TIP3   OH238907   3.853   3.447   0.249  0.2850  0.5056 -0.4455
 5783TIP3    H138908   3.875   3.534   0.283 -0.4411  0.7030 -0.4563
 5783TIP3    H238909   3.805   3.405   0.321  0.3883  0.2240 -0.5429
 5784TIP3   OH238910   1.131   5.173   1.607  0.0491 -0.0064  0.3407
 5784TIP3    H138911   1.129   5.244   1.670 -1.6651  1.0908 -0.8488
 5784TIP3    H238912   1.080   5.103   1.649 -0.7475  0.5702  0.3661
 5785TIP3   OH238913   3.776   0.580   2.650 -0.4082  0.4964 -0.2530
 5785TIP3    H138914   3.703   0.536   2.694  1.1711 -2.6201 -0.4391
 5785TIP3    H238915   3.784   0.535   2.566  1.6145  0.8318 -0.2866
 5786TIP3   OH238916   2.031   1.910   6.693 -0.0800 -0.0794 -0.4163
 5786TIP3    H138917   2.112   1.870   6.661  0.8581  1.4042 -0.0237
 5786TIP3    H238918   2.033   1.999   6.658 -0.2004  0.8408  1.7180
 5787TIP3   OH238919   6.236   5.442   1.461  0.3199 -0.3263  0.9124
 5787TIP3    H138920   6.260   5.412   1.548 -0.0064 -1.4330  0.6327
 5787TIP3    H238921   6.154   5.396   1.441  1.4207 -1.6913 -0.7712
 5788TIP3   OH238922   2.358   6.360   1.145  0.0201 -0.5285  0.2843
 5788TIP3    H138923   2.438   6.382   1.097  0.0209  1.2092  1.0158
 5788TIP3    H238924   2.372   6.270   1.175  2.1769  0.0713  1.2736
 5789TIP3   OH238925   3.687   2.930   8.033 -0.3616  0.1869 -0.3056
 5789TIP3    H138926   3.618   2.979   8.077 -1.0944 -1.8533  0.9627
 5789TIP3    H238927   3.669   2.940   7.940 -1.4552  0.9549 -0.0293
 5790TIP3   OH238928   4.509   6.050   1.365  0.7647  0.2922  0.2084
 5790TIP3    H138929   4.499   6.115   1.434  0.4100 -0.5497  0.9758
 5790TIP3    H238930   4.481   5.968   1.405 -1.5088  0.1088 -1.5434
 5791TIP3   OH238931   6.045   4.936   1.093 -0.0289 -0.2456 -0.2715
 5791TIP3    H138932   6.006   5.000   1.034  0.1688  0.6438  0.5365
 5791TIP3    H238933   5.971   4.901   1.142  0.1035  1.2878  1.1134
 5792TIP3   OH238934   3.144   0.513   6.656  0.2425 -0.0172 -0.2529
 5792TIP3    H138935   3.193   0.431   6.652  0.3041  0.0668 -1.7121
 5792TIP3    H238936   3.159   0.545   6.745 -2.3432 -3.1181  1.4972
 5793TIP3   OH238937   2.021   0.877   2.909  0.2579 -0.2737 -0.6494
 5793TIP3    H138938   2.051   0.840   2.992  0.9503 -0.1598 -0.8503
 5793TIP3    H238939   1.928   0.852   2.905  0.2146 -0.2716  0.1586
 5794TIP3   OH238940   2.274   6.547   2.291 -0.3244 -0.2244 -0.1616
 5794TIP3    H138941   2.264   6.637   2.323  0.9239  0.5639 -1.8282
 5794TIP3    H238942   2.366   6.526   2.311 -0.6447 -1.2107  0.3405
 5795TIP3   OH238943   1.042   5.572   2.757 -0.2616  0.3144  0.1363
 5795TIP3    H138944   1.135   5.553   2.748 -0.4806  0.2386 -4.3004
 5795TIP3    H238945   1.002   5.488   2.779  0.5393 -0.0382  0.2641
 5796TIP3   OH238946   3.073   1.506   1.766 -0.1764  0.2597  0.1554
 5796TIP3    H138947   3.102   1.595   1.749  0.1257  0.0316 -0.5504
 5796TIP3    H238948   3.020   1.482   1.690 -0.8366  0.0756  0.6611
 5797TIP3   OH238949   0.186   2.781   7.660  0.1093  0.1767  0.1127
 5797TIP3    H138950   0.135   2.764   7.581 -0.9086 -0.4213  0.8767
 5797TIP3    H238951   0.197   2.876   7.662 -1.2044  0.3491  0.0582
 5798TIP3   OH238952   0.913   1.482   8.281  0.5501  0.0568  0.2571
 5798TIP3    H138953   0.936   1.572   8.302 -3.4411  1.4516 -0.5523
 5798TIP3    H238954   0.942   1.471   8.190 -0.7448  1.3366 -0.3547
 5799TIP3   OH238955   0.563   6.028   8.529  0.2905  0.2183 -0.1928
 5799TIP3    H138956   0.640   6.049   8.477 -0.0312  0.0993 -0.7289
 5799TIP3    H238957   0.547   5.935   8.511  0.2801  0.1299  0.2598
 5800TIP3   OH238958   5.536   1.396   2.091  0.4935  0.0829 -0.7712
 5800TIP3    H138959   5.590   1.431   2.020  2.3096 -1.3377 -0.1528
 5800TIP3    H238960   5.565   1.306   2.102  0.5745  0.3535  2.0249
 5801TIP3   OH238961   4.786   5.103   7.025 -0.7095 -0.3811 -0.2085
 5801TIP3    H138962   4.761   5.186   6.984  0.3104 -0.0064 -0.1023
 5801TIP3    H238963   4.790   5.123   7.118 -0.2366 -0.4795 -0.2044
 5802TIP3   OH238964   6.191   3.586   1.537  0.3626  0.6870  0.4539
 5802TIP3    H138965   6.264   3.559   1.593  1.4376  2.0586 -0.2404
 5802TIP3    H238966   6.209   3.678   1.517 -0.4722  0.4708 -1.4228
 5803TIP3   OH238967   3.443   0.536   0.874 -0.0801 -0.1423 -0.4059
 5803TIP3    H138968   3.434   0.444   0.847  2.3482 -1.1033  1.6474
 5803TIP3    H238969   3.369   0.551   0.933 -0.1700 -0.9655 -0.2993
 5804TIP3   OH238970   3.059   0.466   3.072 -0.0389  0.6584 -0.4346
 5804TIP3    H138971   3.109   0.468   3.154 -1.1667  1.5870  0.2613
 5804TIP3    H238972   3.122   0.436   3.006  0.4320 -1.9857  1.0593
 5805TIP3   OH238973   0.555   2.833   0.525 -0.1519  0.1008  0.0478
 5805TIP3    H138974   0.513   2.782   0.594  0.2357 -3.0238 -1.8032
 5805TIP3    H238975   0.484   2.880   0.482 -0.5777  0.9514  1.6011
 5806TIP3   OH238976   3.456   0.097   0.477  0.8585 -0.7166  0.1651
 5806TIP3    H138977   3.421   0.178   0.439 -2.0141 -1.7173  0.3891
 5806TIP3    H238978   3.533   0.125   0.526 -0.0360  1.8969  0.2698
 5807TIP3   OH238979   0.071   1.823   0.432 -0.5565  0.6341  0.0628
 5807TIP3    H138980   0.044   1.758   0.496 -0.8469  0.6810 -0.0089
 5807TIP3    H238981   0.147   1.866   0.471 -0.9903  0.9522  0.5669
 5808TIP3   OH238982   6.199   6.333   3.004  0.4988 -0.0836 -0.0249
 5808TIP3    H138983   6.204   6.241   2.981 -0.7604  0.5479 -3.4288
 5808TIP3    H238984   6.110   6.344   3.039 -0.5177  0.2619 -2.5091
 5809TIP3   OH238985   3.593   5.920   7.908  0.3525  0.0927 -0.2001
 5809TIP3    H138986   3.611   5.972   7.986  0.0801  2.3062 -1.5149
 5809TIP3    H238987   3.679   5.893   7.876  0.4508 -1.1666  1.0070
 5810TIP3   OH238988   0.227   1.395   1.064 -0.2963  0.6463 -0.5947
 5810TIP3    H138989   0.322   1.387   1.056 -0.3026 -0.5754  0.3520
 5810TIP3    H238990   0.201   1.324   1.122 -1.7145  1.4124 -0.2346
 5811TIP3   OH238991   1.325   2.505   1.117 -0.2333 -0.1271  0.2335
 5811TIP3    H138992   1.266   2.509   1.192  1.6326 -0.0003  1.7651
 5811TIP3    H238993   1.281   2.447   1.054 -1.5994 -0.6586  1.6225
 5812TIP3   OH238994   1.595   2.588   8.198  0.0705  0.4033 -0.3489
 5812TIP3    H138995   1.548   2.522   8.148 -1.1994  0.1477  1.1195
 5812TIP3    H238996   1.549   2.670   8.179  0.4046  0.5345 -0.6079
 5813TIP3   OH238997   5.428   6.657   6.878 -0.0170  0.3816 -0.1918
 5813TIP3    H138998   5.438   6.688   6.788 -1.2576  0.4607 -0.3258
 5813TIP3    H238999   5.517   6.636   6.907  0.4850  1.1045 -1.1633
 5814TIP3   OH239000   5.000   3.732   0.334 -0.3354 -0.1070 -0.4554
 5814TIP3    H139001   4.925   3.791   0.340  0.1800  0.3928  1.8613
 5814TIP3    H239002   5.072   3.780   0.373  1.6985  0.0172 -3.9343
 5815TIP3   OH239003   5.767   0.404   1.185 -0.1410  1.1869 -0.3947
 5815TIP3    H139004   5.679   0.443   1.189 -0.2345  0.8898  1.6326
 5815TIP3    H239005   5.751   0.309   1.180  0.1069  1.1946 -2.5526
 5816TIP3   OH239006   5.169   5.335   8.446 -0.0757  0.3933  0.3154
 5816TIP3    H139007   5.086   5.381   8.459  0.9450  2.6609 -0.5999
 5816TIP3    H239008   5.230   5.404   8.420  2.5261 -0.9040  2.5058
 5817TIP3   OH239009   2.988   2.301   0.281 -0.1329 -0.3003 -0.4217
 5817TIP3    H139010   3.010   2.310   0.188 -1.4220  1.2613 -0.6089
 5817TIP3    H239011   2.934   2.377   0.301  2.2630  0.8861  2.2911
 5818TIP3   OH239012   4.937   5.068   7.814  0.4716  0.0089  0.2767
 5818TIP3    H139013   4.963   5.112   7.894  0.3300 -0.7871  0.7696
 5818TIP3    H239014   4.998   4.995   7.805  0.0890 -0.2823 -0.0011
 5819TIP3   OH239015   4.352   3.456   8.043 -0.1464 -0.6342  0.2202
 5819TIP3    H139016   4.374   3.366   8.065  0.6394 -1.0379 -1.9599
 5819TIP3    H239017   4.429   3.506   8.070  0.9778 -1.1775 -1.7693
 5820TIP3   OH239018   5.607   0.315   1.965 -0.1745 -0.5609  0.1493
 5820TIP3    H139019   5.634   0.272   1.884 -0.3100  1.6455 -1.1323
 5820TIP3    H239020   5.689   0.330   2.012  0.0142 -0.8843 -0.0671
 5821TIP3   OH239021   1.160   0.937   2.751 -0.1523 -0.0767  0.2296
 5821TIP3    H139022   1.156   0.859   2.696  2.6246 -1.7449  2.1146
 5821TIP3    H239023   1.179   0.903   2.839 -1.2660  2.6292  1.6344
 5822TIP3   OH239024   4.660   6.333   1.112 -0.4196  0.1696  0.0017
 5822TIP3    H139025   4.717   6.276   1.061  1.6253  0.8756  1.3786
 5822TIP3    H239026   4.672   6.305   1.203 -1.4544  1.0418  0.4367
 5823TIP3   OH239027   6.083   1.381   0.581  0.2688 -0.0355 -0.3214
 5823TIP3    H139028   6.163   1.424   0.549 -0.5829  1.0290 -1.0828
 5823TIP3    H239029   6.083   1.296   0.537  0.6923  0.1896 -0.7674
 5824TIP3   OH239030   0.650   0.247   0.812 -0.1379 -0.3024 -0.8618
 5824TIP3    H139031   0.668   0.321   0.870 -1.9087 -0.0556 -0.5495
 5824TIP3    H239032   0.697   0.173   0.851 -1.1762 -0.1139  0.8562
 5825TIP3   OH239033   2.909   1.016   2.219  0.0722 -0.3950  0.1447
 5825TIP3    H139034   2.966   1.081   2.177 -1.9627  2.4873  1.4894
 5825TIP3    H239035   2.965   0.973   2.284  1.8641 -1.1752 -1.7908
 5826TIP3   OH239036   6.272   0.060   8.312 -0.3793  0.2477 -0.3948
 5826TIP3    H139037   6.226   0.034   8.392 -1.3608 -0.1450 -1.0668
 5826TIP3    H239038   6.363   0.038   8.328 -0.5110  0.4421  0.7252
 5827TIP3   OH239039   4.431   1.213   7.623 -0.5540  0.3337 -0.3840
 5827TIP3    H139040   4.497   1.144   7.624 -0.0517  0.7970 -0.6983
 5827TIP3    H239041   4.387   1.205   7.707  1.2349  1.2662  0.7095
 5828TIP3   OH239042   6.009   5.077   1.730 -0.2670 -0.6096  0.5104
 5828TIP3    H139043   6.005   5.059   1.636 -0.2842 -0.5670  0.5027
 5828TIP3    H239044   6.016   4.991   1.771 -0.2775 -0.6292  0.4709
 5829TIP3   OH239045   4.759   6.578   8.215  0.3593  0.0292 -0.7176
 5829TIP3    H139046   4.803   6.655   8.252 -0.7735  1.0969 -1.5163
 5829TIP3    H239047   4.773   6.509   8.280  1.0794  1.0055  0.2064
 5830TIP3   OH239048   1.516   3.289   7.358  0.1034  0.5101  0.7243
 5830TIP3    H139049   1.523   3.252   7.270 -1.8659  1.4369  0.1058
 5830TIP3    H239050   1.514   3.212   7.416  0.4239 -0.1524 -0.1234
 5831TIP3   OH239051   3.134   1.081   8.317  0.7393  0.2466 -0.0410
 5831TIP3    H139052   3.115   1.022   8.390 -1.4679 -0.5643 -1.1884
 5831TIP3    H239053   3.062   1.144   8.318  0.3611 -0.1228 -1.8355
 5832TIP3   OH239054   1.994   3.799   8.068 -1.0339  0.0951 -0.4559
 5832TIP3    H139055   1.988   3.827   7.976 -2.3514 -0.3079 -0.5102
 5832TIP3    H239056   2.075   3.748   8.072 -1.2449 -0.3496 -1.5284
 5833TIP3   OH239057   2.497   1.162   7.944 -0.0858 -0.0223 -0.0546
 5833TIP3    H139058   2.414   1.178   7.899 -0.2156  0.2702  0.2815
 5833TIP3    H239059   2.533   1.249   7.960  1.3547 -0.1676 -2.1252
 5834TIP3   OH239060   0.411   2.821   1.138  0.6617  0.2436 -0.0725
 5834TIP3    H139061   0.372   2.735   1.125  0.5230  0.3205 -0.1660
 5834TIP3    H239062   0.340   2.875   1.171  0.9054  0.1594  0.6100
 5835TIP3   OH239063   6.218   2.733   1.277 -0.0003  0.0310  0.7121
 5835TIP3    H139064   6.236   2.659   1.336 -0.6513 -1.0466 -0.3993
 5835TIP3    H239065   6.278   2.719   1.204 -0.4191  0.3805  0.3037
 5836TIP3   OH239066   5.282   0.891   8.569 -0.3498 -0.3643 -0.2872
 5836TIP3    H139067   5.258   0.980   8.593 -1.0043 -0.9062  1.2410
 5836TIP3    H239068   5.307   0.896   8.477  1.8772  1.8236  0.3206
 5837TIP3   OH239069   5.800   3.417   7.061  0.1408 -0.3326 -0.4228
 5837TIP3    H139070   5.858   3.439   7.134  0.2661 -1.7840 -0.0501
 5837TIP3    H239071   5.730   3.482   7.065 -0.3268 -0.8909  1.5639
 5838TIP3   OH239072   6.015   5.457   0.949  0.0790  0.0457  0.3513
 5838TIP3    H139073   6.078   5.469   0.878  0.0516 -0.1418  0.2947
 5838TIP3    H239074   5.952   5.393   0.915  0.3259 -0.3938  0.7056
 5839TIP3   OH239075   0.306   2.542   2.153 -0.2082  0.1714  0.3868
 5839TIP3    H139076   0.347   2.476   2.096  0.9234  0.5746  0.6926
 5839TIP3    H239077   0.218   2.509   2.169  0.0551 -0.8414 -0.1525
 5840TIP3   OH239078   4.247   0.533   1.403  0.4417 -0.3012 -0.3589
 5840TIP3    H139079   4.249   0.445   1.367  0.9392 -1.0534  1.4151
 5840TIP3    H239080   4.236   0.521   1.497 -3.8753  1.5865 -0.3442
 5841TIP3   OH239081   4.547   0.376   7.463  0.6159 -0.0288  0.1826
 5841TIP3    H139082   4.594   0.299   7.496  1.9508  0.8391  0.3736
 5841TIP3    H239083   4.531   0.430   7.540 -0.2195 -0.0531  0.0353
 5842TIP3   OH239084   5.421   6.090   8.484 -0.0863 -0.4014  0.2096
 5842TIP3    H139085   5.408   6.019   8.547  1.4209 -0.4830  0.4613
 5842TIP3    H239086   5.499   6.136   8.516  0.5001 -0.2311 -1.4018
 5843TIP3   OH239087   1.670   1.263   1.116 -0.2103  0.4054 -0.5629
 5843TIP3    H139088   1.720   1.275   1.035 -0.8344 -2.0403 -1.4050
 5843TIP3    H239089   1.611   1.190   1.096 -0.6859  0.0209  1.9729
 5844TIP3   OH239090   4.086   1.608   7.772 -0.6707  0.1788  0.0837
 5844TIP3    H139091   4.038   1.529   7.795 -1.1308 -0.0914 -1.6585
 5844TIP3    H239092   4.131   1.586   7.691 -0.8699  1.7149 -0.4749
 5845TIP3   OH239093   3.750   6.144   7.444  0.5011  0.3109 -0.6717
 5845TIP3    H139094   3.766   6.228   7.401 -1.8669  0.2423 -1.8301
 5845TIP3    H239095   3.666   6.115   7.409  0.7612 -2.0544  0.5009
 5846TIP3   OH239096   5.193   6.712   7.692  0.1614  0.2449 -0.2579
 5846TIP3    H139097   5.132   6.677   7.627 -0.5638  2.1665 -0.6793
 5846TIP3    H239098   5.255   6.641   7.708 -2.2317 -1.8740  0.2888
 5847TIP3   OH239099   6.327   2.093   8.471  0.3395 -1.2835  0.0226
 5847TIP3    H139100   6.381   2.014   8.463  0.5446 -1.0925 -0.5712
 5847TIP3    H239101   6.238   2.064   8.449  0.5151 -1.2329 -0.7730
 5848TIP3   OH239102   2.479   2.420   0.920  0.5962  0.4111 -0.5513
 5848TIP3    H139103   2.571   2.417   0.895  0.2297 -1.0206 -1.8115
 5848TIP3    H239104   2.431   2.416   0.838 -0.6108 -0.4210  0.1608
 5849TIP3   OH239105   3.953   2.961   7.872  0.3730 -0.0521 -0.2181
 5849TIP3    H139106   3.996   2.957   7.787  0.1579  0.8721 -0.3797
 5849TIP3    H239107   3.936   2.869   7.895  0.4487 -0.3108 -1.1602
 5850TIP3   OH239108   1.016   0.799   0.172  0.2492 -0.0237 -0.0752
 5850TIP3    H139109   0.977   0.885   0.188 -0.4481  0.0409 -1.8344
 5850TIP3    H239110   1.036   0.765   0.259 -0.4696  1.4485  0.7137
 5851TIP3   OH239111   2.983   6.372   7.619  0.5770 -0.0658  0.0519
 5851TIP3    H139112   2.893   6.399   7.636  0.9303  1.2171  0.0116
 5851TIP3    H239113   2.992   6.375   7.524  1.1203  1.5401  0.1066
 5852TIP3   OH239114   2.144   6.286   6.744  0.9657  0.3943  0.0049
 5852TIP3    H139115   2.144   6.361   6.685  1.6505  0.8104  0.5076
 5852TIP3    H239116   2.063   6.239   6.725  0.4655  1.3414 -0.2265
 5853TIP3   OH239117   4.100   3.796   7.716  0.2125  0.1335 -0.1708
 5853TIP3    H139118   4.167   3.774   7.781  0.7534 -0.2946 -0.8572
 5853TIP3    H239119   4.024   3.823   7.768  1.5414  2.6355  0.6160
 5854TIP3   OH239120   5.121   1.867   6.948 -0.2090  0.2173  0.1676
 5854TIP3    H139121   5.187   1.920   6.905 -0.9753  0.7055 -0.4404
 5854TIP3    H239122   5.167   1.824   7.020  1.0923 -0.5471 -1.0757
 5855TIP3   OH239123   5.131   5.475   1.206  0.2412  0.2506 -0.1653
 5855TIP3    H139124   5.158   5.562   1.235 -1.1286  0.9809 -0.9609
 5855TIP3    H239125   5.101   5.488   1.116 -0.1788 -1.0157 -0.2322
 5856TIP3   OH239126   3.355   4.356   2.175 -0.5190 -0.1872 -0.5052
 5856TIP3    H139127   3.323   4.298   2.244  0.0365 -1.5630 -1.3711
 5856TIP3    H239128   3.280   4.412   2.154 -1.2442 -0.9694 -0.0530
 5857TIP3   OH239129   5.246   0.254   1.914  0.4723 -0.7177  0.1738
 5857TIP3    H139130   5.337   0.227   1.928  0.8462  0.8698  1.0043
 5857TIP3    H239131   5.245   0.347   1.939 -1.0969 -0.3861 -1.0514
 5858TIP3   OH239132   0.951   4.923   1.828  0.5342  0.0975 -0.1453
 5858TIP3    H139133   1.032   4.921   1.880  0.7700  1.2404 -0.4447
 5858TIP3    H239134   0.882   4.937   1.893  0.3081 -2.7543  0.3562
 5859TIP3   OH239135   0.965   1.019   0.454  0.6086 -1.2798  0.5722
 5859TIP3    H139136   0.936   0.965   0.528 -1.7415 -2.6925 -1.2232
 5859TIP3    H239137   1.014   1.091   0.494 -0.2863 -2.1353  3.4441
 5860TIP3   OH239138   0.009   0.448   0.188 -0.8398 -0.3225 -0.0217
 5860TIP3    H139139   0.034   0.523   0.135 -1.8625 -1.5809 -2.4673
 5860TIP3    H239140   0.088   0.394   0.192 -0.7029 -0.1275 -0.0976
 5861TIP3   OH239141   6.579   3.218   1.433 -0.3271 -0.6581 -0.1639
 5861TIP3    H139142   6.589   3.200   1.527  1.3414 -1.8219 -0.5125
 5861TIP3    H239143   6.666   3.204   1.397 -0.2045  2.6216 -1.4967
 5862TIP3   OH239144   3.937   4.341   1.295  0.3040 -0.2809  0.0661
 5862TIP3    H139145   4.004   4.304   1.353 -0.2080 -2.2987 -0.5599
 5862TIP3    H239146   3.949   4.296   1.212  0.1222  1.5645 -1.0226
 5863TIP3   OH239147   4.615   1.207   0.352  0.1004  0.6266  0.3172
 5863TIP3    H139148   4.554   1.185   0.423 -1.1168 -0.4308 -1.0129
 5863TIP3    H239149   4.563   1.261   0.292  1.1874  1.7046  0.3037
 5864TIP3   OH239150   6.757   3.838   1.840 -0.0106  0.3925 -0.1641
 5864TIP3    H139151   6.808   3.764   1.874 -2.3748 -0.7617  1.1152
 5864TIP3    H239152   6.709   3.802   1.765 -2.6354 -0.0592  1.5841
 5865TIP3   OH239153   5.539   5.276   7.915 -0.2067 -0.2556 -0.2643
 5865TIP3    H139154   5.448   5.302   7.902  0.2977  1.3847 -0.7253
 5865TIP3    H239155   5.579   5.281   7.828  0.1880 -1.5852 -0.1760
 5866TIP3   OH239156   2.770   0.763   8.108 -0.1842  0.4716 -0.3266
 5866TIP3    H139157   2.798   0.825   8.041 -0.9478 -0.9544 -2.0283
 5866TIP3    H239158   2.686   0.729   8.077  1.0926 -2.8812 -0.5489
 5867TIP3   OH239159   3.668   4.785   2.476 -0.0527  0.2562  0.5913
 5867TIP3    H139160   3.732   4.783   2.547  0.0842 -0.4713  0.4528
 5867TIP3    H239161   3.680   4.702   2.431 -1.0741  0.1361  0.5329
 5868TIP3   OH239162   1.571   3.543   8.225 -0.3258  0.1046  0.2687
 5868TIP3    H139163   1.623   3.563   8.147 -1.5188  0.5305 -0.4452
 5868TIP3    H239164   1.633   3.547   8.298  0.2503  2.9034 -0.2567
 5869TIP3   OH239165   1.460   6.646   7.339  0.5309  0.1008  0.8400
 5869TIP3    H139166   1.386   6.598   7.378  1.0765 -0.7266  0.8833
 5869TIP3    H239167   1.433   6.661   7.249  0.5311 -0.6938  0.6977
 5870TIP3   OH239168   1.604   0.298   0.934  0.0625  0.3302  0.0094
 5870TIP3    H139169   1.673   0.296   1.000  1.4364 -0.4170 -1.3816
 5870TIP3    H239170   1.621   0.221   0.879 -1.0407  0.8984 -1.1845
 5871TIP3   OH239171   3.651   1.944   1.734 -0.7875  0.0355  0.0530
 5871TIP3    H139172   3.601   1.874   1.693 -1.3126  0.5206 -0.1552
 5871TIP3    H239173   3.652   1.922   1.827 -1.6940  0.1977  0.1095
 5872TIP3   OH239174   3.694   2.309   0.140 -0.1204 -0.2317 -0.1044
 5872TIP3    H139175   3.701   2.336   0.232 -3.0651  0.1500  0.1012
 5872TIP3    H239176   3.776   2.338   0.101 -0.1849  2.8381  1.6756
 5873TIP3   OH239177   4.022   1.726   1.981  0.0989 -0.0190  0.4086
 5873TIP3    H139178   3.969   1.751   1.905 -0.1584 -0.4833  0.4284
 5873TIP3    H239179   3.958   1.711   2.050  0.3208  0.2367  0.6707
 5874TIP3   OH239180   5.586   4.157   8.083 -0.4364 -0.1876 -0.2788
 5874TIP3    H139181   5.531   4.229   8.115  1.9629  1.6720 -0.0356
 5874TIP3    H239182   5.562   4.147   7.991 -0.3095  1.4930 -0.5307
 5875TIP3   OH239183   0.756   2.369   8.614  0.1945 -0.3946  0.0556
 5875TIP3    H139184   0.785   2.419   8.538  1.6955 -1.2776  0.0125
 5875TIP3    H239185   0.809   2.289   8.613  0.7170 -0.1524  2.3688
 5876TIP3   OH239186   2.920   6.138   1.520  0.0001  0.1072  0.4388
 5876TIP3    H139187   2.845   6.133   1.580 -1.2226 -0.3405 -1.0610
 5876TIP3    H239188   2.882   6.166   1.436  1.8485  2.1601  0.1747
 5877TIP3   OH239189   4.340   5.540   7.789 -0.2097  0.0625 -0.2643
 5877TIP3    H139190   4.414   5.591   7.823 -0.4412  1.0097 -1.1066
 5877TIP3    H239191   4.370   5.449   7.792  1.5115  0.5037 -1.7067
 5878TIP3   OH239192   1.829   6.223   0.320  0.5947  0.1817 -0.5922
 5878TIP3    H139193   1.827   6.142   0.270 -1.8956 -0.4276  0.3311
 5878TIP3    H239194   1.852   6.196   0.409  2.3580  0.8988 -0.7836
 5879TIP3   OH239195   5.493   2.909   7.558  0.2322  0.3349 -0.0738
 5879TIP3    H139196   5.493   2.813   7.565 -1.8327  0.1062 -2.0014
 5879TIP3    H239197   5.566   2.928   7.499 -0.7571 -0.3293 -1.5907
 5880TIP3   OH239198   1.184   1.373   6.793  0.1628  0.1030 -0.1103
 5880TIP3    H139199   1.165   1.281   6.812 -0.7359  0.1674 -0.6313
 5880TIP3    H239200   1.098   1.411   6.773  0.6156  0.8955 -0.5724
 5881TIP3   OH239201   6.535   3.020   8.521  0.0528 -0.3485 -0.7272
 5881TIP3    H139202   6.462   2.965   8.550 -0.2747  0.6192  0.3846
 5881TIP3    H239203   6.507   3.055   8.437 -1.4988  1.2365  0.3713
 5882TIP3   OH239204   3.931   2.933   2.500 -0.0390 -0.4258  0.0367
 5882TIP3    H139205   3.912   2.848   2.460 -0.9026 -0.4309  0.4359
 5882TIP3    H239206   3.965   2.986   2.428 -0.0820 -0.9198 -0.3522
 5883TIP3   OH239207   4.500   5.192   7.366  0.1828 -0.4061 -0.1203
 5883TIP3    H139208   4.438   5.122   7.384  0.7890 -0.4405  2.1233
 5883TIP3    H239209   4.569   5.180   7.430  0.8303  1.6217 -0.3661
 5884TIP3   OH239210   2.874   0.301   2.897 -0.3019 -0.0486 -0.0354
 5884TIP3    H139211   2.901   0.392   2.907  1.5209 -0.2310 -2.5236
 5884TIP3    H239212   2.791   0.307   2.849 -0.8855  0.2845  0.9681
 5885TIP3   OH239213   2.372   1.081   0.586  0.0603  0.5836  0.7534
 5885TIP3    H139214   2.461   1.115   0.589 -0.3241  1.7698 -0.4839
 5885TIP3    H239215   2.382   0.986   0.580  1.3108  0.8086 -1.7328
 5886TIP3   OH239216   6.766   2.487   2.532  0.2730 -0.1143 -0.2377
 5886TIP3    H139217   6.820   2.542   2.588 -1.6237  0.1627  1.4560
 5886TIP3    H239218   6.682   2.534   2.526  0.5549  0.1442 -3.8539
 5887TIP3   OH239219   3.893   0.729   0.908  0.2984  0.2152  0.1361
 5887TIP3    H139220   3.809   0.686   0.924  0.4414 -0.5242 -0.9375
 5887TIP3    H239221   3.870   0.815   0.873 -0.0197  0.0866  0.0292
 5888TIP3   OH239222   3.296   5.369   2.545 -0.1193  0.6035 -0.1917
 5888TIP3    H139223   3.329   5.356   2.634 -0.3529 -0.4877 -0.2554
 5888TIP3    H239224   3.209   5.407   2.557 -0.9970 -1.3873  0.1353
 5889TIP3   OH239225   5.233   3.762   2.472  0.4859 -0.4217  0.1008
 5889TIP3    H139226   5.273   3.830   2.527 -1.7661  0.9799  0.1345
 5889TIP3    H239227   5.206   3.694   2.534  0.1864 -0.0059  0.4298
 5890TIP3   OH239228   0.254   5.465   7.846 -0.1443  0.3359  0.1157
 5890TIP3    H139229   0.286   5.423   7.925  0.5393  0.9435  0.1714
 5890TIP3    H239230   0.305   5.426   7.775  2.1562  2.6129  0.3735
 5891TIP3   OH239231   4.422   0.032   8.309 -0.2099  0.0658  0.3915
 5891TIP3    H139232   4.515   0.015   8.319 -0.4225 -1.6453 -0.2052
 5891TIP3    H239233   4.394   0.063   8.395  0.7297 -0.3811  0.8722
 5892TIP3   OH239234   1.608   2.623   2.975  0.1429 -0.6629  0.3144
 5892TIP3    H139235   1.592   2.536   3.011 -0.2415 -0.7109  0.0344
 5892TIP3    H239236   1.677   2.660   3.030  1.4615 -1.7506 -0.5171
 5893TIP3   OH239237   2.680   4.550   0.074 -0.2396 -0.6660  0.7662
 5893TIP3    H139238   2.769   4.540   0.106  0.3274 -1.3594 -0.8968
 5893TIP3    H239239   2.636   4.469   0.099 -0.0684 -0.8109  0.6018
 5894TIP3   OH239240   0.171   2.317   8.089 -0.2499  0.4225 -0.4085
 5894TIP3    H139241   0.145   2.409   8.087  0.9053  0.7811 -3.3234
 5894TIP3    H239242   0.265   2.318   8.070  0.3336 -1.2786  1.9571
 5895TIP3   OH239243   2.702   1.458   0.829  0.4301 -0.3554 -0.1106
 5895TIP3    H139244   2.700   1.552   0.809  1.1833 -0.4217 -0.5401
 5895TIP3    H239245   2.697   1.415   0.744  0.2715 -0.7085  0.0736
 5896TIP3   OH239246   4.450   1.473   1.340  0.5728 -0.0233  0.0249
 5896TIP3    H139247   4.488   1.451   1.425  0.9063  2.0091  0.4504
 5896TIP3    H239248   4.404   1.555   1.355  0.2753  0.1574 -1.6755
 5897TIP3   OH239249   2.745   3.669   0.792 -0.4899 -0.4948 -0.6232
 5897TIP3    H139250   2.719   3.675   0.884 -1.2108  1.8731 -0.9152
 5897TIP3    H239251   2.827   3.620   0.794 -0.9664 -1.3437  1.1474
 5898TIP3   OH239252   5.338   1.982   6.852 -0.3096 -0.2394 -0.1060
 5898TIP3    H139253   5.321   2.073   6.826 -2.8865 -0.8473 -0.8358
 5898TIP3    H239254   5.426   1.965   6.821 -0.4339  1.4713 -1.6096
 5899TIP3   OH239255   1.726   3.443   2.133 -0.2475  0.5519  0.1617
 5899TIP3    H139256   1.805   3.486   2.167  0.8596 -1.0661 -0.2477
 5899TIP3    H239257   1.738   3.442   2.038 -1.5123  1.6518 -0.0306
 5900TIP3   OH239258   5.506   2.251   2.154 -0.3265  0.0847 -0.1560
 5900TIP3    H139259   5.467   2.212   2.076  0.4556  0.3292 -0.6817
 5900TIP3    H239260   5.528   2.176   2.210 -0.5995 -0.1100 -0.3082
 5901TIP3   OH239261   4.479   6.207   1.564  0.7760 -0.1479 -0.2597
 5901TIP3    H139262   4.490   6.160   1.647  2.2643 -0.5244 -0.6274
 5901TIP3    H239263   4.399   6.258   1.575  0.3843 -0.9868  1.0206
 5902TIP3   OH239264   1.151   5.752   8.477  0.5004  0.0256  0.2731
 5902TIP3    H139265   1.217   5.758   8.546 -0.2810  0.3310  1.0136
 5902TIP3    H239266   1.102   5.672   8.497  0.7553 -0.2896 -0.3674
 5903TIP3   OH239267   5.261   4.681   1.805 -0.5587 -0.5357 -0.7523
 5903TIP3    H139268   5.218   4.718   1.728 -1.8788 -0.1426  0.1408
 5903TIP3    H239269   5.270   4.588   1.784  0.8085 -0.1360 -2.1185
 5904TIP3   OH239270   6.405   2.633   0.094 -0.4380 -0.2093  0.4227
 5904TIP3    H139271   6.379   2.629   0.002 -0.7467  0.1145  0.4948
 5904TIP3    H239272   6.405   2.727   0.115  2.7677  0.0561 -0.1460
 5905TIP3   OH239273   4.347   4.783   2.647  0.1537 -0.5377  0.0292
 5905TIP3    H139274   4.420   4.816   2.699 -0.1299  0.6032 -0.2739
 5905TIP3    H239275   4.378   4.697   2.615  1.3943 -0.0539 -0.1509
 5906TIP3   OH239276   4.485   5.291   0.868 -0.4499  0.2445 -0.1957
 5906TIP3    H139277   4.565   5.332   0.835  0.6299 -0.4221  1.4577
 5906TIP3    H239278   4.509   5.199   0.882 -1.3775  0.1165  0.6600
 5907TIP3   OH239279   5.491   6.808   0.164 -0.2759  0.8687 -0.5496
 5907TIP3    H139280   5.403   6.773   0.153  0.3801 -0.8765 -0.5275
 5907TIP3    H239281   5.535   6.789   0.082 -0.1491  2.5252 -0.8982
 5908TIP3   OH239282   2.552   5.113   0.764  0.2555  0.3516 -0.2955
 5908TIP3    H139283   2.464   5.076   0.769  0.0846  0.9081  2.0620
 5908TIP3    H239284   2.605   5.058   0.821  0.5090  2.2132  1.4009
 5909TIP3   OH239285   4.613   0.320   0.117 -0.3440  0.1016  0.7363
 5909TIP3    H139286   4.648   0.404   0.147 -1.2372  0.3371  1.1375
 5909TIP3    H239287   4.527   0.313   0.158 -0.9556 -0.2729 -0.5396
 5910TIP3   OH239288   0.501   5.338   0.494 -0.4528 -0.6160  0.2529
 5910TIP3    H139289   0.446   5.329   0.416  0.7553  0.2579 -0.7381
 5910TIP3    H239290   0.484   5.258   0.545 -0.6081 -1.6400 -1.3336
 5911TIP3   OH239291   0.838   0.080   2.153 -0.2881  0.2249 -0.4598
 5911TIP3    H139292   0.852   0.131   2.232 -0.5304  1.0314 -0.9253
 5911TIP3    H239293   0.885  -0.002   2.168  0.4511  0.7499  0.1406
 5912TIP3   OH239294   6.496   0.179   1.206  0.2309  0.0811 -0.4403
 5912TIP3    H139295   6.427   0.114   1.190  1.3799 -1.5870  1.0007
 5912TIP3    H239296   6.452   0.248   1.255 -0.1692 -1.6995  1.8860
 5913TIP3   OH239297   6.618   2.759   8.217 -0.6131  0.1415 -0.4400
 5913TIP3    H139298   6.679   2.818   8.261  0.1077 -1.3029  0.5837
 5913TIP3    H239299   6.580   2.811   8.147  2.2283  0.9672 -1.4954
 5914TIP3   OH239300   0.413   2.216   7.880  0.2399 -0.0547 -0.6365
 5914TIP3    H139301   0.484   2.226   7.817  0.6403  3.3185  0.2033
 5914TIP3    H239302   0.343   2.173   7.831  1.7311 -0.6215 -2.3624
 5915TIP3   OH239303   1.739   2.793   2.194 -0.3572 -0.2624  0.2406
 5915TIP3    H139304   1.693   2.849   2.131  0.6675 -0.6013 -0.8639
 5915TIP3    H239305   1.700   2.814   2.279  1.1158  3.3665  0.1740
 5916TIP3   OH239306   3.838   5.283   8.279 -0.0861 -0.1421  0.0949
 5916TIP3    H139307   3.925   5.246   8.260 -0.4655  0.4482 -3.4223
 5916TIP3    H239308   3.856   5.371   8.311  0.6577  0.4241 -1.7691
 5917TIP3   OH239309   2.236   6.769   1.561  0.5589 -0.6289  0.0037
 5917TIP3    H139310   2.254   6.763   1.655 -0.8108  0.1037  0.3369
 5917TIP3    H239311   2.157   6.823   1.555  0.9823 -0.1315 -1.6153
 5918TIP3   OH239312   3.119   5.123   0.405  0.7685 -0.0557 -0.0300
 5918TIP3    H139313   3.077   5.162   0.482  0.4029 -2.9972  1.3818
 5918TIP3    H239314   3.046   5.096   0.349  0.9996  0.3673 -0.5531
 5919TIP3   OH239315   4.666   6.503   2.220  0.8019 -0.4205  0.2953
 5919TIP3    H139316   4.735   6.552   2.174  1.7069 -1.2049  0.7925
 5919TIP3    H239317   4.710   6.464   2.295 -0.4996  0.2415  1.4587
 5920TIP3   OH239318   4.180   0.051   7.779 -0.1804  0.4414 -0.9983
 5920TIP3    H139319   4.212   0.104   7.706  1.2427 -0.3916 -1.0156
 5920TIP3    H239320   4.258   0.028   7.828 -0.8491 -0.9578 -0.5400
 5921TIP3   OH239321   5.685   2.889   7.362  0.0252 -0.5845 -0.1692
 5921TIP3    H139322   5.770   2.929   7.384 -0.7105  0.8131  0.2251
 5921TIP3    H239323   5.694   2.863   7.271  1.1634 -1.2227  0.1051
 5922TIP3   OH239324   0.188   0.521   7.449  0.2544 -0.5777  0.1274
 5922TIP3    H139325   0.103   0.482   7.429  0.6729 -1.4570  0.0142
 5922TIP3    H239326   0.183   0.542   7.542 -0.2965 -0.0810 -0.0100
 5923TIP3   OH239327   1.003   6.751   0.253  0.0954  0.1388 -0.8729
 5923TIP3    H139328   1.037   6.784   0.336  0.3363 -2.1979  0.0355
 5923TIP3    H239329   0.909   6.747   0.265  0.1773 -0.8101 -0.4258
 5924TIP3   OH239330   3.901   3.473   1.876 -0.4865 -0.2918  0.7366
 5924TIP3    H139331   3.992   3.444   1.885 -0.1331 -0.3516 -2.0476
 5924TIP3    H239332   3.877   3.504   1.963  1.7145 -1.5950  1.9057
 5925TIP3   OH239333   2.967   3.388   0.523 -0.6703 -0.5803 -0.1785
 5925TIP3    H139334   2.945   3.411   0.432  1.1394 -1.6209 -0.9338
 5925TIP3    H239335   2.886   3.403   0.571 -1.1998  1.6768 -1.6333
 5926TIP3   OH239336   4.501   5.135   2.816  0.4822 -0.3007 -0.2735
 5926TIP3    H139337   4.488   5.134   2.721  0.0257 -1.6556 -0.2224
 5926TIP3    H239338   4.439   5.201   2.848  0.8921  0.4205 -0.9367
 5927TIP3   OH239339   4.527   0.057   7.342 -0.1273  0.2726 -0.4090
 5927TIP3    H139340   4.517   0.020   7.430  1.0676 -0.3857 -0.5169
 5927TIP3    H239341   4.484  -0.007   7.285 -0.5476  0.4918 -0.3356
 5928TIP3   OH239342   3.949   5.527   6.817  0.0147 -0.4076  0.5669
 5928TIP3    H139343   3.901   5.592   6.869  0.3240 -0.4762  0.9442
 5928TIP3    H239344   4.007   5.579   6.762 -0.5906 -0.3160 -0.0071
 5929TIP3   OH239345   1.922   6.249   2.207  0.0039  0.4684 -0.2625
 5929TIP3    H139346   1.952   6.339   2.191 -1.4870  1.0642  0.1071
 5929TIP3    H239347   1.847   6.238   2.147 -1.7384  0.5716  1.7671
 5930TIP3   OH239348   5.914   3.735   0.672  0.0288  0.8340 -0.2498
 5930TIP3    H139349   5.995   3.711   0.717  0.5102  0.5331 -1.2488
 5930TIP3    H239350   5.940   3.801   0.608 -0.8148  1.9714  0.5551
 5931TIP3   OH239351   0.006   0.934   1.534  0.1343 -0.2262  0.2960
 5931TIP3    H139352   0.058   0.946   1.454  0.3273  0.4785  0.5253
 5931TIP3    H239353  -0.002   0.839   1.543 -1.0239 -0.3304 -1.2914
 5932TIP3   OH239354   0.988   6.365   1.554 -0.4326  0.3069  0.7600
 5932TIP3    H139355   1.080   6.361   1.526 -0.6974  0.3359 -0.1676
 5932TIP3    H239356   0.991   6.356   1.649  0.5857  1.0303  0.8141
 5933TIP3   OH239357   4.543   5.506   1.569 -0.5026  0.3109 -0.1717
 5933TIP3    H139358   4.620   5.476   1.616 -1.0075 -1.4206 -0.3857
 5933TIP3    H239359   4.485   5.539   1.638  0.8103  2.7071 -0.1005
 5934TIP3   OH239360   4.273   5.328   6.601 -0.0166 -0.3478  0.3515
 5934TIP3    H139361   4.335   5.271   6.555 -0.1113 -1.0298  1.0519
 5934TIP3    H239362   4.328   5.399   6.635 -0.0520  0.5987 -1.4362
 5935TIP3   OH239363   6.793   0.034   0.568  0.1434 -0.2617  0.0189
 5935TIP3    H139364   6.846   0.083   0.505  0.8535  0.1700  0.9198
 5935TIP3    H239365   6.801   0.084   0.649 -1.2582 -0.4632  0.2992
 5936TIP3   OH239366   3.160   0.919   7.413 -0.3230  0.3808  0.3673
 5936TIP3    H139367   3.109   0.993   7.379 -0.7914 -0.4157 -0.6949
 5936TIP3    H239368   3.104   0.879   7.479 -0.4797  0.3559  0.2178
 5937TIP3   OH239369   6.362   6.671   2.563 -0.4915 -0.1442 -0.4551
 5937TIP3    H139370   6.316   6.710   2.637 -1.1207  0.2261 -1.0204
 5937TIP3    H239371   6.296   6.667   2.494 -0.4616 -2.2673 -0.4208
 5938TIP3   OH239372   3.829   2.251   6.902 -0.0107  0.2444 -0.2935
 5938TIP3    H139373   3.775   2.328   6.921 -0.0630  0.7832 -2.3977
 5938TIP3    H239374   3.908   2.264   6.953  0.3405  2.1459 -1.2353
 5939TIP3   OH239375   6.542   0.914   3.402  0.4543  0.4438  0.0352
 5939TIP3    H139376   6.607   0.848   3.426 -0.8891 -1.1070 -0.3501
 5939TIP3    H239377   6.480   0.914   3.475 -0.1612  0.4590 -0.4821
 5940TIP3   OH239378   3.829   0.224   7.204 -0.2600 -0.2811  0.2276
 5940TIP3    H139379   3.741   0.199   7.233  0.1455 -1.2224  0.6723
 5940TIP3    H239380   3.888   0.179   7.264  0.5388  0.2723 -0.1256
 5941TIP3   OH239381   2.121   4.127   8.044 -0.0197 -0.0002  0.3117
 5941TIP3    H139382   2.055   4.099   8.108 -0.3144  2.5018  1.2442
 5941TIP3    H239383   2.181   4.182   8.095  1.2975 -0.1045 -1.0560
 5942TIP3   OH239384   2.208   3.854   1.606 -0.5489  0.0962 -0.2207
 5942TIP3    H139385   2.209   3.822   1.696  1.4269 -1.2968 -0.6759
 5942TIP3    H239386   2.117   3.879   1.591 -1.2414 -1.0660  1.6660
 5943TIP3   OH239387   6.309   0.603   1.264  0.1522  0.3128  0.1842
 5943TIP3    H139388   6.315   0.553   1.183 -1.1165 -0.3173  0.4450
 5943TIP3    H239389   6.369   0.676   1.252 -0.8674  0.8938 -1.7883
 5944TIP3   OH239390   0.564   6.202   7.355 -0.5536  0.0799  0.4779
 5944TIP3    H139391   0.645   6.244   7.327 -1.6123  2.7603  1.1862
 5944TIP3    H239392   0.580   6.179   7.447 -0.6907  0.9563  0.7320
 5945TIP3   OH239393   5.781   6.001   0.302 -0.2593 -0.6426  0.6308
 5945TIP3    H139394   5.867   5.981   0.264 -1.0222 -0.6954 -1.1665
 5945TIP3    H239395   5.742   5.916   0.321 -1.0619 -0.7853 -1.3536
 5946TIP3   OH239396   0.727   2.170   2.181 -0.3637  0.3161  0.3860
 5946TIP3    H139397   0.634   2.157   2.202 -0.8182  0.2843 -1.4956
 5946TIP3    H239398   0.749   2.097   2.123  0.3408  1.2768 -0.5950
 5947TIP3   OH239399   1.060   5.137   8.116  0.1045  0.1102 -0.0971
 5947TIP3    H139400   1.116   5.179   8.050  1.3668  0.8366  1.3839
 5947TIP3    H239401   1.103   5.054   8.135 -0.6141 -0.4022 -0.6240
 5948TIP3   OH239402   1.359   0.719   7.584 -0.5963  0.8449  0.2740
 5948TIP3    H139403   1.407   0.676   7.513 -1.6997  1.1131 -0.6527
 5948TIP3    H239404   1.395   0.681   7.664  0.9173  0.7898 -0.3997
 5949TIP3   OH239405   3.873   0.594   8.111 -0.1525  0.0744  0.1589
 5949TIP3    H139406   3.783   0.611   8.080 -0.0423 -0.5169 -0.5256
 5949TIP3    H239407   3.927   0.654   8.060 -0.1569  0.4654  0.6072
 5950TIP3   OH239408   4.849   1.263   2.872 -0.2712  0.1431  0.1644
 5950TIP3    H139409   4.876   1.171   2.868  1.2036  0.5633 -0.2386
 5950TIP3    H239410   4.754   1.261   2.866 -0.2960 -1.3902  0.7165
 5951TIP3   OH239411   1.649   6.153   7.856 -0.0319 -0.1488  0.1809
 5951TIP3    H139412   1.633   6.068   7.815 -2.6695 -0.5935  1.8973
 5951TIP3    H239413   1.723   6.137   7.916  1.2752 -0.4649 -1.4474
 5952TIP3   OH239414   1.590   2.908   8.407  0.1357  0.3447 -0.6844
 5952TIP3    H139415   1.540   2.844   8.457  0.9148  1.0969  1.1412
 5952TIP3    H239416   1.602   2.867   8.321 -2.9959 -0.1236 -1.0299
 5953TIP3   OH239417   4.363   6.541   1.807 -0.0956 -0.1989 -0.2586
 5953TIP3    H139418   4.342   6.621   1.855 -1.6111 -0.5862 -0.2120
 5953TIP3    H239419   4.293   6.480   1.830  0.5337 -1.2392 -0.9992
 5954TIP3   OH239420   3.087   5.240   8.049 -0.5560  0.6804 -0.4330
 5954TIP3    H139421   2.992   5.244   8.061 -0.6948  0.5534 -1.4545
 5954TIP3    H239422   3.099   5.187   7.971  0.3015  1.8131 -1.0947
 5955TIP3   OH239423   0.541   2.000   0.808 -0.2225 -0.2469 -0.8061
 5955TIP3    H139424   0.625   1.956   0.796  0.8443  0.8264  2.0650
 5955TIP3    H239425   0.491   1.943   0.866 -0.0947  0.7332  0.3020
 5956TIP3   OH239426   4.829   4.233   1.066 -0.4374 -0.0595 -0.1264
 5956TIP3    H139427   4.772   4.199   1.136 -1.0678 -0.5089 -0.8482
 5956TIP3    H239428   4.822   4.328   1.074 -2.2802 -0.0726 -0.9528
 5957TIP3   OH239429   0.635   4.957   7.743 -0.4994  0.1350  0.1826
 5957TIP3    H139430   0.671   4.906   7.816 -0.6014 -0.3857 -0.1265
 5957TIP3    H239431   0.711   4.982   7.691 -0.4368  0.4131  0.4071
 5958TIP3   OH239432   1.813   1.664   1.282  0.4182  0.3511 -0.0586
 5958TIP3    H139433   1.898   1.704   1.263  0.0394  0.7669 -0.9030
 5958TIP3    H239434   1.831   1.570   1.286  1.0620  0.4897  0.5670
 5959TIP3   OH239435   1.812   3.357   1.550 -0.9454  0.0211  0.1589
 5959TIP3    H139436   1.773   3.395   1.472  1.2969 -0.5439 -1.3379
 5959TIP3    H239437   1.861   3.429   1.591 -0.5735 -0.1206 -0.0302
 5960TIP3   OH239438   2.599   2.691   8.250  0.2226 -0.1184 -0.1599
 5960TIP3    H139439   2.573   2.781   8.268 -1.5445 -0.4397 -0.8856
 5960TIP3    H239440   2.680   2.679   8.300  1.2369  2.2436 -1.0902
 5961TIP3   OH239441   0.276   6.030   8.099 -0.1550  0.0067  0.2507
 5961TIP3    H139442   0.262   6.124   8.106  1.0754  0.2295  0.0454
 5961TIP3    H239443   0.277   5.999   8.189  1.2653  0.5141  0.4379
 5962TIP3   OH239444   3.997   5.497   1.493  0.2114  0.1513  0.1544
 5962TIP3    H139445   3.938   5.462   1.560 -0.2526 -0.4550 -0.5546
 5962TIP3    H239446   4.080   5.453   1.508  0.2809  0.4591  0.6963
 5963TIP3   OH239447   2.999   2.531   7.591 -0.4662  0.0774  0.3798
 5963TIP3    H139448   3.092   2.548   7.575 -0.5460  0.9791  0.8411
 5963TIP3    H239449   2.995   2.501   7.682 -0.6781  0.5108  0.5166
 5964TIP3   OH239450   2.257   4.934   1.570 -0.9097 -0.3033 -0.3124
 5964TIP3    H139451   2.175   4.910   1.526 -0.7155 -1.9774  0.1877
 5964TIP3    H239452   2.326   4.901   1.512 -0.4411  2.7691 -1.7200
 5965TIP3   OH239453   1.609   2.828   7.576 -0.3310 -0.1018  0.5204
 5965TIP3    H139454   1.545   2.760   7.598  1.1367 -1.4749  0.7274
 5965TIP3    H239455   1.688   2.780   7.554  0.8590  1.5746  0.9746
 5966TIP3   OH239456   5.312   6.731   8.311 -0.0623  0.2559 -0.2699
 5966TIP3    H139457   5.363   6.651   8.328  0.8159  0.9599  0.4833
 5966TIP3    H239458   5.242   6.728   8.376  0.2434  0.3361  0.0631
 5967TIP3   OH239459   6.115   0.968   1.518  0.0516 -0.0734  0.4715
 5967TIP3    H139460   6.131   0.880   1.553 -0.7020 -0.0586  0.8883
 5967TIP3    H239461   6.200   0.997   1.485  0.1378 -1.3054 -0.4767
 5968TIP3   OH239462   5.341   0.270   8.405 -0.1918  0.3404  0.4440
 5968TIP3    H139463   5.246   0.279   8.414 -0.1099  0.8177  0.8532
 5968TIP3    H239464   5.359   0.291   8.313 -0.4003  0.9430  0.5406
 5969TIP3   OH239465   4.863   5.501   0.520 -0.0217  1.1140  0.3013
 5969TIP3    H139466   4.890   5.585   0.557 -0.7679  1.5119 -0.0387
 5969TIP3    H239467   4.779   5.519   0.479  1.0013  0.8168 -2.0559
 5970TIP3   OH239468   3.161   1.557   1.094  0.1801 -0.1308 -0.2143
 5970TIP3    H139469   3.066   1.564   1.103 -0.0693 -1.1621 -1.6812
 5970TIP3    H239470   3.196   1.620   1.156 -1.5038  1.5510 -0.8803
 5971TIP3   OH239471   3.294   1.444   7.435  0.4573 -0.0439  0.0797
 5971TIP3    H139472   3.372   1.484   7.397  0.2423 -0.2280 -0.5567
 5971TIP3    H239473   3.243   1.518   7.468 -0.8923  0.4760 -2.8392
 5972TIP3   OH239474   3.147   3.806   7.922 -0.3570 -0.1550  0.1140
 5972TIP3    H139475   3.168   3.899   7.924 -0.7551 -0.0677  1.9380
 5972TIP3    H239476   3.226   3.763   7.954  0.2244 -0.5813 -1.7458
 5973TIP3   OH239477   6.544   1.427   2.760 -0.1885  0.0667 -0.0834
 5973TIP3    H139478   6.515   1.483   2.688 -0.3768  0.1418  0.0491
 5973TIP3    H239479   6.614   1.477   2.803 -0.1140  0.0461 -0.1804
 5974TIP3   OH239480   0.905   2.625   7.658 -0.4437 -0.1018 -0.2815
 5974TIP3    H139481   0.898   2.699   7.719  4.9209 -0.1736  0.8969
 5974TIP3    H239482   0.827   2.573   7.675 -2.3726  3.1405  1.8389
 5975TIP3   OH239483   0.330   3.497   7.570  0.0006  0.2896 -0.2801
 5975TIP3    H139484   0.270   3.497   7.644  0.8102  0.1839  0.3889
 5975TIP3    H239485   0.378   3.414   7.578 -0.7834 -0.3317 -1.6572
 5976TIP3   OH239486   1.023   6.480   7.801  0.2247  0.1304 -0.4305
 5976TIP3    H139487   0.999   6.502   7.891 -0.3929  0.4157 -0.6598
 5976TIP3    H239488   1.116   6.501   7.795  0.5781 -1.0381  0.4955
 5977TIP3   OH239489   5.154   4.932   8.138 -0.6642 -0.3320  0.5688
 5977TIP3    H139490   5.138   5.026   8.145  4.1616  0.8389 -0.3126
 5977TIP3    H239491   5.126   4.909   8.050  1.5334  1.3638 -0.6842
 5978TIP3   OH239492   1.132   5.828   1.305 -0.6412  0.3003  0.3721
 5978TIP3    H139493   1.147   5.870   1.390 -1.1478 -0.2960  0.7685
 5978TIP3    H239494   1.153   5.895   1.241  0.1394  0.6396  0.9629
 5979TIP3   OH239495   0.694   6.829   1.078  0.4289 -0.0003 -0.2257
 5979TIP3    H139496   0.760   6.766   1.108  2.7542  2.5154  0.3756
 5979TIP3    H239497   0.739   6.881   1.011 -2.1344 -0.3633 -2.3854
 5980TIP3   OH239498   1.401   2.552   0.646  0.1226 -0.0305 -0.6015
 5980TIP3    H139499   1.307   2.556   0.666  0.4043 -1.2403  1.2444
 5980TIP3    H239500   1.441   2.612   0.709  0.7161 -0.9059 -0.1194
 5981TIP3   OH239501   4.527   4.969   7.943 -0.0960  0.1186  0.0583
 5981TIP3    H139502   4.512   4.971   7.848 -0.1097  0.1703  0.0615
 5981TIP3    H239503   4.440   4.967   7.981 -0.0917  0.2267  0.0734
 5982TIP3   OH239504   6.336   5.978   0.352  0.2887 -0.5256  0.4975
 5982TIP3    H139505   6.250   5.987   0.311  0.7141 -0.9283 -0.4967
 5982TIP3    H239506   6.391   5.939   0.285  1.3612  0.1080  0.9864
 5983TIP3   OH239507   6.543   2.283   1.583  0.0046 -0.2463 -0.1013
 5983TIP3    H139508   6.635   2.281   1.611  0.0648  1.0669 -0.1511
 5983TIP3    H239509   6.509   2.365   1.619 -0.6543  0.1587 -1.5724
 5984TIP3   OH239510   2.436   0.857   7.877 -0.2986 -0.1526  0.1179
 5984TIP3    H139511   2.438   0.773   7.832 -0.7639 -0.4249  0.5984
 5984TIP3    H239512   2.412   0.836   7.967 -0.2159  0.4747  0.2918
 5985TIP3   OH239513   6.285   4.519   1.402 -0.4029 -0.1102 -0.5706
 5985TIP3    H139514   6.336   4.550   1.476 -0.4474 -2.1587  0.3828
 5985TIP3    H239515   6.329   4.556   1.325  0.7114  0.5759  0.3703
 5986TIP3   OH239516   3.285   6.835   0.622  0.4058 -0.2916 -0.1740
 5986TIP3    H139517   3.353   6.892   0.586  0.9148 -0.9434 -0.2690
 5986TIP3    H239518   3.300   6.751   0.580 -0.7069 -0.3495 -0.4770
 5987TIP3   OH239519   2.836   0.573   2.383 -0.0079  0.4449 -0.6190
 5987TIP3    H139520   2.747   0.586   2.416 -0.4177 -0.6540 -1.2498
 5987TIP3    H239521   2.880   0.656   2.401 -0.8443  0.6469  0.6640
 5988TIP3   OH239522   4.069   5.778   2.399 -0.0833 -0.3644  0.4255
 5988TIP3    H139523   4.149   5.814   2.438  0.6807  0.4704 -1.7868
 5988TIP3    H239524   4.097   5.743   2.315 -1.5890 -2.5092  0.7190
 5989TIP3   OH239525   1.740   1.393   2.340  0.3885  0.1552  0.0443
 5989TIP3    H139526   1.691   1.337   2.400  1.0422 -2.3866 -1.6445
 5989TIP3    H239527   1.808   1.433   2.394 -0.5866 -0.0471  1.4578
 5990TIP3   OH239528   6.649   4.705   0.985  0.2974  0.3479  0.1834
 5990TIP3    H139529   6.699   4.786   0.996  2.4589 -0.3451 -2.8888
 5990TIP3    H239530   6.695   4.641   1.040  1.0423  0.3902 -0.3645
 5991TIP3   OH239531   4.268   1.522   2.740 -0.2685  0.1172  0.2096
 5991TIP3    H139532   4.318   1.572   2.804  1.8694 -0.2582 -1.0417
 5991TIP3    H239533   4.279   1.431   2.768  0.8404 -0.0634 -0.7465
 5992TIP3   OH239534   3.307   1.316   0.382 -0.3141 -0.1375  0.1791
 5992TIP3    H139535   3.312   1.409   0.358 -0.7872 -0.1066  0.1795
 5992TIP3    H239536   3.374   1.274   0.329 -0.5025  0.1178 -0.2712
 5993TIP3   OH239537   0.860   3.327   2.316 -0.1148 -0.3137  0.4505
 5993TIP3    H139538   0.812   3.352   2.396  0.0017  0.2948  0.3381
 5993TIP3    H239539   0.949   3.358   2.332  0.3691 -1.8432  0.8483
 5994TIP3   OH239540   6.764   3.045   2.962 -0.2257 -0.0516  0.2959
 5994TIP3    H139541   6.743   2.958   2.929 -0.2317  0.0057  0.1475
 5994TIP3    H239542   6.699   3.102   2.922 -0.1885  0.0295  0.3502
 5995TIP3   OH239543   1.906   4.466   2.400 -0.9655 -0.2859 -0.3454
 5995TIP3    H139544   1.893   4.554   2.434  3.0176 -0.1750  1.3995
 5995TIP3    H239545   1.880   4.409   2.473  1.4069 -0.2534  0.6232
 5996TIP3   OH239546   3.733   4.599   7.854  0.1853 -0.3624  0.0145
 5996TIP3    H139547   3.684   4.549   7.788  0.5621 -1.6164  0.6501
 5996TIP3    H239548   3.713   4.690   7.834  0.3536 -0.6914 -1.9045
 5997TIP3   OH239549   3.534   6.472   1.759  0.4292 -0.3524  0.2298
 5997TIP3    H139550   3.548   6.516   1.843 -1.2997 -0.3277  0.5431
 5997TIP3    H239551   3.532   6.379   1.781  1.9758 -0.4837 -0.1112
 5998TIP3   OH239552   5.065   1.544   2.062 -0.8328 -0.2520 -0.3109
 5998TIP3    H139553   5.050   1.532   1.968 -0.6012  0.3094 -0.4238
 5998TIP3    H239554   5.035   1.463   2.102  0.3916 -1.0625 -1.0000
 5999TIP3   OH239555   4.079   6.301   0.099 -0.2050  0.2514  0.1793
 5999TIP3    H139556   4.077   6.220   0.048  0.0383 -0.0364  0.6210
 5999TIP3    H239557   3.989   6.333   0.098 -0.0524  0.6949 -1.1352
 6000TIP3   OH239558   5.626   5.961   2.151 -0.0123  0.2799 -0.7420
 6000TIP3    H139559   5.619   6.011   2.233  0.0609 -1.6716  0.5196
 6000TIP3    H239560   5.707   5.993   2.111  1.0500 -0.1401  0.9840
 6001TIP3   OH239561   2.970   1.651   0.867  0.1087  0.1782 -0.4928
 6001TIP3    H139562   2.930   1.692   0.791 -0.0412 -1.0557 -1.1118
 6001TIP3    H239563   2.959   1.557   0.852  1.0990 -0.1211  0.5001
 6002TIP3   OH239564   0.662   0.998   8.039  0.2876 -0.4124 -0.2804
 6002TIP3    H139565   0.639   1.089   8.060 -0.1417 -0.6169  0.1540
 6002TIP3    H239566   0.728   1.006   7.970  1.1071  0.2564  0.5559
 6003TIP3   OH239567   4.804   2.175   8.319  0.3900  0.3221  0.0647
 6003TIP3    H139568   4.776   2.182   8.228 -1.3371 -1.9933  0.3181
 6003TIP3    H239569   4.793   2.263   8.355 -2.3523  0.5585 -1.0961
 6004TIP3   OH239570   0.865   1.015   8.227 -0.0464 -0.1026  0.1951
 6004TIP3    H139571   0.786   1.013   8.173 -0.1891 -0.4944  0.4112
 6004TIP3    H239572   0.908   0.931   8.211 -0.8726 -0.8856  1.8127
 6005TIP3   OH239573   3.011   6.874   0.526 -0.1981  0.0490  0.0460
 6005TIP3    H139574   3.017   6.836   0.438 -0.5239  1.3298 -0.5606
 6005TIP3    H239575   3.101   6.872   0.559  0.1149  0.5346 -0.7544
 6006TIP3   OH239576   6.142   5.094   1.300 -0.0822  0.2707 -0.0582
 6006TIP3    H139577   6.070   5.106   1.362 -0.4283  1.7820 -0.7173
 6006TIP3    H239578   6.108   5.033   1.235 -0.1321 -0.4014  0.5872
 6007TIP3   OH239579   0.967   3.379   0.571  0.5954 -0.2741 -0.8260
 6007TIP3    H139580   1.060   3.382   0.548  0.9691 -0.1468  0.5999
 6007TIP3    H239581   0.962   3.320   0.646 -0.4126  0.0441 -0.6225
 6008TIP3   OH239582   6.172   2.411   0.223  0.7758  0.2251  0.1723
 6008TIP3    H139583   6.259   2.394   0.186  0.7867  0.0813  0.2615
 6008TIP3    H239584   6.172   2.362   0.306  1.9915  3.1474  2.0848
 6009TIP3   OH239585   3.081   6.057   6.855 -0.1426 -0.3149  0.3696
 6009TIP3    H139586   3.033   6.056   6.772 -0.0931 -0.6195  0.3419
 6009TIP3    H239587   3.082   6.149   6.881  1.7579  0.1520 -1.1070
 6010TIP3   OH239588   2.650   4.161   1.458  0.4885 -0.2957  0.1114
 6010TIP3    H139589   2.709   4.148   1.383  1.3154  1.5911  0.3768
 6010TIP3    H239590   2.562   4.151   1.421  0.8352  1.6212 -1.3745
 6011TIP3   OH239591   6.679   3.543   7.664  0.3056  0.2164 -0.2239
 6011TIP3    H139592   6.765   3.569   7.632 -0.3719 -0.0155 -2.3958
 6011TIP3    H239593   6.659   3.606   7.733  1.4797  1.3449 -0.8659
 6012TIP3   OH239594   6.364   5.677   0.650 -0.1736  0.2710  0.1810
 6012TIP3    H139595   6.437   5.624   0.618 -0.8812 -0.1965 -0.6855
 6012TIP3    H239596   6.406   5.758   0.680  0.6938  0.0621 -0.4076
 6013TIP3   OH239597   0.430   0.535   7.322  0.1635 -0.3617  0.0751
 6013TIP3    H139598   0.395   0.476   7.255  1.8427 -0.9013 -0.3914
 6013TIP3    H239599   0.362   0.538   7.389 -1.4390 -0.0552 -1.4858
 6014TIP3   OH239600   3.931   4.506   0.280 -0.4396  0.0424 -0.0475
 6014TIP3    H139601   3.850   4.552   0.258  0.0130  1.0756  0.4152
 6014TIP3    H239602   3.934   4.510   0.376 -0.8180 -1.6996  0.0729
 6015TIP3   OH239603   2.794   3.271   1.086  0.4240  0.0261  0.6346
 6015TIP3    H139604   2.799   3.309   0.998 -0.4227 -0.8511  0.1923
 6015TIP3    H239605   2.782   3.177   1.071 -0.4385 -0.0418  1.6690
 6016TIP3   OH239606   1.984   4.541   7.814  0.2523 -0.0494 -0.4335
 6016TIP3    H139607   1.984   4.445   7.811  0.6118 -0.1285  1.1655
 6016TIP3    H239608   1.922   4.562   7.884  1.5693  0.7940  0.5310
 6017TIP3   OH239609   4.274   6.431   0.297  0.2475  0.0057  0.4263
 6017TIP3    H139610   4.235   6.513   0.265 -0.5913 -0.8512 -0.8360
 6017TIP3    H239611   4.204   6.366   0.288  0.9295 -0.8766  1.3281
 6018TIP3   OH239612   0.514   1.626   0.425  0.1728 -0.3201  0.7173
 6018TIP3    H139613   0.438   1.567   0.427  0.4201 -0.7853 -1.5245
 6018TIP3    H239614   0.480   1.706   0.384  1.0471 -0.8483 -1.1254
 6019TIP3   OH239615   1.120   6.132   6.881 -0.7568  0.0881  0.4029
 6019TIP3    H139616   1.064   6.151   6.806 -0.3615  0.9153  0.3008
 6019TIP3    H239617   1.183   6.068   6.848 -0.7150  0.2884  0.0825
 6020TIP3   OH239618   1.954   3.408   7.515  0.1054  0.2534 -0.0243
 6020TIP3    H139619   1.876   3.421   7.461 -0.1593  0.6647  0.4496
 6020TIP3    H239620   1.930   3.339   7.577  0.2134  0.1862 -0.0560
 6021TIP3   OH239621   5.349   2.978   1.324 -0.4709  0.3787 -0.2674
 6021TIP3    H139622   5.324   2.950   1.412 -2.0632  0.5786 -0.6233
 6021TIP3    H239623   5.398   2.905   1.287 -2.7178 -1.1294 -0.4163
 6022TIP3   OH239624   6.449   5.051   1.143 -0.4199 -0.3294  0.1164
 6022TIP3    H139625   6.534   5.095   1.139 -1.7527  2.4824 -0.0029
 6022TIP3    H239626   6.440   5.010   1.058 -0.7754  2.8129 -1.5328
 6023TIP3   OH239627   0.360   1.371   0.090  0.0517  0.6171 -0.0243
 6023TIP3    H139628   0.342   1.284   0.124 -0.4430  1.2376  1.3753
 6023TIP3    H239629   0.288   1.388   0.029 -0.2266  0.3124  0.2140
 6024TIP3   OH239630   4.489   5.273   1.380 -0.0911 -0.3301  0.8864
 6024TIP3    H139631   4.512   5.233   1.464  1.1671 -0.7593  0.3657
 6024TIP3    H239632   4.464   5.362   1.402  0.1657 -0.4527  1.7247
 6025TIP3   OH239633   2.277   2.963   2.354  0.3021  0.4136  0.2829
 6025TIP3    H139634   2.187   2.960   2.321  0.1001 -1.0189  0.8696
 6025TIP3    H239635   2.277   3.034   2.419 -0.7197 -0.3210  1.1068
 6026TIP3   OH239636   4.086   0.476   8.266  0.2881 -0.6649  0.0845
 6026TIP3    H139637   4.014   0.456   8.206  1.5228 -1.9217 -1.0590
 6026TIP3    H239638   4.138   0.395   8.269  2.4679  0.6215 -0.3380
 6027TIP3   OH239639   0.632   2.111   8.415  0.3026 -0.3256  0.0372
 6027TIP3    H139640   0.693   2.136   8.346  1.4949 -1.3875  0.6581
 6027TIP3    H239641   0.554   2.164   8.400  1.3338  0.9754 -0.8597
 6028TIP3   OH239642   0.705   2.627   0.860  0.2433 -0.0282  0.0793
 6028TIP3    H139643   0.667   2.549   0.902  0.7526 -0.6221 -0.5299
 6028TIP3    H239644   0.630   2.686   0.848 -0.0898 -0.2686  0.8687
 6029TIP3   OH239645   1.858   4.712   0.985  0.4631  0.6497  0.7236
 6029TIP3    H139646   1.805   4.752   1.054 -1.1448 -0.5211  0.2126
 6029TIP3    H239647   1.800   4.648   0.944  2.6382 -1.5811  0.9191
 6030TIP3   OH239648   3.781   0.588   3.375 -0.3770  0.2029 -0.1465
 6030TIP3    H139649   3.864   0.550   3.403 -0.2545  1.2700  1.0680
 6030TIP3    H239650   3.716   0.522   3.399 -0.0286  0.0840  0.5196
 6031TIP3   OH239651   6.847   4.059   7.435  0.3302 -0.7720 -0.0431
 6031TIP3    H139652   6.835   4.110   7.355 -0.6478 -1.0406 -0.0728
 6031TIP3    H239653   6.864   3.970   7.405 -0.0281 -0.8713  0.0543
 6032TIP3   OH239654   1.872   2.165   1.908 -0.2899  0.4018 -0.1071
 6032TIP3    H139655   1.900   2.220   1.834 -2.3236  2.5579  0.5923
 6032TIP3    H239656   1.930   2.190   1.980 -0.1717  0.4401 -0.2154
 6033TIP3   OH239657   3.831   2.884   1.689 -0.4491  0.0264  1.1537
 6033TIP3    H139658   3.906   2.851   1.739  0.2490  1.3340  1.0042
 6033TIP3    H239659   3.846   2.853   1.599  1.0749  2.0020  0.6473
 6034TIP3   OH239660   1.929   4.050   7.395  0.0875 -0.0333 -0.5405
 6034TIP3    H139661   1.915   3.983   7.329  1.0370  1.8215 -2.7762
 6034TIP3    H239662   1.978   4.006   7.465  0.4655 -1.7115 -1.8096
 6035TIP3   OH239663   3.245   5.398   0.361  0.1151  0.4971  0.3461
 6035TIP3    H139664   3.187   5.328   0.390  0.3783  0.8306  1.7546
 6035TIP3    H239665   3.204   5.432   0.282 -1.2632  0.2928  0.9377
 6036TIP3   OH239666   3.665   4.698   8.432  0.1726 -0.4087 -0.6139
 6036TIP3    H139667   3.687   4.770   8.372 -1.3507 -0.2908 -1.0861
 6036TIP3    H239668   3.616   4.636   8.377  0.4058 -1.2183  0.0799
 6037TIP3   OH239669   6.829   4.998   0.449 -0.5797  0.4043 -0.0610
 6037TIP3    H139670   6.797   4.970   0.534  0.0565  0.7104  0.2868
 6037TIP3    H239671   6.813   5.093   0.447 -1.2865  0.2903 -0.5970
 6038TIP3   OH239672   6.874   5.395   0.241 -0.0341  0.1471 -0.0365
 6038TIP3    H139673   6.818   5.384   0.318 -1.6790  0.2616 -1.1603
 6038TIP3    H239674   6.896   5.305   0.214  0.6805  0.1113  0.6378
 6039TIP3   OH239675   1.040   3.709   8.074 -0.0118 -0.3631 -0.5372
 6039TIP3    H139676   0.956   3.665   8.089 -0.5388  0.3899 -1.2189
 6039TIP3    H239677   1.080   3.659   8.002  0.5008 -1.2162  0.3203
 6040TIP3   OH239678   4.931   3.865   2.219  0.4040  1.1455  0.0513
 6040TIP3    H139679   4.845   3.860   2.179  0.4654 -3.3730 -0.0802
 6040TIP3    H239680   4.915   3.870   2.313 -0.1310 -0.8012  0.1014
 6041TIP3   OH239681   1.155   3.595   1.059 -0.2536 -0.0606 -0.1851
 6041TIP3    H139682   1.221   3.526   1.052  0.1727  0.1348  1.4710
 6041TIP3    H239683   1.193   3.670   1.013  0.3784 -0.1677  0.1515
 6042TIP3   OH239684   0.753   4.674   0.269  0.0150 -0.4382  0.6029
 6042TIP3    H139685   0.809   4.601   0.297 -0.1988 -0.8203  0.0500
 6042TIP3    H239686   0.758   4.673   0.174 -0.3602 -0.0171  0.5758
 6043TIP3   OH239687   5.573   2.736   0.047 -0.0633 -0.0125 -0.3500
 6043TIP3    H139688   5.642   2.764  -0.013  1.2557  1.5664  1.7329
 6043TIP3    H239689   5.513   2.810   0.050 -0.8229 -0.6059 -0.6883
 6044TIP3   OH239690   5.293   1.638   0.961 -0.1246 -0.4447 -0.2313
 6044TIP3    H139691   5.385   1.635   0.934  0.0900  0.9074  0.2709
 6044TIP3    H239692   5.244   1.633   0.878  0.4236 -0.4430 -0.5631
 6045TIP3   OH239693   6.683   2.591   0.807 -0.5640  0.7331  0.6285
 6045TIP3    H139694   6.708   2.669   0.858 -3.2147  1.0778  1.5358
 6045TIP3    H239695   6.723   2.606   0.721 -0.1471  2.6000  1.0847
 6046TIP3   OH239696   0.792   3.589   8.103  0.1086  0.1878 -0.0937
 6046TIP3    H139697   0.726   3.569   8.036  1.0446  0.4328 -1.1148
 6046TIP3    H239698   0.759   3.667   8.146 -0.4573  0.0933 -0.3442
 6047TIP3   OH239699   1.244   0.424   2.705  0.4779 -0.3481 -0.5172
 6047TIP3    H139700   1.179   0.376   2.756  0.2748  1.5686  1.1313
 6047TIP3    H239701   1.302   0.462   2.770  0.4926  1.7949 -1.7165
 6048TIP3   OH239702   0.383   1.678   1.965 -0.4918  0.0576  0.2583
 6048TIP3    H139703   0.376   1.646   1.874  0.0559  0.7109 -0.0172
 6048TIP3    H239704   0.476   1.672   1.985 -0.5334  0.4971  0.5721
 6049TIP3   OH239705   1.793   6.019   2.504  0.3478  0.0955  0.2983
 6049TIP3    H139706   1.734   6.071   2.449 -1.4099 -2.5977 -0.6252
 6049TIP3    H239707   1.836   5.959   2.442 -0.3682 -1.8578  1.5910
 6050TIP3   OH239708   0.514   4.700   0.374 -0.4493  0.0355 -0.3674
 6050TIP3    H139709   0.483   4.784   0.341  0.1877  1.1295  1.6244
 6050TIP3    H239710   0.609   4.703   0.364 -0.4023 -0.3448 -0.0872
 6051TIP3   OH239711   2.270   4.236   8.271 -0.4012  0.8587  0.0546
 6051TIP3    H139712   2.317   4.270   8.195  1.2504 -1.6248 -0.1253
 6051TIP3    H239713   2.331   4.246   8.344 -1.2389  1.4208  0.7117
 6052TIP3   OH239714   5.048   6.561   2.392 -0.6478  0.7092 -0.1045
 6052TIP3    H139715   5.006   6.529   2.472 -3.5889 -0.3954 -1.9345
 6052TIP3    H239716   5.082   6.647   2.416 -2.2912  0.8489  2.0871
 6053TIP3   OH239717   6.769   0.864   8.053 -0.1091 -0.1062 -0.7150
 6053TIP3    H139718   6.775   0.953   8.020 -2.2051  0.6836  0.8405
 6053TIP3    H239719   6.816   0.866   8.136  0.8484 -0.7759 -1.2282
 6054TIP3   OH239720   1.360   6.762   1.992  0.1476 -0.0739 -0.5051
 6054TIP3    H139721   1.298   6.808   2.049 -0.3486 -1.3521  0.0225
 6054TIP3    H239722   1.316   6.756   1.908  0.5322  1.0665 -0.8070
 6055TIP3   OH239723   5.544   1.902   7.642  0.8589  0.2375  0.3835
 6055TIP3    H139724   5.558   1.823   7.694  0.7893  0.2977  0.4944
 6055TIP3    H239725   5.575   1.973   7.697  2.0070  0.1937 -0.1666
 6056TIP3   OH239726   4.100   5.060   1.445 -0.3174  0.0567  0.1977
 6056TIP3    H139727   4.168   5.010   1.401 -1.1391  0.3110 -1.4157
 6056TIP3    H239728   4.019   5.036   1.400 -0.9735  1.5329  0.5266
 6057TIP3   OH239729   2.233   1.073   2.909 -0.7717  0.2697 -0.1557
 6057TIP3    H139730   2.150   1.026   2.923  0.4237 -1.7937  0.4321
 6057TIP3    H239731   2.275   1.026   2.837  0.0768  1.0141 -0.1515
 6058TIP3   OH239732   1.886   6.805   1.331  0.6011  0.2117 -0.1240
 6058TIP3    H139733   1.925   6.893   1.328 -1.1752  1.0355 -1.0763
 6058TIP3    H239734   1.827   6.808   1.406  0.7030 -0.2552 -0.0263
 6059TIP3   OH239735   5.612   4.592   1.825  0.4473  0.0036 -0.1493
 6059TIP3    H139736   5.553   4.597   1.900  1.1512 -0.2775  0.4308
 6059TIP3    H239737   5.654   4.678   1.821  0.8306 -0.1700  0.1287
 6060TIP3   OH239738   5.352   4.550   0.941 -0.0223 -0.5644 -0.6885
 6060TIP3    H139739   5.348   4.642   0.916  0.4572  0.0399  1.3244
 6060TIP3    H239740   5.260   4.522   0.944 -0.2215  0.0963 -0.4739
 6061TIP3   OH239741   6.421   5.272   0.115 -0.2513  0.1320  0.5944
 6061TIP3    H139742   6.504   5.228   0.095 -0.9144 -0.3875 -1.3209
 6061TIP3    H239743   6.395   5.311   0.031 -2.1068 -0.0213  1.0703
 6062TIP3   OH239744   5.647   1.542   8.608 -0.2586 -0.0139  0.0070
 6062TIP3    H139745   5.577   1.596   8.571 -0.9564  0.1194  1.4721
 6062TIP3    H239746   5.697   1.513   8.531 -0.3072  2.0551 -0.8826
 6063TIP3   OH239747   2.695   5.458   0.908 -0.0945 -0.1677 -0.1765
 6063TIP3    H139748   2.641   5.536   0.904 -0.4303 -0.4355 -1.0696
 6063TIP3    H239749   2.662   5.402   0.838  2.1295  0.1789 -1.6313
 6064TIP3   OH239750   0.500   0.052   7.475  0.1039 -0.7491 -0.0765
 6064TIP3    H139751   0.531  -0.036   7.455 -1.2172 -1.3802  0.5502
 6064TIP3    H239752   0.566   0.110   7.436  1.6632 -2.0064  0.6043
 6065TIP3   OH239753   3.920   5.798   8.142  0.4355  0.1146  0.3273
 6065TIP3    H139754   3.984   5.727   8.145 -1.4056 -1.6652 -0.1085
 6065TIP3    H239755   3.899   5.808   8.049 -1.4166 -0.8543  0.5798
 6066TIP3   OH239756   3.160   3.709   0.306 -0.2864 -0.1245  0.7494
 6066TIP3    H139757   3.078   3.659   0.300  0.0853 -0.6152 -0.4333
 6066TIP3    H239758   3.143   3.773   0.376 -1.0390 -1.3916  1.7791
 6067TIP3   OH239759   6.522   5.915   7.917 -0.1809 -0.4318  0.0520
 6067TIP3    H139760   6.558   5.837   7.960  1.1080  0.3432  0.4471
 6067TIP3    H239761   6.593   5.946   7.860 -0.0579  1.2959  1.0534
 6068TIP3   OH239762   1.492   3.972   1.235 -0.3604 -0.1698  0.3145
 6068TIP3    H139763   1.462   4.049   1.187  0.5978  2.0249  2.9131
 6068TIP3    H239764   1.558   3.932   1.178 -1.3958  0.4719 -1.4012
 6069TIP3   OH239765   1.764   1.835   1.551 -0.0659 -0.0622 -0.2035
 6069TIP3    H139766   1.744   1.928   1.551  0.3069  0.0283  0.5402
 6069TIP3    H239767   1.717   1.800   1.476 -0.4865  0.6663 -0.2872
 6070TIP3   OH239768   4.162   0.609   0.235 -0.4859 -0.2524  0.0855
 6070TIP3    H139769   4.108   0.566   0.301 -0.2793 -1.5230 -0.5214
 6070TIP3    H239770   4.143   0.560   0.154 -0.3243  0.9028 -0.6715
 6071TIP3   OH239771   6.578   1.424   1.736 -0.1227 -0.5148  0.0856
 6071TIP3    H139772   6.650   1.469   1.781 -0.0791 -0.2837 -0.2190
 6071TIP3    H239773   6.524   1.390   1.808 -0.6926  0.8574  0.3390
 6072TIP3   OH239774   5.310   4.503   2.297 -0.8115 -0.5184 -0.5518
 6072TIP3    H139775   5.369   4.538   2.363 -1.6337 -1.5025  0.7495
 6072TIP3    H239776   5.236   4.564   2.295 -1.0479 -0.7887 -0.1462
 6073TIP3   OH239777   6.452   1.110   7.630 -0.7752  0.1736 -0.7337
 6073TIP3    H139778   6.481   1.164   7.556 -0.9428  0.0536 -0.8868
 6073TIP3    H239779   6.488   1.024   7.612  0.0230  0.3791 -0.1740
 6074TIP3   OH239780   1.233   2.972   8.417  0.5121 -0.0293 -0.7041
 6074TIP3    H139781   1.188   3.051   8.386  0.0495 -0.0262 -0.0576
 6074TIP3    H239782   1.255   2.991   8.508 -0.5484 -1.0295 -0.2135
 6075TIP3   OH239783   4.003   6.262   1.007 -0.8990 -0.2366  0.0605
 6075TIP3    H139784   3.935   6.269   1.074 -1.6216  1.9402 -0.8152
 6075TIP3    H239785   3.964   6.299   0.929  1.2348  0.9590 -0.5137
 6076TIP3   OH239786   5.347   6.266   7.387  0.0259  0.3562 -0.1828
 6076TIP3    H139787   5.417   6.322   7.354 -0.1062  1.4383  1.2806
 6076TIP3    H239788   5.272   6.285   7.330 -0.1078  1.9490  0.4727
 6077TIP3   OH239789   0.940   3.164   0.243 -0.2456  0.0070  0.1809
 6077TIP3    H139790   0.969   3.208   0.163 -0.4688  0.6126  0.4309
 6077TIP3    H239791   0.965   3.222   0.314 -0.2374 -0.4307  0.5407
 6078TIP3   OH239792   1.983   0.451   7.283  0.1879  0.0724 -0.0346
 6078TIP3    H139793   1.937   0.525   7.323 -0.7054  0.1793 -1.2128
 6078TIP3    H239794   1.969   0.379   7.343  0.3967  0.6577  0.7338
 6079TIP3   OH239795   1.975   0.261   2.219  0.2318  0.4812 -0.4898
 6079TIP3    H139796   1.936   0.239   2.134  1.8729  0.4379 -1.2777
 6079TIP3    H239797   1.986   0.177   2.263  2.2482  0.1039 -1.5816
 6080TIP3   OH239798   3.400   6.160   1.761  0.7278 -0.3092 -0.2819
 6080TIP3    H139799   3.405   6.094   1.830  1.0889 -0.4660 -0.4542
 6080TIP3    H239800   3.452   6.123   1.690  0.6119 -0.0082 -0.5218
 6081TIP3   OH239801   2.511   0.708   0.293 -0.3965  0.0712  0.5349
 6081TIP3    H139802   2.478   0.621   0.315 -0.6234  0.3912  1.5507
 6081TIP3    H239803   2.503   0.714   0.198 -1.8416 -0.4501  0.5983
 6082TIP3   OH239804   2.300   4.247   2.104 -0.1873 -0.1137  0.3888
 6082TIP3    H139805   2.233   4.263   2.038  0.4201 -0.4064 -0.3128
 6082TIP3    H239806   2.255   4.260   2.188 -0.6523  1.4956 -0.0833
 6083TIP3   OH239807   1.799   3.798   2.119 -0.2238 -0.3500  0.1157
 6083TIP3    H139808   1.729   3.737   2.138 -1.7015  0.0207 -3.3697
 6083TIP3    H239809   1.878   3.743   2.113 -0.2451 -0.8807  3.2508
 6084TIP3   OH239810   1.060   1.435   8.600 -0.0372  0.0490  0.3997
 6084TIP3    H139811   1.029   1.458   8.687  0.0497 -0.6533  0.6204
 6084TIP3    H239812   1.155   1.443   8.605  0.1387 -1.8978  0.9623
 6085TIP3   OH239813   0.455   1.298   2.848  0.0065  0.1103 -0.0384
 6085TIP3    H139814   0.470   1.222   2.904 -2.2443 -0.6346 -0.3207
 6085TIP3    H239815   0.482   1.373   2.900  0.4663 -0.7490  0.9990
 6086TIP3   OH239816   1.973   1.120   2.030  0.1713 -0.6776  0.0613
 6086TIP3    H139817   1.893   1.122   2.082 -0.0625  2.6947 -0.2072
 6086TIP3    H239818   1.956   1.055   1.962 -1.6602 -1.2333  0.9930
 6087TIP3   OH239819   0.440   6.414   7.519  0.3350 -0.4709  0.2716
 6087TIP3    H139820   0.432   6.330   7.474  0.0390  0.1489 -0.8891
 6087TIP3    H239821   0.532   6.437   7.511  0.2211 -0.2028 -0.3449
 6088TIP3   OH239822   2.654   3.256   7.027  0.4722  0.2974 -0.3419
 6088TIP3    H139823   2.646   3.319   6.956 -1.0333  3.5577  2.4287
 6088TIP3    H239824   2.589   3.188   7.008 -0.1003  1.2502 -1.9133
 6089TIP3   OH239825   3.349   1.081   1.977 -0.2401  0.1621 -0.6942
 6089TIP3    H139826   3.356   0.986   1.970 -1.9963 -0.0488 -0.1401
 6089TIP3    H239827   3.313   1.108   1.893  0.2026  0.3222 -0.8296
 6090TIP3   OH239828   3.547   0.374   7.047  0.3412  0.2248 -0.1728
 6090TIP3    H139829   3.524   0.283   7.025  0.9187  0.5695 -2.5475
 6090TIP3    H239830   3.468   0.409   7.088 -0.4949 -0.8962 -0.7366
 6091TIP3   OH239831   0.068   1.340   0.271 -0.1727  0.4720 -0.3566
 6091TIP3    H139832   0.065   1.423   0.224 -1.4412  0.1301 -0.9228
 6091TIP3    H239833   0.024   1.277   0.213  0.5248 -0.5427  0.1722
 6092TIP3   OH239834   1.545   4.753   1.527 -0.2129 -0.1081  0.0329
 6092TIP3    H139835   1.549   4.840   1.486  3.1728  0.6289  1.4835
 6092TIP3    H239836   1.553   4.771   1.621  0.4728 -1.9669  0.3751
 6093TIP3   OH239837   3.199   1.665   6.730  0.1762  0.4408  0.1052
 6093TIP3    H139838   3.167   1.747   6.692  0.5526  1.0179  0.9961
 6093TIP3    H239839   3.281   1.647   6.682  0.4049  0.9114  0.3157
 6094TIP3   OH239840   1.870   3.008   8.451 -0.2725 -0.4094 -0.5665
 6094TIP3    H139841   1.781   3.020   8.484 -0.7831  0.2819 -2.1022
 6094TIP3    H239842   1.871   3.055   8.368  1.1377 -1.5520 -1.2369
 6095TIP3   OH239843   4.029   2.659   7.581  0.1360  0.1424 -0.1041
 6095TIP3    H139844   3.987   2.650   7.667  2.6413 -1.1120  1.0851
 6095TIP3    H239845   4.040   2.569   7.551  0.7044  0.5084 -1.0322
 6096TIP3   OH239846   3.627   1.347   8.157  0.0788  0.0333 -0.1521
 6096TIP3    H139847   3.613   1.263   8.200  0.1411  0.6056  1.0312
 6096TIP3    H239848   3.655   1.406   8.228  0.0216  1.0543 -0.9513
 6097TIP3   OH239849   6.817   2.045   8.363 -0.1221  0.1120 -0.2242
 6097TIP3    H139850   6.802   2.124   8.311  0.2891  0.2294 -0.1708
 6097TIP3    H239851   6.803   1.972   8.302 -0.9797  0.2037 -0.1548
 6098TIP3   OH239852   2.285   0.813   2.177 -0.4233 -0.0181  0.4605
 6098TIP3    H139853   2.211   0.807   2.116  1.2369  0.1368 -1.6887
 6098TIP3    H239854   2.276   0.736   2.233 -0.9519 -1.2708 -1.2650
 6099TIP3   OH239855   5.045   0.499   2.843  0.0702 -0.2665  0.0238
 6099TIP3    H139856   5.075   0.570   2.786 -0.5496 -0.4478 -0.5426
 6099TIP3    H239857   4.950   0.512   2.847  0.0129 -0.7911  0.2922
 6100TIP3   OH239858   6.449   2.518   1.696 -0.1907  0.5273 -0.2103
 6100TIP3    H139859   6.384   2.506   1.766  0.3166  0.6764  0.2963
 6100TIP3    H239860   6.511   2.581   1.732  0.3230  0.2600 -0.6219
 6101TIP3   OH239861   5.662   4.549   1.265 -0.4026 -0.4874  0.0627
 6101TIP3    H139862   5.688   4.600   1.342  2.4125  0.0182 -1.1104
 6101TIP3    H239863   5.637   4.616   1.200  0.4580 -0.7227 -0.5235
 6102TIP3   OH239864   6.267   6.831   2.072  0.3659 -0.1882 -0.8894
 6102TIP3    H139865   6.220   6.793   1.998  0.1392  3.9167 -3.1187
 6102TIP3    H239866   6.221   6.912   2.091  2.6319  0.7126  1.3322
 6103TIP3   OH239867   2.004   2.696   2.229  0.1526  0.1408  0.4895
 6103TIP3    H139868   1.913   2.723   2.232  0.7104  2.1826  0.1854
 6103TIP3    H239869   2.012   2.631   2.298 -2.3445 -2.9121 -1.7645
 6104TIP3   OH239870   1.910   4.435   2.147 -0.1273 -0.2455 -0.0098
 6104TIP3    H139871   1.815   4.419   2.146 -0.5091  1.5763  1.5632
 6104TIP3    H239872   1.923   4.496   2.220  2.3070 -0.6670 -0.0177
 6105TIP3   OH239873   1.458   5.781   1.932  0.7672 -0.3197 -0.0415
 6105TIP3    H139874   1.373   5.775   1.975  0.4242  1.1171 -0.4688
 6105TIP3    H239875   1.472   5.695   1.893 -0.9522 -0.3003 -0.7722
 6106TIP3   OH239876   5.553   0.737   8.374 -0.6956  0.4778 -0.3508
 6106TIP3    H139877   5.484   0.785   8.328 -1.6592  0.7084  1.2543
 6106TIP3    H239878   5.571   0.790   8.452  0.7896  0.0368 -0.3609
 6107TIP3   OH239879   3.323   6.484   1.272  0.5560  0.2698  0.2993
 6107TIP3    H139880   3.283   6.569   1.292 -0.3653 -0.1357  0.2181
 6107TIP3    H239881   3.362   6.456   1.354 -1.6542 -0.5471  1.1672
 6108TIP3   OH239882   1.923   3.846   7.187 -0.0831  0.1083  0.4351
 6108TIP3    H139883   2.015   3.838   7.161 -0.5368  0.2346 -1.3444
 6108TIP3    H239884   1.880   3.770   7.146 -0.8579  0.3377  0.8103
 6109TIP3   OH239885   4.969   4.404   8.360 -0.3014 -0.3509 -0.2406
 6109TIP3    H139886   4.958   4.454   8.279  0.8455 -0.2571 -0.3540
 6109TIP3    H239887   5.058   4.370   8.356  0.2134  0.6502  1.5208
 6110TIP3   OH239888   4.933   5.112   2.041  0.3224  0.3501 -0.5964
 6110TIP3    H139889   4.898   5.035   2.085  1.5144  0.2734  0.2899
 6110TIP3    H239890   4.971   5.078   1.960  1.1539 -0.0801 -0.0464
 6111TIP3   OH239891   2.097   4.815   6.728  0.1521  0.3580 -0.6585
 6111TIP3    H139892   2.182   4.786   6.697 -0.6298 -0.4836 -2.0959
 6111TIP3    H239893   2.117   4.878   6.797  1.9525  1.1290 -1.8203
 6112TIP3   OH239894   6.231   1.206   1.260 -0.1873 -0.4707  0.3670
 6112TIP3    H139895   6.277   1.151   1.324 -0.8195 -0.6511  0.6699
 6112TIP3    H239896   6.214   1.148   1.186  2.5079  0.2703 -0.9666
 6113TIP3   OH239897   0.484   3.252   1.128  0.0674  0.6838  0.3089
 6113TIP3    H139898   0.538   3.176   1.149 -0.4418  0.1595 -0.2465
 6113TIP3    H239899   0.496   3.312   1.202  2.3349  1.1107 -0.3472
 6114TIP3   OH239900   3.895   5.391   2.665 -0.2103  0.2405  0.0778
 6114TIP3    H139901   3.875   5.423   2.577  0.2502  0.8931  0.2009
 6114TIP3    H239902   3.984   5.422   2.683 -0.1328 -0.2608  0.6037
 6115TIP3   OH239903   1.517   6.444   0.058  0.0482 -0.0710  0.0830
 6115TIP3    H139904   1.522   6.356   0.020  0.7556  0.1412 -0.3242
 6115TIP3    H239905   1.477   6.430   0.145  2.4582 -1.1548  1.0939
 6116TIP3   OH239906   1.982   4.068   2.060  0.2312  0.1402 -0.3058
 6116TIP3    H139907   1.921   4.117   2.115  0.5283 -0.7012  0.8104
 6116TIP3    H239908   1.957   3.976   2.073 -0.8506 -0.0421 -2.9796
 6117TIP3   OH239909   4.386   2.534   2.220 -0.0344 -0.5424  0.4171
 6117TIP3    H139910   4.356   2.620   2.250  0.8982  0.3193 -1.0217
 6117TIP3    H239911   4.468   2.519   2.268  1.3997  0.7892 -1.4485
 6118TIP3   OH239912   5.446   3.133   1.555  0.0674  0.0441  0.1746
 6118TIP3    H139913   5.523   3.077   1.555  1.4459  1.8214 -0.1348
 6118TIP3    H239914   5.481   3.222   1.567 -2.0166  0.8307  1.0204
 6119TIP3   OH239915   4.006   0.424   7.416  0.0217 -0.2451  0.3232
 6119TIP3    H139916   3.934   0.372   7.383 -1.0269  0.4112  1.5113
 6119TIP3    H239917   4.036   0.474   7.340 -0.8920 -0.3942 -0.1440
 6120TIP3   OH239918   4.006   5.157   6.682 -0.0603 -0.3887 -0.5046
 6120TIP3    H139919   4.056   5.208   6.619  1.1337 -0.2221  0.5222
 6120TIP3    H239920   3.976   5.080   6.633  1.6770 -0.7637 -1.0455
 6121TIP3   OH239921   6.809   0.690   1.278  0.8797  0.1865  0.0448
 6121TIP3    H139922   6.895   0.732   1.280  0.5601  0.8701 -0.1593
 6121TIP3    H239923   6.782   0.695   1.186  0.8103 -0.4258  0.0271
 6122TIP3   OH239924   2.544   0.505   1.064  0.5058 -0.1345  0.0800
 6122TIP3    H139925   2.496   0.423   1.062  0.9045 -0.3533 -0.9629
 6122TIP3    H239926   2.632   0.483   1.033  0.4440  0.7820 -0.7960
 6123TIP3   OH239927   5.367   4.238   1.534  0.0332 -0.0459 -0.2362
 6123TIP3    H139928   5.392   4.161   1.584  0.5303  0.1653 -0.1532
 6123TIP3    H239929   5.386   4.216   1.443 -0.1466 -0.1440 -0.2510
 6124TIP3   OH239930   3.772   1.158   7.001 -0.4115  0.0460 -0.4200
 6124TIP3    H139931   3.756   1.067   6.976 -0.5101  0.3706 -1.5983
 6124TIP3    H239932   3.863   1.175   6.978  0.1068 -0.2158  1.3165
 6125TIP3   OH239933   3.990   1.791   7.939 -0.0393 -0.1524 -0.9084
 6125TIP3    H139934   4.060   1.838   7.984 -0.6862  0.2254 -0.2793
 6125TIP3    H239935   4.035   1.729   7.882  0.7939 -0.6712  0.2826
 6126TIP3   OH239936   2.606   1.709   2.624  0.4484 -0.1247 -0.1692
 6126TIP3    H139937   2.562   1.718   2.709 -2.5343 -2.0794 -1.2953
 6126TIP3    H239938   2.699   1.712   2.644 -0.1413  1.0356  2.9402
 6127TIP3   OH239939   0.174   2.786   2.377  0.4112 -0.2712 -0.4407
 6127TIP3    H139940   0.120   2.844   2.430  0.1196 -0.6589 -0.3121
 6127TIP3    H239941   0.207   2.721   2.439 -0.8871 -1.4291 -0.9351
 6128TIP3   OH239942   5.499   2.420   1.827  0.2507  0.4192  0.1641
 6128TIP3    H139943   5.420   2.424   1.774 -0.9784 -0.7250  1.8171
 6128TIP3    H239944   5.533   2.331   1.813  0.3379  0.3685  0.6725
 6129TIP3   OH239945   0.515   4.702   0.870 -0.4181 -0.2409 -0.4997
 6129TIP3    H139946   0.507   4.606   0.862  0.6358 -0.6832  2.5816
 6129TIP3    H239947   0.602   4.721   0.835 -1.6416  0.1004 -3.7211
 6130TIP3   OH239948   0.373   4.318   6.959 -0.9185  0.3767  0.7845
 6130TIP3    H139949   0.318   4.359   6.892 -2.7550 -0.1881  1.8708
 6130TIP3    H239950   0.434   4.387   6.985  0.3851  0.4007 -1.9310
 6131TIP3   OH239951   1.797   1.316   6.919  0.0460 -0.3290  0.0620
 6131TIP3    H139952   1.840   1.231   6.916 -0.6789 -0.6834 -0.5085
 6131TIP3    H239953   1.707   1.297   6.945 -0.3015  0.1840 -0.7234
 6132TIP3   OH239954   0.432   3.664   1.244 -0.3389 -0.0137  0.6645
 6132TIP3    H139955   0.352   3.711   1.268 -0.1661  0.2818  0.6745
 6132TIP3    H239956   0.457   3.702   1.160 -0.0504  0.0979  0.8016
 6133TIP3   OH239957   4.967   4.057   7.821 -0.0166  0.4820 -0.2075
 6133TIP3    H139958   4.973   4.141   7.776  1.1044 -0.0239 -1.0471
 6133TIP3    H239959   4.943   3.994   7.753 -1.1588  0.1510  0.4754
 6134TIP3   OH239960   2.798   4.408   2.867 -0.5609  0.8549 -0.1970
 6134TIP3    H139961   2.820   4.475   2.802  1.4961  0.1857 -0.2438
 6134TIP3    H239962   2.882   4.378   2.901 -1.2592 -2.8957 -1.3458
 6135TIP3   OH239963   0.208   4.475   8.059 -0.0130  0.0992 -0.5083
 6135TIP3    H139964   0.266   4.398   8.065 -2.4781 -1.7927  1.0406
 6135TIP3    H239965   0.176   4.486   8.148 -1.2153  1.7507 -1.1209
 6136TIP3   OH239966   3.591   3.827   2.920 -0.1709 -0.1733  0.3923
 6136TIP3    H139967   3.550   3.911   2.901  1.5466  0.2573 -1.7696
 6136TIP3    H239968   3.672   3.849   2.966  0.1242 -0.6796  0.1283
 6137TIP3   OH239969   4.723   1.703   0.896  0.6287  0.0703  0.2870
 6137TIP3    H139970   4.674   1.651   0.961 -0.3011  0.5980  0.0344
 6137TIP3    H239971   4.791   1.644   0.865  0.9384 -0.2859  1.5592
 6138TIP3   OH239972   3.688   1.564   7.875  0.1267 -0.3982  0.2244
 6138TIP3    H139973   3.652   1.613   7.949  1.0872  0.0186  0.4228
 6138TIP3    H239974   3.611   1.541   7.823 -0.4082  0.9225  0.3741
 6139TIP3   OH239975   6.400   0.724   0.772  0.0647 -0.2375  0.4107
 6139TIP3    H139976   6.411   0.630   0.789  2.5065  0.1916  1.5287
 6139TIP3    H239977   6.440   0.737   0.686  1.2460  0.0188  0.9816
 6140TIP3   OH239978   6.837   0.113   1.230  0.1145 -0.5752 -0.2975
 6140TIP3    H139979   6.928   0.103   1.256  0.2598  2.8762  1.0534
 6140TIP3    H239980   6.787   0.101   1.311 -0.4174 -0.2805 -0.5713
 6141TIP3   OH239981   6.079   5.775   0.715 -0.0510 -0.0667 -0.1623
 6141TIP3    H139982   6.108   5.864   0.696  1.6773 -0.2114  1.4570
 6141TIP3    H239983   6.160   5.723   0.714 -0.8559 -1.3767  0.1681
 6142TIP3   OH239984   2.379   3.377   2.020 -0.4655  0.1592 -0.1663
 6142TIP3    H139985   2.376   3.473   2.028  0.0162  0.0702  1.5951
 6142TIP3    H239986   2.333   3.346   2.098  0.5059 -1.0312 -0.0477
 6143TIP3   OH239987   1.653   5.435   0.523 -0.2774 -0.4422 -0.0267
 6143TIP3    H139988   1.601   5.466   0.449  0.1430  0.8661  0.1847
 6143TIP3    H239989   1.646   5.340   0.520 -2.3320 -0.3227 -0.2311
 6144TIP3   OH239990   3.610   6.421   0.390  0.3410  0.3826  0.1464
 6144TIP3    H139991   3.540   6.408   0.454 -0.0809  1.3166 -0.1102
 6144TIP3    H239992   3.665   6.490   0.428  0.3743  0.5845 -0.2610
 6145TIP3   OH239993   6.397   6.443   7.109  0.9544  0.4362  0.2898
 6145TIP3    H139994   6.416   6.381   7.038  0.1184  1.2185 -0.6615
 6145TIP3    H239995   6.301   6.448   7.110  1.0003  1.3423  0.6808
 6146TIP3   OH239996   1.954   5.253   7.833  0.0942 -0.1311 -0.5737
 6146TIP3    H139997   1.934   5.172   7.881  0.9572 -0.2456 -0.3945
 6146TIP3    H239998   1.956   5.321   7.900 -2.0464  0.3338 -0.8898
 6147TIP3   OH239999   4.306   6.554   0.579 -0.2296 -0.2532 -0.0573
 6147TIP3    H140000   4.311   6.513   0.492  0.6559 -0.3919  0.0513
 6147TIP3    H240001   4.221   6.528   0.613 -0.2429 -0.8710 -0.5499
 6148TIP3   OH240002   3.301   0.577   6.940 -0.9921 -0.1239  0.1548
 6148TIP3    H140003   3.237   0.599   7.007  0.6475 -0.5832  1.9810
 6148TIP3    H240004   3.353   0.657   6.929 -0.1348 -0.5719  0.7978
 6149TIP3   OH240005   5.153   5.271   1.980  0.3939 -0.3600 -0.4748
 6149TIP3    H140006   5.068   5.252   2.019 -0.0111 -0.4453 -1.3685
 6149TIP3    H240007   5.138   5.265   1.886  0.8284  1.8926 -0.7581
 6150TIP3   OH240008   1.399   2.706   8.450  0.2090  0.5035  0.2435
 6150TIP3    H140009   1.377   2.766   8.521 -0.8921  1.7479 -1.0923
 6150TIP3    H240010   1.321   2.703   8.395  0.7402 -1.0553 -0.5064
 6151TIP3   OH240011   4.920   6.365   8.561  0.6305 -0.2969 -0.3992
 6151TIP3    H140012   4.835   6.395   8.528  1.3312  1.0565 -1.0576
 6151TIP3    H240013   4.944   6.429   8.627  1.8219  0.2245 -1.3010
 6152TIP3   OH240014   1.069   6.414   7.202  0.3660  0.6823 -0.2149
 6152TIP3    H140015   1.061   6.467   7.281 -0.9179 -2.8631  2.2711
 6152TIP3    H240016   0.984   6.422   7.159  0.5090  1.3176 -0.4000
 6153TIP3   OH240017   2.757   3.641   0.044  0.3613  0.7274  0.4178
 6153TIP3    H140018   2.774   3.589  -0.035  0.5513 -0.1373  1.0108
 6153TIP3    H240019   2.673   3.684   0.028  0.9509  1.4928 -0.7274
 6154TIP3   OH240020   3.159   5.564   1.211 -0.4749  0.2494  0.4589
 6154TIP3    H140021   3.136   5.642   1.262 -1.4572  1.2042 -1.3516
 6154TIP3    H240022   3.075   5.527   1.185 -0.0908  1.2116 -2.5001
 6155TIP3   OH240023   0.251   5.104   8.451  0.4273 -0.5787  0.2279
 6155TIP3    H140024   0.163   5.139   8.459  0.6915 -0.0747  1.0451
 6155TIP3    H240025   0.267   5.059   8.535 -0.0968 -3.1645 -0.9556
 6156TIP3   OH240026   2.519   4.616   1.444  0.5755  0.2239 -0.4070
 6156TIP3    H140027   2.431   4.612   1.482  0.4085  1.3791 -0.6445
 6156TIP3    H240028   2.574   4.568   1.507  0.0913  1.0358  0.6627
 6157TIP3   OH240029   1.394   5.867   1.032  0.5973  0.2186 -0.3854
 6157TIP3    H140030   1.338   5.932   1.076 -1.6798 -1.6554 -0.3235
 6157TIP3    H240031   1.404   5.797   1.097  1.8607 -0.1378 -0.9400
 6158TIP3   OH240032   4.815   0.748   2.738  0.4069 -0.2378  0.0352
 6158TIP3    H140033   4.804   0.812   2.809 -0.2349 -1.2779  0.9095
 6158TIP3    H240034   4.775   0.668   2.772  2.2855 -1.4768 -0.5377
 6159TIP3   OH240035   1.801   2.875   8.087  0.2629  0.0322  0.2315
 6159TIP3    H140036   1.855   2.921   8.023  0.8801  1.0335  1.4259
 6159TIP3    H240037   1.839   2.787   8.093  1.9892  0.7970  1.2512
 6160TIP3   OH240038   3.320   0.015   2.069 -0.6644 -0.3152  0.2409
 6160TIP3    H140039   3.352  -0.039   1.998 -0.1210 -0.3099  0.4811
 6160TIP3    H240040   3.367   0.098   2.061 -0.0195 -0.5861  1.0610
 6161TIP3   OH240041   5.918   2.931   8.238  0.1934  0.0410  0.2107
 6161TIP3    H140042   5.828   2.907   8.221 -0.3877  2.3247 -0.3055
 6161TIP3    H240043   5.956   2.945   8.151  1.5449 -2.3165  0.3356
 6162TIP3   OH240044   6.490   4.826   0.416  0.3500  0.0442 -0.1803
 6162TIP3    H140045   6.473   4.766   0.489 -0.5947 -0.7485 -1.0231
 6162TIP3    H240046   6.563   4.879   0.446 -0.3968  0.1504  1.5872
 6163TIP3   OH240047   3.805   3.651   2.687  0.0336  0.0706  0.2030
 6163TIP3    H140048   3.891   3.639   2.728 -0.4581 -0.1029  1.2343
 6163TIP3    H240049   3.782   3.742   2.706  0.5918  0.5513 -1.3094
 6164TIP3   OH240050   2.947   4.847   1.103  0.7288  0.2233 -0.0659
 6164TIP3    H140051   2.973   4.923   1.051 -0.5283 -0.0737 -1.1943
 6164TIP3    H240052   3.030   4.804   1.126  1.4401  1.7783  0.3949
 6165TIP3   OH240053   4.373   6.422   7.152 -0.0470 -0.3249 -0.1497
 6165TIP3    H140054   4.466   6.402   7.147  0.5520  1.4068  2.0706
 6165TIP3    H240055   4.356   6.479   7.077  0.5256 -1.0840 -0.8723
 6166TIP3   OH240056   0.394   4.956   1.627  0.0906  0.1003 -0.4167
 6166TIP3    H140057   0.323   4.904   1.589 -1.0250  0.7138  0.7461
 6166TIP3    H240058   0.421   4.906   1.704  1.3878 -0.4452 -1.1901
 6167TIP3   OH240059   5.395   6.416   2.802  0.0954  0.2951  0.4877
 6167TIP3    H140060   5.407   6.430   2.708  2.6006 -1.5577  0.4314
 6167TIP3    H240061   5.429   6.328   2.818 -0.3674  0.5062  3.1325
 6168TIP3   OH240062   5.015   5.184   8.219  0.7172 -0.0501 -0.1128
 6168TIP3    H140063   5.025   5.184   8.314  1.2257 -0.8153 -0.1564
 6168TIP3    H240064   4.921   5.177   8.205  0.5527  1.1021  0.3259
 6169TIP3   OH240065   1.418   5.190   1.904  0.2548 -0.1600  0.3593
 6169TIP3    H140066   1.326   5.196   1.930  0.4106 -1.3172  1.2704
 6169TIP3    H240067   1.420   5.225   1.815 -0.8290  1.1364  0.8012
 6170TIP3   OH240068   6.260   4.004   0.304 -0.3334 -0.0988 -0.4553
 6170TIP3    H140069   6.233   4.093   0.281  1.9491  0.7325 -0.1481
 6170TIP3    H240070   6.239   3.952   0.226 -2.5155  0.4590 -0.3163
 6171TIP3   OH240071   5.672   6.390   1.997 -0.0663 -0.1921 -0.2993
 6171TIP3    H140072   5.610   6.319   2.010 -1.5872  0.9744 -0.8527
 6171TIP3    H240073   5.754   6.357   2.033 -0.5580 -2.4317 -1.0251
 6172TIP3   OH240074   3.534   5.672   7.960  0.7164  0.7027  0.4262
 6172TIP3    H140075   3.548   5.764   7.937 -0.0378  0.6856 -0.1524
 6172TIP3    H240076   3.447   5.652   7.926  0.8437 -0.2083  0.6128
 6173TIP3   OH240077   1.177   6.835   1.461 -0.0369 -0.9249 -0.7033
 6173TIP3    H140078   1.269   6.832   1.432  1.1065  3.2797  1.6767
 6173TIP3    H240079   1.134   6.892   1.398  0.0468  0.2823  0.2881
 6174TIP3   OH240080   4.603   2.175   2.626 -0.0186 -0.0972 -0.5819
 6174TIP3    H140081   4.655   2.130   2.692  0.2363 -0.2489 -0.8853
 6174TIP3    H240082   4.660   2.246   2.595 -0.3833  0.3897 -0.1678
 6175TIP3   OH240083   1.817   3.145   8.214 -0.0697  0.6170  0.0786
 6175TIP3    H140084   1.747   3.196   8.173 -1.2169  0.3179  1.5835
 6175TIP3    H240085   1.824   3.066   8.160  0.2797  1.4006 -1.0494
 6176TIP3   OH240086   1.039   2.529   2.482 -0.9080  0.4909  0.1619
 6176TIP3    H140087   1.118   2.476   2.495  0.7306  2.2664 -1.7703
 6176TIP3    H240088   1.018   2.562   2.569  0.4945 -0.0126  0.7261
 6177TIP3   OH240089   3.051   1.308   7.781 -0.3799 -0.0250  0.1698
 6177TIP3    H140090   3.070   1.260   7.701 -0.2352  0.4924 -0.1099
 6177TIP3    H240091   3.111   1.382   7.780 -1.0262  0.5124  0.2776
 6178TIP3   OH240092   3.663   4.366   6.793 -0.0474  0.3526  0.3402
 6178TIP3    H140093   3.696   4.377   6.882 -0.2927 -0.0468  0.4800
 6178TIP3    H240094   3.657   4.272   6.780 -1.7256  0.4019  0.5478
 6179TIP3   OH240095   0.283   4.836   0.511 -0.6338  0.8259 -0.0385
 6179TIP3    H140096   0.246   4.782   0.441  0.1134 -0.3324  0.4300
 6179TIP3    H240097   0.372   4.803   0.522 -0.2572  1.9684  0.4790
 6180TIP3   OH240098   6.423   4.437   7.475 -0.2462  0.2506 -0.3694
 6180TIP3    H140099   6.475   4.401   7.403 -0.2345 -1.1065  0.3002
 6180TIP3    H240100   6.484   4.441   7.549 -0.6286  0.2928 -0.0546
 6181TIP3   OH240101   5.911   4.671   2.778 -0.3449 -0.1467 -0.2947
 6181TIP3    H140102   5.855   4.733   2.730  0.2334 -0.3359 -1.2486
 6181TIP3    H240103   5.889   4.586   2.741  1.4777 -0.0966 -1.6629
 6182TIP3   OH240104   5.383   0.245   2.246  0.2955  0.9175 -0.1706
 6182TIP3    H140105   5.383   0.154   2.216  1.4824  1.0829 -0.7389
 6182TIP3    H240106   5.473   0.274   2.235  0.0291  2.0367  0.4195
 6183TIP3   OH240107   3.838   3.493   2.442 -0.4011 -0.0016  0.5738
 6183TIP3    H140108   3.816   3.522   2.530  0.7421  0.3084  0.7739
 6183TIP3    H240109   3.933   3.507   2.435 -0.0800 -2.0805  0.0702
 6184TIP3   OH240110   3.952   0.904   7.939  0.2794 -0.0047 -0.8798
 6184TIP3    H140111   4.044   0.926   7.933  0.0543  1.3626  0.1509
 6184TIP3    H240112   3.935   0.849   7.863  2.0231 -0.6145 -0.8645
 6185TIP3   OH240113   1.106   4.425   3.051  0.0225 -0.0680 -0.0580
 6185TIP3    H140114   1.140   4.386   2.970 -0.1326  1.5565 -0.9603
 6185TIP3    H240115   1.182   4.467   3.091 -0.2138  0.5520 -0.2447
 6186TIP3   OH240116   5.156   3.822   7.874 -0.1420 -0.5382 -0.2241
 6186TIP3    H140117   5.188   3.818   7.964 -3.4140  0.7714  1.1646
 6186TIP3    H240118   5.188   3.906   7.842 -2.2758  0.9905  1.3144
 6187TIP3   OH240119   1.817   3.227   2.304  0.5719  0.3442  0.3457
 6187TIP3    H140120   1.804   3.287   2.231 -0.7392 -1.8547 -1.3594
 6187TIP3    H240121   1.729   3.204   2.334  0.9945 -1.1610  0.5346
 6188TIP3   OH240122   2.956   4.532   7.048 -0.5909 -0.8560  0.2265
 6188TIP3    H140123   2.888   4.555   7.112 -0.1625  0.6545  0.1868
 6188TIP3    H240124   2.995   4.616   7.024 -0.5331 -1.4113 -1.8137
 6189TIP3   OH240125   6.152   0.118   7.153  0.1468 -0.0685 -0.0822
 6189TIP3    H140126   6.123   0.032   7.184  1.5984 -0.4680  0.2304
 6189TIP3    H240127   6.146   0.174   7.230  1.0878 -0.3858  0.2357
 6190TIP3   OH240128   6.509   1.370   1.182  0.5283  0.5110  0.4189
 6190TIP3    H140129   6.499   1.276   1.168  0.8481  0.6076 -0.5368
 6190TIP3    H240130   6.487   1.383   1.274 -0.9813 -0.2819  0.1999
 6191TIP3   OH240131   2.438   6.634   0.824  0.8380  0.0462 -0.3718
 6191TIP3    H140132   2.511   6.573   0.838 -0.6670 -1.6705  0.4496
 6191TIP3    H240133   2.405   6.611   0.737 -0.5606 -1.3182  0.4695
 6192TIP3   OH240134   1.558   2.348   0.547  1.0869 -0.4548  0.4037
 6192TIP3    H140135   1.599   2.377   0.465  0.2243 -0.5304 -0.0736
 6192TIP3    H240136   1.501   2.420   0.572 -0.3044 -1.2905 -0.2455
 6193TIP3   OH240137   4.425   0.646   0.339  0.1330 -0.0797  0.2687
 6193TIP3    H140138   4.438   0.740   0.349  0.7905  0.1193 -1.8484
 6193TIP3    H240139   4.338   0.637   0.301  0.9404 -0.0869 -1.7183
 6194TIP3   OH240140   3.138   4.156   1.081  0.3556 -0.1413  0.1571
 6194TIP3    H140141   3.098   4.071   1.101 -1.7359  0.5264 -0.9357
 6194TIP3    H240142   3.143   4.200   1.166  1.7053 -1.3996  0.7772
 6195TIP3   OH240143   4.352   3.857   7.603  0.8503 -0.0977  0.4276
 6195TIP3    H140144   4.267   3.853   7.646  1.8960 -2.3423  2.6014
 6195TIP3    H240145   4.415   3.858   7.676  2.7062 -0.1880 -1.0885
 6196TIP3   OH240146   2.158   6.360   6.999  0.0493 -0.1216  0.3638
 6196TIP3    H140147   2.171   6.322   6.912  2.7707 -2.5869  1.6617
 6196TIP3    H240148   2.242   6.403   7.018 -0.9862  1.5663  1.2813
 6197TIP3   OH240149   0.162   0.671   7.673  0.0154  0.4009  0.7366
 6197TIP3    H140150   0.070   0.693   7.663  0.0753  0.5816  0.5647
 6197TIP3    H240151   0.166   0.619   7.752  0.0142  1.8493  1.7276
 6198TIP3   OH240152   2.385   1.950   7.894  0.0835 -0.0534  0.1757
 6198TIP3    H140153   2.310   1.984   7.846 -0.2267 -0.1500  0.5933
 6198TIP3    H240154   2.400   2.014   7.964 -1.2226 -1.3353  1.6899
 6199TIP3   OH240155   4.648   3.465   1.318  0.0134 -0.9324  0.2246
 6199TIP3    H140156   4.562   3.465   1.276  1.4231 -1.1520 -2.9051
 6199TIP3    H240157   4.644   3.538   1.381 -2.2099 -0.5102 -0.3225
 6200TIP3   OH240158   0.924   4.696   0.531 -0.3218 -0.5919 -0.5752
 6200TIP3    H140159   0.929   4.781   0.574 -0.8708 -0.7154 -0.2517
 6200TIP3    H240160   0.989   4.700   0.461  0.7325 -0.4583  0.3829
 6201TIP3   OH240161   6.096   4.669   2.029 -0.0159  0.5937  0.5551
 6201TIP3    H140162   6.128   4.655   1.940  1.0338  1.0722  0.8383
 6201TIP3    H240163   6.140   4.601   2.081 -0.0551  0.7725  0.8233
 6202TIP3   OH240164   1.735   5.831   1.997  0.0460 -0.2945 -0.2734
 6202TIP3    H140165   1.641   5.830   1.978 -0.0814 -2.9854  0.1352
 6202TIP3    H240166   1.766   5.914   1.961 -2.1486 -0.1626 -2.0511
 6203TIP3   OH240167   0.567   3.251   2.949 -0.5277 -0.0884  0.2499
 6203TIP3    H140168   0.612   3.305   2.884  0.4034 -1.5785 -0.4104
 6203TIP3    H240169   0.561   3.306   3.026 -0.8654  1.4244 -0.8112
 6204TIP3   OH240170   3.164   2.559   1.315 -0.2022 -0.5780  0.3041
 6204TIP3    H140171   3.253   2.565   1.352 -0.9894 -0.1071  2.2308
 6204TIP3    H240172   3.122   2.491   1.366 -0.2178 -2.7771 -2.3723
 6205TIP3   OH240173   5.989   0.749   3.336  0.2210  0.6181  0.1125
 6205TIP3    H140174   5.904   0.715   3.309  0.7113 -1.3186  0.8030
 6205TIP3    H240175   6.053   0.699   3.285  0.9697  1.6504  0.0041
 6206TIP3   OH240176   3.032   4.404   8.425  0.1696  0.2750 -0.9344
 6206TIP3    H140177   3.001   4.482   8.379  0.1860  0.4079 -0.7215
 6206TIP3    H240178   3.081   4.438   8.500 -0.0245  0.0598 -0.7087
 6207TIP3   OH240179   0.007   0.484   1.896 -0.4210  0.1331 -0.5186
 6207TIP3    H140180  -0.023   0.497   1.806 -0.8670 -0.5493 -0.4807
 6207TIP3    H240181   0.063   0.559   1.914  1.6324 -0.9028 -2.1767
 6208TIP3   OH240182   6.701   2.662   2.183 -0.2752 -0.0014  0.1127
 6208TIP3    H140183   6.641   2.588   2.175 -1.6143  1.0905 -0.3192
 6208TIP3    H240184   6.758   2.655   2.106 -0.5197 -0.4712 -0.0284
 6209TIP3   OH240185   6.104   2.073   1.218  0.4646  0.0541  0.8892
 6209TIP3    H140186   6.190   2.067   1.175  0.1299  1.4402 -0.0526
 6209TIP3    H240187   6.046   2.106   1.150 -0.6112  0.0675  1.7914
 6210TIP3   OH240188   1.495   2.764   0.777 -0.4038  0.3585 -0.2160
 6210TIP3    H140189   1.563   2.788   0.840  0.4583 -1.5300 -0.3732
 6210TIP3    H240190   1.502   2.831   0.708 -0.7130  1.8888  1.1725
 6211TIP3   OH240191   3.576   0.637   0.210 -0.0047  0.3449 -0.0916
 6211TIP3    H140192   3.629   0.697   0.159 -0.4904 -0.5779 -1.7480
 6211TIP3    H240193   3.639   0.578   0.252  0.4744  1.9030  1.5216
 6212TIP3   OH240194   5.891   0.750   7.755 -0.1572 -0.1887  0.6270
 6212TIP3    H140195   5.984   0.774   7.767 -0.3104  0.6601  0.2068
 6212TIP3    H240196   5.893   0.672   7.700  0.2775  0.6331 -0.5659
 6213TIP3   OH240197   2.765   1.485   1.618 -0.4817  0.3445  0.2381
 6213TIP3    H140198   2.711   1.407   1.620 -1.4807  1.0264  0.8849
 6213TIP3    H240199   2.787   1.501   1.710 -1.5698  1.6595  0.3031
 6214TIP3   OH240200   0.061   0.844   1.037 -0.8218  0.1894 -0.0865
 6214TIP3    H140201   0.081   0.849   0.943 -0.4107  0.5275  0.0140
 6214TIP3    H240202   0.108   0.767   1.068 -0.8559  0.1489 -0.1358
 6215TIP3   OH240203   4.202   5.322   2.505 -0.1446 -0.5332  0.4981
 6215TIP3    H140204   4.293   5.328   2.475  0.0574 -2.2767  0.6548
 6215TIP3    H240205   4.183   5.407   2.543  1.2112  0.0677 -0.1270
 6216TIP3   OH240206   4.869   6.810   6.819 -0.4195  0.4633  0.0052
 6216TIP3    H140207   4.878   6.863   6.898  3.6012  0.4191 -0.1805
 6216TIP3    H240208   4.832   6.728   6.850 -1.0437  1.2384  1.4261
 6217TIP3   OH240209   1.347   1.547   1.554 -0.2975 -0.3932 -0.2068
 6217TIP3    H140210   1.264   1.507   1.530 -0.3591 -0.7353  0.5392
 6217TIP3    H240211   1.394   1.559   1.471 -0.9314 -0.5497 -0.5893
 6218TIP3   OH240212   5.495   1.010   1.890 -0.0725  0.2148  0.1326
 6218TIP3    H140213   5.410   1.047   1.914 -0.8416 -1.9224  0.8491
 6218TIP3    H240214   5.519   1.057   1.810 -2.8784 -0.4745 -1.2304
 6219TIP3   OH240215   2.705   2.585   2.979  0.1860 -0.5378 -0.1506
 6219TIP3    H140216   2.780   2.556   2.927  1.8813  0.8439  1.3883
 6219TIP3    H240217   2.689   2.675   2.951 -0.3676 -0.5512  0.1065
 6220TIP3   OH240218   6.794   1.193   2.298  0.6924  0.7361  0.2175
 6220TIP3    H140219   6.719   1.135   2.307  1.8485 -0.7537  0.7343
 6220TIP3    H240220   6.757   1.278   2.276 -1.2050  0.2819  1.4690
 6221TIP3   OH240221   0.203   3.569   0.670 -0.1487  0.2344  0.0896
 6221TIP3    H140222   0.237   3.658   0.672 -1.8820  1.0666 -2.5071
 6221TIP3    H240223   0.273   3.518   0.627  0.1587  0.7045  0.0201
 6222TIP3   OH240224   6.179   1.372   1.475  0.1045 -0.3047  0.5039
 6222TIP3    H140225   6.103   1.411   1.431 -0.4789 -1.3241  0.5934
 6222TIP3    H240226   6.219   1.316   1.408 -0.3619 -1.2914  1.0341
 6223TIP3   OH240227   2.430   5.142   2.112  0.2134  0.2136  0.2536
 6223TIP3    H140228   2.441   5.095   2.195  1.0870 -3.1358 -1.5496
 6223TIP3    H240229   2.519   5.169   2.088  0.2332 -0.4102 -0.3983
 6224TIP3   OH240230   4.986   4.675   1.328 -0.2777  0.1215 -0.1438
 6224TIP3    H140231   5.022   4.586   1.331  0.2338  0.2930 -0.8146
 6224TIP3    H240232   4.896   4.666   1.359  0.2556 -0.3539  1.3550
 6225TIP3   OH240233   3.248   1.747   1.774 -0.2960  0.3481 -0.3314
 6225TIP3    H140234   3.280   1.781   1.857  0.6618  0.5766 -0.7776
 6225TIP3    H240235   3.223   1.825   1.725  0.4774  0.3158 -0.7874
 6226TIP3   OH240236   1.703   3.967   2.775  0.2688  0.0059  0.5601
 6226TIP3    H140237   1.658   3.885   2.758 -0.9377  1.2211 -3.2225
 6226TIP3    H240238   1.786   3.959   2.727  0.2646  0.8854  0.3893
 6227TIP3   OH240239   5.430   5.866   6.908 -0.2837 -0.3555 -0.0360
 6227TIP3    H140240   5.335   5.877   6.911 -0.0171  3.7851 -0.8527
 6227TIP3    H240241   5.458   5.868   6.999 -0.9100 -1.2952  0.1899
 6228TIP3   OH240242   1.423   3.506   1.400 -0.5086 -0.0773 -0.2029
 6228TIP3    H140243   1.509   3.492   1.360  0.8425 -1.7797  2.9104
 6228TIP3    H240244   1.427   3.594   1.437 -0.3166  0.0712 -0.5806
 6229TIP3   OH240245   0.776   2.455   2.945 -0.0117 -0.5702  0.0037
 6229TIP3    H140246   0.768   2.481   2.854 -1.4291  1.5283  0.6384
 6229TIP3    H240247   0.868   2.430   2.955  1.3971  3.4003 -1.0565
 6230TIP3   OH240248   6.667   4.880   2.593  0.2657 -0.1815 -0.8313
 6230TIP3    H140249   6.612   4.956   2.574 -0.6772 -0.5002  0.5096
 6230TIP3    H240250   6.753   4.905   2.561 -0.4117  0.7530 -2.0160
 6231TIP3   OH240251   5.664   1.477   0.691 -0.3154  0.4096 -0.8465
 6231TIP3    H140252   5.722   1.482   0.615  0.7476  0.7820 -0.0348
 6231TIP3    H240253   5.663   1.384   0.713  2.2853  0.6605  0.8081
 6232TIP3   OH240254   3.290   2.018   7.967  0.1217  0.3610  0.1382
 6232TIP3    H140255   3.246   2.087   7.918 -1.6757 -2.8388 -3.3154
 6232TIP3    H240256   3.382   2.042   7.966 -0.6348  3.8687  1.4395
 6233TIP3   OH240257   6.710   0.251   1.021 -0.1231 -0.5322  0.3693
 6233TIP3    H140258   6.789   0.222   1.066  0.3787 -1.0977 -0.8185
 6233TIP3    H240259   6.638   0.232   1.082  0.7077  0.8263  1.8435
 6234TIP3   OH240260   2.480   5.518   2.557 -0.4622  0.1411 -0.1635
 6234TIP3    H140261   2.569   5.542   2.530  0.0670  0.2309  1.5506
 6234TIP3    H240262   2.492   5.450   2.623 -1.7261 -0.5063 -0.5576
 6235TIP3   OH240263   6.701   3.551   8.589 -0.0508 -0.2424  0.1098
 6235TIP3    H140264   6.686   3.457   8.592 -0.8370 -0.1145  0.3713
 6235TIP3    H240265   6.793   3.560   8.564  0.0037 -1.0743 -0.0076
 6236TIP3   OH240266   6.766   1.597   0.241 -0.0570  0.5903  0.8113
 6236TIP3    H140267   6.786   1.615   0.149  1.8254  0.4346  1.1411
 6236TIP3    H240268   6.755   1.683   0.280 -0.2611  0.6769  0.5668
 6237TIP3   OH240269   3.892   1.293   7.217 -0.0410 -0.1712 -0.0561
 6237TIP3    H140270   3.909   1.208   7.258 -0.9499 -0.8056 -0.9085
 6237TIP3    H240271   3.837   1.271   7.141  1.8376  0.8960 -1.8136
 6238TIP3   OH240272   1.772   1.033   1.556 -0.6932  0.0334  0.2754
 6238TIP3    H140273   1.701   1.093   1.535 -0.6496  0.1472  0.4464
 6238TIP3    H240274   1.848   1.067   1.509 -0.6941  0.0512  0.2869
 6239TIP3   OH240275   0.350   1.127   1.866 -0.2877 -0.2663  0.6294
 6239TIP3    H140276   0.420   1.175   1.821  0.2542 -2.1859 -0.7464
 6239TIP3    H240277   0.277   1.127   1.803  0.1530 -2.2112  0.0646
 6240TIP3   OH240278   3.289   6.451   8.397 -0.0555 -0.4869 -0.2389
 6240TIP3    H140279   3.236   6.392   8.344  0.4048 -0.7389 -0.4197
 6240TIP3    H240280   3.341   6.502   8.334 -0.0741 -0.2481 -0.0641
 6241TIP3   OH240281   3.631   0.179   0.686 -0.1075  0.1154 -0.2737
 6241TIP3    H140282   3.568   0.220   0.744  0.9907  0.3844  0.7622
 6241TIP3    H240283   3.717   0.198   0.725  0.6527  0.0519 -1.8087
 6242TIP3   OH240284   5.403   3.974   2.656  0.1880 -0.0634 -0.0944
 6242TIP3    H140285   5.442   4.018   2.732  1.6022 -0.6058 -0.4804
 6242TIP3    H240286   5.453   4.007   2.582 -1.2528  0.5477 -0.8483
 6243TIP3   OH240287   1.948   6.456   1.399  0.4104  0.4665  0.2034
 6243TIP3    H140288   1.980   6.523   1.337  1.9116 -1.1024 -0.8234
 6243TIP3    H240289   1.865   6.427   1.362  0.5910  0.5717 -0.3056
 6244TIP3   OH240290   3.030   3.424   8.040 -0.7104  0.0956 -0.0435
 6244TIP3    H140291   3.105   3.464   7.996  0.9492 -2.5895  0.1286
 6244TIP3    H240292   3.050   3.429   8.133 -0.2403 -1.4697 -0.0376
 6245TIP3   OH240293   6.354   3.467   8.576  0.7677 -0.6165 -0.2805
 6245TIP3    H140294   6.347   3.539   8.639  2.3636 -1.3380  0.7858
 6245TIP3    H240295   6.289   3.404   8.606  1.5262 -0.9611  0.6974
 6246TIP3   OH240296   2.736   0.333   7.381  0.1360  0.3197 -0.3125
 6246TIP3    H140297   2.750   0.250   7.337  0.5229 -0.4466  1.1832
 6246TIP3    H240298   2.775   0.322   7.468 -0.5702  1.7544  0.2398
 6247TIP3   OH240299   2.498   1.113   8.216  0.6469 -0.4100 -0.2757
 6247TIP3    H140300   2.496   1.104   8.120 -0.9783 -2.4264 -0.1212
 6247TIP3    H240301   2.568   1.054   8.243 -0.0605 -1.2113 -0.1468
 6248TIP3   OH240302   3.125   3.191   1.038 -0.0447  0.3589 -0.2047
 6248TIP3    H140303   3.105   3.171   1.129 -0.4588  1.2007 -0.1027
 6248TIP3    H240304   3.039   3.201   0.997  0.0961 -1.3476 -1.0069
 6249TIP3   OH240305   3.410   1.006   7.386 -0.6150  0.1682  0.6307
 6249TIP3    H140306   3.453   0.954   7.318  0.0757  0.1042  1.0981
 6249TIP3    H240307   3.334   0.954   7.412 -0.5237 -0.1045  0.3480
 6250TIP3   OH240308   3.807   1.206   8.409  0.4770  0.0258 -0.4731
 6250TIP3    H140309   3.875   1.153   8.367 -0.1102 -1.2775  0.1693
 6250TIP3    H240310   3.725   1.162   8.386 -0.2309  1.7724 -1.5421
 6251TIP3   OH240311   0.311   5.030   2.582  0.1673 -0.2361 -0.9629
 6251TIP3    H140312   0.316   5.109   2.529 -1.1663  0.8912  0.4844
 6251TIP3    H240313   0.387   5.036   2.641 -0.5181  0.5967 -0.1136
 6252TIP3   OH240314   2.667   6.699   8.149 -0.0182  0.0536 -0.5904
 6252TIP3    H140315   2.672   6.634   8.219 -4.4458  0.1991  0.1771
 6252TIP3    H240316   2.696   6.653   8.070  3.2378 -0.6885  0.8847
 6253TIP3   OH240317   4.992   3.557   1.537  0.1530  0.0103 -0.0815
 6253TIP3    H140318   5.082   3.525   1.541  0.2461  0.2320 -0.3955
 6253TIP3    H240319   4.945   3.491   1.486  0.0306 -0.3497  0.4934
 6254TIP3   OH240320   6.211   1.184   7.147 -0.2721 -0.1122 -0.7296
 6254TIP3    H140321   6.155   1.232   7.208 -1.0929 -0.3183 -1.3058
 6254TIP3    H240322   6.300   1.206   7.173 -0.5893 -0.7296  0.9647
 6255TIP3   OH240323   1.581   5.470   0.828  0.2625 -0.4450  0.4079
 6255TIP3    H140324   1.522   5.544   0.847  1.9652  1.0857  0.0699
 6255TIP3    H240325   1.609   5.486   0.737  1.1579 -1.1346  0.5543
 6256TIP3   OH240326   5.329   1.952   7.887  0.0539  0.1134  0.4756
 6256TIP3    H140327   5.256   1.974   7.828  2.3196 -2.0919 -3.6616
 6256TIP3    H240328   5.303   1.870   7.928 -0.0740 -0.4409 -0.6558
 6257TIP3   OH240329   2.079   2.632   1.243  0.3682 -0.5954 -0.2100
 6257TIP3    H140330   2.057   2.585   1.163  0.1737 -1.6842  0.4695
 6257TIP3    H240331   2.016   2.601   1.308 -0.9690  1.9335 -0.1598
 6258TIP3   OH240332   4.392   4.521   0.248 -0.1053  0.0263  0.5474
 6258TIP3    H140333   4.445   4.571   0.186 -2.1050 -0.2055 -1.4796
 6258TIP3    H240334   4.310   4.570   0.255 -1.5430 -2.1099 -0.3156
 6259TIP3   OH240335   2.464   0.316   1.910 -0.7008 -0.3223  0.2006
 6259TIP3    H140336   2.374   0.329   1.940 -1.4853 -1.4198 -1.5407
 6259TIP3    H240337   2.481   0.388   1.850 -0.3106  0.0151  0.7037
 6260TIP3   OH240338   0.085   2.162   0.545 -0.6395 -0.0873  0.5086
 6260TIP3    H140339   0.177   2.149   0.569 -0.7980  1.0024  1.8271
 6260TIP3    H240340   0.076   2.117   0.461  1.1092 -0.1694  0.3204
 6261TIP3   OH240341   4.532   6.007   8.010  0.2693  0.1935  0.3890
 6261TIP3    H140342   4.513   6.006   7.916 -0.4720 -1.7267  0.5025
 6261TIP3    H240343   4.616   6.051   8.018 -0.2384  1.5033 -1.0325
 6262TIP3   OH240344   2.244   1.721   0.102 -0.4061  0.2785  0.2600
 6262TIP3    H140345   2.174   1.671   0.060 -0.2175 -1.8338  2.2498
 6262TIP3    H240346   2.211   1.810   0.104 -1.8678 -0.1612 -1.2143
 6263TIP3   OH240347   1.728   4.993   0.255 -0.1819  0.1672  0.2210
 6263TIP3    H140348   1.731   5.051   0.179  0.9494 -0.4816 -0.2646
 6263TIP3    H240349   1.645   5.013   0.298 -1.5901 -0.4858 -2.0217
 6264TIP3   OH240350   4.815   5.101   1.326  0.3153 -0.3288 -0.6879
 6264TIP3    H140351   4.803   5.059   1.411  0.7799  0.6854 -0.1047
 6264TIP3    H240352   4.856   5.185   1.346  2.5064 -0.9823 -2.0600
 6265TIP3   OH240353   4.758   2.737   7.567  0.6305  0.2870  0.0177
 6265TIP3    H140354   4.839   2.718   7.521  0.1424  0.0388 -0.7608
 6265TIP3    H240355   4.704   2.783   7.502  0.2405  0.6645  0.5994
 6266TIP3   OH240356   2.372   5.022   7.899  0.3353  0.1506  0.3681
 6266TIP3    H140357   2.304   4.956   7.907  0.1201  0.4098  0.6884
 6266TIP3    H240358   2.332   5.102   7.933  0.4065  0.5777 -0.5112
 6267TIP3   OH240359   4.572   5.088   2.176 -0.3424 -0.2694 -0.2104
 6267TIP3    H140360   4.595   5.158   2.236  0.8993  0.2325 -1.2210
 6267TIP3    H240361   4.482   5.107   2.149  0.2316  1.4161 -1.0719
 6268TIP3   OH240362   3.513   1.969   2.221 -0.5316 -0.4048  0.3719
 6268TIP3    H140363   3.572   1.928   2.284  0.2723  1.6435  1.0288
 6268TIP3    H240364   3.562   1.968   2.138  0.8162  1.9232  1.0654
 6269TIP3   OH240365   5.884   5.726   0.529  0.3209 -0.2461 -0.1467
 6269TIP3    H140366   5.968   5.739   0.574  1.5331 -3.1936 -1.3526
 6269TIP3    H240367   5.822   5.706   0.600  0.5068  2.0007  0.7600
 6270TIP3   OH240368   6.349   4.495   0.922 -0.8251  0.0309 -0.5005
 6270TIP3    H140369   6.315   4.410   0.892 -0.3896 -0.0255 -0.8434
 6270TIP3    H240370   6.294   4.559   0.877 -0.5298 -0.0616 -1.0008
 6271TIP3   OH240371   1.849   4.841   2.189  0.3065 -0.0159 -0.0508
 6271TIP3    H140372   1.782   4.896   2.147  0.3301 -0.0120 -0.0829
 6271TIP3    H240373   1.863   4.882   2.274  0.9836  0.5490 -0.4323
 6272TIP3   OH240374   5.859   2.523   2.452 -0.3287  0.2111  0.0790
 6272TIP3    H140375   5.890   2.613   2.460 -0.9682  0.4315  0.1327
 6272TIP3    H240376   5.868   2.503   2.358 -0.7880  0.5562 -0.0416
 6273TIP3   OH240377   5.605   2.730   0.354  0.0544  0.3425  0.5021
 6273TIP3    H140378   5.688   2.695   0.324  0.4879  1.4007  0.4413
 6273TIP3    H240379   5.594   2.812   0.306 -1.1203  0.1308  0.3662
 6274TIP3   OH240380   3.273   2.228   1.729 -0.5725  0.3837 -0.5884
 6274TIP3    H140381   3.367   2.238   1.715 -0.8098  0.6643 -2.1548
 6274TIP3    H240382   3.253   2.142   1.692 -0.8401  0.0752  0.2691
 6275TIP3   OH240383   4.190   1.829   0.779 -0.5247 -0.4411  0.0453
 6275TIP3    H140384   4.113   1.791   0.736  0.6830 -1.3824 -1.3723
 6275TIP3    H240385   4.163   1.919   0.800 -1.1201  0.2094 -2.9896
 6276TIP3   OH240386   5.790   0.519   2.323 -0.6287  0.6392  0.0981
 6276TIP3    H140387   5.860   0.549   2.382 -0.3591  0.4962 -0.1461
 6276TIP3    H240388   5.711   0.523   2.376 -0.4415  0.8462  0.3653
 6277TIP3   OH240389   5.236   0.809   1.277 -0.1915  0.0950 -0.0073
 6277TIP3    H140390   5.196   0.896   1.269  3.1826  1.7405 -1.2182
 6277TIP3    H240391   5.178   0.750   1.230 -2.3693  1.7423  0.4756
 6278TIP3   OH240392   0.669   3.901   2.782 -0.5151 -0.4352  0.1765
 6278TIP3    H140393   0.645   3.977   2.836 -1.4523 -1.5245  1.3662
 6278TIP3    H240394   0.742   3.862   2.829 -1.6246 -1.6495  0.9635
 6279TIP3   OH240395   0.409   2.387   7.245  0.0285 -0.0303  0.7717
 6279TIP3    H140396   0.419   2.387   7.149 -1.9502  1.4788  0.5032
 6279TIP3    H240397   0.479   2.328   7.276  1.4507  0.3227 -1.4916
 6280TIP3   OH240398   1.108   6.778   1.193  0.3832 -0.0674  0.7596
 6280TIP3    H140399   1.027   6.821   1.222  1.4503  1.5743  1.4266
 6280TIP3    H240400   1.152   6.845   1.139  0.6469 -1.4336 -0.7966
 6281TIP3   OH240401   5.020   3.048   1.973  0.4682 -0.3617  0.3836
 6281TIP3    H140402   4.948   3.049   1.909  0.3260  0.6361  0.5362
 6281TIP3    H240403   5.078   2.978   1.943 -0.1103 -0.5835 -0.2548
 6282TIP3   OH240404   2.867   6.532   0.290 -0.2772  0.1007  0.3252
 6282TIP3    H140405   2.874   6.512   0.383 -0.9515  1.7018  0.7562
 6282TIP3    H240406   2.898   6.453   0.246 -1.5328 -1.3105  1.8683
 6283TIP3   OH240407   0.771   0.684   1.118 -0.1437 -0.1279 -0.2198
 6283TIP3    H140408   0.799   0.740   1.190  1.1101  0.8243 -1.3842
 6283TIP3    H240409   0.811   0.599   1.137 -0.2436 -0.0290  0.4538
 6284TIP3   OH240410   0.593   3.513   7.874 -0.1569 -0.1034 -0.2368
 6284TIP3    H140411   0.546   3.438   7.911 -2.0713  1.1358 -0.0326
 6284TIP3    H240412   0.531   3.586   7.879  1.5534  1.4707 -0.6308
 6285TIP3   OH240413   2.496   3.735   0.953 -0.2370 -0.3802 -0.9242
 6285TIP3    H140414   2.509   3.661   1.011  1.6960 -0.4912 -1.4460
 6285TIP3    H240415   2.476   3.808   1.011  1.4100 -0.5367 -0.1035
 6286TIP3   OH240416   1.618   1.066   0.347  0.0808  0.2683 -0.3658
 6286TIP3    H140417   1.700   1.043   0.303  0.2622 -0.4185  0.3179
 6286TIP3    H240418   1.550   1.019   0.298  0.3889 -1.3479  0.6886
 6287TIP3   OH240419   1.451   2.197   0.329 -0.4335  0.1130  0.0666
 6287TIP3    H140420   1.508   2.271   0.352 -1.7913  1.4849 -0.7239
 6287TIP3    H240421   1.366   2.238   0.312 -1.1948 -1.6430 -0.5320
 6288TIP3   OH240422   1.797   2.403   0.730  0.2492  0.3376  0.1120
 6288TIP3    H140423   1.706   2.405   0.698 -0.2405 -1.6055  1.2101
 6288TIP3    H240424   1.791   2.363   0.817  1.9603  2.0244  1.0773
 6289TIP3   OH240425   1.917   3.970   1.608  0.8378 -0.0783  0.4218
 6289TIP3    H140426   1.838   3.969   1.554  0.4157  1.8612  0.9360
 6289TIP3    H240427   1.886   3.952   1.697  0.6293  2.4770  0.9404
 6290TIP3   OH240428   0.337   0.554   0.884  0.2727  0.0425  0.0708
 6290TIP3    H140429   0.408   0.517   0.937 -0.0825 -0.7760 -0.0091
 6290TIP3    H240430   0.354   0.648   0.884  1.9157 -0.2045 -0.7374
 6291TIP3   OH240431   2.330   6.595   0.568 -0.5704  0.0925 -0.3224
 6291TIP3    H140432   2.292   6.645   0.497  0.4896  1.1569 -0.1796
 6291TIP3    H240433   2.301   6.505   0.553 -0.0578  0.2072 -2.3409
 6292TIP3   OH240434   1.530   0.919   7.694  0.1683  0.2039 -0.1317
 6292TIP3    H140435   1.470   0.854   7.658  0.1922 -1.3184  2.3536
 6292TIP3    H240436   1.604   0.869   7.727  1.1647  1.7154  0.0515
 6293TIP3   OH240437   0.497   2.737   2.494 -0.4359  0.2243 -0.2693
 6293TIP3    H140438   0.403   2.720   2.507 -0.7623  0.3608 -2.1450
 6293TIP3    H240439   0.540   2.656   2.523 -1.0703  0.3407  1.0661
 6294TIP3   OH240440   0.811   5.355   1.451  0.1082 -0.9159  0.0101
 6294TIP3    H140441   0.789   5.435   1.500 -0.7671 -0.6467 -0.7888
 6294TIP3    H240442   0.778   5.284   1.506 -2.9381 -0.5309 -1.0991
 6295TIP3   OH240443   3.425   6.793   1.844 -0.6092 -0.5170 -0.0777
 6295TIP3    H140444   3.514   6.824   1.862  0.1825 -2.5389 -0.1783
 6295TIP3    H240445   3.425   6.703   1.876 -2.3362 -0.8839 -1.0014
 6296TIP3   OH240446   5.748   2.132   1.877 -0.4603  0.1434 -0.1234
 6296TIP3    H140447   5.809   2.076   1.829 -0.0955 -0.8676  1.4566
 6296TIP3    H240448   5.678   2.150   1.815  0.3443 -0.5037 -1.2591
 6297TIP3   OH240449   2.574   5.783   7.817  0.1608  0.4549 -0.0582
 6297TIP3    H140450   2.624   5.778   7.898 -0.9093  0.8383  0.6540
 6297TIP3    H240451   2.627   5.838   7.759  0.6667  0.6752  0.6005
 6298TIP3   OH240452   2.828   2.524   1.946 -0.1254 -0.0764 -0.6899
 6298TIP3    H140453   2.874   2.575   2.013 -3.3179  0.1680  1.5649
 6298TIP3    H240454   2.841   2.433   1.972 -1.9254  0.0335  0.8483
 6299TIP3   OH240455   6.424   4.917   7.194 -0.2961  0.0167  0.1947
 6299TIP3    H140456   6.356   4.972   7.234 -1.3051  1.3905 -3.1249
 6299TIP3    H240457   6.506   4.960   7.216 -0.9751  2.0335 -0.9807
 6300TIP3   OH240458   0.150   6.371   0.288 -0.1032 -0.0568  0.0779
 6300TIP3    H140459   0.197   6.295   0.321  0.7548  0.8617  1.0280
 6300TIP3    H240460   0.095   6.399   0.362 -0.9689 -0.1700 -0.5029
 6301TIP3   OH240461   5.467   2.833   2.071 -0.2399 -0.1011  0.0010
 6301TIP3    H140462   5.391   2.853   2.017  0.8847  0.4895 -1.4145
 6301TIP3    H240463   5.431   2.826   2.160 -2.0642 -0.6766 -0.7227
 6302TIP3   OH240464   5.419   2.362   7.642  0.2332  0.1833 -0.3875
 6302TIP3    H140465   5.389   2.437   7.693 -0.2286 -0.3955  0.1996
 6302TIP3    H240466   5.409   2.390   7.551  2.9380  1.9972 -0.2544
 6303TIP3   OH240467   4.582   1.299   0.952 -0.3247  0.1580  0.1820
 6303TIP3    H140468   4.663   1.260   0.984 -0.6574 -1.9309 -1.3095
 6303TIP3    H240469   4.609   1.350   0.875 -0.1070  1.7153  1.2437
 6304TIP3   OH240470   1.359   3.086   0.747  0.1136  0.2924 -0.3306
 6304TIP3    H140471   1.324   3.144   0.814  0.8111  1.4302 -0.9189
 6304TIP3    H240472   1.287   3.026   0.727 -0.4673  0.6564  0.6131
 6305TIP3   OH240473   4.135   3.032   0.903  0.1635  0.3627  0.5027
 6305TIP3    H140474   4.070   3.005   0.968  0.6520 -0.1183  0.7931
 6305TIP3    H240475   4.190   2.955   0.890 -0.1618  0.3172 -0.7800
 6306TIP3   OH240476   3.832   5.010   2.872 -0.1201 -0.6945 -0.4068
 6306TIP3    H140477   3.897   4.981   2.936 -0.6654 -0.8462  0.0968
 6306TIP3    H240478   3.751   4.968   2.901 -0.2518 -1.3083 -1.5913
 6307TIP3   OH240479   0.866   5.738   0.560 -0.4390 -0.0570 -0.3631
 6307TIP3    H140480   0.814   5.668   0.599 -0.0642 -0.4848 -0.6257
 6307TIP3    H240481   0.803   5.789   0.508 -0.7773  0.0153  0.1136
 6308TIP3   OH240482   0.478   5.041   7.968 -0.1005  0.4468  0.1382
 6308TIP3    H140483   0.498   5.029   7.875  0.8972 -1.3537  0.5320
 6308TIP3    H240484   0.428   4.962   7.991 -0.5301  0.9890  1.0918
 6309TIP3   OH240485   3.910   4.495   1.688  0.5545  0.0985 -0.3847
 6309TIP3    H140486   3.853   4.460   1.756  0.6174  0.0252 -0.3694
 6309TIP3    H240487   3.964   4.561   1.732 -0.5966  1.3233 -0.7208
 6310TIP3   OH240488   2.355   4.156   2.500 -0.4498 -0.2474 -0.0043
 6310TIP3    H140489   2.287   4.128   2.562 -0.7687 -0.7377 -0.5698
 6310TIP3    H240490   2.437   4.137   2.545 -0.6585  1.2759  1.1146
 6311TIP3   OH240491   4.613   0.002   8.053  0.1046  0.3447  0.2926
 6311TIP3    H140492   4.543   0.015   8.117  0.2823  4.3351 -0.0894
 6311TIP3    H240493   4.694   0.007   8.104  0.1846  1.4043  0.0969
 6312TIP3   OH240494   2.927   1.495   0.477  0.4240 -0.2638 -0.2725
 6312TIP3    H140495   2.835   1.498   0.502  0.3989 -2.1911 -0.0137
 6312TIP3    H240496   2.941   1.576   0.428 -1.1745  0.4703  0.4183
 6313TIP3   OH240497   1.554   5.769   0.266 -0.0470  0.5551  0.2649
 6313TIP3    H140498   1.613   5.696   0.249 -0.6693 -0.2556  1.4698
 6313TIP3    H240499   1.474   5.729   0.299 -1.3863  1.6115 -1.5084
 6314TIP3   OH240500   3.798   5.809   6.731 -0.1116 -0.3723  0.4236
 6314TIP3    H140501   3.787   5.904   6.743 -1.7212 -0.4913  0.0494
 6314TIP3    H240502   3.810   5.776   6.820 -1.4181 -0.0113  0.7646
 6315TIP3   OH240503   0.200   4.736   1.551  0.2566 -0.2230  0.5063
 6315TIP3    H140504   0.130   4.783   1.504  0.2626  0.3553  1.0602
 6315TIP3    H240505   0.165   4.722   1.638 -0.3348 -2.6017 -0.0421
 6316TIP3   OH240506   5.595   6.567   8.100 -0.2652  0.0091  0.1765
 6316TIP3    H140507   5.634   6.506   8.038  1.6701  0.6935  0.6660
 6316TIP3    H240508   5.508   6.531   8.118 -0.6594 -0.5511 -2.4062
 6317TIP3   OH240509   5.107   4.842   7.853 -0.0558  0.1565  0.2315
 6317TIP3    H140510   5.166   4.794   7.911 -1.1796 -0.4727  0.9009
 6317TIP3    H240511   5.106   4.791   7.772  1.1960  0.8060 -0.2055
 6318TIP3   OH240512   0.547   3.681   8.509  0.5069 -0.4019 -0.0772
 6318TIP3    H140513   0.610   3.641   8.570  0.9570 -2.9324 -2.0103
 6318TIP3    H240514   0.601   3.735   8.451  0.1984  1.2208  1.0641
 6319TIP3   OH240515   3.845   5.579   2.428 -0.1819 -0.8244  0.7841
 6319TIP3    H140516   3.884   5.664   2.408 -0.8494 -0.2410  1.8546
 6319TIP3    H240517   3.754   5.599   2.449 -0.7363 -2.0014 -0.3848
 6320TIP3   OH240518   0.659   3.678   0.535  0.1200 -0.1127 -0.4642
 6320TIP3    H140519   0.667   3.591   0.495 -0.6442 -0.5853  0.3560
 6320TIP3    H240520   0.748   3.701   0.562  0.4370 -0.3352 -1.2987
 6321TIP3   OH240521   2.814   6.767   2.569  0.3958 -0.3181 -0.5437
 6321TIP3    H140522   2.867   6.842   2.597  0.1448  0.0739 -1.0995
 6321TIP3    H240523   2.867   6.691   2.591  0.3774 -0.0224  0.6380
 6322TIP3   OH240524   6.618   2.853   7.399  0.0778  0.2582 -0.0634
 6322TIP3    H140525   6.597   2.853   7.306  0.3225  0.9256 -0.1201
 6322TIP3    H240526   6.542   2.814   7.441 -0.5326  1.0525 -0.4271
 6323TIP3   OH240527   4.757   5.661   1.526 -0.9639 -0.5230  0.4429
 6323TIP3    H140528   4.668   5.677   1.556 -1.3004 -1.2571 -0.1404
 6323TIP3    H240529   4.748   5.595   1.457  0.1033 -1.2567  0.9658
 6324TIP3   OH240530   0.183   6.234   8.284 -0.2464 -0.0644  0.5554
 6324TIP3    H140531   0.119   6.197   8.224 -0.1321  2.9408 -1.6959
 6324TIP3    H240532   0.139   6.239   8.368 -2.6342  0.9012 -0.6705
 6325TIP3   OH240533   3.294   1.808   2.248 -0.0668  0.0901 -0.5792
 6325TIP3    H140534   3.373   1.861   2.244  1.2140 -1.7930 -2.2317
 6325TIP3    H240535   3.309   1.737   2.186 -2.3787 -1.2794  0.2747
 6326TIP3   OH240536   0.246   3.183   1.831 -0.0448 -0.4012 -0.1579
 6326TIP3    H140537   0.211   3.143   1.751 -1.7282  1.3768 -0.3609
 6326TIP3    H240538   0.329   3.222   1.803  0.4964 -1.7231 -0.4814
 6327TIP3   OH240539   2.492   2.494   8.483  0.1504  0.3152 -0.7171
 6327TIP3    H140540   2.456   2.582   8.477  0.0533  0.3922  0.7400
 6327TIP3    H240541   2.532   2.489   8.570 -0.5717 -1.3223 -0.4166
 6328TIP3   OH240542   2.715   5.874   6.616  0.2555  0.5565  0.1961
 6328TIP3    H140543   2.753   5.837   6.696  0.6530  1.7535  0.5894
 6328TIP3    H240544   2.624   5.891   6.638  0.0430 -0.2586 -0.0209
 6329TIP3   OH240545   6.013   3.961   0.485 -0.7468  0.4595  0.7624
 6329TIP3    H140546   6.064   3.963   0.404 -1.9070 -0.1117 -0.0004
 6329TIP3    H240547   5.958   4.039   0.481 -1.3458  0.0390  0.6277
 6330TIP3   OH240548   6.781   6.875   8.417  0.4178  0.0366 -0.3012
 6330TIP3    H140549   6.757   6.899   8.507 -0.5786 -1.2610 -0.1816
 6330TIP3    H240550   6.818   6.786   8.425  2.1883  0.6756 -0.9465
 6331TIP3   OH240551   5.513   5.229   1.884  1.3245  0.4601  0.2062
 6331TIP3    H140552   5.577   5.249   1.815 -0.4941 -0.8745 -2.0249
 6331TIP3    H240553   5.485   5.140   1.865 -0.8167  0.8158  1.3900
 6332TIP3   OH240554   4.337   4.716   7.312  0.1635 -0.4472 -0.5438
 6332TIP3    H140555   4.317   4.705   7.219 -1.1005 -2.1615 -0.0978
 6332TIP3    H240556   4.414   4.660   7.326  0.4459 -0.0719 -0.5697
 6333TIP3   OH240557   1.358   3.473   1.717  0.0752 -0.3477 -0.0246
 6333TIP3    H140558   1.265   3.470   1.737  0.1951  0.7719  0.7848
 6333TIP3    H240559   1.362   3.472   1.621 -0.9613  2.8378 -0.1923
 6334TIP3   OH240560   5.028   0.134   1.304 -0.1415  1.1814 -0.5359
 6334TIP3    H140561   4.972   0.084   1.244  0.0430  0.3484 -0.0349
 6334TIP3    H240562   5.117   0.111   1.278 -0.0543 -0.0958  0.7540
 6335TIP3   OH240563   2.915   3.541   2.763 -0.3487  0.0426 -0.3463
 6335TIP3    H140564   2.995   3.498   2.791 -1.3528 -1.0395  0.9708
 6335TIP3    H240565   2.944   3.619   2.715  1.4536  0.5056  1.4218
 6336TIP3   OH240566   1.222   6.369   2.027 -0.0437 -0.1421  0.1415
 6336TIP3    H140567   1.315   6.395   2.026  0.9348 -3.2656 -0.4631
 6336TIP3    H240568   1.199   6.366   2.119  1.0837 -1.1647  0.4154
 6337TIP3   OH240569   3.167   2.297   7.096  0.2587  0.2759 -0.1860
 6337TIP3    H140570   3.130   2.375   7.055 -1.7015 -1.2151 -1.4150
 6337TIP3    H240571   3.134   2.298   7.185 -0.4500  0.4234 -0.4466
 6338TIP3   OH240572   6.416   6.198   0.114 -0.3011  0.2309 -0.0208
 6338TIP3    H140573   6.331   6.228   0.148  0.0175  1.7254 -0.4706
 6338TIP3    H240574   6.427   6.248   0.032  0.5811 -0.6599 -0.4581
 6339TIP3   OH240575   4.367   5.013   0.238  0.2199 -0.7142  0.7499
 6339TIP3    H140576   4.399   5.102   0.225 -2.0476  0.4097  2.0871
 6339TIP3    H240577   4.375   4.972   0.152  0.7536  0.9923 -0.0759
 6340TIP3   OH240578   5.707   3.439   7.771  0.3822 -0.9215 -0.2236
 6340TIP3    H140579   5.740   3.502   7.706  0.0967 -0.3460  0.1858
 6340TIP3    H240580   5.675   3.493   7.843 -2.2053 -1.3861 -0.9232
 6341TIP3   OH240581   2.591   2.208   1.466 -0.2327  0.3747  0.3454
 6341TIP3    H140582   2.608   2.241   1.554  1.3651  1.0407 -0.1879
 6341TIP3    H240583   2.523   2.142   1.479 -0.1821  0.6014  2.0485
 6342TIP3   OH240584   5.060   1.085   7.699 -0.3705  0.1272 -0.2561
 6342TIP3    H140585   5.055   1.053   7.610  0.1240  0.8779 -0.5644
 6342TIP3    H240586   5.057   1.006   7.754  0.3117 -0.4019 -0.9696
 6343TIP3   OH240587   6.403   6.258   1.371 -0.7013 -0.2294  0.4277
 6343TIP3    H140588   6.460   6.335   1.366 -1.6924  0.4687 -0.8789
 6343TIP3    H240589   6.462   6.183   1.375  0.3891  0.3698 -2.3265
 6344TIP3   OH240590   3.093   1.853   1.430 -0.3853  0.6185  0.1387
 6344TIP3    H140591   3.059   1.764   1.423 -0.5066  0.6938 -0.2778
 6344TIP3    H240592   3.030   1.906   1.381 -1.2457  1.1842  1.7714
 6345TIP3   OH240593   0.049   2.765   1.738  0.5489  0.4798  0.4347
 6345TIP3    H140594   0.030   2.787   1.647 -0.3615  0.6025  0.6476
 6345TIP3    H240595   0.139   2.733   1.737 -0.4420 -2.6225 -1.0597
 6346TIP3   OH240596   2.018   1.204   7.677 -0.6237 -0.3062 -0.0770
 6346TIP3    H140597   1.947   1.266   7.658 -0.3691  0.6173  1.7456
 6346TIP3    H240598   1.977   1.118   7.675 -0.8513 -0.2597 -3.3914
 6347TIP3   OH240599   5.821   6.489   8.321 -0.4235  0.4428 -0.2088
 6347TIP3    H140600   5.747   6.454   8.272 -0.6117 -0.7231  0.8467
 6347TIP3    H240601   5.791   6.489   8.412 -0.2803  3.0302 -0.0945
 6348TIP3   OH240602   6.386   5.678   8.487 -0.3168 -0.3141  0.3026
 6348TIP3    H140603   6.386   5.693   8.393  0.7245 -2.1348 -0.0451
 6348TIP3    H240604   6.294   5.678   8.512 -0.5770  0.8083 -0.5746
 6349TIP3   OH240605   3.745   4.236   8.030 -0.7487 -0.3246  0.4860
 6349TIP3    H140606   3.700   4.297   8.089 -0.6679 -0.2213  0.4408
 6349TIP3    H240607   3.824   4.283   8.003  0.0250 -0.9695  1.5439
 6350TIP3   OH240608   2.436   2.764   8.010  0.4764  0.0661 -0.3152
 6350TIP3    H140609   2.392   2.817   8.077  1.3025  1.3964 -0.7816
 6350TIP3    H240610   2.477   2.693   8.059  0.5263  0.6497  0.5185
 6351TIP3   OH240611   3.494   2.522   0.834  0.4470  0.5478  0.3669
 6351TIP3    H140612   3.415   2.472   0.812  0.8913 -0.0510  0.1106
 6351TIP3    H240613   3.535   2.541   0.750  0.3417  1.2615  0.4702
 6352TIP3   OH240614   0.785   0.293   7.652  0.2439  0.1553  0.2736
 6352TIP3    H140615   0.818   0.364   7.707 -1.8656  1.0793  0.4301
 6352TIP3    H240616   0.748   0.230   7.713 -0.5530  0.3466 -0.0079
 6353TIP3   OH240617   0.400   6.455   0.039 -0.4617 -0.2887  0.2671
 6353TIP3    H140618   0.351   6.520  -0.011 -0.0274  1.9645  2.5356
 6353TIP3    H240619   0.491   6.471   0.016 -0.4232 -0.8181  0.0475
 6354TIP3   OH240620   1.371   5.763   1.477  0.1976 -0.3906 -0.0314
 6354TIP3    H140621   1.295   5.800   1.522 -0.2507  0.1096 -1.1780
 6354TIP3    H240622   1.431   5.837   1.466  0.7563 -0.7293  0.6411
 6355TIP3   OH240623   1.951   4.940   1.337  0.2687 -0.2204  0.3244
 6355TIP3    H140624   1.904   4.989   1.404 -0.2926 -0.2552 -0.0338
 6355TIP3    H240625   1.889   4.933   1.264  0.8749 -0.1546 -0.2120
 6356TIP3   OH240626   5.730   0.642   7.150  0.1163  0.0522 -0.5368
 6356TIP3    H140627   5.823   0.658   7.133  0.4008  0.1096  0.9639
 6356TIP3    H240628   5.685   0.711   7.102  0.7461 -0.6938 -2.2950
 6357TIP3   OH240629   0.169   6.796   2.265 -0.9819  0.2666  0.0945
 6357TIP3    H140630   0.235   6.776   2.331 -0.6881  0.7676 -0.0419
 6357TIP3    H240631   0.109   6.857   2.308 -2.0962 -1.1500  0.6377
 6358TIP3   OH240632   2.901   6.506   0.804 -0.4137  0.5139  0.2308
 6358TIP3    H140633   2.972   6.460   0.848  0.8836  0.4355 -1.8101
 6358TIP3    H240634   2.926   6.598   0.808 -0.4325  0.5326 -0.1001
 6359TIP3   OH240635   3.017   5.562   8.134  0.2297  0.2798 -0.2651
 6359TIP3    H140636   3.078   5.490   8.154 -0.1241 -0.3960 -1.5078
 6359TIP3    H240637   3.070   5.626   8.087  0.4020  0.5782  0.3153
 6360TIP3   OH240638   2.079   0.092   0.051 -0.0531 -0.0310 -0.3797
 6360TIP3    H140639   2.008   0.055   0.104  0.2498 -0.9309 -0.5836
 6360TIP3    H240640   2.148   0.025   0.053  0.5372  0.5584 -0.7082
 6361TIP3   OH240641   3.861   2.290   8.299 -0.3734  0.4020 -0.2903
 6361TIP3    H140642   3.915   2.215   8.274 -0.1247  0.4935 -0.0316
 6361TIP3    H240643   3.820   2.318   8.217  0.2515  0.5570 -0.5594
 6362TIP3   OH240644   5.135   5.274   2.663  0.1228  0.3568  0.7600
 6362TIP3    H140645   5.199   5.335   2.625  1.1023 -0.8137  0.4571
 6362TIP3    H240646   5.107   5.220   2.589  0.9279 -0.9722  1.3932
 6363TIP3   OH240647   4.958   4.993   8.559  0.0514  0.2474  0.0656
 6363TIP3    H140648   4.920   5.073   8.524  1.6424  0.2726 -1.8137
 6363TIP3    H240649   4.946   4.999   8.653  0.3841  2.8276  0.0062
 6364TIP3   OH240650   1.414   0.537   2.870  0.4560 -0.4807  0.1301
 6364TIP3    H140651   1.418   0.618   2.820 -0.0529  0.2175  1.1753
 6364TIP3    H240652   1.505   0.523   2.899  0.1797  1.1309  2.0374
 6365TIP3   OH240653   6.150   3.240   1.822  0.5274  0.0467 -0.1413
 6365TIP3    H140654   6.092   3.185   1.769  1.0536 -0.5650 -0.0983
 6365TIP3    H240655   6.107   3.243   1.908  1.0949 -1.3226  0.2175
 6366TIP3   OH240656   6.583   2.235   1.992  0.0948 -0.2998  0.3140
 6366TIP3    H140657   6.563   2.325   2.014 -0.0272 -0.5867  1.4612
 6366TIP3    H240658   6.498   2.194   1.975  0.0309 -0.5020  1.0741
 6367TIP3   OH240659   3.760   5.335   1.397  0.0148 -0.1021 -0.0348
 6367TIP3    H140660   3.713   5.367   1.473 -0.0235 -0.4596  0.0915
 6367TIP3    H240661   3.694   5.290   1.345 -0.1889  1.0176 -0.7976
 6368TIP3   OH240662   4.539   4.838   7.042  0.4299  0.5231 -0.1415
 6368TIP3    H140663   4.586   4.793   6.972  1.3260 -1.3741  1.5960
 6368TIP3    H240664   4.452   4.798   7.042  0.2278  0.9461 -0.5173
 6369TIP3   OH240665   0.329   6.021   0.919 -0.1896  0.1561  0.2590
 6369TIP3    H140666   0.409   5.975   0.892  0.4504  0.8129  1.0020
 6369TIP3    H240667   0.318   6.090   0.853  0.3741  0.6256  0.6353
 6370TIP3   OH240668   5.492   0.022   8.445  0.0406  0.4037 -0.0028
 6370TIP3    H140669   5.440   0.102   8.450 -0.3208  0.1203  1.1643
 6370TIP3    H240670   5.443  -0.036   8.386  0.7602  1.3387 -1.5821
 6371TIP3   OH240671   2.200   1.462   0.669  0.2023 -0.0713  0.1143
 6371TIP3    H140672   2.272   1.449   0.730  1.4716  0.9586 -1.0778
 6371TIP3    H240673   2.156   1.541   0.700 -0.1513 -0.4431  0.5795
 6372TIP3   OH240674   3.029   4.833   2.086 -0.0712 -0.4285  0.2137
 6372TIP3    H140675   2.956   4.882   2.122  0.0346 -0.4755  0.4907
 6372TIP3    H240676   3.074   4.796   2.162  1.0316  0.7000  0.1476
 6373TIP3   OH240677   4.286   0.262   1.383 -0.3527 -0.2557 -0.1603
 6373TIP3    H140678   4.264   0.179   1.341  0.9954 -0.9470  0.4312
 6373TIP3    H240679   4.357   0.240   1.444 -1.4248  0.9286  1.6078
 6374TIP3   OH240680   5.242   0.611   8.497 -0.5720 -0.1372  0.0601
 6374TIP3    H140681   5.270   0.699   8.522 -3.9792  1.1539 -0.2185
 6374TIP3    H240682   5.224   0.567   8.581  0.2190 -0.2862  0.1641
 6375TIP3   OH240683   0.165   6.676   0.516 -0.2821  0.1428 -0.5371
 6375TIP3    H140684   0.105   6.678   0.442  1.1556  0.3067 -1.7366
 6375TIP3    H240685   0.192   6.767   0.527 -0.6951  0.1628  0.3854
 6376TIP3   OH240686   1.241   2.823   6.471  0.0898  0.1884 -0.1031
 6376TIP3    H140687   1.317   2.841   6.526  0.0102  0.8533 -0.2017
 6376TIP3    H240688   1.231   2.728   6.474  2.3663 -0.2014 -2.0221
 6377TIP3   OH240689   5.080   2.348   0.849 -0.2592  0.3311  0.0226
 6377TIP3    H140690   5.030   2.267   0.843  1.3873 -0.6035 -2.2400
 6377TIP3    H240691   5.147   2.331   0.914 -0.1793  0.0223 -0.1413
 6378TIP3   OH240692   3.131   0.353   8.545 -0.0659 -0.1947  0.0576
 6378TIP3    H140693   3.207   0.340   8.601 -0.9621 -1.3288  1.0824
 6378TIP3    H240694   3.058   0.316   8.595 -0.7058 -2.6396 -2.3963
 6379TIP3   OH240695   0.922   6.387   2.146  0.2393 -0.2220 -0.2100
 6379TIP3    H140696   0.998   6.387   2.204  0.0262 -2.3183  0.1508
 6379TIP3    H240697   0.863   6.322   2.183 -1.5504  1.0017 -0.7622
 6380TIP3   OH240698   0.619   3.096   1.633 -0.3367 -0.1779 -0.2690
 6380TIP3    H140699   0.660   3.015   1.664 -1.1224 -0.9718 -1.2164
 6380TIP3    H240700   0.624   3.090   1.537 -1.4505  0.3261 -0.3744
 6381TIP3   OH240701   5.829   4.514   1.558  0.0939  0.5796  0.5928
 6381TIP3    H140702   5.849   4.435   1.508  1.0680  1.9569 -1.3009
 6381TIP3    H240703   5.738   4.502   1.586 -0.1204 -0.7598 -0.5707
 6382TIP3   OH240704   4.163   6.175   7.163 -0.6958  1.0863 -0.5436
 6382TIP3    H140705   4.206   6.154   7.080  0.4317  1.1154  0.0136
 6382TIP3    H240706   4.232   6.167   7.229 -1.8500 -0.2623  0.5939
 6383TIP3   OH240707   6.074   5.056   3.047 -0.0243 -0.4593  0.4938
 6383TIP3    H140708   5.995   5.003   3.045 -0.4378  0.0839 -2.5985
 6383TIP3    H240709   6.144   4.996   3.020  0.1395 -0.3020  0.5644
 6384TIP3   OH240710   3.260   6.570   0.164  0.6884  0.2040  0.4234
 6384TIP3    H140711   3.199   6.600   0.097  0.8494  0.7572  0.5173
 6384TIP3    H240712   3.310   6.500   0.122  0.2966  0.0591  0.2000
 6385TIP3   OH240713   5.583   3.459   1.002 -0.1598 -0.0313  0.0854
 6385TIP3    H140714   5.598   3.515   0.925 -1.4322 -0.3241 -0.4119
 6385TIP3    H240715   5.566   3.521   1.073 -2.9076  0.3309 -0.7421
 6386TIP3   OH240716   2.489   3.490   1.078  0.1933  0.0122  0.6630
 6386TIP3    H140717   2.458   3.418   1.023 -0.4696 -0.3322  1.4853
 6386TIP3    H240718   2.575   3.462   1.108  0.6236  0.2571 -0.2790
 6387TIP3   OH240719   3.865   4.133   0.680 -0.0988 -0.2746  0.1121
 6387TIP3    H140720   3.901   4.063   0.734 -0.4646  0.7496  1.7542
 6387TIP3    H240721   3.930   4.145   0.611  0.2001 -1.8779  0.0725
 6388TIP3   OH240722   4.259   4.815   8.308 -0.1627 -0.3880 -0.0881
 6388TIP3    H140723   4.215   4.763   8.241 -0.3615  0.8631 -0.9505
 6388TIP3    H240724   4.200   4.888   8.324  0.5602  0.0925  0.3948
 6389TIP3   OH240725   0.521   4.649   2.268 -0.4441 -0.2112 -0.1763
 6389TIP3    H140726   0.587   4.589   2.301 -1.7584 -0.9153  1.3298
 6389TIP3    H240727   0.558   4.685   2.188  1.9800 -0.1281  0.9016
 6390TIP3   OH240728   1.351   3.144   2.312  0.5963 -0.4902 -0.1068
 6390TIP3    H140729   1.368   3.050   2.304 -0.6029 -0.7437  0.1617
 6390TIP3    H240730   1.264   3.149   2.352 -0.0836  0.7232 -1.6395
 6391TIP3   OH240731   0.500   4.640   0.021  0.3216 -0.0026  0.3642
 6391TIP3    H140732   0.420   4.672   0.061  0.3290  0.0904  0.3068
 6391TIP3    H240733   0.477   4.626  -0.071  0.3306 -0.1209  0.3795
 6392TIP3   OH240734   4.859   1.639   0.580 -0.1698 -0.0716 -0.2520
 6392TIP3    H140735   4.946   1.638   0.540  0.2835 -2.8087  0.6384
 6392TIP3    H240736   4.800   1.656   0.507  1.0161  0.8561 -1.0415
 6393TIP3   OH240737   3.952   1.846   7.545  0.2007  0.1594 -0.2892
 6393TIP3    H140738   3.869   1.800   7.557  1.4076 -1.6199  2.0921
 6393TIP3    H240739   3.947   1.922   7.603 -0.1756  0.7030 -1.0202
 6394TIP3   OH240740   3.971   5.327   1.224 -0.4535 -0.3069 -0.1676
 6394TIP3    H140741   3.906   5.347   1.292 -0.0396 -1.3625  0.5596
 6394TIP3    H240742   4.048   5.378   1.250  0.0172 -1.4286  0.7041
 6395TIP3   OH240743   3.783   6.151   0.113 -0.6502 -0.1887 -0.2797
 6395TIP3    H140744   3.790   6.246   0.113 -0.2773 -0.2106  0.8945
 6395TIP3    H240745   3.731   6.131   0.035 -3.1884  1.1550  0.9693
 6396TIP3   OH240746   0.563   2.941   7.193  0.0459 -0.3670  0.1598
 6396TIP3    H140747   0.494   2.879   7.216  0.5352 -1.3255 -0.8452
 6396TIP3    H240748   0.640   2.909   7.239 -0.1548  0.6971  1.2731
 6397TIP3   OH240749   0.796   1.688   0.495 -0.6817 -0.6450 -0.2427
 6397TIP3    H140750   0.815   1.703   0.403 -1.8006  0.4138 -0.3301
 6397TIP3    H240751   0.701   1.672   0.498 -0.8684  0.5227  0.8431
 6398TIP3   OH240752   5.382   3.990   8.401 -0.1446 -0.4727  0.4358
 6398TIP3    H140753   5.289   4.002   8.384  0.3286  0.7177 -1.5855
 6398TIP3    H240754   5.412   4.075   8.432  0.1459 -1.0775  1.8877
 6399TIP3   OH240755   3.968   0.321   1.478  0.3156  0.1705 -0.3153
 6399TIP3    H140756   4.063   0.314   1.469  0.1651 -3.3937 -0.7372
 6399TIP3    H240757   3.939   0.360   1.395  1.3591  1.5187 -0.0827
 6400TIP3   OH240758   6.100   3.685   1.810 -0.3767 -0.2165 -0.1515
 6400TIP3    H140759   6.132   3.614   1.754  0.6377 -0.1196  0.2849
 6400TIP3    H240760   6.169   3.751   1.807 -0.4999 -0.0222  0.8737
 6401TIP3   OH240761   3.498   4.107   7.980 -0.0238 -0.4505  0.0699
 6401TIP3    H140762   3.476   4.153   7.899 -0.8831 -1.3976 -0.2529
 6401TIP3    H240763   3.585   4.140   8.004 -0.8151  1.7560  0.1647
 6402TIP3   OH240764   5.227   6.254   0.331  0.0807 -0.3588  0.3375
 6402TIP3    H140765   5.272   6.235   0.413  1.4243 -0.1657 -0.3257
 6402TIP3    H240766   5.259   6.341   0.305 -2.4895  0.9108  1.0225
 6403TIP3   OH240767   1.535   4.170   7.980  0.2167 -0.7040  0.0829
 6403TIP3    H140768   1.467   4.102   7.987 -0.0115 -0.3899  1.0445
 6403TIP3    H240769   1.616   4.124   7.999  0.3391 -1.1443 -1.3501
 6404TIP3   OH240770   6.473   2.257   2.295  0.4776  0.7730  0.2446
 6404TIP3    H140771   6.569   2.248   2.299  0.3578 -0.4582  0.6685
 6404TIP3    H240772   6.441   2.167   2.294 -0.6727  1.1743 -0.2511
 6405TIP3   OH240773   6.375   5.044   1.711 -0.5311 -0.1386  0.4134
 6405TIP3    H140774   6.388   5.047   1.806 -0.2007  1.2909  0.3528
 6405TIP3    H240775   6.309   4.976   1.698 -1.5435  0.5257  1.7802
 6406TIP3   OH240776   0.399   0.841   0.075 -0.2546 -0.3513 -0.3956
 6406TIP3    H140777   0.309   0.874   0.075 -0.4489 -0.8661  0.4871
 6406TIP3    H240778   0.414   0.812   0.165  0.0705 -2.2298 -1.0253
 6407TIP3   OH240779   1.000   6.595   7.381  0.5577 -0.1557  0.4547
 6407TIP3    H140780   1.022   6.640   7.300 -0.0970 -1.9144 -0.7480
 6407TIP3    H240781   0.996   6.665   7.447  0.8376  1.3411 -1.0570
 6408TIP3   OH240782   6.684   3.287   7.799  0.4626 -0.6611 -0.1607
 6408TIP3    H140783   6.765   3.235   7.802 -0.2164 -1.9487 -2.1052
 6408TIP3    H240784   6.712   3.374   7.772  1.2846 -0.8812 -0.0357
 6409TIP3   OH240785   5.254   5.311   8.118 -0.4520  0.5026 -0.1571
 6409TIP3    H140786   5.176   5.343   8.163 -1.2672  0.5146 -1.5287
 6409TIP3    H240787   5.244   5.341   8.028  0.1072 -1.2533 -0.8494
 6410TIP3   OH240788   6.588   5.761   0.448 -0.2927  0.0742 -0.7795
 6410TIP3    H140789   6.648   5.785   0.378  0.4761 -1.6677 -0.7906
 6410TIP3    H240790   6.624   5.679   0.483 -0.8813  0.6755  1.3848
 6411TIP3   OH240791   0.961   4.506   7.325 -0.6884 -0.4389  0.3154
 6411TIP3    H140792   0.996   4.420   7.303 -2.4569 -1.2049  0.3158
 6411TIP3    H240793   0.868   4.500   7.302 -0.5744  1.9561 -1.0766
 6412TIP3   OH240794   2.081   3.708   1.796 -0.2220  0.4743  0.5898
 6412TIP3    H140795   2.051   3.789   1.838 -1.7896  0.3758 -0.2642
 6412TIP3    H240796   2.000   3.663   1.770  0.6453 -0.8221  0.0216
 6413TIP3   OH240797   1.395   6.413   8.020 -0.2798 -0.6039 -0.1708
 6413TIP3    H140798   1.315   6.457   8.047  0.7395  0.2242  1.7076
 6413TIP3    H240799   1.436   6.385   8.103  0.6090 -2.4229 -1.1539
 6414TIP3   OH240800   1.324   4.492   8.161  0.8465  0.3209 -0.3758
 6414TIP3    H140801   1.338   4.556   8.232  0.9931  1.0458 -1.0482
 6414TIP3    H240802   1.405   4.493   8.111  0.6040  0.0985 -0.7775
 6415TIP3   OH240803   0.501   6.168   2.723  0.6239  0.0700 -0.3368
 6415TIP3    H140804   0.477   6.087   2.677  1.1742 -0.9652  1.1073
 6415TIP3    H240805   0.426   6.226   2.711 -0.1528 -0.9873 -0.6941
 6416TIP3   OH240806   1.290   3.968   2.145  0.5597 -0.4774  0.7469
 6416TIP3    H140807   1.357   3.940   2.207 -0.1687 -1.6884  1.0181
 6416TIP3    H240808   1.207   3.953   2.190 -0.0442 -2.3997 -0.8679
 6417TIP3   OH240809   5.284   1.297   2.641 -0.0494  0.0731 -0.1389
 6417TIP3    H140810   5.311   1.218   2.688 -1.1508 -0.0960  0.2391
 6417TIP3    H240811   5.214   1.334   2.695  0.1141  1.0421 -0.5662
 6418TIP3   OH240812   6.355   1.835   1.405  0.1495  0.2176  0.3031
 6418TIP3    H140813   6.430   1.894   1.404  1.2944 -1.1876  0.0443
 6418TIP3    H240814   6.390   1.752   1.438 -1.3592 -0.3906  0.4701
 6419TIP3   OH240815   5.497   1.588   7.464 -0.2504  0.1186 -0.3085
 6419TIP3    H140816   5.524   1.617   7.551  0.1761 -0.2382 -0.3180
 6419TIP3    H240817   5.579   1.576   7.416 -0.3382 -1.8593 -0.0535
 6420TIP3   OH240818   2.240   3.978   8.366 -0.0752 -0.2729 -0.5804
 6420TIP3    H140819   2.276   4.053   8.319  1.9222 -1.9888 -2.0092
 6420TIP3    H240820   2.157   4.008   8.400  0.9335  2.7608 -0.5389
 6421TIP3   OH240821   1.807   3.766   7.432 -0.1193 -0.1720 -0.2672
 6421TIP3    H140822   1.741   3.696   7.434 -2.4012  1.8446  1.3666
 6421TIP3    H240823   1.807   3.797   7.342  0.6040 -1.9221 -0.9079
 6422TIP3   OH240824   2.639   3.866   2.129 -0.3124  0.2685 -0.1796
 6422TIP3    H140825   2.644   3.771   2.142  1.8291  0.2590 -0.7650
 6422TIP3    H240826   2.586   3.876   2.050  0.0357 -0.4871 -0.5214
 6423TIP3   OH240827   1.099   4.973   7.842 -0.2011  0.2618  0.2323
 6423TIP3    H140828   1.094   5.069   7.849 -1.1567  0.2618 -0.3448
 6423TIP3    H240829   1.025   4.949   7.788 -0.6094 -0.9169  1.2722
 6424TIP3   OH240830   1.878   0.551   1.393 -0.4958  0.8883  0.0281
 6424TIP3    H140831   1.868   0.638   1.432 -0.0599  1.4616 -1.0850
 6424TIP3    H240832   1.967   0.525   1.415 -0.2282  1.2389 -0.6077
 6425TIP3   OH240833   0.934   3.278   2.701  0.1456  0.1800 -0.0126
 6425TIP3    H140834   0.841   3.290   2.722 -0.3992  0.0796 -2.0516
 6425TIP3    H240835   0.980   3.339   2.758 -1.0452 -0.5743  1.8419
 6426TIP3   OH240836   3.194   4.406   1.835 -0.4752 -0.0546  0.2673
 6426TIP3    H140837   3.155   4.325   1.803  0.7168 -0.4547 -0.2412
 6426TIP3    H240838   3.175   4.406   1.929  1.0960 -1.9233  0.6728
 6427TIP3   OH240839   3.596   2.746   7.647  0.4496 -0.3004  0.2241
 6427TIP3    H140840   3.633   2.833   7.662  1.4734 -0.8339  0.8998
 6427TIP3    H240841   3.554   2.722   7.729  0.3113 -0.5189  0.0925
 6428TIP3   OH240842   3.030   1.739   7.013 -0.3893 -0.1635  0.0716
 6428TIP3    H140843   3.059   1.742   7.105 -0.4442 -0.5313  0.1039
 6428TIP3    H240844   2.989   1.653   7.005 -4.7578  1.6061  0.9870
 6429TIP3   OH240845   1.187   0.577   2.183  0.6671  0.5875 -0.1558
 6429TIP3    H140846   1.207   0.534   2.266  0.1910 -0.1313 -0.4042
 6429TIP3    H240847   1.261   0.635   2.168  0.1998  1.6555  1.3670
 6430TIP3   OH240848   3.214   5.320   2.132  0.1230 -0.5495  0.1594
 6430TIP3    H140849   3.150   5.385   2.162  1.0920  1.3799 -1.7452
 6430TIP3    H240850   3.173   5.279   2.056  1.9595  2.5464 -2.7580
 6431TIP3   OH240851   2.568   6.325   1.865  0.8558 -0.1415  0.0326
 6431TIP3    H140852   2.489   6.337   1.918  0.9561  0.9004 -0.0218
 6431TIP3    H240853   2.536   6.294   1.780  0.4372  0.7867 -0.1652
 6432TIP3   OH240854   5.494   5.182   0.748  0.1229 -0.2074  0.0908
 6432TIP3    H140855   5.484   5.141   0.834 -2.1847  1.4365  0.7148
 6432TIP3    H240856   5.573   5.236   0.757 -1.2885  1.7237  2.0688
 6433TIP3   OH240857   2.764   4.660   1.056 -0.3223 -0.3509 -0.1241
 6433TIP3    H140858   2.826   4.728   1.083 -0.7891 -0.0116  0.1095
 6433TIP3    H240859   2.730   4.690   0.972 -0.2127 -0.5089 -0.2252
 6434TIP3   OH240860   2.278   3.031   7.281 -0.4136 -0.4090 -0.0167
 6434TIP3    H140861   2.249   3.053   7.192 -2.0295 -0.0157  0.5837
 6434TIP3    H240862   2.307   2.940   7.275  0.6528 -0.0372 -1.1879
 6435TIP3   OH240863   3.873   3.203   7.988  0.0058 -0.0626  0.0051
 6435TIP3    H140864   3.942   3.254   7.947 -0.3579 -0.3922 -1.0667
 6435TIP3    H240865   3.897   3.112   7.971  0.9600 -0.3201  2.4102
 6436TIP3   OH240866   0.601   4.153   2.256  0.0513  0.1585 -0.1144
 6436TIP3    H140867   0.510   4.130   2.274  0.0576 -0.4068 -0.7505
 6436TIP3    H240868   0.652   4.087   2.304  0.0855 -0.5820 -1.1265
 6437TIP3   OH240869   4.240   6.848   7.341 -0.6359 -0.2387 -0.6429
 6437TIP3    H140870   4.257   6.840   7.247  0.8879 -0.1280 -0.4021
 6437TIP3    H240871   4.238   6.758   7.372  2.1600 -0.2440 -0.2788
 6438TIP3   OH240872   0.313   2.056   3.010  0.0240  0.3803  0.1756
 6438TIP3    H140873   0.239   2.002   3.037 -0.9489  1.9319  0.6915
 6438TIP3    H240874   0.352   2.086   3.092  1.8732 -1.1572 -0.0353
 6439TIP3   OH240875   0.773   2.124   7.775  0.0627 -0.0168  0.2701
 6439TIP3    H140876   0.728   2.050   7.816 -0.7461 -0.9947 -2.2456
 6439TIP3    H240877   0.705   2.170   7.727  0.9352  1.2369  0.1804
 6440TIP3   OH240878   1.343   3.927   8.557  0.3944  0.3581 -0.2970
 6440TIP3    H140879   1.359   3.918   8.651  0.6530 -0.9060 -0.4439
 6440TIP3    H240880   1.420   3.889   8.515 -1.1182 -2.1872 -1.0008
 6441TIP3   OH240881   0.098   3.772   8.188  0.4492  0.0569  0.5820
 6441TIP3    H140882   0.056   3.806   8.109 -0.4363 -0.4761  0.8068
 6441TIP3    H240883   0.192   3.779   8.171  0.2906 -1.3527 -1.0844
 6442TIP3   OH240884   3.491   3.071   7.484 -0.0580 -0.4478 -0.1098
 6442TIP3    H140885   3.500   3.165   7.491 -0.6523 -0.1780 -2.1802
 6442TIP3    H240886   3.574   3.036   7.515 -1.1709  0.4243  4.5594
 6443TIP3   OH240887   3.273   5.853   2.503  0.5309 -0.1173 -0.1445
 6443TIP3    H140888   3.232   5.812   2.426  0.8121 -1.0308  0.1821
 6443TIP3    H240889   3.202   5.862   2.566  0.3085  0.5940 -0.4827
 6444TIP3   OH240890   1.498   3.883   2.397  0.3713  0.3924 -0.1781
 6444TIP3    H140891   1.514   3.831   2.476  0.4743  1.1297  0.3002
 6444TIP3    H240892   1.520   3.825   2.324 -1.9289 -1.1105  0.2256
 6445TIP3   OH240893   5.745   1.382   1.156  0.0788  0.0284  0.2898
 6445TIP3    H140894   5.681   1.352   1.221  2.1780 -0.9966  1.9835
 6445TIP3    H240895   5.823   1.405   1.207  1.4338  0.3308 -1.7797
 6446TIP3   OH240896   0.247   3.165   0.939  0.2926  0.1522  0.2098
 6446TIP3    H140897   0.338   3.195   0.948  0.9579 -0.9990 -1.9186
 6446TIP3    H240898   0.233   3.108   1.015  1.0443  0.9952  1.0105
 6447TIP3   OH240899   3.784   1.184   2.093 -0.2302  0.4137  0.2675
 6447TIP3    H140900   3.831   1.104   2.118  0.2349  0.9950  1.2821
 6447TIP3    H240901   3.748   1.218   2.175 -3.5548 -0.6721 -0.5894
 6448TIP3   OH240902   4.305   3.107   1.545 -0.0777  0.4426  0.0319
 6448TIP3    H140903   4.340   3.081   1.460  0.2076 -0.9446  0.5485
 6448TIP3    H240904   4.340   3.195   1.560 -0.6013  0.9526 -1.5244
 6449TIP3   OH240905   5.451   5.053   0.971  0.3207 -0.4053 -0.2187
 6449TIP3    H140906   5.446   5.110   1.047  0.0865  1.0978 -1.3200
 6449TIP3    H240907   5.454   4.964   1.008 -2.2091  0.0984  1.5144
 6450TIP3   OH240908   5.617   6.663   2.007 -0.9006  0.6827  0.4536
 6450TIP3    H140909   5.693   6.605   2.016 -0.4587  1.3030  0.8291
 6450TIP3    H240910   5.643   6.743   2.052 -1.8959  0.7988  0.8462
 6451TIP3   OH240911   3.790   5.732   1.753  0.0650  0.2686  0.0790
 6451TIP3    H140912   3.740   5.734   1.672  0.8924 -3.0112 -0.6367
 6451TIP3    H240913   3.731   5.692   1.817  0.3662  0.2516  0.3541
 6452TIP3   OH240914   1.037   1.703   2.459 -0.6243 -0.3351 -0.0070
 6452TIP3    H140915   1.105   1.767   2.481 -1.2023  0.2948 -0.0288
 6452TIP3    H240916   1.086   1.622   2.439  0.0885 -0.0088  0.3826
 6453TIP3   OH240917   2.317   2.626   0.981 -0.4908 -0.6416  0.1302
 6453TIP3    H140918   2.243   2.608   0.922 -0.4466 -0.5590  0.0482
 6453TIP3    H240919   2.374   2.550   0.971 -1.2165 -1.3595  1.2277
 6454TIP3   OH240920   4.789   0.255   7.750  0.4570  0.0858  0.1586
 6454TIP3    H140921   4.778   0.223   7.660  0.0703 -2.5742  1.0795
 6454TIP3    H240922   4.702   0.249   7.789  1.1216 -1.3963  1.4841
 6455TIP3   OH240923   5.385   6.237   7.962  0.0126 -0.0333 -0.1533
 6455TIP3    H140924   5.312   6.190   7.923 -2.4590  0.9819  2.7978
 6455TIP3    H240925   5.351   6.326   7.978  1.9793  0.5851  1.0191
 6456TIP3   OH240926   0.967   4.874   2.297  0.1291 -0.0562  0.2056
 6456TIP3    H140927   0.924   4.789   2.284 -0.4804  0.4632 -1.5097
 6456TIP3    H240928   1.032   4.858   2.365 -2.3022 -1.0459  2.4715
 6457TIP3   OH240929   6.035   2.832   8.610 -0.2701  0.2662 -0.0751
 6457TIP3    H140930   6.069   2.773   8.677 -0.9825 -0.4993 -0.3668
 6457TIP3    H240931   5.980   2.894   8.658 -0.8315 -0.3180  0.0544
 6458TIP3   OH240932   3.974   4.801   8.508 -0.1731  0.1891 -0.5735
 6458TIP3    H140933   3.916   4.745   8.456  0.0773 -0.7255  0.1003
 6458TIP3    H240934   3.925   4.817   8.589 -1.0042  2.4636 -1.4566
 6459TIP3   OH240935   1.148   1.327   7.612  0.3048 -0.1427 -0.3675
 6459TIP3    H140936   1.239   1.351   7.597 -0.3294  1.9983 -1.2440
 6459TIP3    H240937   1.100   1.376   7.545 -1.4831 -1.2396  0.0586
 6460TIP3   OH240938   6.503   1.390   1.457  0.2712  0.1809  0.1916
 6460TIP3    H140939   6.530   1.369   1.546 -1.3500 -1.1946  0.4049
 6460TIP3    H240940   6.410   1.411   1.464 -0.4931 -2.2101 -1.4254
 6461TIP3   OH240941   6.687   4.994   7.123  0.1474 -0.2277  0.3005
 6461TIP3    H140942   6.634   5.049   7.065 -1.5553 -1.2520  0.8311
 6461TIP3    H240943   6.776   5.001   7.087  0.3856  4.0399  1.2085
 6462TIP3   OH240944   0.615   0.827   8.537 -0.0557  0.3301  0.6035
 6462TIP3    H140945   0.604   0.911   8.491  0.2848  1.0805  1.8540
 6462TIP3    H240946   0.536   0.818   8.590 -1.0261 -1.1381 -1.0064
 6463TIP3   OH240947   2.077   4.119   0.221  0.4095  0.3599 -0.2560
 6463TIP3    H140948   2.053   4.095   0.132  0.2775 -0.4042 -0.0264
 6463TIP3    H240949   2.019   4.192   0.243 -2.6116 -2.0794  0.6632
 6464TIP3   OH240950   2.639   3.538   7.240 -0.2997  0.1591  0.0457
 6464TIP3    H140951   2.719   3.493   7.269 -0.5945 -1.4234 -1.4102
 6464TIP3    H240952   2.591   3.556   7.321  0.5457 -0.8375  0.7957
 6465TIP3   OH240953   1.758   5.080   0.862 -0.0583  0.0865  0.1865
 6465TIP3    H140954   1.823   5.148   0.847  0.1771 -0.2430 -0.3168
 6465TIP3    H240955   1.675   5.128   0.872  0.4519  0.6215  2.3608
 6466TIP3   OH240956   5.388   1.072   0.755 -0.0962 -0.4547  0.0897
 6466TIP3    H140957   5.476   1.088   0.721 -0.9997 -1.0720 -2.8896
 6466TIP3    H240958   5.348   1.159   0.760 -0.6274 -0.4276 -2.8308
 6467TIP3   OH240959   6.218   6.443   1.929  0.1391  0.4727  0.3945
 6467TIP3    H140960   6.289   6.383   1.906 -2.4772 -2.0595 -1.9637
 6467TIP3    H240961   6.194   6.418   2.019  1.8643  1.0855  1.0652
 6468TIP3   OH240962   2.304   2.628   2.620  0.4192  1.1450 -0.0640
 6468TIP3    H140963   2.238   2.612   2.688  1.2376 -1.9818  0.1905
 6468TIP3    H240964   2.375   2.673   2.665  0.1772  0.7466  0.7339
 6469TIP3   OH240965   3.029   6.537   1.725  0.0942  0.2825  0.3127
 6469TIP3    H140966   2.962   6.470   1.733  0.6007 -0.1434  1.1583
 6469TIP3    H240967   3.078   6.513   1.647  0.1413 -0.2276  0.4949
 6470TIP3   OH240968   5.624   3.745   2.195  0.3684  0.0549 -0.3536
 6470TIP3    H140969   5.709   3.700   2.192 -0.1103 -1.3276  2.6601
 6470TIP3    H240970   5.641   3.826   2.243  0.0689  0.0091 -0.1705
 6471TIP3   OH240971   0.968   4.155   1.870 -0.4390  0.0616  0.7597
 6471TIP3    H140972   1.001   4.072   1.837  1.5733  0.3609  1.8407
 6471TIP3    H240973   1.015   4.221   1.819 -1.1703  0.5329  0.6899
 6472TIP3   OH240974   3.348   4.779   2.873 -0.0256 -0.1514  0.0420
 6472TIP3    H140975   3.389   4.725   2.941  1.2385 -0.7801 -1.1678
 6472TIP3    H240976   3.352   4.868   2.907  1.1613 -0.3764  0.5348
 6473TIP3   OH240977   0.772   2.142   8.171  0.4661  0.5605  0.2977
 6473TIP3    H140978   0.684   2.124   8.139  0.6847 -0.4834  0.2315
 6473TIP3    H240979   0.780   2.238   8.171 -0.2482  0.6257 -0.8143
 6474TIP3   OH240980   3.626   2.956   0.058  0.0241 -0.2936  0.2463
 6474TIP3    H140981   3.610   2.862   0.063  0.2384 -0.3081  0.7762
 6474TIP3    H240982   3.576   2.992   0.131  0.0874 -0.0160  0.1532
 6475TIP3   OH240983   0.444   6.696   2.838 -0.2649  0.2843 -0.3461
 6475TIP3    H140984   0.467   6.687   2.746 -0.7376  0.8076 -0.5230
 6475TIP3    H240985   0.362   6.647   2.848  0.7160 -1.3230  0.2160
 6476TIP3   OH240986   1.665   5.721   1.684 -0.2518  0.2806  0.0478
 6476TIP3    H140987   1.630   5.728   1.773 -0.1350  1.0296  0.0402
 6476TIP3    H240988   1.756   5.748   1.691 -0.1373 -0.0120 -0.2429
 6477TIP3   OH240989   4.344   6.309   8.178 -0.1863 -0.2939  0.5814
 6477TIP3    H140990   4.315   6.278   8.092  0.3480 -0.8528  0.5992
 6477TIP3    H240991   4.392   6.390   8.159  0.1004 -0.5187  0.3249
 6478TIP3   OH240992   3.668   5.205   2.675 -0.2338 -0.2195  0.1666
 6478TIP3    H140993   3.635   5.290   2.704  2.1895  0.3971  1.3577
 6478TIP3    H240994   3.590   5.151   2.667 -1.9276  2.1913 -1.0644
 6479TIP3   OH240995   0.970   4.375   1.678  0.5011 -0.7514 -0.3806
 6479TIP3    H140996   0.951   4.303   1.617  1.9825 -1.3120 -0.2182
 6479TIP3    H240997   0.968   4.454   1.623  2.0315 -1.2730 -1.2510
 6480TIP3   OH240998   4.048   4.624   0.726  0.2639  0.2266 -0.1168
 6480TIP3    H140999   4.078   4.683   0.657 -1.6459  0.1752 -1.0544
 6480TIP3    H241000   4.030   4.541   0.682 -1.0465  0.2092  0.3967
 6481TIP3   OH241001   0.608   6.429   1.647  0.2137  0.1425  0.3165
 6481TIP3    H141002   0.520   6.396   1.632  0.7684 -1.2732 -0.0115
 6481TIP3    H241003   0.596   6.522   1.668 -1.2954  0.1111 -0.2741
 6482TIP3   OH241004   2.305   2.852   6.813  0.6008 -0.1580  0.6455
 6482TIP3    H141005   2.244   2.909   6.766  0.7901  0.7318  1.4426
 6482TIP3    H241006   2.264   2.765   6.810 -0.2258  0.2293  0.3346
 6483TIP3   OH241007   4.645   0.180   2.248 -0.3709  0.1752 -0.2049
 6483TIP3    H141008   4.611   0.261   2.286 -0.9164 -0.9374  1.8435
 6483TIP3    H241009   4.740   0.194   2.243 -0.6054  1.5386 -1.4776
 6484TIP3   OH241010   0.661   6.423   2.052 -0.0177  0.1984 -0.4514
 6484TIP3    H141011   0.631   6.344   2.097  0.0462  0.4539  0.0467
 6484TIP3    H241012   0.755   6.425   2.067 -0.3456  1.7950  1.8878
 6485TIP3   OH241013   6.681   2.922   1.216 -0.3481  0.0051 -0.5535
 6485TIP3    H141014   6.670   2.834   1.254 -0.9782 -0.1943 -1.1807
 6485TIP3    H241015   6.770   2.922   1.182  0.1987  0.1428  0.7885
 6486TIP3   OH241016   2.633   5.258   0.292  0.3498  0.3099  0.0982
 6486TIP3    H141017   2.568   5.213   0.346  0.9702 -1.4370 -0.5164
 6486TIP3    H241018   2.706   5.274   0.351  0.5981 -0.6140  0.0618
 6487TIP3   OH241019   4.507   4.270   0.260 -0.0892  0.2239 -0.2432
 6487TIP3    H141020   4.458   4.203   0.308 -0.4396  0.1249 -0.7296
 6487TIP3    H241021   4.466   4.353   0.285  0.9309  0.3635  1.0714
 6488TIP3   OH241022   1.842   3.522   3.046  0.1775 -0.0117  0.1671
 6488TIP3    H141023   1.844   3.445   3.103  0.3412 -0.7204 -0.7740
 6488TIP3    H241024   1.795   3.493   2.968  0.8452  0.6377 -0.4909
 6489TIP3   OH241025   3.668   6.807   7.518 -0.1347 -0.4907  1.0310
 6489TIP3    H141026   3.738   6.754   7.480 -0.3603  0.2924 -0.5347
 6489TIP3    H241027   3.591   6.790   7.464 -0.4533  0.6695  1.0802
 6490TIP3   OH241028   4.639   6.447   8.470  0.2589 -0.0958 -0.5638
 6490TIP3    H141029   4.582   6.510   8.426 -0.2639 -0.7707 -0.8762
 6490TIP3    H241030   4.652   6.484   8.558 -0.7425  0.0356 -0.4530
 6491TIP3   OH241031   2.781   1.402   7.800 -0.2479 -0.3344  0.2552
 6491TIP3    H141032   2.877   1.407   7.803 -0.1881 -1.5577  1.2484
 6491TIP3    H241033   2.762   1.346   7.725 -0.2573  0.8711 -0.6721
 6492TIP3   OH241034   0.295   2.041   7.687 -0.2728 -0.2108  0.0470
 6492TIP3    H141035   0.365   2.089   7.643  0.7421 -0.1446  1.6628
 6492TIP3    H241036   0.321   1.949   7.680  0.6450 -0.1102  1.6782
 6493TIP3   OH241037   3.651   6.759   0.005 -0.3340 -0.0172 -0.4500
 6493TIP3    H141038   3.650   6.849   0.037  1.0116 -0.4702  1.0077
 6493TIP3    H241039   3.577   6.717   0.049 -0.1768  0.0647 -0.1023
 6494TIP3   OH241040   1.340   2.126   1.836  0.0654 -0.8923 -0.1097
 6494TIP3    H141041   1.266   2.121   1.897  1.5896  0.2581  1.9363
 6494TIP3    H241042   1.352   2.220   1.821  1.6610 -0.9962  0.3322
 6495TIP3   OH241043   4.141   6.033   7.831 -0.0210  0.1364  0.6393
 6495TIP3    H141044   4.179   5.946   7.813  1.0814  0.2276  2.2537
 6495TIP3    H241045   4.048   6.022   7.815  0.2759 -0.9487 -0.5705
 6496TIP3   OH241046   6.341   2.027   1.058 -0.4607  0.5659 -0.1828
 6496TIP3    H141047   6.291   1.946   1.069  0.2941  0.1613  0.4290
 6496TIP3    H241048   6.432   1.999   1.063 -0.1849  1.3903 -0.4967
 6497TIP3   OH241049   2.288   1.041   8.413  0.0267 -0.7970 -0.2854
 6497TIP3    H141050   2.364   1.053   8.357  0.4133 -0.7888  0.2362
 6497TIP3    H241051   2.310   0.966   8.468 -0.6550 -1.2737 -0.6419
 6498TIP3   OH241052   2.775   5.155   1.006 -0.3430 -0.0827  0.0866
 6498TIP3    H141053   2.697   5.181   1.056  0.8202  2.8917  0.5681
 6498TIP3    H241054   2.849   5.180   1.061  0.9854 -0.7622 -1.2945
 6499TIP3   OH241055   1.626   0.306   2.375 -0.4558  0.3246 -0.5888
 6499TIP3    H141056   1.687   0.273   2.441  0.2289 -1.4271 -2.0079
 6499TIP3    H241057   1.588   0.385   2.415  2.3350  1.2278  0.5660
 6500TIP3   OH241058   4.882   0.258   2.043  0.1982  0.2097 -0.0161
 6500TIP3    H141059   4.880   0.326   1.976 -0.3178 -0.4915 -0.7404
 6500TIP3    H241060   4.809   0.200   2.021  1.5176 -1.4155 -0.3215
 6501TIP3   OH241061   1.353   1.539   0.035 -0.1345  0.5672 -0.2629
 6501TIP3    H141062   1.328   1.597   0.107  1.9370  2.9718 -1.3399
 6501TIP3    H241063   1.445   1.520   0.050 -0.2866 -0.9317 -1.0133
 6502TIP3   OH241064   1.167   2.148   0.563  0.0124 -0.1990  0.3805
 6502TIP3    H141065   1.076   2.165   0.588 -0.3615  0.4539 -1.3239
 6502TIP3    H241066   1.161   2.105   0.478  1.3052 -0.2174  0.2822
 6503TIP3   OH241067   5.497   2.457   0.207  1.0787  0.5093 -0.1266
 6503TIP3    H141068   5.545   2.537   0.229 -3.0352  2.8047  1.6819
 6503TIP3    H241069   5.415   2.488   0.169 -0.2159 -2.9401 -0.5005
 6504TIP3   OH241070   4.012   5.802   1.406  0.0058  0.3200 -0.5882
 6504TIP3    H141071   4.027   5.873   1.343  0.4960  0.2617 -0.5365
 6504TIP3    H241072   3.943   5.749   1.365  0.2544  0.3374 -1.0354
 6505TIP3   OH241073   4.591   0.518   1.460  0.0278 -0.9374  0.4535
 6505TIP3    H141074   4.684   0.508   1.438  0.0540  0.2483  0.0038
 6505TIP3    H241075   4.547   0.535   1.377 -0.4185 -0.3077  0.8067
 6506TIP3   OH241076   2.911   1.822   1.724 -0.1457 -0.0880  0.0053
 6506TIP3    H141077   2.921   1.913   1.753  1.6037 -0.4574  0.6842
 6506TIP3    H241078   2.866   1.829   1.640 -1.9007  1.2602  0.9886
 6507TIP3   OH241079   6.748   0.300   8.331 -0.1350  0.1987  0.1667
 6507TIP3    H141080   6.706   0.273   8.250 -1.2206 -0.7485  1.0104
 6507TIP3    H241081   6.839   0.315   8.307 -0.4686  0.0830 -1.2478
 6508TIP3   OH241082   0.648   1.626   7.548 -0.5239 -0.0701  0.3613
 6508TIP3    H141083   0.743   1.636   7.542 -0.5276 -0.2311 -0.0608
 6508TIP3    H241084   0.636   1.538   7.584 -0.5100 -0.0765  0.3508
 6509TIP3   OH241085   6.565   4.235   0.051  0.1176 -0.2963 -0.0004
 6509TIP3    H141086   6.612   4.312   0.085 -1.4571 -0.2200  2.1664
 6509TIP3    H241087   6.610   4.160   0.090 -1.5468 -0.2166  2.2363
 6510TIP3   OH241088   5.950   2.689   1.367  0.3800  0.3415  0.1127
 6510TIP3    H141089   6.038   2.691   1.328 -0.2042 -0.1108 -1.2776
 6510TIP3    H241090   5.906   2.765   1.329  0.2168  0.7119  0.9974
 6511TIP3   OH241091   1.189   4.802   2.457 -0.4780  0.0899  0.1364
 6511TIP3    H141092   1.259   4.801   2.391 -1.3262  0.3423 -0.7819
 6511TIP3    H241093   1.236   4.796   2.540  0.5875 -0.9887 -0.4993
 6512TIP3   OH241094   3.839   0.429   7.645 -0.1824 -0.5825  0.2447
 6512TIP3    H141095   3.895   0.410   7.570  0.1362  1.0277  0.0443
 6512TIP3    H241096   3.870   0.370   7.714  0.8508 -0.6751 -0.2806
 6513TIP3   OH241097   6.833   0.397   2.243  0.2166 -0.4799  0.8115
 6513TIP3    H141098   6.879   0.480   2.257 -1.2880  0.9254 -1.8219
 6513TIP3    H241099   6.781   0.385   2.322  0.9923  0.7144  1.5380
 6514TIP3   OH241100   2.634   5.990   0.333 -0.3573 -0.3611 -0.5227
 6514TIP3    H141101   2.694   6.055   0.297  0.1791 -0.5962 -0.0714
 6514TIP3    H241102   2.691   5.926   0.376 -0.8544 -1.3019 -1.2193
 6515TIP3   OH241103   6.092   6.476   1.409  0.1453 -0.1974 -0.0252
 6515TIP3    H141104   6.019   6.449   1.354  0.2690  0.2346 -0.4065
 6515TIP3    H241105   6.152   6.522   1.349  0.2691  0.3029  0.4716
 6516TIP3   OH241106   3.680   3.273   0.702  0.1241  0.2198  0.4437
 6516TIP3    H141107   3.733   3.258   0.780 -1.6438  1.0433  1.8715
 6516TIP3    H241108   3.724   3.346   0.657  2.3936 -1.6554 -0.5991
 6517TIP3   OH241109   2.138   3.146   8.276 -0.0092  0.2593  0.2929
 6517TIP3    H141110   2.114   3.238   8.273 -0.4511  0.1148 -1.0174
 6517TIP3    H241111   2.124   3.121   8.368 -1.9361  0.9648  0.2319
 6518TIP3   OH241112   1.074   2.071   1.472 -0.3835 -0.3739  0.1007
 6518TIP3    H141113   1.004   2.078   1.407 -0.6981 -0.6796  0.4020
 6518TIP3    H241114   1.032   2.094   1.555  0.2805  1.1853  0.0482
 6519TIP3   OH241115   5.437   3.269   8.494  0.0498 -0.4711  0.2811
 6519TIP3    H141116   5.422   3.272   8.589  2.2249 -0.7743  0.6746
 6519TIP3    H241117   5.424   3.359   8.465 -0.2946 -0.3071  0.9096
 6520TIP3   OH241118   1.200   4.371   2.226 -0.0509 -0.2063  0.1140
 6520TIP3    H141119   1.126   4.389   2.284  1.4607  1.5274  1.6332
 6520TIP3    H241120   1.182   4.422   2.148 -0.5079  0.1134  0.4219
 6521TIP3   OH241121   1.572   3.661   1.088  0.1044 -0.4255 -0.2733
 6521TIP3    H141122   1.554   3.741   1.137 -0.1250 -1.2387  1.0155
 6521TIP3    H241123   1.648   3.683   1.034 -1.9204  1.6865 -2.5116
 6522TIP3   OH241124   1.864   2.065   8.262  0.0287 -0.1287 -0.1043
 6522TIP3    H141125   1.831   1.981   8.293  1.3622 -1.1913 -1.3879
 6522TIP3    H241126   1.824   2.077   8.176  0.0689  0.4031 -0.0543
 6523TIP3   OH241127   4.473   1.159   0.594 -0.0080  0.4821  0.2305
 6523TIP3    H141128   4.474   1.107   0.674  0.5517  0.6845  0.3625
 6523TIP3    H241129   4.483   1.250   0.625  1.3044  0.4787 -0.1197
 6524TIP3   OH241130   4.955   3.327   1.414  0.6428 -0.1542  0.4489
 6524TIP3    H141131   5.037   3.300   1.456  1.3862 -0.7823 -1.2942
 6524TIP3    H241132   4.964   3.297   1.323 -2.0455 -1.3639  0.4906
 6525TIP3   OH241133   0.289   4.546   0.506 -0.0656 -0.0708  0.3301
 6525TIP3    H141134   0.352   4.546   0.434 -0.0025  0.7225  0.3806
 6525TIP3    H241135   0.305   4.463   0.551  0.6833 -0.0521  0.1160
 6526TIP3   OH241136   1.529   1.291   2.509 -0.3363  0.4277 -0.1432
 6526TIP3    H141137   1.463   1.236   2.549  1.8660 -0.4186  2.6763
 6526TIP3    H241138   1.506   1.380   2.534 -0.4999  0.1496  0.7088
 6527TIP3   OH241139   6.621   2.666   0.538  0.4986 -0.5351 -0.3853
 6527TIP3    H141140   6.568   2.658   0.617  3.3542 -3.0239  1.4873
 6527TIP3    H241141   6.581   2.604   0.476  0.6830 -1.7830  0.6998
 6528TIP3   OH241142   4.384   4.574   7.779  0.2689 -0.0743  0.2811
 6528TIP3    H141143   4.309   4.620   7.741 -0.8063 -1.4063  0.6881
 6528TIP3    H241144   4.460   4.625   7.752 -0.7260  0.9181 -0.7664
 6529TIP3   OH241145   0.320   2.176   0.213 -0.0062 -0.5417  0.1948
 6529TIP3    H141146   0.366   2.167   0.297 -2.0791 -1.7280  1.3012
 6529TIP3    H241147   0.341   2.264   0.184 -0.1603  0.3812  2.6123
 6530TIP3   OH241148   5.163   0.426   0.077 -0.4805  0.6717 -0.0387
 6530TIP3    H141149   5.090   0.464   0.126 -1.3001 -1.4576  0.5011
 6530TIP3    H241150   5.205   0.367   0.139 -0.4031 -0.6878 -1.3114
 6531TIP3   OH241151   3.574   1.619   1.872 -0.5090 -0.8164 -0.1404
 6531TIP3    H141152   3.641   1.558   1.841 -0.3038  0.4610 -2.4003
 6531TIP3    H241153   3.492   1.582   1.840 -0.7031 -1.3381  0.9163
 6532TIP3   OH241154   3.497   3.057   1.413  0.2296 -0.7209  0.2327
 6532TIP3    H141155   3.535   2.976   1.379 -2.0845 -1.7100 -0.2077
 6532TIP3    H241156   3.462   3.101   1.335 -0.9570 -0.6871  0.7666
 6533TIP3   OH241157   3.340   4.546   2.418  0.4452 -0.6994 -0.6395
 6533TIP3    H141158   3.366   4.591   2.338  0.4333  1.1678  0.3551
 6533TIP3    H241159   3.421   4.507   2.452  0.4453 -1.5207 -1.5299
 6534TIP3   OH241160   1.678   6.620   1.828 -0.0255 -0.8296 -0.0837
 6534TIP3    H141161   1.745   6.561   1.794 -2.3312 -2.2092 -2.7668
 6534TIP3    H241162   1.656   6.677   1.754 -0.8573  0.5206  1.1407
 6535TIP3   OH241163   1.484   0.657   1.067 -0.0309  0.2462 -0.5176
 6535TIP3    H141164   1.572   0.656   1.028 -0.2131  1.2871 -1.0111
 6535TIP3    H241165   1.496   0.619   1.154  1.1701  1.4967 -0.0890
 6536TIP3   OH241166   6.494   5.462   8.048  0.5579  0.7481  0.2441
 6536TIP3    H141167   6.559   5.395   8.026 -1.0125 -0.6620 -0.2522
 6536TIP3    H241168   6.412   5.414   8.061 -0.5466  2.5337  0.2930
 6537TIP3   OH241169   3.914   3.253   0.891 -0.6041 -0.7181  0.3246
 6537TIP3    H141170   3.935   3.171   0.847  1.4332  0.2832 -0.7072
 6537TIP3    H241171   3.998   3.285   0.923 -1.4989  0.5179  1.5496
 6538TIP3   OH241172   0.979   0.902   0.729 -0.0950 -0.2327  0.3893
 6538TIP3    H141173   0.922   0.835   0.767  0.2820 -1.1667 -0.6636
 6538TIP3    H241174   1.058   0.900   0.784  0.0965 -0.9711  0.0951
 6539TIP3   OH241175   4.178   0.777   1.258 -0.1147 -0.0961  0.7658
 6539TIP3    H141176   4.191   0.692   1.300 -0.8620 -0.6948 -0.1690
 6539TIP3    H241177   4.122   0.825   1.319 -0.9411 -0.8419  0.6222
 6540TIP3   OH241178   5.549   4.824   2.617  0.0831 -0.6086  0.1322
 6540TIP3    H141179   5.509   4.908   2.594  1.1758  0.3658  1.6585
 6540TIP3    H241180   5.641   4.833   2.592 -0.1979 -2.1732 -1.6735
 6541TIP3   OH241181   3.790   3.168   7.563 -0.1995 -0.5115 -0.3056
 6541TIP3    H141182   3.811   3.258   7.536 -2.4137 -0.1131 -0.8847
 6541TIP3    H241183   3.794   3.118   7.481 -0.3812 -0.6479 -0.2311
 6542TIP3   OH241184   0.748   3.894   7.291 -0.8215 -0.2463 -0.0300
 6542TIP3    H141185   0.770   3.984   7.317  0.7028 -0.4143 -0.6337
 6542TIP3    H241186   0.665   3.903   7.244 -0.9574  0.7701  0.3639
 6543TIP3   OH241187   4.296   3.994   1.193 -0.3845 -0.2666 -0.9979
 6543TIP3    H141188   4.280   3.904   1.164 -0.3281 -0.0254 -1.8169
 6543TIP3    H241189   4.356   3.986   1.267 -0.0075 -0.8811 -1.3641
 6544TIP3   OH241190   0.503   4.051   0.239 -0.1503  0.3501 -0.0502
 6544TIP3    H141191   0.454   4.014   0.166 -0.4758  0.3067  0.1938
 6544TIP3    H241192   0.490   3.991   0.311  0.0243  0.4892  0.1001
 6545TIP3   OH241193   1.630   6.465   7.606 -0.2983  0.6740 -0.1897
 6545TIP3    H141194   1.588   6.529   7.548  0.0319  0.9204 -0.1575
 6545TIP3    H241195   1.690   6.417   7.549  0.3300  1.1915  0.0285
 6546TIP3   OH241196   1.273   4.691   7.774  0.2539  0.4730  0.2185
 6546TIP3    H141197   1.293   4.604   7.740  0.5427  0.8150 -0.4910
 6546TIP3    H241198   1.281   4.750   7.699 -0.5058  1.0372  0.5592
 6547TIP3   OH241199   0.940   3.680   0.573 -0.1299 -0.2762 -0.5707
 6547TIP3    H141200   0.919   3.587   0.582 -0.7376 -0.0879  0.0312
 6547TIP3    H241201   1.024   3.690   0.617 -1.0465 -0.1692  1.2484
 6548TIP3   OH241202   1.356   0.045   0.798 -0.8890  0.2587 -0.1959
 6548TIP3    H141203   1.335   0.129   0.840 -0.9967 -0.3654  1.0677
 6548TIP3    H241204   1.452   0.043   0.796 -0.8889  0.5272 -0.4713
 6549TIP3   OH241205   1.444   4.205   1.091 -0.1013 -0.4525 -0.2257
 6549TIP3    H141206   1.397   4.161   1.021 -2.1185 -1.0632  1.4102
 6549TIP3    H241207   1.461   4.293   1.058 -2.2818 -0.2626 -0.9652
 6550TIP3   OH241208   3.758   6.421   0.132  0.2316  0.7565  0.0765
 6550TIP3    H141209   3.754   6.503   0.083 -0.8604  1.5930  1.4669
 6550TIP3    H241210   3.716   6.442   0.216  0.5826 -1.0386  0.7387
 6551TIP3   OH241211   0.303   2.571   1.028  0.4418 -0.3873 -0.3470
 6551TIP3    H141212   0.314   2.476   1.025  2.7249 -0.1875 -0.4688
 6551TIP3    H241213   0.212   2.586   1.004  0.4565 -2.4721 -1.9794
 6552TIP3   OH241214   4.348   1.713   8.444 -0.5562  0.4469  0.2521
 6552TIP3    H141215   4.337   1.794   8.395  0.9299  0.0321 -0.8270
 6552TIP3    H241216   4.394   1.654   8.384 -1.3100 -1.0974  1.1247
 6553TIP3   OH241217   4.818   2.863   0.514 -0.4690  0.4089 -0.5026
 6553TIP3    H141218   4.808   2.903   0.427 -1.7889  2.7486  0.6229
 6553TIP3    H241219   4.862   2.931   0.566 -1.2197 -0.2784  1.0829
 6554TIP3   OH241220   3.956   0.122   2.995 -0.4678  0.5466 -0.4280
 6554TIP3    H141221   4.010   0.063   2.944  0.9102  0.4888  1.0245
 6554TIP3    H241222   3.870   0.079   3.000 -0.1038 -0.2857 -1.1723
 6555TIP3   OH241223   0.740   5.392   8.489 -0.4093  0.1772 -0.3309
 6555TIP3    H141224   0.781   5.348   8.415 -2.2643  0.8669 -1.8600
 6555TIP3    H241225   0.646   5.376   8.477 -1.0752  3.3752 -0.2595
 6556TIP3   OH241226   5.310   4.907   1.258 -0.6545 -0.4735  0.1124
 6556TIP3    H141227   5.383   4.968   1.245 -0.2563 -1.3829 -2.9748
 6556TIP3    H241228   5.235   4.963   1.277  0.2338  0.7635  0.1232
 6557TIP3   OH241229   2.707   1.513   8.576  0.3209  0.2787  0.3421
 6557TIP3    H141230   2.636   1.567   8.540 -0.3059 -0.7606 -0.0213
 6557TIP3    H241231   2.666   1.466   8.648 -0.0479 -2.0553 -1.2631
 6558TIP3   OH241232   6.175   5.622   2.084 -0.3744  0.5529  0.3639
 6558TIP3    H141233   6.176   5.593   1.993  1.2766  1.9948 -0.1343
 6558TIP3    H241234   6.157   5.543   2.135  0.5789 -0.6569 -1.0929
 6559TIP3   OH241235   0.063   1.632   1.021  0.6360 -0.9408 -0.2366
 6559TIP3    H141236  -0.019   1.600   0.982  0.5835 -1.7977  0.5564
 6559TIP3    H241237   0.100   1.556   1.065  0.1526  0.2206  2.3153
 6560TIP3   OH241238   5.107   6.292   2.279 -0.2966 -0.3267  0.2494
 6560TIP3    H141239   5.015   6.278   2.301 -0.2316 -1.5919 -0.2327
 6560TIP3    H241240   5.117   6.387   2.279 -1.5623 -0.1781  0.4749
 6561TIP3   OH241241   2.030   6.400   0.598  0.5406 -0.0872  0.3218
 6561TIP3    H141242   1.994   6.311   0.601 -0.4089  0.2982  0.7300
 6561TIP3    H241243   2.006   6.439   0.682  0.2580  0.8088 -0.1563
 6562TIP3   OH241244   3.555   4.288   0.333 -0.1517  0.2160  0.1278
 6562TIP3    H141245   3.619   4.264   0.265 -0.1516 -1.6574  0.7472
 6562TIP3    H241246   3.570   4.225   0.403 -2.6743 -0.2856  0.3065
 6563TIP3   OH241247   4.827   4.130   2.049  0.2480 -0.5930 -0.3460
 6563TIP3    H141248   4.833   4.158   2.140 -2.1305 -0.3491 -0.1861
 6563TIP3    H241249   4.733   4.116   2.035  0.3282  0.9853 -3.2354
 6564TIP3   OH241250   6.428   6.672   0.119  0.0835  0.1611  0.9720
 6564TIP3    H141251   6.341   6.652   0.085  0.7598  2.0688 -2.3420
 6564TIP3    H241252   6.414   6.733   0.190 -1.3121  1.1688 -0.1241
 6565TIP3   OH241253   3.069   6.868   2.434 -0.2551  0.0289  0.2295
 6565TIP3    H141254   3.011   6.895   2.504  0.1204  0.6313  0.3145
 6565TIP3    H241255   3.143   6.827   2.478 -0.8764 -1.2710  0.0964
 6566TIP3   OH241256   6.217   5.823   1.206 -0.3739 -1.0090  0.2529
 6566TIP3    H141257   6.165   5.808   1.128 -0.7249 -0.9661  0.4745
 6566TIP3    H241258   6.238   5.735   1.238 -3.1703 -1.1712  2.0425
 6567TIP3   OH241259   1.465   6.079   1.664 -0.3182  0.6153  0.0143
 6567TIP3    H141260   1.374   6.107   1.668  0.0542  1.8318  0.5762
 6567TIP3    H241261   1.496   6.084   1.755  0.4475  0.7423 -0.2430
 6568TIP3   OH241262   6.075   2.401   0.767  0.1877  0.0576  0.8013
 6568TIP3    H141263   6.122   2.474   0.808  1.2906 -0.1647  0.0119
 6568TIP3    H241264   6.145   2.344   0.735 -0.6473 -1.7646  2.0752
 6569TIP3   OH241265   6.079   0.076   0.876  0.1982  0.3280  0.4698
 6569TIP3    H141266   6.118   0.142   0.933  0.7386 -1.0327  1.7362
 6569TIP3    H241267   6.046   0.009   0.935 -1.1635 -0.1372 -0.7416
 6570TIP3   OH241268   2.654   6.308   1.101 -0.1922  0.0746  0.3381
 6570TIP3    H141269   2.713   6.349   1.164  0.2091 -1.0075  0.6909
 6570TIP3    H241270   2.642   6.218   1.134 -0.8688 -0.1656 -0.5205
 6571TIP3   OH241271   0.447   1.056   7.832 -0.3291  0.5027 -0.0109
 6571TIP3    H141272   0.374   1.001   7.804  0.5552 -0.4127 -0.5807
 6571TIP3    H241273   0.506   0.996   7.877  1.3581  0.6440 -1.9049
 6572TIP3   OH241274   6.535   0.534   1.450  0.1888  0.1627 -0.6018
 6572TIP3    H141275   6.484   0.506   1.374  2.2325 -0.3067 -1.8649
 6572TIP3    H241276   6.523   0.629   1.453  1.7880  0.4991 -2.8730
 6573TIP3   OH241277   2.887   1.311   8.575 -0.0114  0.1192 -0.1614
 6573TIP3    H141278   2.941   1.306   8.653  1.5507 -3.0676 -1.2284
 6573TIP3    H241279   2.818   1.373   8.596  1.3046  0.6485  3.0833
 6574TIP3   OH241280   2.493   1.393   1.804  0.5462 -0.4407  0.1420
 6574TIP3    H141281   2.583   1.379   1.835  0.4303 -0.8184  0.3248
 6574TIP3    H241282   2.482   1.331   1.733  1.2884  1.4316 -1.6959
 6575TIP3   OH241283   4.193   5.138   7.712  0.9131 -0.3585  0.7832
 6575TIP3    H141284   4.124   5.079   7.744  0.3363  0.0301  0.2888
 6575TIP3    H241285   4.205   5.113   7.621  0.3970  0.5117  0.4589
 6576TIP3   OH241286   0.475   1.603   1.499 -0.3025 -0.0573  0.2084
 6576TIP3    H141287   0.474   1.592   1.595  0.7319 -2.0273  0.0594
 6576TIP3    H241288   0.563   1.637   1.481  0.8083 -2.8281 -0.2036
 6577TIP3   OH241289   0.376   0.085   8.226 -0.1839 -0.2726  0.0117
 6577TIP3    H141290   0.286   0.055   8.213 -0.3358 -0.3795  1.1938
 6577TIP3    H241291   0.398   0.130   8.145 -1.6230  0.5406  0.0267
 6578TIP3   OH241292   5.655   0.350   7.863 -0.5648  0.0282 -0.0628
 6578TIP3    H141293   5.749   0.367   7.867 -0.3631 -1.0034 -0.0504
 6578TIP3    H241294   5.633   0.363   7.770 -0.7203  1.6769  0.1670
 6579TIP3   OH241295   5.017   6.250   7.491 -0.4934 -0.1788 -0.8788
 6579TIP3    H141296   5.038   6.274   7.401 -1.1146  0.4312 -0.8608
 6579TIP3    H241297   4.928   6.216   7.487 -0.1609 -1.1220 -0.6564
 6580TIP3   OH241298   6.668   5.171   1.034 -0.2505 -0.3210  0.0566
 6580TIP3    H141299   6.754   5.130   1.035  0.0134  0.2480  1.0915
 6580TIP3    H241300   6.641   5.168   0.942  1.1149  0.0070 -0.3694
 6581TIP3   OH241301   1.390   4.977   0.084  0.3894  0.0052  0.0369
 6581TIP3    H141302   1.320   4.914   0.101 -1.5767  1.9233 -0.4286
 6581TIP3    H241303   1.447   4.933   0.021 -0.5952 -1.5122  0.1509
 6582TIP3   OH241304   3.378   0.825   2.079 -0.1441  0.0640  0.2479
 6582TIP3    H141305   3.443   0.755   2.083  0.7119  0.8386  0.2315
 6582TIP3    H241306   3.324   0.804   2.003 -0.7082 -1.2552  0.9870
 6583TIP3   OH241307   2.494   6.205   0.569 -0.7465 -0.3712 -0.4942
 6583TIP3    H141308   2.435   6.211   0.644 -0.7101  3.1024 -0.5862
 6583TIP3    H241309   2.564   6.147   0.598  0.3505  2.3651  3.1028
 6584TIP3   OH241310   4.647   3.254   7.044  0.2700  0.6835  0.3515
 6584TIP3    H141311   4.725   3.309   7.053  1.0737 -0.2912 -0.4565
 6584TIP3    H241312   4.670   3.190   6.977 -0.6122 -0.7182  1.3392
 6585TIP3   OH241313   0.039   3.613   1.890  0.6752  0.8152 -0.2437
 6585TIP3    H141314  -0.009   3.546   1.840 -0.8819  0.9855  0.9352
 6585TIP3    H241315   0.118   3.629   1.839  0.8682 -1.5689 -0.8236
 6586TIP3   OH241316   1.303   6.522   7.496 -0.5377  0.2287 -0.1340
 6586TIP3    H141317   1.314   6.449   7.557  0.9428  0.7978  0.3291
 6586TIP3    H241318   1.228   6.570   7.530  0.2140  0.4918  1.2370
 6587TIP3   OH241319   4.860   6.219   2.344  0.7304 -0.1322  0.3514
 6587TIP3    H141320   4.828   6.299   2.386  1.8562  0.3240  0.3993
 6587TIP3    H241321   4.781   6.171   2.319  0.0236  1.1271  0.0617
 6588TIP3   OH241322   6.282   2.886   1.932  0.0570  0.7162  0.2992
 6588TIP3    H141323   6.340   2.838   1.991  0.5663  0.2448 -0.5631
 6588TIP3    H241324   6.316   2.975   1.931  1.0383  0.3469 -0.5230
 6589TIP3   OH241325   1.237   2.903   7.705 -0.0267 -0.3707  0.7161
 6589TIP3    H141326   1.169   2.903   7.772 -1.6638  1.2074 -0.8276
 6589TIP3    H241327   1.194   2.867   7.628  1.3853 -0.8212  0.1131
 6590TIP3   OH241328   3.392   6.722   1.063  0.1833 -0.4500  0.0943
 6590TIP3    H141329   3.439   6.639   1.055  1.6336  0.3302  0.1534
 6590TIP3    H241330   3.380   6.734   1.158  0.3799 -0.3668  0.1078
 6591TIP3   OH241331   6.805   4.623   8.139 -0.1421  0.4998  0.8580
 6591TIP3    H141332   6.757   4.541   8.135 -2.8342  1.9886 -0.4070
 6591TIP3    H241333   6.831   4.641   8.048  1.4764  0.5201  1.2894
 6592TIP3   OH241334   1.190   6.011   1.118 -0.0474 -0.3132  0.2858
 6592TIP3    H141335   1.110   5.995   1.068  0.2467 -1.3034  0.1148
 6592TIP3    H241336   1.240   6.073   1.065  0.2511 -1.3379 -0.6652
 6593TIP3   OH241337   0.109   0.706   2.042 -0.3988  0.1609  0.5347
 6593TIP3    H141338   0.099   0.673   2.131 -2.7942 -0.4817  0.1008
 6593TIP3    H241339   0.107   0.802   2.051  0.0606  0.1031  1.2284
 6594TIP3   OH241340   2.902   5.310   0.072  0.7097  0.2858  0.0007
 6594TIP3    H141341   2.903   5.370  -0.002 -2.2824  2.4369  1.4715
 6594TIP3    H241342   2.816   5.269   0.069  0.6566  0.1184  1.9951
 6595TIP3   OH241343   2.458   4.562   2.540  0.2621  0.1661 -0.4673
 6595TIP3    H141344   2.506   4.483   2.567 -1.3727 -0.1868  1.6468
 6595TIP3    H241345   2.417   4.594   2.620 -1.0867  1.8210 -1.7318
 6596TIP3   OH241346   4.973   1.631   6.959  0.0208  0.5065  0.6542
 6596TIP3    H141347   5.030   1.708   6.963 -1.9006  2.0745 -0.1390
 6596TIP3    H241348   4.936   1.634   6.871  0.3650 -1.7397  0.3832
 6597TIP3   OH241349   2.117   3.379   1.866  0.7995  0.3853 -0.0506
 6597TIP3    H141350   2.143   3.293   1.899 -1.0780 -0.1466  0.1530
 6597TIP3    H241351   2.189   3.437   1.891  1.3670 -0.8168  1.2521
 6598TIP3   OH241352   1.848   1.476   1.712  0.3750  0.7211  0.0526
 6598TIP3    H141353   1.777   1.524   1.670 -0.4192  0.5214  1.1281
 6598TIP3    H241354   1.921   1.538   1.716  0.5389  0.7014 -1.7266
 6599TIP3   OH241355   1.695   2.069   0.269  0.3055  0.1407 -0.6277
 6599TIP3    H141356   1.703   2.090   0.176  0.3493 -0.3677 -0.7425
 6599TIP3    H241357   1.610   2.105   0.294 -0.6455 -1.4760 -1.3654
 6600TIP3   OH241358   6.624   6.329   2.687 -0.0988  0.3551  0.3645
 6600TIP3    H141359   6.651   6.309   2.777 -0.8669 -0.2765  0.4714
 6600TIP3    H241360   6.578   6.250   2.658  2.4132 -0.5548 -1.5477
 6601TIP3   OH241361   4.285   2.667   0.497 -0.2749 -0.0728  0.3445
 6601TIP3    H141362   4.247   2.722   0.565  0.1189  0.7032 -0.0446
 6601TIP3    H241363   4.349   2.613   0.542  1.2161  1.6367  0.3620
 6602TIP3   OH241364   5.536   4.800   2.941  0.2627 -0.2364  0.0249
 6602TIP3    H141365   5.484   4.876   2.914  0.4854 -0.3021 -0.6030
 6602TIP3    H241366   5.567   4.762   2.859  3.2874  1.1725  0.4032
 6603TIP3   OH241367   3.906   2.725   2.330  0.0421  1.3812  0.2262
 6603TIP3    H141368   3.971   2.655   2.332 -0.7264  0.5174 -1.7959
 6603TIP3    H241369   3.823   2.680   2.345 -0.1636  2.5033  3.0735
 6604TIP3   OH241370   6.771   5.905   1.406  0.3932 -0.3227  0.0692
 6604TIP3    H141371   6.789   5.812   1.418  2.7659  0.0663 -0.1249
 6604TIP3    H241372   6.857   5.946   1.402 -0.5947  1.8259 -0.3910
 6605TIP3   OH241373   3.405   2.677   8.535 -0.2036 -0.5242  0.3430
 6605TIP3    H141374   3.346   2.605   8.555  1.3083 -1.8865  0.0809
 6605TIP3    H241375   3.476   2.668   8.598  0.5450  0.0681 -0.3935
 6606TIP3   OH241376   3.346   0.974   0.371 -0.9737  0.1186  0.3699
 6606TIP3    H141377   3.329   0.880   0.380 -0.3795  0.1336  2.0309
 6606TIP3    H241378   3.441   0.982   0.380 -1.1396  0.9867  1.6572
 6607TIP3   OH241379   0.910   3.972   0.573 -0.3154  0.4278 -0.8209
 6607TIP3    H141380   0.901   3.877   0.571 -2.6256  0.5807 -0.1326
 6607TIP3    H241381   1.000   3.988   0.544  0.2261 -1.9604 -0.6657
 6608TIP3   OH241382   1.319   3.244   7.930 -0.6936  0.1658  0.2823
 6608TIP3    H141383   1.256   3.223   7.999  0.2425 -1.2596  0.7510
 6608TIP3    H241384   1.357   3.328   7.956 -2.1676  0.9297  0.1186
 6609TIP3   OH241385   0.289   6.869   7.757  0.0817  0.0651  0.2679
 6609TIP3    H141386   0.340   6.919   7.694 -1.9134  1.6282 -0.2058
 6609TIP3    H241387   0.228   6.817   7.704 -1.2751  1.0119  0.8606
 6610TIP3   OH241388   4.863   1.192   0.182 -0.1085  0.0449 -0.0251
 6610TIP3    H141389   4.911   1.131   0.237  0.2291  0.1766 -0.1703
 6610TIP3    H241390   4.772   1.184   0.211  0.1624  0.6395  1.0369
 6611TIP3   OH241391   1.229   1.376   1.967 -0.2441 -0.5971 -0.2648
 6611TIP3    H141392   1.225   1.435   2.042  0.4705  0.0910 -0.7530
 6611TIP3    H241393   1.318   1.340   1.970 -1.1429 -2.9461  0.9712
 6612TIP3   OH241394   1.459   0.233   8.230 -0.3692  0.2001  0.2364
 6612TIP3    H141395   1.400   0.160   8.207 -0.4044  0.0227  0.8630
 6612TIP3    H241396   1.526   0.193   8.285  0.2139  0.4486 -0.2803
 6613TIP3   OH241397   2.838   2.924   8.557 -0.2319  0.6977 -1.0756
 6613TIP3    H141398   2.826   2.935   8.462  0.6508  0.4644 -1.2294
 6613TIP3    H241399   2.782   2.992   8.596 -1.4545  0.0859 -1.7116
 6614TIP3   OH241400   4.582   4.893   2.748 -0.1978  0.0921 -0.2108
 6614TIP3    H141401   4.546   4.967   2.797 -0.2989 -0.0227 -0.1093
 6614TIP3    H241402   4.666   4.875   2.790 -1.4933 -1.7979  1.7884
 6615TIP3   OH241403   3.309   1.076   1.690 -0.0517  0.3742  0.5797
 6615TIP3    H141404   3.216   1.091   1.673 -0.8004 -3.3590  0.4160
 6615TIP3    H241405   3.322   0.983   1.670  3.2725  0.2580  2.5492
 6616TIP3   OH241406   6.868   0.498   7.273 -0.2090  0.4490 -0.3525
 6616TIP3    H141407   6.858   0.587   7.240 -1.5383  0.8112  0.9276
 6616TIP3    H241408   6.781   0.460   7.268 -0.1141 -0.0366  1.0950
 6617TIP3   OH241409   0.529   6.387   7.789 -0.1260  0.2107 -0.2742
 6617TIP3    H141410   0.476   6.374   7.710 -0.0758 -1.2452 -0.1012
 6617TIP3    H241411   0.560   6.299   7.812  1.1382  0.8240  0.4868
 6618TIP3   OH241412   3.302   4.542   7.373  0.6303 -0.5258 -0.4776
 6618TIP3    H141413   3.219   4.588   7.363 -0.0732 -2.0850 -2.4785
 6618TIP3    H241414   3.358   4.576   7.303  2.2819  1.5350  1.6883
 6619TIP3   OH241415   1.390   4.186   7.716  0.3957  0.4236  0.3993
 6619TIP3    H141416   1.425   4.208   7.803 -1.3986 -2.0425  1.8917
 6619TIP3    H241417   1.451   4.120   7.682 -0.1899 -0.4079  0.9177
 6620TIP3   OH241418   2.794   3.531   8.006  0.4675 -0.1252  0.4293
 6620TIP3    H141419   2.867   3.471   7.997 -0.7883 -1.9228  1.4194
 6620TIP3    H241420   2.817   3.586   8.082  1.5326  0.5414 -0.3541
 6621TIP3   OH241421   4.554   1.961   8.391  0.1942  0.3043 -0.1113
 6621TIP3    H141422   4.573   2.054   8.385 -1.3176  0.5773 -1.2210
 6621TIP3    H241423   4.459   1.956   8.402  0.3828 -1.0841  1.4184
 6622TIP3   OH241424   3.864   5.046   1.304 -0.4754  0.2572 -0.0704
 6622TIP3    H141425   3.806   5.108   1.260  0.2020 -0.0973 -1.5088
 6622TIP3    H241426   3.812   4.965   1.309 -0.9604  0.6101  0.8280
 6623TIP3   OH241427   2.835   0.961   1.054  0.2218  0.1837 -0.4507
 6623TIP3    H141428   2.753   1.007   1.034 -0.7379 -0.9447  0.7037
 6623TIP3    H241429   2.825   0.876   1.011  0.2921 -0.3686  0.5992
 6624TIP3   OH241430   3.150   4.426   7.575  0.1148 -0.5294  0.2029
 6624TIP3    H141431   3.144   4.492   7.644  1.2381 -0.5110  0.3031
 6624TIP3    H241432   3.208   4.466   7.510 -1.2926 -0.3482 -1.0015
 6625TIP3   OH241433   4.749   4.491   2.453 -0.6081 -0.5148  0.1835
 6625TIP3    H141434   4.756   4.557   2.523  0.1841 -1.4269  0.9962
 6625TIP3    H241435   4.738   4.542   2.373 -1.1383  0.5696  0.9213
 6626TIP3   OH241436   5.065   0.852   7.851 -0.0905  0.6231  0.4750
 6626TIP3    H141437   5.155   0.848   7.883  0.0384  1.0193  0.1614
 6626TIP3    H241438   5.012   0.832   7.928  0.2977 -0.9131  0.3909
 6627TIP3   OH241439   3.232   3.721   7.403  0.0868 -0.2307 -0.3659
 6627TIP3    H141440   3.149   3.736   7.449 -0.9541 -0.6413 -2.0153
 6627TIP3    H241441   3.236   3.626   7.393 -0.9901 -0.0484 -3.2535
 6628TIP3   OH241442   0.852   0.114   0.939 -0.0725  0.9569  0.0118
 6628TIP3    H141443   0.932   0.064   0.924  0.2750  1.6782 -0.6340
 6628TIP3    H241444   0.883   0.202   0.963 -0.6606  1.3894 -0.7707
 6629TIP3   OH241445   3.511   3.082   0.283 -0.1646  0.0915 -0.3354
 6629TIP3    H141446   3.604   3.063   0.292 -0.6241 -2.1385  0.4849
 6629TIP3    H241447   3.476   3.072   0.372 -1.7022 -2.7257 -1.1388
 6630TIP3   OH241448   4.109   5.608   0.014 -0.2484 -0.1554 -0.0118
 6630TIP3    H141449   4.201   5.628   0.025 -0.4661  1.5911 -1.0709
 6630TIP3    H241450   4.107   5.537  -0.050  0.3675 -0.5853  0.4379
 6631TIP3   OH241451   2.520   0.423   1.525 -0.9573  0.9261 -0.9121
 6631TIP3    H141452   2.470   0.479   1.585 -2.0314  0.6828 -1.5611
 6631TIP3    H241453   2.583   0.378   1.582 -3.4810 -1.0840  0.4740
 6632TIP3   OH241454   5.736   4.808   1.856  0.5678 -0.3039  0.3473
 6632TIP3    H141455   5.781   4.863   1.921  0.0798 -0.9430  1.2477
 6632TIP3    H241456   5.657   4.858   1.833  0.9620  0.1265 -0.1034
 6633TIP3   OH241457   3.122   4.690   2.313 -0.3942 -0.3899  0.4592
 6633TIP3    H141458   3.047   4.734   2.353 -0.3538 -0.6727  0.8568
 6633TIP3    H241459   3.151   4.628   2.380  0.3321 -0.1262  0.3887
 6634TIP3   OH241460   1.131   5.408   2.189 -0.2416 -0.0466  0.4429
 6634TIP3    H141461   1.052   5.420   2.137 -0.5880 -0.4794  0.8626
 6634TIP3    H241462   1.102   5.362   2.268 -0.0636  2.3583  2.0054
 6635TIP3   OH241463   2.728   4.022   7.723  0.2680 -0.5834  0.1831
 6635TIP3    H141464   2.810   4.068   7.738  0.4961 -0.7228 -0.6241
 6635TIP3    H241465   2.729   3.949   7.786  1.4177 -1.4248 -0.7725
 6636TIP3   OH241466   5.610   5.754   0.344  0.0604  0.8574 -0.2302
 6636TIP3    H141467   5.522   5.739   0.309 -1.1145  2.0585  1.9891
 6636TIP3    H241468   5.640   5.668   0.373 -1.2560  0.7388  0.8406
 6637TIP3   OH241469   0.682   5.999   6.539 -0.0561  0.2399  0.2814
 6637TIP3    H141470   0.692   5.972   6.447  1.7854  2.5346 -0.2960
 6637TIP3    H241471   0.588   6.008   6.551 -0.3671 -0.5677 -1.2340
 6638TIP3   OH241472   6.035   0.788   2.164  0.3879 -0.3121 -0.0225
 6638TIP3    H141473   6.031   0.701   2.204  0.4728  0.1213  0.9411
 6638TIP3    H241474   6.018   0.772   2.071  2.5057 -1.6481 -0.2461
 6639TIP3   OH241475   5.068   1.001   2.833 -0.4464  0.0529  0.0435
 6639TIP3    H141476   4.996   0.980   2.892 -0.7106  0.3160 -0.1836
 6639TIP3    H241477   5.027   1.043   2.758 -0.0150  0.5986  0.1025
 6640TIP3   OH241478   3.551   4.844   1.424  0.0232  0.2058  0.3300
 6640TIP3    H141479   3.505   4.836   1.341  0.6419  0.9019 -0.0900
 6640TIP3    H241480   3.545   4.936   1.447  1.8679  0.4861 -0.1414
 6641TIP3   OH241481   4.277   3.064   8.311 -0.4395 -0.1468  0.0228
 6641TIP3    H141482   4.249   3.009   8.383 -2.9649  0.9181 -0.0104
 6641TIP3    H241483   4.238   3.024   8.233  1.3726 -0.6980 -0.6531
 6642TIP3   OH241484   3.964   3.214   0.536 -0.7121  0.0998  0.3510
 6642TIP3    H141485   3.886   3.263   0.509 -0.9806 -0.6679 -0.2942
 6642TIP3    H241486   4.007   3.271   0.600 -2.0996  0.2852  1.1459
 6643TIP3   OH241487   0.837   0.820   6.839 -0.2376 -0.1263 -0.0596
 6643TIP3    H141488   0.908   0.756   6.849 -1.3522 -1.1201  2.6931
 6643TIP3    H241489   0.763   0.769   6.807  0.0976  0.8389 -2.5829
 6644TIP3   OH241490   4.897   0.510   8.487  0.2708  0.1759 -0.2907
 6644TIP3    H141491   4.879   0.434   8.543  1.3263  0.2629  0.1973
 6644TIP3    H241492   4.988   0.533   8.507 -0.2033  1.9220 -0.0089
 6645TIP3   OH241493   5.815   6.292   0.289 -0.6553 -0.3485  0.4268
 6645TIP3    H141494   5.910   6.307   0.290 -0.7086  0.0293  0.2018
 6645TIP3    H241495   5.806   6.197   0.289 -0.2407 -0.4143 -0.9261
 6646TIP3   OH241496   3.236   6.758   2.633 -0.4428  0.1824 -0.4666
 6646TIP3    H141497   3.173   6.688   2.650  0.7725 -0.8364  0.0152
 6646TIP3    H241498   3.237   6.811   2.713 -0.0196 -0.3539 -0.1105
 6647TIP3   OH241499   3.711   5.955   0.354  0.1412 -0.1280 -0.9382
 6647TIP3    H141500   3.631   5.977   0.402  1.3520  2.4130  0.0811
 6647TIP3    H241501   3.700   5.998   0.269  0.3568  0.0754 -0.8623
 6648TIP3   OH241502   4.159   5.724   2.149 -0.8535  0.1974  0.6160
 6648TIP3    H141503   4.235   5.666   2.154 -0.0432  1.2475  0.8629
 6648TIP3    H241504   4.098   5.678   2.092  0.4302 -0.1593 -0.5275
 6649TIP3   OH241505   6.089   3.620   0.070 -0.5322  0.0862 -0.0873
 6649TIP3    H141506   6.145   3.691   0.101  2.8996 -1.8920 -1.3089
 6649TIP3    H241507   6.040   3.658  -0.003 -0.4252  1.7341  0.6558
 6650TIP3   OH241508   2.732   6.534   8.364  0.2254  0.0270  0.2659
 6650TIP3    H141509   2.712   6.579   8.445 -0.9347 -2.2050  1.3281
 6650TIP3    H241510   2.823   6.556   8.345 -0.4038  3.0870  0.4061
 6651TIP3   OH241511   0.320   3.430   1.029  0.0647 -0.2443 -0.4450
 6651TIP3    H141512   0.389   3.370   1.056  0.9577  1.0976  0.3838
 6651TIP3    H241513   0.240   3.393   1.067  0.4215 -1.4229 -0.7961
 6652TIP3   OH241514   5.980   6.801   1.096 -0.0289  0.7808  0.2870
 6652TIP3    H141515   5.903   6.747   1.075  1.6329 -1.5584 -0.2181
 6652TIP3    H241516   5.976   6.812   1.191 -0.7123  0.2616  0.3323
 6653TIP3   OH241517   6.404   0.145   0.112  0.4806  0.3475  0.2824
 6653TIP3    H141518   6.410   0.102   0.197  1.9748 -1.3030 -0.5970
 6653TIP3    H241519   6.317   0.121   0.080  1.6345 -3.2073 -0.6668
 6654TIP3   OH241520   1.976   6.852   8.441  0.1988 -0.8079  0.5315
 6654TIP3    H141521   2.007   6.926   8.492 -1.4478  0.5425 -0.3320
 6654TIP3    H241522   1.952   6.787   8.507 -0.1619  0.1904  1.4094
 6655TIP3   OH241523   3.065   3.207   2.283 -0.2186 -0.1821 -0.0194
 6655TIP3    H141524   3.072   3.173   2.194  1.7769  1.1924 -0.4451
 6655TIP3    H241525   3.084   3.131   2.338 -1.7848 -1.1205 -0.7041
 6656TIP3   OH241526   6.873   5.612   8.256  0.0406 -0.6590 -0.2286
 6656TIP3    H141527   6.952   5.639   8.208 -0.1262 -2.1543 -1.4350
 6656TIP3    H241528   6.867   5.518   8.240 -1.4863 -0.7289  0.6149
 6657TIP3   OH241529   4.584   5.918   1.118  0.0977 -0.7904  0.7932
 6657TIP3    H141530   4.553   5.975   1.049  1.4211  0.4335  1.1589
 6657TIP3    H241531   4.539   5.948   1.197 -1.2969 -2.0883  0.5501
 6658TIP3   OH241532   6.484   0.481   8.037  0.2377 -0.0936 -0.1973
 6658TIP3    H141533   6.550   0.412   8.043  0.7253  0.0817 -2.5022
 6658TIP3    H241534   6.401   0.437   8.054  0.7281 -0.8460  0.2622
 6659TIP3   OH241535   1.692   4.123   0.797 -0.3722  0.0995  0.2393
 6659TIP3    H141536   1.761   4.113   0.863  1.0203  0.7486 -1.0607
 6659TIP3    H241537   1.641   4.197   0.828  0.9489  1.1289  0.0553
 6660TIP3   OH241538   1.718   6.434   7.852  0.3126 -0.6685  0.1611
 6660TIP3    H141539   1.711   6.339   7.843  0.4514 -0.6510 -0.1344
 6660TIP3    H241540   1.674   6.470   7.775 -0.0196 -0.4852  0.4325
 6661TIP3   OH241541   1.147   4.082   8.116  0.2569  0.1716  0.1503
 6661TIP3    H141542   1.082   4.019   8.145 -0.0327  0.0821 -0.6613
 6661TIP3    H241543   1.096   4.157   8.085  0.5990  0.8268  1.1413
 6662TIP3   OH241544   0.863   6.258   0.737  0.2273  0.5586  0.3077
 6662TIP3    H141545   0.822   6.227   0.656  1.9188 -2.7988  0.5916
 6662TIP3    H241546   0.899   6.343   0.714  0.1365 -0.0178 -2.3126
 6663TIP3   OH241547   4.993   6.166   1.275  0.0607  0.3200 -0.1074
 6663TIP3    H141548   5.079   6.155   1.233  0.0331  0.1710 -0.1262
 6663TIP3    H241549   4.957   6.246   1.237 -0.1465 -0.0415 -0.6735
 6664TIP3   OH241550   1.190   1.667   7.522 -0.0843  0.3777 -0.1301
 6664TIP3    H141551   1.281   1.688   7.504 -0.2684  0.4452 -1.0938
 6664TIP3    H241552   1.165   1.608   7.450 -1.5717  2.6037 -1.5626
 6665TIP3   OH241553   2.282   4.408   0.545 -0.4263 -0.1351 -0.1843
 6665TIP3    H141554   2.251   4.317   0.540  1.1270 -0.6363 -1.4295
 6665TIP3    H241555   2.211   4.460   0.508 -1.0174 -0.9129 -0.1684
 6666TIP3   OH241556   4.055   5.181   8.445 -0.5642 -0.1608 -0.2333
 6666TIP3    H141557   4.139   5.171   8.490 -0.0892  0.6772 -0.8977
 6666TIP3    H241558   4.074   5.165   8.353 -0.6297  2.2133 -0.7228
 6667TIP3   OH241559   6.326   2.110   1.912 -0.0650  0.1693 -0.0377
 6667TIP3    H141560   6.372   2.066   1.840 -1.2809 -0.3594 -0.5053
 6667TIP3    H241561   6.240   2.132   1.876 -2.1001 -3.2557  2.2071
 6668TIP3   OH241562   6.758   4.682   0.603 -0.0316  0.2737 -0.4034
 6668TIP3    H141563   6.676   4.646   0.636  1.1580 -1.3764  0.9458
 6668TIP3    H241564   6.826   4.626   0.640  1.6626  0.6868 -2.6414
 6669TIP3   OH241565   0.209   0.613   1.244 -0.2308  0.5785  0.3717
 6669TIP3    H141566   0.246   0.552   1.308  1.5188  0.8965 -0.2886
 6669TIP3    H241567   0.285   0.653   1.202 -1.3175  0.4530 -1.8573
 6670TIP3   OH241568   0.703   3.169   8.093 -0.4632  0.5578  0.1772
 6670TIP3    H141569   0.770   3.215   8.144 -0.9523  1.6735 -0.1551
 6670TIP3    H241570   0.707   3.079   8.124 -0.2155  1.0452  1.6337
 6671TIP3   OH241571   5.636   1.949   8.308 -0.0967  0.4246 -0.1928
 6671TIP3    H141572   5.546   1.931   8.333  0.5548 -0.8852  1.4465
 6671TIP3    H241573   5.661   2.024   8.362  0.3540 -0.4709  0.9159
 6672TIP3   OH241574   0.399   4.817   1.908  0.0439  0.1887  0.0090
 6672TIP3    H141575   0.359   4.775   1.984 -1.6736 -0.5730 -1.2688
 6672TIP3    H241576   0.487   4.779   1.903 -1.1734 -2.8110 -0.6733
 6673TIP3   OH241577   2.177   2.069   7.753  0.0281  0.0411  0.4265
 6673TIP3    H141578   2.216   2.091   7.668  0.4045  1.8189  1.0306
 6673TIP3    H241579   2.176   2.151   7.801 -0.7624 -0.8142  1.9352
 6674TIP3   OH241580   0.885   5.331   1.789 -0.3162 -0.1246 -0.3591
 6674TIP3    H141581   0.833   5.377   1.723  0.9265 -1.4369 -2.3448
 6674TIP3    H241582   0.822   5.277   1.837 -1.3054  1.1998 -0.1198
 6675TIP3   OH241583   2.299   4.424   2.816  0.8552  0.1640  0.2569
 6675TIP3    H141584   2.285   4.518   2.809  1.1917  0.0957 -2.3458
 6675TIP3    H241585   2.391   4.412   2.795  0.2897 -0.8783 -1.9364
 6676TIP3   OH241586   6.474   5.919   1.676 -0.1705  0.0935 -0.1067
 6676TIP3    H141587   6.444   5.836   1.711 -0.8581  0.6682  0.6852
 6676TIP3    H241588   6.479   5.977   1.751  1.2834  0.5109 -0.4795
 6677TIP3   OH241589   0.335   4.292   0.604 -0.1095  0.1040  0.2312
 6677TIP3    H141590   0.429   4.314   0.603 -0.1932  0.5054  0.6682
 6677TIP3    H241591   0.327   4.227   0.674  0.2234 -1.7777 -1.4109
 6678TIP3   OH241592   1.160   2.613   8.323  0.1492  0.0020 -0.4800
 6678TIP3    H141593   1.110   2.685   8.361  0.9541  0.7181 -0.7641
 6678TIP3    H241594   1.098   2.539   8.322 -0.6953  0.6903 -0.2330
 6679TIP3   OH241595   4.557   1.476   8.554 -0.1583 -0.5252  0.1125
 6679TIP3    H141596   4.623   1.409   8.571  1.0998  0.5460 -0.3951
 6679TIP3    H241597   4.605   1.547   8.512 -1.9239 -0.3427 -1.7402
 6680TIP3   OH241598   1.736   3.789   7.693  0.2682  0.0378  0.1691
 6680TIP3    H141599   1.776   3.799   7.606  1.3725 -0.2118  0.6283
 6680TIP3    H241600   1.800   3.738   7.743 -0.0686  0.7051  1.3114
 6681TIP3   OH241601   6.529   3.891   8.214 -0.2557  0.1562 -0.0856
 6681TIP3    H141602   6.601   3.948   8.240 -1.0368  1.2216 -0.1852
 6681TIP3    H241603   6.521   3.828   8.286  0.9268 -0.1360 -0.1924
 6682TIP3   OH241604   0.672   4.741   2.065  0.1191  0.1750  0.6510
 6682TIP3    H141605   0.650   4.710   1.977 -1.9675 -0.1705  1.2273
 6682TIP3    H241606   0.725   4.671   2.103 -2.0370 -1.4619  0.8918
 6683TIP3   OH241607   6.498   0.856   7.574  0.0077 -0.4954  0.0056
 6683TIP3    H141608   6.418   0.804   7.583  0.5080 -1.2167  0.4180
 6683TIP3    H241609   6.516   0.857   7.480 -1.6977  1.5818 -0.3708
 6684TIP3   OH241610   3.675   4.343   1.113 -0.1329  0.7735  0.1516
 6684TIP3    H141611   3.705   4.423   1.070  0.0411  1.2858  1.2071
 6684TIP3    H241612   3.753   4.288   1.117 -0.8786 -0.8650 -3.4764
 6685TIP3   OH241613   3.154   3.977   0.386  0.7537 -0.3271  0.2339
 6685TIP3    H141614   3.188   4.012   0.304  0.9931  1.8255  1.1994
 6685TIP3    H241615   3.187   4.036   0.454 -0.3247 -1.4161  1.7899
 6686TIP3   OH241616   2.232   1.016   1.808  0.5062 -0.6368 -0.2491
 6686TIP3    H141617   2.165   1.075   1.774  0.5380 -0.4214  0.0576
 6686TIP3    H241618   2.315   1.051   1.774  0.4176 -1.2739 -1.1612
 6687TIP3   OH241619   2.471   4.067   7.469 -0.2457 -0.4299 -0.0130
 6687TIP3    H141620   2.429   4.107   7.545 -1.2370  0.1745 -0.8574
 6687TIP3    H241621   2.565   4.074   7.487 -0.4398  0.8388  0.5961
 6688TIP3   OH241622   1.019   6.115   0.893  0.3980  0.5449 -0.7862
 6688TIP3    H141623   0.991   6.174   0.822  0.7466  0.3592 -1.0835
 6688TIP3    H241624   1.106   6.084   0.865  0.0679 -0.3873 -0.8075
 6689TIP3   OH241625   6.228   3.597   8.313 -0.3875 -0.6388  0.5327
 6689TIP3    H141626   6.174   3.519   8.326 -1.7711  0.3686  1.0207
 6689TIP3    H241627   6.170   3.661   8.272  0.8044  0.0526 -0.1284
 6690TIP3   OH241628   3.581   2.450   1.112 -0.2229  0.0674 -0.4156
 6690TIP3    H141629   3.550   2.474   1.025 -1.6217  1.5718  0.4567
 6690TIP3    H241630   3.537   2.367   1.131 -3.0519  1.6260  0.3571
 6691TIP3   OH241631   3.579   1.392   3.134  0.3016  0.0006 -0.0663
 6691TIP3    H141632   3.531   1.332   3.077  1.3924  1.1558 -2.3273
 6691TIP3    H241633   3.511   1.447   3.174 -0.4692 -0.4776 -0.7010
 6692TIP3   OH241634   4.390   4.241   1.311 -0.4033 -0.0434 -0.4746
 6692TIP3    H141635   4.332   4.165   1.316  1.6434 -1.8673 -2.4140
 6692TIP3    H241636   4.388   4.279   1.399 -2.5149 -1.5039  0.1861
 6693TIP3   OH241637   4.807   0.159   1.507 -0.2275  0.2557  0.3974
 6693TIP3    H141638   4.720   0.167   1.469 -0.4015  2.0097  1.0839
 6693TIP3    H241639   4.865   0.148   1.432 -1.0006 -0.7003 -0.0786
 6694TIP3   OH241640   1.450   6.233   8.279  0.0398  0.2814  0.3627
 6694TIP3    H141641   1.400   6.221   8.360 -1.1163 -2.9086 -0.6398
 6694TIP3    H241642   1.497   6.150   8.268  0.7789  0.9362 -1.8105
 6695TIP3   OH241643   6.801   3.498   1.616  0.4482  0.8052  0.1102
 6695TIP3    H141644   6.879   3.466   1.571  0.7402  0.5502  0.7846
 6695TIP3    H241645   6.793   3.443   1.694 -1.5724 -0.5350 -0.9358
 6696TIP3   OH241646   0.094   6.271   6.625  0.0333  0.4178  0.6619
 6696TIP3    H141647   0.180   6.299   6.596  0.0147 -0.3622 -0.1544
 6696TIP3    H241648   0.077   6.325   6.703  0.4481  1.9060 -0.2355
 6697TIP3   OH241649   4.345   3.179   7.909 -0.4271  0.6654  0.2775
 6697TIP3    H141650   4.249   3.186   7.906 -0.3516  1.5548 -1.0729
 6697TIP3    H241651   4.374   3.216   7.825  1.0612 -0.3526  0.3150
 6698TIP3   OH241652   4.281   4.397   6.991 -0.0997 -0.0093  0.1057
 6698TIP3    H141653   4.267   4.486   7.021 -0.3673 -0.3996  1.1632
 6698TIP3    H241654   4.194   4.364   6.972  0.0753  0.3024 -1.3630
 6699TIP3   OH241655   0.499   1.272   6.944  0.3546  0.1306  0.1089
 6699TIP3    H141656   0.578   1.287   6.891  0.8897 -1.1021  0.5227
 6699TIP3    H241657   0.427   1.270   6.880  0.6890  0.9136 -0.3118
 6700TIP3   OH241658   1.691   6.706   0.337 -0.0525 -0.4037  0.6721
 6700TIP3    H141659   1.605   6.682   0.370 -0.3135 -0.1543  0.1843
 6700TIP3    H241660   1.738   6.623   0.329 -0.6623 -0.6859 -0.1989
 6701TIP3   OH241661   0.411   1.072   2.648 -0.0017 -0.0833  0.2885
 6701TIP3    H141662   0.320   1.045   2.650  0.5281 -2.0335  2.4222
 6701TIP3    H241663   0.413   1.154   2.698 -0.7305  0.7624 -1.0002
 6702TIP3   OH241664   0.037   4.331   0.843  0.6142 -0.1994 -0.7445
 6702TIP3    H141665  -0.024   4.259   0.856  0.8617 -0.7507 -2.3951
 6702TIP3    H241666   0.025   4.387   0.920 -0.5342 -1.3011 -0.0810
 6703TIP3   OH241667   5.747   0.481   2.971 -0.5300  0.1649  0.0521
 6703TIP3    H141668   5.713   0.561   2.932 -1.4010  0.5571  1.5307
 6703TIP3    H241669   5.715   0.411   2.914 -0.9569  0.7694 -0.4636
 6704TIP3   OH241670   4.183   1.906   0.236  0.5033 -0.0997  0.0437
 6704TIP3    H141671   4.159   1.815   0.252  0.8184 -0.9188 -3.2517
 6704TIP3    H241672   4.242   1.901   0.160  1.3110  2.7967  0.3738
 6705TIP3   OH241673   1.897   2.369   7.864  0.1849 -0.2238 -0.3335
 6705TIP3    H141674   1.857   2.431   7.925  0.8286 -0.4901  0.3693
 6705TIP3    H241675   1.846   2.379   7.784 -0.0560  0.8368 -0.0663
 6706TIP3   OH241676   2.119   5.976   2.364  0.0449  0.3922  0.3060
 6706TIP3    H141677   2.198   5.928   2.338 -0.4422 -0.7578  0.8908
 6706TIP3    H241678   2.048   5.934   2.316 -0.3473  0.7311  0.5900
 6707TIP3   OH241679   1.069   4.203   7.301  0.6003 -0.1477 -0.0294
 6707TIP3    H141680   1.125   4.254   7.242  1.5251  0.3935  1.2723
 6707TIP3    H241681   1.130   4.164   7.363 -0.2814 -1.3966  0.0807
 6708TIP3   OH241682   5.373   5.886   2.188  0.2740  0.8994  0.5032
 6708TIP3    H141683   5.312   5.955   2.210  0.2247  0.3406  2.2846
 6708TIP3    H241684   5.459   5.928   2.187  0.0895  1.2729  0.0326
 6709TIP3   OH241685   3.941   4.440   7.888 -0.1633 -0.1850 -0.2653
 6709TIP3    H141686   3.989   4.397   7.817 -0.6786  0.1589 -0.8268
 6709TIP3    H241687   3.860   4.470   7.848  0.2060  1.3853  0.0868
 6710TIP3   OH241688   0.632   6.363   0.516 -0.4451 -0.1632  0.0227
 6710TIP3    H141689   0.586   6.413   0.585 -0.6136  0.8590 -0.8043
 6710TIP3    H241690   0.565   6.348   0.449 -0.5594 -2.0656  0.5020
 6711TIP3   OH241691   6.820   0.259   8.597 -0.8989 -0.3858  0.0552
 6711TIP3    H141692   6.796   0.270   8.505 -1.9396 -0.7258  0.2729
 6711TIP3    H241693   6.903   0.307   8.606 -0.4869 -0.8342 -1.1829
 6712TIP3   OH241694   2.624   4.536   7.848 -0.1116  0.0070  0.9697
 6712TIP3    H141695   2.556   4.599   7.826  0.3014 -0.7611 -3.3763
 6712TIP3    H241696   2.577   4.456   7.871 -0.7747 -0.2661 -1.1512
 6713TIP3   OH241697   3.631   0.757   1.193  0.1285  0.1905  0.0924
 6713TIP3    H141698   3.569   0.732   1.262  0.0579  0.8699  0.2837
 6713TIP3    H241699   3.621   0.852   1.185  0.7279  0.2293 -0.2801
 6714TIP3   OH241700   2.885   6.165   7.329  0.3649 -0.3047 -0.6049
 6714TIP3    H141701   2.924   6.099   7.387  1.2383  1.1438  0.5369
 6714TIP3    H241702   2.956   6.227   7.313 -0.0359 -0.3564 -2.8119
 6715TIP3   OH241703   0.800   6.138   8.414  0.1161 -0.3090 -0.1243
 6715TIP3    H141704   0.820   6.221   8.370  2.1291  0.4179  1.9053
 6715TIP3    H241705   0.881   6.117   8.461 -1.6694 -1.1490  2.8656
 6716TIP3   OH241706   5.212   1.307   0.847  0.0158  0.2175  0.0367
 6716TIP3    H141707   5.120   1.313   0.822  0.4495  0.8552 -1.5143
 6716TIP3    H241708   5.255   1.375   0.795  1.3328  0.1026  0.9308
 6717TIP3   OH241709   2.551   3.478   1.554 -0.5764 -0.2285  0.2433
 6717TIP3    H141710   2.557   3.424   1.475 -1.4865 -0.4176  0.2909
 6717TIP3    H241711   2.460   3.505   1.558 -0.1952  1.0760  0.3966
 6718TIP3   OH241712   3.317   3.160   0.016  0.4380 -0.5052 -0.1762
 6718TIP3    H141713   3.406   3.171   0.047 -0.1663  1.7697  0.9705
 6718TIP3    H241714   3.311   3.216  -0.061 -0.3215  0.4014  0.5173
 6719TIP3   OH241715   0.275   5.810   7.752 -0.1586 -0.0555 -0.1910
 6719TIP3    H141716   0.249   5.749   7.684  0.1520  0.8762 -1.1652
 6719TIP3    H241717   0.283   5.894   7.708 -1.7082  0.9614  1.3498
 6720TIP3   OH241718   0.125   1.235   2.601  0.0516 -0.1609  0.3016
 6720TIP3    H141719   0.165   1.157   2.638  1.2640 -0.8877 -2.2795
 6720TIP3    H241720   0.033   1.229   2.625  0.3216 -1.8464  1.0321
 6721TIP3   OH241721   1.129   2.511   7.632 -0.3273 -0.1311  0.1582
 6721TIP3    H141722   1.130   2.523   7.727 -0.9074  1.6193 -0.0272
 6721TIP3    H241723   1.046   2.549   7.603  0.3510  0.4019 -1.1750
 6722TIP3   OH241724   1.791   0.634   0.299 -0.6817 -0.3657  0.0862
 6722TIP3    H141725   1.781   0.728   0.314  1.6546  0.2107 -1.4928
 6722TIP3    H241726   1.711   0.608   0.253 -1.2266  0.8904  0.2917
 6723TIP3   OH241727   3.366   3.594   2.465  0.4317  0.0050  0.4181
 6723TIP3    H141728   3.446   3.645   2.471  0.0398  0.8485 -0.8968
 6723TIP3    H241729   3.382   3.516   2.517  2.3294 -0.1187 -0.2837
 6724TIP3   OH241730   0.284   1.035   7.407 -0.3883  0.0880  0.0966
 6724TIP3    H141731   0.268   1.067   7.318  0.4253  0.8408  0.2083
 6724TIP3    H241732   0.355   0.971   7.398 -0.0050  0.4834  0.2499
 6725TIP3   OH241733   5.206   6.744   7.018  0.4271 -0.6780 -0.1006
 6725TIP3    H141734   5.280   6.722   6.962  0.4162  0.9748 -0.8124
 6725TIP3    H241735   5.198   6.839   7.012 -0.0509 -0.5221  2.1419
 6726TIP3   OH241736   2.934   0.823   7.535 -0.2186 -0.8106 -0.0947
 6726TIP3    H141737   2.850   0.864   7.515  0.1856  0.0079 -0.1830
 6726TIP3    H241738   2.917   0.767   7.610 -0.3688  1.1504  1.4224
 6727TIP3   OH241739   6.423   1.326   7.985  0.4427  0.0299 -0.9291
 6727TIP3    H141740   6.407   1.403   8.040 -0.0447  0.2428 -1.3613
 6727TIP3    H241741   6.377   1.345   7.904 -0.4571 -1.1117 -0.7127
 6728TIP3   OH241742   1.109   2.904   7.465 -0.1851 -0.2187 -0.0738
 6728TIP3    H141743   1.107   2.846   7.388  0.4838 -1.1944  0.6191
 6728TIP3    H241744   1.147   2.985   7.433 -1.2926 -0.0810 -1.1113
 6729TIP3   OH241745   3.803   6.830   0.332 -0.4345 -0.8443  0.7316
 6729TIP3    H141746   3.857   6.824   0.253 -1.2934 -1.0256  0.1439
 6729TIP3    H241747   3.802   6.924   0.353 -0.8314 -0.6821  0.0564
 6730TIP3   OH241748   6.484   2.510   0.298  0.2228  0.0564 -0.9679
 6730TIP3    H141749   6.455   2.543   0.214 -0.4231 -0.7083 -1.0576
 6730TIP3    H241750   6.523   2.425   0.278  3.0525  1.2511 -0.9268
 6731TIP3   OH241751   6.800   1.940   1.534 -0.5270  0.1265  0.2258
 6731TIP3    H141752   6.707   1.954   1.516 -0.6412  1.6822  1.7911
 6731TIP3    H241753   6.815   1.848   1.510 -1.4770  0.8432 -3.8136
 6732TIP3   OH241754   5.818   3.461   1.239 -0.5121 -0.9684  0.0544
 6732TIP3    H141755   5.802   3.379   1.286 -1.1080 -1.1968 -0.5205
 6732TIP3    H241756   5.794   3.530   1.301 -0.5652 -1.2478  0.3456
 6733TIP3   OH241757   0.060   1.037   8.405 -0.5673  0.1957 -0.0807
 6733TIP3    H141758   0.098   0.998   8.326 -1.9858  1.2669 -1.3410
 6733TIP3    H241759  -0.034   1.025   8.395 -0.7139 -2.5546  3.0489
 6734TIP3   OH241760   3.640   0.703   8.374 -0.1722  0.1678  0.0456
 6734TIP3    H141761   3.560   0.707   8.321 -0.6634  0.1710  0.7684
 6734TIP3    H241762   3.630   0.773   8.438 -0.0572 -0.4581  0.7708
 6735TIP3   OH241763   3.923   4.062   7.446 -0.4968  0.1474 -0.4775
 6735TIP3    H141764   3.845   4.019   7.411 -1.4599  1.6668 -0.3078
 6735TIP3    H241765   3.913   4.154   7.421 -0.4370  1.0203  2.3836
 6736TIP3   OH241766   2.140   0.841   2.446  0.7953 -0.1890  0.2757
 6736TIP3    H141767   2.201   0.881   2.384  1.1447  0.6288  1.1174
 6736TIP3    H241768   2.195   0.785   2.501  0.5574 -0.5747  0.1232
 6737TIP3   OH241769   6.035   2.151   1.498  0.7451 -0.2540 -0.5947
 6737TIP3    H141770   6.063   2.139   1.407  2.2971  2.2489 -0.5324
 6737TIP3    H241771   6.061   2.240   1.520 -3.4351  0.8350  0.9838
 6738TIP3   OH241772   5.974   4.979   0.617  0.1689  0.2485 -0.0521
 6738TIP3    H141773   5.985   4.905   0.556 -1.3856 -0.8697  0.9644
 6738TIP3    H241774   6.059   4.986   0.661  0.1280 -1.4619  0.3798
 6739TIP3   OH241775   2.827   2.023   2.781  0.1277  0.5135 -0.6957
 6739TIP3    H141776   2.878   1.961   2.728 -0.9386 -0.7369 -0.3179
 6739TIP3    H241777   2.851   2.109   2.747  3.6955  0.1437  0.5318
 6740TIP3   OH241778   0.737   1.598   1.353 -0.2231 -0.0213  0.2023
 6740TIP3    H141779   0.685   1.592   1.273 -3.2993  1.3223  1.8926
 6740TIP3    H241780   0.793   1.675   1.340 -0.0027 -0.3636 -0.9798
 6741TIP3   OH241781   4.263   6.420   7.394  0.7815  0.4676 -0.0039
 6741TIP3    H141782   4.298   6.431   7.306 -1.4357  1.6862 -0.8192
 6741TIP3    H241783   4.309   6.486   7.447  2.7423 -0.8396  0.0260
 6742TIP3   OH241784   0.519   3.240   7.915  0.6659 -0.2566 -0.1399
 6742TIP3    H141785   0.585   3.207   7.977  0.5071  0.8381  0.6422
 6742TIP3    H241786   0.437   3.235   7.963  0.1964 -1.3330 -1.0110
 6743TIP3   OH241787   4.332   4.109   6.966 -0.0795  0.7912 -0.4116
 6743TIP3    H141788   4.287   4.143   6.889  0.4135  1.1090 -0.5636
 6743TIP3    H241789   4.415   4.076   6.932 -0.4080 -0.2926 -0.2247
 6744TIP3   OH241790   3.967   2.441   7.393  0.3052 -0.4586  0.5409
 6744TIP3    H141791   3.966   2.359   7.442 -0.6236 -1.0392 -0.4349
 6744TIP3    H241792   3.905   2.428   7.321  1.2801  0.5499 -0.5232
 6745TIP3   OH241793   0.788   4.985   8.412  0.6773  0.2673 -0.2878
 6745TIP3    H141794   0.734   5.016   8.340 -1.3225 -0.1059  0.9773
 6745TIP3    H241795   0.736   5.003   8.491  1.7616 -1.4224  0.8809
 6746TIP3   OH241796   6.078   6.038   1.313 -0.2431 -0.0163 -0.1744
 6746TIP3    H141797   6.148   5.976   1.291  0.5614  0.7104  0.2483
 6746TIP3    H241798   6.071   6.034   1.408  0.8579  1.5926  0.0070
 6747TIP3   OH241799   2.425   2.058   8.400 -0.0999  0.2067  0.1034
 6747TIP3    H141800   2.349   2.010   8.435 -0.0979  0.8474  1.0464
 6747TIP3    H241801   2.395   2.150   8.398  0.9040  0.5959  1.3102
 6748TIP3   OH241802   2.124   6.609   7.272  0.7495  0.0562  0.2975
 6748TIP3    H141803   2.065   6.564   7.333  1.7518  1.0940  2.1525
 6748TIP3    H241804   2.184   6.541   7.242  0.8221 -0.3041  1.2291
 6749TIP3   OH241805   1.226   6.206   7.531  0.2867 -0.1371  0.2569
 6749TIP3    H141806   1.195   6.118   7.553  1.3002 -0.7704 -0.7305
 6749TIP3    H241807   1.278   6.233   7.606 -1.5323  0.4153  1.3772
 6750TIP3   OH241808   2.247   2.867   8.194  0.3445  0.2411 -0.0345
 6750TIP3    H141809   2.176   2.929   8.208 -0.5920 -0.9716  0.9022
 6750TIP3    H241810   2.204   2.790   8.156  1.0175 -0.7307  1.0910
 6751TIP3   OH241811   4.748   5.745   2.086 -0.8927  0.3079 -0.0799
 6751TIP3    H141812   4.834   5.740   2.044 -0.7014 -0.3182  0.3612
 6751TIP3    H241813   4.732   5.838   2.098  0.6070  0.4180  1.5859
 6752TIP3   OH241814   2.012   4.646   7.564 -0.5944 -0.0673  0.0716
 6752TIP3    H141815   2.009   4.610   7.653  0.2593  2.4036  1.1848
 6752TIP3    H241816   2.030   4.570   7.509 -2.8966 -1.9851  1.7442
 6753TIP3   OH241817   0.028   0.762   6.670  0.1271  0.4490  0.1662
 6753TIP3    H141818   0.060   0.840   6.716  0.7480  0.2698  0.0435
 6753TIP3    H241819   0.055   0.776   6.579 -1.6901  1.1331 -0.3165
 6754TIP3   OH241820   1.656   0.085   7.600 -0.6088  0.7596  0.2259
 6754TIP3    H141821   1.592   0.143   7.643 -0.2306  1.1543  0.2625
 6754TIP3    H241822   1.741   0.121   7.625 -0.3706  0.2594  0.1442
 6755TIP3   OH241823   2.986   4.925   8.143  0.3417 -0.2050 -0.1082
 6755TIP3    H141824   2.954   5.014   8.159  1.5183  0.3203 -0.6178
 6755TIP3    H241825   2.979   4.913   8.049  1.7493 -0.0194 -0.2572
 6756TIP3   OH241826   2.195   0.363   1.181 -0.1023  0.3949  0.0377
 6756TIP3    H141827   2.137   0.426   1.138  0.3936  0.7142 -0.1833
 6756TIP3    H241828   2.257   0.337   1.112 -1.2387 -1.5655 -0.3326
 6757TIP3   OH241829   1.237   6.276   0.501 -0.2938  0.3283 -0.2820
 6757TIP3    H141830   1.197   6.215   0.564  1.4711 -0.9261 -0.3063
 6757TIP3    H241831   1.260   6.352   0.554 -2.2074  0.8887 -0.1808
 6758TIP3   OH241832   0.348   5.053   7.687  0.3073 -0.0596 -0.3545
 6758TIP3    H141833   0.301   5.098   7.758 -1.4086 -1.8662 -0.2561
 6758TIP3    H241834   0.355   4.963   7.717  0.5111 -0.6254 -2.0344
 6759TIP3   OH241835   0.986   6.732   2.193 -0.0759 -0.7016  0.3798
 6759TIP3    H141836   1.037   6.724   2.273  0.8683 -0.5074 -0.1887
 6759TIP3    H241837   1.025   6.668   2.133 -0.2124 -0.2354 -0.2164
 6760TIP3   OH241838   6.735   5.027   7.804  1.0323 -0.2115 -0.3227
 6760TIP3    H141839   6.808   5.084   7.827 -0.0937  1.1507 -0.0254
 6760TIP3    H241840   6.706   4.990   7.887  0.0553  0.8998 -0.1609
 6761TIP3   OH241841   4.108   3.179   1.803 -0.1785 -0.5838  0.6381
 6761TIP3    H141842   4.030   3.158   1.855 -1.6026  1.4355 -0.5395
 6761TIP3    H241843   4.139   3.263   1.838  0.4013 -0.4999 -0.0475
 6762TIP3   OH241844   3.667   0.609   0.976  0.1388  0.1505  0.5939
 6762TIP3    H141845   3.588   0.577   0.934 -0.2515  1.9490 -0.1205
 6762TIP3    H241846   3.636   0.652   1.056  0.6044 -0.7748  1.2964
 6763TIP3   OH241847   4.938   0.898   2.096  0.0626 -0.2361  0.5168
 6763TIP3    H141848   4.911   0.806   2.098  0.7624 -0.5165 -1.1519
 6763TIP3    H241849   4.926   0.924   2.005  0.6507  1.0998  0.7956
 6764TIP3   OH241850   3.530   5.224   7.335  0.2074 -0.0481  0.0709
 6764TIP3    H141851   3.458   5.286   7.319  1.0997  0.9158 -0.3386
 6764TIP3    H241852   3.608   5.271   7.307  0.8588 -1.6044 -0.8046
 6765TIP3   OH241853   0.917   1.051   0.187 -0.4548  0.4841  0.5171
 6765TIP3    H141854   0.823   1.057   0.202 -0.2068  0.2594  2.4029
 6765TIP3    H241855   0.955   1.041   0.274  1.3734  1.1359 -0.1433
 6766TIP3   OH241856   0.378   5.578   8.283  0.2434  0.3613  0.1680
 6766TIP3    H141857   0.461   5.530   8.288  0.0565  0.0974  0.8082
 6766TIP3    H241858   0.310   5.511   8.286 -0.0022  0.4865 -1.5079
 6767TIP3   OH241859   6.794   6.519   7.679  0.0152 -0.1953  0.0004
 6767TIP3    H141860   6.743   6.545   7.601 -2.1990 -2.5698  0.4981
 6767TIP3    H241861   6.879   6.493   7.644  0.2760  1.9728 -1.1494
 6768TIP3   OH241862   0.783   2.421   8.099 -0.0182  0.2051 -0.7991
 6768TIP3    H141863   0.729   2.463   8.032  2.0470  1.8369 -1.5374
 6768TIP3    H241864   0.873   2.430   8.068  0.7551 -2.7716  0.1759
 6769TIP3   OH241865   3.381   4.372   0.828  0.1008 -0.0961 -0.7401
 6769TIP3    H141866   3.398   4.352   0.921 -0.2511  0.2503 -0.5987
 6769TIP3    H241867   3.461   4.344   0.783 -0.2598 -1.5915 -0.5182
 6770TIP3   OH241868   5.472   3.722   1.954 -0.3299  0.1693  0.2658
 6770TIP3    H141869   5.504   3.812   1.949  1.1741 -0.3235  0.7226
 6770TIP3    H241870   5.502   3.690   2.038  2.0388 -1.7974 -1.1975
 6771TIP3   OH241871   0.944   5.661   1.227 -0.3677  0.0689  0.4030
 6771TIP3    H141872   1.021   5.711   1.256  0.7231 -1.4506  0.2743
 6771TIP3    H241873   0.871   5.722   1.235  1.1939  2.5415 -2.0158
 6772TIP3   OH241874   5.002   6.634   1.881 -0.3475  0.7044 -1.3938
 6772TIP3    H141875   4.980   6.653   1.972 -0.4484 -0.9813 -1.0303
 6772TIP3    H241876   5.019   6.719   1.842  0.4829  1.4166  0.4039
 6773TIP3   OH241877   1.742   0.358   1.238 -0.1972 -0.2264  0.1982
 6773TIP3    H141878   1.790   0.398   1.311 -0.8999  0.6444  0.2036
 6773TIP3    H241879   1.797   0.284   1.211  0.7999  0.3179  0.6506
 6774TIP3   OH241880   6.171   5.287   0.238  0.0441 -0.2447  0.2968
 6774TIP3    H141881   6.242   5.262   0.179  0.5300  0.2555  0.6649
 6774TIP3    H241882   6.215   5.323   0.315 -0.6107  0.4061  0.3791
 6775TIP3   OH241883   1.339   1.510   7.176 -0.4737  0.1751  0.7424
 6775TIP3    H141884   1.424   1.548   7.152 -0.2771 -0.1121  0.9836
 6775TIP3    H241885   1.361   1.425   7.214 -0.9196 -0.2076  0.1427
 6776TIP3   OH241886   5.935   1.749   8.121  0.5636  0.3257  0.5103
 6776TIP3    H141887   5.912   1.833   8.160 -1.2032  1.0767 -1.8794
 6776TIP3    H241888   6.025   1.760   8.092 -0.2053  2.2584 -1.5335
 6777TIP3   OH241889   3.657   3.949   2.354 -0.3881 -0.3856 -0.1386
 6777TIP3    H141890   3.586   4.002   2.389  0.3992  0.9563 -0.5269
 6777TIP3    H241891   3.635   3.859   2.381 -0.5918  0.3781  2.4737
 6778TIP3   OH241892   6.202   2.325   3.116  0.0168  0.0062  0.4347
 6778TIP3    H141893   6.116   2.359   3.144  0.3118  0.6868  0.5233
 6778TIP3    H241894   6.188   2.231   3.110 -0.6879  0.0825  0.6533
 6779TIP3   OH241895   5.265   3.501   1.476  0.3660 -0.2170  0.3860
 6779TIP3    H141896   5.289   3.413   1.507 -0.2469 -0.9400 -1.1115
 6779TIP3    H241897   5.273   3.556   1.554 -0.5967 -1.8414  1.7133
 6780TIP3   OH241898   5.529   0.493   8.112 -0.0067 -0.3848 -0.4455
 6780TIP3    H141899   5.572   0.435   8.175  0.2537  0.4131  0.1411
 6780TIP3    H241900   5.480   0.435   8.055 -1.3458 -1.0943  1.3153
 6781TIP3   OH241901   4.117   6.691   1.866 -0.0756  0.0721 -0.2234
 6781TIP3    H141902   4.116   6.715   1.959 -1.7576 -0.3753 -0.0929
 6781TIP3    H241903   4.024   6.683   1.843  0.2570  1.6416 -2.3441
 6782TIP3   OH241904   5.267   2.830   8.146 -0.0050  0.0189  0.0628
 6782TIP3    H141905   5.277   2.783   8.062  0.1193  1.6472 -0.8706
 6782TIP3    H241906   5.318   2.778   8.208  2.4552  0.3373 -1.5380
 6783TIP3   OH241907   6.714   1.735   7.551  0.0164  0.0950 -0.1986
 6783TIP3    H141908   6.758   1.794   7.490  0.6446 -0.1043  0.0595
 6783TIP3    H241909   6.662   1.677   7.495  2.8689 -2.0425 -0.8188
 6784TIP3   OH241910   1.780   1.235   8.338 -0.3626  0.1828 -0.0187
 6784TIP3    H141911   1.766   1.228   8.244 -1.1770  0.1350  0.0998
 6784TIP3    H241912   1.812   1.324   8.351 -0.8659  0.4096 -0.2779
 6785TIP3   OH241913   4.926   0.396   7.203 -0.6220  0.6277 -0.2033
 6785TIP3    H141914   4.986   0.373   7.274  0.3851  1.4588 -0.7681
 6785TIP3    H241915   4.971   0.368   7.123 -1.6336 -0.0737 -0.5530
 6786TIP3   OH241916   6.681   6.823   1.494  0.2262 -0.1046 -0.4749
 6786TIP3    H141917   6.607   6.787   1.542  1.3102 -0.4131  1.0219
 6786TIP3    H241918   6.724   6.883   1.556  1.7255 -0.5806 -0.9935
 6787TIP3   OH241919   0.312   4.815   1.010 -0.0567  0.3680 -0.3770
 6787TIP3    H141920   0.387   4.787   0.958  0.2201  1.5734 -0.6725
 6787TIP3    H241921   0.286   4.738   1.059  1.5485 -0.0131 -0.0733
 6788TIP3   OH241922   1.483   5.156   2.532 -0.4550  0.4209 -0.2458
 6788TIP3    H141923   1.410   5.176   2.591 -0.7555  1.4437 -0.9459
 6788TIP3    H241924   1.454   5.186   2.446  0.4404  0.0075 -0.7062
 6789TIP3   OH241925   1.957   1.995   0.944 -0.4025  0.4141  0.2395
 6789TIP3    H141926   1.930   2.070   0.996 -1.6035 -0.1872  0.5102
 6789TIP3    H241927   2.046   2.017   0.914  0.0529  1.0423  1.9757
 6790TIP3   OH241928   6.309   4.228   1.744  0.0809 -0.4975 -0.1503
 6790TIP3    H141929   6.354   4.304   1.707 -1.8867  0.1480 -1.3963
 6790TIP3    H241930   6.379   4.167   1.766  1.7816  1.7262  1.1176
 6791TIP3   OH241931   4.980   5.515   2.022  0.2239  0.0882 -0.5931
 6791TIP3    H141932   4.933   5.575   1.965 -1.6784  1.0741  1.8522
 6791TIP3    H241933   5.065   5.556   2.037 -1.1031  2.4171  1.1791
 6792TIP3   OH241934   4.293   6.237   7.911 -0.0655  0.8339  0.2812
 6792TIP3    H141935   4.334   6.260   7.828  0.0352 -0.2439  0.0181
 6792TIP3    H241936   4.241   6.159   7.892 -1.0247  1.2910  0.9569
 6793TIP3   OH241937   4.607   4.707   7.600 -0.9412  0.2821  0.1281
 6793TIP3    H141938   4.703   4.708   7.606 -0.9203  3.3537  1.2823
 6793TIP3    H241939   4.588   4.644   7.531  1.9741  0.2936 -0.8310
 6794TIP3   OH241940   1.449   2.892   0.027 -0.1204  0.9100 -0.1203
 6794TIP3    H141941   1.423   2.981   0.004  1.9095  1.5762 -0.0466
 6794TIP3    H241942   1.538   2.901   0.062  0.9755 -1.3672 -2.0237
 6795TIP3   OH241943   3.641   5.926   2.141  0.1152  0.0184  0.0732
 6795TIP3    H141944   3.666   5.957   2.229  0.4424 -0.3932  0.1295
 6795TIP3    H241945   3.591   5.846   2.158 -0.0400  0.0797 -0.1049
 6796TIP3   OH241946   1.094   3.681   2.043 -0.0628  0.1137 -0.2837
 6796TIP3    H141947   1.113   3.600   1.997 -0.4924  0.3046 -0.7997
 6796TIP3    H241948   1.161   3.685   2.112  0.8432  0.0232 -1.1307
 6797TIP3   OH241949   2.660   5.009   1.890  0.0865 -0.8544  0.8294
 6797TIP3    H141950   2.664   5.049   1.977  3.9872  0.3862  0.3075
 6797TIP3    H241951   2.590   5.056   1.846 -1.5190 -1.0234  3.0246
 6798TIP3   OH241952   4.137   5.417   0.402  0.0911  0.1350  0.2139
 6798TIP3    H141953   4.150   5.384   0.313 -0.6694  0.5413 -0.0527
 6798TIP3    H241954   4.159   5.510   0.397 -3.0913  0.9827 -0.3643
 6799TIP3   OH241955   3.932   6.870   6.634  0.0632  0.3657  0.5458
 6799TIP3    H141956   3.839   6.858   6.653 -0.2635  1.8768  0.1125
 6799TIP3    H241957   3.963   6.783   6.609 -1.6681  0.1229 -1.0173
 6800TIP3   OH241958   6.169   3.037   2.225  0.1582 -0.5826  0.0104
 6800TIP3    H141959   6.219   3.113   2.255  0.9138 -0.6878 -0.9654
 6800TIP3    H241960   6.170   2.977   2.299 -0.0820  0.1661  0.6414
 6801TIP3   OH241961   0.277   2.327   1.916 -0.2941 -0.2836 -0.5084
 6801TIP3    H141962   0.209   2.263   1.894  0.3044 -1.0393 -0.2332
 6801TIP3    H241963   0.293   2.374   1.834 -1.5499  0.3120 -0.4266
 6802TIP3   OH241964   2.367   1.507   8.566 -0.2005  0.0242  0.2154
 6802TIP3    H141965   2.399   1.421   8.592 -0.5404 -0.6654 -1.5256
 6802TIP3    H241966   2.310   1.534   8.638 -0.4625 -1.4262  0.5802
 6803TIP3   OH241967   3.059   2.844   0.041 -0.1669 -0.3890  0.0644
 6803TIP3    H141968   3.088   2.764  -0.003 -0.0006  1.0616 -2.6884
 6803TIP3    H241969   2.978   2.868  -0.002  0.5829  1.7336 -0.2921
 6804TIP3   OH241970   3.883   6.258   7.173  1.1171 -0.1628 -0.4916
 6804TIP3    H141971   3.977   6.241   7.171  1.0050 -0.8323 -0.3958
 6804TIP3    H241972   3.843   6.171   7.182  0.5174  0.1793  0.2419
 6805TIP3   OH241973   4.457   0.957   8.409 -0.1351 -0.4550  0.4933
 6805TIP3    H141974   4.439   0.984   8.500  0.9793  1.2360  0.2492
 6805TIP3    H241975   4.371   0.944   8.371 -0.6571  0.1721  1.4160
 6806TIP3   OH241976   1.503   1.552   2.017  0.0708 -0.5143  0.2899
 6806TIP3    H141977   1.563   1.479   2.032  1.4809  0.6239  0.3751
 6806TIP3    H241978   1.521   1.581   1.927 -1.2237 -0.9088 -0.1251
 6807TIP3   OH241979   5.558   3.989   0.267  1.0488 -0.0039 -1.0436
 6807TIP3    H141980   5.541   4.079   0.242  0.9893  0.5570  0.8465
 6807TIP3    H241981   5.471   3.948   0.272  1.0146  0.0640 -1.0811
 6808TIP3   OH241982   3.949   4.593   7.528 -0.5402  0.3325 -0.8091
 6808TIP3    H141983   3.999   4.674   7.520  0.2981  0.0071  0.7876
 6808TIP3    H241984   3.860   4.621   7.550 -0.5766  0.8362 -1.5554
 6809TIP3   OH241985   3.030   1.204   2.041 -0.2208  0.2657 -0.1876
 6809TIP3    H141986   3.081   1.282   2.022 -0.4317  0.7886  1.2704
 6809TIP3    H241987   3.095   1.136   2.059 -0.0366  0.6325  0.5390
 6810TIP3   OH241988   1.157   5.847   0.261 -0.6600  0.5938  0.2968
 6810TIP3    H141989   1.069   5.837   0.223 -0.0337 -0.2974 -1.0295
 6810TIP3    H241990   1.216   5.816   0.192  0.7742  2.0737  0.7938
 6811TIP3   OH241991   3.708   5.117   0.155  0.5663  0.1132 -0.6199
 6811TIP3    H141992   3.650   5.165   0.214  2.0907 -0.2595  1.3192
 6811TIP3    H241993   3.741   5.182   0.094 -1.1888  0.4869 -1.2315
 6812TIP3   OH241994   1.943   6.864   0.823 -0.6252 -0.1737 -0.3683
 6812TIP3    H141995   1.942   6.867   0.728  0.0504  0.7727 -0.3631
 6812TIP3    H241996   1.894   6.942   0.850 -0.0428  0.0563  0.0486
 6813TIP3   OH241997   2.604   5.249   0.002  0.3182  0.1368 -1.1337
 6813TIP3    H141998   2.517   5.287  -0.014  0.1392 -0.2941 -1.2151
 6813TIP3    H241999   2.605   5.232   0.096  0.3011  0.1097 -1.1387
 6814TIP3   OH242000   5.275   3.245   7.126 -0.1532  0.1596 -0.3098
 6814TIP3    H142001   5.369   3.258   7.114 -0.3613  1.8772 -0.3837
 6814TIP3    H242002   5.268   3.173   7.189  1.3434  2.4395  2.6781
 6815TIP3   OH242003   2.017   2.879   1.142  0.2560  0.6815  0.0520
 6815TIP3    H142004   1.992   2.854   1.053  0.2176  1.6672 -0.2254
 6815TIP3    H242005   1.991   2.804   1.196  1.7114 -0.6224 -0.9475
 6816TIP3   OH242006   0.655   6.156   7.876  0.1099 -0.8692  0.0348
 6816TIP3    H142007   0.692   6.143   7.964  0.8868 -0.0116 -0.1518
 6816TIP3    H242008   0.588   6.089   7.869  0.9341 -1.8157  0.7839
 6817TIP3   OH242009   2.615   1.666   1.210  0.4138 -0.0547 -0.4471
 6817TIP3    H142010   2.679   1.729   1.176  1.2037 -0.9447 -0.6487
 6817TIP3    H242011   2.596   1.696   1.299  1.2111  0.1514 -0.3433
 6818TIP3   OH242012   1.596   3.185   1.614 -0.0083  0.4846 -0.4092
 6818TIP3    H142013   1.682   3.212   1.582  0.2109 -1.8062 -1.9924
 6818TIP3    H242014   1.537   3.197   1.540 -0.7334  0.6038  0.1810
 6819TIP3   OH242015   4.351   4.924   1.470 -0.6696  0.2878 -0.3262
 6819TIP3    H142016   4.403   4.994   1.507  0.7947  0.8183 -3.0879
 6819TIP3    H242017   4.389   4.844   1.507 -1.3990  0.8129  1.7017
 6820TIP3   OH242018   0.494   5.774   6.471 -0.8298 -0.3103 -0.4147
 6820TIP3    H142019   0.443   5.744   6.396 -2.1200  0.8438 -0.0428
 6820TIP3    H242020   0.439   5.841   6.512 -0.3399 -1.1843  1.8089
 6821TIP3   OH242021   6.055   4.168   7.922 -0.0010 -0.1220 -0.0038
 6821TIP3    H142022   6.085   4.231   7.988  0.0275 -0.1040 -0.0334
 6821TIP3    H242023   6.135   4.123   7.894  0.0275  0.0661 -0.2296
 6822TIP3   OH242024   5.758   2.694   2.027 -0.6491 -0.3819 -0.2055
 6822TIP3    H142025   5.806   2.638   2.089 -1.4423  0.6439  1.3929
 6822TIP3    H242026   5.819   2.765   2.006 -1.2564  0.7150  1.5310
 6823TIP3   OH242027   4.765   4.609   0.794 -0.3669 -0.0752  0.0529
 6823TIP3    H142028   4.779   4.535   0.735 -0.0452  0.6464 -0.8034
 6823TIP3    H242029   4.846   4.614   0.846 -0.7761 -0.9041  0.7938
 6824TIP3   OH242030   6.870   1.600   2.246 -0.0699  0.0450  0.2458
 6824TIP3    H142031   6.941   1.536   2.243 -0.8063 -0.7856  0.0456
 6824TIP3    H242032   6.908   1.681   2.212  1.0994 -0.0549  1.2765
 6825TIP3   OH242033   2.591   6.741   7.765 -0.4046 -0.7163 -0.4170
 6825TIP3    H142034   2.578   6.794   7.687 -1.8881 -0.5860 -0.1236
 6825TIP3    H242035   2.678   6.765   7.797 -1.1559  1.8576 -0.0827
 6826TIP3   OH242036   5.633   5.362   8.410  0.6802  0.0804  0.0335
 6826TIP3    H142037   5.718   5.353   8.368  0.6372  0.5930 -0.1764
 6826TIP3    H242038   5.570   5.347   8.339  0.6012  1.9768 -0.3726
 6827TIP3   OH242039   0.081   3.212   7.359 -0.1611 -0.3366  0.3733
 6827TIP3    H142040   0.045   3.298   7.336  1.6202 -0.2174 -2.5178
 6827TIP3    H242041   0.173   3.229   7.380  0.3833 -1.5593 -0.8454
 6828TIP3   OH242042   3.361   1.951   0.275  0.1558  0.2952 -0.2175
 6828TIP3    H142043   3.306   2.028   0.290 -0.1228 -0.2691  2.2247
 6828TIP3    H242044   3.450   1.984   0.276  0.0400  0.6117  0.8856
 6829TIP3   OH242045   4.985   2.624   0.524 -0.6271 -0.2010 -0.2117
 6829TIP3    H142046   4.954   2.571   0.450 -2.3079  0.1753  0.2004
 6829TIP3    H242047   4.930   2.701   0.524 -0.1217  0.1836  0.9730
 6830TIP3   OH242048   2.188   4.279   8.578 -0.3486 -0.1882  0.5322
 6830TIP3    H142049   2.191   4.352   8.515  1.4400 -0.6237  0.0544
 6830TIP3    H242050   2.119   4.221   8.544  2.6209 -2.0477 -3.0432
 6831TIP3   OH242051   4.881   6.395   0.897 -0.2307  0.5540 -0.1524
 6831TIP3    H142052   4.851   6.305   0.912 -0.1454  0.0799 -2.4886
 6831TIP3    H242053   4.958   6.386   0.841 -0.6903  2.1085 -1.0987
 6832TIP3   OH242054   3.472   3.758   1.584  0.4798  0.1599  0.0442
 6832TIP3    H142055   3.524   3.740   1.662 -0.0560  0.8467  0.5734
 6832TIP3    H242056   3.383   3.768   1.616  0.4407  1.7409 -0.4636
 6833TIP3   OH242057   5.797   2.514   2.728  0.0044  0.4027  0.1333
 6833TIP3    H142058   5.836   2.485   2.645  2.2818  1.9057  0.5786
 6833TIP3    H242059   5.844   2.464   2.795 -1.3569 -0.3132  0.5734
 6834TIP3   OH242060   1.015   6.769   1.908  0.4456 -0.4507 -0.1580
 6834TIP3    H142061   1.049   6.722   1.832 -0.3693 -0.1880 -0.7102
 6834TIP3    H242062   0.920   6.757   1.902  0.3780 -0.4128  0.8140
 6835TIP3   OH242063   1.280   3.084   0.083  0.3131 -0.4167  0.0075
 6835TIP3    H142064   1.308   3.173   0.108  0.0111 -0.1082 -0.7117
 6835TIP3    H242065   1.241   3.048   0.162 -0.6589  0.5470 -0.0080
 6836TIP3   OH242066   1.732   1.329   1.508 -0.7862  0.6514  0.2589
 6836TIP3    H142067   1.809   1.360   1.557  0.9517 -2.4378 -0.2169
 6836TIP3    H242068   1.661   1.330   1.572  0.3492  0.9506  1.5699
 6837TIP3   OH242069   0.223   2.113   0.965  0.2589  0.1974  0.3214
 6837TIP3    H142070   0.216   2.022   0.936  1.7013  0.0720  0.3076
 6837TIP3    H242071   0.144   2.127   1.019  0.6587 -1.4737  1.4366
 6838TIP3   OH242072   2.055   4.315   1.941  0.4911  0.0977  0.0597
 6838TIP3    H142073   1.990   4.363   1.991 -1.3426 -0.7442 -1.3787
 6838TIP3    H242074   2.029   4.223   1.950  1.5477 -0.2713 -0.4632
 6839TIP3   OH242075   3.858   0.624   1.242  0.5454 -0.1084  0.3226
 6839TIP3    H142076   3.800   0.690   1.202  0.9795  0.0366 -0.0894
 6839TIP3    H242077   3.807   0.587   1.313 -0.0881 -0.0445 -0.0847
 6840TIP3   OH242078   6.204   0.884   8.122 -0.1711  0.5382 -0.0219
 6840TIP3    H142079   6.289   0.841   8.108  0.6472  1.5356  1.5627
 6840TIP3    H242080   6.161   0.830   8.189 -1.2158 -0.4789 -1.4596
 6841TIP3   OH242081   3.176   1.076   0.125 -0.7987  0.5682  0.7956
 6841TIP3    H142082   3.232   1.055   0.200  0.0595  1.5076  0.4444
 6841TIP3    H242083   3.109   1.134   0.161 -0.9929  0.1910  1.0408
 6842TIP3   OH242084   6.613   5.144   0.783 -0.3826 -0.4901 -0.1959
 6842TIP3    H142085   6.668   5.067   0.766 -0.8020 -0.8600  0.0993
 6842TIP3    H242086   6.638   5.206   0.715  0.6204 -0.5358  0.1079
 6843TIP3   OH242087   4.651   2.213   1.464  0.1666  0.2779  0.0479
 6843TIP3    H142088   4.683   2.257   1.385  1.1536  0.2053  0.3844
 6843TIP3    H242089   4.611   2.132   1.432  0.5227  0.2667 -0.3837
 6844TIP3   OH242090   6.375   4.725   2.293 -0.3559 -0.0236 -0.0344
 6844TIP3    H142091   6.314   4.656   2.266 -0.3983 -0.5986  1.4263
 6844TIP3    H242092   6.442   4.679   2.344 -0.8329  1.1083  1.6871
 6845TIP3   OH242093   1.343   3.974   7.947 -0.0034  0.8410 -0.3254
 6845TIP3    H142094   1.281   3.994   8.017 -0.6840  0.9736 -0.9511
 6845TIP3    H242095   1.288   3.943   7.875  0.8368 -1.4284 -0.0688
 6846TIP3   OH242096   6.727   4.036   8.382  0.1837 -0.0638  0.7041
 6846TIP3    H142097   6.751   4.118   8.339  2.7382  0.2041  2.4678
 6846TIP3    H242098   6.810   3.995   8.405 -1.0511 -1.9523  2.1048
 6847TIP3   OH242099   1.179   5.374   1.780  0.3640 -0.2633  0.1488
 6847TIP3    H142100   1.208   5.458   1.816 -0.3041  0.3367 -0.6600
 6847TIP3    H242101   1.085   5.372   1.799  0.1011 -0.1703 -1.0644
 6848TIP3   OH242102   1.448   3.007   7.855  0.1740 -0.0824  0.1433
 6848TIP3    H142103   1.383   2.966   7.798 -0.2704  0.8247 -0.0305
 6848TIP3    H242104   1.410   3.092   7.876  1.1356  0.3052  0.3618
 6849TIP3   OH242105   5.640   1.148   2.119 -0.5457  0.0420 -0.8624
 6849TIP3    H142106   5.617   1.100   2.039  0.4583 -0.1884 -1.0259
 6849TIP3    H242107   5.668   1.080   2.180  0.5394  0.3755 -0.9721
 6850TIP3   OH242108   5.594   3.259   2.107  0.3307 -0.0215 -0.2727
 6850TIP3    H142109   5.535   3.332   2.090  0.9913  0.3841 -0.8762
 6850TIP3    H242110   5.678   3.300   2.126  0.5683 -0.6119 -0.0334
 6851TIP3   OH242111   5.901   6.355   2.988  0.1241  0.1045  0.0551
 6851TIP3    H142112   5.829   6.418   2.988  1.1202  1.3013  1.2154
 6851TIP3    H242113   5.857   6.269   2.985 -1.5120  0.6816  3.2016
 6852TIP3   OH242114   2.633   1.592   0.442  0.3583 -0.0619 -0.4548
 6852TIP3    H142115   2.557   1.536   0.458  0.4286  0.3156  1.4318
 6852TIP3    H242116   2.596   1.673   0.407 -0.2869  0.5370  1.4744
 6853TIP3   OH242117   0.508   4.198   7.431  0.9769  0.8124 -0.3837
 6853TIP3    H142118   0.593   4.165   7.403  1.0562  1.1846 -0.5955
 6853TIP3    H242119   0.459   4.120   7.458  1.2663  0.5611 -0.5787
 6854TIP3   OH242120   5.276   2.016   1.542  0.1494  0.1546  0.1706
 6854TIP3    H142121   5.201   2.042   1.595 -0.0896 -0.7488  0.2962
 6854TIP3    H242122   5.239   1.958   1.475  0.7619 -0.4947  0.3766
 6855TIP3   OH242123   1.315   2.798   1.065 -0.7612 -0.2377  0.3345
 6855TIP3    H142124   1.316   2.727   1.001 -0.8016  0.2071 -0.1675
 6855TIP3    H242125   1.239   2.850   1.041 -0.9773 -0.2638  0.9642
 6856TIP3   OH242126   1.407   5.387   2.158 -0.0832  0.0071  0.1943
 6856TIP3    H142127   1.432   5.302   2.195  0.0227  0.6553  1.7077
 6856TIP3    H242128   1.314   5.395   2.177  0.1778  0.7730  1.2854
 6857TIP3   OH242129   4.099   6.439   0.736  0.4615  0.0791  0.1160
 6857TIP3    H142130   4.048   6.520   0.741 -1.2530 -1.0096  1.9535
 6857TIP3    H242131   4.149   6.437   0.817 -0.9327 -1.5028  1.0079
 6858TIP3   OH242132   6.838   3.831   0.883 -0.5889  0.7849 -0.4391
 6858TIP3    H142133   6.782   3.785   0.821 -0.3276  2.0971 -1.6951
 6858TIP3    H242134   6.916   3.854   0.833 -0.0974  1.3456  0.5477
 6859TIP3   OH242135   4.112   6.009   7.409 -0.5720 -0.4977  0.0615
 6859TIP3    H142136   4.207   6.021   7.400 -0.6989  1.3003  0.8676
 6859TIP3    H242137   4.080   6.091   7.445 -2.6789 -0.4574 -1.6565
 6860TIP3   OH242138   0.105   0.234   3.036 -0.0619 -0.6064 -0.6210
 6860TIP3    H142139   0.141   0.151   3.069  0.8932 -0.0321 -0.1536
 6860TIP3    H242140   0.028   0.250   3.090  1.1656  0.0405  1.0124
 6861TIP3   OH242141   2.128   0.809   1.967  0.2113  0.4041 -0.1720
 6861TIP3    H142142   2.086   0.761   1.896  1.8408 -1.5601  0.0786
 6861TIP3    H242143   2.170   0.884   1.925 -3.9881  3.0026 -0.3266
 6862TIP3   OH242144   2.288   4.646   1.623  0.2334 -0.0875  0.1942
 6862TIP3    H142145   2.236   4.571   1.652  0.2712 -0.6202 -1.0514
 6862TIP3    H242146   2.226   4.702   1.578  0.3552  0.2620  0.4589
 6863TIP3   OH242147   6.687   2.966   0.703 -0.2784 -0.6535 -0.4986
 6863TIP3    H142148   6.717   3.032   0.640 -0.4241 -0.6780 -0.5942
 6863TIP3    H242149   6.678   2.886   0.652 -0.8188 -0.5697 -0.5401
 6864TIP3   OH242150   5.926   3.476   7.312  0.0635 -0.1941  0.2986
 6864TIP3    H142151   5.935   3.418   7.388  0.4580  0.5486  0.8233
 6864TIP3    H242152   6.015   3.499   7.288 -0.1001  0.3811  0.2325
 6865TIP3   OH242153   6.190   4.735   7.709  0.1582 -0.8977  0.5923
 6865TIP3    H142154   6.259   4.799   7.691 -0.2911 -0.1413  1.4586
 6865TIP3    H242155   6.235   4.663   7.755  0.3774 -0.3867  1.2023
 6866TIP3   OH242156   0.369   2.721   0.703 -0.3935  0.1497  0.0812
 6866TIP3    H142157   0.275   2.726   0.685 -0.5086  1.3986  0.8964
 6866TIP3    H242158   0.383   2.785   0.773  1.0637 -0.0511 -0.0015
 6867TIP3   OH242159   6.204   6.041   7.082  0.0843 -0.3841 -0.7389
 6867TIP3    H142160   6.116   6.034   7.045 -0.6165 -1.7356  1.0496
 6867TIP3    H242161   6.258   5.986   7.025 -0.7208 -1.4345 -0.5100
 6868TIP3   OH242162   1.812   3.397   1.868  0.0778  0.4896 -0.6370
 6868TIP3    H142163   1.906   3.416   1.874 -0.3835  2.8857  0.2208
 6868TIP3    H242164   1.788   3.424   1.779  0.4182 -1.5757 -1.4156
 6869TIP3   OH242165   2.667   4.676   2.437  0.1125  0.1025  0.6587
 6869TIP3    H142166   2.698   4.710   2.521 -1.7385  1.0174  1.0373
 6869TIP3    H242167   2.574   4.659   2.452  0.1597 -1.6049 -0.6607
 6870TIP3   OH242168   2.755   5.809   0.575  0.3381 -0.1380  0.6475
 6870TIP3    H142169   2.660   5.814   0.565  0.4088  3.3431  0.4450
 6870TIP3    H242170   2.772   5.720   0.607 -2.8062 -1.3113 -0.6285
 6871TIP3   OH242171   2.314   2.570   7.139  0.2132 -0.3392 -0.1583
 6871TIP3    H142172   2.403   2.547   7.165  0.0811  0.0917  0.7258
 6871TIP3    H242173   2.278   2.488   7.104  0.1903 -1.1592  1.6741
 6872TIP3   OH242174   3.500   0.147   7.704  0.1964  0.5029  0.0627
 6872TIP3    H142175   3.547   0.229   7.717 -0.1962  1.1192 -1.9318
 6872TIP3    H242176   3.505   0.132   7.609  0.9322 -2.2059  0.4446
 6873TIP3   OH242177   0.008   1.360   1.612 -0.6152 -0.6647 -0.1389
 6873TIP3    H142178  -0.052   1.307   1.664 -0.3683 -0.7371  0.0724
 6873TIP3    H242179  -0.021   1.346   1.522 -1.3272 -0.1863  0.0023
 6874TIP3   OH242180   4.738   0.691   7.904 -0.3917  0.5368  0.0598
 6874TIP3    H142181   4.711   0.678   7.812 -0.0250 -0.6974  0.1054
 6874TIP3    H242182   4.695   0.772   7.930  1.4468  2.2847 -1.9423
 6875TIP3   OH242183   6.748   6.308   1.455  0.3511 -0.0050 -0.1972
 6875TIP3    H142184   6.699   6.242   1.406 -1.4967  0.5522  0.8016
 6875TIP3    H242185   6.714   6.391   1.422  0.9393  0.4088  0.2266
 6876TIP3   OH242186   3.510   3.678   0.386 -0.3673  0.3275 -0.0734
 6876TIP3    H142187   3.517   3.634   0.301  0.9700  0.9689 -0.3247
 6876TIP3    H242188   3.450   3.623   0.436 -2.2985  0.6780 -1.8702
 6877TIP3   OH242189   2.413   0.038   7.845  0.7953  0.2235  0.6376
 6877TIP3    H142190   2.493  -0.013   7.842 -0.0607 -1.2725  1.7811
 6877TIP3    H242191   2.401   0.058   7.938 -1.7238 -2.2589  0.9647
 6878TIP3   OH242192   6.760   4.315   8.347 -0.5740 -0.3333 -0.3457
 6878TIP3    H142193   6.712   4.327   8.265  0.1081  0.4501 -0.6446
 6878TIP3    H242194   6.750   4.398   8.393  0.2864 -0.2400 -0.3093
 6879TIP3   OH242195   0.460   1.188   7.583 -0.1272  0.1010  0.0048
 6879TIP3    H142196   0.472   1.150   7.670  0.6379  0.3263  0.0031
 6879TIP3    H242197   0.399   1.129   7.539 -0.7567  0.1515  0.7980
 6880TIP3   OH242198   6.251   2.604   0.521  0.4912  0.1749 -0.0221
 6880TIP3    H142199   6.226   2.512   0.512 -0.2930  0.2506  1.1036
 6880TIP3    H242200   6.323   2.604   0.584  0.5363  0.3248 -0.0719
 6881TIP3   OH242201   0.160   1.451   3.097  0.3542 -0.1985  0.0256
 6881TIP3    H142202   0.083   1.434   3.150  0.2805 -0.8493 -0.2711
 6881TIP3    H242203   0.128   1.504   3.024  0.1691 -0.5293 -0.1359
 6882TIP3   OH242204   6.691   5.351   7.904 -0.0057  0.0714 -0.0268
 6882TIP3    H142205   6.724   5.380   7.819  0.0736 -1.7703 -0.6727
 6882TIP3    H242206   6.621   5.290   7.883 -0.3831  0.0448  1.2560
 6883TIP3   OH242207   5.145   4.023   7.485  0.4829  0.4349 -0.5459
 6883TIP3    H142208   5.147   4.103   7.433  1.4225  2.7091  2.7134
 6883TIP3    H242209   5.235   4.010   7.514 -0.0966 -0.4282  0.9627
 6884TIP3   OH242210   6.783   0.828   2.270 -0.2310 -0.3998 -0.1487
 6884TIP3    H142211   6.841   0.754   2.291 -0.0350  0.3214  2.2045
 6884TIP3    H242212   6.830   0.905   2.304  0.1052  1.0627 -3.5075
 6885TIP3   OH242213   4.095   3.821   1.383  0.6710 -0.0851 -0.4607
 6885TIP3    H142214   4.110   3.834   1.477 -0.9288  0.0504 -0.2000
 6885TIP3    H242215   4.112   3.728   1.369 -2.3226 -0.9252  0.6936
 6886TIP3   OH242216   0.509   4.488   7.506  0.4467 -0.2379  0.4231
 6886TIP3    H142217   0.479   4.398   7.519 -0.1491 -0.0175  0.6245
 6886TIP3    H242218   0.589   4.480   7.454  0.0234 -0.8487 -0.1491
 6887TIP3   OH242219   3.276   3.655   1.350  0.2064 -0.1541  1.0926
 6887TIP3    H142220   3.317   3.571   1.329  1.5853  0.9935 -1.1754
 6887TIP3    H242221   3.335   3.696   1.413 -0.5828 -0.9110  2.3774
 6888TIP3   OH242222   5.794   1.793   2.426 -0.0972  0.3579 -0.4380
 6888TIP3    H142223   5.889   1.797   2.433 -0.0390 -0.8497 -0.1506
 6888TIP3    H242224   5.778   1.722   2.364 -0.7991 -1.3439  1.5661
 6889TIP3   OH242225   4.188   5.694   0.388 -0.7075 -0.3109  0.4852
 6889TIP3    H142226   4.203   5.730   0.476  2.1368 -0.3881  0.1188
 6889TIP3    H242227   4.138   5.761   0.342  0.5495  1.1719  1.2153
 6890TIP3   OH242228   1.374   0.780   2.107 -0.5841 -0.2837  0.0053
 6890TIP3    H142229   1.336   0.818   2.186 -0.4985  0.4475 -0.2925
 6890TIP3    H242230   1.397   0.856   2.053 -1.7595 -0.7623 -1.2393
 6891TIP3   OH242231   2.191   1.121   7.154 -0.1361  0.0088 -0.0283
 6891TIP3    H142232   2.103   1.090   7.178 -0.0796  0.8370  1.3590
 6891TIP3    H242233   2.175   1.189   7.089 -0.5187  0.0026  0.0516
 6892TIP3   OH242234   4.840   4.770   8.257  0.1441  0.2639 -0.3336
 6892TIP3    H142235   4.921   4.807   8.292 -0.9162  3.0615 -0.6335
 6892TIP3    H242236   4.788   4.749   8.335 -0.6117  2.7651 -0.0888
 6893TIP3   OH242237   1.099   1.480   0.705  0.3207  0.0815  0.1565
 6893TIP3    H142238   1.060   1.557   0.746 -2.0573 -0.5688 -0.7160
 6893TIP3    H242239   1.033   1.449   0.643  2.2829 -1.1175 -1.4820
 6894TIP3   OH242240   2.591   2.423   8.191  0.3502  0.9604 -0.4449
 6894TIP3    H142241   2.583   2.497   8.250 -0.9951  0.8022 -0.4007
 6894TIP3    H242242   2.502   2.410   8.157  0.8561  0.2838 -1.5593
 6895TIP3   OH242243   5.421   0.110   1.632  0.3749 -0.4159 -0.4274
 6895TIP3    H142244   5.515   0.128   1.635  0.1363  1.0826 -1.0217
 6895TIP3    H242245   5.392   0.114   1.724  1.0083 -1.7060 -0.1534
 6896TIP3   OH242246   6.302   2.901   8.581  0.0883 -0.5135 -0.3518
 6896TIP3    H142247   6.307   2.824   8.525 -1.2870 -1.5205  0.8077
 6896TIP3    H242248   6.211   2.902   8.611  0.6438  0.2741  1.4326
 6897TIP3   OH242249   2.270   4.338   1.596  0.1103  0.2598 -0.1765
 6897TIP3    H142250   2.178   4.312   1.587 -0.6136  3.0852 -2.9723
 6897TIP3    H242251   2.312   4.304   1.517  1.1129  0.4071  0.2756
 6898TIP3   OH242252   5.387   4.919   8.272  0.1800 -0.4773  0.4186
 6898TIP3    H142253   5.387   5.007   8.311 -1.2597 -0.0642 -0.4341
 6898TIP3    H242254   5.301   4.911   8.231 -0.3334 -2.8996  1.7718
 6899TIP3   OH242255   0.287   0.001   1.731  0.3627 -0.2972 -0.1565
 6899TIP3    H142256   0.276   0.031   1.822 -2.5849 -1.2872 -0.0777
 6899TIP3    H242257   0.217   0.044   1.683  1.6271 -0.1151 -1.9143
 6900TIP3   OH242258   2.915   2.282   2.955  0.5912 -0.5158  0.5959
 6900TIP3    H142259   2.823   2.296   2.935 -0.2136 -4.0314  1.2730
 6900TIP3    H242260   2.952   2.249   2.873  1.8263  2.5453 -0.2357
 6901TIP3   OH242261   4.183   1.088   1.707 -0.0743  0.1853  0.1852
 6901TIP3    H142262   4.240   1.152   1.666  0.0396 -0.0433 -0.0185
 6901TIP3    H242263   4.097   1.103   1.667 -1.0534  2.8147  2.9003
 6902TIP3   OH242264   6.474   4.523   7.775  0.2427  0.1363 -0.6384
 6902TIP3    H142265   6.546   4.581   7.801  3.0021 -2.3256 -2.2336
 6902TIP3    H242266   6.456   4.472   7.854 -1.6316  2.3896  0.5237
 6903TIP3   OH242267   1.160   0.157   1.653  0.1710  0.5203  0.0027
 6903TIP3    H142268   1.175   0.089   1.587  2.5845  1.1589 -0.1995
 6903TIP3    H242269   1.083   0.126   1.702 -0.3031 -1.0926 -1.6302
 6904TIP3   OH242270   2.000   6.016   2.048  0.0214  0.1414  0.1765
 6904TIP3    H142271   1.965   6.094   2.091  1.4282  0.9137 -0.0061
 6904TIP3    H242272   1.964   5.943   2.097 -1.4203  0.8871  0.2856
 6905TIP3   OH242273   0.683   3.549   6.886 -0.0578 -0.3657  0.4988
 6905TIP3    H142274   0.611   3.604   6.918  0.4927 -0.1963  1.4802
 6905TIP3    H242275   0.640   3.474   6.846 -0.8319  0.7053 -0.7742
 6906TIP3   OH242276   4.278   3.310   8.437  0.0634  0.3125  0.0378
 6906TIP3    H142277   4.188   3.321   8.406  0.2857 -0.7568 -1.0712
 6906TIP3    H242278   4.313   3.239   8.383  1.1647 -0.1727  1.3384
 6907TIP3   OH242279   1.190   5.961   7.671  0.0924  0.3332 -0.0895
 6907TIP3    H142280   1.105   5.977   7.710  0.3264  0.1327  0.5187
 6907TIP3    H242281   1.241   5.920   7.740  0.0938 -1.3159 -1.0164
 6908TIP3   OH242282   2.780   6.517   2.059 -0.1874  0.0487 -0.8813
 6908TIP3    H142283   2.721   6.442   2.045 -0.0181 -0.1023 -0.7896
 6908TIP3    H242284   2.864   6.478   2.080 -0.3032  0.2622  0.0226
 6909TIP3   OH242285   5.704   2.509   1.363 -0.3529 -0.3381  0.6436
 6909TIP3    H142286   5.708   2.541   1.453  0.2739  3.3613 -0.5229
 6909TIP3    H242287   5.654   2.575   1.316  0.6743 -1.3089 -2.0140
 6910TIP3   OH242288   1.207   3.654   2.557  0.1412  0.3453  0.8400
 6910TIP3    H142289   1.145   3.624   2.623 -0.0511 -0.2844  0.3896
 6910TIP3    H242290   1.214   3.748   2.570 -1.8137  0.6230  0.1419
 6911TIP3   OH242291   4.172   4.546   1.453 -0.5253  0.2859  0.0672
 6911TIP3    H142292   4.188   4.482   1.522  0.0958  0.4327  0.0660
 6911TIP3    H242293   4.256   4.590   1.440 -1.1599  1.7670  0.7208
 6912TIP3   OH242294   6.718   6.376   6.830  0.2128  0.3565  0.4261
 6912TIP3    H142295   6.696   6.468   6.817  0.3013  0.1836 -1.0888
 6912TIP3    H242296   6.634   6.334   6.849  0.0974  0.6551  0.5789
 6913TIP3   OH242297   6.426   4.495   2.045 -0.2989  0.4217 -0.5718
 6913TIP3    H142298   6.497   4.552   2.075 -0.9575  1.4267 -0.8520
 6913TIP3    H242299   6.359   4.502   2.114  0.7707 -2.4379  0.9459
 6914TIP3   OH242300   3.786   4.709   7.102 -0.1818 -0.5700 -0.3743
 6914TIP3    H142301   3.747   4.795   7.083 -1.0689 -1.2286 -1.7333
 6914TIP3    H242302   3.877   4.717   7.073 -0.2135 -0.0303 -0.3368
 6915TIP3   OH242303   6.421   6.555   1.692  0.0814  0.3670 -0.0782
 6915TIP3    H142304   6.358   6.484   1.708 -0.6110  0.8905 -0.4357
 6915TIP3    H242305   6.506   6.512   1.696 -0.3901 -0.9435 -2.3939
 6916TIP3   OH242306   0.789   5.892   1.248 -0.4908 -0.4347  0.3534
 6916TIP3    H142307   0.774   5.959   1.181  0.6739 -0.7377 -0.2389
 6916TIP3    H242308   0.765   5.935   1.330 -0.3362  0.5063 -0.0768
 6917TIP3   OH242309   6.773   0.702   7.108 -0.0007 -0.1969 -0.2715
 6917TIP3    H142310   6.678   0.704   7.095 -0.0185  0.9960 -0.0287
 6917TIP3    H242311   6.797   0.793   7.125  1.2332 -0.4348 -0.6340
 6918TIP3   OH242312   2.056   2.636   8.131  0.0843  0.4732 -0.0176
 6918TIP3    H142313   1.982   2.624   8.190 -0.7624  0.3182 -1.0753
 6918TIP3    H242314   2.099   2.551   8.129 -1.0584 -0.1203 -1.1264
 6919TIP3   OH242315   1.999   6.493   7.962 -0.2723 -0.0066  0.3528
 6919TIP3    H142316   1.909   6.470   7.938 -0.4925 -0.2212  1.3515
 6919TIP3    H242317   2.053   6.432   7.911 -0.6577  0.4505 -0.6336
 6920TIP3   OH242318   4.891   6.715   0.880  0.0295 -0.2226  0.7356
 6920TIP3    H142319   4.892   6.807   0.906  0.3277 -0.4933  1.7383
 6920TIP3    H242320   4.799   6.690   0.882 -0.0365  0.0135  0.6105
 6921TIP3   OH242321   4.270   2.111   0.713 -0.3055  0.4655  0.1513
 6921TIP3    H142322   4.244   2.190   0.667 -0.8322 -1.1384 -2.5707
 6921TIP3    H242323   4.290   2.048   0.643  2.7345 -1.0398  2.1230
 6922TIP3   OH242324   4.484   5.635   2.022 -0.5403 -0.0158  0.0520
 6922TIP3    H142325   4.563   5.683   2.047 -0.4636 -0.6043  0.9944
 6922TIP3    H242326   4.498   5.613   1.930  1.0066 -1.1936  0.5204
 6923TIP3   OH242327   3.305   4.429   0.414  0.6653 -0.1653  0.4553
 6923TIP3    H142328   3.387   4.380   0.423  0.0550 -1.2020  0.4861
 6923TIP3    H242329   3.250   4.397   0.485 -0.7087 -1.4129 -1.0923
 6924TIP3   OH242330   1.022   2.946   0.658  0.6629 -0.1014  0.0572
 6924TIP3    H142331   1.098   2.889   0.665 -0.4014 -1.5630  0.0073
 6924TIP3    H242332   0.947   2.887   0.650 -0.6182  1.2523  1.2455
 6925TIP3   OH242333   3.525   6.676   7.319  0.4799  0.4979  0.2868
 6925TIP3    H142334   3.481   6.593   7.298 -1.0281  1.3132  0.1308
 6925TIP3    H242335   3.508   6.732   7.244  2.1744  0.7265  0.0344
 6926TIP3   OH242336   3.948   0.698   2.108  0.3620  0.0348 -0.3342
 6926TIP3    H142337   3.919   0.781   2.071  0.8762  0.5813  0.4419
 6926TIP3    H242338   4.043   0.698   2.095  0.5688  0.2729  0.9828
 6927TIP3   OH242339   1.858   6.008   8.004 -0.6295  0.4123  0.6658
 6927TIP3    H142340   1.849   5.996   8.098  0.8896  2.0971  1.0803
 6927TIP3    H242341   1.938   5.961   7.980 -0.9355  0.1009  0.2234
 6928TIP3   OH242342   6.368   3.160   0.564 -0.1882  0.3778 -0.3013
 6928TIP3    H142343   6.277   3.188   0.558 -0.3657 -0.2089 -0.4103
 6928TIP3    H242344   6.400   3.162   0.474 -0.7595 -1.5542 -0.5949
 6929TIP3   OH242345   6.518   0.809   1.249  0.0910 -0.0743 -0.2937
 6929TIP3    H142346   6.550   0.769   1.168 -1.2730 -0.7592 -0.5248
 6929TIP3    H242347   6.587   0.792   1.313  0.8363 -0.2127 -1.1112
 6930TIP3   OH242348   3.589   1.805   0.028 -0.5216 -0.1743 -0.0354
 6930TIP3    H142349   3.610   1.898   0.018 -1.6700  0.1854  0.7310
 6930TIP3    H242350   3.643   1.775   0.100 -0.7960  0.1331  0.3032
 6931TIP3   OH242351   3.801   6.249   1.187 -0.7733  0.3490  0.3968
 6931TIP3    H142352   3.808   6.242   1.282 -0.4634 -1.2065  0.2886
 6931TIP3    H242353   3.777   6.161   1.158  2.5114 -0.1840 -1.2147
 6932TIP3   OH242354   2.507   4.074   8.041 -0.0409  0.8454  0.0139
 6932TIP3    H142355   2.501   4.162   8.078  0.4266  0.6545  0.5510
 6932TIP3    H242356   2.551   4.023   8.108 -0.6861  0.0942 -0.1178
 6933TIP3   OH242357   6.044   6.640   4.651  0.2404 -0.7746  0.0240
 6933TIP3    H142358   6.116   6.683   4.605 -2.1719  0.5037 -2.9110
 6933TIP3    H242359   6.007   6.708   4.707  0.0545 -0.8227 -0.0413
 6934TIP3   OH242360   5.487   3.237   0.724  0.0695  0.3417  0.1241
 6934TIP3    H142361   5.568   3.288   0.722  1.2670 -1.4922 -1.7350
 6934TIP3    H242362   5.501   3.167   0.661 -2.3580 -1.0199  0.9703
 6935TIP3   OH242363   6.388   4.424   8.017  0.7649 -0.1641 -0.2122
 6935TIP3    H142364   6.294   4.441   8.014  1.0689  1.7335 -2.7635
 6935TIP3    H242365   6.416   4.452   8.104 -0.5384  2.4818 -0.5636
 6936TIP3   OH242366   0.287   5.694   2.196 -0.1467 -0.5486  0.1878
 6936TIP3    H142367   0.376   5.680   2.164  0.3201  1.7853  0.3149
 6936TIP3    H242368   0.296   5.759   2.266 -1.8986 -0.6657  0.5703
 6937TIP3   OH242369   6.657   4.874   8.554 -0.0288 -0.1527  0.6204
 6937TIP3    H142370   6.625   4.956   8.592  0.7857  0.7828 -0.6086
 6937TIP3    H242371   6.578   4.826   8.531 -0.5219  0.3004  1.3310
 6938TIP3   OH242372   3.172   0.564   0.307  0.0162  0.6171  0.5114
 6938TIP3    H142373   3.223   0.586   0.229 -0.2311 -0.7688 -0.0691
 6938TIP3    H242374   3.088   0.535   0.273  0.3341 -1.2036  1.2079
 6939TIP3   OH242375   6.235   4.633   0.645  0.5777 -0.3849  0.0930
 6939TIP3    H142376   6.215   4.669   0.731  0.1597 -0.9170  0.2278
 6939TIP3    H242377   6.331   4.633   0.640  0.6238 -0.8550  0.7846
 6940TIP3   OH242378   1.153   1.561   2.164 -0.0071 -0.2183 -0.2802
 6940TIP3    H142379   1.147   1.524   2.252  0.6998 -0.8479 -0.4858
 6940TIP3    H242380   1.236   1.610   2.164 -0.8947  1.3619 -0.0298
 6941TIP3   OH242381   3.125   1.695   8.355  0.1104 -0.1901  0.6453
 6941TIP3    H142382   3.040   1.695   8.399 -0.9127 -0.1508 -1.2329
 6941TIP3    H242383   3.124   1.774   8.302  2.1033  0.7753  1.9203
 6942TIP3   OH242384   3.781   5.002   2.311 -0.4400  0.0737  0.3426
 6942TIP3    H142385   3.853   5.027   2.369  0.0477 -0.3547 -0.0627
 6942TIP3    H242386   3.723   4.949   2.366 -1.7400  2.4158  1.3400
 6943TIP3   OH242387   5.451   4.927   7.105 -0.1802 -0.8984  0.6396
 6943TIP3    H142388   5.467   4.852   7.048 -2.1912 -0.6427 -0.3602
 6943TIP3    H242389   5.521   4.988   7.084 -0.1007 -1.3749 -0.5868
 6944TIP3   OH242390   0.642   0.762   8.172  0.0762 -0.5209  0.1391
 6944TIP3    H142391   0.620   0.850   8.143  0.1293 -1.1234 -1.8624
 6944TIP3    H242392   0.737   0.764   8.186  0.2883 -0.5725 -1.1769
 6945TIP3   OH242393   6.658   4.565   8.462  0.6863  0.0225 -0.2751
 6945TIP3    H142394   6.586   4.623   8.486  1.0129  1.5125 -2.5530
 6945TIP3    H242395   6.732   4.594   8.515  0.8437  1.7932 -1.3855
 6946TIP3   OH242396   3.083   6.737   1.052 -0.1230  0.0560 -0.7879
 6946TIP3    H142397   3.045   6.763   0.968 -0.9464  2.0192  0.1351
 6946TIP3    H242398   3.096   6.819   1.099 -0.2027 -1.0218  1.2191
 6947TIP3   OH242399   2.020   5.420   1.813 -0.0133  0.0667  0.1523
 6947TIP3    H142400   2.049   5.485   1.750 -2.6395 -0.5877 -1.9458
 6947TIP3    H242401   2.046   5.336   1.775 -1.3834 -0.3237 -0.0056
 6948TIP3   OH242402   3.940   0.197   0.580  0.0151  0.2417  0.4374
 6948TIP3    H142403   4.031   0.220   0.597  0.4028 -0.5019 -0.5724
 6948TIP3    H242404   3.919   0.133   0.648  0.2510  0.3947  0.6573
 6949TIP3   OH242405   3.678   6.092   0.724  0.0973 -0.5982 -0.0547
 6949TIP3    H142406   3.693   6.185   0.741 -0.2355 -0.6907  0.7887
 6949TIP3    H242407   3.582   6.082   0.725  0.1299 -0.9536 -0.1029
 6950TIP3   OH242408   1.164   1.847   1.264  0.2057  0.0887 -0.0676
 6950TIP3    H142409   1.126   1.802   1.339  1.7321 -0.4647  0.4022
 6950TIP3    H242410   1.252   1.811   1.256  0.3142  0.6392 -1.7060
 6951TIP3   OH242411   2.676   1.073   2.078  0.0914 -0.4551  0.0189
 6951TIP3    H142412   2.751   1.041   2.128  0.3689 -0.6558 -0.5175
 6951TIP3    H242413   2.611   1.002   2.084 -0.8965  0.5214  2.1915
 6952TIP3   OH242414   0.716   3.902   8.030  0.2000 -0.1215  0.1415
 6952TIP3    H142415   0.644   3.934   7.976 -0.8243 -0.9165  1.0091
 6952TIP3    H242416   0.711   3.952   8.111  1.3057  0.5707 -0.1825
 6953TIP3   OH242417   6.765   2.790   2.865 -0.6955 -0.0559  0.0799
 6953TIP3    H142418   6.688   2.749   2.905 -0.2035 -0.2767  0.8394
 6953TIP3    H242419   6.817   2.716   2.832 -0.6385  0.0646 -0.0984
 6954TIP3   OH242420   3.878   6.035   8.280 -0.2961 -0.3754  0.3965
 6954TIP3    H142421   3.903   5.950   8.244 -0.5950 -0.8134  1.1946
 6954TIP3    H242422   3.801   6.016   8.334  1.2794 -0.1077  2.8642
 6955TIP3   OH242423   1.798   1.326   8.606  0.3073  1.0193  0.0820
 6955TIP3    H142424   1.813   1.252   8.665 -1.2908 -0.5916 -1.3811
 6955TIP3    H242425   1.802   1.287   8.518  0.9526  3.0036 -0.8246
 6956TIP3   OH242426   3.382   4.571   1.321 -0.0206  0.8825  0.3359
 6956TIP3    H142427   3.420   4.518   1.391 -2.5389 -0.8210  0.5282
 6956TIP3    H242428   3.305   4.612   1.360 -1.4674 -0.0632 -1.3624
 6957TIP3   OH242429   0.477   3.241   7.630  0.5865 -0.5515  0.3405
 6957TIP3    H142430   0.572   3.248   7.620  0.5961 -1.6324 -0.4514
 6957TIP3    H242431   0.464   3.236   7.725  1.1177  1.8358  0.6053
 6958TIP3   OH242432   6.033   0.230   0.643 -0.2042 -0.0953 -0.4041
 6958TIP3    H142433   6.077   0.313   0.659  0.2445 -0.2509 -0.8351
 6958TIP3    H242434   6.060   0.174   0.716  0.7710 -0.3716 -0.9612
 6959TIP3   OH242435   0.473   6.231   0.183 -0.1959  0.4563  0.1933
 6959TIP3    H142436   0.448   6.311   0.138  1.0651  1.3025  0.9378
 6959TIP3    H242437   0.566   6.242   0.203 -0.0800 -1.0329  0.6466
 6960TIP3   OH242438   0.319   2.719   1.738 -0.6198 -0.1690  0.2423
 6960TIP3    H142439   0.338   2.625   1.747  1.6168  0.2968  0.9371
 6960TIP3    H242440   0.367   2.761   1.809 -0.8917  1.5938 -0.5551
 6961TIP3   OH242441   6.307   6.621   1.240 -0.1828 -0.1586 -0.0029
 6961TIP3    H142442   6.285   6.577   1.157 -1.6696 -2.8630  1.6744
 6961TIP3    H242443   6.388   6.579   1.268  0.3915  0.8483 -0.0981
 6962TIP3   OH242444   1.096   3.209   8.092 -0.1756  1.0148 -0.1266
 6962TIP3    H142445   1.134   3.121   8.085  2.4448  2.0470  0.1424
 6962TIP3    H242446   1.037   3.215   8.017 -1.3521 -1.3456  0.4966
 6963TIP3   OH242447   4.285   1.689   1.336  0.1467 -0.5839  0.0839
 6963TIP3    H142448   4.199   1.646   1.342  0.2179 -0.7180  0.1561
 6963TIP3    H242449   4.277   1.747   1.261  1.0715 -3.0926 -2.1132
 6964TIP3   OH242450   3.568   4.358   1.374 -0.2072  0.3086 -0.4328
 6964TIP3    H142451   3.599   4.346   1.284 -1.3715  0.7972 -0.9226
 6964TIP3    H242452   3.629   4.308   1.428 -0.6493 -1.6742 -1.6823
 6965TIP3   OH242453   3.506   0.832   7.682  0.5054  0.5009 -0.0316
 6965TIP3    H142454   3.538   0.793   7.600 -1.1701  2.7279 -1.8900
 6965TIP3    H242455   3.443   0.768   7.716  1.4812 -0.6156 -0.2414
 6966TIP3   OH242456   5.840   5.468   0.679  0.1714  0.1757 -0.9631
 6966TIP3    H142457   5.932   5.495   0.679  0.3228 -0.3382 -0.2780
 6966TIP3    H242458   5.842   5.374   0.696 -0.5418  0.4025  0.5754
 6967TIP3   OH242459   4.945   2.679   7.375  0.1602  0.4179  0.4815
 6967TIP3    H142460   5.018   2.617   7.382 -0.6044 -0.4190  1.3718
 6967TIP3    H242461   4.920   2.676   7.283  2.0570  1.7036 -0.1447
 6968TIP3   OH242462   0.841   2.805   2.165 -0.0164 -0.4425  0.3470
 6968TIP3    H142463   0.863   2.739   2.098 -0.5537  0.6978 -1.0102
 6968TIP3    H242464   0.882   2.885   2.133 -1.7394  0.5276  0.4741
 6969TIP3   OH242465   4.751   1.716   1.349  0.5651 -0.1807  0.4767
 6969TIP3    H142466   4.791   1.684   1.268  1.6963 -0.7313  1.2249
 6969TIP3    H242467   4.768   1.647   1.413 -0.5227  0.1357  1.1391
 6970TIP3   OH242468   4.487   0.881   2.919  0.0163  0.1644  0.3569
 6970TIP3    H142469   4.399   0.915   2.904  0.0313  0.6489  1.2824
 6970TIP3    H242470   4.474   0.790   2.945 -0.2072  0.2044  0.3847
 6971TIP3   OH242471   4.415   0.667   8.163  0.0211 -0.2466 -0.5127
 6971TIP3    H142472   4.339   0.724   8.178  0.8117  0.8655 -0.5377
 6971TIP3    H242473   4.488   0.715   8.203  1.0962 -0.2135 -2.3800
 6972TIP3   OH242474   2.543   6.281   6.795  0.3435 -0.3584 -0.0266
 6972TIP3    H142475   2.474   6.330   6.839 -0.5227 -1.2313 -0.3818
 6972TIP3    H242476   2.499   6.204   6.758  0.9135  0.5185 -2.7791
 6973TIP3   OH242477   0.558   5.157   0.707  0.0556 -0.0986  0.0682
 6973TIP3    H142478   0.521   5.133   0.792  0.3783 -0.2925  0.1572
 6973TIP3    H242479   0.606   5.079   0.679  1.0896  0.4213  0.3411
 6974TIP3   OH242480   3.931   6.544   2.198  0.5328  0.0609 -0.7332
 6974TIP3    H142481   3.992   6.611   2.167  0.6478  0.8355  1.0527
 6974TIP3    H242482   3.859   6.593   2.238  0.3026 -0.8743  0.0375
 6975TIP3   OH242483   3.814   5.969   1.926 -0.6397  0.1270 -0.1232
 6975TIP3    H142484   3.756   5.933   1.993 -0.0357 -1.9335 -0.6377
 6975TIP3    H242485   3.902   5.960   1.963 -0.2861 -1.1678 -1.1846
 6976TIP3   OH242486   5.961   6.805   2.255  0.2875  0.2718  0.8819
 6976TIP3    H142487   5.962   6.780   2.162  0.3384  1.1418  0.6400
 6976TIP3    H242488   5.872   6.784   2.284 -0.2727  1.5417  0.1797
 6977TIP3   OH242489   4.347   4.387   1.912  0.5662 -0.4566 -0.5151
 6977TIP3    H142490   4.436   4.358   1.931  0.7037 -1.0054 -1.8539
 6977TIP3    H242491   4.291   4.327   1.961  0.8976  0.9043  1.6784
 6978TIP3   OH242492   2.840   0.593   3.013  0.3379 -0.1866  0.1620
 6978TIP3    H142493   2.920   0.545   3.033 -0.1620 -1.1072 -0.0214
 6978TIP3    H242494   2.769   0.537   3.045 -0.2087  1.2657  1.6926
 6979TIP3   OH242495   1.656   5.004   2.335 -0.5116 -0.3231 -0.3044
 6979TIP3    H142496   1.722   5.014   2.404 -0.9535  0.1989  0.0520
 6979TIP3    H242497   1.580   5.054   2.367 -0.6106  0.1880 -1.3136
 6980TIP3   OH242498   1.010   1.754   8.290  0.0669 -0.0494  0.9481
 6980TIP3    H142499   1.095   1.738   8.330 -0.0482 -0.6009  0.9738
 6980TIP3    H242500   0.957   1.792   8.361  0.2538  0.1914  0.9616
 6981TIP3   OH242501   2.303   1.306   2.794  0.8503  0.3633  0.0709
 6981TIP3    H142502   2.276   1.380   2.848 -2.6456  0.0217 -0.9182
 6981TIP3    H242503   2.286   1.229   2.848  0.6875  0.1630 -0.2596
 6982TIP3   OH242504   6.250   0.539   7.512  0.0371 -0.2762 -0.6760
 6982TIP3    H142505   6.292   0.511   7.431 -2.9300 -2.4586 -1.6623
 6982TIP3    H242506   6.175   0.592   7.483 -1.5402 -1.7450  0.4893
 6983TIP3   OH242507   1.974   6.212   0.872  0.2959 -0.0497 -0.1414
 6983TIP3    H142508   2.034   6.140   0.891 -0.9797 -0.6330  1.9844
 6983TIP3    H242509   2.027   6.291   0.884  0.9009 -0.5750  0.7364
 6984TIP3   OH242510   4.619   3.043   0.791 -0.3638 -0.3457  0.0399
 6984TIP3    H142511   4.598   2.960   0.834  1.1124 -0.3946  0.7383
 6984TIP3    H242512   4.711   3.058   0.812 -0.6297  1.5342  0.0433
 6985TIP3   OH242513   1.223   0.764   8.593 -0.6777  0.4958 -0.6246
 6985TIP3    H142514   1.284   0.695   8.619 -1.1874 -0.3347 -1.6061
 6985TIP3    H242515   1.164   0.774   8.668 -1.5497 -1.2121 -1.0523
 6986TIP3   OH242516   3.331   6.178   7.399 -0.0517  0.8418 -0.3550
 6986TIP3    H142517   3.267   6.133   7.453 -1.6076  1.9788 -1.1689
 6986TIP3    H242518   3.395   6.111   7.376 -0.5898 -0.1755  1.0192
 6987TIP3   OH242519   2.772   0.085   8.213  0.2948  0.2938 -0.3839
 6987TIP3    H142520   2.770   0.126   8.127 -0.9643  1.4798  0.1872
 6987TIP3    H242521   2.740  -0.004   8.198 -0.9917  0.8398 -0.9822
 6988TIP3   OH242522   1.407   4.077   0.396  0.2630  0.2238  0.1770
 6988TIP3    H142523   1.492   4.118   0.416 -0.0032  1.4096 -0.9618
 6988TIP3    H242524   1.376   4.124   0.319 -0.3785 -1.7487 -0.8281
 6989TIP3   OH242525   5.424   2.261   0.404  0.1365 -0.3304  0.3191
 6989TIP3    H142526   5.462   2.315   0.335 -2.0738 -1.2891 -1.8244
 6989TIP3    H242527   5.417   2.174   0.365 -1.1696 -0.9305  1.7711
 6990TIP3   OH242528   1.233   3.395   0.473  0.2425 -0.7193 -0.2269
 6990TIP3    H142529   1.293   3.442   0.416  1.2684 -0.4429  1.0270
 6990TIP3    H242530   1.241   3.304   0.446  2.1062 -0.8560  0.6080
 6991TIP3   OH242531   3.099   2.342   7.363 -0.2484 -0.3010  0.3871
 6991TIP3    H142532   3.137   2.338   7.450  1.2771 -3.2126 -0.2953
 6991TIP3    H242533   3.019   2.289   7.370  0.4044 -1.3875 -0.1731
 6992TIP3   OH242534   5.615   6.697   1.236 -0.3036 -0.2887 -0.4267
 6992TIP3    H142535   5.669   6.679   1.159 -0.0133  0.0965 -0.3168
 6992TIP3    H242536   5.527   6.712   1.200  0.1990  1.8575 -0.9161
 6993TIP3   OH242537   5.620   3.957   1.976  0.3728  0.1959 -0.0068
 6993TIP3    H142538   5.639   3.960   2.070 -2.7807  0.3367  0.7161
 6993TIP3    H242539   5.689   3.901   1.940  0.2827 -1.9622  2.7958
 6994TIP3   OH242540   2.514   6.496   3.099 -0.6988 -0.1044  0.0476
 6994TIP3    H142541   2.476   6.453   3.022 -3.0569  0.3824  0.8474
 6994TIP3    H242542   2.597   6.452   3.113 -1.4457 -2.0289 -1.1989
 6995TIP3   OH242543   1.979   4.804   0.338 -0.4086  0.2836  0.5842
 6995TIP3    H142544   2.039   4.774   0.270 -2.3425 -3.3053  0.2342
 6995TIP3    H242545   1.959   4.894   0.313  1.0210 -0.0121 -2.0671
 6996TIP3   OH242546   6.276   2.350   2.849 -0.2568 -0.3395  0.1735
 6996TIP3    H142547   6.245   2.328   2.937 -1.0056  0.5185  0.1456
 6996TIP3    H242548   6.228   2.430   2.827 -0.2449 -0.6706 -1.1135
 6997TIP3   OH242549   3.361   0.831   1.592 -0.0073  0.4872  0.2888
 6997TIP3    H142550   3.349   0.767   1.521 -0.4443 -1.0299  1.6700
 6997TIP3    H242551   3.336   0.784   1.671  3.5375  1.0082  1.9133
 6998TIP3   OH242552   5.954   2.630   1.740  0.0256 -1.1345  0.6821
 6998TIP3    H142553   5.940   2.724   1.747 -0.4682 -0.9369 -1.9863
 6998TIP3    H242554   6.045   2.617   1.767  0.4773  0.2933 -0.0644
 6999TIP3   OH242555   0.663   1.015   1.507 -0.5328  0.3386 -0.3096
 6999TIP3    H142556   0.673   1.103   1.544 -0.1451  0.6058 -1.0359
 6999TIP3    H242557   0.577   0.986   1.539 -1.1228  1.3822 -0.8869
 7000TIP3   OH242558   0.878   0.094   0.492 -0.2271 -0.3465  0.6338
 7000TIP3    H142559   0.936   0.137   0.556 -0.7128 -0.5085  1.1910
 7000TIP3    H242560   0.873   0.003   0.523 -0.6524 -0.3677  0.4974
 7001TIP3   OH242561   0.225   6.334   0.821  0.3071 -0.3151  0.5631
 7001TIP3    H142562   0.199   6.257   0.769 -1.9524  0.0091  1.1150
 7001TIP3    H242563   0.183   6.408   0.778 -0.5364  0.1301  2.0889
 7002TIP3   OH242564   5.449   1.313   8.567 -0.2523 -0.1073 -0.7951
 7002TIP3    H142565   5.482   1.242   8.621 -0.2694  0.0202 -0.6160
 7002TIP3    H242566   5.486   1.392   8.606  2.1308 -0.1765 -2.6748
 7003TIP3   OH242567   4.767   0.684   1.667 -0.2340  0.7013  0.1424
 7003TIP3    H142568   4.731   0.741   1.599  0.9738  1.4324  0.0868
 7003TIP3    H242569   4.790   0.603   1.621 -1.3577  0.3749  0.1025
 7004TIP3   OH242570   4.552   5.652   1.057  0.4429 -0.2284 -0.3403
 7004TIP3    H142571   4.487   5.638   0.988  0.0228  1.1869 -0.2633
 7004TIP3    H242572   4.540   5.744   1.083 -0.4047 -1.0912  2.6513
 7005TIP3   OH242573   6.724   2.315   0.869 -0.3387  0.3835  0.2164
 7005TIP3    H142574   6.716   2.408   0.845  1.1506  0.6234  0.5818
 7005TIP3    H242575   6.698   2.268   0.790  1.2923  1.1452 -0.8277
 7006TIP3   OH242576   1.743   5.825   1.250  1.2766 -0.2331  0.1155
 7006TIP3    H142577   1.753   5.772   1.171  1.5639 -1.4773  0.9518
 7006TIP3    H242578   1.831   5.853   1.272  1.3781 -0.9588  0.6839
 7007TIP3   OH242579   2.410   2.459   1.278 -0.3580 -0.0283 -0.3870
 7007TIP3    H142580   2.500   2.490   1.289 -1.0772  1.8290  0.9327
 7007TIP3    H242581   2.357   2.540   1.279 -1.9151 -0.8818 -3.1011
 7008TIP3   OH242582   2.799   4.669   8.444 -0.5700 -0.2780 -0.0534
 7008TIP3    H142583   2.753   4.607   8.501 -0.3773  0.8070  1.3422
 7008TIP3    H242584   2.860   4.714   8.502 -0.7732  1.2743 -0.9855
 7009TIP3   OH242585   2.637   0.309   2.152  0.1748  0.1384  0.7320
 7009TIP3    H142586   2.569   0.256   2.110  1.4254  0.8578 -2.4954
 7009TIP3    H242587   2.704   0.246   2.177  1.1004 -0.0879 -1.9651
 7010TIP3   OH242588   0.628   5.414   1.697 -0.0235 -0.1205  0.3232
 7010TIP3    H142589   0.578   5.453   1.625 -0.3460 -0.2920  0.4514
 7010TIP3    H242590   0.571   5.424   1.774  0.0466 -0.5136  0.4281
 7011TIP3   OH242591   3.825   2.353   1.591 -0.1225 -0.1070  0.0449
 7011TIP3    H142592   3.866   2.280   1.637  0.5459  0.8114  0.9409
 7011TIP3    H242593   3.795   2.315   1.508  1.2494 -1.1485 -0.0108
 7012TIP3   OH242594   5.116   3.960   0.476 -0.5971 -0.0249 -0.0381
 7012TIP3    H142595   5.093   3.941   0.567 -0.8094 -1.1429 -0.3098
 7012TIP3    H242596   5.113   4.055   0.470 -2.3121  0.0097  0.6981
 7013TIP3   OH242597   0.826   1.315   0.118  0.1096  0.1075 -0.8554
 7013TIP3    H142598   0.876   1.370   0.177 -0.7618  0.7563 -0.6976
 7013TIP3    H242599   0.857   1.226   0.135  0.3063  0.3571  0.1202
 7014TIP3   OH242600   5.306   5.495   7.831  0.3109  0.0606  0.1903
 7014TIP3    H142601   5.331   5.434   7.762  0.2773 -0.6001  0.7547
 7014TIP3    H242602   5.386   5.545   7.848  0.3667  0.1111 -0.2042
 7015TIP3   OH242603   3.644   2.583   1.684  0.5087  0.1118  0.1423
 7015TIP3    H142604   3.703   2.603   1.756  0.7101 -0.1500  0.0543
 7015TIP3    H242605   3.691   2.517   1.632  0.0820 -0.2041  0.1488
 7016TIP3   OH242606   3.590   1.350   2.601  0.3523  0.4048 -0.5098
 7016TIP3    H142607   3.624   1.417   2.662  1.4661 -1.4565  1.0416
 7016TIP3    H242608   3.511   1.318   2.643  0.6184 -0.2489 -0.5010
 7017TIP3   OH242609   2.842   1.797   0.582  0.1118 -0.0399 -0.6090
 7017TIP3    H142610   2.780   1.731   0.615 -1.9367  0.2581 -3.4797
 7017TIP3    H242611   2.802   1.880   0.607 -0.3415  0.1479 -1.9176
 7018TIP3   OH242612   4.534   4.325   2.602 -0.2688 -0.9153  0.2774
 7018TIP3    H142613   4.606   4.377   2.566 -0.8286  0.6207  1.3066
 7018TIP3    H242614   4.457   4.381   2.593 -0.8588 -1.4999  1.5478
 7019TIP3   OH242615   2.254   6.476   1.788  0.0944 -0.0658 -0.5148
 7019TIP3    H142616   2.313   6.551   1.789 -0.6421  0.5412 -1.0377
 7019TIP3    H242617   2.311   6.400   1.777  1.1492  0.0983  2.6027
 7020TIP3   OH242618   5.386   2.447   2.829 -0.3334 -0.9453 -0.7349
 7020TIP3    H142619   5.416   2.357   2.824  0.5045 -0.8018  1.1505
 7020TIP3    H242620   5.292   2.441   2.849 -0.4526 -1.3762 -1.4017
 7021TIP3   OH242621   0.373   6.495   1.938 -0.3941  0.2391 -0.2128
 7021TIP3    H142622   0.396   6.584   1.965  3.1972  0.4376 -3.0970
 7021TIP3    H242623   0.438   6.440   1.982 -0.6696 -0.5547 -0.7813
 7022TIP3   OH242624   2.073   5.653   8.162  0.1086 -0.1633 -0.3513
 7022TIP3    H142625   2.052   5.737   8.121  3.1453  0.4313 -0.9547
 7022TIP3    H242626   2.077   5.672   8.256  1.9474  0.7598 -0.5604
 7023TIP3   OH242627   5.895   6.025   7.218  0.1935 -1.0179 -0.3887
 7023TIP3    H142628   5.927   6.009   7.130 -1.7515 -0.4295 -1.2571
 7023TIP3    H242629   5.813   5.974   7.224 -1.6916  1.8017 -0.3097
 7024TIP3   OH242630   3.067   2.750   6.965 -0.1522 -0.4997  0.1366
 7024TIP3    H142631   3.140   2.788   7.015 -1.2927 -0.1675  1.5879
 7024TIP3    H242632   3.082   2.656   6.968  0.4269 -0.4126  0.0921
 7025TIP3   OH242633   6.312   4.210   0.839  0.0566  0.0446  0.5844
 7025TIP3    H142634   6.352   4.197   0.752 -1.4181 -0.2788 -0.0813
 7025TIP3    H242635   6.258   4.132   0.851 -1.2578  0.9869  0.9351
 7026TIP3   OH242636   5.008   1.540   1.798 -0.2291 -0.1574 -0.2617
 7026TIP3    H142637   5.060   1.590   1.735  1.0165 -1.7164 -0.5581
 7026TIP3    H242638   4.949   1.488   1.744 -1.0328  0.4579  0.0078
 7027TIP3   OH242639   0.503   5.292   6.704  0.7640 -0.6021  0.0701
 7027TIP3    H142640   0.410   5.317   6.704  0.3124 -2.1685 -1.0903
 7027TIP3    H242641   0.549   5.374   6.690 -0.3286  0.4684  2.1572
 7028TIP3   OH242642   6.461   1.142   0.320  0.2464  0.1421  0.3966
 7028TIP3    H142643   6.533   1.200   0.297  0.3376  0.4572  1.4104
 7028TIP3    H242644   6.425   1.114   0.237  1.2906  0.2933 -0.1289
 7029TIP3   OH242645   5.355   5.831   0.023 -0.1509 -0.2702  0.2574
 7029TIP3    H142646   5.380   5.862   0.109  2.4167 -2.4414  0.4411
 7029TIP3    H242647   5.262   5.812   0.030  0.0066 -0.4482  2.5936
 7030TIP3   OH242648   5.530   5.398   8.156 -0.2764 -0.4380  0.1275
 7030TIP3    H142649   5.449   5.370   8.113  0.8699 -0.0839 -2.4565
 7030TIP3    H242650   5.598   5.381   8.091  1.4748  1.1681  1.4450
 7031TIP3   OH242651   4.893   0.714   0.850 -0.4857 -0.0909 -0.5927
 7031TIP3    H142652   4.971   0.666   0.821 -0.6963 -0.6976 -0.1846
 7031TIP3    H242653   4.880   0.781   0.783  0.4004  0.0386 -0.6561
 7032TIP3   OH242654   2.526   6.560   1.585 -0.2181  0.1986 -0.4967
 7032TIP3    H142655   2.545   6.468   1.569 -1.2484  0.1954 -1.8913
 7032TIP3    H242656   2.597   6.590   1.641  0.5718 -1.2372 -0.6902
 7033TIP3   OH242657   0.187   5.798   0.327 -0.3039  0.3100 -0.2771
 7033TIP3    H142658   0.137   5.877   0.303 -0.0367 -0.3362 -3.3292
 7033TIP3    H242659   0.278   5.829   0.334 -0.3784  0.5132 -0.2013
 7034TIP3   OH242660   3.482   2.953   0.672  0.1580  0.8300  0.1579
 7034TIP3    H142661   3.446   2.932   0.758  0.6531 -0.0165  0.1749
 7034TIP3    H242662   3.452   2.881   0.616 -0.7923  1.7648 -0.5619
 7035TIP3   OH242663   3.946   3.650   8.536 -0.5312  0.3734  0.0110
 7035TIP3    H142664   3.917   3.657   8.626  1.3494 -0.1098  0.6986
 7035TIP3    H242665   4.041   3.653   8.541 -0.3598 -0.3895 -1.8796
 7036TIP3   OH242666   5.287   0.279   0.565 -0.4565 -0.5725 -0.1547
 7036TIP3    H142667   5.206   0.294   0.614 -0.1111  0.9973 -0.0137
 7036TIP3    H242668   5.300   0.359   0.514  0.4938 -1.1955 -0.9234
 7037TIP3   OH242669   5.283   6.844   0.524 -0.3129 -0.0622 -0.0927
 7037TIP3    H142670   5.287   6.896   0.444  0.4929  1.7228  1.0583
 7037TIP3    H242671   5.243   6.902   0.588 -0.6814 -1.3677  0.9001
 7038TIP3   OH242672   3.770   1.739   8.113 -0.1662  0.3604  0.2678
 7038TIP3    H142673   3.721   1.820   8.128  0.2871  0.8936 -1.0029
 7038TIP3    H242674   3.835   1.763   8.047  0.7374 -0.7531  0.7328
 7039TIP3   OH242675   0.254   2.983   0.738 -0.6976  0.3102 -0.7480
 7039TIP3    H142676   0.335   3.010   0.695  0.0688 -1.7127 -0.7302
 7039TIP3    H242677   0.228   3.057   0.792  1.7218  0.6707  0.0149
 7040TIP3   OH242678   5.812   0.273   7.629 -0.3309  0.8048 -0.5647
 7040TIP3    H142679   5.855   0.358   7.619 -0.9413  1.1788 -0.0766
 7040TIP3    H242680   5.867   0.212   7.580  1.5343  1.0176  1.1576
 7041TIP3   OH242681   5.048   2.509   0.018 -0.4016  0.2740  0.3737
 7041TIP3    H142682   4.965   2.533   0.058 -1.2979 -2.9391  0.6694
 7041TIP3    H242683   5.114   2.557   0.069 -1.8842  0.7752  1.8939
 7042TIP3   OH242684   4.619   4.876   2.445 -0.0431 -0.7604 -0.2838
 7042TIP3    H142685   4.704   4.831   2.448  0.5941  0.3356 -1.2360
 7042TIP3    H242686   4.577   4.841   2.367  0.8234  0.8671 -1.5350
 7043TIP3   OH242687   0.944   1.868   7.781 -0.2410  0.5351  0.1224
 7043TIP3    H142688   0.859   1.911   7.784  0.1898  1.3767  0.7707
 7043TIP3    H242689   0.954   1.828   7.868 -0.5584 -0.7572 -0.4118
 7044TIP3   OH242690   3.464   6.264   0.190 -0.1828  0.3163  0.0772
 7044TIP3    H142691   3.523   6.304   0.254  0.6993 -1.4976  0.4855
 7044TIP3    H242692   3.467   6.323   0.114  0.2604  1.5062  0.9871
 7045TIP3   OH242693   4.037   4.764   2.294 -0.7463  0.3906  0.3226
 7045TIP3    H142694   4.069   4.854   2.284  1.8679 -0.4335  0.4724
 7045TIP3    H242695   3.957   4.761   2.241  0.0054  2.3768 -1.0570
 7046TIP3   OH242696   6.197   4.099   6.945  0.0415 -0.4262 -0.0733
 7046TIP3    H142697   6.151   4.022   6.911 -2.4119  0.6966  0.5194
 7046TIP3    H242698   6.167   4.171   6.889 -0.3710  0.6500  1.4705
 7047TIP3   OH242699   0.041   0.852   0.545  0.1432 -0.4133 -0.0973
 7047TIP3    H142700  -0.006   0.776   0.510  1.3489  0.0622 -3.0758
 7047TIP3    H242701  -0.017   0.926   0.528  0.3205 -0.2929 -0.1833
 7048TIP3   OH242702   0.650   1.846   0.101 -0.3780 -0.0070  0.8811
 7048TIP3    H142703   0.615   1.928   0.135 -0.5704  0.2279  0.1185
 7048TIP3    H242704   0.575   1.802   0.061  0.5990  1.7990 -3.4059
 7049TIP3   OH242705   5.344   4.007   7.767  0.3473 -0.4182  0.2893
 7049TIP3    H142706   5.363   4.089   7.813  1.6007 -1.0210  0.8919
 7049TIP3    H242707   5.398   4.010   7.689  0.7086 -0.8537  0.5215
 7050TIP3   OH242708   5.502   6.045   1.407  0.0850  0.3410  0.1077
 7050TIP3    H142709   5.516   6.073   1.317 -1.3411  1.3325  0.1461
 7050TIP3    H242710   5.589   6.036   1.444  0.7015 -0.5121 -1.4808
 7051TIP3   OH242711   2.644   0.332   2.745 -0.1327  0.1481  0.0118
 7051TIP3    H142712   2.570   0.389   2.725 -1.2748 -0.6423  1.7668
 7051TIP3    H242713   2.679   0.307   2.660 -1.8768  0.5777 -0.8730
 7052TIP3   OH242714   6.370   2.018   0.407 -0.2758  0.0849  0.2577
 7052TIP3    H142715   6.395   1.926   0.417  0.7816  0.3756  0.3923
 7052TIP3    H242716   6.316   2.037   0.483 -1.0905 -0.6084 -0.1273
 7053TIP3   OH242717   3.723   4.411   7.067 -0.3020 -0.1101  0.2252
 7053TIP3    H142718   3.726   4.506   7.055 -0.7758 -0.2671 -1.3423
 7053TIP3    H242719   3.633   4.393   7.095 -0.8685 -0.2794 -1.5907
 7054TIP3   OH242720   5.251   6.507   0.775  0.1945 -0.2862  0.7097
 7054TIP3    H142721   5.254   6.412   0.780 -1.9320 -0.4988 -0.6492
 7054TIP3    H242722   5.321   6.529   0.714  0.2512 -1.0552  0.4826
 7055TIP3   OH242723   0.697   4.358   2.085 -0.0081  0.4147  0.2377
 7055TIP3    H142724   0.756   4.426   2.117  1.6572 -0.8919  0.0931
 7055TIP3    H242725   0.692   4.295   2.157  2.5040 -1.7596 -1.3105
 7056TIP3   OH242726   6.326   5.167   0.853 -0.2101  0.2305 -0.6023
 7056TIP3    H142727   6.418   5.180   0.829 -0.4126  0.4082 -1.3053
 7056TIP3    H242728   6.277   5.208   0.782 -0.8700  3.4786  1.5070
 7057TIP3   OH242729   4.659   0.600   0.205 -0.4278 -0.3325 -0.1022
 7057TIP3    H142730   4.648   0.664   0.134 -0.1447 -1.2025 -0.9428
 7057TIP3    H242731   4.587   0.619   0.265  1.5040  3.0142  1.4697
 7058TIP3   OH242732   1.832   0.574   8.071  0.2049  0.7727  0.6855
 7058TIP3    H142733   1.888   0.619   8.008 -0.9435  0.9140 -0.2837
 7058TIP3    H242734   1.791   0.504   8.020  1.2126 -0.7776  1.9275
 7059TIP3   OH242735   3.729   1.750   7.630  0.2269 -0.7625 -0.0215
 7059TIP3    H142736   3.645   1.765   7.673 -0.1834 -1.3719 -0.6136
 7059TIP3    H242737   3.757   1.664   7.661 -0.0505 -1.1857 -0.9492
 7060TIP3   OH242738   4.594   6.757   2.993  0.2833 -0.2407  0.6760
 7060TIP3    H142739   4.627   6.847   2.994  2.3789 -0.9261 -0.4566
 7060TIP3    H242740   4.541   6.750   3.073  0.2973  1.9000  0.9187
 7061TIP3   OH242741   6.584   4.408   1.049 -0.1378  0.0631 -0.3198
 7061TIP3    H142742   6.553   4.330   1.094  0.3676  1.3306  2.4653
 7061TIP3    H242743   6.518   4.426   0.982 -2.6675 -0.2749  1.9354
 7062TIP3   OH242744   2.897   5.807   7.796 -0.1668  0.1984 -0.2177
 7062TIP3    H142745   2.934   5.808   7.708  0.8609 -1.1444  0.1595
 7062TIP3    H242746   2.832   5.877   7.796  1.3408  1.6729 -1.3668
 7063TIP3   OH242747   2.267   4.586   7.026 -0.3168  0.0466 -0.3745
 7063TIP3    H142748   2.241   4.572   6.935  1.2186  0.7450 -0.9544
 7063TIP3    H242749   2.263   4.681   7.038  0.8636  0.0890 -0.1675
 7064LIG     O142750   5.360   5.438   4.317  0.9223 -0.1864 -0.0039
 7064LIG     O242751   5.218   5.431   3.886 -0.3910  0.5518 -0.4029
 7064LIG     N142752   5.243   5.229   3.982 -0.0426  0.2434  0.0864
 7064LIG     N242753   5.371   5.131   4.297  0.9730 -0.2599 -0.3485
 7064LIG     N342754   5.310   5.433   4.097 -1.0553  0.1038 -0.7532
 7064LIG     N442755   5.296   5.028   4.114 -0.3432 -0.4141  0.3258
 7064LIG     C142756   5.334   5.232   4.213  0.3743  0.4917  0.4606
 7064LIG     C242757   5.291   5.165   4.097 -0.0366  0.0870  0.5270
 7064LIG     C342758   5.340   5.371   4.219 -0.2129  0.5095  0.2130
 7064LIG     C442759   5.249   5.369   3.986  0.4400  0.4149 -0.0824
 7064LIG     C542760   5.343   5.014   4.235 -0.8611 -0.3435  0.6725
 7064LIG     C642761   5.183   5.157   3.866 -0.5556 -0.5100 -0.3026
 7064LIG     C742762   5.433   5.159   4.427 -0.1638  0.3649 -0.1440
 7064LIG     C842763   5.316   5.576   4.102  0.2464 -0.9038 -0.5379
 7064LIG     H142764   5.356   4.924   4.296 -0.4436 -1.0055 -0.3718
 7064LIG     H242765   5.224   5.191   3.769  0.8417 -0.3942  0.3044
 7064LIG     H342766   5.078   5.193   3.863 -0.7450 -1.0503 -0.3146
 7064LIG     H442767   5.186   5.046   3.873  2.1305 -0.4250  1.4439
 7064LIG     H542768   5.439   5.065   4.486 -0.8364  0.2844 -0.1964
 7064LIG     H642769   5.356   5.216   4.484 -0.2467  0.6203 -0.5094
 7064LIG     H742770   5.530   5.212   4.416 -2.0705  4.3870  0.6415
 7064LIG     H842771   5.344   5.625   4.006  0.5159 -0.1086 -0.0614
 7064LIG     H942772   5.393   5.627   4.164 -0.6278  0.9000 -0.8455
 7064LIG    H1042773   5.220   5.627   4.127  0.9946 -1.0458  3.3322
   6.88270   6.88270   8.61984
