Title
42773
    1SAPS     N    1   1.333   3.354   6.978 -0.0742  0.1590  0.3472
    1SAPS   HN1    2   1.412   3.417   6.952 -0.5286  0.1362 -1.1978
    1SAPS   HN2    3   1.342   3.259   6.936 -1.8924  0.0123  0.2109
    1SAPS   HN3    4   1.244   3.393   6.940 -0.1091 -0.7841 -0.5646
    1SAPS   C12    5   1.314   3.337   7.126  0.6851  0.0394  0.0493
    1SAPS  H12A    6   1.404   3.286   7.160  2.0210  0.7260 -2.1872
    1SAPS   C13    7   1.293   3.472   7.201  0.8027 -0.4489  0.1540
    1SAPS  O13A    8   1.311   3.584   7.147 -0.1216 -0.0214  0.3431
    1SAPS  O13B    9   1.254   3.450   7.315 -0.3888 -0.3752  0.0260
    1SAPS   C11   10   1.189   3.251   7.148  0.2193 -0.1290  0.0763
    1SAPS  H11A   11   1.105   3.310   7.106  0.8616 -0.7673 -2.2273
    1SAPS  H11B   12   1.167   3.241   7.257 -3.9793  0.1056 -0.5980
    1SAPS     P   13   1.077   3.031   7.073  0.0814  0.1761  0.1027
    1SAPS   O13   14   1.135   2.895   7.091  0.3075  0.1467  0.4050
    1SAPS   O14   15   0.965   3.066   7.161  0.7210 -0.1094 -0.5991
    1SAPS   O12   16   1.195   3.132   7.078 -0.0835 -0.4416  0.3257
    1SAPS   O11   17   1.048   3.040   6.921  0.3957  0.1705 -0.3115
    1SAPS    C1   18   0.954   2.951   6.859 -0.0088  0.5087  0.8497
    1SAPS    HA   19   1.010   2.862   6.823  0.7959  0.6183  1.7940
    1SAPS    HB   20   0.874   2.915   6.927 -2.9807  3.5259 -0.7324
    1SAPS    C2   21   0.882   3.029   6.742  0.3232 -0.3884  0.4248
    1SAPS    HS   22   0.826   2.954   6.683  1.8873  0.8763 -2.9868
    1SAPS   O21   23   0.970   3.093   6.648  0.1127  0.2146 -0.4535
    1SAPS   C21   24   0.925   3.081   6.526 -0.0176  0.2735  0.4346
    1SAPS   O22   25   0.811   3.063   6.493  0.1190 -0.1400  0.3505
    1SAPS   C22   26   1.041   3.101   6.433 -0.2178  0.4942  0.1090
    1SAPS   H2R   27   1.041   3.199   6.381  1.1023 -0.0689 -1.0245
    1SAPS   H2S   28   1.127   3.120   6.501 -1.0431 -0.2553  1.4076
    1SAPS    C3   29   0.783   3.133   6.817  0.7632 -0.0987 -0.2690
    1SAPS    HX   30   0.846   3.194   6.885  0.5016  1.6846 -1.5526
    1SAPS    HY   31   0.712   3.065   6.869 -0.6679  0.3240 -1.6127
    1SAPS   O31   32   0.701   3.214   6.727  0.6685  0.0762 -0.6269
    1SAPS   C31   33   0.755   3.326   6.679 -0.0389 -0.5459  0.4284
    1SAPS   O32   34   0.874   3.348   6.686  0.1269  0.0680 -0.0886
    1SAPS   C32   35   0.653   3.409   6.605 -0.1407 -0.1825 -0.1156
    1SAPS   H2X   36   0.676   3.513   6.636  0.0138 -1.0006  2.8329
    1SAPS   H2Y   37   0.557   3.369   6.644 -0.3216  0.5320  0.1801
    1SAPS   C23   38   1.064   2.983   6.333  1.7030 -0.1497  0.3737
    1SAPS   H3R   39   0.971   2.967   6.275  0.8702 -1.5236  1.9798
    1SAPS   H3S   40   1.073   2.879   6.372  1.7148 -0.8070 -1.3036
    1SAPS   C24   41   1.175   3.008   6.231 -1.5224  0.5198 -0.4227
    1SAPS   H4R   42   1.172   3.111   6.188 -1.7227  1.0516  0.8178
    1SAPS   H4S   43   1.168   2.933   6.149  1.6322 -1.2187  0.7149
    1SAPS   C25   44   1.308   3.001   6.306 -0.1742 -0.1387 -0.1798
    1SAPS   H5R   45   1.311   3.069   6.392 -1.9344  1.1871 -1.1003
    1SAPS   C26   46   1.414   2.923   6.281 -0.5202  0.7025  0.0281
    1SAPS   H6R   47   1.505   2.929   6.343  0.6439  0.1698 -1.5769
    1SAPS   C27   48   1.423   2.817   6.173 -0.7622 -0.2222  0.3203
    1SAPS   H7R   49   1.471   2.871   6.088 -1.4397 -0.9101 -0.5076
    1SAPS   H7S   50   1.329   2.781   6.127  0.1530 -1.5912 -0.5366
    1SAPS   C28   51   1.507   2.693   6.220 -0.4168  0.8760  0.2046
    1SAPS   H8R   52   1.543   2.690   6.324  1.4603 -1.2553 -0.4326
    1SAPS   C29   53   1.542   2.582   6.146 -0.7986 -0.9350  0.2612
    1SAPS   H9R   54   1.592   2.504   6.205 -0.0513  1.5913  3.2699
    1SAPS  C210   55   1.508   2.567   6.001  0.2730 -1.0222  0.1661
    1SAPS  H10R   56   1.585   2.624   5.945  0.1317  1.3555  2.2388
    1SAPS  H10S   57   1.416   2.625   5.979  2.0721  1.2420 -1.9357
    1SAPS  C211   58   1.489   2.422   5.957  0.2439 -0.2561  0.3828
    1SAPS  H11R   59   1.442   2.346   6.021  1.6504 -1.9399 -0.5202
    1SAPS  C212   60   1.497   2.386   5.828  0.3184 -0.2183 -0.9251
    1SAPS  H12R   61   1.471   2.280   5.813 -2.6263  0.4696 -1.2269
    1SAPS  C213   62   1.524   2.463   5.702 -0.2039 -0.0031 -0.1148
    1SAPS  H13R   63   1.530   2.570   5.732 -1.4108 -0.2583  1.1861
    1SAPS  H13S   64   1.427   2.456   5.649  0.1819 -1.0648 -0.6982
    1SAPS  C214   65   1.636   2.404   5.621  0.1821  0.0039  0.7027
    1SAPS  H14R   66   1.694   2.330   5.678  0.0001 -0.6364  0.0603
    1SAPS  C215   67   1.688   2.454   5.502  0.0224  0.6077  0.5728
    1SAPS  H15R   68   1.783   2.418   5.460 -1.2351 -0.8074 -1.2516
    1SAPS  C216   69   1.611   2.546   5.418  0.3319  0.2263  0.2356
    1SAPS  H16R   70   1.682   2.622   5.379  0.3864 -0.6425 -1.4411
    1SAPS  H16S   71   1.530   2.586   5.484 -3.2189 -4.2430 -0.9144
    1SAPS  C217   72   1.539   2.476   5.300  0.3098  0.9143  0.4794
    1SAPS  H17R   73   1.469   2.555   5.265 -2.5743 -1.3986  0.6196
    1SAPS  H17S   74   1.469   2.397   5.334 -1.0017  1.5472 -0.6414
    1SAPS  C218   75   1.625   2.430   5.182  0.1822 -0.0601 -0.0674
    1SAPS  H18R   76   1.684   2.348   5.226 -1.1832  0.0804  2.1839
    1SAPS  H18S   77   1.680   2.522   5.153 -0.9936  0.8202  0.3656
    1SAPS  C219   78   1.535   2.376   5.062 -0.5692 -0.1530 -0.9884
    1SAPS  H19R   79   1.471   2.298   5.107 -2.0744  0.4623 -1.9765
    1SAPS  H19S   80   1.596   2.332   4.980 -1.0104  0.4202 -1.6340
    1SAPS  C220   81   1.451   2.479   4.994  0.9858 -0.1432  0.7494
    1SAPS  H20R   82   1.521   2.552   4.948  1.3587 -0.8755  0.1268
    1SAPS  H20S   83   1.378   2.531   5.059 -1.6618 -0.5823 -1.6956
    1SAPS  H20T   84   1.392   2.429   4.914  0.2934  0.2390  1.0110
    1SAPS   C33   85   0.652   3.380   6.455  0.4269  0.2781 -0.0447
    1SAPS   H3X   86   0.570   3.433   6.402 -0.7960 -0.5885  0.8881
    1SAPS   H3Y   87   0.639   3.269   6.450 -1.6484  0.5343 -2.0162
    1SAPS   C34   88   0.780   3.409   6.377  0.2346 -0.1313 -0.3337
    1SAPS   H4X   89   0.871   3.373   6.431 -1.4289 -3.3437  0.5766
    1SAPS   H4Y   90   0.781   3.519   6.361  0.6617  0.1902  1.5937
    1SAPS   C35   91   0.791   3.340   6.238  0.2133  0.4326  0.0282
    1SAPS   H5X   92   0.710   3.370   6.168 -0.8058 -2.0015  0.1008
    1SAPS   H5Y   93   0.773   3.235   6.268 -1.2347  0.9244  0.9745
    1SAPS   C36   94   0.929   3.361   6.174 -0.3931 -0.0200  0.1493
    1SAPS   H6X   95   1.006   3.360   6.254  1.2118 -0.5178 -1.3324
    1SAPS   H6Y   96   0.942   3.464   6.134 -0.0954 -0.7211 -1.6623
    1SAPS   C37   97   0.953   3.258   6.068 -0.1945  0.7034 -0.7426
    1SAPS   H7X   98   0.915   3.156   6.092 -0.7034  0.5588 -2.0637
    1SAPS   H7Y   99   1.062   3.239   6.074 -0.7195 -2.6218  0.6649
    1SAPS   C38  100   0.933   3.311   5.930 -0.1072 -0.1772 -0.2491
    1SAPS   H8X  101   0.993   3.404   5.922 -0.7376  0.1993 -0.7581
    1SAPS   H8Y  102   0.824   3.333   5.924  0.0328  0.1909 -2.2353
    1SAPS   C39  103   0.976   3.223   5.814 -0.1521 -0.3221  0.2272
    1SAPS   H9X  104   0.887   3.163   5.786 -1.3942  1.4786  0.1590
    1SAPS   H9Y  105   1.054   3.150   5.844 -1.6134 -1.7372  0.7198
    1SAPS  C310  106   1.017   3.299   5.691 -0.1722  0.2206 -0.4294
    1SAPS  H10X  107   1.118   3.340   5.716  0.5344 -1.6099 -0.1824
    1SAPS  H10Y  108   0.941   3.379   5.677  1.2391  1.7150  0.0522
    1SAPS  C311  109   1.029   3.211   5.560 -0.3676 -0.0016  0.0361
    1SAPS  H11X  110   0.940   3.145   5.564  0.0321 -0.5198  0.4923
    1SAPS  H11Y  111   1.120   3.149   5.567  0.1187  0.6702 -0.2479
    1SAPS  C312  112   1.032   3.294   5.435 -0.3982  0.3874  0.1442
    1SAPS  H12X  113   1.110   3.373   5.448 -1.3952  1.0312  3.2011
    1SAPS  H12Y  114   0.933   3.336   5.406 -1.2763 -1.8936 -0.3133
    1SAPS  C313  115   1.068   3.205   5.315  0.2424 -0.1570 -0.8708
    1SAPS  H13X  116   1.000   3.118   5.307  1.2161 -1.0654  0.4144
    1SAPS  H13Y  117   1.174   3.173   5.320  0.6250  1.2351  1.4921
    1SAPS  C314  118   1.055   3.277   5.180  0.0595 -0.2858 -0.3779
    1SAPS  H14X  119   1.106   3.375   5.181 -0.6234  0.0767 -0.0379
    1SAPS  H14Y  120   0.947   3.301   5.174  0.6318  3.0931  0.7259
    1SAPS  C315  121   1.094   3.187   5.060 -0.1752 -0.0752 -0.0676
    1SAPS  H15X  122   1.014   3.110   5.056 -0.2400  0.0444 -1.4170
    1SAPS  H15Y  123   1.195   3.140   5.066  0.4647  1.4343  2.8723
    1SAPS  C316  124   1.091   3.262   4.931  0.2367  0.6380 -0.1974
    1SAPS  H16X  125   1.152   3.355   4.938  0.4874  0.4382  0.3020
    1SAPS  H16Y  126   0.988   3.301   4.914  1.1892  3.1245 -0.7185
    1SAPS  C317  127   1.138   3.172   4.807 -0.5619  0.0015 -0.3178
    1SAPS  H17X  128   1.089   3.073   4.813 -0.5709  0.0658  0.7412
    1SAPS  H17Y  129   1.247   3.151   4.812 -0.2356  1.6246  0.2391
    1SAPS  C318  130   1.100   3.245   4.673 -0.3884 -0.3013 -0.5099
    1SAPS  H18X  131   1.110   3.354   4.688  1.8864 -0.4464 -0.6153
    1SAPS  H18Y  132   0.992   3.238   4.646 -0.4708 -0.2122 -0.2055
    1SAPS  H18Z  133   1.157   3.211   4.583 -0.1436 -2.1730  0.3005
    2SAPS     N  134   2.963   1.546   7.430 -0.1047 -0.4579 -0.2934
    2SAPS   HN1  135   2.864   1.515   7.430 -1.1365  2.5006  0.6399
    2SAPS   HN2  136   2.973   1.601   7.518  0.8404 -2.2590  0.7931
    2SAPS   HN3  137   2.966   1.617   7.354  1.1035  0.1405  0.2940
    2SAPS   C12  138   3.067   1.436   7.424  0.3576  0.2085  0.0600
    2SAPS  H12A  139   3.087   1.397   7.522  1.4486 -2.4105 -1.0851
    2SAPS   C13  140   3.023   1.315   7.347 -0.3973 -0.2713  0.0720
    2SAPS  O13A  141   2.920   1.322   7.280  0.1508 -0.8516 -0.1420
    2SAPS  O13B  142   3.103   1.215   7.337  0.8649  0.8143  0.7628
    2SAPS   C11  143   3.200   1.488   7.362  0.2323 -0.0249 -0.8865
    2SAPS  H11A  144   3.187   1.500   7.252  1.8129  0.1643 -1.0689
    2SAPS  H11B  145   3.283   1.415   7.367 -0.2777 -0.5782 -0.1625
    2SAPS     P  146   3.377   1.636   7.485 -0.0008 -0.0724  0.3891
    2SAPS   O13  147   3.364   1.754   7.580 -0.1351 -0.0293  0.0614
    2SAPS   O14  148   3.436   1.504   7.529 -0.3337  0.1129  0.8380
    2SAPS   O12  149   3.234   1.619   7.414 -0.5418  0.0546 -0.1537
    2SAPS   O11  150   3.468   1.692   7.366 -0.1392 -0.0083 -0.2380
    2SAPS    C1  151   3.429   1.815   7.302  0.2514  0.9558 -0.5454
    2SAPS    HA  152   3.366   1.874   7.372  0.6760 -0.4292  1.0907
    2SAPS    HB  153   3.524   1.871   7.292  0.4606  1.3101  2.4801
    2SAPS    C2  154   3.363   1.784   7.165 -0.3903 -0.0948 -0.5276
    2SAPS    HS  155   3.265   1.738   7.190 -1.8541  3.4901  1.1951
    2SAPS   O21  156   3.453   1.697   7.092 -0.4224  0.0148  0.0135
    2SAPS   C21  157   3.405   1.595   7.021 -0.0699 -0.4497  0.0960
    2SAPS   O22  158   3.286   1.571   6.991 -0.2764  0.2562 -0.6147
    2SAPS   C22  159   3.524   1.518   6.958 -0.0773  0.0832 -0.4700
    2SAPS   H2R  160   3.614   1.583   6.953 -0.4195  0.8953  2.2038
    2SAPS   H2S  161   3.546   1.433   7.026  0.9586  1.0980  0.5016
    2SAPS    C3  162   3.324   1.906   7.079  0.0194 -0.2335  0.2333
    2SAPS    HX  163   3.418   1.964   7.066  0.2190 -0.6150 -0.0493
    2SAPS    HY  164   3.263   1.973   7.142  1.6676  1.6644 -0.0904
    2SAPS   O31  165   3.271   1.874   6.951  0.0094 -0.1308  0.0203
    2SAPS   C31  166   3.141   1.847   6.939  0.0734  0.0534  0.0034
    2SAPS   O32  167   3.062   1.860   7.030  0.5628  0.5888 -0.2704
    2SAPS   C32  168   3.106   1.799   6.801  0.3740 -0.3887 -1.1074
    2SAPS   H2X  169   3.161   1.703   6.785  2.2064 -0.0012  2.0935
    2SAPS   H2Y  170   3.136   1.872   6.722  0.9571 -0.7830 -1.2597
    2SAPS   C23  171   3.499   1.478   6.810 -0.7890  0.7302 -0.3848
    2SAPS   H3R  172   3.389   1.459   6.808 -0.7040 -0.3520  1.8970
    2SAPS   H3S  173   3.550   1.381   6.795  0.0167  1.2133 -0.8224
    2SAPS   C24  174   3.561   1.580   6.715  0.3436  0.1930 -0.1131
    2SAPS   H4R  175   3.669   1.596   6.735  0.4567 -1.4786  0.7985
    2SAPS   H4S  176   3.518   1.681   6.730  1.8081  0.9264 -0.6337
    2SAPS   C25  177   3.554   1.542   6.570 -0.1491  0.0828 -0.9630
    2SAPS   H5R  178   3.648   1.498   6.532  0.3109 -0.0627  0.2882
    2SAPS   C26  179   3.458   1.562   6.481  0.2202  0.2857  0.3470
    2SAPS   H6R  180   3.470   1.521   6.380  1.1292  2.7778 -0.6381
    2SAPS   C27  181   3.322   1.622   6.512 -0.3603  0.0815 -0.9218
    2SAPS   H7R  182   3.303   1.718   6.459  0.2373  1.1702  0.7299
    2SAPS   H7S  183   3.325   1.656   6.619 -0.6334 -0.3732 -0.7705
    2SAPS   C28  184   3.197   1.530   6.486  0.2140  0.0582  0.0973
    2SAPS   H8R  185   3.154   1.480   6.574 -1.2431  1.1441  0.0449
    2SAPS   C29  186   3.135   1.520   6.364 -0.3708  0.2082 -1.1717
    2SAPS   H9R  187   3.055   1.446   6.354  0.0258 -0.2931 -0.6699
    2SAPS  C210  188   3.183   1.592   6.241  0.1447 -0.1936  0.1795
    2SAPS  H10R  189   3.227   1.514   6.175  1.6556  0.5061  0.3237
    2SAPS  H10S  190   3.279   1.641   6.264  0.4784 -0.3809 -0.7653
    2SAPS  C211  191   3.092   1.699   6.184 -0.3483 -0.8698  0.0782
    2SAPS  H11R  192   3.018   1.734   6.256  0.2542 -1.6278  1.0962
    2SAPS  C212  193   3.080   1.735   6.058  0.5256 -0.7861  0.5747
    2SAPS  H12R  194   3.013   1.821   6.041  1.8882  0.3941  0.9392
    2SAPS  C213  195   3.153   1.676   5.945 -1.1230 -0.6470 -0.3065
    2SAPS  H13R  196   3.248   1.629   5.980 -1.2927 -0.5246  0.3339
    2SAPS  H13S  197   3.181   1.755   5.872  2.2926  0.7192  2.2029
    2SAPS  C214  198   3.079   1.568   5.870 -0.3207 -0.6641 -0.2840
    2SAPS  H14R  199   3.073   1.473   5.926  2.7234 -1.1924 -0.6307
    2SAPS  C215  200   3.025   1.580   5.749 -0.3565  0.5263  0.3450
    2SAPS  H15R  201   2.975   1.488   5.718 -0.3374  0.7193 -0.2740
    2SAPS  C216  202   3.030   1.696   5.649  0.0941 -0.0721 -0.2379
    2SAPS  H16R  203   3.127   1.750   5.660  1.0755 -1.1422 -2.8381
    2SAPS  H16S  204   2.953   1.776   5.659  0.2922  0.4210 -2.2387
    2SAPS  C217  205   3.028   1.647   5.506 -0.0459  0.4738 -0.1015
    2SAPS  H17R  206   2.929   1.599   5.490  0.4820 -0.7420  0.2306
    2SAPS  H17S  207   3.112   1.575   5.499 -0.5389 -0.1708  0.5608
    2SAPS  C218  208   3.048   1.751   5.393 -0.5527  0.5479  0.6092
    2SAPS  H18R  209   3.152   1.787   5.414  0.9365 -2.6396 -0.6534
    2SAPS  H18S  210   2.974   1.833   5.398  0.3652  1.3764  1.0635
    2SAPS  C219  211   3.049   1.688   5.252 -0.0914  0.1738 -0.3143
    2SAPS  H19R  212   3.037   1.773   5.181 -0.6346  0.2746 -0.1022
    2SAPS  H19S  213   2.958   1.625   5.250 -1.9916  2.7557 -0.8907
    2SAPS  C220  214   3.173   1.597   5.221  0.0538  0.2313 -0.3009
    2SAPS  H20R  215   3.202   1.531   5.305  1.5907  1.0424 -0.1427
    2SAPS  H20S  216   3.265   1.652   5.188 -0.0284 -0.1893 -1.2618
    2SAPS  H20T  217   3.148   1.527   5.139  0.2181 -0.9757  0.6610
    2SAPS   C33  218   2.949   1.773   6.791  0.4271  0.7384 -0.4177
    2SAPS   H3X  219   2.909   1.877   6.792 -0.6398  0.3565  1.2475
    2SAPS   H3Y  220   2.916   1.717   6.881  0.9165 -0.3189 -0.8861
    2SAPS   C34  221   2.905   1.712   6.653 -0.4379 -0.6252 -0.5883
    2SAPS   H4X  222   2.932   1.604   6.655 -0.4221 -0.6368  2.0865
    2SAPS   H4Y  223   2.952   1.762   6.565 -1.5045 -1.2528 -1.5448
    2SAPS   C35  224   2.756   1.712   6.628 -0.3384 -0.0259 -0.3857
    2SAPS   H5X  225   2.715   1.815   6.621 -0.3223  0.1135  1.1551
    2SAPS   H5Y  226   2.701   1.672   6.716  0.8815 -0.8691  0.0219
    2SAPS   C36  227   2.712   1.628   6.508 -0.4148 -0.7002 -0.1844
    2SAPS   H6X  228   2.603   1.611   6.526 -1.3471  4.1289  0.3194
    2SAPS   H6Y  229   2.774   1.537   6.508  0.3989 -0.1552 -0.1078
    2SAPS   C37  230   2.736   1.689   6.373 -0.4754 -0.4252  0.1502
    2SAPS   H7X  231   2.847   1.689   6.370 -0.3858 -2.8954  1.4370
    2SAPS   H7Y  232   2.704   1.796   6.369 -2.1979 -0.9348 -0.4976
    2SAPS   C38  233   2.688   1.609   6.250  0.9271 -0.3397  0.3186
    2SAPS   H8X  234   2.577   1.598   6.255  1.0133 -1.0064  0.9426
    2SAPS   H8Y  235   2.731   1.507   6.247 -3.2903 -2.3289 -1.9792
    2SAPS   C39  236   2.701   1.672   6.114  0.9275  0.5225 -0.3818
    2SAPS   H9X  237   2.626   1.632   6.042 -1.0646  1.0536  1.2770
    2SAPS   H9Y  238   2.797   1.646   6.066  0.4684 -2.2413  0.0172
    2SAPS  C310  239   2.678   1.825   6.097  0.3059  0.4771  0.0245
    2SAPS  H10X  240   2.772   1.866   6.138 -0.6551  1.4351  1.3270
    2SAPS  H10Y  241   2.597   1.853   6.166  1.3362  2.9550  0.3046
    2SAPS  C311  242   2.652   1.864   5.955 -0.6625  0.6323  0.7758
    2SAPS  H11X  243   2.658   1.975   5.948  1.4686  0.6676  2.2471
    2SAPS  H11Y  244   2.544   1.844   5.934 -0.6970  2.2242 -0.8113
    2SAPS  C312  245   2.734   1.819   5.834  0.8089 -0.6108  0.0250
    2SAPS  H12X  246   2.714   1.713   5.806 -1.8992 -0.3916  0.8213
    2SAPS  H12Y  247   2.843   1.828   5.852  0.8383 -1.3237  0.2481
    2SAPS  C313  248   2.704   1.896   5.705  0.4236 -0.5990  0.2303
    2SAPS  H13X  249   2.778   1.870   5.626  0.3648 -1.4079  0.4286
    2SAPS  H13Y  250   2.714   2.003   5.734  0.7099 -1.1440  2.3503
    2SAPS  C314  251   2.559   1.874   5.653  0.5706 -0.6854 -0.0554
    2SAPS  H14X  252   2.494   1.901   5.739  0.0383  0.3690 -0.7686
    2SAPS  H14Y  253   2.555   1.764   5.634 -1.6195 -0.5035 -0.8809
    2SAPS  C315  254   2.524   1.955   5.527  0.2305 -0.1199  0.0042
    2SAPS  H15X  255   2.540   2.063   5.548 -0.0953 -0.1732  0.5699
    2SAPS  H15Y  256   2.415   1.955   5.506 -0.2197  0.4507  2.0663
    2SAPS  C316  257   2.603   1.908   5.404 -0.6546 -0.7900 -0.1726
    2SAPS  H16X  258   2.567   1.807   5.378  0.3459 -1.3367  0.5296
    2SAPS  H16Y  259   2.711   1.912   5.426 -0.8519 -1.8214  1.0492
    2SAPS  C317  260   2.583   1.992   5.280  0.1301  0.2078  0.1470
    2SAPS  H17X  261   2.631   2.091   5.290 -0.5759  0.4009  2.0623
    2SAPS  H17Y  262   2.473   2.007   5.269 -0.1410 -1.0117  0.9179
    2SAPS  C318  263   2.629   1.916   5.159 -0.5206  0.8947 -0.3665
    2SAPS  H18X  264   2.739   1.899   5.164 -0.5272  0.0255 -2.2391
    2SAPS  H18Y  265   2.603   1.970   5.066 -1.1862 -0.3976 -0.9585
    2SAPS  H18Z  266   2.578   1.818   5.168  1.4568 -0.1793 -0.3011
    3SAPS     N  267   3.738   5.140   7.693  0.0914  0.1208  0.3387
    3SAPS   HN1  268   3.794   5.206   7.635 -0.4253 -0.8129 -1.2957
    3SAPS   HN2  269   3.699   5.070   7.628 -0.4775 -0.7574  1.5888
    3SAPS   HN3  270   3.662   5.189   7.745  0.7257  0.3351  1.0891
    3SAPS   C12  271   3.834   5.080   7.789 -0.3447  0.1675  0.5717
    3SAPS  H12A  272   3.864   5.162   7.852  0.2915 -0.2180  0.7725
    3SAPS   C13  273   3.774   4.964   7.874 -0.6169  0.7062 -0.3048
    3SAPS  O13A  274   3.651   4.935   7.870  0.3464  0.0797 -0.1389
    3SAPS  O13B  275   3.849   4.934   7.972 -0.0377  0.0414 -0.2617
    3SAPS   C11  276   3.956   5.026   7.712  0.0807  0.2628 -0.3188
    3SAPS  H11A  277   3.927   4.931   7.663 -1.2382 -0.4033  1.6542
    3SAPS  H11B  278   4.029   5.010   7.794  0.2019  1.6166 -0.1329
    3SAPS     P  279   4.149   5.081   7.554  0.2024  0.2827  0.0374
    3SAPS   O13  280   4.238   5.205   7.554 -0.5069 -0.1096 -0.3321
    3SAPS   O14  281   4.212   4.958   7.611 -0.6027  0.0661  0.2751
    3SAPS   O12  282   4.012   5.117   7.623 -0.6116  0.2463  0.2434
    3SAPS   O11  283   4.112   5.052   7.404  0.0188  0.5640 -0.6003
    3SAPS    C1  284   4.038   5.144   7.327  0.3251 -0.3899  0.2787
    3SAPS    HA  285   3.936   5.162   7.369  0.9815  0.4589  1.5712
    3SAPS    HB  286   4.081   5.246   7.318 -2.4266  0.8973  0.4541
    3SAPS    C2  287   4.015   5.105   7.178 -0.4314  0.5104 -0.2119
    3SAPS    HS  288   4.012   4.994   7.176 -0.5755  0.3472  3.1811
    3SAPS   O21  289   4.137   5.153   7.113 -0.6960 -0.4391  0.5531
    3SAPS   C21  290   4.190   5.070   7.030  0.4840  0.5541  0.2135
    3SAPS   O22  291   4.174   4.947   7.038 -0.0476  0.3728 -0.0445
    3SAPS   C22  292   4.273   5.134   6.920  0.1342 -0.1369  0.2957
    3SAPS   H2R  293   4.358   5.191   6.964  0.8501 -0.0745 -1.1121
    3SAPS   H2S  294   4.322   5.052   6.864  1.6917  1.9107 -1.5319
    3SAPS    C3  295   3.888   5.173   7.128 -0.3740 -0.7124 -0.0759
    3SAPS    HX  296   3.899   5.283   7.143  2.4703 -0.9509  0.2253
    3SAPS    HY  297   3.804   5.131   7.186  1.2626 -0.3734  2.7501
    3SAPS   O31  298   3.870   5.136   6.990  0.2803 -0.3164  0.2897
    3SAPS   C31  299   3.773   5.210   6.925 -0.4391  0.1706 -0.1254
    3SAPS   O32  300   3.705   5.299   6.972 -0.4105  0.1136  0.0993
    3SAPS   C32  301   3.771   5.163   6.779  0.8219  0.4637  0.2001
    3SAPS   H2X  302   3.700   5.078   6.787  1.6491 -0.5740 -2.3797
    3SAPS   H2Y  303   3.869   5.130   6.737  0.0427 -1.8043 -0.0157
    3SAPS   C23  304   4.201   5.219   6.814 -0.2236  0.2592  0.3610
    3SAPS   H3R  305   4.115   5.167   6.768  1.5429 -2.1867 -0.4440
    3SAPS   H3S  306   4.270   5.245   6.730 -1.0576 -0.6765 -0.6382
    3SAPS   C24  307   4.144   5.354   6.859  0.1807  0.8110  0.0390
    3SAPS   H4R  308   4.217   5.438   6.862 -1.5295  2.5063 -2.1329
    3SAPS   H4S  309   4.111   5.355   6.965  0.0625  0.4209  0.0060
    3SAPS   C25  310   4.037   5.420   6.774  0.2242 -0.0476 -0.0863
    3SAPS   H5R  311   3.937   5.436   6.815  0.5082  0.1673  0.5362
    3SAPS   C26  312   4.058   5.474   6.649 -0.3988  0.6226 -0.4291
    3SAPS   H6R  313   3.968   5.515   6.602  0.1723  1.8971 -0.4415
    3SAPS   C27  314   4.189   5.484   6.568 -0.4204  0.4192 -0.1852
    3SAPS   H7R  315   4.190   5.397   6.500 -2.2181 -1.2517  1.7776
    3SAPS   H7S  316   4.279   5.462   6.629  0.5947  1.0271 -1.4333
    3SAPS   C28  317   4.211   5.616   6.492  0.4759  0.4916 -0.4017
    3SAPS   H8R  318   4.293   5.672   6.540 -0.0405  0.5730  0.4024
    3SAPS   C29  319   4.141   5.656   6.382 -0.5123  0.0545  0.1657
    3SAPS   H9R  320   4.150   5.757   6.340 -1.4950  0.4055  0.7792
    3SAPS  C210  321   4.032   5.574   6.306 -0.3649  0.4141 -0.0064
    3SAPS  H10R  322   4.020   5.472   6.350 -3.6185  1.5389  2.0669
    3SAPS  H10S  323   4.081   5.563   6.207 -0.9368  2.1227 -0.5072
    3SAPS  C211  324   3.894   5.636   6.294  0.8175  0.8153  0.0348
    3SAPS  H11R  325   3.852   5.670   6.390 -0.3566 -1.7580  0.5159
    3SAPS  C212  326   3.827   5.654   6.177 -0.3564 -0.2285 -0.3027
    3SAPS  H12R  327   3.730   5.704   6.171  0.6491  2.1615  1.6876
    3SAPS  C213  328   3.876   5.625   6.039 -0.0165 -0.5136 -0.5602
    3SAPS  H13R  329   3.978   5.667   6.027 -0.4048  0.6736  0.1655
    3SAPS  H13S  330   3.803   5.664   5.964 -0.7429 -0.2864  0.2430
    3SAPS  C214  331   3.903   5.478   6.020  0.4987 -0.6470  0.7317
    3SAPS  H14R  332   3.940   5.420   6.106  0.7711 -0.9077  0.4425
    3SAPS  C215  333   3.883   5.423   5.896 -0.2615 -0.4374 -0.3241
    3SAPS  H15R  334   3.913   5.318   5.901 -0.7675 -0.5109  1.8391
    3SAPS  C216  335   3.829   5.484   5.769  1.2464  0.6126 -0.6533
    3SAPS  H16R  336   3.910   5.495   5.695  1.0225 -0.9975 -1.1851
    3SAPS  H16S  337   3.790   5.588   5.778  0.4963  0.2860  0.0723
    3SAPS  C217  338   3.717   5.396   5.716  0.3089 -0.2542  0.3231
    3SAPS  H17R  339   3.627   5.392   5.781 -0.5493 -1.6042 -0.8948
    3SAPS  H17S  340   3.751   5.290   5.723 -2.7422 -1.4512 -1.0886
    3SAPS  C218  341   3.663   5.436   5.573 -0.4828  0.7880  0.3297
    3SAPS  H18R  342   3.626   5.540   5.577 -0.1006  0.8945  3.0734
    3SAPS  H18S  343   3.582   5.363   5.555  0.9103 -1.4239  2.3355
    3SAPS  C219  344   3.764   5.418   5.460  0.1984 -0.4593 -0.0098
    3SAPS  H19R  345   3.844   5.496   5.463  0.4931 -0.7583  0.0053
    3SAPS  H19S  346   3.824   5.325   5.470  3.2859  1.2646 -1.0152
    3SAPS  C220  347   3.687   5.438   5.325 -0.0384  1.2817  0.2875
    3SAPS  H20R  348   3.637   5.536   5.315 -1.9807  0.2788 -0.2931
    3SAPS  H20S  349   3.609   5.360   5.316  1.8599 -0.5891 -0.9532
    3SAPS  H20T  350   3.743   5.422   5.230 -0.2516 -3.2410  0.6867
    3SAPS   C33  351   3.710   5.274   6.681  0.2518  0.0976  0.0313
    3SAPS   H3X  352   3.793   5.346   6.668  2.2639 -2.1244 -0.2125
    3SAPS   H3Y  353   3.617   5.321   6.720 -0.2567 -0.7386 -0.1501
    3SAPS   C34  354   3.675   5.223   6.541 -0.5088  0.4979  0.2151
    3SAPS   H4X  355   3.666   5.311   6.474 -0.3132 -0.9957 -1.8842
    3SAPS   H4Y  356   3.576   5.173   6.550 -0.0722 -0.4469 -0.1035
    3SAPS   C35  357   3.771   5.115   6.474  0.0251  0.2309  0.2633
    3SAPS   H5X  358   3.871   5.162   6.466  0.9452 -1.0755  2.8083
    3SAPS   H5Y  359   3.779   5.022   6.535  0.2941 -1.3617 -2.0625
    3SAPS   C36  360   3.738   5.077   6.328  0.0767  0.4100 -0.3184
    3SAPS   H6X  361   3.659   5.000   6.339  2.0539 -1.8296 -0.9943
    3SAPS   H6Y  362   3.820   5.022   6.278 -0.1267  1.4254 -1.8373
    3SAPS   C37  363   3.698   5.188   6.230 -0.6614  0.2209 -0.0866
    3SAPS   H7X  364   3.782   5.260   6.236  0.9225 -1.4406 -1.4028
    3SAPS   H7Y  365   3.605   5.219   6.282 -1.0672 -2.3167  0.8597
    3SAPS   C38  366   3.687   5.139   6.084 -0.8536  0.7921 -0.6633
    3SAPS   H8X  367   3.672   5.029   6.080  1.0734  0.4165  0.9072
    3SAPS   H8Y  368   3.780   5.165   6.029 -0.9818 -0.8633 -1.7378
    3SAPS   C39  369   3.569   5.198   6.001 -0.2529 -0.3044 -0.3497
    3SAPS   H9X  370   3.594   5.198   5.893 -0.2703 -0.1810 -0.3543
    3SAPS   H9Y  371   3.567   5.304   6.034 -1.2239 -0.8961  1.6151
    3SAPS  C310  372   3.435   5.134   6.032 -0.4214 -0.4140  0.2785
    3SAPS  H10X  373   3.399   5.147   6.136  0.4349  2.5534  0.2846
    3SAPS  H10Y  374   3.445   5.027   6.005  1.9794  0.1963 -1.6493
    3SAPS  C311  375   3.316   5.185   5.946  0.3259 -0.4081 -0.1680
    3SAPS  H11X  376   3.295   5.289   5.978 -2.7316 -1.4106  1.4350
    3SAPS  H11Y  377   3.228   5.124   5.974 -0.9335  0.4978 -1.9536
    3SAPS  C312  378   3.335   5.174   5.800 -0.3473 -0.2168  0.2180
    3SAPS  H12X  379   3.412   5.250   5.774 -1.7367  1.2038  0.0904
    3SAPS  H12Y  380   3.242   5.212   5.754  0.7280  1.6180 -0.5733
    3SAPS  C313  381   3.375   5.028   5.755  0.1370 -0.7089  0.1936
    3SAPS  H13X  382   3.326   4.946   5.811  0.1979 -2.5059 -2.2064
    3SAPS  H13Y  383   3.486   5.019   5.762  0.1109 -0.7787  0.5152
    3SAPS  C314  384   3.341   4.997   5.606  1.1008  0.0892 -0.2032
    3SAPS  H14X  385   3.233   5.013   5.590  1.2167 -0.5055 -1.7275
    3SAPS  H14Y  386   3.358   4.890   5.582 -0.0305  0.0981 -1.0868
    3SAPS  C315  387   3.419   5.074   5.501 -0.0259  0.3188  0.3855
    3SAPS  H15X  388   3.520   5.086   5.546  1.4106 -1.3963 -2.1352
    3SAPS  H15Y  389   3.375   5.175   5.483 -0.2250  0.7327  2.8359
    3SAPS  C316  390   3.461   5.003   5.372 -0.7786 -0.4716  0.5986
    3SAPS  H16X  391   3.372   5.009   5.307 -0.3236  0.1501  0.0098
    3SAPS  H16Y  392   3.477   4.894   5.384 -0.4197 -0.4013  0.7949
    3SAPS  C317  393   3.576   5.073   5.294  0.5238 -0.2578  0.5618
    3SAPS  H17X  394   3.539   5.176   5.273 -1.3231 -1.1875 -1.0679
    3SAPS  H17Y  395   3.589   5.022   5.196 -1.6813  2.1737 -1.1368
    3SAPS  C318  396   3.707   5.060   5.371  0.2765 -0.3312 -0.1777
    3SAPS  H18X  397   3.700   5.089   5.478 -0.3510 -2.5976  0.4546
    3SAPS  H18Y  398   3.795   5.111   5.327  1.8270 -0.5920  2.4205
    3SAPS  H18Z  399   3.731   4.952   5.381  0.7405 -0.3812 -1.5949
    4SAPS     N  400   1.670   2.639   6.999 -0.3187 -0.6496  0.7446
    4SAPS   HN1  401   1.571   2.672   7.003 -0.0715  0.8989 -2.4903
    4SAPS   HN2  402   1.685   2.590   6.908 -0.8007 -0.6521  0.6633
    4SAPS   HN3  403   1.682   2.572   7.077  0.1485  0.6688  1.8423
    4SAPS   C12  404   1.766   2.751   7.002 -0.5467 -0.0898 -0.0213
    4SAPS  H12A  405   1.744   2.793   6.904 -0.6520 -0.4984 -0.1736
    4SAPS   C13  406   1.746   2.862   7.102 -0.0173 -0.1555 -0.8394
    4SAPS  O13A  407   1.635   2.859   7.163 -0.4896 -0.0427  0.1771
    4SAPS  O13B  408   1.818   2.961   7.114 -0.3613  0.4220 -0.3688
    4SAPS   C11  409   1.916   2.704   7.016  0.4679  0.1049 -0.2564
    4SAPS  H11A  410   1.937   2.668   7.119 -0.4762  1.2311  0.3488
    4SAPS  H11B  411   1.986   2.788   6.999 -1.0083  2.3481  3.4740
    4SAPS     P  412   2.011   2.463   6.978  0.1123 -0.0137  0.3004
    4SAPS   O13  413   2.092   2.491   7.102  0.3380 -0.0609 -0.1809
    4SAPS   O14  414   1.912   2.357   6.990  0.7883  0.0607 -0.3004
    4SAPS   O12  415   1.940   2.595   6.927  0.7922 -0.2250 -0.2474
    4SAPS   O11  416   2.110   2.427   6.858 -0.3683  0.3034  0.4953
    4SAPS    C1  417   2.078   2.453   6.720  0.5434  0.3098  0.2566
    4SAPS    HA  418   1.983   2.400   6.701  1.2607 -1.6771  1.8274
    4SAPS    HB  419   2.082   2.563   6.706  3.3945  0.5874  2.3898
    4SAPS    C2  420   2.178   2.393   6.618 -0.5832 -0.4014  0.3468
    4SAPS    HS  421   2.266   2.461   6.613  0.1800 -1.4088 -0.2814
    4SAPS   O21  422   2.122   2.368   6.484  0.0196 -0.6500  0.0960
    4SAPS   C21  423   2.066   2.467   6.422 -0.5647 -0.5085  0.4720
    4SAPS   O22  424   2.077   2.585   6.454  0.0133  0.6377  0.2115
    4SAPS   C22  425   2.004   2.411   6.294  0.3644 -0.3648 -0.9669
    4SAPS   H2R  426   2.074   2.332   6.257  1.3988 -0.3657  0.8861
    4SAPS   H2S  427   1.908   2.366   6.327 -0.2626  1.8917  0.5195
    4SAPS    C3  428   2.251   2.262   6.669  0.0812  0.3595  0.0640
    4SAPS    HX  429   2.163   2.196   6.679  1.4968 -2.7273 -4.4771
    4SAPS    HY  430   2.300   2.280   6.767 -2.0334  0.7045  1.0938
    4SAPS   O31  431   2.335   2.207   6.566 -0.4457 -0.0139  0.2926
    4SAPS   C31  432   2.287   2.108   6.495  0.8914  0.8354 -0.0362
    4SAPS   O32  433   2.171   2.056   6.508  0.4122  0.1418 -0.4038
    4SAPS   C32  434   2.378   2.076   6.379  0.1029 -0.2521 -0.1429
    4SAPS   H2X  435   2.393   1.966   6.375 -0.9176 -0.3662 -1.7074
    4SAPS   H2Y  436   2.477   2.124   6.395  0.5277 -1.0638 -0.2903
    4SAPS   C23  437   1.980   2.505   6.177  0.0542 -0.4614 -0.5358
    4SAPS   H3R  438   2.075   2.561   6.163 -0.3568  0.1698 -0.8378
    4SAPS   H3S  439   1.903   2.580   6.204  0.6421  0.1807 -0.6354
    4SAPS   C24  440   1.964   2.445   6.032 -0.1134 -0.1692  0.2383
    4SAPS   H4R  441   2.057   2.403   5.990  0.0425 -0.0573  0.4672
    4SAPS   H4S  442   1.940   2.535   5.971 -0.8185  0.5735  1.5528
    4SAPS   C25  443   1.847   2.339   6.029  0.0894 -0.2888  0.0671
    4SAPS   H5R  444   1.754   2.387   6.064 -0.6650 -1.4015 -0.3649
    4SAPS   C26  445   1.860   2.207   6.006 -0.2706  0.5622 -0.0178
    4SAPS   H6R  446   1.769   2.149   6.026  0.4782 -0.9346 -0.8098
    4SAPS   C27  447   1.990   2.138   5.974 -0.7250  0.2224 -0.3332
    4SAPS   H7R  448   2.044   2.106   6.066  2.2083 -1.4997 -2.4988
    4SAPS   H7S  449   2.064   2.202   5.922 -0.7800 -0.1004 -0.8184
    4SAPS   C28  450   1.975   2.009   5.902 -0.1582  0.3675 -0.1055
    4SAPS   H8R  451   1.942   1.928   5.968  1.2404  0.0656  0.2606
    4SAPS   C29  452   2.010   1.981   5.772  0.5731  0.3402  0.2267
    4SAPS   H9R  453   2.004   1.876   5.741 -1.6716  0.5003 -0.0307
    4SAPS  C210  454   2.077   2.078   5.684  0.3676  0.3108  0.7814
    4SAPS  H10R  455   2.145   2.024   5.614  0.4233  0.3673  0.7923
    4SAPS  H10S  456   2.155   2.139   5.734 -0.0536  1.2025  0.3708
    4SAPS  C211  457   1.977   2.158   5.604 -0.5203 -0.2555  0.2897
    4SAPS  H11R  458   1.913   2.223   5.665  0.6308  0.1020  1.1610
    4SAPS  C212  459   1.961   2.172   5.471 -0.0187  0.2505  0.0601
    4SAPS  H12R  460   1.876   2.230   5.433  1.5594  2.6910  0.0783
    4SAPS  C213  461   2.027   2.083   5.361  0.0770  0.2331  0.3473
    4SAPS  H13R  462   1.950   2.014   5.321 -0.5194 -0.0009  1.8362
    4SAPS  H13S  463   2.103   2.020   5.412  0.5477 -0.7429 -1.4932
    4SAPS  C214  464   2.092   2.157   5.247  1.0646 -0.0753  0.1212
    4SAPS  H14R  465   2.201   2.171   5.251  0.9447  0.9260  0.2814
    4SAPS  C215  466   2.031   2.206   5.138 -0.5152 -0.3091  0.1444
    4SAPS  H15R  467   2.094   2.267   5.071  0.2130 -0.6757  0.4750
    4SAPS  C216  468   1.890   2.194   5.102 -0.3075 -0.0559  0.1108
    4SAPS  H16R  469   1.853   2.299   5.110  0.7493  0.2223  1.7633
    4SAPS  H16S  470   1.826   2.161   5.186  1.0109  0.8170  1.5151
    4SAPS  C217  471   1.870   2.117   4.966  0.0426 -0.4011 -1.1766
    4SAPS  H17R  472   1.759   2.121   4.953  0.0449 -0.9350 -1.3812
    4SAPS  H17S  473   1.902   2.011   4.975 -0.6611 -0.4750  1.6277
    4SAPS  C218  474   1.936   2.191   4.846  0.0651  0.2636 -0.6490
    4SAPS  H18R  475   2.046   2.177   4.854 -0.0312 -0.8546 -1.1080
    4SAPS  H18S  476   1.909   2.298   4.861 -0.0372  0.0188  1.2332
    4SAPS  C219  477   1.870   2.146   4.718  0.3512  0.2088 -0.7151
    4SAPS  H19R  478   1.759   2.151   4.723  0.3580 -0.4150  0.1416
    4SAPS  H19S  479   1.891   2.039   4.700 -0.4974 -0.0610 -0.1946
    4SAPS  C220  480   1.922   2.217   4.600  0.0339 -0.3135  0.0868
    4SAPS  H20R  481   2.019   2.175   4.567  0.2684  1.3154 -1.4271
    4SAPS  H20S  482   1.935   2.327   4.615 -1.4038 -0.2145  0.7982
    4SAPS  H20T  483   1.850   2.197   4.518  0.6748 -0.3262 -0.4792
    4SAPS   C33  484   2.320   2.117   6.241  0.2968  0.2623 -0.7557
    4SAPS   H3X  485   2.210   2.132   6.237 -0.7472 -4.3658  2.2729
    4SAPS   H3Y  486   2.346   2.028   6.180  1.3448 -0.9963  1.3790
    4SAPS   C34  487   2.384   2.248   6.190  0.0224  0.5972 -0.1634
    4SAPS   H4X  488   2.490   2.232   6.163  0.1010  1.8029 -0.6582
    4SAPS   H4Y  489   2.384   2.313   6.280 -1.0586 -1.5841  1.4999
    4SAPS   C35  490   2.314   2.317   6.071  0.9084  0.4480  0.3991
    4SAPS   H5X  491   2.329   2.426   6.076  2.0851  0.5287 -2.6643
    4SAPS   H5Y  492   2.203   2.309   6.076  0.6054  0.2640 -3.3440
    4SAPS   C36  493   2.369   2.274   5.935  0.7366  0.6461 -0.7491
    4SAPS   H6X  494   2.332   2.170   5.921  0.9475  0.0988  2.0928
    4SAPS   H6Y  495   2.477   2.253   5.951  0.6152 -0.7294 -1.5260
    4SAPS   C37  496   2.339   2.360   5.819  0.1202  0.3633 -0.4869
    4SAPS   H7X  497   2.384   2.461   5.833 -1.9448  1.2363  0.2603
    4SAPS   H7Y  498   2.231   2.379   5.803  0.2108  1.0008 -0.3789
    4SAPS   C38  499   2.404   2.312   5.682  0.0693 -0.3994 -0.4024
    4SAPS   H8X  500   2.358   2.216   5.650  1.1785 -0.9465 -0.4226
    4SAPS   H8Y  501   2.510   2.310   5.715 -0.2551  0.8136  0.8025
    4SAPS   C39  502   2.402   2.421   5.573 -0.0154  0.8071 -0.2665
    4SAPS   H9X  503   2.438   2.514   5.622  1.7579  0.2123 -0.3785
    4SAPS   H9Y  504   2.294   2.429   5.548 -0.4181 -0.2883  0.9830
    4SAPS  C310  505   2.503   2.374   5.461 -0.2413  0.1725 -0.9327
    4SAPS  H10X  506   2.455   2.295   5.399 -0.6791  1.4573 -2.2680
    4SAPS  H10Y  507   2.597   2.333   5.505 -0.5683  0.7224  0.3111
    4SAPS  C311  508   2.549   2.503   5.386 -0.5034  0.7400 -0.1509
    4SAPS  H11X  509   2.557   2.595   5.447  0.5323  2.7471 -3.1142
    4SAPS  H11Y  510   2.470   2.517   5.309 -0.3861  1.8492 -0.0809
    4SAPS  C312  511   2.683   2.491   5.317 -0.2024 -0.4217 -0.1260
    4SAPS  H12X  512   2.688   2.405   5.246  0.5930  0.9169 -1.7636
    4SAPS  H12Y  513   2.769   2.493   5.388 -0.5654 -1.2745  0.3472
    4SAPS  C313  514   2.720   2.612   5.231  0.0894 -0.0623  0.2968
    4SAPS  H13X  515   2.734   2.701   5.296 -0.8349  0.4433 -0.1645
    4SAPS  H13Y  516   2.625   2.639   5.179 -0.3710 -2.1049 -0.0061
    4SAPS  C314  517   2.831   2.594   5.125  0.0281 -0.3276 -1.1859
    4SAPS  H14X  518   2.909   2.542   5.184 -0.7536  0.9850  1.1344
    4SAPS  H14Y  519   2.867   2.693   5.090  1.0073 -0.3833 -0.3749
    4SAPS  C315  520   2.770   2.520   4.997  0.4398  0.3953 -0.9641
    4SAPS  H15X  521   2.717   2.430   5.036  0.6170  0.2981 -0.9498
    4SAPS  H15Y  522   2.852   2.483   4.932 -0.4504 -4.9738  0.5255
    4SAPS  C316  523   2.675   2.600   4.907 -0.5430  0.1441 -0.5312
    4SAPS  H16X  524   2.725   2.636   4.814  1.5815 -1.7760 -0.2065
    4SAPS  H16Y  525   2.637   2.682   4.972 -0.7306 -1.7076  1.8300
    4SAPS  C317  526   2.558   2.509   4.863 -0.0824  0.0742 -0.3341
    4SAPS  H17X  527   2.596   2.404   4.866  1.3828  0.5112 -1.7134
    4SAPS  H17Y  528   2.532   2.546   4.761  1.3806  1.9952 -0.0655
    4SAPS  C318  529   2.441   2.496   4.954 -0.0948 -0.0022 -0.2430
    4SAPS  H18X  530   2.393   2.591   4.988 -2.1882 -0.4998 -1.6549
    4SAPS  H18Y  531   2.478   2.450   5.048  0.6530  3.1330  1.1305
    4SAPS  H18Z  532   2.364   2.430   4.910  0.7925  0.3541 -2.4342
    5SAPS     N  533   2.948   5.808   7.085 -0.0186 -0.2868 -0.4070
    5SAPS   HN1  534   2.971   5.814   7.187 -0.2573 -0.2051 -0.3586
    5SAPS   HN2  535   2.953   5.899   7.036  0.5108 -0.1792 -0.1665
    5SAPS   HN3  536   2.850   5.775   7.072 -0.1367 -1.1712  2.1415
    5SAPS   C12  537   3.035   5.713   7.006 -0.7647  0.0438  0.4209
    5SAPS  H12A  538   3.140   5.724   7.030 -0.9769  0.5724  1.1679
    5SAPS   C13  539   2.999   5.560   7.044  0.2967  0.0744 -0.5404
    5SAPS  O13A  540   2.918   5.545   7.138 -0.1072  0.0400 -0.4815
    5SAPS  O13B  541   3.059   5.467   6.990  0.1742  0.0797 -0.1419
    5SAPS   C11  542   2.988   5.743   6.853 -0.1767  0.2756  0.1245
    5SAPS  H11A  543   2.884   5.713   6.830 -1.3125  4.1752 -0.6313
    5SAPS  H11B  544   3.048   5.673   6.792  0.6053  0.0701  1.1018
    5SAPS     P  545   3.116   5.952   6.739 -0.3075 -0.3455 -0.0482
    5SAPS   O13  546   3.062   6.083   6.688 -0.2841 -0.4442  0.2699
    5SAPS   O14  547   3.240   5.962   6.824 -0.0616  0.3246  0.5412
    5SAPS   O12  548   3.001   5.877   6.807  0.3622 -0.0679 -0.8784
    5SAPS   O11  549   3.141   5.862   6.614  0.1736  0.0266 -0.4282
    5SAPS    C1  550   3.237   5.758   6.592 -0.3749 -0.3054 -0.0945
    5SAPS    HA  551   3.251   5.697   6.683 -3.2522 -0.6432  0.2151
    5SAPS    HB  552   3.196   5.680   6.525  0.8830 -0.8075 -0.3158
    5SAPS    C2  553   3.367   5.823   6.529  0.4251  0.3810 -0.1778
    5SAPS    HS  554   3.407   5.890   6.608 -0.0876 -0.3555  0.7182
    5SAPS   O21  555   3.336   5.886   6.408  0.2508 -0.3770 -0.2795
    5SAPS   C21  556   3.324   6.019   6.395  0.3658 -0.0936  0.2359
    5SAPS   O22  557   3.329   6.097   6.485 -0.1357  0.0965 -0.6418
    5SAPS   C22  558   3.315   6.048   6.248 -0.3215 -0.0997  0.8597
    5SAPS   H2R  559   3.411   6.032   6.195 -1.0342  0.0886 -0.5380
    5SAPS   H2S  560   3.229   5.986   6.214 -0.2848  0.2264  0.1584
    5SAPS    C3  561   3.487   5.732   6.503 -1.5893 -0.6276  0.3668
    5SAPS    HX  562   3.523   5.691   6.600  0.4817  0.7228  0.2547
    5SAPS    HY  563   3.572   5.797   6.471 -2.9670  1.8901  1.5094
    5SAPS   O31  564   3.457   5.623   6.417  0.1944  0.0354  0.0708
    5SAPS   C31  565   3.470   5.645   6.289  0.1208  0.2757  0.0760
    5SAPS   O32  566   3.515   5.748   6.240 -0.0963  0.0442 -0.3279
    5SAPS   C32  567   3.444   5.519   6.207  0.8187 -0.8902  0.0858
    5SAPS   H2X  568   3.349   5.472   6.241  0.3732  0.1333  0.2885
    5SAPS   H2Y  569   3.536   5.457   6.217  1.8102  0.3532 -0.9321
    5SAPS   C23  570   3.295   6.200   6.225  0.0731  0.0156  0.5729
    5SAPS   H3R  571   3.388   6.256   6.251 -0.1812  1.2230 -1.0104
    5SAPS   H3S  572   3.212   6.244   6.284  0.1787 -0.1454  0.8493
    5SAPS   C24  573   3.288   6.246   6.078  0.0516  0.3777  0.1895
    5SAPS   H4R  574   3.380   6.224   6.021  1.8924  1.0310  2.7346
    5SAPS   H4S  575   3.283   6.357   6.083 -0.8096  0.3851 -0.5699
    5SAPS   C25  576   3.163   6.201   6.016  0.2453  0.7712  0.1909
    5SAPS   H5R  577   3.075   6.198   6.082  0.7956 -1.6075  0.9246
    5SAPS   C26  578   3.140   6.155   5.890  0.2704  0.2808  0.6269
    5SAPS   H6R  579   3.036   6.131   5.863  1.4652 -2.7130 -1.9733
    5SAPS   C27  580   3.234   6.126   5.775  0.3301  0.7432 -0.1564
    5SAPS   H7R  581   3.311   6.056   5.814 -0.9686 -0.0297  1.1003
    5SAPS   H7S  582   3.286   6.218   5.741 -0.7201  0.9750 -1.2115
    5SAPS   C28  583   3.163   6.058   5.658 -0.0490  0.3425  0.8421
    5SAPS   H8R  584   3.107   5.969   5.690 -1.2355  1.6835  2.7148
    5SAPS   C29  585   3.147   6.101   5.531 -0.2336 -0.5543 -0.0667
    5SAPS   H9R  586   3.107   6.031   5.456  0.2269 -1.4112  0.4774
    5SAPS  C210  587   3.202   6.229   5.479  0.0861 -0.1385  0.1826
    5SAPS  H10R  588   3.310   6.246   5.501 -0.3113  3.0031  0.1565
    5SAPS  H10S  589   3.150   6.303   5.543  0.3533 -0.5293  0.8657
    5SAPS  C211  590   3.170   6.253   5.338  0.3582  0.0041  0.4118
    5SAPS  H11R  591   3.082   6.203   5.294 -0.3129  1.1090  0.4504
    5SAPS  C212  592   3.228   6.358   5.275 -0.4347 -0.0442  0.5177
    5SAPS  H12R  593   3.221   6.347   5.165 -0.3073 -1.7724  0.6510
    5SAPS  C213  594   3.339   6.445   5.320 -0.1154  0.1749 -0.7974
    5SAPS  H13R  595   3.381   6.401   5.413 -2.1500 -0.3099 -0.0428
    5SAPS  H13S  596   3.303   6.543   5.359 -0.4688 -0.6825  1.1617
    5SAPS  C214  597   3.445   6.462   5.215 -0.0206 -0.1608  0.5069
    5SAPS  H14R  598   3.411   6.511   5.123 -0.7069 -0.7151  0.4545
    5SAPS  C215  599   3.568   6.402   5.215 -0.5870  0.2432 -0.3020
    5SAPS  H15R  600   3.632   6.397   5.126 -0.7098 -3.1363 -0.3027
    5SAPS  C216  601   3.630   6.325   5.335  0.1976  0.2158 -0.3172
    5SAPS  H16R  602   3.666   6.227   5.297 -0.5572 -0.1518 -0.1022
    5SAPS  H16S  603   3.555   6.298   5.412  0.0613  1.7026  0.0992
    5SAPS  C217  604   3.753   6.387   5.393 -0.5795 -0.6256 -0.3372
    5SAPS  H17R  605   3.810   6.307   5.445  1.3406  0.5113 -0.5717
    5SAPS  H17S  606   3.722   6.463   5.469  1.9876 -1.7796  2.0729
    5SAPS  C218  607   3.843   6.440   5.285 -0.0445 -0.1564 -0.1934
    5SAPS  H18R  608   3.801   6.516   5.216  1.9304  0.6824 -0.5293
    5SAPS  H18S  609   3.875   6.361   5.214  0.2761  1.1550 -1.5576
    5SAPS  C219  610   3.965   6.508   5.342 -0.3557 -0.2317  0.4687
    5SAPS  H19R  611   4.022   6.441   5.409 -1.2468 -3.6017 -1.8601
    5SAPS  H19S  612   3.924   6.587   5.407  0.5184 -0.4914  1.3496
    5SAPS  C220  613   4.045   6.579   5.222  0.4406  0.1279  0.2784
    5SAPS  H20R  614   4.119   6.507   5.181  0.3706 -0.2772  0.8509
    5SAPS  H20S  615   4.105   6.663   5.263  1.9775  0.0389 -1.6454
    5SAPS  H20T  616   3.976   6.624   5.148  0.4892  0.1353  0.2380
    5SAPS   C33  617   3.422   5.552   6.059 -0.0593  0.1563 -0.1711
    5SAPS   H3X  618   3.419   5.453   6.008  2.6011 -0.3956  0.5957
    5SAPS   H3Y  619   3.500   5.624   6.026  0.4461  1.1059  2.8038
    5SAPS   C34  620   3.286   5.610   6.035  0.0074 -0.0760  0.4946
    5SAPS   H4X  621   3.250   5.687   6.106 -3.0233 -0.4169 -0.5568
    5SAPS   H4Y  622   3.216   5.524   6.045  2.0646 -1.9537 -0.2539
    5SAPS   C35  623   3.259   5.673   5.895 -0.2528  0.2519 -0.4031
    5SAPS   H5X  624   3.299   5.776   5.882 -1.6191  1.0145  1.0289
    5SAPS   H5Y  625   3.150   5.695   5.884 -0.7547 -2.5283 -1.8621
    5SAPS   C36  626   3.298   5.583   5.780 -0.3137  0.4041 -0.2349
    5SAPS   H6X  627   3.278   5.479   5.812 -0.8582  0.5105 -0.2236
    5SAPS   H6Y  628   3.408   5.590   5.764 -0.4460  1.9567 -0.6200
    5SAPS   C37  629   3.217   5.595   5.655  0.2095 -0.0917  0.1205
    5SAPS   H7X  630   3.233   5.695   5.611  0.3427 -0.1162  0.1134
    5SAPS   H7Y  631   3.108   5.589   5.679 -0.0927  1.7853 -0.6105
    5SAPS   C38  632   3.244   5.490   5.550 -0.5113 -0.1661 -0.6712
    5SAPS   H8X  633   3.235   5.384   5.582  2.3325 -0.1021  0.6193
    5SAPS   H8Y  634   3.347   5.491   5.510 -1.0326  1.1792 -2.0823
    5SAPS   C39  635   3.159   5.503   5.422 -0.0281  0.1081  0.5122
    5SAPS   H9X  636   3.053   5.475   5.443 -0.6344  2.1969  0.4939
    5SAPS   H9Y  637   3.200   5.427   5.351 -0.6082  1.2337 -1.0877
    5SAPS  C310  638   3.160   5.638   5.335  0.0695 -0.3632 -0.1551
    5SAPS  H10X  639   3.264   5.668   5.309 -0.3639 -0.6156 -2.3107
    5SAPS  H10Y  640   3.108   5.713   5.398  0.1632  0.5714 -1.1728
    5SAPS  C311  641   3.085   5.616   5.200  0.2459  0.3666  0.3775
    5SAPS  H11X  642   2.975   5.611   5.213 -0.3583  3.2048 -2.4286
    5SAPS  H11Y  643   3.119   5.514   5.172  1.5954  0.2236  2.3022
    5SAPS  C312  644   3.122   5.729   5.096  0.0615  0.1071  0.8865
    5SAPS  H12X  645   3.233   5.736   5.093  0.0404  0.8387  1.4386
    5SAPS  H12Y  646   3.083   5.824   5.138 -0.2572  0.4682 -0.2185
    5SAPS  C313  647   3.082   5.700   4.949 -0.0984  0.4539  0.1167
    5SAPS  H13X  648   2.979   5.660   4.958  0.1628 -0.6461 -1.3085
    5SAPS  H13Y  649   3.137   5.617   4.899 -1.2254  0.0269 -0.4523
    5SAPS  C314  650   3.095   5.824   4.865  0.0676  0.0570 -0.4236
    5SAPS  H14X  651   3.204   5.834   4.846  0.5528 -1.8463  1.0472
    5SAPS  H14Y  652   3.062   5.916   4.919  0.0879 -1.4904  2.4462
    5SAPS  C315  653   3.024   5.818   4.734 -0.6130 -1.1127  0.6110
    5SAPS  H15X  654   3.071   5.900   4.674 -2.5484 -0.1736  0.3056
    5SAPS  H15Y  655   2.918   5.849   4.738 -0.5480 -0.7163 -0.5745
    5SAPS  C316  656   3.045   5.694   4.656 -0.0037  0.4524 -0.5867
    5SAPS  H16X  657   3.011   5.611   4.723 -1.9255  3.1819  2.0978
    5SAPS  H16Y  658   3.156   5.686   4.653  0.0478  1.2136 -0.8832
    5SAPS  C317  659   2.985   5.690   4.516 -0.1789 -0.2254  0.4759
    5SAPS  H17X  660   3.008   5.782   4.458 -1.4418  0.7425  1.4105
    5SAPS  H17Y  661   2.874   5.691   4.524 -0.3823 -0.0939 -1.8276
    5SAPS  C318  662   3.031   5.564   4.438 -0.5925 -0.7994 -0.0155
    5SAPS  H18X  663   3.137   5.544   4.463  0.4162  1.7476 -1.8139
    5SAPS  H18Y  664   3.028   5.588   4.330  0.2173  0.7366  0.2725
    5SAPS  H18Z  665   2.952   5.490   4.461 -2.8370  0.7842 -2.1066
    6SAPS     N  666   6.555   2.703   6.905  0.3458  0.0361 -0.1323
    6SAPS   HN1  667   6.575   2.654   6.816  0.4045  1.9529 -1.2288
    6SAPS   HN2  668   6.459   2.694   6.945 -0.1293  1.1656 -0.9627
    6SAPS   HN3  669   6.575   2.803   6.883 -2.8040  0.2733 -2.6933
    6SAPS   C12  670   6.647   2.650   7.001  0.6325  0.9362 -0.1737
    6SAPS  H12A  671   6.624   2.709   7.088 -4.2842 -1.3214  0.3856
    6SAPS   C13  672   6.619   2.504   7.051  0.4339 -0.6948 -0.2049
    6SAPS  O13A  673   6.516   2.441   7.020  0.2358  0.3053  0.8440
    6SAPS  O13B  674   6.692   2.454   7.140  0.1680 -0.4310 -0.0429
    6SAPS   C11  675   6.793   2.661   6.950 -0.8775 -0.8239 -1.0081
    6SAPS  H11A  676   6.799   2.597   6.860  0.3811 -3.3883  0.7689
    6SAPS  H11B  677   6.855   2.620   7.032 -2.0154  0.6181  0.6582
    6SAPS     P  678   6.973   2.821   6.862 -0.1284 -0.2928 -0.2741
    6SAPS   O13  679   7.013   2.957   6.885  0.1181  0.8802 -0.3493
    6SAPS   O14  680   7.068   2.723   6.916  0.4672 -0.5722  0.1491
    6SAPS   O12  681   6.827   2.801   6.928 -0.5853 -0.4998  0.0293
    6SAPS   O11  682   6.958   2.781   6.708 -0.2598  0.5789 -0.2222
    6SAPS    C1  683   6.854   2.837   6.626  0.1119 -0.2253 -0.0832
    6SAPS    HA  684   6.782   2.765   6.582  0.3186 -1.2204  1.1490
    6SAPS    HB  685   6.787   2.898   6.689 -2.3846 -0.8970 -1.9332
    6SAPS    C2  686   6.920   2.912   6.504  0.0424  0.3368  0.5940
    6SAPS    HS  687   6.848   2.974   6.447  0.7184  0.5921  0.0018
    6SAPS   O21  688   6.992   2.820   6.413  0.1182 -0.1611  0.6630
    6SAPS   C21  689   6.909   2.755   6.331 -0.4395 -0.3040  0.0793
    6SAPS   O22  690   6.786   2.761   6.329 -0.0701 -0.3625 -0.6731
    6SAPS   C22  691   6.997   2.666   6.239 -0.3437 -0.3892  0.6931
    6SAPS   H2R  692   7.037   2.589   6.309  2.4167 -0.3456 -0.7236
    6SAPS   H2S  693   6.923   2.619   6.171  1.0978 -0.7706 -0.6441
    6SAPS    C3  694   7.020   3.021   6.550 -0.7966  0.7713 -0.0963
    6SAPS    HX  695   7.100   2.983   6.617  0.8009  1.7485 -1.3717
    6SAPS    HY  696   6.968   3.098   6.612 -0.2760  0.4874  0.7036
    6SAPS   O31  697   7.064   3.100   6.434 -0.0593 -0.5484 -0.2221
    6SAPS   C31  698   7.154   3.201   6.459 -0.4492  0.2798  0.1770
    6SAPS   O32  699   7.214   3.214   6.566 -0.0950 -0.1177  0.3828
    6SAPS   C32  700   7.170   3.283   6.335  0.3172 -0.1001 -0.6665
    6SAPS   H2X  701   7.274   3.279   6.297  1.2611  1.0850  1.6000
    6SAPS   H2Y  702   7.177   3.391   6.359  0.1280 -0.0920 -0.6434
    6SAPS   C23  703   7.109   2.747   6.172 -0.8753 -0.3833 -0.0980
    6SAPS   H3R  704   7.170   2.670   6.121  0.7691 -0.1011  1.3430
    6SAPS   H3S  705   7.175   2.804   6.241  0.0826 -2.0790  0.4480
    6SAPS   C24  706   7.060   2.848   6.072  0.3383 -0.7669  0.1335
    6SAPS   H4R  707   7.151   2.885   6.020 -0.4552  0.3522 -0.4878
    6SAPS   H4S  708   7.012   2.938   6.117 -4.0102 -2.4817 -0.5551
    6SAPS   C25  709   6.959   2.794   5.976 -0.0350  0.0638  0.6809
    6SAPS   H5R  710   6.867   2.757   6.024  0.6913 -1.3524  1.0366
    6SAPS   C26  711   6.954   2.812   5.842  0.3107  0.8076 -0.0992
    6SAPS   H6R  712   6.881   2.759   5.779  0.2903 -0.1986  0.7436
    6SAPS   C27  713   7.052   2.889   5.747 -0.5630  1.0205  0.0006
    6SAPS   H7R  714   7.129   2.819   5.707 -0.4371  1.1387  0.0366
    6SAPS   H7S  715   7.103   2.963   5.812 -2.0944  1.5080  0.6942
    6SAPS   C28  716   6.978   2.960   5.631  0.4533 -0.0747  0.1291
    6SAPS   H8R  717   6.959   3.067   5.644  2.0764  0.1545  0.8609
    6SAPS   C29  718   6.951   2.908   5.508  0.0772  0.1743 -0.3052
    6SAPS   H9R  719   6.897   2.967   5.433 -2.6557 -1.2749  0.3760
    6SAPS  C210  720   6.990   2.765   5.472 -0.5745  0.1802  0.5909
    6SAPS  H10R  721   7.096   2.753   5.505 -0.9284 -0.0607  1.6719
    6SAPS  H10S  722   6.991   2.760   5.361  0.2980 -1.7911  0.6445
    6SAPS  C211  723   6.901   2.655   5.525  0.0704 -0.2409  0.0162
    6SAPS  H11R  724   6.918   2.622   5.629 -1.3108 -1.5335 -0.1404
    6SAPS  C212  725   6.827   2.558   5.454 -0.6986 -0.2524  0.3440
    6SAPS  H12R  726   6.788   2.483   5.524  1.2199  1.3046  3.3008
    6SAPS  C213  727   6.798   2.554   5.300 -0.4956 -0.0821 -0.3089
    6SAPS  H13R  728   6.891   2.516   5.254 -1.1605 -0.2848 -1.5232
    6SAPS  H13S  729   6.792   2.660   5.269 -1.3086 -0.2754 -0.8518
    6SAPS  C214  730   6.683   2.465   5.262 -0.1781  0.0718  0.1084
    6SAPS  H14R  731   6.612   2.422   5.334  0.1534 -2.7264 -1.0937
    6SAPS  C215  732   6.660   2.424   5.138  0.5254  0.0488  0.0604
    6SAPS  H15R  733   6.582   2.347   5.126 -1.0435  1.6520 -0.3787
    6SAPS  C216  734   6.756   2.451   5.024 -0.0454 -0.7770 -0.2753
    6SAPS  H16R  735   6.739   2.374   4.945  2.3925 -0.7121 -0.9359
    6SAPS  H16S  736   6.865   2.451   5.047  0.5876  1.3493 -2.8082
    6SAPS  C217  737   6.734   2.588   4.957 -0.0949  0.5248 -0.3127
    6SAPS  H17R  738   6.705   2.673   5.022  1.4997  0.6453  0.3056
    6SAPS  H17S  739   6.648   2.575   4.888 -1.8845 -0.4599  1.9568
    6SAPS  C218  740   6.855   2.644   4.877 -0.3043 -0.8732 -0.2943
    6SAPS  H18R  741   6.943   2.661   4.943 -0.4946  0.3847 -0.3280
    6SAPS  H18S  742   6.830   2.743   4.832 -2.1477 -1.5653 -0.8950
    6SAPS  C219  743   6.880   2.562   4.751 -0.2025 -0.2452 -0.0818
    6SAPS  H19R  744   6.802   2.483   4.743 -1.8905  1.3850 -0.3631
    6SAPS  H19S  745   6.970   2.502   4.780 -0.1284  1.2744  3.3799
    6SAPS  C220  746   6.898   2.623   4.612 -0.2212  0.5624 -0.5889
    6SAPS  H20R  747   6.995   2.674   4.595  0.2516 -0.1941 -0.2089
    6SAPS  H20S  748   6.811   2.688   4.590 -1.4265 -0.6176  0.5429
    6SAPS  H20T  749   6.910   2.543   4.536  2.2052  0.2412  0.0541
    6SAPS   C33  750   7.062   3.265   6.223 -0.6566 -0.8961 -1.1983
    6SAPS   H3X  751   6.958   3.275   6.260 -0.2882  1.4538 -0.6408
    6SAPS   H3Y  752   7.078   3.161   6.186  2.8613 -2.0665  2.7509
    6SAPS   C34  753   7.089   3.363   6.105 -0.2600  0.6054  0.5159
    6SAPS   H4X  754   7.193   3.349   6.068  0.2210 -0.6200  2.2122
    6SAPS   H4Y  755   7.065   3.465   6.142 -2.0419  0.4682 -0.1572
    6SAPS   C35  756   6.995   3.338   5.991  0.2064 -0.5456  0.5391
    6SAPS   H5X  757   6.889   3.354   6.019  0.8556  1.4558  2.0725
    6SAPS   H5Y  758   6.998   3.231   5.960 -0.7911 -0.7352  1.0543
    6SAPS   C36  759   7.032   3.427   5.871  0.2461 -0.5051  0.1599
    6SAPS   H6X  760   7.134   3.397   5.839  0.1645 -0.5438 -0.0653
    6SAPS   H6Y  761   7.044   3.533   5.903  0.2015  0.2338 -2.1250
    6SAPS   C37  762   6.937   3.419   5.756 -0.6075  0.0448 -0.2630
    6SAPS   H7X  763   6.840   3.454   5.798  0.2828 -0.6742  2.5426
    6SAPS   H7Y  764   6.928   3.311   5.735  0.8306  0.0662 -1.1295
    6SAPS   C38  765   6.991   3.494   5.629 -0.4330 -0.2682  0.1621
    6SAPS   H8X  766   7.084   3.442   5.599 -0.6288  0.0045 -0.9554
    6SAPS   H8Y  767   7.020   3.598   5.658 -1.0921  0.4078 -1.4894
    6SAPS   C39  768   6.890   3.507   5.513  0.1210 -0.1819  0.4644
    6SAPS   H9X  769   6.796   3.546   5.557 -0.3353 -2.2917  1.5107
    6SAPS   H9Y  770   6.874   3.418   5.448 -1.6997  0.5892 -0.2167
    6SAPS  C310  771   6.941   3.620   5.421  0.1697 -0.1501 -0.5951
    6SAPS  H10X  772   7.036   3.594   5.370  0.3389  0.2942 -0.5121
    6SAPS  H10Y  773   6.972   3.708   5.480  1.8720 -0.5211 -0.9010
    6SAPS  C311  774   6.833   3.666   5.318 -0.4617  0.2096 -0.0725
    6SAPS  H11X  775   6.739   3.693   5.370 -0.2909  0.0517  0.3234
    6SAPS  H11Y  776   6.812   3.575   5.258  0.4800  0.3227 -0.5910
    6SAPS  C312  777   6.882   3.778   5.226 -0.2906 -0.8141 -0.2378
    6SAPS  H12X  778   6.952   3.733   5.153 -1.2585 -0.1112 -1.6233
    6SAPS  H12Y  779   6.935   3.855   5.287 -3.6731  1.7514 -0.2745
    6SAPS  C313  780   6.778   3.844   5.144 -0.9092  0.1740 -0.1081
    6SAPS  H13X  781   6.708   3.899   5.211  1.1020 -1.0411  3.2022
    6SAPS  H13Y  782   6.718   3.762   5.100 -3.0979  0.8581  1.4130
    6SAPS  C314  783   6.825   3.950   5.040 -0.0228  0.6445  0.3206
    6SAPS  H14X  784   6.737   3.962   4.972 -0.1492  0.1380  0.3902
    6SAPS  H14Y  785   6.911   3.904   4.987  1.2967  3.2197  0.0837
    6SAPS  C315  786   6.882   4.078   5.100 -0.3174 -0.5815 -0.2100
    6SAPS  H15X  787   6.905   4.146   5.015 -1.1519 -2.6168 -2.1609
    6SAPS  H15Y  788   6.980   4.052   5.144  1.2875  2.7172 -1.4437
    6SAPS  C316  789   6.792   4.142   5.203  0.1425  0.2796  0.4424
    6SAPS  H16X  790   6.783   4.062   5.280 -0.8632 -1.4027 -1.3386
    6SAPS  H16Y  791   6.695   4.150   5.150  0.6477 -0.2227 -0.5771
    6SAPS  C317  792   6.823   4.271   5.280 -0.7341  0.3075 -0.5511
    6SAPS  H17X  793   6.897   4.245   5.358 -0.8619 -0.1432 -0.5804
    6SAPS  H17Y  794   6.732   4.314   5.328  0.9629  1.2676  2.0232
    6SAPS  C318  795   6.893   4.373   5.192  0.2389 -0.7594  0.6947
    6SAPS  H18X  796   6.891   4.479   5.225  1.4403 -0.3562 -0.4376
    6SAPS  H18Y  797   6.852   4.372   5.088  1.2507 -0.4822  0.2813
    6SAPS  H18Z  798   7.000   4.345   5.181  1.4717  3.0388  1.5063
    7SAPS     N  799   1.228   0.439   6.824  0.3613  0.2089  0.1370
    7SAPS   HN1  800   1.284   0.447   6.912 -0.8587  1.5453  0.8409
    7SAPS   HN2  801   1.288   0.447   6.739 -2.1693  0.6666 -1.7126
    7SAPS   HN3  802   1.155   0.512   6.834  0.1441 -0.0453  0.4006
    7SAPS   C12  803   1.163   0.306   6.823 -0.1810  0.0713  0.4265
    7SAPS  H12A  804   1.234   0.224   6.826 -1.5886 -1.1656  2.2377
    7SAPS   C13  805   1.058   0.286   6.938  0.0195  0.2172 -0.4827
    7SAPS  O13A  806   1.015   0.378   7.009  0.0914  0.3490  0.7137
    7SAPS  O13B  807   1.008   0.170   6.937  0.2236  0.3750  0.9666
    7SAPS   C11  808   1.077   0.305   6.700  0.9796  0.2416 -0.3712
    7SAPS  H11A  809   1.002   0.387   6.689  0.3225 -0.4941 -1.6077
    7SAPS  H11B  810   1.010   0.216   6.710  0.2758  0.3977 -2.8540
    7SAPS     P  811   1.142   0.400   6.458  0.1943  0.4212  0.1666
    7SAPS   O13  812   1.189   0.530   6.501 -0.2184 -0.9268 -0.6558
    7SAPS   O14  813   1.212   0.340   6.344 -0.2011  0.5977  0.0672
    7SAPS   O12  814   1.154   0.291   6.582 -0.3832 -0.0148 -0.2777
    7SAPS   O11  815   0.988   0.422   6.437  0.7958 -0.3732 -0.1412
    7SAPS    C1  816   0.902   0.309   6.415 -0.0226 -0.8878  0.0611
    7SAPS    HA  817   0.932   0.257   6.321 -0.1808  1.6678 -1.4757
    7SAPS    HB  818   0.912   0.240   6.502 -0.1130  0.4798  1.1779
    7SAPS    C2  819   0.757   0.336   6.402 -0.3173 -0.2749  0.4015
    7SAPS    HS  820   0.699   0.242   6.393 -2.8624  1.1274  1.0654
    7SAPS   O21  821   0.724   0.416   6.282 -1.0530 -0.0619  0.3466
    7SAPS   C21  822   0.733   0.359   6.167 -0.3076 -0.7505 -0.0814
    7SAPS   O22  823   0.764   0.243   6.149  0.0746 -0.5899  0.4566
    7SAPS   C22  824   0.725   0.455   6.049  0.1955  0.4001 -0.4817
    7SAPS   H2R  825   0.626   0.503   6.064  1.1348  2.4119 -0.4050
    7SAPS   H2S  826   0.811   0.525   6.054  0.8952 -0.1807 -2.9576
    7SAPS    C3  827   0.699   0.412   6.525  0.1254 -0.2889 -0.1534
    7SAPS    HX  828   0.772   0.493   6.545  1.2097 -1.0829 -0.8552
    7SAPS    HY  829   0.706   0.346   6.614 -1.4518  0.5304  0.6444
    7SAPS   O31  830   0.556   0.446   6.519  0.5989 -0.2915 -0.4226
    7SAPS   C31  831   0.508   0.558   6.458  0.2737 -0.3631  0.5213
    7SAPS   O32  832   0.578   0.647   6.408 -0.4802  0.0745  0.4602
    7SAPS   C32  833   0.361   0.572   6.459  0.6293  0.0932 -0.1372
    7SAPS   H2X  834   0.333   0.648   6.383 -0.0415  0.6060  0.6090
    7SAPS   H2Y  835   0.339   0.622   6.555 -1.7445 -0.7213 -0.2087
    7SAPS   C23  836   0.741   0.388   5.908 -0.2327  0.3382  0.4039
    7SAPS   H3R  837   0.659   0.318   5.881  1.1012  0.0819 -3.6294
    7SAPS   H3S  838   0.839   0.337   5.915 -0.3755  0.0239  0.1114
    7SAPS   C24  839   0.756   0.483   5.786 -0.4955 -0.1943  0.0117
    7SAPS   H4R  840   0.674   0.557   5.803 -0.5767 -0.8024  2.9355
    7SAPS   H4S  841   0.712   0.435   5.696 -0.8680  1.2078 -0.5779
    7SAPS   C25  842   0.892   0.548   5.781 -0.0862 -0.1874 -0.5037
    7SAPS   H5R  843   0.947   0.566   5.874  0.3736  2.2857 -1.1839
    7SAPS   C26  844   0.962   0.568   5.670 -0.2034  0.2048  0.1950
    7SAPS   H6R  845   1.066   0.604   5.676  0.1177 -0.6645  0.0866
    7SAPS   C27  846   0.909   0.553   5.531  0.2321  0.6704 -0.3380
    7SAPS   H7R  847   0.913   0.656   5.489  0.1856 -0.2193 -2.6578
    7SAPS   H7S  848   0.803   0.526   5.514 -0.1507  1.8216  0.0960
    7SAPS   C28  849   0.998   0.461   5.446 -0.1678 -0.6858  0.6140
    7SAPS   H8R  850   0.989   0.356   5.478  0.6530 -1.0199 -0.2113
    7SAPS   C29  851   1.083   0.501   5.348 -0.6379  0.3314 -0.5739
    7SAPS   H9R  852   1.149   0.423   5.307 -0.7825 -0.9029  1.4276
    7SAPS  C210  853   1.120   0.643   5.310  0.3450  0.2825  0.0065
    7SAPS  H10R  854   1.106   0.705   5.401 -2.0153 -2.0880  1.4053
    7SAPS  H10S  855   1.058   0.697   5.235 -0.4606  2.2440  1.9874
    7SAPS  C211  856   1.264   0.661   5.267  0.4526 -0.5568  0.5346
    7SAPS  H11R  857   1.334   0.680   5.349  1.1749 -0.7540 -0.0244
    7SAPS  C212  858   1.313   0.635   5.143 -0.2475 -0.4048 -0.3465
    7SAPS  H12R  859   1.419   0.651   5.121  0.1355  0.1004  1.6558
    7SAPS  C213  860   1.228   0.615   5.019 -0.1860  0.1905 -0.2526
    7SAPS  H13R  861   1.158   0.702   5.019  0.7273  0.9569 -1.1199
    7SAPS  H13S  862   1.169   0.521   5.030  1.2068 -0.6419  0.3558
    7SAPS  C214  863   1.292   0.608   4.875  0.7038 -0.1947 -0.0806
    7SAPS  H14R  864   1.321   0.708   4.841 -1.3601  1.0598  1.5719
    7SAPS  C215  865   1.281   0.508   4.784 -0.5194  0.7401 -0.1482
    7SAPS  H15R  866   1.327   0.518   4.685 -0.3259 -0.5462 -0.2024
    7SAPS  C216  867   1.227   0.369   4.814 -0.0002  0.6693  0.0594
    7SAPS  H16R  868   1.245   0.342   4.920  0.9611  0.1930 -0.2172
    7SAPS  H16S  869   1.269   0.292   4.746 -1.5417 -0.4024  0.2598
    7SAPS  C217  870   1.075   0.381   4.803 -0.3504  0.3859 -0.0183
    7SAPS  H17R  871   1.040   0.405   4.700  0.7887 -1.4087 -0.8862
    7SAPS  H17S  872   1.044   0.470   4.861 -2.3220  0.7753 -1.5671
    7SAPS  C218  873   0.998   0.266   4.864  0.5862 -0.0038  0.3665
    7SAPS  H18R  874   1.030   0.239   4.966  0.5607  0.2365  0.4387
    7SAPS  H18S  875   1.008   0.179   4.796 -0.6785 -0.5089  0.8013
    7SAPS  C219  876   0.851   0.310   4.873  0.1317 -0.1156 -0.8473
    7SAPS  H19R  877   0.785   0.222   4.857 -1.0869  0.8083 -0.9698
    7SAPS  H19S  878   0.828   0.394   4.805  0.4688 -0.1392 -0.9955
    7SAPS  C220  879   0.813   0.364   5.012  0.2408 -0.4465  0.7861
    7SAPS  H20R  880   0.864   0.462   5.022 -0.1574  0.2664 -2.8201
    7SAPS  H20S  881   0.842   0.287   5.086  0.7763 -0.8956  0.1204
    7SAPS  H20T  882   0.704   0.388   5.015  0.5100  1.0454 -0.1650
    7SAPS   C33  883   0.292   0.444   6.431  0.2794  0.5114  0.4190
    7SAPS   H3X  884   0.186   0.471   6.415 -0.3810 -1.7139  0.6026
    7SAPS   H3Y  885   0.312   0.382   6.521  2.5106 -1.9757 -1.5981
    7SAPS   C34  886   0.327   0.377   6.292 -0.2552  0.3419 -0.7884
    7SAPS   H4X  887   0.262   0.287   6.287 -0.4623  0.5311 -1.7191
    7SAPS   H4Y  888   0.425   0.329   6.314 -0.8472 -0.7278 -0.4240
    7SAPS   C35  889   0.313   0.469   6.174  0.1698 -0.1498  0.4816
    7SAPS   H5X  890   0.382   0.555   6.184 -0.1067  0.0151  1.0565
    7SAPS   H5Y  891   0.212   0.515   6.169 -0.4577 -1.5493 -0.5006
    7SAPS   C36  892   0.335   0.392   6.050 -0.1631  0.2500  0.6889
    7SAPS   H6X  893   0.248   0.325   6.039  0.6596 -0.8447  0.6514
    7SAPS   H6Y  894   0.419   0.320   6.058 -0.1175  0.2530  0.2295
    7SAPS   C37  895   0.343   0.488   5.932 -0.0424  0.1230  0.5591
    7SAPS   H7X  896   0.435   0.550   5.936  1.1760 -1.6609  2.5463
    7SAPS   H7Y  897   0.259   0.560   5.937 -0.8782 -0.6646 -1.2383
    7SAPS   C38  898   0.328   0.411   5.798 -0.2060 -0.3383  0.1877
    7SAPS   H8X  899   0.243   0.342   5.781  1.2356 -2.1135 -0.0575
    7SAPS   H8Y  900   0.413   0.340   5.802  0.4575  0.4126 -0.1456
    7SAPS   C39  901   0.350   0.505   5.686 -0.4032  0.4720  0.0495
    7SAPS   H9X  902   0.451   0.552   5.682 -0.7883  1.3153  0.0162
    7SAPS   H9Y  903   0.291   0.596   5.707  1.1166  1.5494 -0.1542
    7SAPS  C310  904   0.317   0.442   5.553  0.3503  0.0003 -0.8375
    7SAPS  H10X  905   0.207   0.441   5.544 -0.0750  3.4952  1.9220
    7SAPS  H10Y  906   0.351   0.336   5.562 -0.4000 -0.2142 -0.4823
    7SAPS  C311  907   0.374   0.524   5.435 -0.0193  0.0737  0.3316
    7SAPS  H11X  908   0.485   0.528   5.438  0.2270 -3.5621  2.8497
    7SAPS  H11Y  909   0.361   0.634   5.434  3.1248  0.5102 -0.3195
    7SAPS  C312  910   0.323   0.469   5.301 -0.5190  1.1337  0.0029
    7SAPS  H12X  911   0.216   0.443   5.310 -0.1504 -0.2214  0.8472
    7SAPS  H12Y  912   0.378   0.374   5.281  1.4876  1.4355  3.3843
    7SAPS  C313  913   0.336   0.577   5.189  0.1670 -0.1282 -0.8246
    7SAPS  H13X  914   0.442   0.610   5.199 -0.5996  2.6401 -0.8220
    7SAPS  H13Y  915   0.286   0.675   5.207  1.3299  0.4628 -0.7083
    7SAPS  C314  916   0.311   0.519   5.048 -1.0847 -0.1867 -0.1883
    7SAPS  H14X  917   0.205   0.504   5.018 -1.3632 -1.1572  1.1965
    7SAPS  H14Y  918   0.353   0.416   5.036  1.0069  0.7411 -1.3505
    7SAPS  C315  919   0.377   0.607   4.934  0.0841 -0.1599  0.3628
    7SAPS  H15X  920   0.487   0.607   4.951 -0.0306  1.6389  1.2667
    7SAPS  H15Y  921   0.340   0.710   4.950 -0.9962 -0.6908  1.4860
    7SAPS  C316  922   0.339   0.551   4.794 -0.0588  0.3564  0.3561
    7SAPS  H16X  923   0.228   0.557   4.787  0.0280  2.1688 -0.0662
    7SAPS  H16Y  924   0.395   0.458   4.772 -0.5550 -0.2464  1.5704
    7SAPS  C317  925   0.390   0.651   4.683 -0.3540 -0.1050  0.2334
    7SAPS  H17X  926   0.501   0.648   4.682 -0.3574 -0.2825  0.2281
    7SAPS  H17Y  927   0.347   0.750   4.707 -0.8296 -0.6384  1.6751
    7SAPS  C318  928   0.336   0.599   4.550  0.0491 -0.6141 -0.2129
    7SAPS  H18X  929   0.238   0.650   4.535  1.2020  2.0195  0.7690
    7SAPS  H18Y  930   0.328   0.488   4.546 -2.0827 -0.4820 -1.4474
    7SAPS  H18Z  931   0.405   0.621   4.466 -1.0810  0.9411 -0.7749
    8SAPS     N  932   1.140   0.798   6.530  0.1727  0.1410 -0.3379
    8SAPS   HN1  933   1.214   0.796   6.457  0.6242 -0.8087  0.1196
    8SAPS   HN2  934   1.125   0.696   6.547 -0.6765  0.1569 -0.9496
    8SAPS   HN3  935   1.056   0.845   6.490  0.4034  1.4085  0.6255
    8SAPS   C12  936   1.187   0.876   6.651 -0.0454  0.5189  0.0254
    8SAPS  H12A  937   1.125   0.964   6.651 -0.4656  0.2846 -2.0425
    8SAPS   C13  938   1.142   0.812   6.777  0.1977  0.6143 -0.5960
    8SAPS  O13A  939   1.069   0.702   6.781 -0.0161 -0.0304  0.3210
    8SAPS  O13B  940   1.160   0.873   6.884  0.4918 -0.2335 -0.3176
    8SAPS   C11  941   1.343   0.909   6.646 -0.2425  0.5791  0.0492
    8SAPS  H11A  942   1.398   0.813   6.637  1.8407  1.5925  1.2515
    8SAPS  H11B  943   1.365   0.959   6.743 -0.0190 -0.3720  0.5019
    8SAPS     P  944   1.495   1.080   6.520 -0.0683  0.1069 -0.1270
    8SAPS   O13  945   1.497   1.178   6.632  0.4841 -0.0362 -0.1893
    8SAPS   O14  946   1.617   0.993   6.501  0.1862 -0.0803  0.0198
    8SAPS   O12  947   1.363   0.999   6.533 -0.2133 -0.0549  0.0602
    8SAPS   O11  948   1.484   1.159   6.387  0.3968 -0.0394  0.4616
    8SAPS    C1  949   1.359   1.157   6.311 -0.0603  0.0699  0.4072
    8SAPS    HA  950   1.317   1.054   6.312  2.7614 -1.2186 -1.6039
    8SAPS    HB  951   1.282   1.224   6.355  0.1007  1.2690 -1.0778
    8SAPS    C2  952   1.391   1.199   6.169  0.4336 -0.5030  0.0635
    8SAPS    HS  953   1.312   1.166   6.098  0.4951  1.2693 -0.8617
    8SAPS   O21  954   1.523   1.158   6.128 -0.1881  0.4189  0.2823
    8SAPS   C21  955   1.524   1.033   6.077  0.5176  0.3362 -0.0683
    8SAPS   O22  956   1.420   0.961   6.067  0.2450 -1.0535 -0.0344
    8SAPS   C22  957   1.657   0.998   6.016  0.8817 -0.3121 -0.0874
    8SAPS   H2R  958   1.724   1.082   6.043 -0.7904  0.8497  0.6358
    8SAPS   H2S  959   1.679   0.900   6.064  0.2974  0.0909  1.0549
    8SAPS    C3  960   1.378   1.352   6.156  0.5596 -0.0849  0.0244
    8SAPS    HX  961   1.462   1.389   6.219  1.5647 -0.8346 -0.8480
    8SAPS    HY  962   1.283   1.381   6.206  0.2749 -2.7293  1.1780
    8SAPS   O31  963   1.393   1.399   6.023 -0.1167  0.6834  0.6416
    8SAPS   C31  964   1.287   1.435   5.950 -0.2202 -0.0939 -0.0746
    8SAPS   O32  965   1.170   1.417   5.978  0.1652  0.3280  0.2311
    8SAPS   C32  966   1.333   1.474   5.806 -0.1649 -0.1278  0.6006
    8SAPS   H2X  967   1.341   1.375   5.756  2.2121  1.3307 -2.2275
    8SAPS   H2Y  968   1.434   1.520   5.806 -0.0554 -0.2924 -1.3144
    8SAPS   C23  969   1.653   0.988   5.864  0.2953 -0.2692  0.2333
    8SAPS   H3R  970   1.602   1.076   5.819 -0.0048  0.0633  1.1969
    8SAPS   H3S  971   1.588   0.904   5.832 -0.5337  0.1050  0.8769
    8SAPS   C24  972   1.796   0.965   5.808 -0.3107 -0.3428 -0.3700
    8SAPS   H4R  973   1.849   1.050   5.856  1.0346 -0.7268 -1.1084
    8SAPS   H4S  974   1.810   0.974   5.698 -1.2562 -1.6602 -0.6205
    8SAPS   C25  975   1.861   0.838   5.865 -0.4743 -0.1109  0.1327
    8SAPS   H5R  976   1.862   0.825   5.974 -1.8420 -3.6660 -0.1312
    8SAPS   C26  977   1.896   0.731   5.798 -0.0692  0.3617 -0.6099
    8SAPS   H6R  978   1.959   0.656   5.850 -0.6418  0.8219  0.8011
    8SAPS   C27  979   1.891   0.732   5.647 -0.9555 -0.7705 -1.0803
    8SAPS   H7R  980   1.936   0.821   5.599 -1.0481 -0.1363 -0.0303
    8SAPS   H7S  981   1.787   0.745   5.610 -0.1830  1.6080 -2.6368
    8SAPS   C28  982   1.964   0.614   5.586  0.2772 -1.1795 -0.5242
    8SAPS   H8R  983   1.946   0.518   5.636  0.1565 -1.6066 -1.3748
    8SAPS   C29  984   2.028   0.613   5.466  0.0298  0.2103 -0.1736
    8SAPS   H9R  985   2.074   0.518   5.433 -2.2402 -1.1380  0.3890
    8SAPS  C210  986   2.060   0.727   5.376 -0.1454  0.8641  0.1859
    8SAPS  H10R  987   2.167   0.755   5.380  0.4710 -1.4015  2.3694
    8SAPS  H10S  988   1.989   0.809   5.400 -1.2698  0.2722 -0.9795
    8SAPS  C211  989   2.033   0.688   5.231  0.7622  0.5004 -0.7125
    8SAPS  H11R  990   2.120   0.632   5.194  0.6028 -0.3274  0.1522
    8SAPS  C212  991   1.933   0.713   5.150  0.3938  0.2981 -0.1331
    8SAPS  H12R  992   1.924   0.659   5.054  0.0152 -1.0732  0.6532
    8SAPS  C213  993   1.804   0.776   5.197 -0.4253 -0.0163  0.1449
    8SAPS  H13R  994   1.830   0.883   5.184  0.8362 -0.4320 -0.8567
    8SAPS  H13S  995   1.787   0.769   5.307 -0.1002 -0.9311  0.1499
    8SAPS  C214  996   1.676   0.734   5.124  0.6942 -0.3933 -0.4746
    8SAPS  H14R  997   1.605   0.677   5.185 -1.2694  1.5079 -0.8813
    8SAPS  C215  998   1.625   0.778   5.008 -0.1314  0.3453 -0.6375
    8SAPS  H15R  999   1.525   0.744   4.977 -0.0273 -0.1885 -0.4026
    8SAPS  C216 1000   1.690   0.870   4.912  0.0987  0.4450 -0.0684
    8SAPS  H16R 1001   1.790   0.901   4.949 -1.0862  1.2463  2.8072
    8SAPS  H16S 1002   1.634   0.965   4.914 -1.2562 -0.3171 -0.3952
    8SAPS  C217 1003   1.709   0.809   4.768  0.2799 -0.4235 -0.7251
    8SAPS  H17R 1004   1.776   0.723   4.787  0.4539  0.0771  1.0983
    8SAPS  H17S 1005   1.767   0.881   4.708  1.3486  0.4433  1.2603
    8SAPS  C218 1006   1.577   0.763   4.700  0.1978  0.4414  0.6970
    8SAPS  H18R 1007   1.505   0.841   4.734  1.0749  1.4169  0.3656
    8SAPS  H18S 1008   1.552   0.662   4.740 -0.8215 -0.2888 -1.6185
    8SAPS  C219 1009   1.586   0.753   4.544 -1.3126  0.3448  0.0055
    8SAPS  H19R 1010   1.658   0.672   4.521 -0.9171  0.7106 -0.0510
    8SAPS  H19S 1011   1.625   0.846   4.497 -0.3470 -0.8603 -1.6806
    8SAPS  C220 1012   1.455   0.721   4.480  0.0770 -0.4988 -0.3270
    8SAPS  H20R 1013   1.472   0.728   4.370 -0.8822 -0.8903 -0.5095
    8SAPS  H20S 1014   1.384   0.801   4.508 -0.0844 -0.4594 -0.8303
    8SAPS  H20T 1015   1.419   0.620   4.509 -1.8037  0.3398  0.3711
    8SAPS   C33 1016   1.242   1.562   5.707  0.7488  0.3271  0.4396
    8SAPS   H3X 1017   1.159   1.493   5.678  0.7334  0.6871 -0.4038
    8SAPS   H3Y 1018   1.301   1.583   5.615  0.3537 -1.3304 -0.2311
    8SAPS   C34 1019   1.190   1.685   5.771  0.1646 -0.8301  0.1201
    8SAPS   H4X 1020   1.262   1.768   5.785 -2.3406  1.1992  1.9394
    8SAPS   H4Y 1021   1.145   1.655   5.869  1.1784  0.3092  0.9565
    8SAPS   C35 1022   1.079   1.746   5.680 -0.3040  0.2090 -0.0725
    8SAPS   H5X 1023   1.022   1.827   5.730 -2.3041  0.3798 -2.4257
    8SAPS   H5Y 1024   1.010   1.668   5.644  2.8188 -2.2599 -1.2154
    8SAPS   C36 1025   1.151   1.808   5.562  0.7984 -0.7669  0.0224
    8SAPS   H6X 1026   1.259   1.782   5.561  0.7772 -0.9543  1.1192
    8SAPS   H6Y 1027   1.149   1.917   5.580 -0.0930 -0.8095  0.2103
    8SAPS   C37 1028   1.088   1.771   5.423 -0.4206 -0.2684  0.1883
    8SAPS   H7X 1029   0.994   1.831   5.417 -0.8076 -0.9987 -2.1074
    8SAPS   H7Y 1030   1.077   1.661   5.415  0.0560 -0.2753 -0.5168
    8SAPS   C38 1031   1.179   1.820   5.311  0.4174 -0.1700 -0.4274
    8SAPS   H8X 1032   1.283   1.783   5.315  1.1272  1.7130  3.2741
    8SAPS   H8Y 1033   1.193   1.927   5.338 -0.8104  0.1678 -1.0273
    8SAPS   C39 1034   1.112   1.828   5.178  0.1323 -0.8983 -0.4113
    8SAPS   H9X 1035   1.026   1.897   5.166  1.1161  0.1494 -1.7032
    8SAPS   H9Y 1036   1.071   1.725   5.166  0.7172 -1.3104  0.9630
    8SAPS  C310 1037   1.207   1.860   5.066 -0.3413 -0.4671 -0.7050
    8SAPS  H10X 1038   1.274   1.771   5.066 -2.1225 -1.8825 -2.1660
    8SAPS  H10Y 1039   1.272   1.950   5.077  1.8399 -1.3915 -4.4473
    8SAPS  C311 1040   1.138   1.871   4.938 -0.6063 -0.6507 -0.0723
    8SAPS  H11X 1041   1.218   1.862   4.861  1.3349  0.7509  1.6546
    8SAPS  H11Y 1042   1.085   1.969   4.937 -0.0253 -0.3114 -2.1478
    8SAPS  C312 1043   1.031   1.760   4.906 -0.4754 -0.0113  0.6378
    8SAPS  H12X 1044   0.985   1.792   4.810 -1.6575  1.4612  1.6549
    8SAPS  H12Y 1045   0.952   1.752   4.984 -1.1283 -3.0672 -0.1933
    8SAPS  C313 1046   1.097   1.620   4.880  0.6954  0.5423 -0.1892
    8SAPS  H13X 1047   1.024   1.544   4.843  1.3171 -1.3941  2.2828
    8SAPS  H13Y 1048   1.148   1.585   4.972 -0.6325 -0.1974  0.3001
    8SAPS  C314 1049   1.202   1.623   4.767  0.2229  0.0532  0.3037
    8SAPS  H14X 1050   1.283   1.691   4.801  1.5098 -2.2103  2.1039
    8SAPS  H14Y 1051   1.140   1.661   4.683  2.6386  1.6004 -0.8686
    8SAPS  C315 1052   1.249   1.493   4.712 -0.3577  0.2832  0.0807
    8SAPS  H15X 1053   1.179   1.411   4.736 -0.6512 -0.5022 -3.0079
    8SAPS  H15Y 1054   1.352   1.476   4.751  0.9588 -0.9626 -3.5486
    8SAPS  C316 1055   1.273   1.487   4.558 -0.3292  0.5803  0.1850
    8SAPS  H16X 1056   1.360   1.554   4.543 -0.1414  0.5556  1.0951
    8SAPS  H16Y 1057   1.173   1.523   4.525 -0.5215  0.2786  0.4303
    8SAPS  C317 1058   1.307   1.344   4.512 -0.0093 -0.1244 -0.7876
    8SAPS  H17X 1059   1.283   1.331   4.404 -0.1783 -2.5581 -0.5256
    8SAPS  H17Y 1060   1.242   1.273   4.568  1.4784  0.1283  1.3960
    8SAPS  C318 1061   1.451   1.315   4.540 -0.3566  0.0540 -0.0065
    8SAPS  H18X 1062   1.462   1.325   4.650 -0.0291  2.0809 -0.1926
    8SAPS  H18Y 1063   1.525   1.385   4.495 -0.1174 -0.8661 -1.0907
    8SAPS  H18Z 1064   1.478   1.211   4.513 -0.7834 -0.1230  0.2361
    9SAPS     N 1065   2.660   5.495   7.079 -0.3740 -0.2538 -0.1049
    9SAPS   HN1 1066   2.753   5.522   7.118 -1.4490  3.0999  0.4798
    9SAPS   HN2 1067   2.675   5.469   6.980 -0.5408 -2.7373  0.4520
    9SAPS   HN3 1068   2.597   5.578   7.077 -0.4433 -0.3111 -2.2573
    9SAPS   C12 1069   2.617   5.381   7.162 -0.6131 -0.3176 -0.4414
    9SAPS  H12A 1070   2.694   5.305   7.152  1.8480  1.9033  0.4355
    9SAPS   C13 1071   2.616   5.410   7.309 -0.4474 -0.2354 -0.5842
    9SAPS  O13A 1072   2.638   5.524   7.358 -0.3501  0.7082  0.4945
    9SAPS  O13B 1073   2.567   5.322   7.382 -0.0855  0.0336  0.3594
    9SAPS   C11 1074   2.484   5.320   7.108  0.3821 -0.2864  0.3316
    9SAPS  H11A 1075   2.469   5.325   6.998  4.9994 -0.9468 -0.5216
    9SAPS  H11B 1076   2.406   5.388   7.147 -0.8880  0.5543 -3.3067
    9SAPS     P 1077   2.480   5.059   7.060 -0.4202  0.2774 -0.0708
    9SAPS   O13 1078   2.511   4.947   7.149 -0.1526 -0.1549 -0.0979
    9SAPS   O14 1079   2.358   5.042   6.976 -0.5804  0.7342  0.1981
    9SAPS   O12 1080   2.459   5.190   7.153 -0.0168  0.7119 -0.6881
    9SAPS   O11 1081   2.603   5.096   6.971  0.5362  0.2376 -0.3467
    9SAPS    C1 1082   2.631   4.997   6.868  0.0427 -0.1493 -1.1493
    9SAPS    HA 1083   2.711   4.929   6.903  1.9213  2.6641  0.2960
    9SAPS    HB 1084   2.539   4.936   6.849 -1.3680  1.0007  1.5028
    9SAPS    C2 1085   2.682   5.068   6.739  0.7588  0.3247 -0.7626
    9SAPS    HS 1086   2.702   4.996   6.657  0.3928  1.5300 -1.9436
    9SAPS   O21 1087   2.792   5.144   6.769  0.5141  0.3264 -0.0335
    9SAPS   C21 1088   2.913   5.087   6.762 -0.1192  0.0793  0.7159
    9SAPS   O22 1089   2.925   4.964   6.761  0.2114 -0.1569  0.0169
    9SAPS   C22 1090   3.027   5.193   6.765  0.3408 -0.0829  0.0012
    9SAPS   H2R 1091   2.998   5.258   6.850 -3.0892 -0.6157 -0.6004
    9SAPS   H2S 1092   3.117   5.139   6.802  1.7976  1.9995 -0.3618
    9SAPS    C3 1093   2.568   5.158   6.690  0.2463  0.4092  0.2412
    9SAPS    HX 1094   2.553   5.232   6.772 -1.7820  1.5358 -1.0490
    9SAPS    HY 1095   2.482   5.089   6.678  0.7935 -0.1485 -0.6090
    9SAPS   O31 1096   2.617   5.216   6.563  0.1580 -0.0510  0.0349
    9SAPS   C31 1097   2.532   5.285   6.496 -0.4132 -0.6510  0.0003
    9SAPS   O32 1098   2.417   5.311   6.533 -0.3327 -0.3535 -0.3931
    9SAPS   C32 1099   2.587   5.324   6.359  0.3892 -0.2929 -0.1837
    9SAPS   H2X 1100   2.681   5.265   6.347  0.9316  0.3159  0.9202
    9SAPS   H2Y 1101   2.613   5.431   6.374  0.5908 -0.3600 -0.0385
    9SAPS   C23 1102   3.042   5.258   6.627 -0.5807 -0.3835  0.1831
    9SAPS   H3R 1103   3.089   5.357   6.644  0.9803 -1.2220  0.9060
    9SAPS   H3S 1104   2.942   5.274   6.579 -0.2441 -2.4022 -1.3432
    9SAPS   C24 1105   3.137   5.177   6.535  0.1036 -0.0562  0.0451
    9SAPS   H4R 1106   3.094   5.077   6.511 -1.5052  0.9676 -1.5858
    9SAPS   H4S 1107   3.228   5.149   6.592 -0.1318  1.2999  1.1320
    9SAPS   C25 1108   3.172   5.246   6.406 -0.7530 -0.3156 -0.6500
    9SAPS   H5R 1109   3.216   5.347   6.410 -0.1739 -0.6045  0.6421
    9SAPS   C26 1110   3.147   5.189   6.284  0.8324 -0.6639  0.2099
    9SAPS   H6R 1111   3.172   5.240   6.190 -0.9015 -1.0441 -0.5037
    9SAPS   C27 1112   3.090   5.049   6.260 -0.9481 -0.3798  0.0905
    9SAPS   H7R 1113   3.125   4.981   6.341 -0.2098 -0.5128 -0.3348
    9SAPS   H7S 1114   3.142   5.003   6.174  0.5959  2.6189 -0.7127
    9SAPS   C28 1115   2.944   5.050   6.243 -0.3420 -0.2142 -0.7651
    9SAPS   H8R 1116   2.886   5.078   6.332 -1.0040 -0.4959 -1.1044
    9SAPS   C29 1117   2.872   5.033   6.131  0.4723  0.0568  0.1888
    9SAPS   H9R 1118   2.764   5.031   6.147  0.4459  1.1485  0.2385
    9SAPS  C210 1119   2.928   4.996   5.996  0.2330 -0.0889 -0.0951
    9SAPS  H10R 1120   3.015   4.928   6.009  0.7459  0.5428 -0.1582
    9SAPS  H10S 1121   2.969   5.077   5.932 -0.7472  1.2268  0.8829
    9SAPS  C211 1122   2.818   4.935   5.911 -0.8091  0.6069  0.4468
    9SAPS  H11R 1123   2.716   4.924   5.951 -0.7017 -1.3636  0.2757
    9SAPS  C212 1124   2.851   4.874   5.794  0.3394  0.3411  1.0734
    9SAPS  H12R 1125   2.768   4.827   5.740  1.0659  0.1724  0.0864
    9SAPS  C213 1126   2.986   4.862   5.732  0.6289 -0.0503 -0.1148
    9SAPS  H13R 1127   3.069   4.846   5.804  0.6899  0.1287 -0.1445
    9SAPS  H13S 1128   3.025   4.947   5.671  0.7402  0.4195  0.6050
    9SAPS  C214 1129   3.005   4.741   5.643 -0.1563 -0.0001  0.2813
    9SAPS  H14R 1130   3.040   4.646   5.684 -2.0013 -1.1049 -0.5293
    9SAPS  C215 1131   2.992   4.740   5.511  0.2668  0.3216  0.5979
    9SAPS  H15R 1132   2.990   4.644   5.458  1.7980  0.0914  0.9071
    9SAPS  C216 1133   2.955   4.856   5.426 -0.3095  0.6657  0.2398
    9SAPS  H16R 1134   2.947   4.962   5.455  0.2482  1.2351 -1.5384
    9SAPS  H16S 1135   2.854   4.831   5.388 -0.4937  1.6418  0.0589
    9SAPS  C217 1136   3.057   4.850   5.310 -0.0144 -0.4980 -0.0965
    9SAPS  H17R 1137   3.087   4.748   5.280  0.9375 -0.8337  1.8404
    9SAPS  H17S 1138   3.150   4.895   5.350  2.1175 -2.4800 -2.4811
    9SAPS  C218 1139   3.026   4.935   5.186  0.2790  0.4097  0.2072
    9SAPS  H18R 1140   3.023   5.043   5.211  0.0980  0.4814 -0.1177
    9SAPS  H18S 1141   2.929   4.905   5.142 -0.1456  1.8826  0.1034
    9SAPS  C219 1142   3.137   4.924   5.077  0.3067  0.5134 -0.1859
    9SAPS  H19R 1143   3.132   4.826   5.027  2.3071  0.3562 -0.1381
    9SAPS  H19S 1144   3.234   4.927   5.132 -0.4129 -0.2374  1.1904
    9SAPS  C220 1145   3.141   5.031   4.967  0.7367 -0.2599  0.6493
    9SAPS  H20R 1146   3.215   5.006   4.888  1.7516 -0.0790  1.5170
    9SAPS  H20S 1147   3.173   5.127   5.014  0.7957 -0.0096  0.1015
    9SAPS  H20T 1148   3.039   5.039   4.924  1.7649  3.0991 -1.5082
    9SAPS   C33 1149   2.488   5.288   6.247  0.2017 -0.7044 -0.5992
    9SAPS   H3X 1150   2.385   5.316   6.278  0.5965 -0.5609  0.6230
    9SAPS   H3Y 1151   2.488   5.177   6.234 -0.2287 -0.6961 -0.7043
    9SAPS   C34 1152   2.525   5.342   6.110 -0.5178  0.0998  0.2875
    9SAPS   H4X 1153   2.635   5.344   6.096 -0.2064 -2.9879  1.3811
    9SAPS   H4Y 1154   2.487   5.446   6.104 -0.6920  0.0693  0.7875
    9SAPS   C35 1155   2.454   5.254   6.003 -0.0214 -0.1058 -0.2350
    9SAPS   H5X 1156   2.437   5.319   5.915 -0.8776  0.9786  0.6907
    9SAPS   H5Y 1157   2.359   5.209   6.037  0.3945  0.6953  2.2431
    9SAPS   C36 1158   2.546   5.141   5.951  0.4158  0.6725 -0.6137
    9SAPS   H6X 1159   2.604   5.105   6.039 -1.0428  2.0767  0.9941
    9SAPS   H6Y 1160   2.629   5.174   5.885  0.8616  2.3563  0.6945
    9SAPS   C37 1161   2.470   5.031   5.878  0.0255 -0.5365 -0.5251
    9SAPS   H7X 1162   2.377   5.010   5.934  0.0057  1.9110  0.5058
    9SAPS   H7Y 1163   2.539   4.945   5.866  1.9892  0.4494  2.5191
    9SAPS   C38 1164   2.427   5.082   5.739  0.1027 -0.6635  0.1396
    9SAPS   H8X 1165   2.514   5.141   5.703  0.4282  1.1853  3.5763
    9SAPS   H8Y 1166   2.338   5.148   5.752  1.5770  1.0783  2.0684
    9SAPS   C39 1167   2.409   4.968   5.638  0.3444  0.1172 -0.0752
    9SAPS   H9X 1168   2.325   4.900   5.665  0.0375  1.4892  2.8499
    9SAPS   H9Y 1169   2.503   4.909   5.638  0.0297 -0.3897  0.2404
    9SAPS  C310 1170   2.384   5.008   5.491  0.5782  0.3021 -0.1102
    9SAPS  H10X 1171   2.459   5.085   5.460 -0.3825  1.1981 -0.2673
    9SAPS  H10Y 1172   2.282   5.053   5.491 -0.0904 -1.0777  1.9692
    9SAPS  C311 1173   2.386   4.886   5.401  0.0490  0.4711 -0.1747
    9SAPS  H11X 1174   2.318   4.809   5.445  0.4222 -0.9974 -2.0166
    9SAPS  H11Y 1175   2.486   4.844   5.377 -0.1675  0.8547 -1.8811
    9SAPS  C312 1176   2.329   4.921   5.269  0.3646  0.6159  0.0831
    9SAPS  H12X 1177   2.393   5.007   5.237 -0.9715  0.6523 -2.8833
    9SAPS  H12Y 1178   2.227   4.956   5.297  0.7019 -0.1131  2.3698
    9SAPS  C313 1179   2.315   4.815   5.157 -0.0607  0.3036 -0.2377
    9SAPS  H13X 1180   2.346   4.720   5.205 -1.9204  0.5375  1.5651
    9SAPS  H13Y 1181   2.386   4.840   5.075  0.2133  1.8306  0.4265
    9SAPS  C314 1182   2.176   4.806   5.095  0.1926 -0.3545 -0.9905
    9SAPS  H14X 1183   2.155   4.904   5.046  0.9909  0.6451  0.5795
    9SAPS  H14Y 1184   2.093   4.779   5.163  1.4238 -0.6909  0.4259
    9SAPS  C315 1185   2.170   4.705   4.989 -0.0796  0.6718  0.4306
    9SAPS  H15X 1186   2.241   4.725   4.907  0.1950 -1.9605 -0.0337
    9SAPS  H15Y 1187   2.078   4.704   4.926  0.0637 -0.1850  0.2207
    9SAPS  C316 1188   2.185   4.556   5.039 -0.6769  0.3999  0.0246
    9SAPS  H16X 1189   2.105   4.523   5.109 -0.5415 -1.1898 -0.5283
    9SAPS  H16Y 1190   2.285   4.543   5.084  0.0523 -1.1659 -1.8924
    9SAPS  C317 1191   2.184   4.461   4.914 -0.5411  0.5881 -0.2509
    9SAPS  H17X 1192   2.092   4.471   4.852  0.3410 -0.6771 -1.8610
    9SAPS  H17Y 1193   2.196   4.353   4.938  0.5782  0.2591 -2.0508
    9SAPS  C318 1194   2.308   4.488   4.825  0.3384  0.2419  0.4005
    9SAPS  H18X 1195   2.404   4.476   4.880  1.9560  1.6748 -1.9458
    9SAPS  H18Y 1196   2.301   4.589   4.780 -0.7421  0.6728  1.4811
    9SAPS  H18Z 1197   2.314   4.408   4.748  0.2930 -0.6477  1.2866
   10SAPS     N 1198   6.250   4.239   7.129  0.2815 -0.3084  0.3961
   10SAPS   HN1 1199   6.154   4.201   7.117 -0.0715  0.9864 -1.1715
   10SAPS   HN2 1200   6.306   4.203   7.050  1.1857  2.4733 -0.3500
   10SAPS   HN3 1201   6.294   4.192   7.211  1.2423 -0.1907 -0.0449
   10SAPS   C12 1202   6.255   4.389   7.130  0.9075  0.5910 -0.5219
   10SAPS  H12A 1203   6.222   4.428   7.034 -0.4225  1.7966  0.3830
   10SAPS   C13 1204   6.178   4.459   7.246 -0.1033  0.3112  0.3499
   10SAPS  O13A 1205   6.114   4.398   7.331 -0.2087 -0.0210 -0.6025
   10SAPS  O13B 1206   6.154   4.579   7.222  0.2524 -0.3102 -0.9237
   10SAPS   C11 1207   6.400   4.436   7.146 -0.1783  1.1639  0.1293
   10SAPS  H11A 1208   6.445   4.432   7.247 -2.0231 -0.7802  0.9542
   10SAPS  H11B 1209   6.404   4.547   7.137  0.7635  1.3725  2.6309
   10SAPS     P 1210   6.628   4.406   7.022 -0.3344  0.0683  0.1834
   10SAPS   O13 1211   6.683   4.419   7.160  0.0307 -0.5067 -0.8536
   10SAPS   O14 1212   6.689   4.302   6.937 -0.9629 -0.3497  0.1972
   10SAPS   O12 1213   6.479   4.375   7.040 -0.0456  0.3151 -0.1357
   10SAPS   O11 1214   6.625   4.551   6.963 -0.0002  0.0300 -0.1591
   10SAPS    C1 1215   6.522   4.596   6.880  0.3266  0.1598 -1.0298
   10SAPS    HA 1216   6.426   4.555   6.918 -0.6387  1.5517 -1.8777
   10SAPS    HB 1217   6.521   4.707   6.891 -0.4941 -0.0390  1.3407
   10SAPS    C2 1218   6.547   4.559   6.733  0.1640 -0.1039 -0.5854
   10SAPS    HS 1219   6.544   4.449   6.720  2.2449 -0.1639 -0.8987
   10SAPS   O21 1220   6.676   4.615   6.692 -0.0612  0.1278 -0.4030
   10SAPS   C21 1221   6.726   4.554   6.582 -0.8478  0.0823  0.1331
   10SAPS   O22 1222   6.688   4.451   6.534  0.0087 -0.1820  0.3388
   10SAPS   C22 1223   6.840   4.641   6.518  0.4359  0.3410 -0.4328
   10SAPS   H2R 1224   6.833   4.749   6.543  1.9163  0.1432  1.0302
   10SAPS   H2S 1225   6.937   4.607   6.560 -1.5431 -1.8923  2.8578
   10SAPS    C3 1226   6.435   4.611   6.640  0.3271 -0.9323 -0.6439
   10SAPS    HX 1227   6.462   4.716   6.621 -0.1269 -0.3426  1.6288
   10SAPS    HY 1228   6.329   4.604   6.673 -0.4875  0.8276 -2.6596
   10SAPS   O31 1229   6.440   4.541   6.516  0.4216  0.1695 -0.7542
   10SAPS   C31 1230   6.378   4.593   6.403  0.1891 -0.7385 -0.0384
   10SAPS   O32 1231   6.343   4.708   6.395  0.0440  0.2494  0.4689
   10SAPS   C32 1232   6.355   4.487   6.296 -0.5372  0.0776  0.5159
   10SAPS   H2X 1233   6.247   4.471   6.276 -0.0953 -1.4754 -0.8205
   10SAPS   H2Y 1234   6.397   4.390   6.328  0.7171 -0.6856 -3.0048
   10SAPS   C23 1235   6.855   4.624   6.364 -0.1389  0.3152  0.4346
   10SAPS   H3R 1236   6.814   4.523   6.344 -0.4911  0.7726 -1.3524
   10SAPS   H3S 1237   6.960   4.619   6.329  0.8759 -0.6549  3.3561
   10SAPS   C24 1238   6.782   4.722   6.274 -0.5882 -0.6856 -0.2112
   10SAPS   H4R 1239   6.674   4.705   6.296 -0.7370  0.1833 -0.2291
   10SAPS   H4S 1240   6.788   4.686   6.169  1.8243  3.0756 -1.5740
   10SAPS   C25 1241   6.820   4.867   6.283 -0.9575 -0.8945  0.2360
   10SAPS   H5R 1242   6.824   4.922   6.379 -0.4441  1.1488 -0.8955
   10SAPS   C26 1243   6.858   4.945   6.178 -0.5534 -0.6773  0.3580
   10SAPS   H6R 1244   6.875   5.053   6.194  0.4827 -0.7682 -0.0183
   10SAPS   C27 1245   6.858   4.913   6.021  0.1715 -0.0905 -0.0011
   10SAPS   H7R 1246   6.900   4.814   5.992  1.3259  0.3779 -0.0007
   10SAPS   H7S 1247   6.911   4.992   5.963 -3.8433  1.9351 -1.2847
   10SAPS   C28 1248   6.721   4.928   5.955  0.6177 -0.2388 -0.8922
   10SAPS   H8R 1249   6.629   4.917   6.014 -0.8844 -3.1877 -3.4840
   10SAPS   C29 1250   6.699   4.946   5.823 -0.4565 -0.4045 -0.0819
   10SAPS   H9R 1251   6.596   4.958   5.785 -0.7093  0.3552  0.8056
   10SAPS  C210 1252   6.802   4.949   5.711  0.3020 -0.0360  0.2091
   10SAPS  H10R 1253   6.907   4.953   5.747  0.9380 -3.2424 -0.9413
   10SAPS  H10S 1254   6.792   5.034   5.640  1.2382  0.8186  1.0930
   10SAPS  C211 1255   6.807   4.817   5.634  0.1204 -1.0465  0.0033
   10SAPS  H11R 1256   6.820   4.729   5.698  2.5903 -1.1494 -0.5277
   10SAPS  C212 1257   6.810   4.798   5.496 -0.6901 -0.3108 -0.0521
   10SAPS  H12R 1258   6.821   4.692   5.469 -1.6751 -0.6791  0.9327
   10SAPS  C213 1259   6.803   4.900   5.381  0.0668 -0.4308  0.1614
   10SAPS  H13R 1260   6.739   4.982   5.422  0.0928  1.3614 -3.0674
   10SAPS  H13S 1261   6.746   4.855   5.297 -0.5716 -1.1268  0.9530
   10SAPS  C214 1262   6.944   4.949   5.348 -0.4035 -0.4135 -0.1983
   10SAPS  H14R 1263   6.976   5.041   5.400 -0.7177  0.2669 -1.1618
   10SAPS  C215 1264   7.024   4.902   5.255 -0.6169 -0.1037  0.9000
   10SAPS  H15R 1265   7.112   4.961   5.226 -0.8305 -1.1159 -2.1656
   10SAPS  C216 1266   6.997   4.781   5.165 -0.3925  0.3497  0.6712
   10SAPS  H16R 1267   6.888   4.764   5.168 -0.3459 -0.7836 -1.8866
   10SAPS  H16S 1268   7.046   4.691   5.207 -0.9682 -0.8349 -1.0921
   10SAPS  C217 1269   7.031   4.816   5.018  0.5878 -0.6793 -0.9541
   10SAPS  H17R 1270   7.019   4.716   4.970 -2.4165 -1.5106  1.1868
   10SAPS  H17S 1271   7.138   4.839   5.002  0.7502 -1.5832 -1.2533
   10SAPS  C218 1272   6.938   4.914   4.951 -0.1634 -0.0882  0.3513
   10SAPS  H18R 1273   6.966   5.002   5.014 -0.6313 -0.3470  0.9251
   10SAPS  H18S 1274   6.834   4.882   4.971 -0.0489 -0.4035  0.4428
   10SAPS  C219 1275   6.965   4.945   4.804 -0.1612  0.3586  0.7080
   10SAPS  H19R 1276   7.073   4.963   4.792 -0.0133 -1.1228 -0.5568
   10SAPS  H19S 1277   6.912   5.040   4.782 -0.8830 -0.4757 -1.4599
   10SAPS  C220 1278   6.925   4.830   4.704 -0.4098 -0.5297  0.0258
   10SAPS  H20R 1279   6.814   4.826   4.704 -0.5750  2.3058  0.8584
   10SAPS  H20S 1280   6.976   4.735   4.733  1.5010  0.4150 -0.1579
   10SAPS  H20T 1281   6.952   4.853   4.599 -3.2533 -0.1604 -0.7168
   10SAPS   C33 1282   6.413   4.521   6.155 -0.6240  0.7508 -0.4486
   10SAPS   H3X 1283   6.380   4.436   6.091 -0.5070 -0.1381  0.6325
   10SAPS   H3Y 1284   6.524   4.530   6.152 -0.5539  0.5546  0.9074
   10SAPS   C34 1285   6.369   4.653   6.097  1.4244 -0.0645  1.0045
   10SAPS   H4X 1286   6.427   4.743   6.126  2.3538  0.1797 -1.3587
   10SAPS   H4Y 1287   6.261   4.667   6.116  0.8148  0.2905 -2.1519
   10SAPS   C35 1288   6.362   4.640   5.940  0.1483 -0.1417 -1.0296
   10SAPS   H5X 1289   6.291   4.557   5.922 -1.7719  1.2260 -0.2135
   10SAPS   H5Y 1290   6.470   4.629   5.914  1.1531 -0.3531  2.6992
   10SAPS   C36 1291   6.310   4.772   5.877  0.4695 -0.0471  0.2700
   10SAPS   H6X 1292   6.391   4.845   5.898  1.8691 -1.4061 -0.2362
   10SAPS   H6Y 1293   6.209   4.807   5.908  0.2670  1.2834 -1.6513
   10SAPS   C37 1294   6.310   4.776   5.722 -0.5432  0.6362  0.4930
   10SAPS   H7X 1295   6.236   4.705   5.679 -0.7233  1.6244 -0.8800
   10SAPS   H7Y 1296   6.411   4.744   5.689 -1.3331 -0.8973 -0.5378
   10SAPS   C38 1297   6.284   4.918   5.677 -0.3150 -0.0701  0.2383
   10SAPS   H8X 1298   6.379   4.969   5.703  0.9645 -2.6351  0.9738
   10SAPS   H8Y 1299   6.205   4.956   5.745  1.0275  1.7327  0.8810
   10SAPS   C39 1300   6.227   4.936   5.534 -0.2420 -0.5744  0.7638
   10SAPS   H9X 1301   6.189   5.040   5.524  1.8080  0.0422 -2.1319
   10SAPS   H9Y 1302   6.148   4.861   5.514 -0.8085 -0.5434  2.7631
   10SAPS  C310 1303   6.341   4.926   5.429  0.0712  0.9149 -0.1518
   10SAPS  H10X 1304   6.437   4.964   5.469  1.8275 -4.2069  1.2265
   10SAPS  H10Y 1305   6.325   4.990   5.340  0.4227 -0.0114 -0.8963
   10SAPS  C311 1306   6.342   4.789   5.371  0.3374 -0.7379  0.5270
   10SAPS  H11X 1307   6.237   4.757   5.355 -0.3408  0.4298  2.3207
   10SAPS  H11Y 1308   6.394   4.717   5.438  1.1067 -0.7947 -0.1200
   10SAPS  C312 1309   6.425   4.776   5.239  0.0927 -0.2677  0.7385
   10SAPS  H12X 1310   6.526   4.817   5.260  0.4547 -0.4519 -0.5462
   10SAPS  H12Y 1311   6.362   4.838   5.172  0.3300 -0.0395  0.7251
   10SAPS  C313 1312   6.432   4.635   5.178 -0.1600  0.0879  0.2787
   10SAPS  H13X 1313   6.328   4.597   5.171  0.5143 -1.5445 -2.3757
   10SAPS  H13Y 1314   6.494   4.570   5.243 -1.5739 -0.4715  1.1086
   10SAPS  C314 1315   6.501   4.621   5.038 -0.4843 -0.1712 -0.7840
   10SAPS  H14X 1316   6.593   4.679   5.057 -1.0384  1.3693 -2.4739
   10SAPS  H14Y 1317   6.441   4.678   4.963 -2.1703  1.1091  1.3887
   10SAPS  C315 1318   6.532   4.475   4.998  0.0013  0.4204  0.4042
   10SAPS  H15X 1319   6.439   4.414   5.003 -0.3263  0.8310 -0.5703
   10SAPS  H15Y 1320   6.600   4.436   5.077 -0.9529  0.6660  1.3786
   10SAPS  C316 1321   6.585   4.451   4.854 -0.0457  0.2971 -0.1039
   10SAPS  H16X 1322   6.686   4.494   4.839  1.0738 -2.0903  0.0338
   10SAPS  H16Y 1323   6.512   4.509   4.794  0.9020  3.3669  1.4769
   10SAPS  C317 1324   6.568   4.306   4.814 -0.0492  0.1847 -0.1173
   10SAPS  H17X 1325   6.465   4.267   4.825  0.1866 -0.0779  1.2761
   10SAPS  H17Y 1326   6.619   4.242   4.889 -0.1911  1.2807  0.9381
   10SAPS  C318 1327   6.623   4.272   4.679 -0.1650  0.3464 -0.1285
   10SAPS  H18X 1328   6.611   4.163   4.660  1.0569 -0.0796  1.3116
   10SAPS  H18Y 1329   6.733   4.284   4.674 -0.1795  0.0802 -1.7063
   10SAPS  H18Z 1330   6.573   4.323   4.594  0.8326 -3.2083 -3.1125
   11SAPS     N 1331   4.297   5.923   2.506  0.3605  0.6191 -0.3408
   11SAPS   HN1 1332   4.292   5.847   2.577 -0.2244  0.8683 -0.1102
   11SAPS   HN2 1333   4.312   5.876   2.414 -0.2958 -0.1809 -0.0500
   11SAPS   HN3 1334   4.373   5.991   2.524  0.3174  0.7843 -0.7616
   11SAPS   C12 1335   4.166   5.997   2.513  0.4974  0.4635 -0.6644
   11SAPS  H12A 1336   4.173   6.088   2.455 -2.2980  0.2190 -1.5702
   11SAPS   C13 1337   4.046   5.922   2.449 -0.4665 -0.9456  0.4694
   11SAPS  O13A 1338   4.075   5.825   2.372  0.8425 -0.0504 -0.2175
   11SAPS  O13B 1339   3.929   5.964   2.458  0.1573 -0.0320  0.2177
   11SAPS   C11 1340   4.149   6.023   2.671  0.0866 -0.2725  0.0289
   11SAPS  H11A 1341   4.151   5.934   2.736 -0.7359 -0.1754  0.1928
   11SAPS  H11B 1342   4.052   6.076   2.664  0.9697  1.4264 -0.1317
   11SAPS     P 1343   4.194   6.223   2.825  0.1037 -0.3064  0.1652
   11SAPS   O13 1344   4.304   6.309   2.867 -0.2999  0.4289 -0.0794
   11SAPS   O14 1345   4.079   6.297   2.769  0.6501  0.1357 -0.0741
   11SAPS   O12 1346   4.248   6.127   2.716 -0.7929  1.0063 -0.1268
   11SAPS   O11 1347   4.150   6.140   2.944 -0.5107 -0.4503  0.7908
   11SAPS    C1 1348   4.245   6.083   3.032  1.3731 -0.3447  0.2237
   11SAPS    HA 1349   4.245   5.976   3.002 -4.8911 -0.6394  0.0216
   11SAPS    HB 1350   4.345   6.131   3.035  1.3158 -0.2617  2.0356
   11SAPS    C2 1351   4.201   6.094   3.178  0.3839 -0.4658  0.1515
   11SAPS    HS 1352   4.294   6.066   3.232  1.6647  1.4798 -0.9205
   11SAPS   O21 1353   4.087   6.014   3.206  0.1728  0.4734 -0.2735
   11SAPS   C21 1354   4.113   5.884   3.231 -0.0003  0.8781  0.2700
   11SAPS   O22 1355   4.223   5.829   3.239  0.6836 -0.2060 -0.2719
   11SAPS   C22 1356   3.977   5.811   3.254 -0.0876  1.1882 -0.2787
   11SAPS   H2R 1357   3.899   5.840   3.181 -0.3384 -2.6981 -1.7668
   11SAPS   H2S 1358   3.992   5.701   3.248 -0.0737  1.2500 -1.6474
   11SAPS    C3 1359   4.189   6.243   3.230 -0.1969  0.9776 -0.4738
   11SAPS    HX 1360   4.084   6.278   3.216 -0.8963 -0.5046  0.7615
   11SAPS    HY 1361   4.261   6.305   3.173  1.2309  1.3995  1.6721
   11SAPS   O31 1362   4.238   6.262   3.365 -0.1331 -0.2053 -0.2329
   11SAPS   C31 1363   4.179   6.362   3.432 -0.1842  0.2383  0.5752
   11SAPS   O32 1364   4.085   6.429   3.389  0.1319  0.8307 -0.2686
   11SAPS   C32 1365   4.246   6.382   3.567 -0.4882 -0.0305  1.2987
   11SAPS   H2X 1366   4.278   6.488   3.579 -0.4766  0.4199 -1.7328
   11SAPS   H2Y 1367   4.337   6.318   3.569 -0.9787 -0.7664  0.6518
   11SAPS   C23 1368   3.907   5.824   3.394  0.4415  0.0538  0.7508
   11SAPS   H3R 1369   3.809   5.775   3.375  1.8198 -2.9151  0.6546
   11SAPS   H3S 1370   3.884   5.932   3.403 -0.2639 -0.1467  1.6184
   11SAPS   C24 1371   3.986   5.752   3.505  0.0747  0.0124  0.2666
   11SAPS   H4R 1372   4.032   5.656   3.471  1.5550  0.5330  0.7205
   11SAPS   H4S 1373   3.903   5.723   3.573  2.3856 -2.7579  2.2118
   11SAPS   C25 1374   4.094   5.839   3.567 -0.0558 -0.2106 -0.6516
   11SAPS   H5R 1375   4.191   5.830   3.518  0.9753 -0.9542  1.3883
   11SAPS   C26 1376   4.080   5.925   3.673 -0.5638 -0.5654 -0.2326
   11SAPS   H6R 1377   4.172   5.978   3.705  0.2236 -2.5287  0.9150
   11SAPS   C27 1378   3.959   5.942   3.757 -0.2136 -0.0581 -0.2499
   11SAPS   H7R 1379   3.872   5.911   3.695 -0.7732 -0.6914  0.8184
   11SAPS   H7S 1380   3.942   6.050   3.774 -1.3910 -0.2843  0.1204
   11SAPS   C28 1381   3.932   5.863   3.877 -0.4071  0.1153 -0.0592
   11SAPS   H8R 1382   3.974   5.761   3.872  0.8569  0.6271 -0.1344
   11SAPS   C29 1383   3.863   5.900   3.989 -0.3533 -0.2922 -0.5036
   11SAPS   H9R 1384   3.851   5.825   4.069  0.3691  0.9602  0.8223
   11SAPS  C210 1385   3.791   6.037   4.015 -0.2733  0.3688  0.0222
   11SAPS  H10R 1386   3.739   6.066   3.921 -1.6834 -1.4313  0.2069
   11SAPS  H10S 1387   3.858   6.119   4.048 -1.1836  0.9761  0.3757
   11SAPS  C211 1388   3.681   6.013   4.117  0.1133 -0.5047  0.2773
   11SAPS  H11R 1389   3.586   5.995   4.064  2.0667 -0.0582 -3.7535
   11SAPS  C212 1390   3.693   6.019   4.253 -0.7970 -0.1705  0.3455
   11SAPS  H12R 1391   3.610   5.992   4.319  0.0220  0.6767  1.7635
   11SAPS  C213 1392   3.822   6.041   4.331  0.1666 -0.7247  0.0247
   11SAPS  H13R 1393   3.888   6.110   4.273 -0.5764  0.7016  0.8371
   11SAPS  H13S 1394   3.877   5.947   4.355  1.6314 -0.4242 -1.9041
   11SAPS  C214 1395   3.798   6.098   4.470  0.1019  0.4780  0.1531
   11SAPS  H14R 1396   3.696   6.088   4.510 -0.1480  2.2609  0.0536
   11SAPS  C215 1397   3.881   6.160   4.548  0.2264  0.2801  0.8408
   11SAPS  H15R 1398   3.842   6.201   4.643 -1.6240 -0.7935  0.5925
   11SAPS  C216 1399   4.029   6.182   4.527 -1.0989  0.3230  0.5572
   11SAPS  H16R 1400   4.078   6.127   4.443  1.0384  4.1157 -0.9441
   11SAPS  H16S 1401   4.088   6.155   4.617 -1.3670  0.1861  0.6931
   11SAPS  C217 1402   4.061   6.335   4.499  0.4196 -0.6423 -0.2207
   11SAPS  H17R 1403   4.055   6.383   4.599 -0.1595 -0.2354 -0.4529
   11SAPS  H17S 1404   3.986   6.369   4.425 -0.2267 -2.2061 -0.3369
   11SAPS  C218 1405   4.204   6.352   4.442  0.2534 -0.5693  0.2837
   11SAPS  H18R 1406   4.217   6.289   4.351  2.7040 -0.8308  0.7476
   11SAPS  H18S 1407   4.273   6.326   4.525 -1.6906  2.1821  2.9654
   11SAPS  C219 1408   4.242   6.492   4.383 -0.2825  0.0303 -0.2937
   11SAPS  H19R 1409   4.204   6.564   4.459  1.6070  1.0077 -0.2138
   11SAPS  H19S 1410   4.189   6.501   4.286 -0.0279 -0.2140 -0.4533
   11SAPS  C220 1411   4.398   6.511   4.366 -0.1915 -0.5250 -0.5255
   11SAPS  H20R 1412   4.407   6.606   4.309 -2.5669  2.2953  3.2519
   11SAPS  H20S 1413   4.436   6.422   4.313 -0.8445 -1.6406  0.8311
   11SAPS  H20T 1414   4.457   6.511   4.460  2.9141  0.1288 -2.3301
   11SAPS   C33 1415   4.140   6.340   3.668 -0.2808  0.1584  0.3172
   11SAPS   H3X 1416   4.086   6.249   3.633 -2.0015  1.4325 -0.4296
   11SAPS   H3Y 1417   4.070   6.422   3.692  2.1842  2.3510  0.4606
   11SAPS   C34 1418   4.185   6.324   3.817 -0.8225 -0.1474  0.4580
   11SAPS   H4X 1419   4.237   6.420   3.840  1.0920 -1.1254  0.4433
   11SAPS   H4Y 1420   4.255   6.241   3.839 -0.9389 -0.3232  0.1633
   11SAPS   C35 1421   4.070   6.307   3.912  0.0282  0.3037 -0.0782
   11SAPS   H5X 1422   4.011   6.219   3.877  0.3513 -0.5550  1.4669
   11SAPS   H5Y 1423   4.021   6.406   3.916  1.9223  1.2864 -0.4090
   11SAPS   C36 1424   4.126   6.256   4.049  0.4876 -0.7877  0.1601
   11SAPS   H6X 1425   4.055   6.268   4.133  1.4526  0.6014  0.8246
   11SAPS   H6Y 1426   4.211   6.313   4.091  0.4856 -2.2688  2.3433
   11SAPS   C37 1427   4.170   6.112   4.044 -0.1505  0.2128  0.4476
   11SAPS   H7X 1428   4.260   6.093   3.982 -2.1312 -1.2651 -2.1711
   11SAPS   H7Y 1429   4.087   6.069   3.985  1.3101  1.0396 -2.4254
   11SAPS   C38 1430   4.198   6.059   4.187 -0.2538 -0.2345 -0.0047
   11SAPS   H8X 1431   4.104   6.074   4.243 -1.4479  1.2674 -2.2558
   11SAPS   H8Y 1432   4.278   6.119   4.235 -0.1705  0.1721 -0.6368
   11SAPS   C39 1433   4.237   5.914   4.197  0.0593  0.7912 -0.8462
   11SAPS   H9X 1434   4.320   5.901   4.124 -0.3140  1.2290 -1.3474
   11SAPS   H9Y 1435   4.149   5.850   4.176 -0.6940  1.1586  1.0152
   11SAPS  C310 1436   4.293   5.873   4.336 -0.3543  0.0427 -0.2423
   11SAPS  H10X 1437   4.219   5.887   4.418 -1.1758 -2.5229 -0.4276
   11SAPS  H10Y 1438   4.383   5.935   4.353  1.3921 -2.2861 -0.5305
   11SAPS  C311 1439   4.334   5.724   4.340  0.1647  0.4550  0.4322
   11SAPS  H11X 1440   4.414   5.711   4.264 -1.3296  0.1858 -1.1528
   11SAPS  H11Y 1441   4.251   5.662   4.301  0.8300  1.3564 -2.7602
   11SAPS  C312 1442   4.371   5.676   4.478  0.3121 -0.1627 -1.0088
   11SAPS  H12X 1443   4.294   5.697   4.555  1.0893 -0.2189 -0.2081
   11SAPS  H12Y 1444   4.467   5.720   4.513 -0.8430  0.5228  1.5326
   11SAPS  C313 1445   4.399   5.523   4.487 -0.2072  0.6722 -0.0902
   11SAPS  H13X 1446   4.462   5.492   4.573 -1.8079 -4.2769 -0.3318
   11SAPS  H13Y 1447   4.445   5.493   4.391 -4.2342 -0.8806 -1.7722
   11SAPS  C314 1448   4.271   5.447   4.511  0.6084 -0.5507 -0.6906
   11SAPS  H14X 1449   4.285   5.337   4.504  2.9447 -0.4675  1.2671
   11SAPS  H14Y 1450   4.181   5.469   4.449  0.3832 -1.4503 -0.7072
   11SAPS  C315 1451   4.222   5.478   4.657  0.3796 -0.1112 -0.6638
   11SAPS  H15X 1452   4.172   5.577   4.656  3.4186  1.6109  1.4697
   11SAPS  H15Y 1453   4.305   5.494   4.729 -1.3369 -1.1174  1.6619
   11SAPS  C316 1454   4.143   5.362   4.715 -0.9748  0.0762  0.0228
   11SAPS  H16X 1455   4.111   5.401   4.814 -4.1883  1.9711 -1.6015
   11SAPS  H16Y 1456   4.206   5.271   4.727 -1.8148 -0.5095  0.0875
   11SAPS  C317 1457   3.998   5.320   4.656 -0.1217  0.4074 -1.5602
   11SAPS  H17X 1458   4.017   5.272   4.557  1.4331  0.0097 -1.0902
   11SAPS  H17Y 1459   3.940   5.415   4.648  1.2692  1.4109 -0.2886
   11SAPS  C318 1460   3.920   5.225   4.739 -0.4492  1.1499 -0.2134
   11SAPS  H18X 1461   3.917   5.262   4.844  0.9039 -2.6931  1.3391
   11SAPS  H18Y 1462   3.961   5.122   4.728  0.5866  1.3151  1.7280
   11SAPS  H18Z 1463   3.813   5.217   4.712 -0.5445  0.4420  0.3587
   12SAPS     N 1464   4.954   5.171   2.429  0.0851 -0.2205  0.3978
   12SAPS   HN1 1465   5.019   5.208   2.357  0.7649 -1.2754  0.4472
   12SAPS   HN2 1466   4.914   5.256   2.472 -2.4678 -1.0600 -0.1319
   12SAPS   HN3 1467   5.000   5.112   2.501  0.5164  0.9897  1.1408
   12SAPS   C12 1468   4.845   5.098   2.360  0.2650 -0.4801 -0.1394
   12SAPS  H12A 1469   4.759   5.087   2.424 -0.9087 -0.9152 -1.7037
   12SAPS   C13 1470   4.791   5.153   2.227 -0.0087  0.1707 -0.7338
   12SAPS  O13A 1471   4.826   5.268   2.197 -0.5119  0.6604 -0.0335
   12SAPS  O13B 1472   4.696   5.102   2.173  0.1048 -0.1789  0.0579
   12SAPS   C11 1473   4.889   4.952   2.337 -0.5993 -1.0969 -0.1494
   12SAPS  H11A 1474   4.981   4.949   2.276 -1.6400 -2.2024 -1.7540
   12SAPS  H11B 1475   4.817   4.896   2.272  0.1736 -1.9477 -0.2877
   12SAPS     P 1476   4.918   4.719   2.477  0.2386 -0.0338  0.1283
   12SAPS   O13 1477   4.944   4.666   2.343 -0.1375 -0.0152  0.6075
   12SAPS   O14 1478   5.029   4.696   2.574  0.4112 -0.3520 -0.1155
   12SAPS   O12 1479   4.910   4.878   2.463 -0.4067 -0.5058 -0.1187
   12SAPS   O11 1480   4.779   4.663   2.543 -0.2396 -0.1874 -0.5687
   12SAPS    C1 1481   4.655   4.735   2.514  0.4082  0.6624 -0.4562
   12SAPS    HA 1482   4.654   4.786   2.415  0.2927 -1.1520 -1.4226
   12SAPS    HB 1483   4.567   4.667   2.514  1.2935 -0.7027  3.5019
   12SAPS    C2 1484   4.624   4.829   2.630  0.2418  0.7672  0.3321
   12SAPS    HS 1485   4.607   4.927   2.581 -0.5587  1.6098  2.1998
   12SAPS   O21 1486   4.728   4.832   2.734  0.3007  0.2064 -0.2426
   12SAPS   C21 1487   4.782   4.954   2.756 -0.3749  0.2921 -0.0919
   12SAPS   O22 1488   4.739   5.058   2.708  0.1145  0.1661 -0.0238
   12SAPS   C22 1489   4.882   4.950   2.866 -0.1508 -0.0739  0.4246
   12SAPS   H2R 1490   4.829   4.911   2.955 -1.2200 -0.9537 -0.5561
   12SAPS   H2S 1491   4.961   4.876   2.842  1.4802  1.5756  0.5073
   12SAPS    C3 1492   4.486   4.797   2.706 -0.5303 -0.6328  0.2790
   12SAPS    HX 1493   4.408   4.780   2.628 -1.1057  1.9980  0.1739
   12SAPS    HY 1494   4.460   4.893   2.756  0.8229  1.5271 -2.8123
   12SAPS   O31 1495   4.495   4.681   2.791  0.0303 -0.5180 -0.1493
   12SAPS   C31 1496   4.402   4.689   2.892  0.8769  0.3365  0.5748
   12SAPS   O32 1497   4.315   4.770   2.901  0.0892  0.0778  0.2094
   12SAPS   C32 1498   4.428   4.573   2.992  0.0377 -0.3975  0.0041
   12SAPS   H2X 1499   4.528   4.595   3.035  0.2510 -3.4564  1.3167
   12SAPS   H2Y 1500   4.426   4.477   2.935  1.6216  0.0984 -0.9558
   12SAPS   C23 1501   4.945   5.089   2.886  0.2867  0.1768  0.0263
   12SAPS   H3R 1502   4.868   5.169   2.881  0.2219  0.0134 -3.1389
   12SAPS   H3S 1503   5.006   5.122   2.799 -0.4542 -0.2454 -0.6531
   12SAPS   C24 1504   5.032   5.115   3.009 -0.1734  0.2716 -0.2016
   12SAPS   H4R 1505   4.976   5.114   3.105 -1.0283 -0.2389 -0.6867
   12SAPS   H4S 1506   5.060   5.222   3.006  1.3056 -0.1034 -0.7577
   12SAPS   C25 1507   5.163   5.036   3.018 -0.5589 -0.8833 -0.2194
   12SAPS   H5R 1508   5.236   5.078   2.948 -1.8826  1.8772 -0.0946
   12SAPS   C26 1509   5.173   4.922   3.093 -0.2314  0.3555  0.6952
   12SAPS   H6R 1510   5.269   4.868   3.102 -1.1420 -1.1545  1.6932
   12SAPS   C27 1511   5.065   4.867   3.183 -0.6787  0.2408 -0.3019
   12SAPS   H7R 1512   4.963   4.908   3.170 -1.2810 -0.9660  0.4121
   12SAPS   H7S 1513   5.097   4.880   3.289  1.5001  1.0366 -0.9927
   12SAPS   C28 1514   5.052   4.717   3.153 -0.0850 -0.0051 -0.6946
   12SAPS   H8R 1515   5.053   4.694   3.045 -1.1067 -0.4016 -0.6284
   12SAPS   C29 1516   5.032   4.627   3.251 -0.6491  0.2936  0.0471
   12SAPS   H9R 1517   5.018   4.526   3.211  3.0023  0.3934 -1.9010
   12SAPS  C210 1518   5.024   4.640   3.402  0.6302 -0.6058  0.4765
   12SAPS  H10R 1519   5.100   4.708   3.446  0.6325 -0.0060 -0.4265
   12SAPS  H10S 1520   5.055   4.539   3.435  1.2866 -1.2147 -1.8515
   12SAPS  C211 1521   4.885   4.659   3.460 -0.4176 -0.8709 -0.3221
   12SAPS  H11R 1522   4.798   4.630   3.399 -0.1579 -1.6163 -0.3529
   12SAPS  C212 1523   4.857   4.706   3.580 -1.1257 -0.9835 -0.2837
   12SAPS  H12R 1524   4.750   4.720   3.599 -1.3210 -1.2082 -1.1502
   12SAPS  C213 1525   4.957   4.756   3.683 -0.0316  0.5502  0.0023
   12SAPS  H13R 1526   4.926   4.859   3.708 -1.0431  0.2219  0.1651
   12SAPS  H13S 1527   5.057   4.769   3.637 -0.5230 -0.1421 -1.3367
   12SAPS  C214 1528   4.948   4.671   3.804 -0.1142  0.0071  0.3734
   12SAPS  H14R 1529   4.900   4.573   3.785  1.7782 -0.6633 -1.3476
   12SAPS  C215 1530   5.017   4.699   3.916  0.7317 -0.5682 -1.1852
   12SAPS  H15R 1531   5.003   4.638   4.006  1.8026  2.5664  1.2858
   12SAPS  C216 1532   5.084   4.831   3.940  0.3661 -0.4705  0.3698
   12SAPS  H16R 1533   5.036   4.912   3.881  0.3310  0.4475  1.6242
   12SAPS  H16S 1534   5.191   4.822   3.909  0.6786 -0.1479  1.3318
   12SAPS  C217 1535   5.079   4.884   4.082 -0.3209  0.3087  0.1567
   12SAPS  H17R 1536   5.077   4.807   4.162 -1.6006 -0.2217 -0.3699
   12SAPS  H17S 1537   4.987   4.946   4.092 -0.0327  0.7248  0.2422
   12SAPS  C218 1538   5.203   4.961   4.121  0.2776 -0.0716  0.6965
   12SAPS  H18R 1539   5.208   5.055   4.062  1.9241 -0.3465  0.3474
   12SAPS  H18S 1540   5.292   4.899   4.098 -0.0553  0.2196 -1.6856
   12SAPS  C219 1541   5.214   4.996   4.270 -0.2567  0.7487 -1.1376
   12SAPS  H19R 1542   5.218   4.897   4.321 -0.1459 -0.8771 -4.0939
   12SAPS  H19S 1543   5.132   5.057   4.313  0.2266  0.4377  0.2640
   12SAPS  C220 1544   5.354   5.060   4.287  0.0599 -0.8648 -0.3545
   12SAPS  H20R 1545   5.373   5.145   4.217 -0.1168  1.2205  1.9789
   12SAPS  H20S 1546   5.435   4.988   4.263  1.8540  1.1868 -0.8059
   12SAPS  H20T 1547   5.373   5.101   4.388 -1.2946 -1.5624  0.2000
   12SAPS   C33 1548   4.337   4.552   3.108  0.2305  0.3568  0.4537
   12SAPS   H3X 1549   4.234   4.527   3.073 -0.3823  1.2262  1.5699
   12SAPS   H3Y 1550   4.323   4.647   3.164 -0.5635 -0.6419  2.0008
   12SAPS   C34 1551   4.385   4.450   3.210  0.5056  0.0327 -0.1241
   12SAPS   H4X 1552   4.400   4.345   3.176  1.7079 -0.2714  1.2659
   12SAPS   H4Y 1553   4.317   4.435   3.296  0.5583 -1.7993 -0.3663
   12SAPS   C35 1554   4.520   4.486   3.271 -0.2651 -0.9475 -0.4537
   12SAPS   H5X 1555   4.510   4.583   3.324 -0.5157 -0.7414 -0.8709
   12SAPS   H5Y 1556   4.600   4.501   3.195  1.3843  2.3048  1.7014
   12SAPS   C36 1557   4.583   4.380   3.358  0.3934  0.2081  0.1496
   12SAPS   H6X 1558   4.675   4.412   3.411  2.2296 -0.4520 -2.4391
   12SAPS   H6Y 1559   4.626   4.297   3.296  0.7816  0.7396 -0.3060
   12SAPS   C37 1560   4.482   4.305   3.448  0.0249  0.0470 -0.4081
   12SAPS   H7X 1561   4.536   4.220   3.496 -1.6042 -0.0056  1.4411
   12SAPS   H7Y 1562   4.398   4.260   3.391 -0.7840  1.6571 -0.5333
   12SAPS   C38 1563   4.429   4.388   3.567  0.3739  0.1156 -0.6959
   12SAPS   H8X 1564   4.355   4.318   3.611 -0.6492 -0.3531 -3.0008
   12SAPS   H8Y 1565   4.360   4.469   3.535 -2.0707 -0.8719  1.7531
   12SAPS   C39 1566   4.536   4.438   3.671 -0.1481  0.3722  0.6304
   12SAPS   H9X 1567   4.601   4.511   3.618 -0.8574  1.1117  0.7576
   12SAPS   H9Y 1568   4.598   4.348   3.689  0.4714  0.5020 -0.7448
   12SAPS  C310 1569   4.491   4.497   3.805 -0.3437 -0.6114  0.4384
   12SAPS  H10X 1570   4.408   4.433   3.843  0.4636 -1.5803  0.6165
   12SAPS  H10Y 1571   4.456   4.602   3.798  2.1221  0.2666  0.3456
   12SAPS  C311 1572   4.590   4.500   3.923  0.1987  0.5889  0.6395
   12SAPS  H11X 1573   4.673   4.568   3.894  1.5091 -1.6231 -1.1847
   12SAPS  H11Y 1574   4.621   4.393   3.929  0.7782  0.5737 -1.6617
   12SAPS  C312 1575   4.517   4.542   4.046  0.2163 -0.0537 -0.7522
   12SAPS  H12X 1576   4.418   4.493   4.049  0.3776 -0.3376  0.5562
   12SAPS  H12Y 1577   4.487   4.649   4.043  1.2037  0.2135 -2.1979
   12SAPS  C313 1578   4.594   4.519   4.176  0.2121  0.5345 -0.1094
   12SAPS  H13X 1579   4.609   4.410   4.188 -2.8384 -0.0895 -1.0908
   12SAPS  H13Y 1580   4.529   4.549   4.261  0.7257 -0.8573  0.8061
   12SAPS  C314 1581   4.729   4.583   4.175 -0.0035  0.4543 -0.0951
   12SAPS  H14X 1582   4.719   4.693   4.188 -0.3079  0.4318 -0.1307
   12SAPS  H14Y 1583   4.786   4.558   4.083  0.5712  2.2004 -0.2699
   12SAPS  C315 1584   4.829   4.529   4.278 -0.3178  0.1116  0.4728
   12SAPS  H15X 1585   4.921   4.591   4.276 -0.6380  0.6092 -1.3565
   12SAPS  H15Y 1586   4.853   4.425   4.245 -0.5565 -0.4509  2.0164
   12SAPS  C316 1587   4.778   4.530   4.422 -0.4409  0.0457  1.1260
   12SAPS  H16X 1588   4.670   4.505   4.427 -0.9743  2.0411  0.4829
   12SAPS  H16Y 1589   4.770   4.637   4.452 -2.4393 -0.0343  1.0366
   12SAPS  C317 1590   4.867   4.457   4.521 -0.2671 -0.9223  0.5999
   12SAPS  H17X 1591   4.964   4.512   4.521 -1.2822  1.1762 -2.6182
   12SAPS  H17Y 1592   4.874   4.356   4.475 -0.3936 -0.8863  0.5001
   12SAPS  C318 1593   4.813   4.452   4.662 -0.3634 -0.1615  0.4816
   12SAPS  H18X 1594   4.710   4.427   4.694  0.4894 -0.5620  3.1927
   12SAPS  H18Y 1595   4.830   4.552   4.707 -1.3724 -0.5995  1.9129
   12SAPS  H18Z 1596   4.873   4.379   4.721  0.8221  0.3926  0.0120
   13SAPS     N 1597   6.729   3.962   2.069 -0.5483  0.0166 -0.5625
   13SAPS   HN1 1598   6.719   3.957   1.965  1.5230 -1.8636 -0.7559
   13SAPS   HN2 1599   6.821   3.917   2.088 -0.0485  1.9238  2.1692
   13SAPS   HN3 1600   6.649   3.912   2.110 -0.9647  0.8080 -0.3931
   13SAPS   C12 1601   6.731   4.105   2.108 -0.3165  0.6956  0.3305
   13SAPS  H12A 1602   6.825   4.148   2.079 -0.4375  1.1855  0.6499
   13SAPS   C13 1603   6.616   4.199   2.053 -0.5765 -0.3051  0.3209
   13SAPS  O13A 1604   6.522   4.147   1.985  0.1492 -0.1563 -0.2825
   13SAPS  O13B 1605   6.614   4.323   2.081  0.0330 -0.2183 -0.4779
   13SAPS   C11 1606   6.729   4.099   2.263 -0.8043  0.0296 -0.0126
   13SAPS  H11A 1607   6.628   4.061   2.290 -1.1028  0.5197 -0.4467
   13SAPS  H11B 1608   6.739   4.202   2.304 -2.2611 -0.5106  1.8641
   13SAPS     P 1609   6.800   3.951   2.469  0.2670  0.0090  0.2569
   13SAPS   O13 1610   6.713   3.832   2.467  0.1183  0.7391 -0.4945
   13SAPS   O14 1611   6.929   3.949   2.546  0.2402 -0.0131 -0.0776
   13SAPS   O12 1612   6.828   4.002   2.312  0.0801  0.0731  0.2372
   13SAPS   O11 1613   6.714   4.071   2.535 -0.0524 -0.0079 -0.8299
   13SAPS    C1 1614   6.774   4.196   2.573  0.2017  0.0239  0.2047
   13SAPS    HA 1615   6.852   4.235   2.504  0.1068  0.0877  0.1325
   13SAPS    HB 1616   6.694   4.270   2.553  0.5671  0.4384  0.2507
   13SAPS    C2 1617   6.807   4.202   2.721 -0.1887 -0.0458 -0.2357
   13SAPS    HS 1618   6.900   4.143   2.734  0.4465  1.2210  1.2556
   13SAPS   O21 1619   6.689   4.148   2.789  0.3871  0.2456 -0.5505
   13SAPS   C21 1620   6.714   4.071   2.894 -0.4456 -0.5868  0.1854
   13SAPS   O22 1621   6.827   4.034   2.933  0.7761 -0.1138 -0.4528
   13SAPS   C22 1622   6.574   4.050   2.955 -0.2323 -0.1202  0.2493
   13SAPS   H2R 1623   6.544   4.141   3.010  1.5895  2.2152 -2.3710
   13SAPS   H2S 1624   6.512   4.037   2.864  1.5557  2.3029 -1.4261
   13SAPS    C3 1625   6.836   4.344   2.779 -0.5055  0.2386  0.5120
   13SAPS    HX 1626   6.748   4.402   2.745 -1.3750  0.2418  2.6194
   13SAPS    HY 1627   6.909   4.411   2.729 -2.2101  0.5451 -1.7574
   13SAPS   O31 1628   6.839   4.338   2.919 -0.6329  0.3716 -0.9808
   13SAPS   C31 1629   6.962   4.321   2.974  0.3091 -0.1661 -0.9118
   13SAPS   O32 1630   7.068   4.298   2.916 -0.4205  0.2666 -0.2303
   13SAPS   C32 1631   6.948   4.345   3.133 -0.2322 -0.1669  0.8351
   13SAPS   H2X 1632   6.897   4.441   3.154 -0.9043 -0.4779  0.6426
   13SAPS   H2Y 1633   7.048   4.344   3.183  0.6036  2.1197 -0.6175
   13SAPS   C23 1634   6.559   3.921   3.038  0.4667 -0.8541  0.5461
   13SAPS   H3R 1635   6.624   3.852   2.979 -0.9276  0.5079 -2.7998
   13SAPS   H3S 1636   6.455   3.884   3.034 -0.3977  1.5057 -0.0149
   13SAPS   C24 1637   6.605   3.929   3.187  0.2847 -1.2612  0.0048
   13SAPS   H4R 1638   6.545   4.014   3.225 -0.4466 -0.3399 -3.0027
   13SAPS   H4S 1639   6.707   3.973   3.190 -0.4961  0.7892 -1.4810
   13SAPS   C25 1640   6.574   3.794   3.258 -0.1203 -0.1502 -0.2044
   13SAPS   H5R 1641   6.609   3.703   3.207 -0.1629 -0.6263  0.6022
   13SAPS   C26 1642   6.527   3.779   3.382 -0.1468  0.1511 -0.2166
   13SAPS   H6R 1643   6.497   3.681   3.420  0.0615  0.4799  0.8311
   13SAPS   C27 1644   6.489   3.886   3.483  0.8579 -0.4504 -0.5216
   13SAPS   H7R 1645   6.570   3.962   3.493 -1.3688  1.7945  1.9370
   13SAPS   H7S 1646   6.490   3.842   3.585  0.6599 -1.9738 -1.1523
   13SAPS   C28 1647   6.365   3.962   3.452 -0.5420 -0.1446 -0.2504
   13SAPS   H8R 1648   6.359   3.993   3.347  0.8252  0.6629 -0.1080
   13SAPS   C29 1649   6.260   3.983   3.528  0.3470  0.2979 -0.1166
   13SAPS   H9R 1650   6.176   4.042   3.489 -0.4620 -0.3751  0.5618
   13SAPS  C210 1651   6.242   3.944   3.676  0.4899 -0.1891 -0.3057
   13SAPS  H10R 1652   6.319   3.875   3.716  0.5949  0.3636  0.4845
   13SAPS  H10S 1653   6.143   3.894   3.677  0.6257 -0.4756 -0.9692
   13SAPS  C211 1654   6.221   4.067   3.768  0.2510 -0.2823 -0.6466
   13SAPS  H11R 1655   6.157   4.148   3.730  1.5506  0.9231 -0.3616
   13SAPS  C212 1656   6.251   4.077   3.899  0.2763 -0.6096 -0.3105
   13SAPS  H12R 1657   6.237   4.172   3.951  1.9828 -1.7102  2.3819
   13SAPS  C213 1658   6.325   3.972   3.984  0.4735 -0.6269  0.0683
   13SAPS  H13R 1659   6.429   3.952   3.951  0.8434 -0.4566  1.1014
   13SAPS  H13S 1660   6.269   3.878   3.964  0.5406 -0.8668  0.9643
   13SAPS  C214 1661   6.311   3.995   4.127 -0.2100  0.1296  0.3760
   13SAPS  H14R 1662   6.221   3.950   4.173  0.1244 -2.6409 -1.4172
   13SAPS  C215 1663   6.391   4.069   4.201 -0.2394  0.1431  0.3176
   13SAPS  H15R 1664   6.362   4.091   4.305  0.3090 -2.1025  0.9987
   13SAPS  C216 1665   6.517   4.141   4.162 -0.2164  0.4208  0.1101
   13SAPS  H16R 1666   6.510   4.244   4.203  0.6107  1.1232 -1.4177
   13SAPS  H16S 1667   6.528   4.163   4.053 -0.8676 -1.1296 -0.2968
   13SAPS  C217 1668   6.651   4.067   4.197  0.7272 -0.0445  0.2892
   13SAPS  H17R 1669   6.738   4.133   4.178  1.2197 -1.1151 -1.3752
   13SAPS  H17S 1670   6.664   3.978   4.131 -1.5290 -0.4160  0.2593
   13SAPS  C218 1671   6.658   4.015   4.341 -0.8315  0.0386  0.2583
   13SAPS  H18R 1672   6.574   3.943   4.355  0.2556 -1.7630 -1.8808
   13SAPS  H18S 1673   6.654   4.097   4.416 -0.3336  1.0102 -0.7609
   13SAPS  C219 1674   6.790   3.941   4.368 -0.0986 -0.1960 -0.1317
   13SAPS  H19R 1675   6.872   4.012   4.345 -0.6745 -0.0755 -2.0233
   13SAPS  H19S 1676   6.799   3.851   4.303  1.4013  0.2136 -0.5214
   13SAPS  C220 1677   6.808   3.893   4.506  0.3004 -0.4792 -0.1531
   13SAPS  H20R 1678   6.708   3.865   4.547  0.3706  0.9810  1.1267
   13SAPS  H20S 1679   6.845   3.969   4.578  1.2002  0.2641 -1.3654
   13SAPS  H20T 1680   6.872   3.803   4.518 -0.1396 -0.6629  1.0562
   13SAPS   C33 1681   6.856   4.243   3.215  0.2505 -0.4005  0.4900
   13SAPS   H3X 1682   6.887   4.140   3.188 -0.5706 -0.3162 -0.8904
   13SAPS   H3Y 1683   6.757   4.260   3.169  1.4939  1.0445 -1.8732
   13SAPS   C34 1684   6.862   4.265   3.363 -0.1443 -0.4588  0.2317
   13SAPS   H4X 1685   6.853   4.374   3.385 -0.0464 -0.1888 -0.9891
   13SAPS   H4Y 1686   6.961   4.247   3.410  0.4676 -0.3556 -0.9923
   13SAPS   C35 1687   6.751   4.204   3.454 -0.5029  0.1277 -0.3723
   13SAPS   H5X 1688   6.744   4.095   3.432 -3.4994  0.4730 -1.5404
   13SAPS   H5Y 1689   6.652   4.232   3.413  0.2614  0.4589 -2.1054
   13SAPS   C36 1690   6.769   4.246   3.599 -0.2333 -0.3990  0.4897
   13SAPS   H6X 1691   6.753   4.356   3.610 -1.2222 -0.3067 -1.3810
   13SAPS   H6Y 1692   6.878   4.242   3.620  0.1703 -1.2402 -1.5089
   13SAPS   C37 1693   6.704   4.172   3.716 -0.0874 -0.0141  0.4266
   13SAPS   H7X 1694   6.708   4.063   3.698 -0.7649  0.2300 -1.3441
   13SAPS   H7Y 1695   6.598   4.199   3.736 -0.5073 -1.6092  0.4221
   13SAPS   C38 1696   6.769   4.197   3.854 -0.9536  0.1970  0.3645
   13SAPS   H8X 1697   6.711   4.144   3.931 -1.2221 -0.9450 -0.5921
   13SAPS   H8Y 1698   6.768   4.305   3.881  0.1246  0.5559 -0.8810
   13SAPS   C39 1699   6.919   4.148   3.863  0.1269 -0.3708 -0.0333
   13SAPS   H9X 1700   6.975   4.231   3.817 -2.0876  1.1367 -0.1661
   13SAPS   H9Y 1701   6.927   4.066   3.788 -0.3255 -0.2189 -0.2516
   13SAPS  C310 1702   6.978   4.116   4.006  0.6234 -0.0882  0.6532
   13SAPS  H10X 1703   6.936   4.019   4.041 -1.7392  0.6448 -0.0116
   13SAPS  H10Y 1704   6.938   4.196   4.071 -0.6215 -0.1630 -0.0059
   13SAPS  C311 1705   7.130   4.112   4.009 -0.7334 -0.0767 -0.1820
   13SAPS  H11X 1706   7.162   4.210   3.966  1.3906 -0.8843 -0.5874
   13SAPS  H11Y 1707   7.177   4.034   3.945  0.9831 -0.0657  0.9825
   13SAPS  C312 1708   7.180   4.093   4.155  0.3988  0.1137 -0.1099
   13SAPS  H12X 1709   7.104   4.030   4.206 -0.5290  0.3297 -1.1815
   13SAPS  H12Y 1710   7.191   4.197   4.193  0.7355 -0.0415  0.2167
   13SAPS  C313 1711   7.315   4.030   4.180 -0.0253  0.2312 -0.0678
   13SAPS  H13X 1712   7.298   3.930   4.135  0.6490 -0.7097  1.6675
   13SAPS  H13Y 1713   7.348   4.020   4.285 -0.3460  0.5926  0.0711
   13SAPS  C314 1714   7.432   4.106   4.110  0.7610 -0.0391 -0.6331
   13SAPS  H14X 1715   7.422   4.212   4.142 -0.1359 -0.8939  2.2398
   13SAPS  H14Y 1716   7.418   4.098   4.000  0.2747  0.2641 -0.6003
   13SAPS  C315 1717   7.568   4.067   4.150  0.3210  0.7904  0.3727
   13SAPS  H15X 1718   7.568   3.956   4.145  1.0417  0.7810  0.4795
   13SAPS  H15Y 1719   7.587   4.096   4.255 -0.4207  1.8326  0.2276
   13SAPS  C316 1720   7.691   4.100   4.060  0.4296 -0.2917 -0.9234
   13SAPS  H16X 1721   7.699   4.206   4.026  2.7433 -0.3982 -0.8683
   13SAPS  H16Y 1722   7.673   4.040   3.968  1.1597  0.3785 -1.5183
   13SAPS  C317 1723   7.832   4.080   4.127  0.0037 -0.1270 -0.1204
   13SAPS  H17X 1724   7.843   4.167   4.195 -1.1332  1.5800 -2.0301
   13SAPS  H17Y 1725   7.909   4.094   4.048  1.3773 -2.8680  0.5981
   13SAPS  C318 1726   7.847   3.957   4.217  0.1415  0.4803 -0.3966
   13SAPS  H18X 1727   7.953   3.961   4.253  0.3689 -0.9564 -0.8240
   13SAPS  H18Y 1728   7.840   3.858   4.167  2.6633  0.2948 -0.5486
   13SAPS  H18Z 1729   7.774   3.957   4.301 -0.7545  1.6157 -1.1515
   14SAPS     N 1730   0.044   6.414   2.169 -0.1107 -0.1830  0.1521
   14SAPS   HN1 1731   0.061   6.365   2.259  1.0594  0.7468  0.4526
   14SAPS   HN2 1732   0.126   6.475   2.149  1.5962 -1.9439  1.3944
   14SAPS   HN3 1733  -0.047   6.463   2.182 -1.6695 -2.8806  0.2451
   14SAPS   C12 1734   0.027   6.309   2.060 -0.1068  0.2074 -0.3786
   14SAPS  H12A 1735  -0.068   6.259   2.070 -0.4790  0.9509 -0.1543
   14SAPS   C13 1736   0.040   6.367   1.916  0.2745  0.7309  0.0631
   14SAPS  O13A 1737   0.075   6.491   1.902  0.4534  0.2138  0.7196
   14SAPS  O13B 1738   0.030   6.281   1.823 -0.1640 -0.2450  0.3440
   14SAPS   C11 1739   0.142   6.198   2.080  0.2814 -0.0639  0.5186
   14SAPS  H11A 1740   0.237   6.254   2.064  0.0699 -0.5028 -3.1089
   14SAPS  H11B 1741   0.130   6.115   2.007 -0.6770 -1.1671  1.8911
   14SAPS     P 1742   0.283   6.060   2.243 -0.0458  0.1495  0.1271
   14SAPS   O13 1743   0.244   5.978   2.355  0.1507 -0.0197 -0.7278
   14SAPS   O14 1744   0.336   5.994   2.120 -0.1455  0.2981  0.3390
   14SAPS   O12 1745   0.152   6.149   2.212  0.2172  0.2975  0.0425
   14SAPS   O11 1746   0.398   6.162   2.288  1.1108 -0.4153  0.3074
   14SAPS    C1 1747   0.377   6.278   2.364 -0.1444  0.0584 -0.2559
   14SAPS    HA 1748   0.395   6.372   2.307  1.9784 -0.3016 -0.2636
   14SAPS    HB 1749   0.273   6.287   2.400 -0.2740 -2.0944  0.0458
   14SAPS    C2 1750   0.479   6.290   2.482 -1.0243  0.0416  0.7945
   14SAPS    HS 1751   0.582   6.296   2.440 -1.5238  0.6278 -0.4075
   14SAPS   O21 1752   0.476   6.173   2.563  0.8468 -0.1378 -0.1340
   14SAPS   C21 1753   0.583   6.131   2.628  0.4695  0.0477 -0.8388
   14SAPS   O22 1754   0.697   6.182   2.620  0.4086  0.4568 -0.3922
   14SAPS   C22 1755   0.560   6.014   2.714  0.1211  0.0778 -0.6432
   14SAPS   H2R 1756   0.516   5.926   2.662 -1.0867  0.2513  0.0494
   14SAPS   H2S 1757   0.664   5.981   2.737  0.0799  0.7210  0.5307
   14SAPS    C3 1758   0.461   6.410   2.574  0.5728  0.7464  0.0850
   14SAPS    HX 1759   0.359   6.409   2.619  1.6020  2.5292  2.7354
   14SAPS    HY 1760   0.450   6.505   2.516 -1.9800  0.9139  0.7146
   14SAPS   O31 1761   0.553   6.427   2.686  0.1420  0.4842  0.4950
   14SAPS   C31 1762   0.666   6.487   2.654 -0.2164 -0.3757 -0.4771
   14SAPS   O32 1763   0.702   6.510   2.542  0.5715 -0.0149  0.5791
   14SAPS   C32 1764   0.750   6.519   2.778 -0.6339  0.0023  0.2908
   14SAPS   H2X 1765   0.800   6.618   2.764  1.0750 -0.5163  2.2519
   14SAPS   H2Y 1766   0.827   6.440   2.790 -0.3746  0.1810 -0.1595
   14SAPS   C23 1767   0.479   6.044   2.844 -0.2139 -0.1912 -1.1815
   14SAPS   H3R 1768   0.464   5.952   2.904 -2.4531  0.5169 -0.5515
   14SAPS   H3S 1769   0.379   6.083   2.815 -0.0138  0.8728 -0.4540
   14SAPS   C24 1770   0.549   6.151   2.927 -0.4849  0.7264 -0.5221
   14SAPS   H4R 1771   0.491   6.159   3.021 -0.2284 -1.2971 -0.1615
   14SAPS   H4S 1772   0.531   6.248   2.874  0.0457  0.1064 -1.8978
   14SAPS   C25 1773   0.687   6.130   2.968  0.5089  0.1785  0.7281
   14SAPS   H5R 1774   0.758   6.140   2.885  0.2383  0.4508  0.5314
   14SAPS   C26 1775   0.741   6.091   3.080  0.7446  0.6410 -0.4072
   14SAPS   H6R 1776   0.850   6.074   3.088  0.5691 -0.5355 -0.3980
   14SAPS   C27 1777   0.664   6.056   3.198 -0.5526 -0.1937  0.0271
   14SAPS   H7R 1778   0.659   5.945   3.204  2.6004 -0.5422 -1.6821
   14SAPS   H7S 1779   0.561   6.099   3.194 -0.0300  1.0117 -1.9080
   14SAPS   C28 1780   0.743   6.112   3.318 -0.2521  0.4558  0.3203
   14SAPS   H8R 1781   0.722   6.217   3.343 -1.7692 -0.0231  1.1780
   14SAPS   C29 1782   0.852   6.061   3.384 -0.1210  0.2757  0.7884
   14SAPS   H9R 1783   0.904   6.123   3.459 -0.3900  0.1231  1.1045
   14SAPS  C210 1784   0.915   5.928   3.342  0.1006  0.0326 -0.7320
   14SAPS  H10R 1785   0.899   5.907   3.235  1.6829 -1.3967 -0.7195
   14SAPS  H10S 1786   0.859   5.841   3.383 -0.2592  1.4210  2.0066
   14SAPS  C211 1787   1.053   5.904   3.372  0.6211  0.0770 -0.6754
   14SAPS  H11R 1788   1.131   5.918   3.295  2.6017 -0.5056  1.1078
   14SAPS  C212 1789   1.103   5.895   3.499 -0.1210  0.3129  0.0835
   14SAPS  H12R 1790   1.212   5.877   3.505  0.1519  1.4974 -1.0306
   14SAPS  C213 1791   1.030   5.886   3.629  0.2391 -1.0084  0.2210
   14SAPS  H13R 1792   1.056   5.792   3.682  0.2455 -0.0957  1.8919
   14SAPS  H13S 1793   0.920   5.896   3.614  0.3046  0.3307  0.5002
   14SAPS  C214 1794   1.076   6.007   3.711  0.7891  0.2269 -0.1192
   14SAPS  H14R 1795   1.181   6.008   3.745  0.8261  2.9623 -0.0655
   14SAPS  C215 1796   1.006   6.109   3.765 -0.1468 -0.6326  0.4838
   14SAPS  H15R 1797   1.061   6.176   3.833 -1.2543 -0.1363  0.9174
   14SAPS  C216 1798   0.858   6.128   3.755  0.3727  0.8364  0.7069
   14SAPS  H16R 1799   0.815   6.077   3.666  0.4205  1.1341  0.5148
   14SAPS  H16S 1800   0.838   6.237   3.748  0.1479  0.7417 -0.2839
   14SAPS  C217 1801   0.791   6.059   3.875  0.3451 -0.1350 -0.4328
   14SAPS  H17R 1802   0.826   5.954   3.887  1.4050  0.5372  3.7180
   14SAPS  H17S 1803   0.685   6.064   3.841  0.1241  1.1693  0.3942
   14SAPS  C218 1804   0.819   6.136   3.999 -0.1814 -0.7157 -0.8189
   14SAPS  H18R 1805   0.831   6.245   3.981  0.3393 -0.7841 -0.9081
   14SAPS  H18S 1806   0.912   6.101   4.050  0.6947 -0.1111 -1.9598
   14SAPS  C219 1807   0.708   6.134   4.106 -0.0495  0.0215  0.2757
   14SAPS  H19R 1808   0.746   6.176   4.202  0.8817  1.2789 -0.6144
   14SAPS  H19S 1809   0.688   6.026   4.118  0.9948 -0.1988  0.1863
   14SAPS  C220 1810   0.591   6.221   4.058  0.0574  0.0103 -0.3425
   14SAPS  H20R 1811   0.546   6.173   3.968 -1.0917 -1.1796  0.8034
   14SAPS  H20S 1812   0.615   6.325   4.028 -1.0873  0.2763 -0.4134
   14SAPS  H20T 1813   0.515   6.223   4.139  0.3670  1.4929 -0.0647
   14SAPS   C33 1814   0.679   6.517   2.912  0.8303  0.9357  0.1422
   14SAPS   H3X 1815   0.647   6.413   2.934  3.7330 -0.1455 -0.3821
   14SAPS   H3Y 1816   0.585   6.577   2.910  1.2328  1.6808  1.9527
   14SAPS   C34 1817   0.768   6.565   3.030  0.5754 -0.4657 -0.4031
   14SAPS   H4X 1818   0.784   6.675   3.030 -2.6468  0.1357  1.0863
   14SAPS   H4Y 1819   0.864   6.511   3.022  0.4154 -0.7295 -0.5642
   14SAPS   C35 1820   0.707   6.537   3.166  0.5386 -0.2805  0.6595
   14SAPS   H5X 1821   0.705   6.426   3.171 -2.8834 -0.3327  0.2564
   14SAPS   H5Y 1822   0.600   6.562   3.150  1.3832  1.8564 -2.4889
   14SAPS   C36 1823   0.781   6.595   3.287  0.1448 -0.1077 -0.0642
   14SAPS   H6X 1824   0.885   6.555   3.278 -0.5973 -2.3992  0.7731
   14SAPS   H6Y 1825   0.742   6.563   3.386  0.2874  2.6097  0.9517
   14SAPS   C37 1826   0.776   6.753   3.286 -0.4913  0.7807  0.7701
   14SAPS   H7X 1827   0.803   6.788   3.184  1.2373 -0.0694  0.9058
   14SAPS   H7Y 1828   0.860   6.795   3.345  0.8516 -1.4398  0.5314
   14SAPS   C38 1829   0.643   6.819   3.312  0.1645  0.0328 -0.2881
   14SAPS   H8X 1830   0.586   6.766   3.392  0.6267  1.1763  0.8452
   14SAPS   H8Y 1831   0.575   6.799   3.227  0.8218 -1.4134 -0.5032
   14SAPS   C39 1832   0.651   6.976   3.319 -0.0731  0.5979 -0.0622
   14SAPS   H9X 1833   0.548   7.017   3.322 -0.1273  0.5241 -0.7285
   14SAPS   H9Y 1834   0.697   7.017   3.227  1.2366 -1.0050 -0.1674
   14SAPS  C310 1835   0.732   7.036   3.438  0.2382  0.9734  0.0388
   14SAPS  H10X 1836   0.833   6.989   3.442  0.8004  1.9625 -1.5363
   14SAPS  H10Y 1837   0.674   7.006   3.528 -0.3812 -1.4734 -1.0852
   14SAPS  C311 1838   0.742   7.189   3.433  0.6487 -0.5575  0.1646
   14SAPS  H11X 1839   0.637   7.223   3.451  1.3420  0.9402  1.5902
   14SAPS  H11Y 1840   0.775   7.235   3.338  1.1005  0.2196  0.6886
   14SAPS  C312 1841   0.809   7.252   3.560 -0.3755  0.6101 -0.1493
   14SAPS  H12X 1842   0.919   7.241   3.561 -0.3768  0.6205  0.1036
   14SAPS  H12Y 1843   0.765   7.188   3.640 -0.2173 -1.2757 -1.4912
   14SAPS  C313 1844   0.778   7.402   3.576  0.6632 -0.0418 -0.4350
   14SAPS  H13X 1845   0.677   7.433   3.541 -0.2783 -0.8653  1.4009
   14SAPS  H13Y 1846   0.855   7.464   3.526  1.5219  1.7569  2.8342
   14SAPS  C314 1847   0.801   7.444   3.721  0.0434  0.2059 -0.3827
   14SAPS  H14X 1848   0.837   7.550   3.718 -2.6376  1.1779 -0.5643
   14SAPS  H14Y 1849   0.872   7.371   3.766  0.4971  0.6583 -0.3476
   14SAPS  C315 1850   0.663   7.439   3.803 -0.5672 -0.5982  0.8423
   14SAPS  H15X 1851   0.615   7.340   3.785 -3.0191  0.4565  1.1692
   14SAPS  H15Y 1852   0.597   7.517   3.759  2.1897  1.7770  0.6752
   14SAPS  C316 1853   0.678   7.457   3.949  0.2156 -0.8974 -0.2779
   14SAPS  H16X 1854   0.744   7.544   3.966 -1.1011  0.0683  0.0453
   14SAPS  H16Y 1855   0.728   7.368   3.993  0.9213  0.1636  1.1462
   14SAPS  C317 1856   0.543   7.495   4.014  0.3097  0.5277 -0.7297
   14SAPS  H17X 1857   0.465   7.427   3.973 -0.6805 -1.1711  3.4982
   14SAPS  H17Y 1858   0.514   7.600   3.990 -1.6914 -0.2641 -2.0488
   14SAPS  C318 1859   0.536   7.488   4.165  0.3762 -0.0577  0.1525
   14SAPS  H18X 1860   0.430   7.496   4.199  0.1165 -2.6865  0.1154
   14SAPS  H18Y 1861   0.591   7.580   4.197  1.4201  0.0164 -1.7280
   14SAPS  H18Z 1862   0.582   7.400   4.214 -2.5794 -0.8872  1.6709
   15SAPS     N 1863   4.697   5.500   2.236  0.6423  0.3733  0.7047
   15SAPS   HN1 1864   4.608   5.519   2.287 -0.3409  1.4718 -1.2988
   15SAPS   HN2 1865   4.671   5.530   2.140 -0.2310 -1.1956  0.4063
   15SAPS   HN3 1866   4.720   5.398   2.240 -1.0781 -0.0167  1.4168
   15SAPS   C12 1867   4.806   5.585   2.282  0.7615  0.0351 -0.3406
   15SAPS  H12A 1868   4.894   5.528   2.310  1.4784  1.4985  0.5087
   15SAPS   C13 1869   4.844   5.695   2.174  0.2050  0.1687  1.1795
   15SAPS  O13A 1870   4.790   5.690   2.058  0.3079  0.5673  0.5403
   15SAPS  O13B 1871   4.941   5.773   2.192 -0.0893 -0.2490  0.7566
   15SAPS   C11 1872   4.752   5.663   2.405 -0.1346  0.2053  0.2316
   15SAPS  H11A 1873   4.655   5.710   2.378  0.0476  0.7327  0.4779
   15SAPS  H11B 1874   4.822   5.748   2.421  2.8579 -2.0544 -0.1042
   15SAPS     P 1875   4.850   5.529   2.609  0.3624  0.0043  0.1467
   15SAPS   O13 1876   4.857   5.384   2.572 -0.6658  0.0959 -0.0264
   15SAPS   O14 1877   4.971   5.608   2.583 -0.3706 -0.2871 -0.5152
   15SAPS   O12 1878   4.732   5.586   2.526  0.7692  0.1815  0.3069
   15SAPS   O11 1879   4.811   5.570   2.755  0.0426 -0.0626  0.4398
   15SAPS    C1 1880   4.691   5.536   2.828  0.0367 -0.3458  0.3250
   15SAPS    HA 1881   4.613   5.611   2.801 -0.6087 -1.1176  0.0165
   15SAPS    HB 1882   4.650   5.435   2.806 -0.0399  0.0640 -1.5164
   15SAPS    C2 1883   4.704   5.555   2.985 -0.3551  0.0111 -0.1444
   15SAPS    HS 1884   4.607   5.569   3.037  0.8632  0.9554  2.0273
   15SAPS   O21 1885   4.791   5.667   3.006 -0.6351 -0.1947  0.3379
   15SAPS   C21 1886   4.768   5.737   3.122 -0.0097  0.2771 -0.0395
   15SAPS   O22 1887   4.681   5.706   3.198  0.1013  0.0995 -0.3193
   15SAPS   C22 1888   4.862   5.864   3.123 -1.0299 -0.3389 -0.0749
   15SAPS   H2R 1889   4.967   5.828   3.110 -0.1296  2.5633 -1.7821
   15SAPS   H2S 1890   4.841   5.921   3.030  1.8481  1.0518  0.0151
   15SAPS    C3 1891   4.775   5.426   3.049  0.9310  0.4137  0.2510
   15SAPS    HX 1892   4.870   5.424   2.992  0.4599  1.0150 -0.5735
   15SAPS    HY 1893   4.722   5.333   3.020  0.4824  1.3655 -2.2160
   15SAPS   O31 1894   4.794   5.436   3.193 -0.2691  0.8701 -0.2983
   15SAPS   C31 1895   4.675   5.421   3.252  0.2535  0.0443 -0.5483
   15SAPS   O32 1896   4.567   5.392   3.198 -0.3671 -0.8620 -0.4637
   15SAPS   C32 1897   4.692   5.435   3.403 -0.7083  0.1741  0.1524
   15SAPS   H2X 1898   4.743   5.532   3.425  1.4181 -0.6124 -0.9904
   15SAPS   H2Y 1899   4.759   5.352   3.435 -0.8606 -0.1740 -0.4209
   15SAPS   C23 1900   4.855   5.948   3.253  1.1345 -0.0746  0.6690
   15SAPS   H3R 1901   4.938   6.020   3.263 -0.1435  1.2325  2.4752
   15SAPS   H3S 1902   4.875   5.892   3.347  0.5176  1.7578  1.9501
   15SAPS   C24 1903   4.725   6.025   3.270  0.1817 -0.0748 -0.0046
   15SAPS   H4R 1904   4.736   6.072   3.370  1.8345  0.2463 -0.3088
   15SAPS   H4S 1905   4.640   5.953   3.273 -1.9764  2.3325  0.6172
   15SAPS   C25 1906   4.682   6.132   3.170  0.3291 -0.5102 -0.3085
   15SAPS   H5R 1907   4.718   6.105   3.069  0.2350  0.4541 -0.6065
   15SAPS   C26 1908   4.631   6.253   3.196 -0.0813 -0.6206 -0.1130
   15SAPS   H6R 1909   4.603   6.318   3.112 -0.3583  0.3471  0.7114
   15SAPS   C27 1910   4.585   6.300   3.333  0.4058 -0.4971 -0.0537
   15SAPS   H7R 1911   4.650   6.269   3.418 -0.1383 -1.6078 -0.0224
   15SAPS   H7S 1912   4.490   6.244   3.347 -1.2182  1.9244 -0.8625
   15SAPS   C28 1913   4.561   6.445   3.337  0.1019  0.2669 -0.6465
   15SAPS   H8R 1914   4.534   6.502   3.246 -0.9384 -0.0223 -0.5374
   15SAPS   C29 1915   4.566   6.514   3.454  0.6582 -0.2290 -0.0007
   15SAPS   H9R 1916   4.552   6.623   3.456 -2.9094 -0.5805  1.5112
   15SAPS  C210 1917   4.599   6.453   3.589 -0.8832  0.0562 -0.4668
   15SAPS  H10R 1918   4.705   6.479   3.607 -0.8529 -0.3980  0.0659
   15SAPS  H10S 1919   4.599   6.342   3.596  1.3918  0.1245  1.9755
   15SAPS  C211 1920   4.527   6.514   3.703  0.5193 -0.0744  0.3979
   15SAPS  H11R 1921   4.464   6.602   3.684  1.5571  0.7204  0.5201
   15SAPS  C212 1922   4.538   6.484   3.837  0.3382  0.3170 -0.2653
   15SAPS  H12R 1923   4.473   6.538   3.907 -3.3781 -2.5536 -1.1471
   15SAPS  C213 1924   4.615   6.370   3.903 -0.0222 -0.4064 -0.0122
   15SAPS  H13R 1925   4.711   6.414   3.937  0.3295 -1.0921 -0.1040
   15SAPS  H13S 1926   4.654   6.298   3.828 -0.5632 -0.9828  0.2524
   15SAPS  C214 1927   4.546   6.317   4.024  0.3824  0.3506  0.5285
   15SAPS  H14R 1928   4.470   6.385   4.065 -1.7694 -0.8971 -1.1661
   15SAPS  C215 1929   4.545   6.187   4.057  0.0576  0.5810 -0.0293
   15SAPS  H15R 1930   4.472   6.149   4.131 -0.9442 -1.4469 -1.9522
   15SAPS  C216 1931   4.626   6.086   3.993 -0.5096  0.3104 -0.5415
   15SAPS  H16R 1932   4.681   6.042   4.079  0.5959  2.1663 -0.2241
   15SAPS  H16S 1933   4.704   6.130   3.928  0.8752 -0.7483  0.3703
   15SAPS  C217 1934   4.557   5.988   3.899 -0.9527 -0.3929 -0.1261
   15SAPS  H17R 1935   4.473   5.942   3.955  0.4037  2.0292  4.4136
   15SAPS  H17S 1936   4.633   5.913   3.869 -0.3223  0.4285 -0.6332
   15SAPS  C218 1937   4.520   6.050   3.757  1.0615 -0.1917  0.0814
   15SAPS  H18R 1938   4.606   6.092   3.701 -0.1288  0.9003 -1.0002
   15SAPS  H18S 1939   4.460   6.141   3.779 -0.9436 -1.2107 -0.9178
   15SAPS  C219 1940   4.446   5.947   3.668  0.1975 -0.5364 -0.8075
   15SAPS  H19R 1941   4.384   6.003   3.595 -0.8995  0.0634  0.5491
   15SAPS  H19S 1942   4.367   5.912   3.738  0.8637  1.2490  0.9221
   15SAPS  C220 1943   4.528   5.849   3.604  0.1437  0.4789 -0.3411
   15SAPS  H20R 1944   4.587   5.896   3.523  1.2536  0.8659  0.6556
   15SAPS  H20S 1945   4.455   5.786   3.549  1.0059 -0.3514 -0.5581
   15SAPS  H20T 1946   4.596   5.789   3.669  1.6015  1.4044 -0.9750
   15SAPS   C33 1947   4.561   5.436   3.482  0.2573 -0.1893  0.5592
   15SAPS   H3X 1948   4.495   5.351   3.454  0.6881 -0.8838  1.5846
   15SAPS   H3Y 1949   4.505   5.521   3.439 -2.1717 -2.5688 -1.3781
   15SAPS   C34 1950   4.571   5.452   3.635 -0.4210 -1.0350  0.0911
   15SAPS   H4X 1951   4.611   5.549   3.672 -0.0251 -0.8830 -0.7069
   15SAPS   H4Y 1952   4.659   5.394   3.668 -1.3732 -1.9530  1.1204
   15SAPS   C35 1953   4.439   5.434   3.709  0.7043  0.4748  0.1266
   15SAPS   H5X 1954   4.465   5.393   3.809 -1.7460  0.6297  0.8961
   15SAPS   H5Y 1955   4.376   5.349   3.674  1.9159 -0.8879  1.1025
   15SAPS   C36 1956   4.361   5.564   3.732 -0.1463  0.0922  0.1445
   15SAPS   H6X 1957   4.353   5.602   3.628 -0.7766  0.4805  0.3331
   15SAPS   H6Y 1958   4.426   5.635   3.787  0.7263 -0.0562 -0.6663
   15SAPS   C37 1959   4.230   5.568   3.809 -0.2967  0.0956  0.3623
   15SAPS   H7X 1960   4.181   5.468   3.804  0.0751 -0.0387 -1.6320
   15SAPS   H7Y 1961   4.167   5.646   3.761  1.3771  0.6483 -1.0552
   15SAPS   C38 1962   4.255   5.601   3.964 -0.0606  0.4494 -0.3150
   15SAPS   H8X 1963   4.154   5.605   4.011  0.4750 -0.1437  0.9196
   15SAPS   H8Y 1964   4.295   5.705   3.970  0.1334  0.3612 -0.1244
   15SAPS   C39 1965   4.347   5.503   4.038 -0.4036  1.0614  0.3910
   15SAPS   H9X 1966   4.341   5.532   4.145 -1.3876  2.8403 -0.1039
   15SAPS   H9Y 1967   4.453   5.514   4.009 -0.1980  1.1859  1.1793
   15SAPS  C310 1968   4.303   5.350   4.033 -0.3364 -0.1104 -0.2269
   15SAPS  H10X 1969   4.334   5.315   3.932 -0.8110 -0.8258 -0.1292
   15SAPS  H10Y 1970   4.194   5.350   4.050 -0.5471 -2.4124 -1.2828
   15SAPS  C311 1971   4.366   5.268   4.141 -0.7320 -0.6843  0.1416
   15SAPS  H11X 1972   4.360   5.312   4.243 -0.1879 -4.1136  1.8120
   15SAPS  H11Y 1973   4.472   5.240   4.123 -0.5968  1.5218 -3.2395
   15SAPS  C312 1974   4.285   5.138   4.152  0.3665  0.5249 -0.3054
   15SAPS  H12X 1975   4.280   5.097   4.050 -2.3617  0.9670 -0.4196
   15SAPS  H12Y 1976   4.182   5.162   4.186 -0.2678 -0.6460 -1.3445
   15SAPS  C313 1977   4.352   5.043   4.249 -0.2716 -0.6596  0.1805
   15SAPS  H13X 1978   4.454   5.029   4.208  0.3402 -0.0273  1.4463
   15SAPS  H13Y 1979   4.293   4.951   4.230  1.5990 -1.6466 -1.1933
   15SAPS  C314 1980   4.355   5.076   4.405 -0.2285 -0.1339  1.0398
   15SAPS  H14X 1981   4.248   5.093   4.430 -0.3965 -0.2877  0.4424
   15SAPS  H14Y 1982   4.409   5.173   4.408 -0.5509  0.4202 -3.6478
   15SAPS  C315 1983   4.409   4.966   4.496 -0.2883 -0.5860 -0.0201
   15SAPS  H15X 1984   4.338   4.884   4.472 -0.5399 -0.5356  0.5409
   15SAPS  H15Y 1985   4.406   4.988   4.605  0.1591  0.8594 -0.2744
   15SAPS  C316 1986   4.541   4.901   4.454  0.1707  0.3810 -0.1901
   15SAPS  H16X 1987   4.518   4.857   4.355 -3.9655  1.0616  0.2893
   15SAPS  H16Y 1988   4.553   4.823   4.531 -0.1845  2.1378  1.7362
   15SAPS  C317 1989   4.666   4.990   4.461  0.3291  0.9248 -0.0638
   15SAPS  H17X 1990   4.649   5.074   4.390  1.3855  1.4386  0.2677
   15SAPS  H17Y 1991   4.751   4.929   4.424  1.9541  2.0342  1.6471
   15SAPS  C318 1992   4.698   5.048   4.602 -0.5282 -0.0200  0.0864
   15SAPS  H18X 1993   4.788   5.112   4.590 -1.2453  0.9922 -0.0389
   15SAPS  H18Y 1994   4.728   4.961   4.664  0.9223 -1.9637 -3.0854
   15SAPS  H18Z 1995   4.618   5.113   4.642  0.7821  2.3184 -0.8789
   16SAPS     N 1996   6.441   6.578   1.840 -0.4063  0.3219 -0.7346
   16SAPS   HN1 1997   6.392   6.612   1.755  0.4792  0.5947 -1.1406
   16SAPS   HN2 1998   6.497   6.656   1.881  0.2873 -1.1515  1.2985
   16SAPS   HN3 1999   6.504   6.499   1.815  0.5464  1.0317 -0.6316
   16SAPS   C12 2000   6.347   6.508   1.936  0.3362  0.5042 -0.6228
   16SAPS  H12A 2001   6.260   6.572   1.939  1.0836  1.6385 -2.0967
   16SAPS   C13 2002   6.302   6.366   1.892 -0.6044  0.0596  0.1748
   16SAPS  O13A 2003   6.333   6.323   1.772  0.7584  0.3935 -0.4453
   16SAPS  O13B 2004   6.225   6.303   1.970  0.5644 -0.2906  0.5601
   16SAPS   C11 2005   6.397   6.502   2.076 -0.5816  0.3262 -0.4520
   16SAPS  H11A 2006   6.488   6.439   2.084 -0.4663  0.6944  2.1306
   16SAPS  H11B 2007   6.318   6.464   2.144  0.0713  0.5152  0.4443
   16SAPS     P 2008   6.331   6.727   2.194 -0.3218 -0.4657  0.2262
   16SAPS   O13 2009   6.402   6.841   2.257  0.2360 -0.2404 -0.4448
   16SAPS   O14 2010   6.233   6.762   2.090  0.2806  0.1703  0.0946
   16SAPS   O12 2011   6.437   6.623   2.132  0.2369  0.4409 -0.2806
   16SAPS   O11 2012   6.257   6.638   2.298  0.0212  0.5600 -0.4607
   16SAPS    C1 2013   6.328   6.585   2.408  0.4220  0.3604  0.3921
   16SAPS    HA 2014   6.406   6.513   2.375  0.6994  1.7791 -2.3332
   16SAPS    HB 2015   6.376   6.667   2.465  0.1955  1.8620 -1.4829
   16SAPS    C2 2016   6.247   6.508   2.506  0.6087  0.1238 -0.0927
   16SAPS    HS 2017   6.314   6.446   2.570 -2.7367  0.0515  3.8162
   16SAPS   O21 2018   6.145   6.430   2.445 -0.5997  0.1436  0.1844
   16SAPS   C21 2019   6.182   6.332   2.374 -0.7299  0.6645  0.0085
   16SAPS   O22 2020   6.295   6.290   2.367 -0.2380 -0.3594 -0.4784
   16SAPS   C22 2021   6.061   6.249   2.337  0.3602 -0.3038  0.5827
   16SAPS   H2R 2022   5.968   6.305   2.357  0.4688 -0.5624  1.8843
   16SAPS   H2S 2023   6.058   6.216   2.231 -0.2597 -0.3813  0.6242
   16SAPS    C3 2024   6.162   6.604   2.606  0.1741  0.7642  0.4502
   16SAPS    HX 2025   6.072   6.638   2.551 -0.2059 -1.6560 -0.5702
   16SAPS    HY 2026   6.231   6.688   2.632  2.3102 -0.9160  0.5042
   16SAPS   O31 2027   6.123   6.528   2.723  0.1501 -0.3943  0.2135
   16SAPS   C31 2028   6.038   6.599   2.800 -0.5399 -1.2402 -0.0429
   16SAPS   O32 2029   5.992   6.706   2.769  0.1382 -0.5527  0.2024
   16SAPS   C32 2030   6.004   6.511   2.921 -0.3224 -0.2033 -0.0912
   16SAPS   H2X 2031   5.969   6.419   2.870 -0.1987  0.6533 -1.7957
   16SAPS   H2Y 2032   5.915   6.557   2.969 -0.4932  0.8737 -1.4047
   16SAPS   C23 2033   6.062   6.120   2.424 -0.3097  0.6552  0.2222
   16SAPS   H3R 2034   6.166   6.085   2.439 -0.3768  0.1927 -0.3331
   16SAPS   H3S 2035   6.019   6.034   2.369  0.7521  1.3064 -1.7636
   16SAPS   C24 2036   5.990   6.140   2.559  0.3994  0.3251  0.6054
   16SAPS   H4R 2037   5.905   6.210   2.541  0.0671 -0.6185 -1.8670
   16SAPS   H4S 2038   6.064   6.204   2.612  2.8813 -0.5128 -1.6420
   16SAPS   C25 2039   5.952   6.024   2.649 -0.2061  0.0741  0.2371
   16SAPS   H5R 2040   5.874   5.959   2.605  0.4985 -0.3810 -0.3626
   16SAPS   C26 2041   6.004   5.989   2.770  0.9941 -0.1340 -0.2243
   16SAPS   H6R 2042   5.966   5.900   2.823  0.7981 -0.1936 -0.4627
   16SAPS   C27 2043   6.110   6.050   2.851  0.0444  0.1541  0.0888
   16SAPS   H7R 2044   6.076   6.106   2.941 -1.7774  0.0342 -0.4892
   16SAPS   H7S 2045   6.171   6.120   2.790  0.1777  1.7629  1.9462
   16SAPS   C28 2046   6.204   5.940   2.890 -0.1922 -0.2421 -0.2130
   16SAPS   H8R 2047   6.274   5.914   2.809 -0.7797 -2.5835 -0.0360
   16SAPS   C29 2048   6.208   5.877   3.013  0.0345  0.6670 -0.7625
   16SAPS   H9R 2049   6.287   5.803   3.033  0.3396  1.4267  1.0406
   16SAPS  C210 2050   6.119   5.912   3.137  0.0172  0.0188 -0.5558
   16SAPS  H10R 2051   6.021   5.941   3.094  0.4681  2.4026 -0.1207
   16SAPS  H10S 2052   6.161   6.000   3.190 -1.7593 -0.2431  1.4059
   16SAPS  C211 2053   6.099   5.804   3.242 -0.7269 -0.9430  1.0899
   16SAPS  H11R 2054   6.101   5.700   3.206 -0.5972 -1.2842  2.0422
   16SAPS  C212 2055   6.068   5.822   3.369  0.1766  0.3771 -0.5901
   16SAPS  H12R 2056   6.045   5.733   3.429 -4.3919  3.0912  2.2693
   16SAPS  C213 2057   6.052   5.947   3.447  0.2921 -0.6370 -0.0397
   16SAPS  H13R 2058   5.944   5.969   3.452  0.0993 -1.6527  0.6862
   16SAPS  H13S 2059   6.099   6.015   3.373 -0.7222 -3.0232 -3.0817
   16SAPS  C214 2060   6.104   5.936   3.592  0.0954 -0.2948  0.7720
   16SAPS  H14R 2061   6.196   5.995   3.606 -0.6721  1.4457 -1.0570
   16SAPS  C215 2062   6.049   5.873   3.702 -0.2711 -0.0735 -0.0195
   16SAPS  H15R 2063   6.105   5.866   3.797  0.3655 -2.2432 -0.5000
   16SAPS  C216 2064   5.919   5.808   3.701  0.3198  0.6093  0.6231
   16SAPS  H16R 2065   5.862   5.811   3.605 -1.0601  0.3099  1.3977
   16SAPS  H16S 2066   5.847   5.850   3.775 -0.5805 -0.8025  0.5966
   16SAPS  C217 2067   5.924   5.659   3.748  0.2133 -0.1061 -0.0175
   16SAPS  H17R 2068   5.986   5.596   3.681  0.5918  1.3092 -1.0530
   16SAPS  H17S 2069   5.818   5.627   3.741 -0.6272  2.7591 -2.0935
   16SAPS  C218 2070   5.977   5.650   3.898 -0.4024  0.2012 -0.8461
   16SAPS  H18R 2071   6.086   5.672   3.898 -0.0525 -1.3977 -0.1021
   16SAPS  H18S 2072   5.975   5.545   3.934 -0.7591  0.3809 -0.3306
   16SAPS  C219 2073   5.917   5.749   3.996  0.1970  0.3989 -0.3703
   16SAPS  H19R 2074   5.806   5.744   4.000  0.1603  1.0662 -0.4655
   16SAPS  H19S 2075   5.939   5.854   3.965 -0.2759  0.0161 -2.1119
   16SAPS  C220 2076   5.959   5.736   4.147  0.0918  0.3333  0.5056
   16SAPS  H20R 2077   5.943   5.633   4.187 -0.2119  1.0080  2.2053
   16SAPS  H20S 2078   5.913   5.811   4.215  1.0290  0.2586  1.2339
   16SAPS  H20T 2079   6.065   5.739   4.180 -0.1418  2.0288  1.2010
   16SAPS   C33 2080   6.116   6.491   3.025 -0.0408  0.4736  0.0452
   16SAPS   H3X 2081   6.163   6.589   3.052 -1.5823  1.7900 -1.7942
   16SAPS   H3Y 2082   6.196   6.429   2.980 -0.9421 -0.2203 -0.6247
   16SAPS   C34 2083   6.062   6.431   3.148 -0.3576 -0.1437 -0.1767
   16SAPS   H4X 2084   6.010   6.335   3.129 -0.3686 -0.3949  1.0351
   16SAPS   H4Y 2085   5.995   6.509   3.188  1.0811  1.8437 -1.4567
   16SAPS   C35 2086   6.175   6.412   3.257  0.5128 -0.1253 -0.0805
   16SAPS   H5X 2087   6.225   6.510   3.274 -4.8468  2.8112  0.9779
   16SAPS   H5Y 2088   6.244   6.329   3.231  3.2845  1.0989  2.7875
   16SAPS   C36 2089   6.108   6.373   3.392  0.1411 -0.1832 -0.4028
   16SAPS   H6X 2090   6.023   6.303   3.379 -0.7610  1.0329 -1.2224
   16SAPS   H6Y 2091   6.073   6.464   3.446 -2.1747 -0.9240 -0.5632
   16SAPS   C37 2092   6.208   6.311   3.493  0.0289  0.5570  0.3075
   16SAPS   H7X 2093   6.310   6.352   3.482  0.0638  0.6829  1.0606
   16SAPS   H7Y 2094   6.218   6.203   3.469 -1.0108  0.4540  0.2831
   16SAPS   C38 2095   6.164   6.322   3.644 -0.3612 -0.4217  0.4598
   16SAPS   H8X 2096   6.184   6.422   3.689 -0.5814  0.4033 -1.1838
   16SAPS   H8Y 2097   6.229   6.247   3.695 -1.3155 -2.8371 -1.6536
   16SAPS   C39 2098   6.019   6.280   3.669 -0.3113 -0.0475  0.5334
   16SAPS   H9X 2099   5.983   6.200   3.601  0.1250  0.8212 -0.7610
   16SAPS   H9Y 2100   5.970   6.374   3.637  0.8199  0.2545 -0.3753
   16SAPS  C310 2101   5.988   6.253   3.813 -0.3590 -0.0768  0.7051
   16SAPS  H10X 2102   6.057   6.174   3.852 -0.9007 -1.5976 -1.2466
   16SAPS  H10Y 2103   5.888   6.206   3.820 -0.5380  0.5033  3.7293
   16SAPS  C311 2104   5.997   6.372   3.910  0.9617  0.4505  0.1511
   16SAPS  H11X 2105   5.919   6.447   3.885  0.2831 -0.0836  0.6245
   16SAPS  H11Y 2106   6.095   6.421   3.891  1.4914 -0.1725  1.1510
   16SAPS  C312 2107   5.967   6.331   4.057 -1.2312 -0.4110  0.0232
   16SAPS  H12X 2108   5.865   6.287   4.049 -0.7795 -1.7113  0.9550
   16SAPS  H12Y 2109   5.965   6.425   4.115 -2.7646 -0.4260  0.0355
   16SAPS  C313 2110   6.063   6.226   4.117 -0.2067 -0.2613  0.6920
   16SAPS  H13X 2111   6.165   6.252   4.082  1.2127 -2.0745  3.2203
   16SAPS  H13Y 2112   6.025   6.130   4.075 -1.2046  0.5944 -0.4518
   16SAPS  C314 2113   6.043   6.203   4.263 -0.2811  0.0853 -0.5082
   16SAPS  H14X 2114   6.115   6.127   4.300 -0.4154  0.0433 -0.3345
   16SAPS  H14Y 2115   5.935   6.177   4.265 -0.2938 -0.2367 -2.9129
   16SAPS  C315 2116   6.085   6.327   4.353 -0.0252  0.5023 -0.1604
   16SAPS  H15X 2117   5.996   6.393   4.343 -0.9117 -0.4741  0.9929
   16SAPS  H15Y 2118   6.176   6.383   4.322  0.2477  1.6814  2.5085
   16SAPS  C316 2119   6.103   6.294   4.503  0.6414  0.7980  0.9484
   16SAPS  H16X 2120   6.027   6.217   4.526  0.8413 -0.3203 -1.7234
   16SAPS  H16Y 2121   6.069   6.383   4.560 -0.3446  0.4891  0.8530
   16SAPS  C317 2122   6.235   6.236   4.544 -0.0404 -0.4047 -1.1010
   16SAPS  H17X 2123   6.323   6.297   4.515 -0.9624  0.9835 -1.0756
   16SAPS  H17Y 2124   6.257   6.134   4.503  0.4088 -0.0482 -1.7738
   16SAPS  C318 2125   6.239   6.224   4.694 -0.7541 -0.5139 -0.9407
   16SAPS  H18X 2126   6.270   6.311   4.755  1.2375 -2.3955  0.9314
   16SAPS  H18Y 2127   6.311   6.145   4.723 -0.2119  0.8042  1.5491
   16SAPS  H18Z 2128   6.141   6.181   4.723 -0.8270 -0.2922 -0.8622
   17SAPS     N 2129   3.635   2.316   2.526 -0.0744  0.2799 -0.3490
   17SAPS   HN1 2130   3.588   2.399   2.567 -0.1091  0.4933 -0.8222
   17SAPS   HN2 2131   3.733   2.330   2.497 -0.0050  0.9006  0.1716
   17SAPS   HN3 2132   3.583   2.274   2.446 -1.4554  0.4102  0.4407
   17SAPS   C12 2133   3.647   2.213   2.635  0.2150 -0.9327 -0.2571
   17SAPS  H12A 2134   3.659   2.261   2.731  0.3434 -1.0468 -0.2162
   17SAPS   C13 2135   3.515   2.132   2.648 -0.4064 -1.0530 -0.3102
   17SAPS  O13A 2136   3.416   2.162   2.576 -0.0676 -0.7802  0.2271
   17SAPS  O13B 2137   3.498   2.064   2.750  0.1259 -0.5775  0.1742
   17SAPS   C11 2138   3.758   2.109   2.608 -0.1063  0.0052 -0.0103
   17SAPS  H11A 2139   3.733   2.048   2.519  1.1995  0.2703 -0.5834
   17SAPS  H11B 2140   3.768   2.039   2.694 -1.0694  0.3844  0.4203
   17SAPS     P 2141   4.026   2.148   2.643  0.3674 -0.1942 -0.2858
   17SAPS   O13 2142   4.077   2.019   2.597  0.9405 -0.2670  0.7771
   17SAPS   O14 2143   4.116   2.261   2.608  0.3850 -0.4702  0.1596
   17SAPS   O12 2144   3.883   2.176   2.581  0.1049  0.0105  0.7725
   17SAPS   O11 2145   4.005   2.141   2.799  0.2626 -0.2494  0.0673
   17SAPS    C1 2146   3.994   2.263   2.866 -0.2590 -0.3690 -0.3021
   17SAPS    HA 2147   4.085   2.327   2.863 -0.0400 -0.6956 -1.0565
   17SAPS    HB 2148   3.914   2.324   2.819  0.6124 -0.2141 -1.6621
   17SAPS    C2 2149   3.948   2.242   3.014  0.6076  0.0243  0.6720
   17SAPS    HS 2150   3.893   2.330   3.055  0.9171  0.4517  0.1860
   17SAPS   O21 2151   4.064   2.214   3.099 -0.9336 -0.1566  0.0898
   17SAPS   C21 2152   4.102   2.316   3.169 -0.2757  0.6076  0.2421
   17SAPS   O22 2153   4.072   2.435   3.145  0.1297  0.3361  0.4496
   17SAPS   C22 2154   4.206   2.261   3.275  0.3516  0.0118  1.0736
   17SAPS   H2R 2155   4.156   2.168   3.308  2.1113 -2.2139 -2.0202
   17SAPS   H2S 2156   4.297   2.234   3.218  1.1027  1.6866  1.4001
   17SAPS    C3 2157   3.844   2.121   3.029 -0.8443 -0.0029  0.6376
   17SAPS    HX 2158   3.914   2.037   3.013  1.1145  2.0179 -2.3959
   17SAPS    HY 2159   3.764   2.128   2.952  0.1366 -0.3578 -0.4234
   17SAPS   O31 2160   3.782   2.109   3.160  0.0482  0.5890  0.4818
   17SAPS   C31 2161   3.688   2.194   3.181 -0.2028 -0.6622  0.3745
   17SAPS   O32 2162   3.650   2.282   3.105  0.0293 -0.4043  0.3531
   17SAPS   C32 2163   3.625   2.172   3.311  0.1832 -0.9685  0.5206
   17SAPS   H2X 2164   3.646   2.069   3.346  0.3870 -1.2694 -0.4573
   17SAPS   H2Y 2165   3.519   2.200   3.323  0.6769  0.2725  2.5626
   17SAPS   C23 2166   4.225   2.356   3.394 -0.2153 -0.5811  0.1210
   17SAPS   H3R 2167   4.125   2.405   3.406 -0.4540 -0.3310 -2.4423
   17SAPS   H3S 2168   4.301   2.432   3.365 -0.6586 -1.2409 -3.0696
   17SAPS   C24 2169   4.277   2.281   3.518 -0.8265 -0.1905  0.3538
   17SAPS   H4R 2170   4.375   2.235   3.493 -0.7255  1.1147 -1.8849
   17SAPS   H4S 2171   4.203   2.199   3.532 -1.8916  0.4447 -1.2435
   17SAPS   C25 2172   4.301   2.367   3.639 -0.4674  0.6330  0.3593
   17SAPS   H5R 2173   4.380   2.443   3.634  2.2685 -2.0200 -0.0439
   17SAPS   C26 2174   4.244   2.358   3.757 -0.1459 -0.1271 -0.2027
   17SAPS   H6R 2175   4.292   2.427   3.828 -0.1983  0.7701 -1.0294
   17SAPS   C27 2176   4.139   2.262   3.810  0.1447 -0.1758 -0.8600
   17SAPS   H7R 2177   4.197   2.175   3.848  2.4542  1.9124  0.6927
   17SAPS   H7S 2178   4.078   2.214   3.730  3.8832 -0.6920 -3.6442
   17SAPS   C28 2179   4.035   2.305   3.920 -0.1559 -0.3779 -0.1004
   17SAPS   H8R 2180   3.945   2.357   3.886  0.6267  0.8866 -0.3246
   17SAPS   C29 2181   4.055   2.299   4.055 -0.8606  0.2868 -0.0122
   17SAPS   H9R 2182   3.973   2.327   4.121 -0.6962  0.4747  0.1126
   17SAPS  C210 2183   4.179   2.240   4.123  0.1817 -0.1019 -0.1461
   17SAPS  H10R 2184   4.262   2.231   4.050 -0.9360 -1.0443 -1.3509
   17SAPS  H10S 2185   4.149   2.137   4.153  1.4204 -0.5288 -0.3205
   17SAPS  C211 2186   4.236   2.333   4.227  0.2817  0.3530  0.6734
   17SAPS  H11R 2187   4.230   2.437   4.193  0.7745  0.2827  0.3617
   17SAPS  C212 2188   4.274   2.301   4.351  0.1539  0.7490 -0.5379
   17SAPS  H12R 2189   4.278   2.390   4.415  0.0239  0.5008 -0.1812
   17SAPS  C213 2190   4.274   2.161   4.417  0.8366  0.1866 -0.5422
   17SAPS  H13R 2191   4.262   2.083   4.339 -2.3175  0.7749 -0.7736
   17SAPS  H13S 2192   4.183   2.156   4.481  0.4961  2.3393 -0.7660
   17SAPS  C214 2193   4.397   2.132   4.501 -0.0276  0.9253 -0.7606
   17SAPS  H14R 2194   4.493   2.137   4.447  0.1639  1.1558 -0.3961
   17SAPS  C215 2195   4.403   2.098   4.637  0.3510  0.2207  0.7635
   17SAPS  H15R 2196   4.503   2.090   4.682 -0.3788 -1.4302  2.2007
   17SAPS  C216 2197   4.289   2.085   4.739  0.5628 -0.1895 -0.0248
   17SAPS  H16R 2198   4.292   1.997   4.807 -1.0392 -0.7052 -0.5889
   17SAPS  H16S 2199   4.188   2.093   4.695 -0.1489  0.1437  1.6208
   17SAPS  C217 2200   4.280   2.219   4.820 -0.0536 -0.8269  0.4628
   17SAPS  H17R 2201   4.369   2.247   4.879 -0.4845  1.0247  0.2861
   17SAPS  H17S 2202   4.194   2.218   4.891  2.2659  1.9536  3.5692
   17SAPS  C218 2203   4.256   2.350   4.731 -0.8780  0.1563 -0.0719
   17SAPS  H18R 2204   4.176   2.332   4.657 -0.6768  0.2976 -0.3285
   17SAPS  H18S 2205   4.351   2.352   4.673 -0.8119  0.8113  0.0514
   17SAPS  C219 2206   4.241   2.481   4.811 -0.5692  0.2224 -0.6438
   17SAPS  H19R 2207   4.334   2.495   4.870  1.3366 -0.8308 -3.2344
   17SAPS  H19S 2208   4.153   2.477   4.879 -0.2250  0.0390 -0.2105
   17SAPS  C220 2209   4.222   2.596   4.719  0.2558  0.0526 -1.1353
   17SAPS  H20R 2210   4.212   2.689   4.779  1.1154 -0.9976  0.7558
   17SAPS  H20S 2211   4.133   2.581   4.655  1.5785  0.4781 -3.1635
   17SAPS  H20T 2212   4.306   2.615   4.648 -0.4275  1.3834 -1.6082
   17SAPS   C33 2213   3.680   2.272   3.422  0.0643  0.2871  0.3584
   17SAPS   H3X 2214   3.643   2.375   3.403 -2.3906 -0.4438  0.7990
   17SAPS   H3Y 2215   3.791   2.264   3.427  0.2679  0.9601 -1.8995
   17SAPS   C34 2216   3.633   2.225   3.563  0.1279  0.6506 -0.4789
   17SAPS   H4X 2217   3.667   2.121   3.582 -0.7446  0.5029  0.4027
   17SAPS   H4Y 2218   3.523   2.213   3.574  0.4671 -0.6323  2.1889
   17SAPS   C35 2219   3.685   2.312   3.673 -0.0884 -0.2618 -1.0163
   17SAPS   H5X 2220   3.661   2.416   3.641  0.8071  1.0901  2.2381
   17SAPS   H5Y 2221   3.797   2.309   3.670 -0.0268  0.0620  0.3497
   17SAPS   C36 2222   3.632   2.283   3.814 -0.1971  0.1082  0.3676
   17SAPS   H6X 2223   3.680   2.189   3.848  2.5527  1.7680  1.4406
   17SAPS   H6Y 2224   3.524   2.262   3.800 -0.0324 -0.0715 -0.6693
   17SAPS   C37 2225   3.655   2.394   3.922  0.7444 -0.0856 -0.3010
   17SAPS   H7X 2226   3.584   2.476   3.899 -1.7601 -2.0017  0.2257
   17SAPS   H7Y 2227   3.763   2.422   3.918  1.1547 -1.4477  0.5457
   17SAPS   C38 2228   3.628   2.323   4.052  0.5088 -0.1995  0.1261
   17SAPS   H8X 2229   3.695   2.241   4.087  0.7336  1.2620  3.5042
   17SAPS   H8Y 2230   3.527   2.280   4.066  0.2490  0.6546  0.9823
   17SAPS   C39 2231   3.635   2.424   4.170 -0.7138 -0.6438 -0.5223
   17SAPS   H9X 2232   3.562   2.502   4.139 -0.1140  0.8316  1.5817
   17SAPS   H9Y 2233   3.734   2.473   4.184 -2.3173  1.9397  3.5072
   17SAPS  C310 2234   3.594   2.362   4.303  0.4615  0.0932 -0.0447
   17SAPS  H10X 2235   3.673   2.286   4.320 -0.7997 -0.6965  3.1294
   17SAPS  H10Y 2236   3.487   2.333   4.288  0.2815  1.8524 -2.7367
   17SAPS  C311 2237   3.580   2.467   4.418  0.3043 -0.0970  0.3008
   17SAPS  H11X 2238   3.500   2.419   4.478  0.6790  0.4199  1.2424
   17SAPS  H11Y 2239   3.553   2.568   4.379  1.9409 -0.8902 -3.2807
   17SAPS  C312 2240   3.705   2.474   4.512 -0.0047  0.2718 -0.4586
   17SAPS  H12X 2241   3.790   2.521   4.459 -0.8088  0.7757 -1.3281
   17SAPS  H12Y 2242   3.745   2.371   4.529 -0.2171 -0.0176 -1.6044
   17SAPS  C313 2243   3.662   2.529   4.655 -0.6807  0.1392  0.4925
   17SAPS  H13X 2244   3.596   2.454   4.703  0.0047 -0.5860  0.3290
   17SAPS  H13Y 2245   3.602   2.619   4.632 -0.0286 -0.0136 -2.0977
   17SAPS  C314 2246   3.773   2.558   4.753  0.0514 -0.2848 -0.8331
   17SAPS  H14X 2247   3.850   2.630   4.717  2.6619 -2.0524  0.8721
   17SAPS  H14Y 2248   3.827   2.464   4.776  3.4188  1.1944 -2.1066
   17SAPS  C315 2249   3.717   2.621   4.881  0.8637 -1.2358  0.0716
   17SAPS  H15X 2250   3.638   2.559   4.928 -0.8249  0.5303 -0.3181
   17SAPS  H15Y 2251   3.675   2.719   4.849  0.4755 -1.3855  0.1224
   17SAPS  C316 2252   3.824   2.671   4.989  0.6482 -0.6934 -0.2568
   17SAPS  H16X 2253   3.776   2.747   5.054  1.6727  1.8756 -2.3509
   17SAPS  H16Y 2254   3.896   2.734   4.933 -0.1616 -0.2224 -0.7835
   17SAPS  C317 2255   3.902   2.563   5.063 -0.0041 -0.1649  0.2204
   17SAPS  H17X 2256   3.945   2.494   4.987  0.3113 -2.5212  2.4117
   17SAPS  H17Y 2257   3.826   2.507   5.122 -0.8204  1.9416  1.2713
   17SAPS  C318 2258   4.009   2.611   5.163 -0.1895 -0.1164  1.3269
   17SAPS  H18X 2259   4.058   2.524   5.211 -1.1906 -0.6138  1.4812
   17SAPS  H18Y 2260   3.955   2.667   5.243  0.0401  0.5707  1.0052
   17SAPS  H18Z 2261   4.083   2.672   5.108 -0.0930 -0.1715  1.3956
   18SAPS     N 2262   1.209   4.468   2.314 -0.0795 -0.2344 -0.5574
   18SAPS   HN1 2263   1.286   4.464   2.385 -0.1116  0.3100 -0.4823
   18SAPS   HN2 2264   1.132   4.412   2.354 -1.3924  0.6564 -1.7574
   18SAPS   HN3 2265   1.237   4.421   2.226 -3.4890  0.8164 -2.3655
   18SAPS   C12 2266   1.133   4.598   2.285 -0.0517  0.5106 -1.2921
   18SAPS  H12A 2267   1.212   4.672   2.292  3.1801 -2.7718 -0.3689
   18SAPS   C13 2268   1.066   4.603   2.153  0.3663 -0.1250  0.0380
   18SAPS  O13A 2269   1.073   4.503   2.074 -0.3331 -0.3865 -0.1652
   18SAPS  O13B 2270   1.022   4.711   2.110  0.3403  0.3576 -0.4188
   18SAPS   C11 2271   1.024   4.612   2.401  0.2287  0.8614  0.0780
   18SAPS  H11A 2272   0.947   4.536   2.376  1.3635 -0.6610  1.0419
   18SAPS  H11B 2273   0.966   4.707   2.408 -0.7134  0.3577 -0.7086
   18SAPS     P 2274   0.988   4.526   2.644  0.2118 -0.3382  0.0214
   18SAPS   O13 2275   1.021   4.603   2.768 -0.4862  0.0974  0.0487
   18SAPS   O14 2276   0.846   4.528   2.599  0.1632 -0.5756 -0.0788
   18SAPS   O12 2277   1.078   4.587   2.530 -0.0606  0.2905  0.0903
   18SAPS   O11 2278   1.038   4.376   2.652 -0.1645  0.6773 -0.9433
   18SAPS    C1 2279   1.124   4.332   2.756 -0.2801 -0.3451  0.9355
   18SAPS    HA 2280   1.178   4.246   2.710  0.3037  0.5141 -0.0327
   18SAPS    HB 2281   1.190   4.417   2.785 -2.1449  1.6689 -0.3417
   18SAPS    C2 2282   1.044   4.279   2.876  0.4645 -0.4113 -1.0865
   18SAPS    HS 2283   1.104   4.191   2.909 -0.7355 -0.2712  1.7824
   18SAPS   O21 2284   0.909   4.255   2.842  0.7624  0.4205  0.7173
   18SAPS   C21 2285   0.887   4.136   2.801 -0.0874  0.6469 -0.4877
   18SAPS   O22 2286   0.968   4.048   2.785  0.0729  0.6429  0.1307
   18SAPS   C22 2287   0.739   4.123   2.768  0.0441  0.4134 -0.3666
   18SAPS   H2R 2288   0.693   4.223   2.752  2.1722  1.4440 -0.3927
   18SAPS   H2S 2289   0.747   4.068   2.672  1.9966 -1.0891  0.5798
   18SAPS    C3 2290   1.056   4.380   2.991 -0.6363 -0.5025 -0.7587
   18SAPS    HX 2291   0.996   4.470   2.965 -0.3348  0.6640  2.2374
   18SAPS    HY 2292   1.162   4.414   2.998 -0.4944 -0.9734 -0.5610
   18SAPS   O31 2293   1.024   4.323   3.118 -0.5365  0.1251  0.1293
   18SAPS   C31 2294   1.015   4.425   3.209  0.1032 -0.3498  0.2668
   18SAPS   O32 2295   1.046   4.543   3.186 -0.1688  0.0827 -0.1013
   18SAPS   C32 2296   0.976   4.367   3.343  0.8416 -0.8139  0.0974
   18SAPS   H2X 2297   1.049   4.285   3.360  2.3574  0.4799  0.0103
   18SAPS   H2Y 2298   0.871   4.332   3.332 -0.4243  1.8307  2.5016
   18SAPS   C23 2299   0.665   4.031   2.862 -0.0358 -0.6038  0.4304
   18SAPS   H3R 2300   0.731   3.941   2.871 -1.1841 -1.5365 -0.2140
   18SAPS   H3S 2301   0.568   4.008   2.815 -0.7539  2.0359  0.5120
   18SAPS   C24 2302   0.640   4.084   3.008 -0.0150  1.0236  0.0710
   18SAPS   H4R 2303   0.738   4.121   3.046  0.5913 -1.0068  0.6217
   18SAPS   H4S 2304   0.611   4.002   3.076 -0.6668 -1.1763 -2.6745
   18SAPS   C25 2305   0.526   4.182   3.016  0.3975 -0.4937 -0.6987
   18SAPS   H5R 2306   0.431   4.139   2.982 -0.7636 -1.5317  3.2788
   18SAPS   C26 2307   0.528   4.293   3.088  0.5538  0.3056 -0.6226
   18SAPS   H6R 2308   0.445   4.365   3.086  1.1027  1.1909  2.8293
   18SAPS   C27 2309   0.653   4.338   3.159  0.2504 -0.0172  0.5396
   18SAPS   H7R 2310   0.736   4.363   3.090 -1.9974  0.3108 -2.1940
   18SAPS   H7S 2311   0.697   4.251   3.212 -1.1951 -1.6225 -0.7829
   18SAPS   C28 2312   0.624   4.455   3.257  0.1245  0.2503  1.2473
   18SAPS   H8R 2313   0.619   4.556   3.213  0.2544 -0.7345 -1.1696
   18SAPS   C29 2314   0.606   4.431   3.382 -0.0270  0.0362 -0.0471
   18SAPS   H9R 2315   0.601   4.520   3.446  3.7677 -0.9998  2.0029
   18SAPS  C210 2316   0.605   4.294   3.446  0.1981 -0.5367 -0.6653
   18SAPS  H10R 2317   0.698   4.268   3.500  0.4937 -2.1181 -1.8708
   18SAPS  H10S 2318   0.587   4.214   3.371  0.5587 -0.2141 -1.0978
   18SAPS  C211 2319   0.486   4.300   3.543 -0.0260  0.0374  0.5685
   18SAPS  H11R 2320   0.390   4.293   3.490  1.0577  0.5930 -1.5910
   18SAPS  C212 2321   0.484   4.313   3.677 -1.3904  0.6071 -0.4718
   18SAPS  H12R 2322   0.387   4.296   3.727 -1.1051 -0.3705 -0.2503
   18SAPS  C213 2323   0.608   4.325   3.758 -0.0502  0.1289 -0.0495
   18SAPS  H13R 2324   0.694   4.278   3.705 -0.4917  0.2849 -0.9049
   18SAPS  H13S 2325   0.582   4.256   3.842 -1.2825  0.0930 -0.4440
   18SAPS  C214 2326   0.657   4.466   3.800  0.0869 -0.9398  0.1769
   18SAPS  H14R 2327   0.735   4.510   3.738 -0.5974  1.1287  0.7091
   18SAPS  C215 2328   0.617   4.532   3.911  0.3315 -0.1979 -0.0578
   18SAPS  H15R 2329   0.652   4.636   3.914 -2.1356  0.7580 -1.4183
   18SAPS  C216 2330   0.539   4.490   4.029 -0.1404 -0.0271  0.0664
   18SAPS  H16R 2331   0.527   4.380   4.022  0.9860 -0.0765 -1.8373
   18SAPS  H16S 2332   0.443   4.544   4.040 -0.2893 -0.3064  0.1599
   18SAPS  C217 2333   0.617   4.517   4.155  0.1538 -0.6391 -0.0988
   18SAPS  H17R 2334   0.662   4.619   4.162 -0.6599  0.2183 -4.5604
   18SAPS  H17S 2335   0.698   4.441   4.151 -1.3240 -2.2168 -1.2264
   18SAPS  C218 2336   0.524   4.500   4.279  0.9491 -0.2545 -0.1430
   18SAPS  H18R 2337   0.513   4.391   4.296 -0.0503  0.0973  1.8971
   18SAPS  H18S 2338   0.423   4.536   4.250  0.4167 -2.1996 -0.8658
   18SAPS  C219 2339   0.557   4.583   4.404  0.1878 -0.4034  0.1212
   18SAPS  H19R 2340   0.559   4.689   4.373 -0.4628 -0.3104  0.3790
   18SAPS  H19S 2341   0.660   4.568   4.443  0.7340 -0.1039 -1.1562
   18SAPS  C220 2342   0.455   4.568   4.511 -0.0746 -0.6655 -0.5062
   18SAPS  H20R 2343   0.354   4.577   4.465 -1.7189 -0.6378  2.8077
   18SAPS  H20S 2344   0.468   4.648   4.587 -0.8933 -1.2665  0.2864
   18SAPS  H20T 2345   0.461   4.474   4.571  1.3596 -0.0898  0.3139
   18SAPS   C33 2346   0.981   4.475   3.454 -0.4444  0.0833 -0.0517
   18SAPS   H3X 2347   0.889   4.538   3.451 -1.1558 -0.9470 -1.8099
   18SAPS   H3Y 2348   1.054   4.557   3.435 -1.9981  1.2099 -1.6491
   18SAPS   C34 2349   0.993   4.408   3.595 -0.8506 -0.7372  0.3072
   18SAPS   H4X 2350   1.069   4.329   3.575 -0.6924 -0.2339 -1.2079
   18SAPS   H4Y 2351   0.899   4.360   3.632  0.8900 -1.0853  4.9169
   18SAPS   C35 2352   1.031   4.514   3.703 -0.3007 -0.9696  0.0205
   18SAPS   H5X 2353   0.947   4.586   3.694  0.9741  0.8283  1.5025
   18SAPS   H5Y 2354   1.123   4.572   3.680 -0.6042 -1.0268 -1.4453
   18SAPS   C36 2355   1.040   4.443   3.846  0.8249 -0.6974  0.5240
   18SAPS   H6X 2356   1.122   4.369   3.860  0.2488 -1.4932 -0.2235
   18SAPS   H6Y 2357   0.945   4.388   3.863 -0.1933  0.7955 -0.1631
   18SAPS   C37 2358   1.055   4.535   3.964  0.8180  0.1197  0.2741
   18SAPS   H7X 2359   0.958   4.589   3.973  1.6823  1.9470 -0.7694
   18SAPS   H7Y 2360   1.125   4.615   3.933 -0.1828  1.1290  0.5414
   18SAPS   C38 2361   1.111   4.479   4.097  0.0291 -0.2511  0.7206
   18SAPS   H8X 2362   1.213   4.522   4.111  0.5674 -1.9414  2.4216
   18SAPS   H8Y 2363   1.144   4.374   4.107  0.4756 -0.1387  0.4898
   18SAPS   C39 2364   1.014   4.512   4.211 -0.1711  0.1603 -0.0944
   18SAPS   H9X 2365   0.931   4.442   4.188  0.9887 -1.3604  0.1750
   18SAPS   H9Y 2366   0.978   4.616   4.198 -0.4867 -0.2272 -2.7350
   18SAPS  C310 2367   1.079   4.475   4.344  0.0929  0.1204 -0.2759
   18SAPS  H10X 2368   1.174   4.533   4.350  0.2444 -0.1884  0.3055
   18SAPS  H10Y 2369   1.114   4.370   4.351  1.3508  0.5110 -0.5728
   18SAPS  C311 2370   0.993   4.517   4.471  0.0984 -0.4236  0.7454
   18SAPS  H11X 2371   0.898   4.464   4.491 -0.1093 -0.7462 -0.9597
   18SAPS  H11Y 2372   0.979   4.626   4.458  0.0252 -0.5260 -0.0769
   18SAPS  C312 2373   1.078   4.499   4.593  0.2502 -0.1559  0.7536
   18SAPS  H12X 2374   1.173   4.557   4.590 -0.6349  1.3893  1.5889
   18SAPS  H12Y 2375   1.102   4.391   4.585 -4.1986 -1.1907 -2.5197
   18SAPS  C313 2376   1.002   4.533   4.727 -0.0025  0.3908  0.4633
   18SAPS  H13X 2377   0.904   4.483   4.744  1.1420 -2.2703 -0.1585
   18SAPS  H13Y 2378   0.979   4.640   4.707 -1.3966 -0.1923 -1.3222
   18SAPS  C314 2379   1.088   4.512   4.850 -0.4099  0.1492  1.2035
   18SAPS  H14X 2380   1.139   4.414   4.832 -0.5927  0.3249 -0.4158
   18SAPS  H14Y 2381   1.021   4.505   4.938  1.0779 -0.8095  2.3255
   18SAPS  C315 2382   1.197   4.616   4.860 -0.4058 -0.5436 -0.4395
   18SAPS  H15X 2383   1.154   4.718   4.857 -1.0368 -0.4203  4.4891
   18SAPS  H15Y 2384   1.265   4.612   4.773  0.6331 -0.9054  0.3673
   18SAPS  C316 2385   1.271   4.592   4.994  0.3092 -0.1003 -0.5368
   18SAPS  H16X 2386   1.367   4.647   4.990  0.1534  0.3866  1.1557
   18SAPS  H16Y 2387   1.300   4.486   5.007  1.8810  0.4509  0.7725
   18SAPS  C317 2388   1.189   4.616   5.124 -0.5280  0.1348  0.3957
   18SAPS  H17X 2389   1.114   4.535   5.135 -0.0811 -0.4154 -0.5091
   18SAPS  H17Y 2390   1.134   4.713   5.124  1.0690  1.1139  2.3937
   18SAPS  C318 2391   1.281   4.610   5.253  0.0753  0.0075  0.9984
   18SAPS  H18X 2392   1.352   4.695   5.247 -0.9619  0.8048 -0.4574
   18SAPS  H18Y 2393   1.331   4.511   5.255  0.3123 -0.0538 -2.1392
   18SAPS  H18Z 2394   1.227   4.619   5.349  1.6651 -1.8927  2.1567
   19SAPS     N 2395   1.296   6.595   2.306  0.3503  0.6257 -0.0202
   19SAPS   HN1 2396   1.226   6.629   2.374 -0.7668 -1.8006  0.1524
   19SAPS   HN2 2397   1.291   6.636   2.211 -1.1966 -2.3433 -1.3404
   19SAPS   HN3 2398   1.271   6.495   2.291 -0.1180  0.7570 -0.0988
   19SAPS   C12 2399   1.435   6.606   2.352  0.0486  0.4194  0.2067
   19SAPS  H12A 2400   1.492   6.578   2.264  0.1148  1.4859 -0.1036
   19SAPS   C13 2401   1.483   6.748   2.393  0.4799  0.1672 -0.1881
   19SAPS  O13A 2402   1.405   6.846   2.399  0.5752 -0.8575 -0.3166
   19SAPS  O13B 2403   1.604   6.755   2.428  0.0179  0.3635  0.3056
   19SAPS   C11 2404   1.467   6.504   2.464  0.2704  0.1626  0.8244
   19SAPS  H11A 2405   1.424   6.552   2.554  1.8218  1.9088  0.6815
   19SAPS  H11B 2406   1.576   6.500   2.482  0.2388  0.4061  1.0802
   19SAPS     P 2407   1.421   6.264   2.557  0.0187 -0.6255  0.0340
   19SAPS   O13 2408   1.291   6.197   2.552 -0.4786 -0.1576  0.6548
   19SAPS   O14 2409   1.545   6.185   2.525  0.0644 -0.3504 -0.8867
   19SAPS   O12 2410   1.416   6.372   2.435 -0.6165  0.1808  0.0736
   19SAPS   O11 2411   1.437   6.339   2.690  0.5061 -0.4245  0.2405
   19SAPS    C1 2412   1.335   6.347   2.790 -0.7915 -0.4033 -0.8195
   19SAPS    HA 2413   1.252   6.274   2.777 -1.8532  0.9371 -1.8264
   19SAPS    HB 2414   1.379   6.328   2.890  0.0377 -2.5099 -1.5334
   19SAPS    C2 2415   1.265   6.490   2.776  0.3730  0.1476 -0.8755
   19SAPS    HS 2416   1.239   6.491   2.668  0.2612 -2.5067 -0.9274
   19SAPS   O21 2417   1.348   6.602   2.823 -0.0169  0.1552  0.5168
   19SAPS   C21 2418   1.307   6.727   2.798  0.1176  0.3115  0.1351
   19SAPS   O22 2419   1.210   6.754   2.732 -0.5754 -0.3526 -0.2414
   19SAPS   C22 2420   1.404   6.830   2.849 -0.3580 -0.1541  0.0610
   19SAPS   H2R 2421   1.435   6.811   2.954  1.1650  1.2977 -0.0760
   19SAPS   H2S 2422   1.493   6.814   2.784  0.9089 -3.0284  2.2784
   19SAPS    C3 2423   1.133   6.485   2.870  0.5766  0.1185  0.5514
   19SAPS    HX 2424   1.062   6.409   2.831 -0.3307  0.6085  1.1917
   19SAPS    HY 2425   1.074   6.577   2.848  1.6459  0.3390 -1.5986
   19SAPS   O31 2426   1.161   6.466   3.011 -0.4167 -0.2666  0.3099
   19SAPS   C31 2427   1.153   6.347   3.057  0.3755 -0.2949  0.6196
   19SAPS   O32 2428   1.121   6.243   2.996 -0.2096  0.1613 -0.4234
   19SAPS   C32 2429   1.185   6.351   3.209 -0.3924 -0.0509  0.4455
   19SAPS   H2X 2430   1.091   6.367   3.265  0.2093  0.2959  1.3784
   19SAPS   H2Y 2431   1.248   6.442   3.221  1.3778 -0.9847 -1.1461
   19SAPS   C23 2432   1.364   6.981   2.839 -0.2044  0.0362  0.0285
   19SAPS   H3R 2433   1.258   6.991   2.872 -0.1160  1.6843 -0.1238
   19SAPS   H3S 2434   1.369   7.021   2.735 -3.1518 -2.1252 -1.0885
   19SAPS   C24 2435   1.450   7.076   2.935  0.6843 -0.1993  0.3287
   19SAPS   H4R 2436   1.427   7.036   3.036  1.6098 -3.7627 -0.7295
   19SAPS   H4S 2437   1.401   7.173   2.915 -1.8851 -1.7120 -1.3287
   19SAPS   C25 2438   1.595   7.065   2.900 -0.5650 -0.0854 -0.3300
   19SAPS   H5R 2439   1.613   7.012   2.805 -2.4760  0.4963 -1.0660
   19SAPS   C26 2440   1.704   7.090   2.977 -0.0068 -0.5769  0.5615
   19SAPS   H6R 2441   1.805   7.075   2.936  0.0756 -1.9634  1.2076
   19SAPS   C27 2442   1.689   7.133   3.126  0.6924  0.5851 -0.2081
   19SAPS   H7R 2443   1.774   7.086   3.182  0.0161  1.0047  1.2125
   19SAPS   H7S 2444   1.607   7.077   3.175  1.4724  1.1526  1.8919
   19SAPS   C28 2445   1.677   7.280   3.153 -0.2463  0.3426  0.6315
   19SAPS   H8R 2446   1.738   7.343   3.088  0.4488  1.3475  2.1921
   19SAPS   C29 2447   1.610   7.347   3.249 -0.0991  0.3448 -0.9723
   19SAPS   H9R 2448   1.618   7.457   3.258 -2.3515  0.4218  1.1696
   19SAPS  C210 2449   1.543   7.284   3.372 -0.0023 -1.0119  0.4706
   19SAPS  H10R 2450   1.620   7.280   3.452  1.2721  2.7000 -0.4048
   19SAPS  H10S 2451   1.507   7.183   3.342 -2.6736  0.0276 -0.0608
   19SAPS  C211 2452   1.426   7.366   3.417 -0.1839 -1.1422 -0.1888
   19SAPS  H11R 2453   1.345   7.361   3.342  0.6076  2.4664 -1.4850
   19SAPS  C212 2454   1.419   7.447   3.527  0.7982 -1.0526  0.0163
   19SAPS  H12R 2455   1.328   7.509   3.529  0.5299 -1.4583  0.9783
   19SAPS  C213 2456   1.521   7.474   3.633 -0.6527 -0.9997  0.1252
   19SAPS  H13R 2457   1.614   7.516   3.589 -0.5603 -0.3185  0.9421
   19SAPS  H13S 2458   1.557   7.377   3.674 -0.2101  0.0643  2.4174
   19SAPS  C214 2459   1.477   7.559   3.743 -0.3554  0.1063  0.8762
   19SAPS  H14R 2460   1.460   7.661   3.706  0.6907 -0.4629 -1.3587
   19SAPS  C215 2461   1.492   7.534   3.874  1.1952 -0.3182  0.4861
   19SAPS  H15R 2462   1.460   7.606   3.952  1.3573  1.1766 -0.7690
   19SAPS  C216 2463   1.544   7.409   3.945 -0.2670 -0.9088  1.0534
   19SAPS  H16R 2464   1.640   7.434   3.996  0.8063  1.3523 -1.8363
   19SAPS  H16S 2465   1.566   7.318   3.885  1.3345  1.0553 -1.5529
   19SAPS  C217 2466   1.428   7.369   4.033 -0.4592  0.0185  0.8345
   19SAPS  H17R 2467   1.344   7.328   3.972  0.6693  0.0174 -0.7987
   19SAPS  H17S 2468   1.384   7.451   4.094 -3.5730 -1.7144  1.1561
   19SAPS  C218 2469   1.484   7.270   4.131  0.5386  0.9961 -0.8207
   19SAPS  H18R 2470   1.573   7.311   4.185 -0.3891  1.6427  0.2732
   19SAPS  H18S 2471   1.514   7.182   4.071 -0.1407 -1.0510  1.6625
   19SAPS  C219 2472   1.373   7.229   4.229  0.7208  0.2755 -0.8864
   19SAPS  H19R 2473   1.284   7.201   4.169  1.1784 -1.5302 -0.7712
   19SAPS  H19S 2474   1.349   7.312   4.299 -1.3341  0.2767 -1.5069
   19SAPS  C220 2475   1.399   7.097   4.309 -0.1465  1.1173 -0.0212
   19SAPS  H20R 2476   1.314   7.049   4.363  0.2670 -0.2741 -0.5612
   19SAPS  H20S 2477   1.467   7.126   4.392 -1.8800  1.2823  1.3958
   19SAPS  H20T 2478   1.437   7.035   4.225 -2.6804 -1.1587  0.3781
   19SAPS   C33 2479   1.271   6.231   3.269  0.1300 -0.4151  0.1912
   19SAPS   H3X 2480   1.366   6.217   3.215 -0.8398 -3.1903 -0.9975
   19SAPS   H3Y 2481   1.208   6.140   3.258 -0.8974  0.2701  0.2343
   19SAPS   C34 2482   1.301   6.275   3.408 -0.1394 -0.5829 -0.3733
   19SAPS   H4X 2483   1.206   6.290   3.464 -0.6553 -0.3064 -1.3164
   19SAPS   H4Y 2484   1.359   6.369   3.397 -0.9388 -0.2168 -1.5918
   19SAPS   C35 2485   1.382   6.181   3.498 -0.6839 -0.5239  0.2120
   19SAPS   H5X 2486   1.486   6.166   3.462 -0.9340  1.6102 -1.5730
   19SAPS   H5Y 2487   1.332   6.082   3.503  1.1567 -1.4801  0.9451
   19SAPS   C36 2488   1.393   6.230   3.640 -0.0769  0.5762 -0.2251
   19SAPS   H6X 2489   1.289   6.238   3.680  0.3477 -0.3720  1.1432
   19SAPS   H6Y 2490   1.444   6.328   3.637  0.2198  0.3995 -1.8352
   19SAPS   C37 2491   1.479   6.138   3.722  0.1138 -0.1074 -0.2914
   19SAPS   H7X 2492   1.586   6.143   3.692 -0.2503 -2.1410 -2.1206
   19SAPS   H7Y 2493   1.454   6.034   3.692 -2.1748  0.5018 -0.6963
   19SAPS   C38 2494   1.471   6.154   3.879  0.5358  0.1789  0.6978
   19SAPS   H8X 2495   1.484   6.260   3.912  2.1469 -0.0974  0.9994
   19SAPS   H8Y 2496   1.560   6.099   3.915  0.3958 -0.1068  0.6113
   19SAPS   C39 2497   1.336   6.110   3.945 -0.3051  0.6306  1.1611
   19SAPS   H9X 2498   1.287   6.020   3.904  0.6241  0.0131  1.3768
   19SAPS   H9Y 2499   1.262   6.187   3.915 -0.1672  0.7266  1.0632
   19SAPS  C310 2500   1.338   6.119   4.093 -0.3923  0.3954 -0.7110
   19SAPS  H10X 2501   1.382   6.217   4.123 -0.6640  0.7288 -1.3637
   19SAPS  H10Y 2502   1.385   6.034   4.145 -0.1652  0.9904  0.0680
   19SAPS  C311 2503   1.196   6.135   4.145  0.3250  0.2567  0.0587
   19SAPS  H11X 2504   1.127   6.063   4.095 -0.5871  0.9004  0.3723
   19SAPS  H11Y 2505   1.153   6.237   4.140 -0.8149  0.0609  3.4291
   19SAPS  C312 2506   1.181   6.111   4.297 -0.5277  0.2235 -0.9875
   19SAPS  H12X 2507   1.245   6.179   4.357 -0.0184 -1.4212  0.4069
   19SAPS  H12Y 2508   1.221   6.010   4.321 -3.4324 -0.5870  0.8866
   19SAPS  C313 2509   1.036   6.138   4.343 -0.6025 -0.0653 -0.1811
   19SAPS  H13X 2510   0.983   6.066   4.276  1.7251 -2.4417  0.3328
   19SAPS  H13Y 2511   1.012   6.243   4.318 -0.8975  0.4721  2.1053
   19SAPS  C314 2512   1.017   6.101   4.490  0.0284  0.1952  0.1465
   19SAPS  H14X 2513   1.079   6.167   4.554 -1.2454 -0.0430  1.7194
   19SAPS  H14Y 2514   1.046   5.996   4.510  0.1087  0.3103  0.6496
   19SAPS  C315 2515   0.866   6.119   4.532 -0.2230  0.2894  0.0265
   19SAPS  H15X 2516   0.824   6.016   4.535  0.3593  0.0709  2.2061
   19SAPS  H15Y 2517   0.802   6.166   4.454  0.3664  1.9946  0.5211
   19SAPS  C316 2518   0.844   6.169   4.672  0.2042 -0.0962  0.1357
   19SAPS  H16X 2519   0.903   6.263   4.676 -0.5611  0.3725  0.4556
   19SAPS  H16Y 2520   0.867   6.093   4.751 -2.0061 -0.5972  0.3633
   19SAPS  C317 2521   0.697   6.211   4.686  0.3804 -0.5005  0.4349
   19SAPS  H17X 2522   0.628   6.124   4.680 -0.9789  0.6381 -2.5099
   19SAPS  H17Y 2523   0.665   6.277   4.603 -1.6929  2.9972  3.7165
   19SAPS  C318 2524   0.684   6.301   4.805  0.3411  0.3166  0.1916
   19SAPS  H18X 2525   0.673   6.234   4.892  0.7328  0.7852  0.6117
   19SAPS  H18Y 2526   0.598   6.371   4.801 -0.3768 -0.5862 -0.3896
   19SAPS  H18Z 2527   0.777   6.361   4.818 -1.3550  3.0881  0.4415
   20SAPS     N 2528   0.726   6.775   1.818  0.1254  0.2128 -0.0863
   20SAPS   HN1 2529   0.710   6.711   1.898  1.5639  0.4281  0.3932
   20SAPS   HN2 2530   0.726   6.724   1.728  2.4550 -0.0237 -0.0146
   20SAPS   HN3 2531   0.822   6.814   1.828  0.2413  1.3405 -3.9247
   20SAPS   C12 2532   0.618   6.871   1.832 -1.4546  0.8173 -0.1776
   20SAPS  H12A 2533   0.656   6.954   1.774  0.6295 -0.7308 -1.1841
   20SAPS   C13 2534   0.485   6.816   1.783 -0.1597  0.2857 -0.7609
   20SAPS  O13A 2535   0.464   6.691   1.813  0.4708 -0.9423 -0.6798
   20SAPS  O13B 2536   0.388   6.893   1.773  0.0793 -0.5552  0.0699
   20SAPS   C11 2537   0.603   6.905   1.983  0.4153 -0.1698 -0.2512
   20SAPS  H11A 2538   0.558   6.825   2.044  0.8283  0.9468  1.5779
   20SAPS  H11B 2539   0.526   6.985   1.992  1.7704  0.9535  2.1694
   20SAPS     P 2540   0.736   7.047   2.150  0.2818 -0.2329  0.2072
   20SAPS   O13 2541   0.839   7.019   2.245  0.1203 -0.1279 -0.3980
   20SAPS   O14 2542   0.747   7.177   2.078 -0.6860 -0.1891  0.4352
   20SAPS   O12 2543   0.721   6.938   2.045 -0.1699  0.3872  0.7559
   20SAPS   O11 2544   0.598   7.042   2.231  0.6302  0.3088  0.3136
   20SAPS    C1 2545   0.569   6.938   2.328 -0.2788 -0.5852  0.0938
   20SAPS    HA 2546   0.462   6.908   2.326 -0.4736  0.0986 -0.8723
   20SAPS    HB 2547   0.626   6.844   2.314  0.6414 -0.1164  0.6452
   20SAPS    C2 2548   0.584   6.982   2.482 -0.0560 -0.3002 -0.0003
   20SAPS    HS 2549   0.504   7.050   2.518  0.2145 -1.0465  2.1808
   20SAPS   O21 2550   0.714   7.036   2.502 -0.3879  0.2693  0.1131
   20SAPS   C21 2551   0.717   7.170   2.479  0.5629 -0.0420  0.2934
   20SAPS   O22 2552   0.618   7.240   2.460 -0.3102  0.0961  0.1363
   20SAPS   C22 2553   0.859   7.222   2.489 -0.7843  0.3355  0.7196
   20SAPS   H2R 2554   0.933   7.148   2.525 -0.8533  0.4729  1.1498
   20SAPS   H2S 2555   0.896   7.259   2.391 -0.1494 -0.6676  0.5666
   20SAPS    C3 2556   0.566   6.858   2.575  0.2209 -0.4113 -0.1349
   20SAPS    HX 2557   0.649   6.787   2.558  0.3167 -0.3785  0.1798
   20SAPS    HY 2558   0.466   6.814   2.552 -0.3534  0.7660  0.0080
   20SAPS   O31 2559   0.579   6.904   2.709  0.1216 -0.2879  0.2211
   20SAPS   C31 2560   0.475   6.934   2.782 -0.4193 -0.0477 -0.3929
   20SAPS   O32 2561   0.362   6.942   2.745 -0.0484  0.2108  0.0055
   20SAPS   C32 2562   0.525   6.962   2.926 -0.1462  0.0036 -0.0473
   20SAPS   H2X 2563   0.578   7.057   2.900 -1.9536  1.0414 -0.1213
   20SAPS   H2Y 2564   0.588   6.872   2.938  1.0260  0.8943  0.7555
   20SAPS   C23 2565   0.856   7.352   2.574 -0.8652  0.1989  0.2507
   20SAPS   H3R 2566   0.802   7.326   2.667  0.5927 -0.7897  0.8657
   20SAPS   H3S 2567   0.807   7.434   2.518  0.5261  0.5536 -0.5178
   20SAPS   C24 2568   0.999   7.393   2.608  0.0663 -0.2090  0.4649
   20SAPS   H4R 2569   1.066   7.410   2.521 -0.5295 -0.5460 -0.0733
   20SAPS   H4S 2570   1.051   7.305   2.650 -1.5117 -1.1698  0.4887
   20SAPS   C25 2571   1.006   7.514   2.689  0.8485  0.2381  0.5377
   20SAPS   H5R 2572   0.920   7.581   2.675  0.3392 -0.1459  1.7581
   20SAPS   C26 2573   1.082   7.533   2.797  0.5095 -0.0876  0.3913
   20SAPS   H6R 2574   1.067   7.631   2.846  0.1865 -0.4308  0.9906
   20SAPS   C27 2575   1.195   7.446   2.849  0.2634 -0.5130 -0.0416
   20SAPS   H7R 2576   1.291   7.501   2.835  0.2824  0.6129  3.4503
   20SAPS   H7S 2577   1.207   7.347   2.800  0.8477 -0.9272  0.9131
   20SAPS   C28 2578   1.193   7.434   2.998 -0.6765  0.2271  0.1351
   20SAPS   H8R 2579   1.276   7.475   3.056  0.5979 -1.7929 -0.1670
   20SAPS   C29 2580   1.113   7.353   3.062 -0.0759  0.3923  0.5420
   20SAPS   H9R 2581   1.119   7.352   3.172  0.2559  1.6506  0.5394
   20SAPS  C210 2582   1.007   7.254   3.003  0.5706  0.6980  0.1251
   20SAPS  H10R 2583   1.041   7.197   2.914  0.6163 -0.9846  1.1784
   20SAPS  H10S 2584   0.932   7.319   2.953  1.2901  1.3508 -0.1237
   20SAPS  C211 2585   0.940   7.152   3.093  0.0140 -0.1586 -0.2056
   20SAPS  H11R 2586   0.833   7.176   3.102  0.2868  1.1504 -0.2513
   20SAPS  C212 2587   0.992   7.048   3.163 -0.0842  0.1112  1.7579
   20SAPS  H12R 2588   0.934   6.985   3.232 -0.2232 -0.3035  1.2601
   20SAPS  C213 2589   1.141   7.011   3.159  0.1218  0.1182 -0.3739
   20SAPS  H13R 2590   1.192   7.045   3.252 -1.1471 -0.6021  0.6210
   20SAPS  H13S 2591   1.201   7.068   3.085 -1.3291  0.5297 -1.2775
   20SAPS  C214 2592   1.153   6.860   3.137  0.5522 -0.6169  0.9554
   20SAPS  H14R 2593   1.114   6.821   3.041  2.3816 -3.9424  1.4033
   20SAPS  C215 2594   1.187   6.771   3.231 -0.0786  1.0129  0.5857
   20SAPS  H15R 2595   1.178   6.665   3.205 -1.4649  1.0837  0.6521
   20SAPS  C216 2596   1.248   6.797   3.364 -0.7975  0.4443  0.1019
   20SAPS  H16R 2597   1.272   6.905   3.377 -2.1259  0.6014  1.6092
   20SAPS  H16S 2598   1.345   6.747   3.382 -0.2634  1.7717  1.1578
   20SAPS  C217 2599   1.146   6.768   3.475 -0.7155  0.6227 -0.1034
   20SAPS  H17R 2600   1.049   6.817   3.452  0.6878  2.0520 -3.7936
   20SAPS  H17S 2601   1.184   6.816   3.567 -0.6580  1.4188 -0.5369
   20SAPS  C218 2602   1.136   6.624   3.509 -0.6957  0.1088  0.0398
   20SAPS  H18R 2603   1.234   6.579   3.533 -0.4739 -0.1747 -1.3118
   20SAPS  H18S 2604   1.086   6.573   3.423 -1.7136  0.4982  0.3792
   20SAPS  C219 2605   1.042   6.601   3.628  0.3479  0.3247 -0.5243
   20SAPS  H19R 2606   0.940   6.627   3.595 -0.2269 -0.3590  0.6608
   20SAPS  H19S 2607   1.055   6.667   3.717 -0.9483 -0.7947  0.5387
   20SAPS  C220 2608   1.034   6.456   3.671  0.3022 -0.3320 -0.1224
   20SAPS  H20R 2609   1.135   6.410   3.676  1.1492  1.4918  0.7144
   20SAPS  H20S 2610   0.979   6.394   3.597 -2.0223 -0.9150  1.9618
   20SAPS  H20T 2611   0.985   6.445   3.770  0.0846 -1.1933 -0.3148
   20SAPS   C33 2612   0.417   6.963   3.036  0.4280  0.0543 -0.6269
   20SAPS   H3X 2613   0.348   7.048   3.017 -1.3892 -0.4704  2.7902
   20SAPS   H3Y 2614   0.461   6.983   3.135  2.3163  1.1090 -1.6196
   20SAPS   C34 2615   0.341   6.830   3.046 -0.2761 -0.0955  0.2011
   20SAPS   H4X 2616   0.409   6.750   3.083 -1.1911 -1.1988 -0.4630
   20SAPS   H4Y 2617   0.290   6.788   2.957 -2.0855 -2.7759  2.3287
   20SAPS   C35 2618   0.234   6.841   3.156  0.1885  0.0583 -0.2010
   20SAPS   H5X 2619   0.186   6.741   3.162  0.4249 -0.2271 -2.4042
   20SAPS   H5Y 2620   0.157   6.907   3.112 -0.9071 -1.4971 -0.7143
   20SAPS   C36 2621   0.278   6.880   3.295 -0.2155 -1.3939  0.3130
   20SAPS   H6X 2622   0.309   6.985   3.309  0.7454 -1.7336  0.8269
   20SAPS   H6Y 2623   0.357   6.807   3.324  1.3831  0.9832  2.2656
   20SAPS   C37 2624   0.174   6.849   3.408  0.0746 -0.0868  0.2413
   20SAPS   H7X 2625   0.156   6.741   3.385  1.9297 -0.8346  2.0550
   20SAPS   H7Y 2626   0.082   6.910   3.390 -1.2342 -1.0119  3.1204
   20SAPS   C38 2627   0.216   6.863   3.554 -0.7555 -0.2738  0.6390
   20SAPS   H8X 2628   0.301   6.793   3.573  1.1336  1.6995 -0.1798
   20SAPS   H8Y 2629   0.133   6.824   3.617 -0.1011 -0.4495  1.4072
   20SAPS   C39 2630   0.265   7.001   3.597 -0.0278  0.5414 -0.2448
   20SAPS   H9X 2631   0.189   7.082   3.592  0.0424  0.5328 -3.1619
   20SAPS   H9Y 2632   0.348   7.031   3.529  0.6540  0.8344  0.6817
   20SAPS  C310 2633   0.329   7.003   3.735 -0.6202  0.1581 -0.4233
   20SAPS  H10X 2634   0.387   6.911   3.756 -0.5804  0.6224  1.7661
   20SAPS  H10Y 2635   0.247   7.015   3.809 -0.9742  1.7917 -1.0446
   20SAPS  C311 2636   0.401   7.125   3.769  0.3800 -0.1305 -0.2734
   20SAPS  H11X 2637   0.334   7.212   3.751  2.1985  2.0784  2.6087
   20SAPS  H11Y 2638   0.481   7.136   3.693  0.7274  0.9702  0.2220
   20SAPS  C312 2639   0.451   7.124   3.920  0.2627 -0.9184  0.2566
   20SAPS  H12X 2640   0.359   7.139   3.980 -0.9577 -0.9464 -1.5167
   20SAPS  H12Y 2641   0.516   7.212   3.943  0.9155 -0.8013 -1.7932
   20SAPS  C313 2642   0.531   7.002   3.965  0.7793 -0.0505 -0.4927
   20SAPS  H13X 2643   0.599   6.974   3.882  2.1394 -0.2767  0.6624
   20SAPS  H13Y 2644   0.456   6.922   3.988  1.4944 -0.3078  1.1396
   20SAPS  C314 2645   0.613   7.030   4.102 -0.4357 -0.5232  0.1608
   20SAPS  H14X 2646   0.693   7.102   4.073  0.6993 -1.8346 -0.0803
   20SAPS  H14Y 2647   0.657   6.931   4.129  1.1294 -0.5032 -2.0764
   20SAPS  C315 2648   0.538   7.088   4.218  0.3057  0.6532 -0.5422
   20SAPS  H15X 2649   0.448   7.025   4.239  1.0562  0.7468  3.9892
   20SAPS  H15Y 2650   0.502   7.189   4.189  0.0345  0.4971 -0.7564
   20SAPS  C316 2651   0.631   7.084   4.338 -0.4725  0.3746 -0.7016
   20SAPS  H16X 2652   0.729   7.121   4.303  0.6027 -1.6107  0.0300
   20SAPS  H16Y 2653   0.658   6.982   4.374  3.3511  0.8793 -1.7283
   20SAPS  C317 2654   0.573   7.160   4.458  0.0186  0.0418  0.4080
   20SAPS  H17X 2655   0.475   7.109   4.467  0.5837 -2.2118 -3.6574
   20SAPS  H17Y 2656   0.565   7.266   4.423  1.0376 -0.3315 -1.0573
   20SAPS  C318 2657   0.656   7.140   4.585 -0.2729  0.7346 -0.3610
   20SAPS  H18X 2658   0.618   7.204   4.667 -0.3668  0.9671 -0.5866
   20SAPS  H18Y 2659   0.759   7.174   4.560  0.8261 -1.1338  1.3255
   20SAPS  H18Z 2660   0.664   7.034   4.617 -0.5428  0.9172  0.3223
   21CHL1    C3 2661   0.444   4.234   6.362 -0.4341  0.0215 -0.4176
   21CHL1    H3 2662   0.522   4.170   6.315  0.2522  1.4944 -1.3587
   21CHL1    O3 2663   0.418   4.184   6.492  0.5485 -0.3801  0.1889
   21CHL1   H3' 2664   0.480   4.111   6.491  1.4550  0.3830 -0.2657
   21CHL1    C4 2665   0.469   4.383   6.368 -0.1097 -0.3922  0.3289
   21CHL1   H4A 2666   0.374   4.430   6.403 -1.1305 -1.0744 -1.4304
   21CHL1   H4B 2667   0.559   4.398   6.432 -0.0860 -1.6252  0.6103
   21CHL1    C5 2668   0.496   4.434   6.225  0.5232  0.0404  0.8974
   21CHL1    C6 2669   0.605   4.501   6.198 -0.2640 -0.7883  0.3522
   21CHL1    H6 2670   0.671   4.516   6.285 -0.5501 -0.6398  0.5453
   21CHL1    C7 2671   0.644   4.559   6.068  0.5938  0.2280 -0.3679
   21CHL1   H7A 2672   0.661   4.669   6.076  1.3021  0.1225 -0.3131
   21CHL1   H7B 2673   0.737   4.513   6.028  1.1352  1.7516 -0.9354
   21CHL1    C8 2674   0.527   4.546   5.961 -0.0070  1.0838 -0.4787
   21CHL1    H8 2675   0.462   4.629   5.998  0.2839 -0.0576  2.9690
   21CHL1   C14 2676   0.574   4.576   5.818 -0.0790  0.5213 -0.1000
   21CHL1   H14 2677   0.644   4.491   5.802  0.4658  0.9724 -0.1519
   21CHL1   C15 2678   0.667   4.701   5.789 -0.2404 -0.6707 -0.0198
   21CHL1  H15A 2679   0.631   4.786   5.850 -0.8331  0.0950 -1.3919
   21CHL1  H15B 2680   0.773   4.684   5.819  0.0125  0.2286 -0.4074
   21CHL1   C16 2681   0.645   4.725   5.641 -0.3869  0.4024 -0.2226
   21CHL1  H16A 2682   0.604   4.827   5.631  0.7482  0.9116  0.1275
   21CHL1  H16B 2683   0.738   4.720   5.582 -1.5545  1.1503 -2.1995
   21CHL1   C17 2684   0.545   4.616   5.592 -0.1536 -0.3626  0.3728
   21CHL1   H17 2685   0.603   4.523   5.573  0.1657  0.0687 -0.8570
   21CHL1   C13 2686   0.460   4.582   5.714  0.3968  0.3205  0.9641
   21CHL1   C18 2687   0.364   4.702   5.743 -0.3104 -0.0441 -0.1095
   21CHL1  H18A 2688   0.308   4.673   5.835  0.2342  0.9460  0.5467
   21CHL1  H18B 2689   0.414   4.791   5.787 -0.4388  0.5992 -1.2307
   21CHL1  H18C 2690   0.299   4.739   5.661  1.9538  1.2283 -1.4304
   21CHL1   C12 2691   0.395   4.439   5.712 -0.4622 -0.5124  0.9967
   21CHL1  H12A 2692   0.310   4.430   5.641  0.1799 -1.4369  0.3148
   21CHL1  H12B 2693   0.472   4.369   5.671  1.0685  0.6478  1.7729
   21CHL1   C11 2694   0.354   4.399   5.853  0.0921  0.2664  0.3162
   21CHL1  H11A 2695   0.267   4.467   5.863  0.3956  0.9977 -1.5441
   21CHL1  H11B 2696   0.315   4.295   5.844 -0.8357  0.3549  2.7289
   21CHL1    C9 2697   0.450   4.419   5.970 -0.5483  0.0361  0.1082
   21CHL1    H9 2698   0.536   4.350   5.954  0.9801  1.7553  0.5475
   21CHL1   C10 2699   0.395   4.389   6.113 -0.1307  0.3132 -0.0773
   21CHL1   C19 2700   0.286   4.496   6.151 -0.0019 -0.0220  0.4498
   21CHL1  H19A 2701   0.323   4.601   6.157 -0.6815  0.3778 -1.5742
   21CHL1  H19B 2702   0.208   4.501   6.072  0.1682  0.1213  0.2900
   21CHL1  H19C 2703   0.228   4.466   6.241  2.2921 -0.4120  1.8703
   21CHL1    C1 2704   0.344   4.247   6.126  0.5160 -0.1877  0.3699
   21CHL1   H1A 2705   0.265   4.232   6.050  2.8621 -0.1940 -2.2308
   21CHL1   H1B 2706   0.423   4.176   6.091 -0.8082 -1.2132 -0.6303
   21CHL1    C2 2707   0.319   4.210   6.276  0.7127  0.1507 -0.1031
   21CHL1   H2A 2708   0.304   4.100   6.274  1.1100  0.1005 -0.8293
   21CHL1   H2B 2709   0.235   4.266   6.322  0.5835  1.2786 -1.6190
   21CHL1   C20 2710   0.482   4.656   5.454  0.8214  0.4123 -0.3979
   21CHL1   H20 2711   0.414   4.739   5.484  1.7465  2.2297 -2.9738
   21CHL1   C21 2712   0.389   4.540   5.407 -0.5901 -0.5290  0.4548
   21CHL1  H21A 2713   0.295   4.551   5.465  0.6966 -0.0281  2.5517
   21CHL1  H21B 2714   0.426   4.440   5.437 -0.8034 -0.5088  0.7924
   21CHL1  H21C 2715   0.363   4.560   5.301  3.8797 -0.5248 -0.8641
   21CHL1   C22 2716   0.571   4.696   5.337 -0.1384 -0.0342  0.1112
   21CHL1  H22A 2717   0.502   4.731   5.257 -0.4117 -0.4996  0.1411
   21CHL1  H22B 2718   0.630   4.783   5.372 -0.0219 -0.2897  0.5557
   21CHL1   C23 2719   0.681   4.593   5.286 -0.1499 -0.4576  0.5276
   21CHL1  H23A 2720   0.754   4.615   5.366 -2.4007  0.1752  2.5065
   21CHL1  H23B 2721   0.644   4.488   5.293  2.9359 -1.7164 -0.0195
   21CHL1   C24 2722   0.740   4.621   5.144 -0.7089 -0.0845 -0.2323
   21CHL1  H24A 2723   0.780   4.724   5.151  1.0328 -0.7221 -0.4944
   21CHL1  H24B 2724   0.819   4.550   5.112 -2.3833 -0.9265 -2.7857
   21CHL1   C25 2725   0.639   4.620   5.026 -0.3484 -0.2604 -0.2127
   21CHL1   H25 2726   0.560   4.693   5.052  0.5907  0.8463 -0.3559
   21CHL1   C26 2727   0.711   4.680   4.905  0.3425 -0.1102  0.5160
   21CHL1  H26A 2728   0.700   4.790   4.898 -1.6549 -0.3315 -0.3205
   21CHL1  H26B 2729   0.818   4.650   4.899 -0.2614 -2.4067  0.2867
   21CHL1  H26C 2730   0.669   4.641   4.810 -0.6942  0.8777  0.5512
   21CHL1   C27 2731   0.574   4.485   5.001  1.2577  0.6926  0.6048
   21CHL1  H27A 2732   0.647   4.428   4.941  1.6800  0.3159  1.4562
   21CHL1  H27B 2733   0.542   4.435   5.095 -0.6528 -1.5476 -1.0980
   21CHL1  H27C 2734   0.482   4.518   4.947  0.9767 -1.1401 -0.0966
   22CHL1    C3 2735   3.202   3.399   6.648  0.5236 -0.4420 -0.1426
   22CHL1    H3 2736   3.217   3.290   6.665 -1.8609 -0.7015  0.6247
   22CHL1    O3 2737   3.181   3.450   6.780  0.2528  0.4326  0.4434
   22CHL1   H3' 2738   3.154   3.542   6.779 -0.5807  0.2029  1.1409
   22CHL1    C4 2739   3.324   3.459   6.582 -0.0010  0.5483 -0.1056
   22CHL1   H4A 2740   3.303   3.567   6.564 -1.3725  0.6252  1.7576
   22CHL1   H4B 2741   3.409   3.440   6.651 -0.3209  0.5902  0.3023
   22CHL1    C5 2742   3.351   3.398   6.451 -0.7234 -0.2949 -0.0754
   22CHL1    C6 2743   3.463   3.331   6.424 -0.0986 -0.3596  0.5933
   22CHL1    H6 2744   3.542   3.337   6.500 -0.4821 -0.1359  0.9715
   22CHL1    C7 2745   3.495   3.271   6.287  0.7728  0.0546  0.1849
   22CHL1   H7A 2746   3.600   3.293   6.257  1.5274 -1.0330  1.9070
   22CHL1   H7B 2747   3.492   3.160   6.276  0.2073 -0.0797  1.5556
   22CHL1    C8 2748   3.402   3.325   6.171 -0.2589 -0.4914 -0.3343
   22CHL1    H8 2749   3.429   3.430   6.146  0.5483 -0.6940 -0.3602
   22CHL1   C14 2750   3.427   3.261   6.042  1.0514  0.1336  0.4021
   22CHL1   H14 2751   3.402   3.159   6.077 -1.9467  0.5132 -0.4107
   22CHL1   C15 2752   3.566   3.243   5.982  0.1799 -0.4069 -0.4336
   22CHL1  H15A 2753   3.628   3.334   6.001  0.5645 -0.7078 -0.2451
   22CHL1  H15B 2754   3.627   3.162   6.027 -0.3759 -1.0053 -0.7365
   22CHL1   C16 2755   3.537   3.198   5.842  0.1385 -0.0557  0.3282
   22CHL1  H16A 2756   3.580   3.267   5.767 -1.0574  1.0142  0.5932
   22CHL1  H16B 2757   3.567   3.094   5.817 -1.9947 -1.3685  2.7246
   22CHL1   C17 2758   3.383   3.200   5.818  0.3866 -1.0096  0.3611
   22CHL1   H17 2759   3.331   3.101   5.820 -2.5483  0.3865 -0.8097
   22CHL1   C13 2760   3.327   3.290   5.929 -0.2537 -0.3761 -0.2036
   22CHL1   C18 2761   3.346   3.439   5.896 -0.4869  0.1558 -0.3498
   22CHL1  H18A 2762   3.332   3.515   5.976 -2.1491 -1.9190  1.4321
   22CHL1  H18B 2763   3.446   3.452   5.849 -0.3956 -0.2351 -0.2665
   22CHL1  H18C 2764   3.271   3.466   5.818 -0.6821 -1.9288 -0.9252
   22CHL1   C12 2765   3.186   3.250   5.971 -0.5951 -1.2054  0.2173
   22CHL1  H12A 2766   3.110   3.284   5.897  0.2340  2.6751  0.9535
   22CHL1  H12B 2767   3.174   3.140   5.977  1.6075 -1.5372 -0.4865
   22CHL1   C11 2768   3.139   3.322   6.104  0.5312  0.1406 -0.1622
   22CHL1  H11A 2769   3.115   3.424   6.068  0.0512 -0.0100 -0.2794
   22CHL1  H11B 2770   3.043   3.275   6.137  0.9176  0.1582  1.0531
   22CHL1    C9 2771   3.249   3.320   6.214 -0.0857  0.0278  0.1655
   22CHL1    H9 2772   3.239   3.212   6.237  3.2861 -0.3430  0.4450
   22CHL1   C10 2773   3.236   3.401   6.345  0.6941  0.0405 -0.1088
   22CHL1   C19 2774   3.209   3.548   6.303  0.7009 -0.1081  0.5450
   22CHL1  H19A 2775   3.292   3.600   6.251 -0.1246 -1.2820 -2.1064
   22CHL1  H19B 2776   3.114   3.566   6.249 -0.8760 -0.9576  2.8554
   22CHL1  H19C 2777   3.188   3.612   6.392  3.2159  1.4195  0.1264
   22CHL1    C1 2778   3.102   3.353   6.419  0.5724  0.7276  0.4177
   22CHL1   H1A 2779   3.013   3.361   6.352  2.2575 -0.8176 -2.1683
   22CHL1   H1B 2780   3.121   3.244   6.430  1.5353  0.6292 -1.6618
   22CHL1    C2 2781   3.074   3.407   6.559 -0.1048 -0.2110 -0.2782
   22CHL1   H2A 2782   2.991   3.351   6.606 -1.5038  1.2941 -0.8900
   22CHL1   H2B 2783   3.043   3.513   6.555  1.3633  0.2398 -0.3331
   22CHL1   C20 2784   3.347   3.247   5.676  0.4654  0.3463 -0.0978
   22CHL1   H20 2785   3.378   3.353   5.663 -0.7628  0.8822  1.1838
   22CHL1   C21 2786   3.200   3.246   5.646 -0.6913 -0.2459  0.1299
   22CHL1  H21A 2787   3.151   3.156   5.690 -0.7799  0.0559  0.6534
   22CHL1  H21B 2788   3.179   3.234   5.538  0.8153 -0.1854 -0.1952
   22CHL1  H21C 2789   3.149   3.341   5.672  1.1948  1.3034 -1.4915
   22CHL1   C22 2790   3.430   3.153   5.584  0.3604 -0.0131 -0.0466
   22CHL1  H22A 2791   3.538   3.181   5.579  0.3893 -0.2470 -4.2771
   22CHL1  H22B 2792   3.440   3.055   5.635  1.4737  0.3570  0.4966
   22CHL1   C23 2793   3.397   3.138   5.435 -0.0994 -0.5658 -0.0551
   22CHL1  H23A 2794   3.289   3.126   5.412 -0.1155  1.9319 -1.5946
   22CHL1  H23B 2795   3.419   3.227   5.373 -1.9342  1.2112  1.6922
   22CHL1   C24 2796   3.468   3.013   5.365 -0.1569 -0.7615 -0.6883
   22CHL1  H24A 2797   3.433   2.927   5.426 -2.0110  0.6459  0.3405
   22CHL1  H24B 2798   3.411   2.999   5.271  0.2232 -1.4282 -0.8253
   22CHL1   C25 2799   3.619   3.015   5.348 -0.7526 -0.4260 -0.0568
   22CHL1   H25 2800   3.664   3.018   5.449  2.1757 -0.6213 -1.2665
   22CHL1   C26 2801   3.664   2.878   5.280  0.1737  0.1506  0.4629
   22CHL1  H26A 2802   3.771   2.861   5.257 -0.2462 -0.3090 -1.3452
   22CHL1  H26B 2803   3.628   2.792   5.342  0.9741 -0.4303  0.1465
   22CHL1  H26C 2804   3.616   2.865   5.181  1.9488 -2.3827 -0.1918
   22CHL1   C27 2805   3.673   3.138   5.278  0.2466 -0.1254 -0.8031
   22CHL1  H27A 2806   3.634   3.147   5.174  0.0107  0.0601 -0.6980
   22CHL1  H27B 2807   3.644   3.226   5.340  1.2719 -0.4070  0.0953
   22CHL1  H27C 2808   3.784   3.141   5.277  0.2365  1.0653 -0.8260
   23CHL1    C3 2809   1.549   3.908   6.173  0.2733 -1.1859 -0.3427
   23CHL1    H3 2810   1.442   3.881   6.179 -1.4641  4.4120 -0.4976
   23CHL1    O3 2811   1.606   3.898   6.300 -0.5140 -0.3427  0.2477
   23CHL1   H3' 2812   1.599   3.804   6.316  1.0892 -0.4379  0.5548
   23CHL1    C4 2813   1.612   3.817   6.071 -0.2205  0.4128  0.1202
   23CHL1   H4A 2814   1.722   3.833   6.085 -0.4121  2.1389 -0.0851
   23CHL1   H4B 2815   1.605   3.709   6.096 -1.1481  1.4053  5.2130
   23CHL1    C5 2816   1.579   3.836   5.923  0.2335  0.4821 -0.2619
   23CHL1    C6 2817   1.546   3.727   5.846 -0.1598  0.0864 -0.3823
   23CHL1    H6 2818   1.535   3.628   5.894  1.0615  0.3342  0.4395
   23CHL1    C7 2819   1.497   3.739   5.704 -0.3067 -0.3680  0.6976
   23CHL1   H7A 2820   1.549   3.667   5.637 -0.4097  0.5939 -0.4523
   23CHL1   H7B 2821   1.390   3.714   5.688  0.2119 -1.5728 -1.2847
   23CHL1    C8 2822   1.539   3.882   5.646  0.0372  0.1371 -0.2303
   23CHL1    H8 2823   1.648   3.898   5.626  0.4294 -0.7649  1.0212
   23CHL1   C14 2824   1.476   3.893   5.499  0.5763  0.3303 -0.4620
   23CHL1   H14 2825   1.367   3.876   5.513  0.8749 -0.6296  0.8963
   23CHL1   C15 2826   1.525   3.795   5.393  0.1853  0.3145 -0.0589
   23CHL1  H15A 2827   1.636   3.791   5.381  0.0201  0.4223 -1.9899
   23CHL1  H15B 2828   1.481   3.695   5.414  1.3218  0.1313  1.5737
   23CHL1   C16 2829   1.468   3.868   5.268  0.6418  0.0613  0.2105
   23CHL1  H16A 2830   1.546   3.871   5.190  0.5160  1.0326  0.1091
   23CHL1  H16B 2831   1.376   3.813   5.239  0.0925  0.7096  0.6615
   23CHL1   C17 2832   1.414   4.012   5.306  0.2410 -0.1919 -0.1523
   23CHL1   H17 2833   1.305   3.993   5.321  0.5679 -2.6618 -0.5326
   23CHL1   C13 2834   1.486   4.035   5.441  0.5806  0.3041  0.1344
   23CHL1   C18 2835   1.633   4.074   5.401  0.4066  0.2942 -0.4268
   23CHL1  H18A 2836   1.672   4.015   5.315  1.3703  0.2171  0.0421
   23CHL1  H18B 2837   1.628   4.181   5.370 -2.9470  0.0142 -1.1720
   23CHL1  H18C 2838   1.709   4.069   5.482 -0.3230 -1.5575  0.1709
   23CHL1   C12 2839   1.422   4.134   5.541 -0.4856  0.1853  0.1876
   23CHL1  H12A 2840   1.436   4.240   5.511  1.9014  0.4615  1.9235
   23CHL1  H12B 2841   1.314   4.109   5.542 -0.4667 -0.0237 -1.3275
   23CHL1   C11 2842   1.490   4.130   5.677  0.6354 -0.3613 -0.7857
   23CHL1  H11A 2843   1.594   4.170   5.671 -0.1013  2.4540  2.2941
   23CHL1  H11B 2844   1.435   4.190   5.753 -0.0140 -1.8953  0.0080
   23CHL1    C9 2845   1.495   3.985   5.741 -0.5342 -0.4622  0.5825
   23CHL1    H9 2846   1.388   3.964   5.763 -0.0268 -0.6741  3.1160
   23CHL1   C10 2847   1.575   3.978   5.874 -0.6578  0.6591 -0.2620
   23CHL1   C19 2848   1.725   4.017   5.849  0.1078 -0.7283  0.0281
   23CHL1  H19A 2849   1.723   4.128   5.845 -0.5136 -0.6188  2.1280
   23CHL1  H19B 2850   1.784   3.997   5.942  0.4963  2.0405  0.4729
   23CHL1  H19C 2851   1.768   3.975   5.756  1.6482  1.6844 -0.4556
   23CHL1    C1 2852   1.502   4.055   5.988 -0.0835  0.1207 -1.4166
   23CHL1   H1A 2853   1.515   4.163   5.965  0.0523  0.1391 -1.2522
   23CHL1   H1B 2854   1.394   4.030   5.995 -0.3610  1.5034 -0.4091
   23CHL1    C2 2855   1.563   4.053   6.127  0.2901  0.1101 -0.0112
   23CHL1   H2A 2856   1.510   4.123   6.195  0.5922  1.6727 -1.3033
   23CHL1   H2B 2857   1.670   4.081   6.115  0.2487 -0.4363 -2.0870
   23CHL1   C20 2858   1.432   4.115   5.196  0.5537  0.4794  0.7808
   23CHL1   H20 2859   1.539   4.144   5.189  1.1751 -1.0829  2.9174
   23CHL1   C21 2860   1.354   4.240   5.233 -0.0622  0.3395  1.3877
   23CHL1  H21A 2861   1.382   4.294   5.326  0.0202  0.6619  1.1761
   23CHL1  H21B 2862   1.247   4.213   5.244 -0.1688  0.2326  0.1479
   23CHL1  H21C 2863   1.364   4.311   5.149  1.2161  0.7439  1.8547
   23CHL1   C22 2864   1.388   4.050   5.057  0.1701 -0.4228 -0.2094
   23CHL1  H22A 2865   1.459   3.973   5.022 -1.6105 -2.5550  0.6790
   23CHL1  H22B 2866   1.292   3.996   5.066 -0.7036  0.7440 -1.8699
   23CHL1   C23 2867   1.373   4.146   4.934  0.0555 -0.2172 -0.4849
   23CHL1  H23A 2868   1.277   4.200   4.947  0.1338  0.2269 -1.6794
   23CHL1  H23B 2869   1.454   4.220   4.917 -0.9723  0.6685 -1.7597
   23CHL1   C24 2870   1.340   4.059   4.812 -1.0199 -0.9190 -0.1025
   23CHL1  H24A 2871   1.433   4.011   4.777  1.0861  2.7717 -0.0839
   23CHL1  H24B 2872   1.283   3.976   4.859  0.0351 -1.0801  0.9221
   23CHL1   C25 2873   1.259   4.124   4.699 -0.9648  0.3241 -0.1205
   23CHL1   H25 2874   1.175   4.187   4.737 -0.2352  1.7781 -0.8055
   23CHL1   C26 2875   1.347   4.207   4.617 -0.0014  0.3692 -0.5057
   23CHL1  H26A 2876   1.391   4.288   4.680  1.2146 -0.0647 -0.7757
   23CHL1  H26B 2877   1.429   4.143   4.579 -1.5465 -1.5497 -0.7937
   23CHL1  H26C 2878   1.294   4.255   4.532 -0.1376 -0.3729 -0.8484
   23CHL1   C27 2879   1.188   4.025   4.603  0.1848 -0.1942  1.4528
   23CHL1  H27A 2880   1.118   4.084   4.539  2.5847 -0.1797 -1.3680
   23CHL1  H27B 2881   1.252   3.967   4.534 -0.6775  0.1970  0.2913
   23CHL1  H27C 2882   1.127   3.959   4.668 -0.7442  0.9321  1.7620
   24CHL1    C3 2883   1.617   4.496   6.414  0.1657  0.4636  0.2808
   24CHL1    H3 2884   1.578   4.597   6.393  0.2839  0.4652  0.0672
   24CHL1    O3 2885   1.584   4.456   6.544  0.0227  0.5656  0.1396
   24CHL1   H3' 2886   1.633   4.375   6.559 -0.9226  0.1801  1.2052
   24CHL1    C4 2887   1.554   4.385   6.326  0.1536  0.1269  0.2626
   24CHL1   H4A 2888   1.619   4.296   6.338  0.3250  0.1839 -0.2173
   24CHL1   H4B 2889   1.454   4.357   6.365 -1.1647  0.1126 -2.8620
   24CHL1    C5 2890   1.570   4.439   6.183  0.2403 -0.0565 -0.6164
   24CHL1    C6 2891   1.463   4.463   6.107  0.1905  0.3015 -0.5008
   24CHL1    H6 2892   1.365   4.432   6.147 -0.3557  0.7406 -1.4487
   24CHL1    C7 2893   1.474   4.515   5.968 -0.3758 -0.6793  0.1004
   24CHL1   H7A 2894   1.399   4.467   5.902 -1.8907  2.7122 -0.8808
   24CHL1   H7B 2895   1.476   4.626   5.967  2.5034 -0.6619 -1.3205
   24CHL1    C8 2896   1.612   4.491   5.897  0.1139  0.1726 -0.2391
   24CHL1    H8 2897   1.626   4.382   5.885  1.3890  0.3413 -0.3864
   24CHL1   C14 2898   1.628   4.569   5.769  0.1600 -0.3708 -0.4326
   24CHL1   H14 2899   1.616   4.672   5.809 -1.6833 -1.4052  1.9428
   24CHL1   C15 2900   1.514   4.550   5.667 -0.1273  0.0237  0.1530
   24CHL1  H15A 2901   1.484   4.444   5.656 -0.4523  0.3393 -3.1968
   24CHL1  H15B 2902   1.430   4.617   5.698 -0.7837 -0.4125 -0.6440
   24CHL1   C16 2903   1.573   4.590   5.528  0.6984 -0.3619 -0.4115
   24CHL1  H16A 2904   1.560   4.492   5.479  1.2486 -0.9528  0.5796
   24CHL1  H16B 2905   1.521   4.670   5.472 -0.1714 -0.2890  0.4629
   24CHL1   C17 2906   1.725   4.625   5.559  0.4177  1.1097 -0.5426
   24CHL1   H17 2907   1.726   4.735   5.572  0.1693  1.0147  0.3765
   24CHL1   C13 2908   1.760   4.555   5.694 -0.2733 -0.5487  0.3872
   24CHL1   C18 2909   1.789   4.411   5.660  0.2567 -0.0273 -1.1238
   24CHL1  H18A 2910   1.881   4.397   5.599  1.6180 -0.7477  0.9865
   24CHL1  H18B 2911   1.806   4.354   5.754 -0.5875 -0.3527 -1.1633
   24CHL1  H18C 2912   1.706   4.369   5.599 -1.2028 -0.1505  0.8698
   24CHL1   C12 2913   1.869   4.615   5.784 -0.6450  0.2390 -0.5047
   24CHL1  H12A 2914   1.974   4.613   5.747 -1.4292  1.5896 -3.0065
   24CHL1  H12B 2915   1.842   4.723   5.783  2.9067  1.2796  0.1443
   24CHL1   C11 2916   1.863   4.556   5.927  0.6568 -0.1958  0.6209
   24CHL1  H11A 2917   1.913   4.457   5.925 -0.4792 -0.8477 -2.6288
   24CHL1  H11B 2918   1.918   4.616   6.003 -0.0416  0.5536  0.5510
   24CHL1    C9 2919   1.720   4.544   5.995 -0.0058  0.2494 -0.0891
   24CHL1    H9 2920   1.684   4.644   6.027  1.2818 -0.3462  3.7355
   24CHL1   C10 2921   1.713   4.467   6.133 -0.6348 -0.0159 -0.3066
   24CHL1   C19 2922   1.809   4.332   6.127  0.4556 -0.0479 -0.3002
   24CHL1  H19A 2923   1.797   4.278   6.223 -0.1010  2.8515  1.3892
   24CHL1  H19B 2924   1.768   4.261   6.052  0.5448 -0.6369  0.2085
   24CHL1  H19C 2925   1.916   4.353   6.106  0.4061  1.3401  0.7169
   24CHL1    C1 2926   1.783   4.563   6.244 -0.0405 -0.6877 -0.0346
   24CHL1   H1A 2927   1.892   4.566   6.220  0.0724  1.1308  0.5794
   24CHL1   H1B 2928   1.728   4.659   6.234  4.0837  2.2066  1.9322
   24CHL1    C2 2929   1.770   4.512   6.392  0.7701 -0.2089  0.3419
   24CHL1   H2A 2930   1.809   4.593   6.457  1.2253 -0.5822  0.5403
   24CHL1   H2B 2931   1.818   4.411   6.392  1.4533  0.1075  0.4384
   24CHL1   C20 2932   1.807   4.588   5.437 -0.8986 -0.1461  0.5442
   24CHL1   H20 2933   1.798   4.485   5.395  0.7422  0.3173 -1.0561
   24CHL1   C21 2934   1.960   4.619   5.460  0.5787 -0.0727  0.9877
   24CHL1  H21A 2935   2.015   4.603   5.365 -0.5218  0.6422  0.2099
   24CHL1  H21B 2936   2.009   4.557   5.538 -0.5186 -0.5216  1.3423
   24CHL1  H21C 2937   1.969   4.727   5.485  1.3275  0.1173 -0.0300
   24CHL1   C22 2938   1.756   4.674   5.316  0.1150  0.1169 -0.4920
   24CHL1  H22A 2939   1.648   4.697   5.326  0.5109  1.5315  0.9820
   24CHL1  H22B 2940   1.798   4.775   5.333 -1.1543  0.6524 -0.4176
   24CHL1   C23 2941   1.790   4.627   5.180  0.0844  0.3190  0.9242
   24CHL1  H23A 2942   1.900   4.639   5.164 -0.0360 -1.0406 -1.2820
   24CHL1  H23B 2943   1.770   4.518   5.185  2.3061 -0.1220  1.2845
   24CHL1   C24 2944   1.694   4.687   5.071  0.1834  0.3752 -0.2241
   24CHL1  H24A 2945   1.591   4.660   5.105  0.7960 -0.5790  0.9323
   24CHL1  H24B 2946   1.711   4.796   5.082  0.0163  0.3299  0.5197
   24CHL1   C25 2947   1.723   4.639   4.926 -0.8882 -0.3483  0.0007
   24CHL1   H25 2948   1.834   4.640   4.926 -0.8883  0.7702 -0.1410
   24CHL1   C26 2949   1.685   4.490   4.895 -0.5025  0.3460  0.5713
   24CHL1  H26A 2950   1.722   4.472   4.791  0.8805 -1.3418  1.3009
   24CHL1  H26B 2951   1.724   4.414   4.966 -0.2997  0.6194  0.7539
   24CHL1  H26C 2952   1.576   4.476   4.885 -0.4273  1.1257 -2.2893
   24CHL1   C27 2953   1.659   4.723   4.815 -0.3467 -0.0455 -0.7346
   24CHL1  H27A 2954   1.559   4.734   4.861  0.8015  2.4633  1.3713
   24CHL1  H27B 2955   1.711   4.821   4.814 -3.0301  1.5127  0.9368
   24CHL1  H27C 2956   1.662   4.690   4.709  0.9122 -1.5512 -0.2661
   25CHL1    C3 2957   3.541   0.355   6.253 -0.0921 -0.0573 -0.4232
   25CHL1    H3 2958   3.560   0.464   6.262 -2.7214  0.4367  0.2110
   25CHL1    O3 2959   3.560   0.297   6.376 -0.0786 -0.4802 -0.0778
   25CHL1   H3' 2960   3.646   0.319   6.413 -0.7559  0.7092  0.8586
   25CHL1    C4 2961   3.393   0.338   6.208 -0.2922 -0.4145  0.0314
   25CHL1   H4A 2962   3.375   0.230   6.196 -2.0559  0.0041 -1.5180
   25CHL1   H4B 2963   3.317   0.364   6.286  1.0159  2.3263  0.5414
   25CHL1    C5 2964   3.384   0.420   6.080  0.9650  0.0525  0.0320
   25CHL1    C6 2965   3.296   0.518   6.058  0.8386 -0.0327  0.0952
   25CHL1    H6 2966   3.237   0.543   6.147 -0.5437 -0.0913 -0.7796
   25CHL1    C7 2967   3.268   0.592   5.930 -0.4662  0.1568 -0.8268
   25CHL1   H7A 2968   3.159   0.612   5.922 -0.4646 -0.0231 -1.2862
   25CHL1   H7B 2969   3.317   0.691   5.931  0.8477 -0.3979  2.1621
   25CHL1    C8 2970   3.311   0.506   5.809 -0.2128 -0.0251  0.4975
   25CHL1    H8 2971   3.240   0.421   5.796 -1.0210  0.9818 -2.8789
   25CHL1   C14 2972   3.312   0.593   5.681 -0.4639 -0.3623  0.2592
   25CHL1   H14 2973   3.382   0.676   5.705 -1.2303 -0.2082  2.1542
   25CHL1   C15 2974   3.175   0.667   5.645 -0.2655  0.3843  0.6187
   25CHL1  H15A 2975   3.102   0.583   5.650  1.5475 -1.2864  0.2847
   25CHL1  H15B 2976   3.140   0.750   5.710 -1.5157  1.3776 -1.2526
   25CHL1   C16 2977   3.197   0.698   5.492  0.0121  0.5382  0.0243
   25CHL1  H16A 2978   3.126   0.636   5.432 -1.6939  1.2984  1.1620
   25CHL1  H16B 2979   3.200   0.809   5.483  0.4212  0.4624 -0.9754
   25CHL1   C17 2980   3.343   0.640   5.454 -0.8362 -0.0863  0.0945
   25CHL1   H17 2981   3.421   0.713   5.481  0.7615 -2.1039  1.2547
   25CHL1   C13 2982   3.368   0.528   5.552 -0.3213  0.4052  0.2261
   25CHL1   C18 2983   3.276   0.410   5.513  0.1837  0.5174  0.3182
   25CHL1  H18A 2984   3.256   0.340   5.597 -2.0848  3.2416  2.2256
   25CHL1  H18B 2985   3.172   0.430   5.479 -0.1597 -2.7459 -0.8870
   25CHL1  H18C 2986   3.329   0.363   5.427 -0.9690  1.5676 -1.0201
   25CHL1   C12 2987   3.511   0.485   5.580 -0.0554 -0.1519  0.0712
   25CHL1  H12A 2988   3.543   0.410   5.504 -1.3295 -2.4773  1.6696
   25CHL1  H12B 2989   3.578   0.572   5.595  1.4204 -1.3529  0.6757
   25CHL1   C11 2990   3.514   0.399   5.708  0.5311  0.3694  0.1044
   25CHL1  H11A 2991   3.462   0.307   5.675  1.7802 -0.8512  1.3364
   25CHL1  H11B 2992   3.620   0.369   5.722  0.0130 -1.1213  1.1514
   25CHL1    C9 2993   3.459   0.459   5.841 -0.2517 -0.3864 -0.3370
   25CHL1    H9 2994   3.518   0.551   5.862  0.0538 -1.1422  2.5629
   25CHL1   C10 2995   3.476   0.366   5.966 -0.4396 -0.0159 -0.0030
   25CHL1   C19 2996   3.421   0.217   5.935 -0.0495 -0.5954  0.3865
   25CHL1  H19A 2997   3.459   0.180   5.837 -1.1437 -1.6680  0.3397
   25CHL1  H19B 2998   3.453   0.147   6.015  1.0885 -0.1902  0.3077
   25CHL1  H19C 2999   3.312   0.220   5.911  0.1213 -1.3452 -0.5490
   25CHL1    C1 3000   3.620   0.363   6.014 -0.6903 -0.6838  0.6846
   25CHL1   H1A 3001   3.675   0.309   5.934 -0.8770 -2.4904  1.7187
   25CHL1   H1B 3002   3.655   0.468   6.020 -0.2560 -0.8253  0.6636
   25CHL1    C2 3003   3.634   0.295   6.154 -0.1774 -0.0831  0.0466
   25CHL1   H2A 3004   3.737   0.306   6.194  0.3666  0.6246 -1.4432
   25CHL1   H2B 3005   3.608   0.187   6.143  0.9048 -0.3399 -0.0860
   25CHL1   C20 3006   3.363   0.620   5.301  0.4734  0.2318 -0.3514
   25CHL1   H20 3007   3.295   0.536   5.273  2.5554 -1.2460 -1.2022
   25CHL1   C21 3008   3.496   0.567   5.270 -0.4477  0.2467 -0.2417
   25CHL1  H21A 3009   3.528   0.568   5.164 -0.3886  2.2614 -0.2347
   25CHL1  H21B 3010   3.489   0.458   5.291 -0.5945  0.4505  0.8067
   25CHL1  H21C 3011   3.579   0.610   5.329  0.3522  0.4433 -1.4788
   25CHL1   C22 3012   3.311   0.735   5.211 -0.4378 -0.7343 -0.3154
   25CHL1  H22A 3013   3.229   0.785   5.266  0.7671  1.7194 -0.6408
   25CHL1  H22B 3014   3.397   0.805   5.203 -1.5262  0.6657  0.0301
   25CHL1   C23 3015   3.271   0.677   5.074  0.5520  0.1405  0.2472
   25CHL1  H23A 3016   3.366   0.638   5.032  0.2224  1.0708 -1.4539
   25CHL1  H23B 3017   3.196   0.594   5.080 -2.6885  2.7265 -1.2203
   25CHL1   C24 3018   3.221   0.780   4.963  0.1840  0.3972 -0.5841
   25CHL1  H24A 3019   3.122   0.820   4.994  0.7876  0.0319  2.0974
   25CHL1  H24B 3020   3.293   0.864   4.964 -0.3372  0.9240  2.4856
   25CHL1   C25 3021   3.203   0.723   4.820 -0.3745 -0.1129  0.1528
   25CHL1   H25 3022   3.296   0.666   4.796 -0.4429 -1.1757  2.2394
   25CHL1   C26 3023   3.097   0.609   4.816 -0.4775  0.3459 -0.2854
   25CHL1  H26A 3024   3.095   0.572   4.711 -1.7804  0.3091 -0.2674
   25CHL1  H26B 3025   3.125   0.519   4.874 -1.5098 -0.3035 -0.7607
   25CHL1  H26C 3026   2.996   0.645   4.843  0.2912  1.8797  0.6862
   25CHL1   C27 3027   3.149   0.827   4.722  0.0809 -0.7744 -0.6619
   25CHL1  H27A 3028   3.217   0.915   4.731 -0.5709 -0.2839 -0.5166
   25CHL1  H27B 3029   3.148   0.789   4.618 -0.2224 -0.4965 -0.7604
   25CHL1  H27C 3030   3.046   0.855   4.751 -0.2091 -0.3664 -2.0541
   26CHL1    C3 3031   3.354   2.783   6.864  0.4820  0.5876  0.5204
   26CHL1    H3 3032   3.438   2.831   6.811  0.5560 -1.1365 -1.0447
   26CHL1    O3 3033   3.356   2.798   7.004  0.0356  0.5653  0.1091
   26CHL1   H3' 3034   3.271   2.770   7.039  0.0744 -0.6730 -0.7320
   26CHL1    C4 3035   3.221   2.839   6.802 -0.1758  0.1184  0.3052
   26CHL1   H4A 3036   3.128   2.791   6.839  1.1888 -1.4084  1.9818
   26CHL1   H4B 3037   3.213   2.948   6.821 -4.6902  0.2129 -0.8924
   26CHL1    C5 3038   3.210   2.811   6.650 -0.0997  0.6800 -0.3622
   26CHL1    C6 3039   3.195   2.919   6.570  0.5127  0.2896 -0.4982
   26CHL1    H6 3040   3.180   3.022   6.607  0.0429  0.1388 -0.2596
   26CHL1    C7 3041   3.196   2.905   6.419 -0.3075 -0.3337  0.1531
   26CHL1   H7A 3042   3.115   2.963   6.371 -0.3701  0.8954  1.6833
   26CHL1   H7B 3043   3.283   2.956   6.371 -1.4011  1.4672  0.0055
   26CHL1    C8 3044   3.190   2.761   6.368 -0.1730 -0.3823 -0.2520
   26CHL1    H8 3045   3.083   2.732   6.373  0.0975 -2.5131 -3.7347
   26CHL1   C14 3046   3.243   2.767   6.230  0.5714 -0.2361 -0.6805
   26CHL1   H14 3047   3.346   2.808   6.236 -0.4842  2.4639  1.7344
   26CHL1   C15 3048   3.172   2.864   6.128 -0.3764 -0.3365 -0.5424
   26CHL1  H15A 3049   3.062   2.877   6.138 -0.5084 -1.8688  0.4702
   26CHL1  H15B 3050   3.206   2.968   6.147 -0.0309 -0.3985 -0.8091
   26CHL1   C16 3051   3.217   2.812   5.986 -0.2740 -0.1293 -0.3148
   26CHL1  H16A 3052   3.125   2.787   5.929 -0.9075 -0.7252  0.9326
   26CHL1  H16B 3053   3.268   2.890   5.925 -2.5710  2.0396  0.4049
   26CHL1   C17 3054   3.285   2.673   6.008 -0.3186  1.0069 -0.8594
   26CHL1   H17 3055   3.395   2.693   6.005 -0.4587  1.7666 -1.2378
   26CHL1   C13 3056   3.239   2.631   6.156 -0.5726 -0.1629 -0.4421
   26CHL1   C18 3057   3.098   2.572   6.150 -0.5123  0.1483  1.2558
   26CHL1  H18A 3058   3.036   2.625   6.075  2.2257  0.5501 -0.8968
   26CHL1  H18B 3059   3.117   2.465   6.126 -1.4690  0.4215 -0.9686
   26CHL1  H18C 3060   3.043   2.570   6.246 -0.2164  1.2212  1.4589
   26CHL1   C12 3061   3.333   2.538   6.234  0.1237 -0.0094 -0.3739
   26CHL1  H12A 3062   3.334   2.437   6.189  2.4058 -1.1826  2.0475
   26CHL1  H12B 3063   3.433   2.585   6.225 -0.6684  1.3628 -3.3465
   26CHL1   C11 3064   3.284   2.531   6.382 -0.0815  0.3818  0.5906
   26CHL1  H11A 3065   3.181   2.488   6.382  0.9338 -2.2620  1.3294
   26CHL1  H11B 3066   3.340   2.462   6.449  0.6076  1.5298  1.2115
   26CHL1    C9 3067   3.282   2.670   6.447 -0.3831 -0.3165 -0.2300
   26CHL1    H9 3068   3.382   2.716   6.435 -0.3238 -0.4215 -0.1313
   26CHL1   C10 3069   3.248   2.665   6.596  0.0067 -0.5187 -0.1941
   26CHL1   C19 3070   3.132   2.566   6.620  0.0818 -0.0865  0.3710
   26CHL1  H19A 3071   3.090   2.581   6.722  1.2750 -0.8776  1.0119
   26CHL1  H19B 3072   3.056   2.569   6.540 -0.3228  0.8821  0.7839
   26CHL1  H19C 3073   3.171   2.462   6.620 -0.0077 -0.1274 -0.7949
   26CHL1    C1 3074   3.375   2.617   6.666 -0.1339  0.2491 -1.0024
   26CHL1   H1A 3075   3.390   2.510   6.639 -1.4094  0.0902 -1.1068
   26CHL1   H1B 3076   3.455   2.683   6.625 -0.5902  0.6957 -1.1822
   26CHL1    C2 3077   3.369   2.636   6.821  0.7715  0.2231 -0.3289
   26CHL1   H2A 3078   3.465   2.605   6.866  2.1638  1.9835 -1.9089
   26CHL1   H2B 3079   3.280   2.579   6.856 -0.3737  1.2429 -1.4280
   26CHL1   C20 3080   3.268   2.569   5.893  0.7158  0.1308  0.2673
   26CHL1   H20 3081   3.158   2.558   5.877  0.7027  0.0491  0.4057
   26CHL1   C21 3082   3.354   2.438   5.908  0.8392 -0.5744  0.0437
   26CHL1  H21A 3083   3.339   2.374   5.819 -1.4736 -0.4782  0.2874
   26CHL1  H21B 3084   3.331   2.377   5.998  0.2344  0.6983  0.7815
   26CHL1  H21C 3085   3.460   2.471   5.909  0.6705  0.0408 -0.8401
   26CHL1   C22 3086   3.315   2.640   5.756 -0.1842  0.1134 -0.5413
   26CHL1  H22A 3087   3.272   2.740   5.736 -2.1198 -0.0100  2.3731
   26CHL1  H22B 3088   3.423   2.652   5.777  0.1258 -2.5976 -0.2179
   26CHL1   C23 3089   3.280   2.560   5.627 -0.2265  0.7217  0.5668
   26CHL1  H23A 3090   3.317   2.455   5.631 -2.9337 -0.4513 -1.6698
   26CHL1  H23B 3091   3.170   2.547   5.635 -0.2686  0.8938  0.2614
   26CHL1   C24 3092   3.334   2.626   5.502 -0.3070 -0.5344 -0.3906
   26CHL1  H24A 3093   3.281   2.724   5.507  0.5497 -0.1113  2.7736
   26CHL1  H24B 3094   3.443   2.648   5.509 -0.6081  1.6286 -1.4272
   26CHL1   C25 3095   3.310   2.542   5.375  0.1159 -0.4891  0.5415
   26CHL1   H25 3096   3.217   2.482   5.390  1.1886 -2.1726  0.6974
   26CHL1   C26 3097   3.280   2.621   5.253 -0.3926 -0.2545 -0.3013
   26CHL1  H26A 3098   3.263   2.557   5.163  1.8113 -1.0794 -0.1729
   26CHL1  H26B 3099   3.189   2.685   5.251  0.2464  0.6564 -0.2581
   26CHL1  H26C 3100   3.366   2.686   5.227  0.1641  0.7452  3.5377
   26CHL1   C27 3101   3.421   2.436   5.346  0.4653 -0.1366  0.0276
   26CHL1  H27A 3102   3.440   2.374   5.437 -0.0772  2.1139  1.7560
   26CHL1  H27B 3103   3.393   2.375   5.257  2.7517 -3.0897  1.1271
   26CHL1  H27C 3104   3.513   2.494   5.325 -1.9420  3.6187 -0.9340
   27CHL1    C3 3105   2.401   4.862   6.418 -0.2641 -0.0157  0.2210
   27CHL1    H3 3106   2.346   4.942   6.365 -2.3214 -1.3455  0.2478
   27CHL1    O3 3107   2.408   4.892   6.555 -0.2103 -0.2098 -0.3042
   27CHL1   H3' 3108   2.471   4.823   6.580 -0.8384 -0.7493 -0.1779
   27CHL1    C4 3109   2.318   4.738   6.392 -0.0604 -0.2417 -0.2513
   27CHL1   H4A 3110   2.345   4.664   6.471  0.6533  0.1213 -0.1515
   27CHL1   H4B 3111   2.215   4.756   6.430  1.0077 -0.4342  3.1315
   27CHL1    C5 3112   2.333   4.686   6.249  0.5324 -0.2416 -0.0618
   27CHL1    C6 3113   2.223   4.677   6.173 -0.6070 -0.7405  0.6038
   27CHL1    H6 3114   2.127   4.716   6.210 -1.0236 -0.0292 -1.1224
   27CHL1    C7 3115   2.226   4.624   6.029 -0.5794  0.1867  0.0485
   27CHL1   H7A 3116   2.141   4.557   6.007 -1.2462  1.4349 -1.3131
   27CHL1   H7B 3117   2.214   4.713   5.963  0.5800 -2.1233 -3.5281
   27CHL1    C8 3118   2.363   4.564   5.991 -0.6170 -0.1977 -0.0558
   27CHL1    H8 3119   2.371   4.470   6.050  1.3687  2.2708  4.0765
   27CHL1   C14 3120   2.368   4.542   5.835 -0.5180 -0.6563 -0.2565
   27CHL1   H14 3121   2.349   4.646   5.799 -3.6586 -0.8682  0.5089
   27CHL1   C15 3122   2.258   4.463   5.769 -0.5692  0.0332 -0.6675
   27CHL1  H15A 3123   2.233   4.368   5.821  1.8993 -1.0566 -1.2852
   27CHL1  H15B 3124   2.172   4.531   5.757 -0.7182  0.2475  1.3646
   27CHL1   C16 3125   2.321   4.441   5.628 -0.5923 -0.0251  0.4334
   27CHL1  H16A 3126   2.310   4.332   5.611 -0.3428  0.2226 -1.5484
   27CHL1  H16B 3127   2.252   4.491   5.556 -1.5598 -1.9119 -0.0029
   27CHL1   C17 3128   2.468   4.493   5.635 -0.2915  0.0928 -0.4591
   27CHL1   H17 3129   2.470   4.600   5.604 -3.6842 -0.1378 -1.9711
   27CHL1   C13 3130   2.500   4.504   5.782 -0.5656  0.5645  0.1712
   27CHL1   C18 3131   2.550   4.378   5.842 -0.3198 -0.5272  0.1057
   27CHL1  H18A 3132   2.495   4.295   5.791 -0.6770 -0.0104 -0.3569
   27CHL1  H18B 3133   2.657   4.363   5.815  0.0544  1.7511  0.1443
   27CHL1  H18C 3134   2.544   4.361   5.951 -0.4053 -0.4249  0.1172
   27CHL1   C12 3135   2.600   4.618   5.825 -0.1181  0.4486  0.0439
   27CHL1  H12A 3136   2.702   4.598   5.785  0.1133  0.9896  0.3457
   27CHL1  H12B 3137   2.564   4.717   5.790 -0.3414  0.0546 -0.8664
   27CHL1   C11 3138   2.617   4.626   5.980 -0.3335 -0.5583  0.4856
   27CHL1  H11A 3139   2.650   4.524   6.010 -0.7784 -0.5053  1.1646
   27CHL1  H11B 3140   2.684   4.710   6.006 -3.5090  2.4542 -0.3155
   27CHL1    C9 3141   2.478   4.655   6.043 -0.5304 -0.7902 -0.3414
   27CHL1    H9 3142   2.452   4.752   5.996 -1.4425 -1.1850 -0.6650
   27CHL1   C10 3143   2.474   4.670   6.198  0.1790  0.0257  0.3387
   27CHL1   C19 3144   2.526   4.537   6.268  0.0463  0.0710 -0.4680
   27CHL1  H19A 3145   2.521   4.545   6.379 -0.5463 -0.4252 -0.4518
   27CHL1  H19B 3146   2.466   4.449   6.235  0.2992 -0.7704  1.1948
   27CHL1  H19C 3147   2.635   4.523   6.253  0.2313 -2.0497  2.0449
   27CHL1    C1 3148   2.559   4.795   6.230  0.4802 -0.2443 -0.0390
   27CHL1   H1A 3149   2.664   4.763   6.211  0.6947 -0.0881  0.8614
   27CHL1   H1B 3150   2.543   4.875   6.154 -1.2823 -0.5260  0.0154
   27CHL1    C2 3151   2.551   4.859   6.372 -0.0848  0.4370  0.4379
   27CHL1   H2A 3152   2.599   4.957   6.388  0.7429  0.2353 -0.7151
   27CHL1   H2B 3153   2.599   4.784   6.439 -0.0649  0.6455  0.6600
   27CHL1   C20 3154   2.565   4.411   5.538 -0.1037 -0.4750 -0.3307
   27CHL1   H20 3155   2.573   4.309   5.581  1.5695 -0.0501  0.4489
   27CHL1   C21 3156   2.705   4.469   5.543 -0.9370 -0.1384 -0.1955
   27CHL1  H21A 3157   2.757   4.454   5.640 -0.1361  1.6118 -0.3175
   27CHL1  H21B 3158   2.699   4.576   5.516  1.6628 -0.1830 -1.2599
   27CHL1  H21C 3159   2.763   4.422   5.460 -1.9359 -1.5075 -0.1419
   27CHL1   C22 3160   2.518   4.414   5.397 -0.2544  0.6364  0.5643
   27CHL1  H22A 3161   2.408   4.433   5.393  0.1537  3.2541 -0.0394
   27CHL1  H22B 3162   2.556   4.504   5.344 -0.9878  1.4349  1.3739
   27CHL1   C23 3163   2.538   4.283   5.327  0.6153 -0.2620  0.3958
   27CHL1  H23A 3164   2.646   4.257   5.329  0.6421 -0.1711  0.0175
   27CHL1  H23B 3165   2.486   4.205   5.388  1.2647  1.7366  3.7848
   27CHL1   C24 3166   2.486   4.276   5.186 -0.1594 -0.8122  0.4868
   27CHL1  H24A 3167   2.381   4.306   5.170 -0.0055 -1.2900 -1.7987
   27CHL1  H24B 3168   2.529   4.360   5.128 -1.3578  0.3536  1.2208
   27CHL1   C25 3169   2.506   4.140   5.117 -0.2971  0.7450 -0.1616
   27CHL1   H25 3170   2.462   4.062   5.182  0.1417  0.1257 -0.6055
   27CHL1   C26 3171   2.438   4.139   4.976  0.2152 -0.5936 -0.8415
   27CHL1  H26A 3172   2.473   4.049   4.921  1.7847  0.4891 -1.6801
   27CHL1  H26B 3173   2.328   4.151   4.971  0.2646  1.0710  0.8350
   27CHL1  H26C 3174   2.482   4.223   4.918  1.0627  0.3949  1.1111
   27CHL1   C27 3175   2.655   4.103   5.105 -0.7120  0.3830 -0.5540
   27CHL1  H27A 3176   2.711   4.166   5.032 -0.6715  2.5717  1.2602
   27CHL1  H27B 3177   2.666   4.001   5.061 -1.6646  0.1987 -0.3870
   27CHL1  H27C 3178   2.716   4.094   5.197 -1.0104  0.5189 -0.3442
   28CHL1    C3 3179   5.614   2.649   6.377 -0.0178 -0.0983 -0.7383
   28CHL1    H3 3180   5.591   2.542   6.397  1.1266 -0.1636  0.3394
   28CHL1    O3 3181   5.666   2.702   6.498 -0.0185 -0.4095  0.2535
   28CHL1   H3' 3182   5.591   2.723   6.553  0.1072  1.1109 -0.1034
   28CHL1    C4 3183   5.718   2.660   6.264  0.7072 -0.6534  0.6443
   28CHL1   H4A 3184   5.756   2.765   6.268 -0.1032 -0.4036  2.0662
   28CHL1   H4B 3185   5.805   2.592   6.280  1.7792 -0.4456 -3.1424
   28CHL1    C5 3186   5.668   2.622   6.124  0.2091 -0.5634 -0.2668
   28CHL1    C6 3187   5.719   2.523   6.048  0.1757  0.1875 -0.6240
   28CHL1    H6 3188   5.799   2.461   6.091 -0.3902 -1.0188 -1.2550
   28CHL1    C7 3189   5.676   2.490   5.907  0.2432 -0.2366  0.0788
   28CHL1   H7A 3190   5.765   2.478   5.843  0.0813  1.5125 -0.5454
   28CHL1   H7B 3191   5.614   2.398   5.898 -1.8329  0.9918  0.9698
   28CHL1    C8 3192   5.574   2.589   5.845  0.3369 -0.0223 -0.1082
   28CHL1    H8 3193   5.641   2.673   5.816  0.2679  0.8212  2.0109
   28CHL1   C14 3194   5.506   2.533   5.719 -0.2464  0.2401  0.9429
   28CHL1   H14 3195   5.436   2.453   5.751 -1.1950  0.3689 -0.7255
   28CHL1   C15 3196   5.606   2.466   5.619  0.3291  0.2758  0.3353
   28CHL1  H15A 3197   5.696   2.529   5.604  0.5780  0.0597  0.8964
   28CHL1  H15B 3198   5.635   2.361   5.641 -1.6376 -0.5807 -0.8605
   28CHL1   C16 3199   5.520   2.475   5.492 -0.0487  0.8583  0.9130
   28CHL1  H16A 3200   5.567   2.535   5.412  0.1375  0.4502  0.7128
   28CHL1  H16B 3201   5.504   2.374   5.450 -0.0726  1.2754 -0.1034
   28CHL1   C17 3202   5.386   2.551   5.524 -0.7395 -0.6334  0.1038
   28CHL1   H17 3203   5.316   2.473   5.559  1.0199 -2.3742 -0.1139
   28CHL1   C13 3204   5.422   2.639   5.650  0.0012  0.6506 -0.4011
   28CHL1   C18 3205   5.500   2.771   5.610  0.2879  0.1865  0.8216
   28CHL1  H18A 3206   5.554   2.814   5.697  0.4435 -0.4993  1.0681
   28CHL1  H18B 3207   5.574   2.739   5.534 -0.6154  1.2521 -0.5658
   28CHL1  H18C 3208   5.430   2.850   5.575 -0.1247 -0.5014  0.0573
   28CHL1   C12 3209   5.301   2.666   5.747  0.0127 -0.2608  0.3497
   28CHL1  H12A 3210   5.229   2.730   5.692 -0.6551 -2.4273 -1.4705
   28CHL1  H12B 3211   5.240   2.574   5.757  1.9312 -1.4863  1.3766
   28CHL1   C11 3212   5.352   2.704   5.888 -0.0036 -0.2059  0.2054
   28CHL1  H11A 3213   5.390   2.806   5.865  1.6802  0.2247  4.1184
   28CHL1  H11B 3214   5.268   2.701   5.961 -0.5677  2.1219 -0.2677
   28CHL1    C9 3215   5.467   2.617   5.953  0.2486  0.8505  0.0299
   28CHL1    H9 3216   5.421   2.519   5.978  0.7262  0.2089 -1.4722
   28CHL1   C10 3217   5.535   2.682   6.083  0.8078  0.1965  0.2175
   28CHL1   C19 3218   5.560   2.835   6.054  0.1142 -0.9665 -0.9456
   28CHL1  H19A 3219   5.618   2.881   6.137 -0.4323 -0.5520 -0.7887
   28CHL1  H19B 3220   5.614   2.854   5.959 -0.8786  0.9682 -1.1852
   28CHL1  H19C 3221   5.467   2.896   6.049 -0.5802 -2.0498 -1.8583
   28CHL1    C1 3222   5.433   2.677   6.200  0.3519  0.1654  0.9761
   28CHL1   H1A 3223   5.343   2.728   6.159  0.7297 -0.9012 -1.3148
   28CHL1   H1B 3224   5.400   2.572   6.212 -1.9004  0.8089  0.8146
   28CHL1    C2 3225   5.484   2.724   6.335 -1.0043  1.1371  0.0727
   28CHL1   H2A 3226   5.409   2.702   6.415 -0.9318 -0.4595 -0.2696
   28CHL1   H2B 3227   5.506   2.833   6.342  0.0665  0.8640  1.4171
   28CHL1   C20 3228   5.336   2.620   5.400 -0.1088 -0.7854  0.3381
   28CHL1   H20 3229   5.417   2.686   5.363 -0.4009  0.2816  1.5044
   28CHL1   C21 3230   5.215   2.705   5.437 -0.0378 -0.1129  0.0402
   28CHL1  H21A 3231   5.161   2.737   5.345 -1.1569  0.1242  0.7711
   28CHL1  H21B 3232   5.234   2.798   5.494 -2.0166 -0.5408  1.4999
   28CHL1  H21C 3233   5.138   2.642   5.486 -1.8067  0.8589 -1.3888
   28CHL1   C22 3234   5.307   2.518   5.292  0.1829  0.3741  0.1725
   28CHL1  H22A 3235   5.397   2.456   5.274 -0.0375 -1.1322  3.4592
   28CHL1  H22B 3236   5.229   2.443   5.320 -0.8024  0.5346 -1.9888
   28CHL1   C23 3237   5.251   2.561   5.159 -0.5877  0.1045 -0.1596
   28CHL1  H23A 3238   5.151   2.608   5.168 -0.0925  1.3111 -0.7425
   28CHL1  H23B 3239   5.326   2.628   5.112 -0.8062  1.1872  0.9909
   28CHL1   C24 3240   5.245   2.440   5.065  0.1135 -0.0273  0.3282
   28CHL1  H24A 3241   5.346   2.394   5.072 -1.2237 -3.4356 -0.6220
   28CHL1  H24B 3242   5.168   2.367   5.099  1.1516 -0.6837  1.3633
   28CHL1   C25 3243   5.223   2.469   4.914  0.8287  0.1921 -0.1874
   28CHL1   H25 3244   5.293   2.552   4.890  1.7634 -0.4668  0.1917
   28CHL1   C26 3245   5.254   2.343   4.838  0.1452 -0.1567 -0.9112
   28CHL1  H26A 3246   5.266   2.360   4.728  3.0626 -1.3767 -0.8892
   28CHL1  H26B 3247   5.358   2.318   4.869 -0.1460  0.0849  0.3016
   28CHL1  H26C 3248   5.191   2.264   4.882  0.1501  0.6838  0.6635
   28CHL1   C27 3249   5.073   2.512   4.890 -0.7922 -0.4078  0.3508
   28CHL1  H27A 3250   5.002   2.456   4.954 -0.2045 -0.0474  1.3426
   28CHL1  H27B 3251   5.065   2.623   4.896  0.2420 -0.3199  0.2441
   28CHL1  H27C 3252   5.045   2.483   4.787 -1.5356 -0.4762  0.5653
   29CHL1    C3 3253   1.027   4.301   6.585  0.1751  0.3718  0.7900
   29CHL1    H3 3254   0.928   4.352   6.583  1.0513  2.1680 -1.4857
   29CHL1    O3 3255   1.064   4.287   6.717 -0.5097  0.0486  0.3373
   29CHL1   H3' 3256   1.119   4.209   6.719 -0.7668 -0.1750 -0.6273
   29CHL1    C4 3257   1.006   4.159   6.512  0.7262 -0.0514  0.6138
   29CHL1   H4A 3258   1.104   4.110   6.528  0.1243 -0.9042  1.8644
   29CHL1   H4B 3259   0.926   4.110   6.572  0.1380  0.1051 -0.0181
   29CHL1    C5 3260   0.966   4.168   6.366  0.1615 -0.5714  0.0839
   29CHL1    C6 3261   0.850   4.113   6.315  0.2483 -0.3171  0.1897
   29CHL1    H6 3262   0.779   4.064   6.385 -0.1990 -0.5859 -0.4415
   29CHL1    C7 3263   0.804   4.136   6.172  0.3915  1.0390  0.0701
   29CHL1   H7A 3264   0.747   4.048   6.135  2.7919 -1.5764  2.2115
   29CHL1   H7B 3265   0.726   4.215   6.175  0.0797  0.6983  1.4954
   29CHL1    C8 3266   0.912   4.170   6.075 -0.0386  0.9740 -0.7183
   29CHL1    H8 3267   0.969   4.075   6.070 -0.7340  0.6131 -3.1288
   29CHL1   C14 3268   0.862   4.204   5.933  0.7485 -0.1033  0.1270
   29CHL1   H14 3269   0.807   4.299   5.951  0.5262  0.2367 -2.0837
   29CHL1   C15 3270   0.770   4.110   5.858  0.7452 -0.7289  0.1231
   29CHL1  H15A 3271   0.817   4.010   5.872  1.5254 -0.2797  0.8443
   29CHL1  H15B 3272   0.664   4.103   5.890 -1.0204  0.5227 -4.5336
   29CHL1   C16 3273   0.784   4.144   5.712 -1.3513  0.3130  1.0164
   29CHL1  H16A 3274   0.819   4.049   5.668 -0.0836  0.2420  2.1146
   29CHL1  H16B 3275   0.683   4.177   5.679 -0.5910  1.3885 -0.3276
   29CHL1   C17 3276   0.894   4.255   5.710 -0.5128  0.5204  0.0202
   29CHL1   H17 3277   0.834   4.348   5.724 -1.9472 -0.5063  1.0760
   29CHL1   C13 3278   0.970   4.238   5.840  0.4018  0.3853  0.0650
   29CHL1   C18 3279   1.064   4.117   5.814 -0.3612 -0.4986  0.0405
   29CHL1  H18A 3280   1.115   4.078   5.905 -0.0031 -0.1489 -0.0097
   29CHL1  H18B 3281   1.027   4.019   5.776 -0.0971 -0.6991  0.2901
   29CHL1  H18C 3282   1.149   4.161   5.758  1.2845 -0.5684  2.3088
   29CHL1   C12 3283   1.040   4.364   5.887 -0.1305  0.1825 -0.6429
   29CHL1  H12A 3284   1.119   4.395   5.816  0.2060  1.5871  0.3189
   29CHL1  H12B 3285   0.972   4.451   5.885 -0.8286 -0.3606 -1.8109
   29CHL1   C11 3286   1.099   4.341   6.028  0.5368  0.9235  0.7972
   29CHL1  H11A 3287   1.177   4.263   6.012 -0.9003 -0.4130 -0.0535
   29CHL1  H11B 3288   1.139   4.437   6.066  2.0861  0.9807 -0.8700
   29CHL1    C9 3289   0.994   4.286   6.129  0.0036 -0.1736 -0.1792
   29CHL1    H9 3290   0.924   4.371   6.142 -0.2436 -0.4012 -0.0165
   29CHL1   C10 3291   1.051   4.252   6.277 -1.0467 -0.1677  0.4005
   29CHL1   C19 3292   1.186   4.170   6.263 -0.2590  0.5491  0.3967
   29CHL1  H19A 3293   1.259   4.221   6.196  0.5186 -2.4602 -1.2326
   29CHL1  H19B 3294   1.239   4.142   6.356  0.3590 -2.4799 -0.7536
   29CHL1  H19C 3295   1.157   4.081   6.204  1.7583  1.9103 -2.9430
   29CHL1    C1 3296   1.084   4.379   6.352 -0.3017 -0.2935 -0.3626
   29CHL1   H1A 3297   1.154   4.448   6.300  1.3200 -0.0976  1.9200
   29CHL1   H1B 3298   0.988   4.435   6.351  1.0836  2.2359 -1.6296
   29CHL1    C2 3299   1.131   4.383   6.505  1.4595  0.5866  0.4553
   29CHL1   H2A 3300   1.142   4.486   6.545  1.3395  1.2337 -1.1033
   29CHL1   H2B 3301   1.228   4.328   6.512 -0.4421 -3.1692 -0.0803
   29CHL1   C20 3302   0.974   4.274   5.579 -0.1446  0.5366  0.1707
   29CHL1   H20 3303   1.078   4.249   5.608  0.0062  0.4211 -0.4401
   29CHL1   C21 3304   0.969   4.419   5.546 -0.0322  0.4492 -0.3931
   29CHL1  H21A 3305   0.867   4.447   5.512 -1.5048 -0.0514  3.2071
   29CHL1  H21B 3306   1.045   4.451   5.471  0.6196 -0.5482 -0.1718
   29CHL1  H21C 3307   0.986   4.480   5.638 -0.9842  0.6862 -0.3723
   29CHL1   C22 3308   0.940   4.189   5.452 -0.4582  0.0099  0.2946
   29CHL1  H22A 3309   1.013   4.223   5.375  0.7612 -0.7040  1.1091
   29CHL1  H22B 3310   0.964   4.083   5.476  1.7773  0.5583  0.6902
   29CHL1   C23 3311   0.802   4.197   5.390 -0.5413 -0.1990 -0.0688
   29CHL1  H23A 3312   0.720   4.175   5.462 -0.7224 -0.5535 -0.3797
   29CHL1  H23B 3313   0.780   4.304   5.368  1.6600 -0.0409 -1.8084
   29CHL1   C24 3314   0.790   4.119   5.258  0.3180  0.2849 -0.7974
   29CHL1  H24A 3315   0.794   4.012   5.288 -3.5864  0.1216 -0.3119
   29CHL1  H24B 3316   0.697   4.133   5.199  0.7087  0.5414 -1.3709
   29CHL1   C25 3317   0.900   4.140   5.153 -0.5018 -0.0695  0.1819
   29CHL1   H25 3318   0.994   4.110   5.204  0.3713  2.0492 -0.0995
   29CHL1   C26 3319   0.875   4.046   5.029  0.1011 -0.8489  0.2276
   29CHL1  H26A 3320   0.947   4.075   4.950  0.1773 -2.0983 -0.1900
   29CHL1  H26B 3321   0.889   3.942   5.067 -2.4862 -0.0197  4.0362
   29CHL1  H26C 3322   0.772   4.060   4.989  0.4718 -1.3665 -0.9380
   29CHL1   C27 3323   0.911   4.285   5.101  0.1593  0.2869 -0.8756
   29CHL1  H27A 3324   0.911   4.361   5.182 -0.5434  0.2249 -0.8146
   29CHL1  H27B 3325   0.997   4.299   5.032 -0.2619 -0.4284 -1.5529
   29CHL1  H27C 3326   0.825   4.297   5.033 -0.0473  2.8477 -0.2394
   30CHL1    C3 3327   3.925   6.098   6.414  0.4368 -0.8546  0.7470
   30CHL1    H3 3328   3.984   6.006   6.395  1.9308 -0.0621  1.4001
   30CHL1    O3 3329   3.946   6.152   6.544  0.1756  0.4308  0.3036
   30CHL1   H3' 3330   4.014   6.099   6.586 -0.3482 -1.7812 -1.4608
   30CHL1    C4 3331   3.957   6.212   6.311 -0.0748 -0.2254  0.1784
   30CHL1   H4A 3332   3.892   6.300   6.333 -0.4843 -0.8062  1.4068
   30CHL1   H4B 3333   4.063   6.236   6.334  0.0472 -0.8390  0.2823
   30CHL1    C5 3334   3.934   6.171   6.173  0.3123 -0.4380  1.0443
   30CHL1    C6 3335   4.033   6.177   6.082 -0.1582 -0.7205  0.5182
   30CHL1    H6 3336   4.136   6.211   6.102  0.2436 -0.8636 -1.1385
   30CHL1    C7 3337   4.028   6.137   5.941  0.3060  0.3170  0.3516
   30CHL1   H7A 3338   4.080   6.208   5.874  0.6783 -1.3583 -1.2403
   30CHL1   H7B 3339   4.072   6.036   5.923  1.5148  0.7348  0.8737
   30CHL1    C8 3340   3.874   6.113   5.901 -0.3922 -0.2730 -0.2111
   30CHL1    H8 3341   3.834   6.214   5.879 -0.8676 -0.7493 -1.7085
   30CHL1   C14 3342   3.862   6.032   5.772  0.2216  0.0913  0.0286
   30CHL1   H14 3343   3.905   5.932   5.795  0.2563 -0.3909 -1.9696
   30CHL1   C15 3344   3.952   6.076   5.653 -0.1099  0.0676  0.1100
   30CHL1  H15A 3345   3.937   6.186   5.647  0.5880  0.1747  0.2209
   30CHL1  H15B 3346   4.058   6.046   5.662  1.0564  4.0772  2.4115
   30CHL1   C16 3347   3.877   6.009   5.531  0.2531  0.5583 -0.4833
   30CHL1  H16A 3348   3.848   6.095   5.466  0.2272  1.9038  1.2513
   30CHL1  H16B 3349   3.950   5.944   5.478  0.2843 -0.6503  0.9685
   30CHL1   C17 3350   3.749   5.940   5.583 -0.1672 -0.3583  0.1948
   30CHL1   H17 3351   3.783   5.836   5.601  0.2729 -0.2595 -0.0395
   30CHL1   C13 3352   3.720   6.003   5.719 -0.6072 -0.4530  0.0431
   30CHL1   C18 3353   3.655   6.140   5.687 -0.2530 -0.0463 -0.1096
   30CHL1  H18A 3354   3.616   6.188   5.779  0.2923  0.7868 -0.3073
   30CHL1  H18B 3355   3.722   6.212   5.635  1.3925 -0.8177  0.8570
   30CHL1  H18C 3356   3.558   6.121   5.636 -0.4480 -1.3047  0.6839
   30CHL1   C12 3357   3.647   5.923   5.818  0.1184  0.7689 -0.2966
   30CHL1  H12A 3358   3.543   5.904   5.787 -0.0350  0.5213  0.3415
   30CHL1  H12B 3359   3.705   5.830   5.836 -0.3938  0.5088  0.0213
   30CHL1   C11 3360   3.648   5.994   5.951 -0.0121  0.1794 -0.0083
   30CHL1  H11A 3361   3.575   6.078   5.946 -1.3747 -1.0261 -1.4876
   30CHL1  H11B 3362   3.608   5.932   6.034 -0.5147  3.2961  2.2631
   30CHL1    C9 3363   3.787   6.038   6.000 -0.2007  0.1555 -0.0586
   30CHL1    H9 3364   3.846   5.945   6.017 -1.8775 -0.8132  0.7247
   30CHL1   C10 3365   3.787   6.118   6.134 -0.1645 -0.3077  0.1003
   30CHL1   C19 3366   3.696   6.236   6.121  0.4129 -0.0601  0.2801
   30CHL1  H19A 3367   3.711   6.302   6.034 -4.4329  0.2782 -0.5828
   30CHL1  H19B 3368   3.592   6.199   6.133  0.9287 -1.0760  2.0231
   30CHL1  H19C 3369   3.705   6.293   6.216 -0.2418 -1.9323  1.5395
   30CHL1    C1 3370   3.745   6.027   6.252  0.1158 -0.5182  0.1628
   30CHL1   H1A 3371   3.635   6.014   6.241  0.4303 -1.9479 -2.1254
   30CHL1   H1B 3372   3.789   5.927   6.233  1.5231 -0.5452  3.0407
   30CHL1    C2 3373   3.777   6.073   6.392  0.2734  0.0413  0.1113
   30CHL1   H2A 3374   3.739   5.990   6.455  2.9608 -1.2752  0.1149
   30CHL1   H2B 3375   3.728   6.170   6.412  2.3951  0.6285  3.1851
   30CHL1   C20 3376   3.647   5.936   5.460  0.6118 -0.1508 -0.6294
   30CHL1   H20 3377   3.632   6.045   5.451 -0.4713  0.5466  5.3787
   30CHL1   C21 3378   3.506   5.876   5.498  0.2867  0.0433  0.0557
   30CHL1  H21A 3379   3.436   5.885   5.411  0.5211  0.7574 -0.0640
   30CHL1  H21B 3380   3.457   5.935   5.577 -2.2927  0.1546 -1.5173
   30CHL1  H21C 3381   3.518   5.769   5.527 -0.4434 -0.9096 -2.7628
   30CHL1   C22 3382   3.701   5.883   5.324  0.6822 -0.3805 -0.9650
   30CHL1  H22A 3383   3.812   5.875   5.326  0.6649 -0.5468 -0.6855
   30CHL1  H22B 3384   3.668   5.777   5.333 -0.1572  0.0012  0.8895
   30CHL1   C23 3385   3.649   5.950   5.193 -0.2341 -0.3348 -0.2987
   30CHL1  H23A 3386   3.539   5.958   5.194 -0.2095  0.2050 -1.3587
   30CHL1  H23B 3387   3.671   6.059   5.199  1.0901 -0.5960  0.0718
   30CHL1   C24 3388   3.716   5.889   5.064  0.1188  0.6898 -0.6891
   30CHL1  H24A 3389   3.825   5.911   5.064  0.7525 -2.0211  0.7153
   30CHL1  H24B 3390   3.707   5.779   5.078  1.3190  0.7333  0.5589
   30CHL1   C25 3391   3.654   5.931   4.927 -0.1564  0.9408 -0.5085
   30CHL1   H25 3392   3.545   5.913   4.942  0.1648  0.4247  1.6026
   30CHL1   C26 3393   3.676   6.085   4.914  0.5670 -0.1813  0.2125
   30CHL1  H26A 3394   3.610   6.119   4.832 -1.0634 -0.9122  1.1670
   30CHL1  H26B 3395   3.641   6.147   5.000 -0.1340  0.4856 -0.5368
   30CHL1  H26C 3396   3.785   6.104   4.897  0.7549  0.8108  2.1873
   30CHL1   C27 3397   3.723   5.867   4.804  1.0664  0.5551 -0.3776
   30CHL1  H27A 3398   3.669   5.771   4.787  2.6937 -0.5489  0.4597
   30CHL1  H27B 3399   3.705   5.937   4.719 -0.4983  1.2638  0.4836
   30CHL1  H27C 3400   3.829   5.836   4.813  0.7416 -0.2990  0.6653
   31CHL1    C3 3401   5.477   2.196   6.083 -0.3076 -0.5880  0.4710
   31CHL1    H3 3402   5.517   2.291   6.043  1.5332 -0.5017  2.3153
   31CHL1    O3 3403   5.486   2.200   6.226 -0.2769  0.0442  0.1701
   31CHL1   H3' 3404   5.581   2.199   6.240 -0.3796 -1.6315  0.8880
   31CHL1    C4 3405   5.334   2.168   6.039  0.0099  0.0321  0.0443
   31CHL1   H4A 3406   5.287   2.084   6.094  0.8989 -0.9322 -0.6166
   31CHL1   H4B 3407   5.279   2.258   6.073 -0.2766 -0.4906  0.9785
   31CHL1    C5 3408   5.331   2.145   5.885  0.9610 -0.5419 -0.7802
   31CHL1    C6 3409   5.250   2.219   5.807  0.3648 -0.2388  0.0098
   31CHL1    H6 3410   5.187   2.304   5.836  0.8833  1.6381 -3.7749
   31CHL1    C7 3411   5.241   2.193   5.656  0.4279 -0.0251  0.0006
   31CHL1   H7A 3412   5.137   2.198   5.616 -0.1152 -1.3650  1.1676
   31CHL1   H7B 3413   5.292   2.276   5.602 -0.0140  1.4895  1.7886
   31CHL1    C8 3414   5.320   2.067   5.603  0.2669  0.0251  0.4666
   31CHL1    H8 3415   5.257   1.980   5.633 -1.3042  1.4341  1.4368
   31CHL1   C14 3416   5.349   2.077   5.455 -0.8557  0.5305  0.4363
   31CHL1   H14 3417   5.426   2.157   5.458  0.4983 -0.7216 -0.0475
   31CHL1   C15 3418   5.233   2.117   5.357 -0.4734 -0.1425 -0.2594
   31CHL1  H15A 3419   5.145   2.055   5.387 -1.2621  0.5604 -1.0458
   31CHL1  H15B 3420   5.193   2.220   5.369  0.8030  0.3090  0.2598
   31CHL1   C16 3421   5.286   2.076   5.218  0.3132 -0.1188 -0.0460
   31CHL1  H16A 3422   5.206   2.039   5.150 -0.2935  0.6863  0.2246
   31CHL1  H16B 3423   5.321   2.169   5.170  0.0993 -1.3231 -2.7523
   31CHL1   C17 3424   5.407   1.985   5.241 -0.1670  0.6407 -0.0428
   31CHL1   H17 3425   5.497   2.048   5.229 -0.5799  1.3840  0.6557
   31CHL1   C13 3426   5.402   1.950   5.395 -1.0314  0.7553 -0.8519
   31CHL1   C18 3427   5.303   1.825   5.410  0.1769  0.0937 -0.0034
   31CHL1  H18A 3428   5.344   1.725   5.382 -0.3185 -0.4201  1.0656
   31CHL1  H18B 3429   5.276   1.821   5.518 -1.8440 -0.5066 -0.4853
   31CHL1  H18C 3430   5.216   1.843   5.344 -0.7985  1.5084  1.5930
   31CHL1   C12 3431   5.534   1.909   5.462 -0.6103 -0.2503 -0.0201
   31CHL1  H12A 3432   5.561   1.807   5.427  1.0233  0.6319 -1.5484
   31CHL1  H12B 3433   5.619   1.972   5.426 -1.0634  0.8488  0.7787
   31CHL1   C11 3434   5.517   1.909   5.618  0.1913 -0.2477  0.6596
   31CHL1  H11A 3435   5.462   1.816   5.642  0.2209 -0.6805 -0.8473
   31CHL1  H11B 3436   5.621   1.893   5.653  0.7170 -4.9874 -2.1719
   31CHL1    C9 3437   5.449   2.040   5.675  0.4396 -0.2485 -0.5737
   31CHL1    H9 3438   5.517   2.127   5.661 -1.0534  1.7495  3.2026
   31CHL1   C10 3439   5.431   2.036   5.830  0.0697 -1.0784 -0.1228
   31CHL1   C19 3440   5.384   1.903   5.886 -0.1722  0.3243  0.2930
   31CHL1  H19A 3441   5.367   1.901   5.996  0.3406 -2.0835  0.3784
   31CHL1  H19B 3442   5.282   1.877   5.851 -0.0837  2.2602 -1.6211
   31CHL1  H19C 3443   5.441   1.812   5.857 -0.2788  0.0329  0.9811
   31CHL1    C1 3444   5.572   2.064   5.894 -0.3521 -0.3486  0.2367
   31CHL1   H1A 3445   5.644   1.982   5.875 -1.7157 -1.0824 -2.0306
   31CHL1   H1B 3446   5.622   2.160   5.867  1.2016 -0.6376  1.8826
   31CHL1    C2 3447   5.568   2.077   6.044 -0.4904 -0.4023  0.2096
   31CHL1   H2A 3448   5.669   2.103   6.084 -0.5865 -0.7728  0.7123
   31CHL1   H2B 3449   5.546   1.986   6.104 -2.3923  1.2213  2.1493
   31CHL1   C20 3450   5.412   1.876   5.135 -0.7416  0.8003  0.2027
   31CHL1   H20 3451   5.326   1.807   5.147  0.0654 -0.6894 -1.9859
   31CHL1   C21 3452   5.542   1.795   5.142  0.5795  0.0649 -0.0490
   31CHL1  H21A 3453   5.546   1.723   5.057 -0.2009  1.3302 -1.1979
   31CHL1  H21B 3454   5.535   1.743   5.240 -0.3818 -1.9777 -1.1551
   31CHL1  H21C 3455   5.629   1.864   5.141 -0.4739  1.4361 -0.9945
   31CHL1   C22 3456   5.391   1.939   4.991  0.2701  0.1192  0.1747
   31CHL1  H22A 3457   5.293   1.991   4.986 -0.9341 -2.1571 -2.0968
   31CHL1  H22B 3458   5.471   2.014   4.974  1.2790 -1.0825 -0.5473
   31CHL1   C23 3459   5.388   1.835   4.880 -0.1277 -0.2584  0.5526
   31CHL1  H23A 3460   5.492   1.797   4.867 -0.2543 -0.5215  0.2897
   31CHL1  H23B 3461   5.335   1.740   4.904 -0.0473 -0.5606 -0.4285
   31CHL1   C24 3462   5.326   1.895   4.748  0.2850 -0.6597 -0.6909
   31CHL1  H24A 3463   5.230   1.945   4.774  1.3426  0.5131  1.1372
   31CHL1  H24B 3464   5.385   1.982   4.712  1.1061  0.4084  2.8304
   31CHL1   C25 3465   5.292   1.790   4.632  0.5880  0.5952  0.0420
   31CHL1   H25 3466   5.388   1.736   4.616  0.4701  0.3325  0.2175
   31CHL1   C26 3467   5.187   1.690   4.673 -0.2980 -0.5626  0.3447
   31CHL1  H26A 3468   5.184   1.657   4.779 -1.0591  1.0471  0.8585
   31CHL1  H26B 3469   5.088   1.741   4.666 -1.7008 -3.0677  0.9653
   31CHL1  H26C 3470   5.180   1.600   4.609  0.1255  0.3660 -1.0734
   31CHL1   C27 3471   5.256   1.860   4.501 -0.1310 -0.3012  0.6231
   31CHL1  H27A 3472   5.238   1.784   4.422 -0.1449  1.3518 -1.0232
   31CHL1  H27B 3473   5.154   1.906   4.505  0.2253  0.6599 -0.6404
   31CHL1  H27C 3474   5.335   1.932   4.471 -1.2090  0.5098 -0.3697
   32CHL1    C3 3475   1.129   2.060   5.946  0.2449  0.8402 -0.4312
   32CHL1    H3 3476   1.155   1.966   5.894  1.1274  0.9689 -0.2464
   32CHL1    O3 3477   1.162   2.051   6.084 -0.0567  0.3437  0.3644
   32CHL1   H3' 3478   1.135   1.961   6.102 -0.4595  0.8524  2.4763
   32CHL1    C4 3479   1.217   2.168   5.871 -0.1187  0.2099  0.8092
   32CHL1   H4A 3480   1.207   2.263   5.927  2.3831  0.7607  0.4295
   32CHL1   H4B 3481   1.322   2.134   5.886 -0.2074 -0.8389 -0.7023
   32CHL1    C5 3482   1.181   2.188   5.722 -0.3207  0.3912  0.9148
   32CHL1    C6 3483   1.277   2.202   5.622  0.1616  0.1811 -0.6133
   32CHL1    H6 3484   1.379   2.202   5.663  0.0669 -2.2693 -0.2570
   32CHL1    C7 3485   1.249   2.225   5.480 -0.1698  0.1518 -0.4107
   32CHL1   H7A 3486   1.305   2.310   5.435  1.9019 -1.1169 -0.3989
   32CHL1   H7B 3487   1.279   2.142   5.412  0.4537  2.2686 -2.8903
   32CHL1    C8 3488   1.099   2.257   5.454 -0.0383  0.1739  0.7346
   32CHL1    H8 3489   1.076   2.363   5.476 -0.8566  1.3492 -4.4723
   32CHL1   C14 3490   1.065   2.226   5.311  0.1810  0.2644  0.2985
   32CHL1   H14 3491   1.067   2.115   5.298 -4.4956 -0.2216  1.8759
   32CHL1   C15 3492   1.155   2.282   5.209 -0.3346  0.0814  0.4148
   32CHL1  H15A 3493   1.170   2.390   5.233  1.0114  0.2686 -1.0767
   32CHL1  H15B 3494   1.259   2.245   5.215 -0.7515 -1.2946 -0.4518
   32CHL1   C16 3495   1.087   2.267   5.072 -0.4464  0.1181  0.0886
   32CHL1  H16A 3496   1.097   2.360   5.013  0.1291  1.2921  1.9573
   32CHL1  H16B 3497   1.135   2.182   5.020 -2.5905 -1.1581  0.0453
   32CHL1   C17 3498   0.942   2.236   5.108 -0.5580  0.1768  0.4064
   32CHL1   H17 3499   0.943   2.125   5.099  1.7290  0.1690  0.1173
   32CHL1   C13 3500   0.926   2.266   5.265  0.1448 -0.3970  0.2431
   32CHL1   C18 3501   0.907   2.422   5.284 -0.0634  0.3213  0.2760
   32CHL1  H18A 3502   0.914   2.471   5.383  1.0898  1.1143 -0.1699
   32CHL1  H18B 3503   0.973   2.479   5.216 -1.7727  1.5797 -0.3845
   32CHL1  H18C 3504   0.805   2.455   5.258 -0.4807  0.7671  2.3177
   32CHL1   C12 3505   0.822   2.179   5.353  0.0896 -0.4403  0.4326
   32CHL1  H12A 3506   0.723   2.224   5.327  1.0990  0.6575 -1.7663
   32CHL1  H12B 3507   0.828   2.073   5.322 -0.4453 -0.4457  0.3266
   32CHL1   C11 3508   0.848   2.204   5.500 -0.1470  0.5608  0.4474
   32CHL1  H11A 3509   0.822   2.312   5.510 -2.7020 -0.0593  1.1029
   32CHL1  H11B 3510   0.767   2.157   5.560 -0.9153 -0.9595 -1.6848
   32CHL1    C9 3511   1.001   2.180   5.540 -0.3503  0.0868  0.7934
   32CHL1    H9 3512   1.025   2.074   5.514  0.5930  0.5555 -0.3368
   32CHL1   C10 3513   1.024   2.200   5.692  0.1491 -0.4741  0.2082
   32CHL1   C19 3514   0.987   2.341   5.735 -0.0280 -0.4796 -0.5838
   32CHL1  H19A 3515   0.882   2.369   5.713 -0.1167  0.3998  0.8304
   32CHL1  H19B 3516   1.011   2.364   5.841  0.1740  1.0190 -0.9352
   32CHL1  H19C 3517   1.046   2.410   5.671  1.6049 -1.6629 -0.4204
   32CHL1    C1 3518   0.935   2.101   5.778 -0.9859 -0.3381  0.2684
   32CHL1   H1A 3519   0.831   2.141   5.780 -0.3488  1.3443  0.7660
   32CHL1   H1B 3520   0.946   2.001   5.730  0.8697 -0.5410  1.0404
   32CHL1    C2 3521   0.987   2.091   5.929  0.5768 -0.0476  0.5699
   32CHL1   H2A 3522   0.927   2.005   5.968  0.2994 -0.1046  0.0308
   32CHL1   H2B 3523   0.946   2.167   5.998 -1.0727 -1.4349  1.1932
   32CHL1   C20 3524   0.844   2.298   5.007  0.6366  0.3170 -0.1666
   32CHL1   H20 3525   0.847   2.407   5.030 -2.6623  0.0829  2.0437
   32CHL1   C21 3526   0.701   2.248   5.034  0.4240 -0.0970 -0.7556
   32CHL1  H21A 3527   0.695   2.141   5.061 -0.4147  0.2455  0.4923
   32CHL1  H21B 3528   0.626   2.256   4.952 -1.0943 -3.4426  0.1231
   32CHL1  H21C 3529   0.661   2.285   5.131  0.4162 -3.5889  0.7199
   32CHL1   C22 3530   0.868   2.273   4.857  0.5397  0.3153  0.3312
   32CHL1  H22A 3531   0.977   2.265   4.834  0.7170 -3.2225  1.7883
   32CHL1  H22B 3532   0.842   2.165   4.851 -0.3911  0.6109 -1.2763
   32CHL1   C23 3533   0.795   2.365   4.761 -0.1752  0.4183  0.7386
   32CHL1  H23A 3534   0.687   2.343   4.777 -0.2770  0.1016 -0.2938
   32CHL1  H23B 3535   0.822   2.471   4.777  1.3213  0.2019 -0.1618
   32CHL1   C24 3536   0.817   2.334   4.609  0.4411  0.0700  0.0755
   32CHL1  H24A 3537   0.923   2.357   4.586  0.2215  0.9600 -0.1150
   32CHL1  H24B 3538   0.789   2.230   4.584 -1.3207  0.6139 -0.4352
   32CHL1   C25 3539   0.748   2.435   4.510  0.0328 -0.2746 -0.9882
   32CHL1   H25 3540   0.781   2.538   4.534 -0.1491 -0.4032 -0.1618
   32CHL1   C26 3541   0.785   2.422   4.365 -0.2437 -0.3464  0.2479
   32CHL1  H26A 3542   0.784   2.524   4.321 -1.5495  0.1379  1.3483
   32CHL1  H26B 3543   0.880   2.372   4.336  0.9659  2.5881 -1.2827
   32CHL1  H26C 3544   0.706   2.368   4.308 -1.8376  2.2575 -0.1543
   32CHL1   C27 3545   0.591   2.437   4.511 -0.2635 -0.0321  0.0358
   32CHL1  H27A 3546   0.561   2.342   4.463 -1.8160  0.3271  0.2336
   32CHL1  H27B 3547   0.537   2.448   4.607  0.6664 -0.6985  0.6419
   32CHL1  H27C 3548   0.555   2.517   4.442 -0.8191 -0.0223  0.3270
   33CHL1    C3 3549   0.332   1.873   5.889 -0.1677  0.2728  0.4535
   33CHL1    H3 3550   0.234   1.898   5.843  0.6041  1.8615 -0.3943
   33CHL1    O3 3551   0.320   1.877   6.026  0.3383 -0.2690  0.2729
   33CHL1   H3' 3552   0.259   1.950   6.039  0.6767  0.0201  0.2284
   33CHL1    C4 3553   0.383   1.727   5.851  0.3307 -0.1354  0.9434
   33CHL1   H4A 3554   0.482   1.709   5.898 -0.3193  0.3645  2.5888
   33CHL1   H4B 3555   0.314   1.646   5.882  0.3893 -1.2009 -1.4789
   33CHL1    C5 3556   0.408   1.716   5.698  0.0891  0.4746  0.2446
   33CHL1    C6 3557   0.343   1.619   5.624 -0.6592 -0.3347  0.3835
   33CHL1    H6 3558   0.285   1.539   5.673  0.3965 -1.4889 -0.2106
   33CHL1    C7 3559   0.361   1.581   5.481  0.2737  0.5344  0.2941
   33CHL1   H7A 3560   0.366   1.471   5.462 -0.2793  0.8922 -2.2841
   33CHL1   H7B 3561   0.269   1.611   5.427 -0.0899 -0.6167  0.2511
   33CHL1    C8 3562   0.481   1.668   5.419 -0.0110  0.3395  0.0688
   33CHL1    H8 3563   0.569   1.612   5.456 -1.5143 -0.9424  1.9121
   33CHL1   C14 3564   0.469   1.667   5.266  0.2118  0.0159  0.3979
   33CHL1   H14 3565   0.377   1.721   5.237  1.1885  1.8076  0.5327
   33CHL1   C15 3566   0.464   1.526   5.198  0.1577 -0.1208  0.5862
   33CHL1  H15A 3567   0.553   1.473   5.239 -0.6533 -1.7953  0.2598
   33CHL1  H15B 3568   0.377   1.462   5.221 -0.5047  0.5759  0.0994
   33CHL1   C16 3569   0.493   1.559   5.044  0.5166 -1.2098  0.4650
   33CHL1  H16A 3570   0.578   1.499   5.004  0.4361 -0.3150 -1.1213
   33CHL1  H16B 3571   0.397   1.542   4.990 -0.1489  2.0881  0.4244
   33CHL1   C17 3572   0.536   1.715   5.044 -0.4586 -0.3474  0.1298
   33CHL1   H17 3573   0.443   1.774   5.030 -0.0889 -0.2893 -2.7544
   33CHL1   C13 3574   0.577   1.744   5.191 -0.6092 -0.2733 -0.6244
   33CHL1   C18 3575   0.714   1.690   5.206 -0.4723 -1.0036  0.0652
   33CHL1  H18A 3576   0.729   1.660   5.312  2.0215 -0.6506 -0.1360
   33CHL1  H18B 3577   0.734   1.596   5.150  1.9741  0.6435 -2.0316
   33CHL1  H18C 3578   0.797   1.759   5.178 -0.9884 -0.4424 -0.0936
   33CHL1   C12 3579   0.572   1.898   5.237 -0.7537  0.7878  0.0569
   33CHL1  H12A 3580   0.656   1.953   5.190  0.9031  1.0773  3.0960
   33CHL1  H12B 3581   0.473   1.946   5.221 -0.1091  1.8442 -0.8534
   33CHL1   C11 3582   0.582   1.903   5.390 -0.3819 -0.2912 -1.4545
   33CHL1  H11A 3583   0.682   1.865   5.420 -0.9579 -0.2225  0.7449
   33CHL1  H11B 3584   0.577   2.010   5.421  2.7132  0.1778 -2.1823
   33CHL1    C9 3585   0.485   1.814   5.471  0.1890  0.4879  0.4876
   33CHL1    H9 3586   0.386   1.852   5.437  0.8170 -1.1848 -3.9036
   33CHL1   C10 3587   0.502   1.817   5.627 -0.0560 -0.7530  0.1438
   33CHL1   C19 3588   0.649   1.782   5.679  0.0101 -0.2488 -0.1011
   33CHL1  H19A 3589   0.716   1.867   5.657  0.0374  0.3136  1.9216
   33CHL1  H19B 3590   0.649   1.787   5.790 -0.1936  0.0836 -0.1146
   33CHL1  H19C 3591   0.680   1.683   5.639 -1.9715 -1.1598  0.4570
   33CHL1    C1 3592   0.460   1.961   5.683 -0.2835  0.4850 -0.5885
   33CHL1   H1A 3593   0.539   2.038   5.669 -1.1231  1.7876  1.3272
   33CHL1   H1B 3594   0.369   1.985   5.624 -0.3904 -0.7654 -0.9682
   33CHL1    C2 3595   0.434   1.970   5.838 -0.1048  0.3109 -0.5561
   33CHL1   H2A 3596   0.407   2.072   5.875 -0.5527 -0.4846  1.4103
   33CHL1   H2B 3597   0.527   1.950   5.895  1.2510 -0.4318 -2.9029
   33CHL1   C20 3598   0.631   1.744   4.922  0.0180  0.7295 -0.7231
   33CHL1   H20 3599   0.721   1.679   4.934 -1.6774 -1.9222 -1.5460
   33CHL1   C21 3600   0.675   1.892   4.919  0.6278  0.0961  0.5204
   33CHL1  H21A 3601   0.724   1.927   4.826 -1.8694  1.0327 -0.5368
   33CHL1  H21B 3602   0.743   1.911   5.005 -0.7047  0.8787  1.4415
   33CHL1  H21C 3603   0.590   1.963   4.929  0.1791 -0.6668  2.9045
   33CHL1   C22 3604   0.577   1.705   4.780 -0.3034  0.2255 -0.0946
   33CHL1  H22A 3605   0.648   1.724   4.696  1.8729 -0.3979  1.5054
   33CHL1  H22B 3606   0.578   1.595   4.791  2.7951  0.2312  0.5802
   33CHL1   C23 3607   0.444   1.757   4.734  0.1572  0.1577 -0.0263
   33CHL1  H23A 3608   0.367   1.737   4.812  0.0167 -0.0347 -0.2154
   33CHL1  H23B 3609   0.439   1.866   4.714 -1.6339 -0.2611 -2.2122
   33CHL1   C24 3610   0.401   1.695   4.603 -0.0587  0.5302 -0.1074
   33CHL1  H24A 3611   0.291   1.706   4.593 -0.3726 -0.4388  1.8865
   33CHL1  H24B 3612   0.448   1.756   4.523  0.6967 -1.3324 -1.1378
   33CHL1   C25 3613   0.425   1.540   4.580  0.2435  0.1663  0.0960
   33CHL1   H25 3614   0.532   1.528   4.608  0.2692  2.1501  1.0540
   33CHL1   C26 3615   0.343   1.449   4.676 -0.4802 -0.4323 -0.4818
   33CHL1  H26A 3616   0.323   1.500   4.773 -2.2100  1.9394 -1.9799
   33CHL1  H26B 3617   0.241   1.424   4.639 -1.1766 -1.7728  2.0984
   33CHL1  H26C 3618   0.404   1.357   4.686 -1.4539 -1.0005  0.4235
   33CHL1   C27 3619   0.410   1.489   4.436 -0.5273 -0.1005 -0.8573
   33CHL1  H27A 3620   0.310   1.449   4.409  0.3712 -2.5698 -0.8209
   33CHL1  H27B 3621   0.434   1.577   4.373  1.4848  0.8646  1.1299
   33CHL1  H27C 3622   0.485   1.407   4.423 -1.3124 -0.9694 -0.0706
   34CHL1    C3 3623   2.861   4.613   6.507 -0.1027  0.3327  0.5156
   34CHL1    H3 3624   2.784   4.670   6.450  0.0774  0.0305 -0.0359
   34CHL1    O3 3625   2.822   4.602   6.645 -0.0260 -0.5216  0.8632
   34CHL1   H3' 3626   2.899   4.628   6.696  0.3916  1.3790 -0.6146
   34CHL1    C4 3627   2.896   4.478   6.442  0.1626  0.3983  0.6247
   34CHL1   H4A 3628   2.957   4.413   6.508  0.3519  0.0847  0.1461
   34CHL1   H4B 3629   2.798   4.428   6.425  0.6386 -0.5503  0.6174
   34CHL1    C5 3630   2.961   4.497   6.307  0.0478  0.7648 -0.1714
   34CHL1    C6 3631   2.901   4.451   6.195 -0.3540 -0.0699  0.9390
   34CHL1    H6 3632   2.809   4.393   6.212  0.1347 -0.8256  1.0315
   34CHL1    C7 3633   2.958   4.452   6.055 -0.2535  0.0430 -0.0361
   34CHL1   H7A 3634   2.935   4.362   5.993  0.1954 -0.5891  0.6928
   34CHL1   H7B 3635   2.914   4.538   6.000  1.8630  1.4207  0.3081
   34CHL1    C8 3636   3.113   4.473   6.063 -0.2370 -0.4221 -0.3360
   34CHL1    H8 3637   3.147   4.375   6.103 -1.7076 -2.4556 -3.6354
   34CHL1   C14 3638   3.171   4.498   5.924 -0.1202  0.0240  0.9092
   34CHL1   H14 3639   3.121   4.587   5.878  2.0318  1.2405  0.7941
   34CHL1   C15 3640   3.155   4.386   5.827  0.4482 -0.2059  0.6746
   34CHL1  H15A 3641   3.166   4.285   5.872  0.4711 -0.3953  0.2554
   34CHL1  H15B 3642   3.059   4.390   5.771  0.0509 -1.0474  1.2799
   34CHL1   C16 3643   3.269   4.407   5.728 -0.3774 -0.0803 -0.6119
   34CHL1  H16A 3644   3.322   4.309   5.728 -0.8152 -0.3421  0.6814
   34CHL1  H16B 3645   3.233   4.415   5.623 -0.1926 -0.0691 -0.6742
   34CHL1   C17 3646   3.358   4.522   5.782 -0.1653  0.1244 -0.4557
   34CHL1   H17 3647   3.318   4.619   5.746  0.3597  1.7579  2.9431
   34CHL1   C13 3648   3.313   4.524   5.931 -0.5776 -0.6548  0.5131
   34CHL1   C18 3649   3.390   4.408   6.002  0.1961 -0.2050  0.0906
   34CHL1  H18A 3650   3.490   4.453   6.019  0.1406 -0.4910  1.2647
   34CHL1  H18B 3651   3.351   4.385   6.104  1.8113  0.8483  0.9975
   34CHL1  H18C 3652   3.391   4.315   5.942  2.3626 -0.7821  0.9350
   34CHL1   C12 3653   3.341   4.653   6.010  0.3905  0.2493  0.7105
   34CHL1  H12A 3654   3.451   4.669   6.012  0.3379  0.6902  0.2928
   34CHL1  H12B 3655   3.302   4.740   5.954  0.1491  0.5897  1.3909
   34CHL1   C11 3656   3.296   4.651   6.150  0.3322  0.1888 -0.7425
   34CHL1  H11A 3657   3.355   4.583   6.216 -2.8163  0.3317  2.5705
   34CHL1  H11B 3658   3.317   4.751   6.193 -0.9697  0.5382 -0.8903
   34CHL1    C9 3659   3.151   4.594   6.158  0.6573  0.4083 -0.9837
   34CHL1    H9 3660   3.093   4.681   6.123  0.3917  0.0267 -1.4890
   34CHL1   C10 3661   3.090   4.577   6.301  0.4070 -0.3189  0.0059
   34CHL1   C19 3662   3.197   4.502   6.385  0.2261 -0.4498  0.4793
   34CHL1  H19A 3663   3.223   4.399   6.353 -1.3807 -1.1640  1.3254
   34CHL1  H19B 3664   3.291   4.559   6.396 -1.3133  2.4607 -0.1850
   34CHL1  H19C 3665   3.164   4.481   6.489 -0.1957  0.7839  0.6220
   34CHL1    C1 3666   3.056   4.709   6.367  0.5059 -0.0067  0.3354
   34CHL1   H1A 3667   3.144   4.773   6.389 -0.7303  0.7099  3.7943
   34CHL1   H1B 3668   2.993   4.764   6.295 -3.0809 -3.3934  0.5638
   34CHL1    C2 3669   2.983   4.707   6.506 -0.8285  0.2461 -0.2991
   34CHL1   H2A 3670   2.967   4.811   6.543  3.4824  1.2625 -0.7368
   34CHL1   H2B 3671   3.048   4.655   6.579 -2.1817 -3.1845 -1.3722
   34CHL1   C20 3672   3.503   4.508   5.751 -0.0128 -0.7364  0.2923
   34CHL1   H20 3673   3.554   4.440   5.823 -0.1744  0.0649  1.1874
   34CHL1   C21 3674   3.580   4.645   5.773 -0.5163 -0.1279  0.7432
   34CHL1  H21A 3675   3.549   4.728   5.706  0.1022 -0.0401  0.5611
   34CHL1  H21B 3676   3.687   4.639   5.744 -0.5468 -1.4653  0.8749
   34CHL1  H21C 3677   3.584   4.682   5.878  1.3664  0.9087  0.3579
   34CHL1   C22 3678   3.528   4.456   5.603 -0.4653  0.2789 -0.2756
   34CHL1  H22A 3679   3.639   4.459   5.596 -0.3803  0.2100  0.8565
   34CHL1  H22B 3680   3.507   4.347   5.593 -2.4086  0.5459  0.4482
   34CHL1   C23 3681   3.470   4.528   5.482 -0.8150 -0.8131 -0.1438
   34CHL1  H23A 3682   3.359   4.523   5.486 -0.9709  2.0445  1.5407
   34CHL1  H23B 3683   3.501   4.634   5.477  2.0132 -1.5555 -0.6004
   34CHL1   C24 3684   3.513   4.458   5.349 -0.1321 -0.1533 -0.2107
   34CHL1  H24A 3685   3.621   4.475   5.329 -0.0958 -1.7416 -1.5443
   34CHL1  H24B 3686   3.508   4.348   5.360  1.3985 -0.1245  1.2586
   34CHL1   C25 3687   3.422   4.498   5.236  0.2582  0.0225 -0.0105
   34CHL1   H25 3688   3.316   4.501   5.268 -0.5603 -0.1028 -2.5134
   34CHL1   C26 3689   3.446   4.643   5.193  0.7443 -0.4100  0.5234
   34CHL1  H26A 3690   3.377   4.665   5.109  1.1374 -2.1332 -0.2766
   34CHL1  H26B 3691   3.430   4.715   5.276  0.7416 -1.6079  1.5866
   34CHL1  H26C 3692   3.542   4.671   5.145 -0.2550 -1.9712 -2.6075
   34CHL1   C27 3693   3.424   4.399   5.114 -0.3601  0.2016 -0.1381
   34CHL1  H27A 3694   3.527   4.400   5.072 -0.4178 -0.5208 -0.3107
   34CHL1  H27B 3695   3.410   4.295   5.149  4.0556 -0.0887  1.4129
   34CHL1  H27C 3696   3.345   4.429   5.041  0.2992  1.5797 -0.3176
   35CHL1    C3 3697   1.335   0.425   6.016 -0.0480  0.3293  0.0326
   35CHL1    H3 3698   1.249   0.356   6.004 -1.8836  1.7280  3.7356
   35CHL1    O3 3699   1.329   0.484   6.146  0.0796  0.6910 -1.0568
   35CHL1   H3' 3700   1.275   0.433   6.206  0.9270 -0.3981 -1.1873
   35CHL1    C4 3701   1.465   0.341   5.999 -0.4210  0.1507  0.0155
   35CHL1   H4A 3702   1.554   0.397   6.034 -0.4922 -1.0954  2.4334
   35CHL1   H4B 3703   1.455   0.255   6.069  0.7833  0.1249  0.1750
   35CHL1    C5 3704   1.493   0.291   5.853  0.8031  0.1165 -0.3793
   35CHL1    C6 3705   1.523   0.163   5.837  0.6727  0.9358 -0.3073
   35CHL1    H6 3706   1.534   0.095   5.923  2.1748  0.1729 -1.0661
   35CHL1    C7 3707   1.562   0.109   5.704  0.4578  0.8216 -0.4098
   35CHL1   H7A 3708   1.656   0.050   5.714  0.4553  1.1649  2.3577
   35CHL1   H7B 3709   1.489   0.037   5.662 -0.2250  0.9532  0.5391
   35CHL1    C8 3710   1.586   0.218   5.595  0.7303  0.5673 -0.9013
   35CHL1    H8 3711   1.683   0.266   5.624  0.2166 -0.2790  2.7141
   35CHL1   C14 3712   1.583   0.149   5.456 -0.0540 -0.3713  0.3249
   35CHL1   H14 3713   1.484   0.102   5.439 -1.3604  3.0594 -2.6897
   35CHL1   C15 3714   1.684   0.032   5.420  0.3793 -0.2267 -0.4526
   35CHL1  H15A 3715   1.789   0.058   5.446  0.3812 -1.2772  0.6845
   35CHL1  H15B 3716   1.672  -0.070   5.464 -3.2030 -0.1400 -0.9900
   35CHL1   C16 3717   1.671   0.028   5.269 -0.2507 -0.2034  0.1456
   35CHL1  H16A 3718   1.774   0.023   5.227 -0.6993 -0.2764 -0.9717
   35CHL1  H16B 3719   1.616  -0.061   5.231  0.2278 -0.5505  0.2502
   35CHL1   C17 3720   1.600   0.165   5.228  0.2846 -0.1575 -0.2536
   35CHL1   H17 3721   1.495   0.131   5.211  0.2372 -0.5514  0.7816
   35CHL1   C13 3722   1.605   0.254   5.351  0.4008  0.1894  0.2538
   35CHL1   C18 3723   1.747   0.313   5.363 -0.4562 -0.3948  0.1975
   35CHL1  H18A 3724   1.758   0.386   5.446  3.2922  0.9405 -1.2501
   35CHL1  H18B 3725   1.819   0.233   5.390 -1.2993 -1.5230 -0.7664
   35CHL1  H18C 3726   1.796   0.354   5.272  1.6489 -0.0744  1.4170
   35CHL1   C12 3727   1.495   0.365   5.358  0.0203 -0.3750 -0.3605
   35CHL1  H12A 3728   1.525   0.443   5.285 -1.3684  0.3562 -0.1905
   35CHL1  H12B 3729   1.396   0.332   5.320 -1.0678  3.4258 -1.2301
   35CHL1   C11 3730   1.490   0.434   5.492  0.0113  0.1658 -0.4990
   35CHL1  H11A 3731   1.584   0.493   5.500  1.3548 -1.9739  0.2511
   35CHL1  H11B 3732   1.399   0.495   5.506 -1.4400 -1.7564 -1.1242
   35CHL1    C9 3733   1.479   0.331   5.604  0.4005  0.3448 -0.3745
   35CHL1    H9 3734   1.377   0.286   5.603  0.2390  0.7127 -0.5497
   35CHL1   C10 3735   1.479   0.390   5.745 -1.5896 -0.3669  0.2710
   35CHL1   C19 3736   1.598   0.489   5.761 -0.2730  0.4363 -0.0849
   35CHL1  H19A 3737   1.696   0.449   5.726 -1.0027 -0.0799 -1.6051
   35CHL1  H19B 3738   1.580   0.585   5.708  0.9741  1.0109  0.4943
   35CHL1  H19C 3739   1.598   0.531   5.864 -3.6501  1.1663 -0.2551
   35CHL1    C1 3740   1.349   0.464   5.766  0.2300  0.1534 -0.5282
   35CHL1   H1A 3741   1.352   0.550   5.696 -1.2102  0.6038 -0.0782
   35CHL1   H1B 3742   1.260   0.403   5.740 -0.5621  1.7796 -1.8201
   35CHL1    C2 3743   1.333   0.531   5.905  0.6197 -0.3492 -0.4235
   35CHL1   H2A 3744   1.237   0.587   5.898  1.5080  1.1179 -1.2833
   35CHL1   H2B 3745   1.425   0.591   5.920 -0.3943  1.0626  0.3906
   35CHL1   C20 3746   1.652   0.220   5.089  0.0681 -0.2642 -0.5554
   35CHL1   H20 3747   1.758   0.245   5.110  0.3800 -2.0146  0.1134
   35CHL1   C21 3748   1.575   0.347   5.038 -1.2380  0.5616  0.6757
   35CHL1  H21A 3749   1.589   0.352   4.928 -0.8663 -2.7156  0.4736
   35CHL1  H21B 3750   1.604   0.439   5.092  0.4282  0.1766  0.4680
   35CHL1  H21C 3751   1.469   0.314   5.051 -1.0516 -0.1508  0.4578
   35CHL1   C22 3752   1.666   0.124   4.974 -0.2055 -0.0579  0.4729
   35CHL1  H22A 3753   1.699   0.178   4.883  0.4980 -2.0549 -0.5322
   35CHL1  H22B 3754   1.749   0.050   4.981 -0.5892 -0.7454 -1.4943
   35CHL1   C23 3755   1.539   0.039   4.947  0.3038 -0.4397 -0.0484
   35CHL1  H23A 3756   1.538  -0.053   5.008 -0.6626 -0.1694  0.3696
   35CHL1  H23B 3757   1.452   0.096   4.987  0.2202 -1.2785  0.9947
   35CHL1   C24 3758   1.513   0.018   4.800  0.4255  0.1964  0.1244
   35CHL1  H24A 3759   1.495   0.117   4.752  2.3492  0.0627 -0.9919
   35CHL1  H24B 3760   1.601  -0.031   4.752 -0.1427 -0.2563 -0.4814
   35CHL1   C25 3761   1.396  -0.078   4.769 -0.0158  0.1231 -0.1999
   35CHL1   H25 3762   1.421  -0.178   4.811 -0.3486  0.2893  0.4061
   35CHL1   C26 3763   1.267  -0.032   4.833 -0.7222  0.8425  0.3552
   35CHL1  H26A 3764   1.176  -0.081   4.792  0.4617 -0.5854 -0.6710
   35CHL1  H26B 3765   1.272  -0.051   4.942 -1.5833  4.1357  1.0785
   35CHL1  H26C 3766   1.260   0.077   4.815 -0.8397  0.8140  0.2234
   35CHL1   C27 3767   1.387  -0.089   4.614  0.3945  0.6839 -0.3914
   35CHL1  H27A 3768   1.289  -0.132   4.586  0.8762 -1.2809  0.7519
   35CHL1  H27B 3769   1.391   0.016   4.579  0.4519  0.6372 -0.5267
   35CHL1  H27C 3770   1.471  -0.152   4.578 -0.2365 -0.0116 -0.6705
   36CHL1    C3 3771   6.162   2.751   6.286 -0.0708 -0.5985 -0.8236
   36CHL1    H3 3772   6.060   2.706   6.292 -0.9905  1.6134  1.6565
   36CHL1    O3 3773   6.232   2.722   6.408 -0.0891  0.4680  0.6090
   36CHL1   H3' 3774   6.319   2.754   6.386 -0.6506  0.9055 -1.1478
   36CHL1    C4 3775   6.227   2.675   6.167 -0.4929 -0.0861 -0.1405
   36CHL1   H4A 3776   6.333   2.709   6.162  0.0840 -1.5944  0.9760
   36CHL1   H4B 3777   6.230   2.567   6.194  0.7996 -0.2359 -0.8181
   36CHL1    C5 3778   6.177   2.703   6.031  0.9424  0.4519 -0.3819
   36CHL1    C6 3779   6.143   2.598   5.949  0.1768 -0.0356 -0.5072
   36CHL1    H6 3780   6.163   2.495   5.982 -1.1390  0.2517  1.3902
   36CHL1    C7 3781   6.071   2.615   5.817  0.1421  0.1453  0.4143
   36CHL1   H7A 3782   6.119   2.555   5.737 -0.0313 -0.1004  0.4936
   36CHL1   H7B 3783   5.963   2.591   5.827 -0.0372  1.0577  0.6829
   36CHL1    C8 3784   6.082   2.759   5.768 -0.1319  0.7495  0.6548
   36CHL1    H8 3785   6.183   2.781   5.729 -0.0772 -0.0388  0.3271
   36CHL1   C14 3786   5.979   2.767   5.659 -0.2607 -0.1701 -0.4301
   36CHL1   H14 3787   5.873   2.757   5.692  0.1940 -1.6678  0.6892
   36CHL1   C15 3788   5.990   2.669   5.542 -0.9010  0.7773 -0.0340
   36CHL1  H15A 3789   6.097   2.646   5.523 -2.0485 -3.1017 -3.0966
   36CHL1  H15B 3790   5.931   2.577   5.561 -3.8549  2.0485 -2.2495
   36CHL1   C16 3791   5.938   2.739   5.410 -0.0800  0.0129 -0.5806
   36CHL1  H16A 3792   6.017   2.752   5.334  0.5518 -0.8162 -0.0878
   36CHL1  H16B 3793   5.843   2.699   5.367 -1.2803  0.2049  1.7065
   36CHL1   C17 3794   5.894   2.878   5.466 -0.4795  0.2176 -0.2031
   36CHL1   H17 3795   5.794   2.853   5.508 -0.3089 -1.0341 -0.4923
   36CHL1   C13 3796   5.978   2.905   5.593 -0.2780 -0.3845 -0.4131
   36CHL1   C18 3797   6.111   2.950   5.541 -0.4244 -0.6855 -0.4402
   36CHL1  H18A 3798   6.184   2.964   5.623  2.4409 -3.1410 -2.3690
   36CHL1  H18B 3799   6.147   2.878   5.464 -2.1614  0.5005 -2.4775
   36CHL1  H18C 3800   6.102   3.052   5.497 -0.0451 -0.2396  0.4944
   36CHL1   C12 3801   5.931   3.004   5.701 -0.1386 -0.3529 -0.3159
   36CHL1  H12A 3802   5.936   3.109   5.665 -1.4904 -0.7110 -1.6633
   36CHL1  H12B 3803   5.823   2.996   5.727 -0.1397  0.5005 -0.0114
   36CHL1   C11 3804   6.009   2.996   5.833 -0.0202  0.2012 -0.9060
   36CHL1  H11A 3805   6.099   3.061   5.824  1.0024 -1.2049 -1.1740
   36CHL1  H11B 3806   5.946   3.034   5.917  0.7059 -0.6360  0.0405
   36CHL1    C9 3807   6.050   2.853   5.885  0.1671  0.2951  1.1756
   36CHL1    H9 3808   5.958   2.809   5.929  1.1206 -1.8942  1.0628
   36CHL1   C10 3809   6.144   2.849   6.008 -0.0341  0.8448  0.2420
   36CHL1   C19 3810   6.283   2.913   5.974 -0.1161  0.2076  0.3021
   36CHL1  H19A 3811   6.342   2.858   5.898  0.8627  0.3947  0.9107
   36CHL1  H19B 3812   6.261   3.017   5.942  0.5266  0.0506 -0.6926
   36CHL1  H19C 3813   6.358   2.913   6.056  0.5160 -0.0672 -0.2713
   36CHL1    C1 3814   6.075   2.923   6.127 -0.3089 -0.1721  0.0705
   36CHL1   H1A 3815   6.044   3.026   6.101 -1.3939 -0.3868  0.4330
   36CHL1   H1B 3816   5.977   2.870   6.134 -1.9305  2.6100 -0.1258
   36CHL1    C2 3817   6.155   2.904   6.259 -0.7355 -0.2133  0.5136
   36CHL1   H2A 3818   6.103   2.946   6.347  0.2306  0.8157  0.6237
   36CHL1   H2B 3819   6.258   2.947   6.261 -0.4101 -0.9046 -0.4229
   36CHL1   C20 3820   5.864   2.997   5.377  0.2113  0.1371  0.3104
   36CHL1   H20 3821   5.852   3.084   5.445 -0.6573  0.4906 -0.2696
   36CHL1   C21 3822   5.721   2.963   5.310  0.0503 -0.2617 -0.2055
   36CHL1  H21A 3823   5.730   2.877   5.241  0.4722 -0.1976 -0.2381
   36CHL1  H21B 3824   5.677   3.051   5.259  0.3146 -0.0239 -0.0279
   36CHL1  H21C 3825   5.657   2.931   5.395  0.5909  2.1792  1.2330
   36CHL1   C22 3826   5.975   3.022   5.261  0.3531 -0.0277  0.5372
   36CHL1  H22A 3827   6.079   3.041   5.295  0.5384  1.5046 -0.7745
   36CHL1  H22B 3828   5.969   2.938   5.190  1.7692  0.1419  0.2059
   36CHL1   C23 3829   5.931   3.148   5.180 -0.1934 -0.1876 -0.5691
   36CHL1  H23A 3830   5.826   3.127   5.152  0.4680 -3.5505 -1.0792
   36CHL1  H23B 3831   5.945   3.233   5.249 -1.4836  1.4302 -2.2037
   36CHL1   C24 3832   6.004   3.166   5.040 -0.2703 -0.5456 -0.1283
   36CHL1  H24A 3833   6.114   3.169   5.052 -0.3141  0.7507  0.0695
   36CHL1  H24B 3834   5.984   3.074   4.981  0.7469 -0.6941 -0.2499
   36CHL1   C25 3835   5.964   3.294   4.954 -0.4090  0.5630  0.5153
   36CHL1   H25 3836   5.854   3.294   4.938 -0.3804 -0.2333  0.2912
   36CHL1   C26 3837   5.986   3.433   5.011 -0.4586 -0.2037 -0.0294
   36CHL1  H26A 3838   5.929   3.446   5.106 -0.4688  1.3458 -0.2241
   36CHL1  H26B 3839   6.093   3.454   5.029 -0.7589  0.4372  1.0660
   36CHL1  H26C 3840   5.954   3.512   4.939  1.4778  1.1552  0.5209
   36CHL1   C27 3841   6.023   3.275   4.806  0.4630  0.2390 -0.8390
   36CHL1  H27A 3842   5.991   3.350   4.730  1.1061  0.1517 -1.2041
   36CHL1  H27B 3843   6.132   3.295   4.796  0.8626 -1.1607  0.3391
   36CHL1  H27C 3844   6.001   3.170   4.778 -0.8277 -0.4162  2.2175
   37CHL1    C3 3845   6.633   0.634   6.439 -0.1596 -0.1862 -0.1657
   37CHL1    H3 3846   6.681   0.725   6.396  1.7127 -1.4351 -0.8397
   37CHL1    O3 3847   6.611   0.663   6.575  0.3720  0.4409  0.4144
   37CHL1   H3' 3848   6.545   0.599   6.602 -0.3873  0.1590 -1.8705
   37CHL1    C4 3849   6.502   0.598   6.361  0.0367  0.0873  0.9149
   37CHL1   H4A 3850   6.455   0.515   6.418 -0.0124 -0.6976 -0.2537
   37CHL1   H4B 3851   6.433   0.686   6.357  1.4467  1.1654 -1.2729
   37CHL1    C5 3852   6.529   0.561   6.217 -0.4551  0.5562 -0.6223
   37CHL1    C6 3853   6.464   0.618   6.114 -0.0800  0.4718  0.1783
   37CHL1    H6 3854   6.385   0.693   6.133 -1.0899 -0.7412  0.8706
   37CHL1    C7 3855   6.489   0.566   5.973  0.8689  0.0994  0.0496
   37CHL1   H7A 3856   6.396   0.556   5.914 -1.0845 -1.8524  3.2138
   37CHL1   H7B 3857   6.544   0.646   5.918 -0.6630  0.7525 -0.5915
   37CHL1    C8 3858   6.564   0.434   5.962  0.0551  0.1723  0.9791
   37CHL1    H8 3859   6.489   0.356   5.987  2.7435 -3.0980 -0.4031
   37CHL1   C14 3860   6.615   0.410   5.819  0.9503 -0.4016 -0.0851
   37CHL1   H14 3861   6.694   0.488   5.814 -0.9597  1.6618  0.0881
   37CHL1   C15 3862   6.525   0.436   5.694 -0.2691 -0.2372 -0.0014
   37CHL1  H15A 3863   6.431   0.378   5.708 -1.2434  1.1035 -0.7224
   37CHL1  H15B 3864   6.478   0.536   5.688 -0.2499 -0.3103 -1.8004
   37CHL1   C16 3865   6.604   0.375   5.578  0.0502  0.3752  0.1366
   37CHL1  H16A 3866   6.546   0.304   5.514  1.2212  0.8488 -1.5210
   37CHL1  H16B 3867   6.639   0.458   5.513 -1.4832 -0.2134 -1.5149
   37CHL1   C17 3868   6.717   0.281   5.644  0.2754 -0.2548  0.4629
   37CHL1   H17 3869   6.815   0.332   5.641  0.1491 -0.0340  0.0696
   37CHL1   C13 3870   6.686   0.275   5.798  0.4444 -0.4407  0.3989
   37CHL1   C18 3871   6.589   0.155   5.829 -0.2796  0.8764 -0.1729
   37CHL1  H18A 3872   6.640   0.057   5.821 -0.4687  0.6842  0.7919
   37CHL1  H18B 3873   6.559   0.148   5.936 -0.6063 -2.2020 -0.3740
   37CHL1  H18C 3874   6.505   0.156   5.757 -0.1762 -0.5383 -0.3358
   37CHL1   C12 3875   6.808   0.274   5.893 -0.0440 -0.1278  0.3194
   37CHL1  H12A 3876   6.866   0.179   5.888 -1.0030 -0.7072  0.0033
   37CHL1  H12B 3877   6.876   0.360   5.870 -1.0676  0.9890  1.3555
   37CHL1   C11 3878   6.771   0.296   6.038 -0.1179 -0.3044 -0.3969
   37CHL1  H11A 3879   6.715   0.203   6.059  0.9910 -0.7576  0.6621
   37CHL1  H11B 3880   6.862   0.299   6.102 -0.8067 -2.7390  0.7876
   37CHL1    C9 3881   6.681   0.427   6.056 -0.3438  0.4115 -0.9777
   37CHL1    H9 3882   6.741   0.517   6.030  1.8948 -0.2921  1.3582
   37CHL1   C10 3883   6.640   0.452   6.205 -0.6844 -0.4204  0.0626
   37CHL1   C19 3884   6.587   0.320   6.264 -0.8298 -0.0043  0.1773
   37CHL1  H19A 3885   6.678   0.257   6.269 -0.5249  0.3968 -0.2480
   37CHL1  H19B 3886   6.553   0.336   6.369  3.7009  2.5082  1.5342
   37CHL1  H19C 3887   6.506   0.274   6.204 -2.7091 -0.3964  2.8025
   37CHL1    C1 3888   6.767   0.494   6.285 -0.3417  0.1607 -0.0297
   37CHL1   H1A 3889   6.844   0.414   6.278 -1.8748 -1.3867  0.1732
   37CHL1   H1B 3890   6.804   0.588   6.239 -3.7306  0.9732 -1.3947
   37CHL1    C2 3891   6.731   0.523   6.432 -0.1053  0.1998 -0.5865
   37CHL1   H2A 3892   6.823   0.544   6.491 -0.3971 -0.4669  0.1240
   37CHL1   H2B 3893   6.677   0.438   6.479 -0.7182  0.6145 -0.5376
   37CHL1   C20 3894   6.739   0.157   5.571  0.0583  0.2358  0.8331
   37CHL1   H20 3895   6.648   0.093   5.569 -0.7493  1.3452 -0.2235
   37CHL1   C21 3896   6.850   0.068   5.634  0.7966  0.3138  0.0163
   37CHL1  H21A 3897   6.829   0.034   5.738  0.0212 -1.3470 -0.6446
   37CHL1  H21B 3898   6.940   0.132   5.621  1.0900  0.0167  0.5637
   37CHL1  H21C 3899   6.865  -0.030   5.585  0.2722  0.1202  0.2333
   37CHL1   C22 3900   6.785   0.186   5.423  0.0856 -0.0631 -0.1064
   37CHL1  H22A 3901   6.714   0.252   5.368 -0.8856 -0.9177  0.0892
   37CHL1  H22B 3902   6.885   0.233   5.410  0.4078 -0.5907  0.4351
   37CHL1   C23 3903   6.788   0.063   5.332  0.3006  0.1879 -0.0037
   37CHL1  H23A 3904   6.875  -0.004   5.348 -1.3715 -2.9127 -2.5458
   37CHL1  H23B 3905   6.707  -0.010   5.357 -2.4139  2.9632 -0.1023
   37CHL1   C24 3906   6.785   0.082   5.182  0.0084 -0.6382  0.2397
   37CHL1  H24A 3907   6.699   0.149   5.157  2.4114  2.4402 -0.3877
   37CHL1  H24B 3908   6.873   0.141   5.149 -0.4412 -0.5614 -0.8847
   37CHL1   C25 3909   6.784  -0.052   5.107  0.2964 -0.4456 -0.7779
   37CHL1   H25 3910   6.850  -0.121   5.164  0.3208  1.2909  1.4129
   37CHL1   C26 3911   6.637  -0.119   5.106  0.4179 -0.1573  0.3471
   37CHL1  H26A 3912   6.588  -0.115   5.205 -1.8688  0.1417 -0.7341
   37CHL1  H26B 3913   6.563  -0.077   5.034 -0.3838 -1.4670  0.3710
   37CHL1  H26C 3914   6.660  -0.225   5.084 -0.5726 -0.3321  0.1016
   37CHL1   C27 3915   6.829  -0.045   4.953 -0.2017 -0.4156 -0.0295
   37CHL1  H27A 3916   6.815  -0.144   4.906 -1.8945  0.3943 -1.3197
   37CHL1  H27B 3917   6.770   0.027   4.893 -3.9122 -2.9542  0.3010
   37CHL1  H27C 3918   6.932  -0.003   4.957 -1.3588  2.6395  0.3500
   38CHL1    C3 3919   1.613   1.929   5.656 -0.3703  0.4538  0.5547
   38CHL1    H3 3920   1.679   2.015   5.632 -1.4880  1.0919 -0.3432
   38CHL1    O3 3921   1.547   1.947   5.782 -0.4705 -0.4257 -0.1031
   38CHL1   H3' 3922   1.553   1.861   5.825  1.4750  0.3321  1.3203
   38CHL1    C4 3923   1.495   1.919   5.565  0.2713  0.3494 -0.0492
   38CHL1   H4A 3924   1.441   1.831   5.605  1.9764 -0.2091  1.1291
   38CHL1   H4B 3925   1.431   2.010   5.565 -1.6110 -0.8332 -2.8585
   38CHL1    C5 3926   1.543   1.886   5.424 -0.0665  0.3057 -0.1067
   38CHL1    C6 3927   1.510   1.972   5.324 -0.7088  0.5109  0.1280
   38CHL1    H6 3928   1.455   2.066   5.338  1.0058  1.5932 -0.0766
   38CHL1    C7 3929   1.550   1.937   5.180  0.3339 -0.2208 -1.3064
   38CHL1   H7A 3930   1.466   1.955   5.111  0.4929  0.6307 -1.2780
   38CHL1   H7B 3931   1.635   2.002   5.150  0.5705 -0.0772 -0.3610
   38CHL1    C8 3932   1.598   1.795   5.156 -0.0371  0.2590  0.3277
   38CHL1    H8 3933   1.516   1.720   5.149  0.3620 -0.2623  1.0622
   38CHL1   C14 3934   1.668   1.782   5.015 -0.1105  0.1429  0.2384
   38CHL1   H14 3935   1.754   1.849   5.035 -0.5612  0.6947  0.3473
   38CHL1   C15 3936   1.593   1.828   4.893  0.6527 -0.3293 -0.9246
   38CHL1  H15A 3937   1.490   1.786   4.892  0.6631 -0.3549 -1.2108
   38CHL1  H15B 3938   1.591   1.939   4.898  4.0130 -0.2436  1.1862
   38CHL1   C16 3939   1.677   1.774   4.781 -0.0238  0.4180 -0.7015
   38CHL1  H16A 3940   1.619   1.743   4.692 -0.3174 -0.7961 -0.1079
   38CHL1  H16B 3941   1.750   1.849   4.743 -0.5933  2.1512  1.4312
   38CHL1   C17 3942   1.773   1.666   4.848 -0.2118 -0.7889 -0.3315
   38CHL1   H17 3943   1.871   1.715   4.864 -0.3471 -0.7079  0.3000
   38CHL1   C13 3944   1.719   1.640   4.987  0.4567  0.3645  0.1133
   38CHL1   C18 3945   1.613   1.534   4.986  0.4096 -0.3201  0.1258
   38CHL1  H18A 3946   1.556   1.512   5.078 -0.3874 -0.8828 -0.4897
   38CHL1  H18B 3947   1.541   1.543   4.901  0.0531 -0.0946  0.4470
   38CHL1  H18C 3948   1.681   1.451   4.955  1.5291  0.3237  0.7929
   38CHL1   C12 3949   1.818   1.604   5.099 -0.8443 -0.1172  0.2040
   38CHL1  H12A 3950   1.844   1.496   5.087 -2.6053 -0.3976 -1.4835
   38CHL1  H12B 3951   1.910   1.666   5.091  0.5214 -1.8086  1.8650
   38CHL1   C11 3952   1.763   1.618   5.240  0.5626 -0.8712 -0.3962
   38CHL1  H11A 3953   1.687   1.538   5.252 -2.0954  1.5860  0.2267
   38CHL1  H11B 3954   1.850   1.601   5.307  0.3049  2.4224  0.9915
   38CHL1    C9 3955   1.689   1.749   5.269  0.3591 -0.6884 -0.1403
   38CHL1    H9 3956   1.774   1.822   5.274 -1.4307  1.4538  1.9681
   38CHL1   C10 3957   1.627   1.762   5.408 -0.3274  0.6246 -0.3511
   38CHL1   C19 3958   1.540   1.623   5.429  0.4453 -0.1826  0.2071
   38CHL1  H19A 3959   1.484   1.625   5.525  1.5373  0.5000  0.8570
   38CHL1  H19B 3960   1.474   1.603   5.343 -1.0828  0.0517  1.2903
   38CHL1  H19C 3961   1.616   1.543   5.445  1.0727  0.5109  0.7839
   38CHL1    C1 3962   1.741   1.773   5.515 -0.0748 -0.3366  0.2365
   38CHL1   H1A 3963   1.787   1.671   5.512  0.2366 -0.2379  1.3108
   38CHL1   H1B 3964   1.806   1.853   5.474  0.5878 -2.2969 -2.8597
   38CHL1    C2 3965   1.691   1.802   5.656  0.7525  0.7041 -0.0855
   38CHL1   H2A 3966   1.772   1.810   5.732 -0.6779 -3.2552  2.0965
   38CHL1   H2B 3967   1.629   1.716   5.687  1.9548 -0.0203  0.4064
   38CHL1   C20 3968   1.809   1.554   4.750  0.1749 -0.5512  0.3204
   38CHL1   H20 3969   1.718   1.490   4.738  0.3073 -0.5712 -0.7256
   38CHL1   C21 3970   1.924   1.473   4.797 -0.9637 -0.0655 -0.5811
   38CHL1  H21A 3971   1.900   1.414   4.887  1.1899  1.4030  1.0598
   38CHL1  H21B 3972   2.007   1.538   4.833 -1.8290  0.4595  0.5507
   38CHL1  H21C 3973   1.961   1.408   4.715 -0.4295  1.8040 -1.9158
   38CHL1   C22 3974   1.835   1.602   4.603 -0.0734 -0.4907 -0.2439
   38CHL1  H22A 3975   1.839   1.511   4.540 -2.5047 -0.3950 -0.6231
   38CHL1  H22B 3976   1.748   1.656   4.562 -0.4011 -0.2902  0.6991
   38CHL1   C23 3977   1.955   1.700   4.591 -0.6348 -0.2492  0.5061
   38CHL1  H23A 3978   1.938   1.792   4.651 -1.1646  0.2800 -0.4411
   38CHL1  H23B 3979   2.050   1.648   4.617 -0.2654  0.7257  1.1672
   38CHL1   C24 3980   1.966   1.753   4.449 -0.6477 -0.7762 -0.2428
   38CHL1  H24A 3981   2.006   1.676   4.379 -0.7350 -1.1751  0.1399
   38CHL1  H24B 3982   1.866   1.780   4.408 -1.2088 -1.8613  0.3627
   38CHL1   C25 3983   2.059   1.877   4.430 -0.3208 -0.0918 -0.5092
   38CHL1   H25 3984   2.012   1.945   4.505 -0.7171 -1.4850  0.5337
   38CHL1   C26 3985   2.205   1.855   4.465 -0.6026  0.3424 -0.0962
   38CHL1  H26A 3986   2.254   1.767   4.417 -0.3822  0.4244 -0.0244
   38CHL1  H26B 3987   2.262   1.945   4.431 -0.6922  0.5885  0.4056
   38CHL1  H26C 3988   2.219   1.859   4.575 -0.5646  1.8229 -0.1291
   38CHL1   C27 3989   2.035   1.937   4.287  0.7213 -0.1298 -0.0962
   38CHL1  H27A 3990   1.930   1.952   4.255  0.9705 -1.5171 -1.7335
   38CHL1  H27B 3991   2.092   2.033   4.278  1.0682 -0.1690  1.4963
   38CHL1  H27C 3992   2.062   1.861   4.210  1.6970 -1.2105  1.2670
   39CHL1    C3 3993   4.010   1.932   6.551 -0.0865  0.2260  0.8157
   39CHL1    H3 3994   4.113   1.892   6.538  0.2963  1.8226 -1.9785
   39CHL1    O3 3995   4.005   1.961   6.691 -0.3085 -0.0373  0.0526
   39CHL1   H3' 3996   4.037   2.051   6.699 -0.2132 -0.0217 -0.5154
   39CHL1    C4 3997   3.994   2.054   6.455 -0.1113 -0.1668 -0.6673
   39CHL1   H4A 3998   3.901   2.115   6.455 -0.3430 -0.5175 -0.8808
   39CHL1   H4B 3999   4.077   2.124   6.480 -0.0095 -0.6782  0.4798
   39CHL1    C5 4000   4.017   2.004   6.312  0.3241 -0.7376  0.0762
   39CHL1    C6 4001   4.105   2.061   6.232  0.0506 -0.7706  0.5929
   39CHL1    H6 4002   4.160   2.151   6.264 -0.8642 -0.6918  2.0287
   39CHL1    C7 4003   4.124   2.014   6.087  0.1463  0.1667 -0.6107
   39CHL1   H7A 4004   4.134   2.105   6.025  0.4667 -0.9203 -2.2240
   39CHL1   H7B 4005   4.220   1.959   6.076 -0.1891 -0.7736  0.8869
   39CHL1    C8 4006   4.007   1.931   6.038  0.8770  0.1584 -0.0590
   39CHL1    H8 4007   3.927   2.006   6.018 -0.3351 -0.9650  0.3685
   39CHL1   C14 4008   4.058   1.859   5.912 -0.1542  0.5349  0.6108
   39CHL1   H14 4009   4.133   1.787   5.951 -0.8057 -1.4443 -1.5163
   39CHL1   C15 4010   4.139   1.947   5.806  0.1097 -0.3428  0.0093
   39CHL1  H15A 4011   4.069   2.027   5.771 -0.7574 -0.4228  1.4899
   39CHL1  H15B 4012   4.235   1.986   5.844 -1.6167  0.4528  4.0858
   39CHL1   C16 4013   4.152   1.849   5.692  0.0810  0.7764 -0.0893
   39CHL1  H16A 4014   4.103   1.907   5.610  1.5888  2.1406 -0.0643
   39CHL1  H16B 4015   4.258   1.830   5.664  1.2852  1.1284  3.6833
   39CHL1   C17 4016   4.070   1.720   5.724 -0.6368  0.8039  0.4854
   39CHL1   H17 4017   4.134   1.651   5.783  0.1459 -0.3384 -1.5928
   39CHL1   C13 4018   3.967   1.759   5.837 -0.1916  0.6561 -0.6284
   39CHL1   C18 4019   3.846   1.842   5.788 -0.6920 -0.6836 -0.0225
   39CHL1  H18A 4020   3.770   1.769   5.754  0.0669 -0.4426 -2.4190
   39CHL1  H18B 4021   3.807   1.912   5.866  1.5198  0.2588  0.3073
   39CHL1  H18C 4022   3.873   1.901   5.698 -0.4129 -1.3757 -0.3969
   39CHL1   C12 4023   3.916   1.659   5.943 -0.3216 -0.1869  0.0646
   39CHL1  H12A 4024   3.828   1.602   5.907 -0.4775 -0.0797  0.2752
   39CHL1  H12B 4025   3.993   1.587   5.979  0.0356  1.1514  2.1960
   39CHL1   C11 4026   3.861   1.731   6.065  0.3363  0.2935 -0.2473
   39CHL1  H11A 4027   3.765   1.779   6.037  0.1719 -0.1268 -0.4147
   39CHL1  H11B 4028   3.831   1.656   6.141  1.0073  1.2146  0.9417
   39CHL1    C9 4029   3.958   1.825   6.136 -0.4126  0.0587 -0.1287
   39CHL1    H9 4030   4.046   1.759   6.154  0.9705  1.7957 -0.2979
   39CHL1   C10 4031   3.918   1.893   6.272  0.3520 -0.3590  0.2381
   39CHL1   C19 4032   3.781   1.958   6.255 -0.1804 -0.5799 -0.6126
   39CHL1  H19A 4033   3.692   1.891   6.256 -0.1603 -0.6065 -0.5726
   39CHL1  H19B 4034   3.757   2.033   6.333 -1.2956 -0.6435 -0.8773
   39CHL1  H19C 4035   3.776   2.001   6.153 -2.1639 -1.9701 -1.1603
   39CHL1    C1 4036   3.922   1.777   6.377  0.0487  0.4330  0.1420
   39CHL1   H1A 4037   3.846   1.698   6.355  1.3664 -0.4355 -1.5526
   39CHL1   H1B 4038   4.020   1.726   6.362  0.0874  1.0681 -2.1739
   39CHL1    C2 4039   3.905   1.827   6.521  0.0277  0.5639  0.3804
   39CHL1   H2A 4040   3.915   1.746   6.596 -0.3244 -0.6911 -0.8885
   39CHL1   H2B 4041   3.801   1.857   6.545 -0.1694 -0.1369  0.4214
   39CHL1   C20 4042   4.019   1.644   5.597  1.2312 -0.6879 -0.0505
   39CHL1   H20 4043   3.966   1.716   5.531 -0.9641 -0.1397  2.2136
   39CHL1   C21 4044   3.906   1.547   5.637  0.3112  0.3297  0.3116
   39CHL1  H21A 4045   3.863   1.481   5.558 -1.4139  0.6411  0.9459
   39CHL1  H21B 4046   3.825   1.616   5.668  0.2134 -0.5561  2.1297
   39CHL1  H21C 4047   3.937   1.489   5.726 -1.0348  0.3023  0.7844
   39CHL1   C22 4048   4.130   1.590   5.505  0.0931 -0.6223 -0.2551
   39CHL1  H22A 4049   4.196   1.677   5.482 -1.9491  0.6583 -1.5907
   39CHL1  H22B 4050   4.194   1.525   5.569 -1.4630 -0.8241  1.1610
   39CHL1   C23 4051   4.088   1.515   5.371  0.5033  0.3942 -0.2920
   39CHL1  H23A 4052   4.024   1.427   5.396  0.8904  0.2879  0.3446
   39CHL1  H23B 4053   4.019   1.580   5.314 -1.5995 -1.2815  0.1832
   39CHL1   C24 4054   4.211   1.479   5.289 -0.2015 -1.0585  0.6229
   39CHL1  H24A 4055   4.281   1.565   5.279  0.3092 -1.3044  1.9236
   39CHL1  H24B 4056   4.265   1.397   5.341 -0.0734 -0.9002  0.7376
   39CHL1   C25 4057   4.174   1.428   5.143 -0.3653  0.2487 -0.2044
   39CHL1   H25 4058   4.105   1.503   5.099  0.1799  2.2270  2.1122
   39CHL1   C26 4059   4.300   1.429   5.054  0.3112  0.4761 -0.3067
   39CHL1  H26A 4060   4.286   1.401   4.947 -3.5742  2.2423 -0.4266
   39CHL1  H26B 4061   4.337   1.533   5.062 -0.8895  1.1714 -2.7689
   39CHL1  H26C 4062   4.372   1.356   5.097 -2.2603 -2.2617 -0.2702
   39CHL1   C27 4063   4.107   1.285   5.139  0.1904  0.1593  0.1518
   39CHL1  H27A 4064   4.045   1.282   5.047 -0.4484 -2.5478  0.5686
   39CHL1  H27B 4065   4.180   1.201   5.148 -1.1544 -1.0741 -0.0495
   39CHL1  H27C 4066   4.041   1.268   5.226  1.2940 -0.8032  0.8323
   40CHL1    C3 4067   1.085   6.757   6.074 -0.3646  0.3738 -0.0988
   40CHL1    H3 4068   1.187   6.715   6.062  0.3592  2.4689 -1.9173
   40CHL1    O3 4069   1.067   6.784   6.208  0.3361  0.1114 -0.4124
   40CHL1   H3' 4070   1.130   6.851   6.235 -0.8914  1.9519 -1.8639
   40CHL1    C4 4071   1.074   6.890   6.003 -0.0215 -0.0789  0.3075
   40CHL1   H4A 4072   0.984   6.951   6.024  0.1278 -0.8011  3.4810
   40CHL1   H4B 4073   1.172   6.940   6.022 -0.7564  1.6393 -0.2282
   40CHL1    C5 4074   1.074   6.855   5.854 -0.8986 -0.3970  0.3552
   40CHL1    C6 4075   1.169   6.910   5.764  0.1636  0.6321  0.0355
   40CHL1    H6 4076   1.249   6.974   5.804  1.3074 -0.3558 -0.5713
   40CHL1    C7 4077   1.178   6.880   5.614  0.4515 -0.0770 -0.4982
   40CHL1   H7A 4078   1.237   6.960   5.564  2.0702 -1.7513 -1.3725
   40CHL1   H7B 4079   1.234   6.785   5.605  2.0885  0.5987  1.6963
   40CHL1    C8 4080   1.034   6.839   5.560 -0.5636 -0.6777 -0.0760
   40CHL1    H8 4081   0.968   6.928   5.553 -0.1846 -0.3762  0.2086
   40CHL1   C14 4082   1.058   6.784   5.422  0.4398 -0.4152  0.2899
   40CHL1   H14 4083   1.124   6.695   5.425  0.7348 -0.2486 -0.6958
   40CHL1   C15 4084   1.132   6.876   5.323  0.1479 -0.1666 -0.2780
   40CHL1  H15A 4085   1.091   6.980   5.322  1.9405  0.6686 -3.7594
   40CHL1  H15B 4086   1.240   6.887   5.346 -0.0744 -0.8268  1.1765
   40CHL1   C16 4087   1.102   6.804   5.198 -0.1375  0.2319 -0.1708
   40CHL1  H16A 4088   1.069   6.881   5.126 -0.2401 -0.1047 -0.4859
   40CHL1  H16B 4089   1.193   6.755   5.157 -0.4653 -1.4908  1.0160
   40CHL1   C17 4090   0.985   6.704   5.218 -0.0198  0.1128  0.0744
   40CHL1   H17 4091   1.034   6.606   5.239  0.6284 -0.1997 -2.5732
   40CHL1   C13 4092   0.928   6.739   5.356  0.3550  0.6573  0.2687
   40CHL1   C18 4093   0.821   6.851   5.346 -0.5640  0.3236 -0.2228
   40CHL1  H18A 4094   0.854   6.931   5.276 -2.8339  0.5286 -1.1717
   40CHL1  H18B 4095   0.730   6.804   5.301 -0.1746 -1.6248  0.9172
   40CHL1  H18C 4096   0.792   6.894   5.444  0.4404  2.2737 -0.7230
   40CHL1   C12 4097   0.874   6.618   5.436 -0.1674 -0.7422  0.0700
   40CHL1  H12A 4098   0.776   6.579   5.402 -1.3251  1.7365  0.3631
   40CHL1  H12B 4099   0.947   6.534   5.436  1.8539  0.9279 -0.0229
   40CHL1   C11 4100   0.849   6.657   5.583 -0.5695  0.2147  0.0697
   40CHL1  H11A 4101   0.761   6.725   5.586 -0.2247  0.9950 -3.4625
   40CHL1  H11B 4102   0.827   6.560   5.634 -0.1880 -0.4541 -1.0110
   40CHL1    C9 4103   0.974   6.728   5.641  0.0286 -0.0653 -0.3565
   40CHL1    H9 4104   1.048   6.646   5.628 -1.3555 -1.4743  0.2396
   40CHL1   C10 4105   0.972   6.760   5.794 -1.0603 -0.6756 -0.2324
   40CHL1   C19 4106   0.840   6.839   5.811 -0.1583 -0.0325  0.3963
   40CHL1  H19A 4107   0.836   6.937   5.759  1.3409  0.1143  0.5279
   40CHL1  H19B 4108   0.755   6.771   5.790  0.8382 -1.3628  0.5094
   40CHL1  H19C 4109   0.832   6.870   5.917  2.9368 -1.9717  1.3390
   40CHL1    C1 4110   0.965   6.636   5.892 -0.2197 -0.0463  0.9862
   40CHL1   H1A 4111   0.866   6.588   5.878 -0.8571  1.2074  1.0669
   40CHL1   H1B 4112   1.034   6.553   5.866 -0.6060 -0.3904  1.0493
   40CHL1    C2 4113   0.973   6.670   6.040 -0.3356 -0.2937  0.8283
   40CHL1   H2A 4114   0.971   6.574   6.096  1.9930 -0.5959  0.5069
   40CHL1   H2B 4115   0.882   6.729   6.064 -1.2977 -1.1036 -0.7105
   40CHL1   C20 4116   0.899   6.672   5.097 -0.2433 -0.0236  0.0792
   40CHL1   H20 4117   0.856   6.770   5.070  0.7497  1.1226  2.4112
   40CHL1   C21 4118   0.787   6.574   5.133  0.4275 -0.4307  0.3792
   40CHL1  H21A 4119   0.732   6.524   5.050  1.0482  2.4090 -1.9643
   40CHL1  H21B 4120   0.711   6.634   5.188 -0.8973 -1.4654 -0.2640
   40CHL1  H21C 4121   0.833   6.500   5.200  2.6393  1.4694  1.0724
   40CHL1   C22 4122   0.977   6.626   4.961 -0.1240 -0.0804  0.1135
   40CHL1  H22A 4123   1.086   6.648   4.956  0.0159 -0.7193  0.2162
   40CHL1  H22B 4124   0.981   6.515   4.962 -1.9585 -0.1843  1.2459
   40CHL1   C23 4125   0.902   6.658   4.831 -0.4372 -0.1641 -0.8515
   40CHL1  H23A 4126   0.803   6.611   4.848  0.2924 -1.5129 -0.1992
   40CHL1  H23B 4127   0.867   6.764   4.831  1.6332  0.6744  2.6234
   40CHL1   C24 4128   0.964   6.601   4.705  0.2175  0.1393 -0.4338
   40CHL1  H24A 4129   1.074   6.611   4.699  0.2004 -0.4709 -2.7109
   40CHL1  H24B 4130   0.956   6.490   4.702 -1.2436  0.0726  2.3824
   40CHL1   C25 4131   0.897   6.647   4.575 -0.3386 -0.1680 -0.7252
   40CHL1   H25 4132   0.795   6.604   4.565  0.1833 -1.4220 -0.8728
   40CHL1   C26 4133   0.883   6.797   4.555 -0.8234  0.6065  0.3496
   40CHL1  H26A 4134   0.828   6.850   4.636  0.2466  2.0953  0.1471
   40CHL1  H26B 4135   0.983   6.845   4.546 -0.1583 -0.7101  0.4462
   40CHL1  H26C 4136   0.820   6.810   4.464 -0.1828 -1.8273 -0.5124
   40CHL1   C27 4137   0.957   6.576   4.458 -0.1530  0.1623  0.2405
   40CHL1  H27A 4138   1.067   6.586   4.473 -0.3274  0.2324  1.5601
   40CHL1  H27B 4139   0.950   6.466   4.468  2.5510  0.0115  1.4660
   40CHL1  H27C 4140   0.926   6.623   4.362 -0.0928  0.5557  0.4136
   41CHL1    C3 4141   5.920   4.412   6.155  0.1539 -0.0673  0.0022
   41CHL1    H3 4142   5.915   4.306   6.123 -1.2816  0.4314 -1.5776
   41CHL1    O3 4143   5.998   4.424   6.277  0.0583  0.1847 -1.2013
   41CHL1   H3' 4144   5.949   4.461   6.351  1.3143 -2.4853  1.1565
   41CHL1    C4 4145   5.984   4.496   6.044 -1.0795 -0.8554  0.5764
   41CHL1   H4A 4146   5.998   4.598   6.088 -0.3169 -1.1133  0.9626
   41CHL1   H4B 4147   6.089   4.462   6.027 -0.7961 -0.6660  1.8154
   41CHL1    C5 4148   5.903   4.484   5.917  0.3522 -0.0546  0.0104
   41CHL1    C6 4149   5.957   4.441   5.798  0.7840 -0.0685  0.7440
   41CHL1    H6 4150   6.057   4.395   5.800  0.3199 -1.1828 -0.2577
   41CHL1    C7 4151   5.884   4.428   5.669  0.9659 -0.2438  0.2819
   41CHL1   H7A 4152   5.948   4.463   5.586  0.5771 -0.7831 -0.2570
   41CHL1   H7B 4153   5.865   4.322   5.641  1.5026 -0.6513  1.3728
   41CHL1    C8 4154   5.743   4.502   5.667 -0.3846  0.1591  0.0799
   41CHL1    H8 4155   5.759   4.612   5.665 -0.4297  0.2199  1.7003
   41CHL1   C14 4156   5.658   4.448   5.555  0.6938 -0.0680 -0.3257
   41CHL1   H14 4157   5.635   4.340   5.566  0.0624 -0.3917 -3.6030
   41CHL1   C15 4158   5.721   4.453   5.414  0.3396  0.1294  0.2184
   41CHL1  H15A 4159   5.764   4.555   5.406  0.8162 -0.1029 -0.2486
   41CHL1  H15B 4160   5.808   4.388   5.392  0.0042  0.7793 -4.0993
   41CHL1   C16 4161   5.609   4.443   5.314 -0.4435 -0.1795  0.1081
   41CHL1  H16A 4162   5.609   4.532   5.247 -0.4363  1.1261  1.7850
   41CHL1  H16B 4163   5.617   4.349   5.256 -1.3710 -0.2144  0.0102
   41CHL1   C17 4164   5.477   4.447   5.398  0.2005  0.0758  0.9546
   41CHL1   H17 4165   5.448   4.340   5.412  1.1168 -1.0931 -4.0644
   41CHL1   C13 4166   5.521   4.502   5.542  0.6089  0.0169  0.5062
   41CHL1   C18 4167   5.514   4.661   5.517  0.0032  0.4671 -0.5076
   41CHL1  H18A 4168   5.565   4.718   5.598  0.1728 -2.7737  1.9001
   41CHL1  H18B 4169   5.572   4.686   5.427  1.3058  3.9665  1.1195
   41CHL1  H18C 4170   5.409   4.693   5.496  0.2893  1.4634 -0.4592
   41CHL1   C12 4171   5.442   4.472   5.669 -0.9614 -0.3599  0.1368
   41CHL1  H12A 4172   5.346   4.527   5.666 -1.0977 -0.6061  0.0027
   41CHL1  H12B 4173   5.418   4.364   5.662 -1.2663 -0.2133 -1.3146
   41CHL1   C11 4174   5.516   4.520   5.794  0.4386  0.4535 -0.3337
   41CHL1  H11A 4175   5.507   4.629   5.807  0.4137  0.3390  0.6346
   41CHL1  H11B 4176   5.471   4.474   5.884  1.1751  0.2757 -0.0507
   41CHL1    C9 4177   5.661   4.478   5.797 -0.1096  0.4433  0.1561
   41CHL1    H9 4178   5.667   4.367   5.801  0.1189  0.3718 -1.5788
   41CHL1   C10 4179   5.752   4.518   5.918  0.4269  0.4965  0.0612
   41CHL1   C19 4180   5.727   4.671   5.937 -0.7519  0.8228  0.4380
   41CHL1  H19A 4181   5.777   4.724   5.853 -2.6296 -1.1111 -2.0583
   41CHL1  H19B 4182   5.628   4.719   5.949  0.2023  3.5874 -1.7591
   41CHL1  H19C 4183   5.784   4.708   6.025 -1.6663 -1.2391  1.9964
   41CHL1    C1 4184   5.697   4.450   6.041 -0.2590 -0.2891 -0.0203
   41CHL1   H1A 4185   5.587   4.458   6.057 -0.2452 -2.7636  1.9713
   41CHL1   H1B 4186   5.711   4.340   6.027  0.2723 -0.2325  0.0585
   41CHL1    C2 4187   5.779   4.460   6.177 -0.0555 -0.1851 -0.1958
   41CHL1   H2A 4188   5.729   4.400   6.256  1.9444 -2.5781 -0.6258
   41CHL1   H2B 4189   5.777   4.563   6.217 -0.5568 -0.5203  0.6878
   41CHL1   C20 4190   5.353   4.499   5.317 -0.1676  0.2620  0.6011
   41CHL1   H20 4191   5.362   4.607   5.292 -3.2285  0.3692 -0.4888
   41CHL1   C21 4192   5.222   4.481   5.394 -0.0223  0.1094  0.1789
   41CHL1  H21A 4193   5.236   4.516   5.499 -0.3623 -2.2781  1.0928
   41CHL1  H21B 4194   5.176   4.380   5.393  0.0652  0.0696 -0.9676
   41CHL1  H21C 4195   5.144   4.554   5.366  0.4311  1.0365  1.2393
   41CHL1   C22 4196   5.351   4.430   5.179 -0.1058 -0.4830 -0.2051
   41CHL1  H22A 4197   5.444   4.457   5.123 -0.4331  2.6210  0.5656
   41CHL1  H22B 4198   5.337   4.321   5.196 -1.7716 -0.1381  0.7875
   41CHL1   C23 4199   5.242   4.478   5.087  0.0697 -0.3829 -0.1823
   41CHL1  H23A 4200   5.140   4.451   5.123 -0.5911  0.3385 -1.4098
   41CHL1  H23B 4201   5.245   4.589   5.080 -0.2416 -0.4153 -0.9628
   41CHL1   C24 4202   5.265   4.420   4.944  0.1329 -0.3478 -0.2472
   41CHL1  H24A 4203   5.372   4.444   4.929 -0.0319  1.6562  1.3041
   41CHL1  H24B 4204   5.255   4.313   4.972 -2.6494  0.3516  1.7985
   41CHL1   C25 4205   5.174   4.456   4.830 -0.0715  0.7403 -0.0016
   41CHL1   H25 4206   5.071   4.421   4.855 -0.3031 -0.1928 -2.0885
   41CHL1   C26 4207   5.173   4.610   4.796 -0.3992 -0.0796  0.2523
   41CHL1  H26A 4208   5.195   4.667   4.889  0.3846  0.0695 -0.0254
   41CHL1  H26B 4209   5.243   4.650   4.721 -0.0653  0.9418  1.0902
   41CHL1  H26C 4210   5.068   4.633   4.767 -0.6605 -1.5170 -0.0520
   41CHL1   C27 4211   5.227   4.380   4.713 -0.3800  0.0649 -0.2475
   41CHL1  H27A 4212   5.203   4.272   4.714  2.0984 -0.5478  1.1784
   41CHL1  H27B 4213   5.189   4.429   4.620  1.5957 -0.2517 -1.2672
   41CHL1  H27C 4214   5.337   4.386   4.707 -0.3768  0.8322  0.3679
   42CHL1    C3 4215   4.300   0.671   6.462 -0.4007  0.5357 -0.3094
   42CHL1    H3 4216   4.355   0.577   6.438 -0.2481  0.9594 -1.6972
   42CHL1    O3 4217   4.301   0.704   6.599  0.2393 -0.1863 -0.5654
   42CHL1   H3' 4218   4.257   0.789   6.604  1.8855  0.6547  0.3699
   42CHL1    C4 4219   4.345   0.798   6.384 -0.1975  0.2716  0.4594
   42CHL1   H4A 4220   4.279   0.886   6.399  1.3235  2.1964 -2.9400
   42CHL1   H4B 4221   4.450   0.827   6.404 -0.1978  1.1325 -0.7029
   42CHL1    C5 4222   4.332   0.753   6.240 -0.0839  0.1381  0.5252
   42CHL1    C6 4223   4.431   0.756   6.148  0.3100 -0.0291  0.0082
   42CHL1    H6 4224   4.532   0.785   6.181  1.1824 -2.0695 -0.7322
   42CHL1    C7 4225   4.416   0.709   6.005  0.3752  0.2201  0.8641
   42CHL1   H7A 4226   4.495   0.770   5.955  1.7396 -0.2207  2.3952
   42CHL1   H7B 4227   4.441   0.603   5.986 -2.3841 -0.3727  0.0465
   42CHL1    C8 4228   4.273   0.731   5.953 -0.3961  0.5648  0.1036
   42CHL1    H8 4229   4.246   0.839   5.953 -1.4456  0.3148  0.1965
   42CHL1   C14 4230   4.246   0.666   5.810  0.5193  0.0262 -0.5407
   42CHL1   H14 4231   4.277   0.561   5.828  2.2374  0.8764  2.1964
   42CHL1   C15 4232   4.333   0.698   5.695  0.0002  0.0389  0.0312
   42CHL1  H15A 4233   4.356   0.806   5.684  0.4768  0.2644  2.7252
   42CHL1  H15B 4234   4.433   0.649   5.699 -1.0383 -2.2813 -0.6062
   42CHL1   C16 4235   4.270   0.637   5.568 -0.0264 -0.6521 -0.1528
   42CHL1  H16A 4236   4.271   0.707   5.482 -1.1621  1.0309  1.1446
   42CHL1  H16B 4237   4.325   0.542   5.549  1.0393 -0.5208  1.9698
   42CHL1   C17 4238   4.131   0.595   5.618 -0.4682 -0.0484 -0.2364
   42CHL1   H17 4239   4.144   0.490   5.650 -2.5893  0.3337  2.2217
   42CHL1   C13 4240   4.106   0.671   5.759  0.7171 -0.2756 -0.2491
   42CHL1   C18 4241   4.051   0.815   5.733 -0.2853 -0.5678 -0.0784
   42CHL1  H18A 4242   4.096   0.863   5.644 -1.7843 -0.0995 -0.6240
   42CHL1  H18B 4243   3.943   0.816   5.707 -0.8049 -0.5074  1.9082
   42CHL1  H18C 4244   4.050   0.873   5.828  1.3975 -2.0535  0.9026
   42CHL1   C12 4245   4.022   0.600   5.864 -0.0830  0.0254  0.6586
   42CHL1  H12A 4246   3.912   0.607   5.847 -0.2065 -2.7014 -0.1130
   42CHL1  H12B 4247   4.053   0.493   5.869  0.2833  0.0939  0.0288
   42CHL1   C11 4248   4.035   0.668   6.000  0.2931  0.1726  0.3681
   42CHL1  H11A 4249   3.994   0.771   5.989  1.7750  0.6234 -1.4159
   42CHL1  H11B 4250   3.969   0.614   6.071 -0.2161  0.7027  0.3006
   42CHL1    C9 4251   4.180   0.663   6.053  0.3795  0.2002  0.0980
   42CHL1    H9 4252   4.214   0.557   6.062  1.1506  0.4590  0.2529
   42CHL1   C10 4253   4.184   0.714   6.201 -0.0321  0.4953  0.6651
   42CHL1   C19 4254   4.099   0.850   6.206 -0.5336  0.5865  0.0613
   42CHL1  H19A 4255   4.123   0.916   6.292 -0.2572 -0.4348  0.7865
   42CHL1  H19B 4256   4.122   0.914   6.118 -2.5224  0.1371 -0.8500
   42CHL1  H19C 4257   3.993   0.819   6.218  0.4511 -2.5753  1.6369
   42CHL1    C1 4258   4.129   0.601   6.288 -0.5253  0.0322 -1.1453
   42CHL1   H1A 4259   4.019   0.589   6.280 -0.5928 -0.0006 -0.2640
   42CHL1   H1B 4260   4.183   0.505   6.270 -1.2353 -0.4059 -0.9863
   42CHL1    C2 4261   4.153   0.632   6.437  0.5414 -0.4184  0.6675
   42CHL1   H2A 4262   4.140   0.541   6.500  2.0110 -1.8407 -0.9474
   42CHL1   H2B 4263   4.079   0.710   6.463  0.6215  0.4606 -1.5261
   42CHL1   C20 4264   4.027   0.594   5.500 -0.3305  0.2157 -0.5360
   42CHL1   H20 4265   4.012   0.700   5.469  1.4603  0.8392  0.6071
   42CHL1   C21 4266   3.885   0.533   5.532  0.6331 -0.1910 -1.1685
   42CHL1  H21A 4267   3.817   0.565   5.450 -2.5984 -0.4785  1.2098
   42CHL1  H21B 4268   3.840   0.579   5.622 -0.6206 -1.4599 -1.1195
   42CHL1  H21C 4269   3.891   0.422   5.533  1.8518 -0.1913  1.7558
   42CHL1   C22 4270   4.071   0.516   5.374  0.5372  0.3497  0.5889
   42CHL1  H22A 4271   3.990   0.524   5.299  1.7535 -0.4165 -0.8619
   42CHL1  H22B 4272   4.153   0.574   5.327  1.7019 -1.7258 -0.0566
   42CHL1   C23 4273   4.118   0.371   5.391 -0.6116 -0.2394  0.1941
   42CHL1  H23A 4274   4.204   0.359   5.461 -1.3848 -1.1363  1.0064
   42CHL1  H23B 4275   4.030   0.316   5.430 -0.9320  1.3360  1.8528
   42CHL1   C24 4276   4.152   0.303   5.256  0.3126  0.2832  0.1617
   42CHL1  H24A 4277   4.077   0.336   5.181  0.0562  0.6052  0.5605
   42CHL1  H24B 4278   4.245   0.349   5.217  1.9170 -1.1302  2.0942
   42CHL1   C25 4279   4.165   0.152   5.250  0.1124  0.1640  0.6147
   42CHL1   H25 4280   4.089   0.090   5.302  0.2514  0.8078  1.6290
   42CHL1   C26 4281   4.173   0.104   5.101 -0.2052 -0.2491  0.0341
   42CHL1  H26A 4282   4.173  -0.007   5.114 -0.8119 -0.0734  1.7859
   42CHL1  H26B 4283   4.085   0.120   5.034  0.4018 -0.8053 -0.9170
   42CHL1  H26C 4284   4.270   0.126   5.054  0.5579 -2.3442  0.4875
   42CHL1   C27 4285   4.297   0.099   5.315 -0.3104  0.4554  0.5467
   42CHL1  H27A 4286   4.303   0.131   5.421 -2.8192 -0.6837  1.0959
   42CHL1  H27B 4287   4.297  -0.011   5.331 -1.2803  0.5268  1.0932
   42CHL1  H27C 4288   4.380   0.144   5.256  1.7724 -2.3276  1.1781
   43CHL1    C3 4289   6.688   0.967   6.063  0.0693 -0.1179  0.3180
   43CHL1    H3 4290   6.604   0.896   6.049  0.3893 -0.6346  0.9767
   43CHL1    O3 4291   6.703   1.006   6.197  0.3051  0.3883 -0.5606
   43CHL1   H3' 4292   6.613   1.026   6.225 -0.9986 -1.5065 -3.0041
   43CHL1    C4 4293   6.822   0.905   6.009  0.6520 -0.2622  0.1987
   43CHL1   H4A 4294   6.900   0.979   6.036 -0.1946  1.0018 -0.6685
   43CHL1   H4B 4295   6.841   0.813   6.068  0.9727  1.0042  2.1701
   43CHL1    C5 4296   6.820   0.886   5.860 -0.4826  0.3516  0.6119
   43CHL1    C6 4297   6.847   0.767   5.809  0.3658  0.2146 -0.2670
   43CHL1    H6 4298   6.864   0.679   5.873  0.0411 -2.3878 -3.4487
   43CHL1    C7 4299   6.861   0.719   5.672 -0.0217  0.4069  0.6173
   43CHL1   H7A 4300   6.953   0.658   5.659 -1.2458 -1.7508  1.6093
   43CHL1   H7B 4301   6.782   0.642   5.658  0.8771 -0.4914  0.4528
   43CHL1    C8 4302   6.836   0.842   5.574 -0.5762  0.3419  0.1193
   43CHL1    H8 4303   6.930   0.898   5.554 -0.3704 -0.3920 -1.1240
   43CHL1   C14 4304   6.797   0.789   5.430  0.8853  0.3337 -0.2584
   43CHL1   H14 4305   6.700   0.737   5.436  2.2806 -2.3515  0.7870
   43CHL1   C15 4306   6.878   0.673   5.370 -0.6754  0.4084  0.0643
   43CHL1  H15A 4307   6.984   0.705   5.378 -0.5903 -0.1343  1.4255
   43CHL1  H15B 4308   6.866   0.577   5.426 -1.2748 -1.0944 -2.4883
   43CHL1   C16 4309   6.818   0.663   5.228  0.2216  0.0816  0.0685
   43CHL1  H16A 4310   6.901   0.644   5.155  1.5247  2.1359  0.9152
   43CHL1  H16B 4311   6.736   0.588   5.229 -0.5320  0.9036  1.0465
   43CHL1   C17 4312   6.752   0.800   5.198 -1.2090  0.3412 -0.5975
   43CHL1   H17 4313   6.643   0.779   5.197 -0.9822 -1.2795  1.3469
   43CHL1   C13 4314   6.782   0.891   5.320 -0.1668  0.1680  0.0355
   43CHL1   C18 4315   6.909   0.973   5.301 -0.0754  0.5653 -0.3468
   43CHL1  H18A 4316   6.992   0.902   5.282  0.4007  0.3177  2.2803
   43CHL1  H18B 4317   6.904   1.043   5.215  1.0622  0.8411 -0.2068
   43CHL1  H18C 4318   6.926   1.042   5.386 -0.9794  1.0574 -0.5541
   43CHL1   C12 4319   6.669   0.986   5.376  1.4849  0.9665  0.1920
   43CHL1  H12A 4320   6.665   1.064   5.297  0.7527 -1.4265 -2.3010
   43CHL1  H12B 4321   6.576   0.925   5.372  1.3493  1.0097  1.9164
   43CHL1   C11 4322   6.682   1.048   5.521 -0.2655  0.2380 -0.0765
   43CHL1  H11A 4323   6.759   1.128   5.518  0.8857 -0.8592 -0.3966
   43CHL1  H11B 4324   6.583   1.091   5.548  0.6430  1.6549  1.2158
   43CHL1    C9 4325   6.728   0.941   5.627  0.3245  0.1724 -0.4916
   43CHL1    H9 4326   6.638   0.879   5.647 -0.9256  1.8429 -0.6898
   43CHL1   C10 4327   6.767   1.000   5.765 -0.2466 -1.0816  0.0460
   43CHL1   C19 4328   6.884   1.104   5.765  0.2004  0.3151  0.3055
   43CHL1  H19A 4329   6.839   1.191   5.711  0.5831  0.1423 -0.3034
   43CHL1  H19B 4330   6.919   1.140   5.864  2.2760  0.7428 -0.5339
   43CHL1  H19C 4331   6.969   1.071   5.702  0.6786  0.2290  0.9951
   43CHL1    C1 4332   6.645   1.052   5.833 -0.3642 -0.2704 -0.2549
   43CHL1   H1A 4333   6.614   1.137   5.769  2.8562 -0.0522 -1.7335
   43CHL1   H1B 4334   6.563   0.978   5.843  0.2682 -0.8327  1.0413
   43CHL1    C2 4335   6.660   1.088   5.981  0.1024  0.2451  0.2482
   43CHL1   H2A 4336   6.574   1.150   6.013 -0.2080 -0.0599  0.0070
   43CHL1   H2B 4337   6.738   1.164   6.005 -2.5472  2.0674  4.2765
   43CHL1   C20 4338   6.779   0.850   5.050 -0.5462  0.7105  0.5599
   43CHL1   H20 4339   6.881   0.893   5.047  1.3070 -3.2751 -1.3688
   43CHL1   C21 4340   6.676   0.956   5.020  0.6427  0.7374 -0.2227
   43CHL1  H21A 4341   6.693   1.007   4.923  1.4274  1.8628  0.4772
   43CHL1  H21B 4342   6.680   1.033   5.100  3.1475 -1.4539  1.9460
   43CHL1  H21C 4343   6.574   0.914   5.035  1.6384 -1.7423  0.1318
   43CHL1   C22 4344   6.778   0.744   4.939 -0.1266  0.1347 -0.2841
   43CHL1  H22A 4345   6.797   0.789   4.840  1.6485  0.2121  0.0610
   43CHL1  H22B 4346   6.870   0.684   4.953  0.3997  0.6915 -1.2671
   43CHL1   C23 4347   6.654   0.653   4.926  0.1899 -0.3489  0.9831
   43CHL1  H23A 4348   6.630   0.604   5.023  0.1627  1.9894  2.2386
   43CHL1  H23B 4349   6.565   0.717   4.907 -0.9090 -1.6919  1.4467
   43CHL1   C24 4350   6.665   0.542   4.811 -0.6627  0.3291 -0.4730
   43CHL1  H24A 4351   6.567   0.496   4.787  0.4571 -0.9792 -2.9525
   43CHL1  H24B 4352   6.698   0.596   4.720 -0.2004  1.1798  0.1816
   43CHL1   C25 4353   6.767   0.427   4.834  0.4004  0.6551  0.0753
   43CHL1   H25 4354   6.865   0.476   4.854 -0.0888  1.1448  1.3360
   43CHL1   C26 4355   6.736   0.330   4.944  0.2126 -0.3782 -0.6101
   43CHL1  H26A 4356   6.636   0.287   4.925  1.1070 -1.4257 -3.5651
   43CHL1  H26B 4357   6.805   0.243   4.944  0.3358 -0.3065  0.5274
   43CHL1  H26C 4358   6.748   0.379   5.043 -2.1175 -2.4075  0.7874
   43CHL1   C27 4359   6.774   0.353   4.705 -0.4288  0.0891  0.7152
   43CHL1  H27A 4360   6.857   0.280   4.697 -1.5048 -1.2434  1.1449
   43CHL1  H27B 4361   6.680   0.294   4.695 -1.5641  1.8136  0.8892
   43CHL1  H27C 4362   6.780   0.428   4.624  0.8803  0.2214  0.9192
   44CHL1    C3 4363   5.864   3.453   6.411 -0.2961 -0.6374  0.1173
   44CHL1    H3 4364   5.898   3.547   6.362 -1.1120 -2.0366 -3.4619
   44CHL1    O3 4365   5.894   3.439   6.556 -0.0778 -0.1719 -0.0226
   44CHL1   H3' 4366   5.909   3.345   6.569 -1.1204 -0.4997 -1.0487
   44CHL1    C4 4367   5.716   3.452   6.378  0.3108 -0.1527  0.4277
   44CHL1   H4A 4368   5.661   3.365   6.421 -1.8799 -0.2766 -2.3237
   44CHL1   H4B 4369   5.681   3.544   6.429  3.6179  1.8309 -0.5990
   44CHL1    C5 4370   5.674   3.458   6.235 -0.0517  0.2431  0.1260
   44CHL1    C6 4371   5.578   3.541   6.195 -0.1856 -0.6142 -0.2607
   44CHL1    H6 4372   5.521   3.599   6.269  0.6773  1.1446 -0.9364
   44CHL1    C7 4373   5.548   3.560   6.047  0.3988  0.0576 -0.2164
   44CHL1   H7A 4374   5.438   3.546   6.050  0.4876 -0.7625 -0.6309
   44CHL1   H7B 4375   5.570   3.665   6.015  1.3250 -0.1416 -0.2592
   44CHL1    C8 4376   5.612   3.471   5.946 -0.2833  0.0262  0.4116
   44CHL1    H8 4377   5.553   3.378   5.951 -2.2010  1.1940  0.5196
   44CHL1   C14 4378   5.611   3.525   5.808  0.7513  0.8940  0.2220
   44CHL1   H14 4379   5.664   3.622   5.813  1.8120  0.2554  2.1792
   44CHL1   C15 4380   5.470   3.564   5.747 -0.4906 -0.1764 -0.2059
   44CHL1  H15A 4381   5.398   3.490   5.788 -0.4984  0.3371  0.7261
   44CHL1  H15B 4382   5.440   3.668   5.773 -2.5698  0.3415 -3.8714
   44CHL1   C16 4383   5.496   3.559   5.599 -0.1238 -0.2827 -0.5767
   44CHL1  H16A 4384   5.431   3.483   5.550  0.3405 -1.1312  0.1047
   44CHL1  H16B 4385   5.486   3.661   5.557  0.9855  0.3243  0.5639
   44CHL1   C17 4386   5.639   3.516   5.580 -0.2330 -0.9307  0.0938
   44CHL1   H17 4387   5.699   3.609   5.593  0.6526 -1.5812  0.8249
   44CHL1   C13 4388   5.674   3.435   5.708  0.4262  0.1304  0.5036
   44CHL1   C18 4389   5.604   3.295   5.698 -0.2434 -0.1567 -0.3012
   44CHL1  H18A 4390   5.607   3.234   5.791 -5.3667 -1.6965 -0.8493
   44CHL1  H18B 4391   5.496   3.307   5.673 -0.5061  0.6492  1.0701
   44CHL1  H18C 4392   5.650   3.241   5.613  3.2917  2.2377 -0.1157
   44CHL1   C12 4393   5.827   3.421   5.744  0.8418  0.0320  0.2107
   44CHL1  H12A 4394   5.869   3.349   5.670 -0.0018 -1.1920  0.8700
   44CHL1  H12B 4395   5.872   3.522   5.746 -0.9565  0.8611 -0.0716
   44CHL1   C11 4396   5.834   3.362   5.886 -0.1218 -0.2716 -0.0605
   44CHL1  H11A 4397   5.805   3.255   5.880  1.3253 -0.6314 -1.9847
   44CHL1  H11B 4398   5.940   3.363   5.919 -0.7557  3.8792  2.5982
   44CHL1    C9 4399   5.751   3.440   5.994 -0.4176  0.5647 -0.7267
   44CHL1    H9 4400   5.800   3.540   6.000 -2.2637  1.5930 -1.9439
   44CHL1   C10 4401   5.761   3.373   6.139  0.2922  0.2522  0.2063
   44CHL1   C19 4402   5.696   3.234   6.149  0.1937 -0.1941 -0.2031
   44CHL1  H19A 4403   5.691   3.199   6.254 -0.6639 -0.4305 -0.3170
   44CHL1  H19B 4404   5.591   3.245   6.114  0.2300 -1.1232 -0.6156
   44CHL1  H19C 4405   5.754   3.166   6.083  1.2943  0.7588 -0.2583
   44CHL1    C1 4406   5.911   3.377   6.180 -0.1116 -0.4856  0.2858
   44CHL1   H1A 4407   5.966   3.300   6.122  0.3575 -1.2683  1.7212
   44CHL1   H1B 4408   5.960   3.474   6.156 -1.6102  0.2626  0.0892
   44CHL1    C2 4409   5.937   3.347   6.329  0.5033 -0.2406  0.1293
   44CHL1   H2A 4410   6.045   3.347   6.355  0.0427  1.0824  2.3653
   44CHL1   H2B 4411   5.898   3.250   6.365 -0.3706  0.0955  0.1141
   44CHL1   C20 4412   5.677   3.457   5.441  0.0124 -0.2605  0.2027
   44CHL1   H20 4413   5.636   3.356   5.423 -0.2599  0.1111 -1.4474
   44CHL1   C21 4414   5.829   3.459   5.421 -0.6487 -0.5824  0.1625
   44CHL1  H21A 4415   5.876   3.539   5.481 -0.4480  0.8595 -1.8387
   44CHL1  H21B 4416   5.849   3.484   5.315 -2.3067 -0.8954 -0.2532
   44CHL1  H21C 4417   5.871   3.358   5.441  0.9600  0.1855  0.8458
   44CHL1   C22 4418   5.612   3.551   5.332  0.6776 -0.4288 -0.8061
   44CHL1  H22A 4419   5.502   3.546   5.343  0.8302 -0.6828  1.0628
   44CHL1  H22B 4420   5.649   3.655   5.349 -0.9110 -0.0246  0.4011
   44CHL1   C23 4421   5.628   3.508   5.183  0.1906 -0.5613 -0.0831
   44CHL1  H23A 4422   5.727   3.534   5.141  0.1012 -1.6269 -1.0160
   44CHL1  H23B 4423   5.605   3.399   5.184 -3.4604  0.0691 -1.0642
   44CHL1   C24 4424   5.524   3.579   5.084 -0.0602 -0.4103 -0.0795
   44CHL1  H24A 4425   5.431   3.597   5.143  0.3477 -0.0148  0.4593
   44CHL1  H24B 4426   5.560   3.680   5.056 -1.4379 -0.2247 -1.3278
   44CHL1   C25 4427   5.492   3.498   4.959  0.3849 -0.0383 -0.3910
   44CHL1   H25 4428   5.431   3.564   4.894 -1.0018 -0.0635  0.8591
   44CHL1   C26 4429   5.617   3.453   4.876 -0.5885 -0.1104  0.1860
   44CHL1  H26A 4430   5.671   3.546   4.848  1.0922 -0.9357  0.5936
   44CHL1  H26B 4431   5.669   3.390   4.951  0.8867  1.2234  0.3306
   44CHL1  H26C 4432   5.594   3.397   4.783  2.7961 -0.1506 -0.7650
   44CHL1   C27 4433   5.399   3.378   4.997  1.3118 -0.3102  0.5071
   44CHL1  H27A 4434   5.311   3.414   5.055  0.2516 -0.6815 -0.8173
   44CHL1  H27B 4435   5.362   3.321   4.909  0.2456 -0.4448  1.0272
   44CHL1  H27C 4436   5.457   3.318   5.070  0.3389  0.5220  2.0411
   45CHL1    C3 4437   6.358   3.573   6.213 -0.7868  0.0154  0.6185
   45CHL1    H3 4438   6.254   3.612   6.207 -1.5018 -1.7522  0.8196
   45CHL1    O3 4439   6.391   3.558   6.351  0.4911  0.4679 -0.0493
   45CHL1   H3' 4440   6.348   3.631   6.397 -2.5289 -1.8026  0.9890
   45CHL1    C4 4441   6.368   3.437   6.139 -0.6460 -0.2426 -0.0358
   45CHL1   H4A 4442   6.464   3.383   6.153  0.3822  0.9112 -2.1359
   45CHL1   H4B 4443   6.293   3.368   6.185  1.6756 -3.1202 -0.2818
   45CHL1    C5 4444   6.341   3.464   5.994 -0.6965  0.0116  0.3937
   45CHL1    C6 4445   6.240   3.399   5.928 -0.0334 -0.0540 -0.4441
   45CHL1    H6 4446   6.181   3.321   5.978  2.1028 -0.0345  2.3448
   45CHL1    C7 4447   6.214   3.413   5.781  0.4123  0.2978  0.0210
   45CHL1   H7A 4448   6.195   3.316   5.731  0.4651  0.5513 -0.5042
   45CHL1   H7B 4449   6.127   3.482   5.775  0.3554  0.3918  1.4884
   45CHL1    C8 4450   6.328   3.492   5.705  0.5587  0.0679  0.5144
   45CHL1    H8 4451   6.415   3.428   5.679  0.8640 -0.1440  1.9692
   45CHL1   C14 4452   6.264   3.537   5.569 -0.3623 -0.2102  0.0688
   45CHL1   H14 4453   6.179   3.601   5.599  0.8539  1.7370 -0.4526
   45CHL1   C15 4454   6.208   3.432   5.469  0.6432  0.3788  0.1949
   45CHL1  H15A 4455   6.279   3.348   5.450 -0.2078 -0.5989  1.2313
   45CHL1  H15B 4456   6.113   3.383   5.499  0.2858  0.3232 -0.9660
   45CHL1   C16 4457   6.184   3.518   5.343 -0.3392  0.5449  0.0170
   45CHL1  H16A 4458   6.230   3.453   5.265  3.0294 -0.7895  2.8116
   45CHL1  H16B 4459   6.076   3.543   5.336 -0.2951  1.2460  1.4742
   45CHL1   C17 4460   6.255   3.658   5.370  0.3603 -0.6087  0.7015
   45CHL1   H17 4461   6.171   3.719   5.411 -1.3667 -1.5918 -1.1926
   45CHL1   C13 4462   6.344   3.633   5.491 -0.7530 -0.6193  0.2057
   45CHL1   C18 4463   6.470   3.564   5.433 -0.2104  0.5426 -0.6079
   45CHL1  H18A 4464   6.431   3.485   5.366  0.7823 -0.3422 -0.1697
   45CHL1  H18B 4465   6.534   3.637   5.381  1.4992 -1.1890 -1.0348
   45CHL1  H18C 4466   6.531   3.528   5.518 -1.6114 -0.9262 -0.1623
   45CHL1   C12 4467   6.379   3.751   5.585  0.5819 -0.5856  0.2114
   45CHL1  H12A 4468   6.433   3.839   5.545  0.4014  0.3869  2.0108
   45CHL1  H12B 4469   6.278   3.791   5.609  0.3117 -0.7201 -0.6514
   45CHL1   C11 4470   6.465   3.705   5.702  0.2385  0.1180 -0.3876
   45CHL1  H11A 4471   6.566   3.666   5.678 -0.3628 -0.6784 -1.7527
   45CHL1  H11B 4472   6.488   3.798   5.758  0.1411  0.8829 -1.5963
   45CHL1    C9 4473   6.379   3.610   5.790 -0.9814 -0.0604 -0.6787
   45CHL1    H9 4474   6.281   3.662   5.799 -0.9341 -0.1439  0.4013
   45CHL1   C10 4475   6.434   3.568   5.926  0.1770  0.3744  0.7414
   45CHL1   C19 4476   6.569   3.487   5.897  0.7599  0.1437 -0.5485
   45CHL1  H19A 4477   6.602   3.429   5.986  0.5687  1.3056  0.3066
   45CHL1  H19B 4478   6.565   3.417   5.811  1.0136 -1.5639  0.7760
   45CHL1  H19C 4479   6.646   3.564   5.872  2.3818 -1.4402 -0.6813
   45CHL1    C1 4480   6.458   3.698   6.009 -0.2698  0.3860  0.0114
   45CHL1   H1A 4481   6.551   3.743   5.967  0.3758 -0.3847  0.5776
   45CHL1   H1B 4482   6.375   3.771   5.995 -1.4223 -0.9690 -0.3708
   45CHL1    C2 4483   6.462   3.676   6.164 -0.3892 -0.3397  0.2900
   45CHL1   H2A 4484   6.451   3.770   6.221 -1.3505  0.4115 -1.0795
   45CHL1   H2B 4485   6.562   3.637   6.193  0.0186  0.7986  0.4597
   45CHL1   C20 4486   6.305   3.739   5.245 -0.2550 -0.1301 -0.3085
   45CHL1   H20 4487   6.383   3.686   5.186 -1.2102 -1.8554 -0.0716
   45CHL1   C21 4488   6.364   3.874   5.297  0.4892  0.9000  0.8853
   45CHL1  H21A 4489   6.385   3.942   5.212 -2.2626  1.6193  0.6755
   45CHL1  H21B 4490   6.462   3.868   5.349  0.3256 -0.7261  1.0537
   45CHL1  H21C 4491   6.290   3.934   5.356 -0.5281  1.6107 -1.0298
   45CHL1   C22 4492   6.209   3.767   5.137 -1.1886 -0.0218 -0.0081
   45CHL1  H22A 4493   6.150   3.678   5.105 -0.9985  1.1798 -4.3804
   45CHL1  H22B 4494   6.138   3.850   5.161 -2.1508  0.0186 -2.6530
   45CHL1   C23 4495   6.282   3.806   4.998  0.5847  0.6307  0.8110
   45CHL1  H23A 4496   6.195   3.844   4.942  0.3022  0.4064  1.0959
   45CHL1  H23B 4497   6.349   3.894   4.994  0.8785  0.5303  2.5317
   45CHL1   C24 4498   6.341   3.685   4.929  0.6774  0.2730 -0.2263
   45CHL1  H24A 4499   6.412   3.628   4.993  0.1778  0.2191  0.2803
   45CHL1  H24B 4500   6.256   3.617   4.908 -0.5668  2.2747 -2.1292
   45CHL1   C25 4501   6.405   3.710   4.783 -0.2332  0.1789  0.3219
   45CHL1   H25 4502   6.324   3.752   4.720  0.2904 -0.3853 -0.7448
   45CHL1   C26 4503   6.519   3.806   4.805  0.2481 -0.0190 -0.4217
   45CHL1  H26A 4504   6.474   3.902   4.839 -1.0216 -0.7936  0.1600
   45CHL1  H26B 4505   6.589   3.763   4.879  0.5689  1.0838 -0.0687
   45CHL1  H26C 4506   6.568   3.832   4.709 -0.3459 -2.3530 -1.4170
   45CHL1   C27 4507   6.448   3.573   4.728  0.6909  0.1410 -0.1925
   45CHL1  H27A 4508   6.530   3.523   4.783  0.7070 -0.9753 -1.1911
   45CHL1  H27B 4509   6.358   3.508   4.726  0.1815  0.6116  2.4992
   45CHL1  H27C 4510   6.470   3.579   4.620 -1.3123 -1.2579 -0.7416
   46CHL1    C3 4511   1.985   5.323   6.424 -0.6910  0.7191  1.0309
   46CHL1    H3 4512   1.893   5.266   6.451 -0.4350 -0.9072 -1.2544
   46CHL1    O3 4513   2.045   5.354   6.550  0.1342  0.3299  0.3991
   46CHL1   H3' 4514   2.140   5.361   6.537 -0.3349  4.1687 -2.5398
   46CHL1    C4 4515   2.087   5.227   6.352  0.7295 -0.0830 -1.2068
   46CHL1   H4A 4516   2.187   5.274   6.358  1.0466 -0.8417  2.7446
   46CHL1   H4B 4517   2.086   5.146   6.429  1.4777  0.5733 -0.4862
   46CHL1    C5 4518   2.040   5.190   6.217  0.4816 -0.4088 -0.0135
   46CHL1    C6 4519   2.030   5.062   6.174 -0.0634 -0.1037  0.5330
   46CHL1    H6 4520   2.056   4.983   6.246  0.2080  0.8327  1.4851
   46CHL1    C7 4521   2.009   5.026   6.033  0.0226 -0.4208 -0.0401
   46CHL1   H7A 4522   2.087   4.955   5.997 -2.4509 -3.6926  0.6360
   46CHL1   H7B 4523   1.921   4.961   6.018  1.0893 -1.8239 -0.5126
   46CHL1    C8 4524   2.009   5.143   5.939  0.7112 -0.1668  1.1206
   46CHL1    H8 4525   2.114   5.167   5.911  0.3178  0.8106  0.4156
   46CHL1   C14 4526   1.943   5.103   5.802 -0.0320  0.2147  0.9369
   46CHL1   H14 4527   1.838   5.083   5.833  0.5560 -0.7783  2.4506
   46CHL1   C15 4528   1.997   4.972   5.725 -0.8658 -0.1825 -0.2570
   46CHL1  H15A 4529   2.108   4.981   5.733 -0.7482 -2.6014  2.1480
   46CHL1  H15B 4530   1.973   4.875   5.772  0.3983 -0.5533 -0.3332
   46CHL1   C16 4531   1.959   4.991   5.577 -0.2977 -0.4198 -1.1953
   46CHL1  H16A 4532   2.050   4.999   5.514  1.6996  1.3810  1.6503
   46CHL1  H16B 4533   1.892   4.912   5.537 -2.6143  1.4813 -1.3019
   46CHL1   C17 4534   1.885   5.134   5.574  0.2369  0.1853  0.0819
   46CHL1   H17 4535   1.779   5.111   5.597  0.3592 -1.7452 -1.0859
   46CHL1   C13 4536   1.944   5.206   5.691 -0.5071  0.4064 -0.4611
   46CHL1   C18 4537   2.075   5.267   5.645 -0.1424  0.2017 -0.5810
   46CHL1  H18A 4538   2.136   5.308   5.729 -0.3631  0.9515 -0.7776
   46CHL1  H18B 4539   2.135   5.190   5.592 -1.9547  0.3171 -3.0165
   46CHL1  H18C 4540   2.049   5.354   5.580 -0.1100  2.2534  1.9961
   46CHL1   C12 4541   1.859   5.320   5.759 -0.5529  0.1556 -0.0245
   46CHL1  H12A 4542   1.840   5.401   5.685  0.2780 -0.8890 -1.4494
   46CHL1  H12B 4543   1.765   5.270   5.788 -0.6322 -0.3014 -1.0307
   46CHL1   C11 4544   1.926   5.379   5.883 -0.5286 -0.6470 -0.4693
   46CHL1  H11A 4545   2.023   5.428   5.860  0.0206 -1.1882  0.6041
   46CHL1  H11B 4546   1.858   5.458   5.921 -1.1225 -1.6771  0.6747
   46CHL1    C9 4547   1.940   5.263   5.989 -0.0893  0.2136 -0.6406
   46CHL1    H9 4548   1.837   5.232   6.018  0.4675 -0.6449  0.4998
   46CHL1   C10 4549   2.000   5.306   6.131  0.0060  0.9341 -0.6640
   46CHL1   C19 4550   2.129   5.383   6.102  0.1903 -0.9364  0.6143
   46CHL1  H19A 4551   2.181   5.419   6.194 -1.0413  0.0790  0.9515
   46CHL1  H19B 4552   2.200   5.324   6.040  0.2035  0.2056 -0.4929
   46CHL1  H19C 4553   2.107   5.478   6.049  0.4996 -1.6039 -0.7394
   46CHL1    C1 4554   1.898   5.404   6.205  0.3321  0.2032 -0.1454
   46CHL1   H1A 4555   1.881   5.495   6.145 -1.8129  0.6515  1.0232
   46CHL1   H1B 4556   1.815   5.330   6.214  0.7302 -0.3799 -1.1026
   46CHL1    C2 4557   1.953   5.444   6.342  0.9319  0.0259 -0.2475
   46CHL1   H2A 4558   1.864   5.488   6.392  1.1321 -0.5981  0.6762
   46CHL1   H2B 4559   2.029   5.523   6.323 -0.5192  1.1232 -1.8109
   46CHL1   C20 4560   1.887   5.201   5.435  0.0740  0.0144  0.6439
   46CHL1   H20 4561   1.985   5.247   5.411  1.1524 -3.1739 -1.6170
   46CHL1   C21 4562   1.780   5.318   5.414  0.0795 -0.1001 -0.6126
   46CHL1  H21A 4563   1.677   5.283   5.439 -0.3370  0.9738 -0.7675
   46CHL1  H21B 4564   1.786   5.360   5.312  3.1461  2.0930  0.3249
   46CHL1  H21C 4565   1.811   5.397   5.486 -0.5607 -1.8190  1.6862
   46CHL1   C22 4566   1.880   5.099   5.314  0.2030  0.3326 -0.5613
   46CHL1  H22A 4567   1.976   5.045   5.301 -0.3406 -0.3968 -1.7248
   46CHL1  H22B 4568   1.815   5.013   5.342  2.2573 -1.3301 -0.6861
   46CHL1   C23 4569   1.852   5.165   5.171  0.4511  0.5636  0.0219
   46CHL1  H23A 4570   1.744   5.190   5.160 -0.0079 -1.5672 -0.9009
   46CHL1  H23B 4571   1.908   5.261   5.170  2.2142 -0.4330 -0.5727
   46CHL1   C24 4572   1.906   5.079   5.065 -0.6165 -0.0066  0.1597
   46CHL1  H24A 4573   2.014   5.062   5.084 -0.6418  1.9383  2.5382
   46CHL1  H24B 4574   1.850   4.984   5.053 -0.3409 -0.0461 -0.8771
   46CHL1   C25 4575   1.896   5.153   4.927  0.2843 -0.5753  0.2063
   46CHL1   H25 4576   1.913   5.261   4.948 -1.1073 -0.3818  0.4077
   46CHL1   C26 4577   1.986   5.077   4.834 -0.3689  0.1881  0.4106
   46CHL1  H26A 4578   2.030   4.980   4.866  0.4462  0.6694  0.7843
   46CHL1  H26B 4579   1.933   5.061   4.738 -0.2804 -2.4426  0.7129
   46CHL1  H26C 4580   2.080   5.133   4.814 -0.0328 -1.1333 -2.3769
   46CHL1   C27 4581   1.760   5.145   4.873 -0.1320  0.3611 -0.1657
   46CHL1  H27A 4582   1.747   5.209   4.784  0.1892  1.3158  0.4636
   46CHL1  H27B 4583   1.746   5.043   4.830 -0.2849 -0.4282  1.6758
   46CHL1  H27C 4584   1.676   5.170   4.942  0.5495  1.1724  0.3792
   47CHL1    C3 4585   0.509   6.227   6.402 -0.2913  0.0965  0.4150
   47CHL1    H3 4586   0.433   6.147   6.409  0.5076 -0.5979  1.3382
   47CHL1    O3 4587   0.575   6.232   6.533 -0.7411  0.0123  0.1402
   47CHL1   H3' 4588   0.660   6.274   6.515 -0.9521  0.7601  0.8265
   47CHL1    C4 4589   0.621   6.179   6.309 -0.0403  0.0381  0.2300
   47CHL1   H4A 4590   0.719   6.223   6.336 -0.5603  1.5638 -0.2943
   47CHL1   H4B 4591   0.637   6.076   6.350 -1.2674  1.1543  4.0180
   47CHL1    C5 4592   0.611   6.190   6.161 -0.4472 -0.3381 -0.1431
   47CHL1    C6 4593   0.623   6.083   6.085 -0.2776 -0.5957 -0.1903
   47CHL1    H6 4594   0.659   5.991   6.134 -0.3101 -0.1579  0.6760
   47CHL1    C7 4595   0.596   6.080   5.936 -0.0033 -0.5852 -0.2731
   47CHL1   H7A 4596   0.671   6.028   5.874 -0.0793  0.9699 -1.7621
   47CHL1   H7B 4597   0.503   6.024   5.912 -0.8558  0.5780  0.2134
   47CHL1    C8 4598   0.568   6.219   5.875  0.4409  0.5921  0.6156
   47CHL1    H8 4599   0.660   6.278   5.854 -0.0715  1.5461  0.9702
   47CHL1   C14 4600   0.490   6.204   5.736 -0.2044  0.0162  0.2394
   47CHL1   H14 4601   0.392   6.156   5.759 -0.2217 -0.4226 -0.6988
   47CHL1   C15 4602   0.559   6.119   5.632  0.1790 -0.7014 -0.0968
   47CHL1  H15A 4603   0.670   6.120   5.641  0.2749  0.2416 -1.1263
   47CHL1  H15B 4604   0.528   6.014   5.653 -1.1842  0.3309  3.9423
   47CHL1   C16 4605   0.504   6.161   5.499 -0.1401 -0.2663 -1.0313
   47CHL1  H16A 4606   0.579   6.192   5.423  0.8922 -1.7487 -0.6569
   47CHL1  H16B 4607   0.435   6.082   5.464 -3.6236  2.2939 -0.4769
   47CHL1   C17 4608   0.403   6.281   5.533  0.4710 -0.5742  0.5200
   47CHL1   H17 4609   0.309   6.244   5.578  0.8243  0.7213  2.4302
   47CHL1   C13 4610   0.456   6.334   5.662  0.0951 -0.2414  0.0152
   47CHL1   C18 4611   0.580   6.417   5.638 -0.2811  0.1310  0.9251
   47CHL1  H18A 4612   0.561   6.520   5.601  0.6481 -0.5892 -1.8868
   47CHL1  H18B 4613   0.641   6.433   5.729 -1.3812 -0.3059  1.7495
   47CHL1  H18C 4614   0.635   6.365   5.556  0.4973  1.2148  0.7443
   47CHL1   C12 4615   0.368   6.415   5.748 -0.6311 -0.1365  0.8155
   47CHL1  H12A 4616   0.356   6.519   5.711  1.0266 -0.2723 -0.2036
   47CHL1  H12B 4617   0.268   6.365   5.751  1.1983 -4.3022 -0.5423
   47CHL1   C11 4618   0.429   6.437   5.892  0.0742  0.1409  0.5193
   47CHL1  H11A 4619   0.517   6.503   5.900 -1.1312  1.6282  2.1911
   47CHL1  H11B 4620   0.344   6.478   5.951 -0.9102  0.2899 -0.9275
   47CHL1    C9 4621   0.478   6.305   5.969  0.3484  0.4478  0.3861
   47CHL1    H9 4622   0.381   6.252   5.980  0.9922 -0.5732  1.3500
   47CHL1   C10 4623   0.536   6.317   6.110 -0.5734 -0.2658 -0.5342
   47CHL1   C19 4624   0.649   6.428   6.115 -0.7649 -0.0288  0.6477
   47CHL1  H19A 4625   0.599   6.527   6.108 -0.7785 -0.1371 -1.0278
   47CHL1  H19B 4626   0.696   6.452   6.213  2.2255  3.9487 -1.4913
   47CHL1  H19C 4627   0.730   6.423   6.039 -0.6318  1.3072  0.6706
   47CHL1    C1 4628   0.424   6.357   6.201 -0.3272 -0.6804 -0.5427
   47CHL1   H1A 4629   0.378   6.451   6.164 -2.7683 -2.0647 -1.1968
   47CHL1   H1B 4630   0.347   6.281   6.177 -1.0843  0.1217 -0.7101
   47CHL1    C2 4631   0.461   6.363   6.356  0.0728  0.4466  0.0509
   47CHL1   H2A 4632   0.368   6.389   6.411  0.1558 -0.5501  0.6820
   47CHL1   H2B 4633   0.540   6.437   6.379 -1.9978  3.5532 -1.9509
   47CHL1   C20 4634   0.364   6.381   5.424  0.0492  0.1613 -0.1586
   47CHL1   H20 4635   0.433   6.468   5.432  1.1129 -0.7097  0.3950
   47CHL1   C21 4636   0.219   6.428   5.437  0.3333  0.1191 -0.3468
   47CHL1  H21A 4637   0.199   6.439   5.545  1.3897 -2.3968  0.1759
   47CHL1  H21B 4638   0.150   6.350   5.398  0.3645  0.4550 -1.0887
   47CHL1  H21C 4639   0.196   6.524   5.387 -1.3173  0.8308  1.6291
   47CHL1   C22 4640   0.368   6.321   5.280 -0.1292  0.0030 -0.0365
   47CHL1  H22A 4641   0.475   6.303   5.253 -0.0813  0.8244 -0.4211
   47CHL1  H22B 4642   0.312   6.226   5.268  0.3133 -0.2377 -0.2317
   47CHL1   C23 4643   0.312   6.414   5.174 -0.2266  0.3415  0.4951
   47CHL1  H23A 4644   0.208   6.449   5.189 -0.2738  0.0180  0.9154
   47CHL1  H23B 4645   0.380   6.500   5.153 -1.0250  1.4975  2.3991
   47CHL1   C24 4646   0.318   6.342   5.037 -0.2228  0.1603 -0.7635
   47CHL1  H24A 4647   0.418   6.295   5.022  0.2189  0.8581 -0.0672
   47CHL1  H24B 4648   0.241   6.262   5.040 -0.1610  0.1285  0.7295
   47CHL1   C25 4649   0.305   6.434   4.916  0.3418  0.9760  0.5065
   47CHL1   H25 4650   0.400   6.492   4.911  0.4910  0.7198  0.3397
   47CHL1   C26 4651   0.308   6.346   4.784 -0.4604  0.4192  0.8513
   47CHL1  H26A 4652   0.332   6.400   4.690 -1.4602 -2.0402 -0.9146
   47CHL1  H26B 4653   0.374   6.257   4.798 -0.0119  0.3806 -1.2177
   47CHL1  H26C 4654   0.205   6.308   4.770 -0.3941 -0.1414  1.7687
   47CHL1   C27 4655   0.181   6.524   4.927  0.1633 -0.1254  0.9741
   47CHL1  H27A 4656   0.086   6.467   4.917  0.6813 -0.6116 -2.0859
   47CHL1  H27B 4657   0.176   6.573   5.027  1.2447  1.8662  0.0946
   47CHL1  H27C 4658   0.178   6.607   4.854 -0.4976 -1.7892 -0.9844
   48CHL1    C3 4659   5.155   6.647   6.245 -0.3736  0.1577  0.7318
   48CHL1    H3 4660   5.086   6.725   6.206 -1.7103 -0.7857  1.1569
   48CHL1    O3 4661   5.158   6.647   6.392 -0.1607 -0.3752  0.5290
   48CHL1   H3' 4662   5.233   6.695   6.429  1.2633  0.0296 -2.5318
   48CHL1    C4 4663   5.114   6.504   6.200 -0.4779  0.2027 -0.0203
   48CHL1   H4A 4664   5.187   6.425   6.224 -1.8684 -1.0264  0.2793
   48CHL1   H4B 4665   5.018   6.483   6.251 -0.2852  0.2720  0.3737
   48CHL1    C5 4666   5.115   6.513   6.045 -0.1189 -0.9932 -0.1140
   48CHL1    C6 4667   5.003   6.496   5.982 -0.1721  0.7385 -1.0675
   48CHL1    H6 4668   4.912   6.464   6.035  1.8575 -3.4176  0.3671
   48CHL1    C7 4669   5.001   6.479   5.834  0.7390 -0.2305  0.2542
   48CHL1   H7A 4670   4.942   6.389   5.808 -1.3084  0.0182  3.4227
   48CHL1   H7B 4671   4.947   6.560   5.779  1.5007 -0.9051 -1.5207
   48CHL1    C8 4672   5.137   6.463   5.772 -0.1472 -0.2338 -0.0982
   48CHL1    H8 4673   5.181   6.364   5.797 -0.3873 -0.4125 -0.3725
   48CHL1   C14 4674   5.137   6.487   5.621  0.4852  0.1436  0.4032
   48CHL1   H14 4675   5.112   6.595   5.618 -1.7971 -0.3550 -0.8077
   48CHL1   C15 4676   5.032   6.403   5.544 -0.1235 -0.6236 -0.0201
   48CHL1  H15A 4677   5.042   6.293   5.557  4.1087 -0.7976 -2.6684
   48CHL1  H15B 4678   4.925   6.430   5.557 -0.2645 -1.1267 -0.1135
   48CHL1   C16 4679   5.071   6.432   5.399  0.2906 -0.4590 -0.1120
   48CHL1  H16A 4680   5.055   6.341   5.337 -0.4169  0.3281 -1.1182
   48CHL1  H16B 4681   5.007   6.515   5.362  0.3560  0.0823  0.9555
   48CHL1   C17 4682   5.217   6.497   5.397  0.3629  0.1271 -0.2295
   48CHL1   H17 4683   5.192   6.605   5.396 -0.5001 -0.0599  0.3926
   48CHL1   C13 4684   5.261   6.481   5.541  0.1069 -0.5958  0.4116
   48CHL1   C18 4685   5.325   6.339   5.547  0.1008 -0.1947 -0.0753
   48CHL1  H18A 4686   5.351   6.329   5.654 -2.9429 -2.3906  0.6105
   48CHL1  H18B 4687   5.263   6.249   5.526  0.9015 -0.8507  0.3254
   48CHL1  H18C 4688   5.423   6.323   5.498 -1.3727  1.2680 -3.8593
   48CHL1   C12 4689   5.359   6.586   5.594 -0.2943 -0.0612 -0.2176
   48CHL1  H12A 4690   5.458   6.575   5.547 -1.4902 -1.2626 -2.6248
   48CHL1  H12B 4691   5.319   6.687   5.571  1.6323  0.3335 -2.0228
   48CHL1   C11 4692   5.369   6.567   5.749  0.2583  0.4874 -0.2866
   48CHL1  H11A 4693   5.431   6.476   5.763 -0.2169  0.2365  0.2108
   48CHL1  H11B 4694   5.429   6.652   5.786  1.0127  1.1381 -2.8377
   48CHL1    C9 4695   5.233   6.566   5.826 -0.8552 -0.0567 -0.2154
   48CHL1    H9 4696   5.196   6.670   5.810  0.7263  0.4269 -0.8653
   48CHL1   C10 4697   5.253   6.549   5.979  0.4339 -0.9042 -0.3655
   48CHL1   C19 4698   5.347   6.428   6.008  0.1787  0.8460  0.1342
   48CHL1  H19A 4699   5.317   6.344   5.943  1.9260  1.2267 -1.2332
   48CHL1  H19B 4700   5.448   6.458   5.973  1.3892  0.3969  2.9471
   48CHL1  H19C 4701   5.351   6.382   6.109 -0.4192  0.6660  0.0761
   48CHL1    C1 4702   5.306   6.681   6.041  0.1446 -0.0611 -0.1309
   48CHL1   H1A 4703   5.414   6.704   6.027  0.6681 -1.2366  1.6408
   48CHL1   H1B 4704   5.243   6.766   6.009 -0.3719 -0.1679  0.5946
   48CHL1    C2 4705   5.295   6.671   6.195  0.4115 -0.5360 -0.3829
   48CHL1   H2A 4706   5.339   6.761   6.242 -0.8989 -0.5676  0.9592
   48CHL1   H2B 4707   5.359   6.588   6.231  1.8821  1.2111  1.2550
   48CHL1   C20 4708   5.316   6.457   5.280 -0.6860  0.6423  0.0005
   48CHL1   H20 4709   5.338   6.350   5.294  2.8703  1.0311 -1.6423
   48CHL1   C21 4710   5.448   6.539   5.293 -0.3947  0.5180  0.7535
   48CHL1  H21A 4711   5.418   6.646   5.290 -2.7672 -0.0805 -2.5099
   48CHL1  H21B 4712   5.512   6.507   5.378  1.2813 -0.6152 -0.8549
   48CHL1  H21C 4713   5.516   6.532   5.205  1.8564  0.9779  2.3451
   48CHL1   C22 4714   5.242   6.477   5.142 -0.7062  0.1963  0.1809
   48CHL1  H22A 4715   5.135   6.447   5.139 -0.1337 -2.4758  2.5368
   48CHL1  H22B 4716   5.232   6.584   5.114 -1.5065  0.2355  0.5900
   48CHL1   C23 4717   5.319   6.406   5.035  0.1937  0.3206  0.2830
   48CHL1  H23A 4718   5.424   6.442   5.026  0.0194  0.5874 -0.8948
   48CHL1  H23B 4719   5.320   6.299   5.064 -0.0580  0.6705  1.6545
   48CHL1   C24 4720   5.246   6.417   4.904 -0.5038 -0.9006 -0.1668
   48CHL1  H24A 4721   5.150   6.363   4.914 -0.7200 -0.4141  0.4028
   48CHL1  H24B 4722   5.237   6.525   4.879 -0.7194 -0.4828  1.5629
   48CHL1   C25 4723   5.317   6.349   4.787 -0.0782 -0.7005 -0.2545
   48CHL1   H25 4724   5.238   6.320   4.715  0.3720 -2.1440 -0.2098
   48CHL1   C26 4725   5.400   6.443   4.704 -1.0553 -0.9150  0.2592
   48CHL1  H26A 4726   5.498   6.458   4.755 -0.9568 -0.6699 -0.0009
   48CHL1  H26B 4727   5.425   6.394   4.607 -0.0765 -0.5794  0.3313
   48CHL1  H26C 4728   5.355   6.543   4.686  0.8214  0.3979  2.3084
   48CHL1   C27 4729   5.397   6.221   4.816 -0.5312  0.8631 -0.5316
   48CHL1  H27A 4730   5.438   6.182   4.720 -1.5747 -1.0235 -0.2657
   48CHL1  H27B 4731   5.479   6.230   4.890 -0.1708 -1.6815 -0.5248
   48CHL1  H27C 4732   5.328   6.147   4.860 -0.5184  2.2457  1.9663
   49CHL1    C3 4733   4.948   1.194   3.403 -0.5631 -0.3684 -0.7344
   49CHL1    H3 4734   5.041   1.139   3.431  0.6870  2.1950  0.5006
   49CHL1    O3 4735   4.916   1.194   3.264 -0.0767  0.8810  0.0608
   49CHL1   H3' 4736   4.945   1.107   3.237 -0.8536  0.9498 -1.0151
   49CHL1    C4 4737   4.832   1.140   3.491 -0.2112 -0.2479 -0.1292
   49CHL1   H4A 4738   4.744   1.198   3.458 -1.8852 -2.2805  0.5054
   49CHL1   H4B 4739   4.804   1.039   3.453  1.0177 -0.5093 -0.3845
   49CHL1    C5 4740   4.856   1.138   3.641 -0.5788 -0.8887  0.6292
   49CHL1    C6 4741   4.867   1.021   3.709 -0.0775 -0.5859  0.2106
   49CHL1    H6 4742   4.858   0.925   3.656 -3.3957 -1.3816  1.9464
   49CHL1    C7 4743   4.914   1.021   3.849  0.2891  0.2336  0.2995
   49CHL1   H7A 4744   4.859   0.943   3.907 -1.1875  0.1663 -1.1012
   49CHL1   H7B 4745   5.021   0.994   3.856  0.1849 -0.7614 -1.3133
   49CHL1    C8 4746   4.898   1.155   3.925 -0.3158  0.2372  0.8120
   49CHL1    H8 4747   4.788   1.171   3.934  0.1060  3.1133  1.7339
   49CHL1   C14 4748   4.959   1.155   4.064  0.6386  0.4022 -0.3148
   49CHL1   H14 4749   5.065   1.127   4.044  0.4669  0.1615 -0.8845
   49CHL1   C15 4750   4.906   1.046   4.162 -0.1231 -0.3651  0.6768
   49CHL1  H15A 4751   4.796   1.052   4.150  0.1313 -1.1804 -4.7230
   49CHL1  H15B 4752   4.944   0.944   4.141 -0.6428 -0.7050  1.3309
   49CHL1   C16 4753   4.950   1.094   4.299 -0.0055  0.8307  0.4090
   49CHL1  H16A 4754   4.860   1.107   4.362  0.6740  2.7938  1.0537
   49CHL1  H16B 4755   5.018   1.020   4.347 -3.5552 -1.7662  1.8421
   49CHL1   C17 4756   5.008   1.233   4.278  0.5122 -0.8381  0.2887
   49CHL1   H17 4757   5.119   1.230   4.273  0.5528  0.6518 -0.4211
   49CHL1   C13 4758   4.955   1.284   4.141  0.0604 -1.1082 -0.0906
   49CHL1   C18 4759   4.812   1.337   4.159 -0.0459  0.0689  0.3539
   49CHL1  H18A 4760   4.752   1.281   4.234  0.2035  0.1379  0.6093
   49CHL1  H18B 4761   4.825   1.443   4.190  0.4823  0.5056 -1.2662
   49CHL1  H18C 4762   4.760   1.326   4.062  0.1271  1.9085  0.0274
   49CHL1   C12 4763   5.044   1.378   4.064 -0.1247  0.3423  1.2327
   49CHL1  H12A 4764   5.046   1.475   4.120  1.8032  0.2779  1.3441
   49CHL1  H12B 4765   5.145   1.331   4.064 -0.9443 -1.5054  0.0356
   49CHL1   C11 4766   4.999   1.391   3.914  0.1998  0.6113 -0.3276
   49CHL1  H11A 4767   4.910   1.454   3.935  0.1017 -0.3501  2.4835
   49CHL1  H11B 4768   5.072   1.457   3.861 -0.5664  3.6060  2.0212
   49CHL1    C9 4769   4.964   1.264   3.836 -0.1739 -0.2804 -0.0992
   49CHL1    H9 4770   5.060   1.213   3.812  0.6024  1.4521 -0.8265
   49CHL1   C10 4771   4.895   1.276   3.701 -0.7878 -0.0412  0.6408
   49CHL1   C19 4772   4.776   1.360   3.722  0.3376 -0.2249 -0.0762
   49CHL1  H19A 4773   4.809   1.466   3.723 -1.6066  0.4715 -1.7998
   49CHL1  H19B 4774   4.715   1.350   3.629 -0.0266  0.4987  0.0757
   49CHL1  H19C 4775   4.712   1.324   3.805 -0.6552 -0.8578 -1.0897
   49CHL1    C1 4776   4.998   1.343   3.605  0.4621 -0.3846 -1.0788
   49CHL1   H1A 4777   5.007   1.447   3.641 -0.5288 -0.1305 -1.5415
   49CHL1   H1B 4778   5.094   1.288   3.613  0.3282 -0.9102 -2.8009
   49CHL1    C2 4779   4.965   1.339   3.457 -0.7682  0.3084 -0.6420
   49CHL1   H2A 4780   5.036   1.395   3.392  1.4624 -2.8874 -1.1966
   49CHL1   H2B 4781   4.865   1.386   3.444 -0.1104  1.4080 -2.0011
   49CHL1   C20 4782   4.981   1.322   4.399  0.2268  0.2942 -0.2196
   49CHL1   H20 4783   4.871   1.330   4.410 -0.0048 -1.8848 -0.5342
   49CHL1   C21 4784   5.032   1.471   4.375  0.9823  0.3829 -0.2385
   49CHL1  H21A 4785   5.041   1.514   4.477  2.1253 -0.8522  0.2014
   49CHL1  H21B 4786   4.950   1.531   4.331  1.8568  0.1110 -2.3216
   49CHL1  H21C 4787   5.127   1.469   4.318  0.6179 -0.1033 -0.8355
   49CHL1   C22 4788   5.020   1.277   4.542 -0.9973  0.1684  0.3684
   49CHL1  H22A 4789   4.971   1.359   4.598 -2.8158 -1.2578  1.0012
   49CHL1  H22B 4790   4.970   1.179   4.563 -2.5104  0.8558  0.1309
   49CHL1   C23 4791   5.170   1.260   4.558  1.3760  0.1409 -0.4273
   49CHL1  H23A 4792   5.201   1.160   4.520 -0.0012 -0.4473 -0.0669
   49CHL1  H23B 4793   5.221   1.341   4.502  0.2003  0.3676 -1.2016
   49CHL1   C24 4794   5.209   1.278   4.701 -0.3812  0.0374 -0.4421
   49CHL1  H24A 4795   5.177   1.381   4.727  1.1632  0.5784 -0.6029
   49CHL1  H24B 4796   5.158   1.201   4.764 -0.4809  0.6913  0.2903
   49CHL1   C25 4797   5.358   1.263   4.732 -0.3310 -0.6276  0.1534
   49CHL1   H25 4798   5.396   1.165   4.696  0.6479  0.6096 -2.4087
   49CHL1   C26 4799   5.443   1.371   4.657  0.0792 -0.2614  0.1281
   49CHL1  H26A 4800   5.545   1.360   4.700  1.2522  0.7257 -2.1955
   49CHL1  H26B 4801   5.444   1.339   4.550 -1.8622 -3.8223  1.0176
   49CHL1  H26C 4802   5.398   1.468   4.686 -1.6808 -0.8864 -0.4077
   49CHL1   C27 4803   5.371   1.282   4.887  0.0922  0.0752  0.4258
   49CHL1  H27A 4804   5.478   1.298   4.913  0.3979  1.0652 -1.2577
   49CHL1  H27B 4805   5.311   1.372   4.914  0.0382  0.1686  0.0031
   49CHL1  H27C 4806   5.329   1.197   4.945 -2.1189 -0.1206 -1.3401
   50CHL1    C3 4807   5.822   3.802   6.555  0.5132  0.5817  0.0398
   50CHL1    H3 4808   5.812   3.698   6.518 -0.9440  1.4032 -2.0951
   50CHL1    O3 4809   5.832   3.802   6.692  0.3171  0.1490  0.5091
   50CHL1   H3' 4810   5.742   3.785   6.721  0.0957 -0.6866 -0.6058
   50CHL1    C4 4811   5.945   3.870   6.499  0.0299  0.1118  0.1664
   50CHL1   H4A 4812   5.954   3.979   6.521  2.0388 -0.2288  1.3417
   50CHL1   H4B 4813   6.032   3.819   6.545 -0.3536  0.2102  1.0292
   50CHL1    C5 4814   5.932   3.850   6.348  0.1430  0.2465  0.6493
   50CHL1    C6 4815   6.028   3.788   6.275  0.2783 -0.0088  0.4887
   50CHL1    H6 4816   6.113   3.740   6.326  0.4875 -1.5863 -1.2184
   50CHL1    C7 4817   6.031   3.790   6.128  0.3816  0.0878  0.1842
   50CHL1   H7A 4818   6.137   3.787   6.094 -0.0218 -1.2565 -1.0088
   50CHL1   H7B 4819   5.988   3.691   6.105  0.0960  0.2718 -0.0684
   50CHL1    C8 4820   5.936   3.896   6.059 -0.0472  0.6838  0.2606
   50CHL1    H8 4821   5.984   3.996   6.065  1.3121 -0.0193  2.3418
   50CHL1   C14 4822   5.901   3.860   5.910  0.5917 -0.0629 -0.5704
   50CHL1   H14 4823   5.848   3.764   5.926  0.7094 -0.1168 -0.4985
   50CHL1   C15 4824   6.014   3.816   5.817 -0.1519 -0.3618 -0.6786
   50CHL1  H15A 4825   6.095   3.885   5.850 -1.6814 -0.2494  3.4704
   50CHL1  H15B 4826   6.050   3.711   5.819  1.4683  0.1338  2.0482
   50CHL1   C16 4827   5.971   3.849   5.674 -0.2785 -0.2852  0.4162
   50CHL1  H16A 4828   6.034   3.926   5.623 -2.2553  0.3881 -1.1801
   50CHL1  H16B 4829   5.978   3.757   5.612  2.9277  1.5206 -2.2430
   50CHL1   C17 4830   5.824   3.897   5.690  0.1511 -0.4588 -0.2178
   50CHL1   H17 4831   5.755   3.811   5.683  0.5075 -0.9523  1.7388
   50CHL1   C13 4832   5.808   3.953   5.832 -0.2532 -1.3902 -0.6351
   50CHL1   C18 4833   5.863   4.093   5.843 -0.9878 -0.0858 -0.5937
   50CHL1  H18A 4834   5.801   4.162   5.783  0.3333  0.2223 -1.6486
   50CHL1  H18B 4835   5.868   4.122   5.950 -1.1594 -1.1277 -0.2903
   50CHL1  H18C 4836   5.968   4.102   5.808 -0.5957  0.1864  0.6198
   50CHL1   C12 4837   5.669   3.944   5.906 -0.5158 -1.2649  0.5125
   50CHL1  H12A 4838   5.607   4.025   5.861 -0.4818 -0.3559  2.0442
   50CHL1  H12B 4839   5.625   3.843   5.891 -1.6302 -0.7336  0.0914
   50CHL1   C11 4840   5.680   3.973   6.059 -0.3655 -0.1294 -0.1700
   50CHL1  H11A 4841   5.707   4.079   6.079 -1.9420  0.5483 -1.4551
   50CHL1  H11B 4842   5.585   3.943   6.107  0.4866 -0.9099  1.0884
   50CHL1    C9 4843   5.800   3.898   6.134 -0.1803  0.1076 -0.1212
   50CHL1    H9 4844   5.759   3.795   6.127 -1.8730  0.7380  0.0438
   50CHL1   C10 4845   5.807   3.925   6.281 -0.4207 -0.1722  0.1385
   50CHL1   C19 4846   5.821   4.078   6.299  0.6457 -0.3322  1.0715
   50CHL1  H19A 4847   5.724   4.131   6.290  1.2368  0.6296  0.1494
   50CHL1  H19B 4848   5.867   4.111   6.394  3.3389 -0.3268 -0.1260
   50CHL1  H19C 4849   5.894   4.111   6.221 -0.4152  1.1402  0.6631
   50CHL1    C1 4850   5.679   3.874   6.355 -0.2730 -0.2324  0.0481
   50CHL1   H1A 4851   5.590   3.930   6.321 -0.0197 -0.5831 -1.2425
   50CHL1   H1B 4852   5.661   3.770   6.322  0.5171 -0.1953 -0.5346
   50CHL1    C2 4853   5.696   3.878   6.511  0.3606  0.5403  0.3310
   50CHL1   H2A 4854   5.608   3.855   6.574  1.6656  0.3191  2.1602
   50CHL1   H2B 4855   5.714   3.985   6.535  1.9668  0.2065  0.7499
   50CHL1   C20 4856   5.779   3.987   5.573  0.4716  0.1446 -0.4996
   50CHL1   H20 4857   5.832   4.085   5.572 -0.6450  0.7809  0.1779
   50CHL1   C21 4858   5.627   4.020   5.590  0.5098  0.2623  0.5848
   50CHL1  H21A 4859   5.604   4.092   5.509 -2.1414 -0.2560  0.7756
   50CHL1  H21B 4860   5.600   4.071   5.685  1.2181 -1.6120  1.8414
   50CHL1  H21C 4861   5.561   3.932   5.574 -0.9904  1.4005  0.2448
   50CHL1   C22 4862   5.806   3.922   5.433 -0.2650 -0.0072  0.4293
   50CHL1  H22A 4863   5.913   3.891   5.426 -0.7933 -1.7141 -1.2457
   50CHL1  H22B 4864   5.744   3.829   5.431  0.3036 -0.4599  2.4144
   50CHL1   C23 4865   5.781   4.014   5.303 -0.3079  0.4103 -0.4395
   50CHL1  H23A 4866   5.674   4.046   5.304 -0.1507  0.9368 -0.2980
   50CHL1  H23B 4867   5.843   4.104   5.323  1.3856 -1.1950  2.1810
   50CHL1   C24 4868   5.817   3.933   5.178 -0.4768 -0.2144  0.0741
   50CHL1  H24A 4869   5.922   3.901   5.192 -0.5927 -0.4810  0.3671
   50CHL1  H24B 4870   5.757   3.840   5.161 -1.6174  0.8811 -2.4342
   50CHL1   C25 4871   5.794   4.020   5.057 -0.4487 -0.3981  0.7760
   50CHL1   H25 4872   5.844   4.118   5.072  0.8542 -0.9560  0.2094
   50CHL1   C26 4873   5.845   3.944   4.933 -0.3254  0.1509 -0.0659
   50CHL1  H26A 4874   5.836   4.006   4.840  0.0399  0.7963  0.3202
   50CHL1  H26B 4875   5.955   3.929   4.935 -0.0429  1.3537 -2.4075
   50CHL1  H26C 4876   5.800   3.845   4.910 -0.9405  0.4605 -0.2426
   50CHL1   C27 4877   5.643   4.057   5.026 -0.0126 -0.2507 -0.3143
   50CHL1  H27A 4878   5.626   4.135   4.948  0.1433 -0.8309 -0.9372
   50CHL1  H27B 4879   5.582   3.965   5.016  0.0188 -0.1121 -2.1559
   50CHL1  H27C 4880   5.600   4.110   5.114 -2.4410 -0.4351 -1.3106
   51CHL1    C3 4881   5.193   3.708   3.046 -0.0403  0.1021 -0.4447
   51CHL1    H3 4882   5.279   3.777   3.041  1.4893 -1.7287 -0.4010
   51CHL1    O3 4883   5.135   3.689   2.918  0.5090  0.1374 -0.1856
   51CHL1   H3' 4884   5.092   3.774   2.902  0.1263  0.2724  1.3840
   51CHL1    C4 4885   5.244   3.573   3.108  0.3045  0.3072 -0.1020
   51CHL1   H4A 4886   5.167   3.496   3.083 -0.2166  0.5768  0.6269
   51CHL1   H4B 4887   5.332   3.535   3.052  1.5050  0.9895  1.2472
   51CHL1    C5 4888   5.277   3.570   3.258 -0.1057 -0.0252 -0.5708
   51CHL1    C6 4889   5.395   3.540   3.309 -0.0966 -0.3248  0.2132
   51CHL1    H6 4890   5.471   3.516   3.233  0.7619 -0.5502  1.1174
   51CHL1    C7 4891   5.428   3.542   3.456  0.3245  0.3042  0.0856
   51CHL1   H7A 4892   5.489   3.450   3.473 -0.0049  0.1279  0.3247
   51CHL1   H7B 4893   5.495   3.627   3.480 -0.4467  1.1163 -0.5574
   51CHL1    C8 4894   5.302   3.546   3.548 -0.1000  0.3860  0.1242
   51CHL1    H8 4895   5.259   3.443   3.547  1.8021 -0.4533 -0.8341
   51CHL1   C14 4896   5.335   3.581   3.688 -0.3647 -0.7811  0.1040
   51CHL1   H14 4897   5.363   3.688   3.676 -0.9836 -0.3655  2.0293
   51CHL1   C15 4898   5.449   3.512   3.763 -0.1253  0.3820 -0.6246
   51CHL1  H15A 4899   5.456   3.402   3.746  1.7329 -0.1993  2.8737
   51CHL1  H15B 4900   5.546   3.555   3.732 -0.2414  0.5406 -0.7680
   51CHL1   C16 4901   5.416   3.527   3.915 -0.0515  0.0635  0.0566
   51CHL1  H16A 4902   5.400   3.426   3.959 -0.6451 -1.1764 -2.7561
   51CHL1  H16B 4903   5.509   3.572   3.956 -0.1780 -0.7304  1.2763
   51CHL1   C17 4904   5.291   3.618   3.915  0.3773 -0.8128 -0.5213
   51CHL1   H17 4905   5.333   3.718   3.893  0.4129 -0.6844  0.0997
   51CHL1   C13 4906   5.212   3.589   3.786  0.1320 -0.0013  0.3993
   51CHL1   C18 4907   5.146   3.447   3.796 -0.0869 -0.9778 -0.2870
   51CHL1  H18A 4908   5.065   3.446   3.873 -2.4098 -1.3701 -2.6194
   51CHL1  H18B 4909   5.095   3.435   3.699 -1.5570  1.3213  0.1240
   51CHL1  H18C 4910   5.218   3.365   3.820 -0.9873 -1.5575  0.5372
   51CHL1   C12 4911   5.110   3.691   3.734  0.3507 -0.5262  0.1821
   51CHL1  H12A 4912   5.017   3.701   3.795 -1.3693  1.2617 -2.5038
   51CHL1  H12B 4913   5.154   3.793   3.731  0.3857 -0.5637 -1.0843
   51CHL1   C11 4914   5.070   3.655   3.588 -0.7018 -0.3536  0.0016
   51CHL1  H11A 4915   5.007   3.565   3.596 -2.5157  0.8841  0.2700
   51CHL1  H11B 4916   5.007   3.736   3.547 -0.6795 -1.1033 -1.5760
   51CHL1    C9 4917   5.194   3.639   3.496 -0.3610  0.2464 -0.2987
   51CHL1    H9 4918   5.250   3.735   3.499  0.6105 -0.1274 -3.0598
   51CHL1   C10 4919   5.156   3.616   3.349 -0.2330 -0.4369 -0.1872
   51CHL1   C19 4920   5.039   3.510   3.347 -0.1814  0.1418  0.0644
   51CHL1  H19A 4921   4.944   3.553   3.384 -0.0229  0.0504  0.5808
   51CHL1  H19B 4922   5.020   3.472   3.244 -2.5382 -0.3707  0.6379
   51CHL1  H19C 4923   5.073   3.428   3.414 -2.0513  0.7675  1.8714
   51CHL1    C1 4924   5.104   3.751   3.285 -0.4029  0.6545 -0.0325
   51CHL1   H1A 4925   5.008   3.770   3.338 -1.0750 -0.5598 -0.7610
   51CHL1   H1B 4926   5.178   3.828   3.318  1.8313 -1.7081  0.8126
   51CHL1    C2 4927   5.075   3.756   3.127 -0.5501 -0.3658 -0.0725
   51CHL1   H2A 4928   5.047   3.860   3.102 -0.3588 -0.5631 -1.1507
   51CHL1   H2B 4929   4.985   3.694   3.107 -0.0942 -0.4930 -1.9722
   51CHL1   C20 4930   5.209   3.632   4.049  0.3017 -0.1071 -0.1076
   51CHL1   H20 4931   5.156   3.534   4.054 -0.6477  0.4350  0.6189
   51CHL1   C21 4932   5.115   3.759   4.053  0.0192 -0.1779  0.4042
   51CHL1  H21A 4933   5.035   3.755   4.130 -3.3534  2.4380 -2.5922
   51CHL1  H21B 4934   5.071   3.773   3.952  0.9733 -0.6710 -0.0963
   51CHL1  H21C 4935   5.166   3.852   4.083 -2.6837  1.3921  0.4617
   51CHL1   C22 4936   5.303   3.643   4.177 -0.5145 -0.5488  0.0227
   51CHL1  H22A 4937   5.366   3.552   4.176 -0.5346 -0.5598 -0.5252
   51CHL1  H22B 4938   5.372   3.730   4.177 -0.6359 -0.4121 -1.8395
   51CHL1   C23 4939   5.222   3.644   4.308 -0.5114  0.0179  0.0915
   51CHL1  H23A 4940   5.154   3.732   4.321  0.2955  0.7866 -0.7710
   51CHL1  H23B 4941   5.179   3.542   4.316  0.2771 -0.2319  1.4092
   51CHL1   C24 4942   5.306   3.661   4.437  0.8610  0.3041  0.0012
   51CHL1  H24A 4943   5.388   3.586   4.439 -1.0117 -1.8435  1.0964
   51CHL1  H24B 4944   5.359   3.758   4.429  0.4972  0.5542  0.5266
   51CHL1   C25 4945   5.237   3.648   4.575  0.1360 -0.2570 -0.3639
   51CHL1   H25 4946   5.165   3.730   4.591  1.3530  1.2675 -2.2695
   51CHL1   C26 4947   5.188   3.501   4.590 -0.2791  0.0494 -0.8332
   51CHL1  H26A 4948   5.271   3.427   4.585 -2.0479 -2.8475  4.4985
   51CHL1  H26B 4949   5.149   3.483   4.693 -0.8771 -0.7140 -1.1740
   51CHL1  H26C 4950   5.106   3.466   4.523 -1.8266 -0.8270  1.3818
   51CHL1   C27 4951   5.341   3.669   4.684 -0.3397 -0.1808  0.3672
   51CHL1  H27A 4952   5.286   3.656   4.780 -2.3076  0.4186 -0.6416
   51CHL1  H27B 4953   5.418   3.588   4.678  0.9934  0.9103  1.6950
   51CHL1  H27C 4954   5.396   3.764   4.673  1.5056 -1.0906  1.1986
   52CHL1    C3 4955   3.813   1.703   3.512 -0.0195  0.1860  0.1198
   52CHL1    H3 4956   3.755   1.609   3.528 -1.4252  1.0420  0.1921
   52CHL1    O3 4957   3.813   1.727   3.371 -0.3145 -0.6306 -0.1520
   52CHL1   H3' 4958   3.830   1.647   3.322 -1.3913 -0.6648 -0.5044
   52CHL1    C4 4959   3.751   1.827   3.578  0.7069 -1.0160 -0.9533
   52CHL1   H4A 4960   3.808   1.917   3.548 -0.3768  0.0398  0.0644
   52CHL1   H4B 4961   3.651   1.861   3.544  1.8952  3.1583 -0.8184
   52CHL1    C5 4962   3.750   1.808   3.725 -0.0279 -0.1740  0.6580
   52CHL1    C6 4963   3.641   1.803   3.799 -0.2141  0.1887  0.0196
   52CHL1    H6 4964   3.548   1.827   3.744 -0.8993 -1.4512  0.3990
   52CHL1    C7 4965   3.640   1.786   3.947  0.2428  0.2967 -0.3553
   52CHL1   H7A 4966   3.568   1.852   4.000  0.6061 -0.4876  1.1599
   52CHL1   H7B 4967   3.612   1.682   3.976 -0.0751  0.7366  0.9905
   52CHL1    C8 4968   3.775   1.832   4.007  0.0403  0.1708 -0.2117
   52CHL1    H8 4969   3.776   1.943   3.999 -0.2194  0.3894  2.2270
   52CHL1   C14 4970   3.783   1.794   4.160 -0.6166 -0.4958  0.2350
   52CHL1   H14 4971   3.787   1.684   4.167 -2.0824 -0.6732 -1.1069
   52CHL1   C15 4972   3.671   1.832   4.263 -0.5610 -0.5385  0.1229
   52CHL1  H15A 4973   3.645   1.938   4.247  1.1112  0.1377  1.5450
   52CHL1  H15B 4974   3.578   1.772   4.260 -0.7892 -0.3012  1.6860
   52CHL1   C16 4975   3.735   1.819   4.405 -0.0158  0.0202  0.4122
   52CHL1  H16A 4976   3.705   1.901   4.474 -0.8981 -0.0177  0.0878
   52CHL1  H16B 4977   3.679   1.733   4.446 -0.3585 -0.1589 -0.4154
   52CHL1   C17 4978   3.882   1.788   4.383 -0.7725 -0.1233 -0.1858
   52CHL1   H17 4979   3.893   1.678   4.375  1.3041  0.1297 -1.9442
   52CHL1   C13 4980   3.913   1.832   4.237  0.3767  0.2273  0.3322
   52CHL1   C18 4981   3.932   1.985   4.227 -0.0261 -0.0344  0.0545
   52CHL1  H18A 4982   3.840   2.043   4.251  0.0595  0.4026 -0.6498
   52CHL1  H18B 4983   4.022   2.023   4.279  1.4262  0.2260 -2.4545
   52CHL1  H18C 4984   3.950   2.002   4.118 -1.9675 -0.5135 -0.3855
   52CHL1   C12 4985   4.028   1.753   4.168  0.3310  0.6012 -0.0135
   52CHL1  H12A 4986   4.125   1.792   4.205 -0.4537  2.2992  0.3474
   52CHL1  H12B 4987   4.029   1.645   4.195  2.3424  0.7509  0.7076
   52CHL1   C11 4988   4.031   1.776   4.012 -0.6328 -0.0853 -0.3801
   52CHL1  H11A 4989   4.072   1.877   3.991  0.9183 -1.0434 -2.4524
   52CHL1  H11B 4990   4.090   1.692   3.968 -2.7777 -1.2264 -1.2068
   52CHL1    C9 4991   3.893   1.763   3.940  0.0668  0.1496 -0.2115
   52CHL1    H9 4992   3.859   1.657   3.942 -0.6018  0.3370 -1.0216
   52CHL1   C10 4993   3.893   1.797   3.789 -0.2199 -0.3543  0.3464
   52CHL1   C19 4994   3.976   1.926   3.764  0.7646  1.2431  0.3899
   52CHL1  H19A 4995   3.978   1.962   3.659  1.2493  2.1863  0.7167
   52CHL1  H19B 4996   3.921   2.002   3.823 -0.6703  0.6879 -0.2006
   52CHL1  H19C 4997   4.081   1.914   3.800  1.2153  1.7278 -0.7112
   52CHL1    C1 4998   3.967   1.682   3.706 -0.1158  0.3367 -0.6346
   52CHL1   H1A 4999   4.071   1.689   3.745 -0.2149  2.2663 -0.6243
   52CHL1   H1B 5000   3.925   1.586   3.743  2.4429 -0.2476  1.0383
   52CHL1    C2 5001   3.960   1.686   3.555  0.3222  0.0313 -0.5265
   52CHL1   H2A 5002   4.011   1.595   3.516 -0.7166 -0.4097 -0.8735
   52CHL1   H2B 5003   4.020   1.771   3.515  2.6837 -2.0148 -1.6322
   52CHL1   C20 5004   3.977   1.840   4.493 -0.0805  0.9288  0.3674
   52CHL1   H20 5005   3.965   1.950   4.501  2.2293  1.1516  1.8080
   52CHL1   C21 5006   4.127   1.800   4.471  0.1995 -0.3162  0.3436
   52CHL1  H21A 5007   4.175   1.878   4.408  0.4445 -0.5943  0.1822
   52CHL1  H21B 5008   4.146   1.695   4.441  2.5266  0.5926 -1.6699
   52CHL1  H21C 5009   4.183   1.811   4.567  1.7240  2.6793 -0.7424
   52CHL1   C22 5010   3.945   1.774   4.630  0.0310 -0.1660 -0.4200
   52CHL1  H22A 5011   3.848   1.722   4.638  0.5816 -1.0001  1.4736
   52CHL1  H22B 5012   4.031   1.706   4.648  2.1057  1.8849 -1.9054
   52CHL1   C23 5013   3.937   1.886   4.744  0.4245  0.4702  1.0117
   52CHL1  H23A 5014   3.897   1.837   4.835 -1.4607  0.4440  0.2189
   52CHL1  H23B 5015   4.030   1.946   4.760 -0.7104  3.4726 -2.2862
   52CHL1   C24 5016   3.835   1.999   4.719  0.5102 -0.2511  0.6845
   52CHL1  H24A 5017   3.869   2.062   4.635 -0.2407 -0.1601  0.4484
   52CHL1  H24B 5018   3.741   1.953   4.682  1.8929 -1.3351 -1.6584
   52CHL1   C25 5019   3.804   2.082   4.843 -0.2311  0.0147 -0.6978
   52CHL1   H25 5020   3.771   2.007   4.918  1.0608 -1.5765 -1.6658
   52CHL1   C26 5021   3.923   2.163   4.896  0.5298  0.1709  0.0103
   52CHL1  H26A 5022   3.956   2.233   4.817 -1.6919  1.5781  0.2333
   52CHL1  H26B 5023   3.875   2.218   4.980  2.1293 -0.5791  1.4606
   52CHL1  H26C 5024   4.005   2.107   4.945  2.3179  1.2528 -1.6159
   52CHL1   C27 5025   3.687   2.175   4.802 -0.9004  0.0511 -0.3120
   52CHL1  H27A 5026   3.672   2.244   4.888  1.3554 -0.0884  0.2684
   52CHL1  H27B 5027   3.718   2.237   4.715  0.5267 -0.4621 -0.1951
   52CHL1  H27C 5028   3.592   2.122   4.779  0.0982 -2.6340  1.2986
   53CHL1    C3 5029   3.663   6.144   3.330 -0.3576 -0.2595 -0.1282
   53CHL1    H3 5030   3.679   6.045   3.380 -1.0023 -0.2691  0.0681
   53CHL1    O3 5031   3.671   6.118   3.191 -0.2642  0.1189 -0.1528
   53CHL1   H3' 5032   3.722   6.193   3.158  0.7842 -1.1400 -1.5264
   53CHL1    C4 5033   3.528   6.202   3.362 -0.1816 -0.1379  0.0785
   53CHL1   H4A 5034   3.511   6.289   3.295 -0.0626  0.7989  1.2378
   53CHL1   H4B 5035   3.448   6.128   3.340  0.4457 -1.2229  1.3251
   53CHL1    C5 5036   3.514   6.249   3.507  0.0310  0.6963  0.6241
   53CHL1    C6 5037   3.417   6.207   3.592  0.5830  0.2595 -0.0843
   53CHL1    H6 5038   3.344   6.130   3.562  1.9264 -1.2752  0.4540
   53CHL1    C7 5039   3.414   6.233   3.735 -0.8016  0.7840  0.2846
   53CHL1   H7A 5040   3.310   6.243   3.772 -0.4426 -0.1001  1.6276
   53CHL1   H7B 5041   3.449   6.137   3.779 -2.3712 -0.3040 -0.7060
   53CHL1    C8 5042   3.492   6.352   3.784 -0.0794 -0.1361 -0.0709
   53CHL1    H8 5043   3.443   6.449   3.759  2.3531  0.3730 -3.5097
   53CHL1   C14 5044   3.521   6.343   3.931  1.0260  0.9132  0.3495
   53CHL1   H14 5045   3.579   6.249   3.937  0.0219  0.0769 -1.7684
   53CHL1   C15 5046   3.390   6.341   4.020 -1.0281 -0.0960  0.0713
   53CHL1  H15A 5047   3.311   6.406   3.977  1.3359  2.4421 -0.7130
   53CHL1  H15B 5048   3.343   6.242   4.041 -4.7557  1.6224  0.6226
   53CHL1   C16 5049   3.442   6.395   4.153  0.2838 -0.0177  0.3543
   53CHL1  H16A 5050   3.379   6.476   4.193 -2.5192 -2.0242  0.2903
   53CHL1  H16B 5051   3.439   6.315   4.230  0.9206  0.4388  0.8702
   53CHL1   C17 5052   3.592   6.434   4.127  0.0540 -0.4954 -0.9201
   53CHL1   H17 5053   3.646   6.339   4.146 -1.1709 -0.8321  1.1611
   53CHL1   C13 5054   3.598   6.461   3.982 -0.0203  0.3331  0.1136
   53CHL1   C18 5055   3.534   6.604   3.956  0.2430  0.1951 -0.0457
   53CHL1  H18A 5056   3.440   6.614   4.013  1.0174 -0.1119  1.3350
   53CHL1  H18B 5057   3.602   6.684   3.991  0.1030  0.7317 -0.9689
   53CHL1  H18C 5058   3.515   6.619   3.848 -1.4756  0.0872  0.2177
   53CHL1   C12 5059   3.734   6.457   3.914  0.3764 -0.2503  0.5917
   53CHL1  H12A 5060   3.795   6.539   3.959  0.0335  0.8521 -0.8547
   53CHL1  H12B 5061   3.773   6.361   3.953 -0.6960 -0.0157  2.3715
   53CHL1   C11 5062   3.728   6.467   3.760 -0.2129  0.1763 -0.4654
   53CHL1  H11A 5063   3.686   6.566   3.731 -0.3204  0.0484 -0.7409
   53CHL1  H11B 5064   3.828   6.471   3.713  0.7819  1.4987  1.6195
   53CHL1    C9 5065   3.629   6.354   3.713  0.2108  0.0054  0.4181
   53CHL1    H9 5066   3.676   6.261   3.750 -0.5106 -0.7127 -0.4239
   53CHL1   C10 5067   3.625   6.343   3.554 -0.3757 -0.0328 -0.2032
   53CHL1   C19 5068   3.592   6.488   3.511  0.2885 -0.0488 -0.2514
   53CHL1  H19A 5069   3.561   6.494   3.404 -2.3359  0.5480  0.4656
   53CHL1  H19B 5070   3.494   6.524   3.549 -0.9969 -1.0632 -2.4086
   53CHL1  H19C 5071   3.672   6.560   3.536  0.2322 -0.0980  0.0751
   53CHL1    C1 5072   3.772   6.287   3.511 -0.0269 -0.3030 -0.2691
   53CHL1   H1A 5073   3.849   6.366   3.522 -0.3435  0.4106 -2.5983
   53CHL1   H1B 5074   3.787   6.199   3.578  1.2841  0.2842  0.2400
   53CHL1    C2 5075   3.777   6.249   3.362 -0.4236  0.3041  0.3508
   53CHL1   H2A 5076   3.873   6.206   3.325 -0.7166 -0.2944  0.2768
   53CHL1   H2B 5077   3.752   6.338   3.301 -0.2728 -0.5503 -1.0044
   53CHL1   C20 5078   3.655   6.536   4.223 -0.7782  0.3797  0.4131
   53CHL1   H20 5079   3.677   6.631   4.171  0.8739 -1.6683 -2.9783
   53CHL1   C21 5080   3.794   6.476   4.255 -0.5633  0.1073  0.0998
   53CHL1  H21A 5081   3.844   6.427   4.169  2.7156  1.8855  0.8267
   53CHL1  H21B 5082   3.789   6.403   4.339 -0.6545  2.4601  2.2473
   53CHL1  H21C 5083   3.857   6.558   4.294 -0.1726  0.2598 -0.8224
   53CHL1   C22 5084   3.576   6.561   4.360  0.1124 -0.3184 -0.2156
   53CHL1  H22A 5085   3.480   6.614   4.341 -0.4030 -0.9563  0.5522
   53CHL1  H22B 5086   3.537   6.467   4.404 -0.1624 -1.0486 -1.9492
   53CHL1   C23 5087   3.666   6.633   4.465 -0.4696 -0.3168 -0.1750
   53CHL1  H23A 5088   3.743   6.561   4.500  0.8785 -0.7017 -3.5261
   53CHL1  H23B 5089   3.708   6.722   4.413 -0.7628 -0.0044  0.1173
   53CHL1   C24 5090   3.590   6.685   4.586  0.9370  1.4187 -0.7585
   53CHL1  H24A 5091   3.516   6.760   4.550  0.8788  0.5061 -2.6136
   53CHL1  H24B 5092   3.532   6.611   4.646  0.7876  1.2238 -1.1425
   53CHL1   C25 5093   3.684   6.750   4.696  0.3486  0.0996 -0.2557
   53CHL1   H25 5094   3.749   6.664   4.722 -0.8430 -0.5895  0.4661
   53CHL1   C26 5095   3.784   6.859   4.645  0.1916  0.3352  0.3179
   53CHL1  H26A 5096   3.856   6.878   4.727 -0.9212 -0.3242  1.4830
   53CHL1  H26B 5097   3.838   6.826   4.553  2.0215  0.7454  1.1972
   53CHL1  H26C 5098   3.732   6.956   4.628 -0.9041 -0.0169  1.5017
   53CHL1   C27 5099   3.608   6.812   4.813  0.0653 -0.7324 -0.5332
   53CHL1  H27A 5100   3.555   6.906   4.784 -0.8171  0.3820  3.9367
   53CHL1  H27B 5101   3.529   6.743   4.847 -1.3582  0.3574 -1.5024
   53CHL1  H27C 5102   3.677   6.854   4.889  0.6859 -0.5128 -1.2048
   54CHL1    C3 5103   4.796   0.645   3.162  0.2530 -0.0273 -0.2476
   54CHL1    H3 5104   4.900   0.682   3.178  0.1404 -0.3789  1.4965
   54CHL1    O3 5105   4.765   0.648   3.022  0.3901 -0.1967 -0.4929
   54CHL1   H3' 5106   4.685   0.595   3.019 -0.0521  0.4971 -2.1284
   54CHL1    C4 5107   4.787   0.498   3.203  0.2031  0.5766  0.0557
   54CHL1   H4A 5108   4.680   0.473   3.185 -0.0389  0.8011  1.1274
   54CHL1   H4B 5109   4.851   0.439   3.134  0.2428  0.1689  0.4328
   54CHL1    C5 5110   4.821   0.493   3.347  0.8287  0.3724  0.2707
   54CHL1    C6 5111   4.921   0.414   3.385 -0.1778  0.7197 -0.9386
   54CHL1    H6 5112   4.989   0.366   3.314  0.6216  0.7016 -0.1768
   54CHL1    C7 5113   4.958   0.396   3.528 -0.1130  0.1289  0.1227
   54CHL1   H7A 5114   4.983   0.289   3.543  3.1182  0.5901 -1.0174
   54CHL1   H7B 5115   5.048   0.456   3.553  0.5875  1.0124 -3.8002
   54CHL1    C8 5116   4.842   0.447   3.626  0.9446 -0.6807  0.2123
   54CHL1    H8 5117   4.756   0.377   3.623  0.0639  0.3741  0.5072
   54CHL1   C14 5118   4.888   0.453   3.774  0.9056  0.6658  0.0174
   54CHL1   H14 5119   4.979   0.516   3.765  0.8466  1.4098  3.3208
   54CHL1   C15 5120   4.939   0.323   3.840  0.2152 -0.0635 -0.0747
   54CHL1  H15A 5121   4.868   0.238   3.831  1.2334 -0.9316 -0.1306
   54CHL1  H15B 5122   5.032   0.289   3.788 -0.0098  0.9040 -1.1556
   54CHL1   C16 5123   4.950   0.360   3.991 -0.7130 -0.1518 -0.1915
   54CHL1  H16A 5124   4.893   0.281   4.045 -0.4921  0.2413  0.6388
   54CHL1  H16B 5125   5.056   0.351   4.023 -0.9694 -0.8516  0.4887
   54CHL1   C17 5126   4.893   0.498   4.010  0.3028 -0.4557 -1.2335
   54CHL1   H17 5127   4.980   0.566   4.003  0.8305 -0.9409  0.3365
   54CHL1   C13 5128   4.802   0.515   3.882  0.1618 -0.4150  0.2346
   54CHL1   C18 5129   4.664   0.444   3.895  0.0353 -0.1464 -0.0011
   54CHL1  H18A 5130   4.605   0.486   3.979  0.3038 -0.5839  0.4191
   54CHL1  H18B 5131   4.606   0.449   3.801 -0.0272  1.8554  0.1159
   54CHL1  H18C 5132   4.685   0.335   3.907 -0.4944 -0.3862 -1.1467
   54CHL1   C12 5133   4.772   0.655   3.838  0.8293 -0.7521 -0.6612
   54CHL1  H12A 5134   4.712   0.721   3.905  0.8230 -0.2318 -1.1643
   54CHL1  H12B 5135   4.869   0.709   3.839  0.3053  0.2607  1.3268
   54CHL1   C11 5136   4.710   0.668   3.697 -0.4046  0.6006 -0.3854
   54CHL1  H11A 5137   4.607   0.627   3.704  0.4972 -1.5575  1.2864
   54CHL1  H11B 5138   4.707   0.773   3.660 -1.3561  0.5165 -0.5782
   54CHL1    C9 5139   4.791   0.586   3.589 -0.1580  0.3318 -0.0621
   54CHL1    H9 5140   4.881   0.651   3.586  0.6187 -0.5781  2.0399
   54CHL1   C10 5141   4.734   0.579   3.443  0.2298 -0.1609  0.1349
   54CHL1   C19 5142   4.589   0.524   3.456 -0.4922 -0.0893 -0.8535
   54CHL1  H19A 5143   4.531   0.594   3.519 -1.0658 -0.4889 -0.9305
   54CHL1  H19B 5144   4.541   0.507   3.357 -0.6733 -0.2670 -0.7359
   54CHL1  H19C 5145   4.592   0.425   3.507 -1.1722 -1.0041 -2.5127
   54CHL1    C1 5146   4.722   0.725   3.387  0.3988 -0.1357 -0.2429
   54CHL1   H1A 5147   4.643   0.781   3.442  1.0174  0.1100  0.3998
   54CHL1   H1B 5148   4.814   0.783   3.410 -1.2932  1.6678  2.6379
   54CHL1    C2 5149   4.699   0.732   3.240  0.1077  0.2820  0.3474
   54CHL1   H2A 5150   4.704   0.833   3.195  0.0292  0.5985  1.0385
   54CHL1   H2B 5151   4.599   0.691   3.212 -0.8335  2.3523  0.5139
   54CHL1   C20 5152   4.835   0.517   4.150 -0.3048 -0.3241  0.1105
   54CHL1   H20 5153   4.752   0.444   4.164 -0.1647 -0.3579  0.8240
   54CHL1   C21 5154   4.784   0.662   4.172 -0.4073  0.1515  0.0918
   54CHL1  H21A 5155   4.857   0.739   4.140  0.0736  0.3506  1.6079
   54CHL1  H21B 5156   4.760   0.681   4.279  1.4480 -1.4385  0.8379
   54CHL1  H21C 5157   4.691   0.672   4.112  0.5138 -0.7458 -1.5476
   54CHL1   C22 5158   4.942   0.485   4.265  0.3093 -0.2349 -0.3320
   54CHL1  H22A 5159   4.887   0.488   4.362 -2.5682 -2.4841 -1.7507
   54CHL1  H22B 5160   4.976   0.381   4.248 -2.0417 -0.5370 -4.2315
   54CHL1   C23 5161   5.066   0.581   4.264  0.7630  0.2104 -0.4212
   54CHL1  H23A 5162   5.124   0.576   4.170  2.1681  0.0043  0.4323
   54CHL1  H23B 5163   5.038   0.689   4.255  1.8603  0.6581  1.0355
   54CHL1   C24 5164   5.165   0.579   4.389  0.5663 -0.4038 -0.3180
   54CHL1  H24A 5165   5.206   0.476   4.400  1.7550  0.0893  0.0821
   54CHL1  H24B 5166   5.252   0.635   4.348 -0.4631 -0.5926 -2.9163
   54CHL1   C25 5167   5.115   0.638   4.520 -0.3333  0.0405  0.0707
   54CHL1   H25 5168   5.038   0.568   4.559 -0.3843  0.4308  0.6841
   54CHL1   C26 5169   5.227   0.632   4.630 -0.2713  0.0814 -0.0183
   54CHL1  H26A 5170   5.319   0.671   4.581  0.1343 -0.9610 -0.1057
   54CHL1  H26B 5171   5.194   0.688   4.721 -2.0580 -0.4848 -0.2941
   54CHL1  H26C 5172   5.245   0.525   4.654  0.2976 -0.0679 -1.0735
   54CHL1   C27 5173   5.049   0.776   4.518  0.1614  0.6224 -0.5274
   54CHL1  H27A 5174   4.972   0.784   4.438 -0.5438 -0.7981 -0.0302
   54CHL1  H27B 5175   5.006   0.795   4.619 -1.0595 -2.1184 -0.4336
   54CHL1  H27C 5176   5.126   0.853   4.496 -1.7280  2.2314 -1.8668
   55CHL1    C3 5177   0.099   1.330   2.870  0.1241 -0.0393  0.0071
   55CHL1    H3 5178   0.180   1.259   2.897  1.5720  1.3494 -0.5087
   55CHL1    O3 5179   0.074   1.311   2.733 -0.3410  0.5226 -0.1960
   55CHL1   H3' 5180   0.134   1.365   2.681 -2.2187  1.6618 -1.3043
   55CHL1    C4 5181  -0.022   1.296   2.951 -0.1405  0.0535  0.2240
   55CHL1   H4A 5182  -0.119   1.340   2.922  0.0390 -0.4390 -1.1686
   55CHL1   H4B 5183  -0.039   1.188   2.932 -0.7833  0.2056 -0.0633
   55CHL1    C5 5184   0.007   1.325   3.094 -0.5171  0.8462 -0.1343
   55CHL1    C6 5185  -0.008   1.226   3.187  0.1995  0.3712  0.5357
   55CHL1    H6 5186  -0.040   1.124   3.163  1.4336 -0.4650  2.2872
   55CHL1    C7 5187   0.014   1.241   3.338  0.2926  0.4157  1.0701
   55CHL1   H7A 5188  -0.074   1.197   3.390  0.1443 -0.4900  0.0766
   55CHL1   H7B 5189   0.107   1.188   3.367  0.4175  0.0737  0.0796
   55CHL1    C8 5190   0.023   1.395   3.381 -0.9799 -1.1116  0.4259
   55CHL1    H8 5191  -0.079   1.435   3.365 -0.2097  0.8219  0.1936
   55CHL1   C14 5192   0.065   1.404   3.527 -0.9027  0.6722 -0.0349
   55CHL1   H14 5193   0.162   1.349   3.527 -1.8296 -1.0814  1.8423
   55CHL1   C15 5194  -0.020   1.331   3.633  0.1270  0.1090  0.7094
   55CHL1  H15A 5195  -0.124   1.364   3.615  0.3474  0.9011  0.8652
   55CHL1  H15B 5196  -0.013   1.220   3.633  1.7191  0.1308  2.8334
   55CHL1   C16 5197   0.024   1.383   3.764 -0.5163  0.3441 -0.0758
   55CHL1  H16A 5198  -0.068   1.387   3.827 -0.6903 -0.6625 -0.2597
   55CHL1  H16B 5199   0.086   1.310   3.819  0.5688  0.8379 -0.6146
   55CHL1   C17 5200   0.112   1.514   3.736  0.6505  0.1808 -0.0692
   55CHL1   H17 5201   0.218   1.480   3.746  0.5568  0.1832  1.0611
   55CHL1   C13 5202   0.098   1.545   3.582  0.1530  0.6174 -0.2522
   55CHL1   C18 5203  -0.030   1.629   3.556  0.1005 -0.1038  0.5001
   55CHL1  H18A 5204  -0.062   1.632   3.449  2.3017  0.5443 -0.2034
   55CHL1  H18B 5205  -0.113   1.579   3.610 -0.7115 -0.1137 -0.6962
   55CHL1  H18C 5206  -0.015   1.734   3.588  0.6455  0.3448 -1.1176
   55CHL1   C12 5207   0.213   1.598   3.488 -0.0352 -0.7343 -0.5217
   55CHL1  H12A 5208   0.230   1.706   3.506  2.6616 -0.9734 -1.1599
   55CHL1  H12B 5209   0.305   1.537   3.501 -0.6756 -2.3215 -2.7223
   55CHL1   C11 5210   0.172   1.596   3.337  0.5019 -0.5014  0.0915
   55CHL1  H11A 5211   0.093   1.673   3.323 -0.5503 -1.6477 -0.4513
   55CHL1  H11B 5212   0.253   1.622   3.265 -0.0456 -0.2927 -0.4511
   55CHL1    C9 5213   0.117   1.464   3.280 -0.7825 -0.4336  0.1087
   55CHL1    H9 5214   0.207   1.400   3.284  1.0055  1.9226  0.1346
   55CHL1   C10 5215   0.064   1.463   3.135  0.4264  0.1622 -0.4914
   55CHL1   C19 5216  -0.061   1.562   3.128 -0.2179 -0.3767  0.5520
   55CHL1  H19A 5217  -0.146   1.528   3.192 -0.5336 -0.0006  0.3372
   55CHL1  H19B 5218  -0.024   1.664   3.149 -0.3790 -0.2030  0.0095
   55CHL1  H19C 5219  -0.097   1.567   3.023  0.0333  0.4771  0.5057
   55CHL1    C1 5220   0.175   1.499   3.039 -0.2986  0.2307 -0.0364
   55CHL1   H1A 5221   0.210   1.603   3.060  3.5228 -1.0910  0.9697
   55CHL1   H1B 5222   0.264   1.441   3.071 -1.7355 -1.2515  1.4046
   55CHL1    C2 5223   0.154   1.475   2.889  0.5905 -0.3682  0.0212
   55CHL1   H2A 5224   0.248   1.481   2.829 -0.3786  0.9865 -1.4347
   55CHL1   H2B 5225   0.079   1.542   2.843 -0.3719 -1.5593 -0.1947
   55CHL1   C20 5226   0.093   1.630   3.837  0.4390  0.3832  0.1650
   55CHL1   H20 5227   0.018   1.705   3.805 -0.1482  0.6962  2.1165
   55CHL1   C21 5228   0.237   1.690   3.859  0.4634 -0.0942  0.4559
   55CHL1  H21A 5229   0.227   1.783   3.919 -0.9955 -0.5548  0.9906
   55CHL1  H21B 5230   0.277   1.720   3.759  0.6680  2.0436  1.1310
   55CHL1  H21C 5231   0.300   1.615   3.911  0.0142 -0.6549  0.2071
   55CHL1   C22 5232   0.051   1.579   3.977 -1.0235  0.1081  0.3355
   55CHL1  H22A 5233  -0.058   1.555   3.977 -1.0712  0.1956  2.3830
   55CHL1  H22B 5234   0.106   1.487   4.005  0.0065  0.0803 -1.5604
   55CHL1   C23 5235   0.065   1.679   4.088  0.4305  0.4151 -0.3372
   55CHL1  H23A 5236   0.171   1.710   4.098  0.8940 -1.2094  0.0418
   55CHL1  H23B 5237   0.005   1.767   4.056 -0.9390 -0.4283 -0.1660
   55CHL1   C24 5238  -0.012   1.624   4.211  0.1553  0.4074  0.0768
   55CHL1  H24A 5239  -0.109   1.596   4.167 -0.3744  1.7492  0.3465
   55CHL1  H24B 5240   0.050   1.536   4.240 -0.5615 -0.3870 -0.7751
   55CHL1   C25 5241  -0.026   1.722   4.326  0.5323 -0.2791  0.5523
   55CHL1   H25 5242  -0.065   1.817   4.284  0.1592 -0.4450  0.5173
   55CHL1   C26 5243  -0.109   1.671   4.440  0.4413 -0.0684  0.6445
   55CHL1  H26A 5244  -0.079   1.571   4.476 -0.0489 -0.6280 -0.4485
   55CHL1  H26B 5245  -0.119   1.751   4.517 -1.0304  0.8296 -0.4264
   55CHL1  H26C 5246  -0.215   1.649   4.416  0.9218 -0.2145 -1.6219
   55CHL1   C27 5247   0.116   1.759   4.379 -0.0500  0.0266  0.3449
   55CHL1  H27A 5248   0.172   1.824   4.309 -1.1897  0.0501 -0.5754
   55CHL1  H27B 5249   0.101   1.809   4.477  0.0100  0.0166  0.3590
   55CHL1  H27C 5250   0.171   1.662   4.381 -1.4895 -0.8220  0.1994
   56CHL1    C3 5251   1.245   4.996   3.072  0.0083 -0.4670  0.0226
   56CHL1    H3 5252   1.337   5.057   3.081  1.7839 -2.9401 -0.2733
   56CHL1    O3 5253   1.228   4.945   2.937  0.1857 -0.0503 -0.1896
   56CHL1   H3' 5254   1.309   4.961   2.887  0.5445 -1.4974 -0.1192
   56CHL1    C4 5255   1.268   4.870   3.164 -0.0722 -0.2605  0.3915
   56CHL1   H4A 5256   1.192   4.792   3.139 -0.9675  0.2930  1.2794
   56CHL1   H4B 5257   1.368   4.829   3.141  0.2209  0.7341 -0.1743
   56CHL1    C5 5258   1.255   4.896   3.314  0.4012  0.1571 -0.5792
   56CHL1    C6 5259   1.351   4.854   3.398  0.4340 -0.7710  0.5210
   56CHL1    H6 5260   1.440   4.805   3.355  0.1692 -0.3867 -0.5010
   56CHL1    C7 5261   1.336   4.847   3.553  0.2980 -0.1150  0.0590
   56CHL1   H7A 5262   1.343   4.745   3.598 -0.2354 -0.5896 -0.8963
   56CHL1   H7B 5263   1.412   4.921   3.586 -1.8084  2.3254 -0.3170
   56CHL1    C8 5264   1.195   4.901   3.601  0.2368  0.3647 -0.3360
   56CHL1    H8 5265   1.126   4.814   3.599  0.2765  0.3539 -1.7974
   56CHL1   C14 5266   1.219   4.956   3.740  0.1775  0.3508  0.1241
   56CHL1   H14 5267   1.272   5.053   3.726  1.5816  0.1056  3.0942
   56CHL1   C15 5268   1.300   4.869   3.838 -0.1491 -0.4579 -0.8159
   56CHL1  H15A 5269   1.288   4.759   3.829  1.1008 -0.6740 -0.1937
   56CHL1  H15B 5270   1.410   4.875   3.820 -0.0893 -2.4915 -1.2817
   56CHL1   C16 5271   1.263   4.920   3.979  0.6422 -0.1089  0.0137
   56CHL1  H16A 5272   1.216   4.833   4.030 -0.1080 -0.5994 -1.4543
   56CHL1  H16B 5273   1.345   4.959   4.043 -0.8267  1.1688  1.2009
   56CHL1   C17 5274   1.150   5.034   3.949  0.6737  0.3032 -0.4466
   56CHL1   H17 5275   1.216   5.122   3.932  0.4833  0.5150 -0.1073
   56CHL1   C13 5276   1.088   5.001   3.808  1.0738  0.0523  0.1839
   56CHL1   C18 5277   0.989   4.879   3.819 -0.4287 -0.3791 -0.2080
   56CHL1  H18A 5278   1.052   4.794   3.854 -0.0567 -0.1515 -0.3231
   56CHL1  H18B 5279   0.909   4.901   3.893  0.8790  0.9555  0.8601
   56CHL1  H18C 5280   0.946   4.841   3.724 -0.7354 -1.1645  0.2285
   56CHL1   C12 5281   1.027   5.120   3.723  0.1185 -0.5783  0.4033
   56CHL1  H12A 5282   0.935   5.159   3.771  1.6016  1.8349  1.4734
   56CHL1  H12B 5283   1.103   5.201   3.727 -0.2350 -0.2102 -0.3419
   56CHL1   C11 5284   0.999   5.078   3.574 -0.4573  0.4981 -0.7239
   56CHL1  H11A 5285   0.907   5.016   3.572 -0.8713  0.9938  1.1064
   56CHL1  H11B 5286   0.988   5.166   3.508 -0.1237 -0.3699 -1.9702
   56CHL1    C9 5287   1.134   5.008   3.512 -0.3466 -0.4430 -0.0081
   56CHL1    H9 5288   1.220   5.078   3.521 -1.1892  0.3987  2.4393
   56CHL1   C10 5289   1.127   4.963   3.363 -0.6470 -0.7510  0.1926
   56CHL1   C19 5290   1.003   4.866   3.348 -0.8014 -0.1581  0.1202
   56CHL1  H19A 5291   1.014   4.780   3.417 -1.1827 -0.4252 -0.1478
   56CHL1  H19B 5292   0.910   4.922   3.372 -0.2988  0.8072 -0.1278
   56CHL1  H19C 5293   0.995   4.840   3.240 -0.0717  3.4398 -0.9347
   56CHL1    C1 5294   1.111   5.087   3.278  0.1936 -0.3461  0.0319
   56CHL1   H1A 5295   1.023   5.151   3.302  1.7039  2.2988 -1.0635
   56CHL1   H1B 5296   1.192   5.158   3.302 -2.3014  2.6036  0.3390
   56CHL1    C2 5297   1.121   5.072   3.121  1.1397 -0.3913  0.1662
   56CHL1   H2A 5298   1.118   5.175   3.079  1.6345  0.0636  1.2027
   56CHL1   H2B 5299   1.029   5.021   3.086 -1.1195  2.0898  2.1052
   56CHL1   C20 5300   1.048   5.074   4.063 -1.2388 -0.3346 -0.4274
   56CHL1   H20 5301   0.947   5.051   4.025 -1.0839  0.6691 -1.5083
   56CHL1   C21 5302   1.049   5.231   4.079  0.4075  0.8932  0.4583
   56CHL1  H21A 5303   1.038   5.272   3.977  1.6063  0.1479  0.0161
   56CHL1  H21B 5304   1.138   5.269   4.132 -1.2903  2.3186  2.4904
   56CHL1  H21C 5305   0.956   5.255   4.136  0.4484  1.9987  0.0826
   56CHL1   C22 5306   1.084   5.012   4.202 -0.6314  0.2360 -0.4120
   56CHL1  H22A 5307   1.075   4.903   4.187  0.1272 -0.0968  1.3208
   56CHL1  H22B 5308   1.189   5.025   4.236 -0.3069 -1.1851 -0.8352
   56CHL1   C23 5309   0.984   5.040   4.316  0.0683 -0.3965 -0.3806
   56CHL1  H23A 5310   0.963   5.149   4.315 -0.6739 -0.5351 -0.5366
   56CHL1  H23B 5311   0.889   4.986   4.294 -0.5340 -0.4414  1.9847
   56CHL1   C24 5312   1.030   4.987   4.450 -0.1683  0.2953 -0.1072
   56CHL1  H24A 5313   1.049   4.880   4.427  2.4243  0.4405  0.9797
   56CHL1  H24B 5314   1.123   5.038   4.483 -1.1942  1.1315  1.6791
   56CHL1   C25 5315   0.929   4.999   4.570  0.1400 -0.3297  0.0724
   56CHL1   H25 5316   0.975   4.955   4.661 -0.1290 -0.7705 -0.0069
   56CHL1   C26 5317   0.874   5.132   4.594 -0.5959  0.2313  0.4401
   56CHL1  H26A 5318   0.797   5.162   4.520 -0.2536  0.9799  0.3738
   56CHL1  H26B 5319   0.836   5.145   4.697  1.0659 -1.0857  1.2627
   56CHL1  H26C 5320   0.958   5.205   4.591 -1.1687  0.9618  1.5229
   56CHL1   C27 5321   0.809   4.910   4.543 -0.3658  0.7624  0.4247
   56CHL1  H27A 5322   0.851   4.820   4.491 -1.0108  0.4670  0.3997
   56CHL1  H27B 5323   0.755   4.886   4.637  0.4618  2.0435  1.2426
   56CHL1  H27C 5324   0.739   4.954   4.469 -0.7075 -0.1532  0.1781
   57CHL1    C3 5325   1.571   2.345   2.974 -0.1654 -0.0933  0.5616
   57CHL1    H3 5326   1.633   2.253   2.968  4.2972  2.6885 -0.0843
   57CHL1    O3 5327   1.555   2.391   2.843  1.0201  0.2294 -0.2078
   57CHL1   H3' 5328   1.542   2.486   2.850 -1.0933 -0.1004  3.1750
   57CHL1    C4 5329   1.435   2.328   3.039  0.5968  0.0610 -0.2852
   57CHL1   H4A 5330   1.389   2.429   3.051  1.7292  0.5312  0.3131
   57CHL1   H4B 5331   1.368   2.262   2.980  0.2904 -1.9362  2.1409
   57CHL1    C5 5332   1.448   2.268   3.184  0.0549 -0.3152  0.3683
   57CHL1    C6 5333   1.405   2.152   3.211  0.1237  0.5433  0.3574
   57CHL1    H6 5334   1.352   2.104   3.127 -0.6253 -0.3219  1.3100
   57CHL1    C7 5335   1.409   2.084   3.340  0.5011  0.0718  0.0449
   57CHL1   H7A 5336   1.310   2.041   3.365  0.0342  0.0734 -1.6943
   57CHL1   H7B 5337   1.478   1.999   3.325  1.6079  0.6406  1.5892
   57CHL1    C8 5338   1.454   2.181   3.452  0.0985 -0.4158 -0.1865
   57CHL1    H8 5339   1.369   2.244   3.487 -0.4108 -1.8124  1.2090
   57CHL1   C14 5340   1.509   2.100   3.565 -0.5075  0.6400  0.1736
   57CHL1   H14 5341   1.594   2.042   3.522 -1.4849 -0.0034 -0.9560
   57CHL1   C15 5342   1.424   1.979   3.613 -0.0124  0.3222 -0.9674
   57CHL1  H15A 5343   1.316   2.003   3.604 -0.1201  0.7788  0.9892
   57CHL1  H15B 5344   1.447   1.887   3.556 -0.7199 -0.1555 -0.5043
   57CHL1   C16 5345   1.453   1.964   3.762  0.0979  0.5198  0.5377
   57CHL1  H16A 5346   1.368   1.971   3.834 -1.6281  0.2365 -1.3735
   57CHL1  H16B 5347   1.485   1.860   3.782 -1.6664 -0.3278 -0.7377
   57CHL1   C17 5348   1.568   2.059   3.791  0.1198 -0.0451  0.2058
   57CHL1   H17 5349   1.654   1.993   3.765 -0.0302  0.3724 -1.4385
   57CHL1   C13 5350   1.552   2.175   3.691 -0.3827  0.0069  0.7916
   57CHL1   C18 5351   1.433   2.259   3.744  0.1086 -0.8070  0.0785
   57CHL1  H18A 5352   1.425   2.352   3.684  2.7216 -0.2622  0.4517
   57CHL1  H18B 5353   1.334   2.210   3.739 -1.1813  1.3763  2.1413
   57CHL1  H18C 5354   1.450   2.302   3.845  0.0768  1.1526 -0.7077
   57CHL1   C12 5355   1.672   2.261   3.651 -1.0504 -0.2312 -0.3462
   57CHL1  H12A 5356   1.712   2.324   3.733 -1.0753  0.5865 -0.9520
   57CHL1  H12B 5357   1.754   2.190   3.630  0.0570  0.8546  0.1374
   57CHL1   C11 5358   1.648   2.344   3.522  0.0314  0.1443 -0.7238
   57CHL1  H11A 5359   1.595   2.439   3.547  0.9266  0.3399  0.5776
   57CHL1  H11B 5360   1.748   2.373   3.483  0.6966 -3.4625 -2.0675
   57CHL1    C9 5361   1.578   2.272   3.404  0.1549 -1.0306 -0.3290
   57CHL1    H9 5362   1.647   2.195   3.364 -1.6369 -3.7207  1.4037
   57CHL1   C10 5363   1.528   2.354   3.278 -0.0110  0.0285 -0.9671
   57CHL1   C19 5364   1.434   2.471   3.331  0.4257 -0.6456  0.0391
   57CHL1  H19A 5365   1.398   2.540   3.252  1.6037  3.5303  2.8301
   57CHL1  H19B 5366   1.339   2.437   3.379 -1.3966 -0.2714 -3.0442
   57CHL1  H19C 5367   1.481   2.539   3.405  1.8588  0.5504 -1.8900
   57CHL1    C1 5368   1.655   2.398   3.208 -0.1690 -0.1382  0.1359
   57CHL1   H1A 5369   1.715   2.478   3.257 -0.2411 -0.5095  0.8356
   57CHL1   H1B 5370   1.732   2.319   3.192  0.7441  0.8222 -0.3838
   57CHL1    C2 5371   1.637   2.446   3.064  0.3223 -0.1399  0.6756
   57CHL1   H2A 5372   1.731   2.478   3.014 -0.1992 -0.2236 -0.3904
   57CHL1   H2B 5373   1.594   2.548   3.053  1.5458  0.1745 -1.9786
   57CHL1   C20 5374   1.581   2.089   3.939 -0.0236 -0.1984 -0.0971
   57CHL1   H20 5375   1.492   2.151   3.963  0.2684 -0.4375  1.7393
   57CHL1   C21 5376   1.714   2.170   3.963  0.2844 -0.5771 -0.3250
   57CHL1  H21A 5377   1.788   2.170   3.880 -1.3094  1.8284 -1.8722
   57CHL1  H21B 5378   1.768   2.138   4.055  1.0983 -1.9834 -1.2460
   57CHL1  H21C 5379   1.688   2.276   3.980  0.1617 -0.9499  2.1655
   57CHL1   C22 5380   1.578   1.967   4.027  0.0052 -0.4818 -0.3128
   57CHL1  H22A 5381   1.511   1.891   3.981 -0.4994  0.5952 -1.4197
   57CHL1  H22B 5382   1.678   1.920   4.019  0.4901  0.5644 -0.6072
   57CHL1   C23 5383   1.537   1.992   4.176  0.3010 -0.4419 -0.1459
   57CHL1  H23A 5384   1.595   2.082   4.207  0.1612 -0.5909  0.5827
   57CHL1  H23B 5385   1.428   2.011   4.176  0.7023  2.3005  0.3098
   57CHL1   C24 5386   1.567   1.871   4.256 -0.3992  0.0051 -0.7212
   57CHL1  H24A 5387   1.677   1.863   4.272 -0.8993 -1.7767  2.9323
   57CHL1  H24B 5388   1.532   1.884   4.361  0.2622 -1.3939 -0.2906
   57CHL1   C25 5389   1.518   1.731   4.206 -0.6743 -0.0987 -0.2589
   57CHL1   H25 5390   1.563   1.716   4.106  2.0160 -1.3596  1.0435
   57CHL1   C26 5391   1.558   1.625   4.308  0.3459  0.5441 -0.8742
   57CHL1  H26A 5392   1.531   1.658   4.411  2.3510 -1.5668  0.4118
   57CHL1  H26B 5393   1.516   1.524   4.290  0.8167  0.4570 -1.5017
   57CHL1  H26C 5394   1.669   1.622   4.302  0.3901 -0.2317  0.1055
   57CHL1   C27 5395   1.362   1.730   4.193  0.2447  0.1846  0.3463
   57CHL1  H27A 5396   1.312   1.758   4.288  1.2294  0.6291  0.7367
   57CHL1  H27B 5397   1.345   1.812   4.120  2.9693  0.8002  0.3170
   57CHL1  H27C 5398   1.326   1.634   4.150 -3.8055  2.3260 -1.6062
   58CHL1    C3 5399   6.178   0.594   3.014  1.2237 -0.2253 -0.2714
   58CHL1    H3 5400   6.232   0.499   2.995  1.6183  0.3294 -2.1668
   58CHL1    O3 5401   6.127   0.644   2.887  0.2215 -0.5762 -0.1442
   58CHL1   H3' 5402   6.092   0.732   2.904  1.7033  0.1361 -0.6165
   58CHL1    C4 5403   6.063   0.575   3.123 -0.7225  0.5639  0.2913
   58CHL1   H4A 5404   6.011   0.672   3.142 -1.8777 -0.5819  3.6875
   58CHL1   H4B 5405   5.995   0.496   3.085  1.0473 -1.3246  0.9009
   58CHL1    C5 5406   6.122   0.539   3.261 -0.4631 -0.3488 -0.4797
   58CHL1    C6 5407   6.095   0.421   3.328 -0.3943 -0.4576  0.1127
   58CHL1    H6 5408   6.008   0.364   3.290 -1.3737  1.3328 -0.4240
   58CHL1    C7 5409   6.144   0.369   3.455 -0.2845 -0.1231  0.2945
   58CHL1   H7A 5410   6.062   0.321   3.514  0.5216 -2.7067 -0.5767
   58CHL1   H7B 5411   6.223   0.292   3.442 -0.5750 -0.9475  2.8425
   58CHL1    C8 5412   6.221   0.483   3.528  0.9876  0.2826 -0.0130
   58CHL1    H8 5413   6.153   0.550   3.584  2.8136  0.3567  2.2514
   58CHL1   C14 5414   6.305   0.418   3.635 -0.6883 -0.0538 -0.0613
   58CHL1   H14 5415   6.387   0.360   3.588  0.3176  1.0364  0.2836
   58CHL1   C15 5416   6.226   0.318   3.727 -0.1836 -0.1778 -0.2378
   58CHL1  H15A 5417   6.130   0.357   3.768 -0.0246 -2.4838  2.6471
   58CHL1  H15B 5418   6.208   0.220   3.678  1.1090 -0.7757  0.4444
   58CHL1   C16 5419   6.323   0.305   3.842  0.0549 -0.0526 -0.3775
   58CHL1  H16A 5420   6.268   0.324   3.936  0.4413  1.5768 -0.4502
   58CHL1  H16B 5421   6.362   0.202   3.854  1.8844  0.6045 -0.3772
   58CHL1   C17 5422   6.441   0.408   3.829  0.1866 -0.5154  1.2580
   58CHL1   H17 5423   6.522   0.355   3.774 -0.0392 -1.4305  1.7769
   58CHL1   C13 5424   6.382   0.510   3.722 -0.5576  0.6951 -0.6183
   58CHL1   C18 5425   6.290   0.605   3.798 -0.0899 -0.4587 -0.2984
   58CHL1  H18A 5426   6.336   0.654   3.887  0.3616  0.8653 -1.2162
   58CHL1  H18B 5427   6.252   0.691   3.739 -1.5256 -2.0933 -1.8612
   58CHL1  H18C 5428   6.211   0.539   3.839  0.8419 -1.0006  0.6723
   58CHL1   C12 5429   6.474   0.596   3.630  0.0999 -0.1154 -0.3252
   58CHL1  H12A 5430   6.525   0.669   3.695 -0.7984 -0.8059  1.2203
   58CHL1  H12B 5431   6.548   0.525   3.587  0.9422  1.0557 -0.8373
   58CHL1   C11 5432   6.401   0.670   3.513  0.2875  0.3855  0.7104
   58CHL1  H11A 5433   6.362   0.758   3.568 -0.8124 -0.8261  1.9379
   58CHL1  H11B 5434   6.482   0.713   3.449  1.2092 -0.0690  1.5341
   58CHL1    C9 5435   6.311   0.566   3.438 -0.2637  0.5466  0.5601
   58CHL1    H9 5436   6.377   0.490   3.391 -2.2076 -1.1741  0.4618
   58CHL1   C10 5437   6.236   0.631   3.310 -0.3564 -0.3493 -0.3076
   58CHL1   C19 5438   6.175   0.761   3.360 -0.0358  1.0643  0.6599
   58CHL1  H19A 5439   6.098   0.807   3.295  0.1645 -0.0739 -0.4259
   58CHL1  H19B 5440   6.134   0.747   3.462 -0.3284  1.6442  0.6259
   58CHL1  H19C 5441   6.254   0.839   3.364  2.9668 -1.6300 -1.1089
   58CHL1    C1 5442   6.335   0.658   3.200 -0.1119  0.0922  0.4833
   58CHL1   H1A 5443   6.402   0.745   3.219  0.8749 -0.6537  0.5231
   58CHL1   H1B 5444   6.388   0.561   3.189 -2.0365 -1.0603  1.0400
   58CHL1    C2 5445   6.274   0.700   3.065 -0.5575  0.0308 -0.2760
   58CHL1   H2A 5446   6.352   0.716   2.988  0.1724  0.0087  0.4408
   58CHL1   H2B 5447   6.232   0.804   3.065  0.1952  0.3390 -0.5882
   58CHL1   C20 5448   6.490   0.451   3.967  0.5037  0.0328  0.2111
   58CHL1   H20 5449   6.401   0.502   4.011 -0.3553  2.9148 -4.2329
   58CHL1   C21 5450   6.593   0.570   3.951  0.6168 -0.2643  0.1805
   58CHL1  H21A 5451   6.623   0.624   4.044  0.5257 -1.1767  0.7561
   58CHL1  H21B 5452   6.553   0.649   3.884  1.0128 -0.8607 -0.7751
   58CHL1  H21C 5453   6.686   0.524   3.911 -0.2507  0.4873 -2.9171
   58CHL1   C22 5454   6.541   0.333   4.061  0.4473 -1.0125  0.5242
   58CHL1  H22A 5455   6.539   0.384   4.159 -0.3176  1.5019 -0.7063
   58CHL1  H22B 5456   6.456   0.261   4.072 -0.9464  0.6198  0.8931
   58CHL1   C23 5457   6.673   0.268   4.026 -0.7761 -0.2160 -0.7151
   58CHL1  H23A 5458   6.669   0.251   3.916 -4.6895 -2.6467 -0.3863
   58CHL1  H23B 5459   6.757   0.327   4.069  0.3337 -2.6130  0.6271
   58CHL1   C24 5460   6.682   0.126   4.087 -0.3321 -0.2786 -0.6228
   58CHL1  H24A 5461   6.659   0.145   4.194  0.1741  3.3436 -1.0207
   58CHL1  H24B 5462   6.600   0.057   4.058  0.5592 -1.5761 -0.1389
   58CHL1   C25 5463   6.821   0.056   4.070 -0.3098  0.2108 -0.3461
   58CHL1   H25 5464   6.802  -0.043   4.116  1.9471  0.0723  0.4427
   58CHL1   C26 5465   6.868   0.033   3.923  0.4993  0.0482 -0.8112
   58CHL1  H26A 5466   6.851   0.124   3.861 -2.3906 -0.7393 -1.3256
   58CHL1  H26B 5467   6.971  -0.008   3.923  0.7270  0.6152 -0.4780
   58CHL1  H26C 5468   6.813  -0.054   3.880 -0.7772  0.6457 -0.4432
   58CHL1   C27 5469   6.935   0.132   4.135  0.0143 -0.1782 -0.4790
   58CHL1  H27A 5470   7.035   0.084   4.136  0.0336 -0.1414  0.4238
   58CHL1  H27B 5471   6.951   0.222   4.071  3.5679 -0.5939 -0.3927
   58CHL1  H27C 5472   6.917   0.163   4.240  0.5205 -2.6566  0.4027
   59CHL1    C3 5473   5.909   1.902   2.749 -0.4212 -1.2350  0.1810
   59CHL1    H3 5474   5.986   1.982   2.759 -2.1228  0.2862  1.8158
   59CHL1    O3 5475   5.858   1.920   2.618  0.3369  0.4668 -0.3827
   59CHL1   H3' 5476   5.777   1.869   2.609  1.0012 -0.3471 -2.3534
   59CHL1    C4 5477   5.956   1.757   2.783  0.3539  0.3257  0.3581
   59CHL1   H4A 5478   5.870   1.694   2.752  0.8035 -1.1037  1.8639
   59CHL1   H4B 5479   6.052   1.727   2.736  0.3024 -1.0301  1.0800
   59CHL1    C5 5480   5.971   1.721   2.926 -0.0840 -0.4256  1.2502
   59CHL1    C6 5481   6.079   1.647   2.971 -0.1338 -0.4804  0.1554
   59CHL1    H6 5482   6.168   1.633   2.908 -0.4334 -1.1346 -0.1343
   59CHL1    C7 5483   6.095   1.607   3.114 -0.3245 -0.8374  0.1861
   59CHL1   H7A 5484   6.139   1.505   3.114  3.1750  0.5134 -1.4774
   59CHL1   H7B 5485   6.182   1.652   3.166 -0.2884 -1.1196  0.3747
   59CHL1    C8 5486   5.965   1.614   3.203 -0.1397  0.2953  0.4368
   59CHL1    H8 5487   5.907   1.526   3.167 -1.0622  2.3744 -3.6632
   59CHL1   C14 5488   5.997   1.609   3.360  0.3972  0.5214  0.3878
   59CHL1   H14 5489   6.044   1.706   3.387 -1.2025  1.5006 -0.2262
   59CHL1   C15 5490   6.093   1.497   3.414 -0.4882 -0.1326 -0.8684
   59CHL1  H15A 5491   6.090   1.397   3.367 -0.1793 -0.8073  0.5180
   59CHL1  H15B 5492   6.196   1.539   3.405  1.0037 -3.2363  0.3914
   59CHL1   C16 5493   6.054   1.480   3.562 -0.7892  0.5111  0.1795
   59CHL1  H16A 5494   6.025   1.373   3.576 -1.7867  0.4451 -1.9233
   59CHL1  H16B 5495   6.142   1.506   3.624  0.4083 -1.3979 -0.6400
   59CHL1   C17 5496   5.942   1.582   3.588 -0.2194 -0.4389 -0.0552
   59CHL1   H17 5497   5.998   1.676   3.604  0.9824 -1.2305  0.5889
   59CHL1   C13 5498   5.872   1.601   3.450 -0.6615  0.0966 -0.0640
   59CHL1   C18 5499   5.795   1.471   3.421 -0.0885  0.1026  0.6728
   59CHL1  H18A 5500   5.856   1.379   3.438  1.0868  1.1187  2.2965
   59CHL1  H18B 5501   5.707   1.465   3.488  0.1182  1.1433  1.0544
   59CHL1  H18C 5502   5.751   1.463   3.320 -1.0555 -0.0043  1.0897
   59CHL1   C12 5503   5.789   1.731   3.426  0.0682  0.2753 -0.4813
   59CHL1  H12A 5504   5.695   1.728   3.484 -0.2637  0.8721 -0.9723
   59CHL1  H12B 5505   5.844   1.817   3.471  0.3743 -0.8597  1.4140
   59CHL1   C11 5506   5.761   1.747   3.276 -0.1486 -0.4086 -0.1530
   59CHL1  H11A 5507   5.689   1.664   3.256 -0.4220 -0.7107  1.9342
   59CHL1  H11B 5508   5.713   1.847   3.264  0.2842 -0.1022  0.6216
   59CHL1    C9 5509   5.885   1.734   3.173 -0.3035  0.2664  0.1757
   59CHL1    H9 5510   5.958   1.814   3.196  2.6850 -2.6396  1.6501
   59CHL1   C10 5511   5.848   1.756   3.018  0.1735 -0.3601 -0.4296
   59CHL1   C19 5512   5.724   1.661   2.978 -0.0820  0.0563 -0.4566
   59CHL1  H19A 5513   5.634   1.695   3.032 -1.7673  0.6176 -3.3832
   59CHL1  H19B 5514   5.692   1.678   2.873 -1.2193 -0.5248 -0.2179
   59CHL1  H19C 5515   5.758   1.555   2.981 -1.7922 -0.4867  0.7939
   59CHL1    C1 5516   5.806   1.902   2.986  0.7057  0.0267  0.1100
   59CHL1   H1A 5517   5.714   1.940   3.036  0.5241  1.6166 -1.3521
   59CHL1   H1B 5518   5.879   1.968   3.038 -1.3184  1.5166  1.1805
   59CHL1    C2 5519   5.784   1.935   2.839 -0.0362 -0.5752  0.5575
   59CHL1   H2A 5520   5.755   2.041   2.825 -1.0935 -1.1181 -2.0512
   59CHL1   H2B 5521   5.694   1.877   2.807 -1.1231  0.5156  1.5455
   59CHL1   C20 5522   5.859   1.547   3.708  0.2680  0.9181  0.2527
   59CHL1   H20 5523   5.782   1.469   3.690  0.6005  0.6752 -0.1296
   59CHL1   C21 5524   5.779   1.664   3.763 -0.4917 -0.3327 -0.0501
   59CHL1  H21A 5525   5.738   1.645   3.864  1.6375 -0.5800  0.8066
   59CHL1  H21B 5526   5.695   1.694   3.696 -0.5309 -0.1646  0.0739
   59CHL1  H21C 5527   5.839   1.757   3.777 -0.7344 -0.1524 -0.1816
   59CHL1   C22 5528   5.950   1.499   3.824  0.0099 -0.2322 -0.3534
   59CHL1  H22A 5529   5.987   1.401   3.786 -1.7221 -1.2585  0.4908
   59CHL1  H22B 5530   6.043   1.559   3.833  0.2135 -0.3657 -1.4148
   59CHL1   C23 5531   5.886   1.463   3.963 -0.5182  0.4594 -1.2832
   59CHL1  H23A 5532   5.851   1.555   4.016  2.7736  1.2142 -0.1931
   59CHL1  H23B 5533   5.794   1.401   3.953  0.6359 -1.2645 -1.5543
   59CHL1   C24 5534   5.984   1.400   4.056 -0.6867 -0.4191  0.2659
   59CHL1  H24A 5535   6.020   1.310   4.003 -0.5884 -0.0975 -0.2199
   59CHL1  H24B 5536   6.069   1.470   4.074 -0.2942  0.3116 -3.5564
   59CHL1   C25 5537   5.917   1.351   4.187 -0.6309 -0.0794 -0.7154
   59CHL1   H25 5538   5.812   1.320   4.170 -0.7515  0.3205 -0.6984
   59CHL1   C26 5539   5.989   1.230   4.247  0.5271 -0.1728 -0.0583
   59CHL1  H26A 5540   5.968   1.205   4.353 -1.6185 -3.1811 -1.0670
   59CHL1  H26B 5541   5.977   1.144   4.178 -0.3088 -0.5872  0.5924
   59CHL1  H26C 5542   6.098   1.254   4.238  0.7115 -0.7204  0.7099
   59CHL1   C27 5543   5.920   1.464   4.289 -1.2420  0.2735  0.0119
   59CHL1  H27A 5544   6.021   1.483   4.333  0.0439 -0.7121 -2.3266
   59CHL1  H27B 5545   5.896   1.558   4.235  0.8481  0.2675 -1.0501
   59CHL1  H27C 5546   5.857   1.456   4.380  3.4748 -0.3273  3.6305
   60CHL1    C3 5547   5.313   6.469   3.085 -0.0735  0.2085 -0.4170
   60CHL1    H3 5548   5.413   6.442   3.126 -0.3706 -0.6629 -0.2515
   60CHL1    O3 5549   5.336   6.517   2.953 -0.2970  0.5863 -0.4861
   60CHL1   H3' 5550   5.251   6.525   2.910 -2.4346 -2.3373  2.6427
   60CHL1    C4 5551   5.228   6.340   3.069  0.5172 -0.3197  0.4276
   60CHL1   H4A 5552   5.136   6.362   3.010 -0.4170  3.1565  2.8091
   60CHL1   H4B 5553   5.298   6.281   3.006  0.7635  0.2202  0.1889
   60CHL1    C5 5554   5.202   6.272   3.203  0.2677  0.0993 -0.0253
   60CHL1    C6 5555   5.228   6.140   3.231  0.2724 -0.0971  0.2007
   60CHL1    H6 5556   5.274   6.083   3.149  2.2470 -1.2471  2.0040
   60CHL1    C7 5557   5.214   6.084   3.370  0.9759  0.1869  0.3770
   60CHL1   H7A 5558   5.160   5.987   3.360  2.0412 -0.5588  1.5524
   60CHL1   H7B 5559   5.311   6.053   3.415  0.6530  0.5267  1.3366
   60CHL1    C8 5560   5.132   6.170   3.473 -0.4930 -0.4386  0.2225
   60CHL1    H8 5561   5.025   6.164   3.442 -0.5196  1.6210 -0.2321
   60CHL1   C14 5562   5.145   6.117   3.618 -0.2793  0.1641 -0.3148
   60CHL1   H14 5563   5.256   6.114   3.622 -0.1232  2.0824 -1.7306
   60CHL1   C15 5564   5.095   5.974   3.643 -0.5385  0.2384  0.5742
   60CHL1  H15A 5565   5.008   5.952   3.577  0.2988  0.9627 -0.8332
   60CHL1  H15B 5566   5.178   5.906   3.618 -0.6353 -0.2644  1.5773
   60CHL1   C16 5567   5.064   5.968   3.792 -0.1624  0.3047 -0.4002
   60CHL1  H16A 5568   4.957   5.962   3.819 -0.2718 -2.3677 -1.1607
   60CHL1  H16B 5569   5.130   5.892   3.839  2.3780  1.8255 -1.2753
   60CHL1   C17 5570   5.123   6.108   3.850  0.6690  0.1608  0.5334
   60CHL1   H17 5571   5.232   6.087   3.858  0.7849  0.0534 -0.9053
   60CHL1   C13 5572   5.090   6.204   3.733 -0.4516  0.3954  0.4736
   60CHL1   C18 5573   4.930   6.224   3.728 -1.0646  0.2182  0.4266
   60CHL1  H18A 5574   4.890   6.280   3.815 -1.1369 -0.5842  0.9222
   60CHL1  H18B 5575   4.918   6.291   3.640 -0.0241 -0.1637 -0.0190
   60CHL1  H18C 5576   4.863   6.141   3.697  0.2461 -0.7263  0.0273
   60CHL1   C12 5577   5.154   6.339   3.726  0.5587 -0.2711  0.1036
   60CHL1  H12A 5578   5.100   6.405   3.797 -1.1262 -0.9887 -0.4313
   60CHL1  H12B 5579   5.259   6.325   3.759  1.0734  0.6512 -1.0568
   60CHL1   C11 5580   5.152   6.408   3.587  0.3608  0.1434  0.7382
   60CHL1  H11A 5581   5.048   6.445   3.571  0.1064 -0.3699  1.1655
   60CHL1  H11B 5582   5.221   6.495   3.579  1.1479 -0.5411 -0.1320
   60CHL1    C9 5583   5.185   6.313   3.466  0.0011 -0.6300 -0.8063
   60CHL1    H9 5584   5.295   6.306   3.479 -0.3162 -0.2700  2.9809
   60CHL1   C10 5585   5.163   6.375   3.316 -0.4240 -0.0730  0.3916
   60CHL1   C19 5586   5.011   6.397   3.293 -0.2854 -0.1687  0.3039
   60CHL1  H19A 5587   4.981   6.391   3.186  0.4740  1.1821 -0.0055
   60CHL1  H19B 5588   4.951   6.333   3.362 -0.7440 -0.8743 -0.7183
   60CHL1  H19C 5589   4.998   6.503   3.324 -0.0890  0.1477 -0.6765
   60CHL1    C1 5590   5.240   6.511   3.319  0.0353  0.4932 -0.0557
   60CHL1   H1A 5591   5.184   6.587   3.377 -1.0779  1.0402 -1.7760
   60CHL1   H1B 5592   5.343   6.494   3.356 -0.2227 -2.2890 -0.3804
   60CHL1    C2 5593   5.254   6.568   3.178 -0.0943  0.4100 -0.3768
   60CHL1   H2A 5594   5.319   6.658   3.171 -2.0904  1.9022 -0.5135
   60CHL1   H2B 5595   5.152   6.603   3.152  0.3405  0.7886 -1.6210
   60CHL1   C20 5596   5.074   6.151   3.988 -0.2354  0.1006 -0.1257
   60CHL1   H20 5597   4.966   6.176   3.987 -0.2047  0.5449  2.0511
   60CHL1   C21 5598   5.157   6.265   4.051  0.2364  0.3645 -0.2893
   60CHL1  H21A 5599   5.097   6.308   4.133 -0.8814 -2.4036  0.4686
   60CHL1  H21B 5600   5.177   6.342   3.973  0.6072 -2.8829 -3.7347
   60CHL1  H21C 5601   5.255   6.225   4.085 -0.9550 -2.2749  0.3268
   60CHL1   C22 5602   5.082   6.020   4.075 -0.4695  0.3946 -0.7918
   60CHL1  H22A 5603   5.007   5.948   4.035 -0.5741  0.2892 -0.4043
   60CHL1  H22B 5604   5.184   5.979   4.068  0.5399  2.5259  0.3824
   60CHL1   C23 5605   5.055   6.047   4.217  0.2483  0.1225  0.3544
   60CHL1  H23A 5606   5.115   6.132   4.257  0.0185  1.3041 -1.6852
   60CHL1  H23B 5607   4.950   6.083   4.221  0.4515  0.9061 -0.8806
   60CHL1   C24 5608   5.066   5.919   4.307  0.0509  0.6623  0.2030
   60CHL1  H24A 5609   5.018   5.827   4.266  0.4766 -1.2058  3.5285
   60CHL1  H24B 5610   5.171   5.884   4.316  0.2924  1.0708 -0.8792
   60CHL1   C25 5611   5.026   5.937   4.455  0.0471 -0.0664  0.1849
   60CHL1   H25 5612   4.917   5.953   4.449  0.1976  1.2626  0.7725
   60CHL1   C26 5613   5.039   5.797   4.518 -0.2015  0.3803  0.2307
   60CHL1  H26A 5614   4.995   5.719   4.452  1.8095 -3.3120  2.8576
   60CHL1  H26B 5615   5.147   5.774   4.532 -0.4289 -0.2543  1.0445
   60CHL1  H26C 5616   4.985   5.796   4.615  0.6766  1.8661  0.7620
   60CHL1   C27 5617   5.083   6.049   4.541  0.8543 -0.5752 -0.0303
   60CHL1  H27A 5618   5.186   6.028   4.576  0.9104 -1.5706 -0.7432
   60CHL1  H27B 5619   5.086   6.152   4.498 -0.0639  0.2436  1.7286
   60CHL1  H27C 5620   5.019   6.047   4.632 -0.9145 -0.7804 -1.2398
   61CHL1    C3 5621   2.136   4.160   3.070  0.7028  0.0452  0.0700
   61CHL1    H3 5622   2.129   4.049   3.080 -0.3069  0.2212  1.6454
   61CHL1    O3 5623   2.144   4.198   2.934 -0.5960  0.1488  0.6286
   61CHL1   H3' 5624   2.183   4.286   2.933  1.3412 -0.6129 -2.0268
   61CHL1    C4 5625   1.999   4.215   3.119  0.1145  0.0971 -0.2476
   61CHL1   H4A 5626   2.006   4.322   3.092  0.8871  0.2261  0.4328
   61CHL1   H4B 5627   1.924   4.173   3.048 -0.5782 -1.3526  1.2590
   61CHL1    C5 5628   1.975   4.182   3.264  0.5889  0.2872 -0.1482
   61CHL1    C6 5629   1.860   4.124   3.290  0.1243 -0.1928  0.3672
   61CHL1    H6 5630   1.788   4.108   3.209 -1.1457  1.4572  1.1072
   61CHL1    C7 5631   1.824   4.082   3.432 -0.3236  1.4784 -0.3033
   61CHL1   H7A 5632   1.717   4.101   3.452 -1.4884 -3.2180 -0.9829
   61CHL1   H7B 5633   1.833   3.972   3.445 -1.8187  1.5619  2.0889
   61CHL1    C8 5634   1.915   4.154   3.537 -0.2408 -0.5167 -0.3164
   61CHL1    H8 5635   1.874   4.257   3.543 -1.0226 -0.8520  0.1876
   61CHL1   C14 5636   1.906   4.088   3.672  0.2180  0.7651 -0.0835
   61CHL1   H14 5637   1.960   3.992   3.662  0.0700  0.4710  1.6794
   61CHL1   C15 5638   1.769   4.057   3.724  0.1166 -0.0581  0.0515
   61CHL1  H15A 5639   1.698   4.135   3.689  0.8787 -0.2037 -1.9201
   61CHL1  H15B 5640   1.732   3.958   3.688 -2.7451  0.8021  0.3730
   61CHL1   C16 5641   1.780   4.049   3.876 -0.1848 -0.2612 -0.0881
   61CHL1  H16A 5642   1.729   4.120   3.944  0.3697 -0.4378  0.5194
   61CHL1  H16B 5643   1.746   3.950   3.912 -0.3718 -0.2352 -0.1891
   61CHL1   C17 5644   1.938   4.063   3.900 -0.4752 -0.2441 -0.1051
   61CHL1   H17 5645   1.982   3.966   3.869 -0.6207 -0.5039  0.4901
   61CHL1   C13 5646   1.982   4.157   3.785 -0.6173  0.0278 -0.8988
   61CHL1   C18 5647   1.949   4.306   3.816  0.3646  0.4927  0.3323
   61CHL1  H18A 5648   1.851   4.302   3.867 -0.4716  1.2425 -1.1281
   61CHL1  H18B 5649   2.028   4.355   3.876 -0.5569  2.8024 -0.2255
   61CHL1  H18C 5650   1.944   4.360   3.719 -0.5862 -0.4373 -0.1577
   61CHL1   C12 5651   2.135   4.146   3.747 -0.2890  0.2436 -0.5015
   61CHL1  H12A 5652   2.203   4.192   3.821  1.0604 -0.8401 -1.0253
   61CHL1  H12B 5653   2.171   4.041   3.739  1.9050  0.9015  0.0177
   61CHL1   C11 5654   2.153   4.220   3.608  0.0650  0.0062 -0.0808
   61CHL1  H11A 5655   2.130   4.328   3.623 -2.7667 -0.5016 -0.1484
   61CHL1  H11B 5656   2.260   4.211   3.579 -0.3583 -1.2711 -1.3184
   61CHL1    C9 5657   2.065   4.158   3.499 -0.8323 -0.2372 -0.0476
   61CHL1    H9 5658   2.096   4.053   3.482  0.1859  0.4635 -3.3673
   61CHL1   C10 5659   2.088   4.224   3.359  0.4979  0.2414 -0.2908
   61CHL1   C19 5660   2.085   4.380   3.370 -0.2454 -0.2524 -0.6362
   61CHL1  H19A 5661   2.186   4.412   3.404  0.0578 -2.0746  0.3286
   61CHL1  H19B 5662   2.059   4.434   3.277 -0.4999  0.6519 -0.0553
   61CHL1  H19C 5663   2.007   4.404   3.445 -1.1272  0.4500 -1.7496
   61CHL1    C1 5664   2.225   4.179   3.307 -0.0396 -0.0112  0.3439
   61CHL1   H1A 5665   2.297   4.224   3.378  0.5533 -0.0107 -0.2389
   61CHL1   H1B 5666   2.217   4.069   3.321 -1.4679 -0.1305 -1.0695
   61CHL1    C2 5667   2.247   4.213   3.157 -0.0622 -0.2897  0.1302
   61CHL1   H2A 5668   2.342   4.181   3.108 -0.4656  2.0272 -2.3967
   61CHL1   H2B 5669   2.246   4.323   3.147 -0.6261  0.0364  3.1079
   61CHL1   C20 5670   1.989   4.081   4.045  0.4109  0.4343 -0.2543
   61CHL1   H20 5671   2.097   4.104   4.043  0.9460 -1.7343 -2.7967
   61CHL1   C21 5672   1.982   3.937   4.109 -0.0232  0.6081 -0.9545
   61CHL1  H21A 5673   2.042   3.930   4.202 -0.3039 -4.8000 -0.8519
   61CHL1  H21B 5674   2.021   3.858   4.041 -0.4348 -0.5843  0.1506
   61CHL1  H21C 5675   1.883   3.898   4.142  1.7056 -3.1469  0.3121
   61CHL1   C22 5676   1.917   4.184   4.134 -0.0026  0.0456 -0.2848
   61CHL1  H22A 5677   1.935   4.281   4.082 -2.7635  0.7422 -0.0821
   61CHL1  H22B 5678   1.807   4.177   4.142 -0.1114  0.5953 -1.1677
   61CHL1   C23 5679   1.975   4.204   4.278  0.1055 -0.3584  0.0054
   61CHL1  H23A 5680   1.923   4.133   4.346 -2.2481 -0.0381 -1.3136
   61CHL1  H23B 5681   2.084   4.188   4.292 -0.3055 -2.2803  1.4788
   61CHL1   C24 5682   1.944   4.344   4.337  0.8037  0.0046 -0.3787
   61CHL1  H24A 5683   1.979   4.424   4.268 -1.3250  1.7706  0.4724
   61CHL1  H24B 5684   1.833   4.350   4.344  0.8337  0.8474 -0.5291
   61CHL1   C25 5685   2.006   4.375   4.474  0.0555 -0.4111  0.4673
   61CHL1   H25 5686   2.113   4.345   4.479  0.1398 -0.2375 -0.2166
   61CHL1   C26 5687   2.009   4.527   4.500  0.2735  0.0599 -0.3876
   61CHL1  H26A 5688   1.909   4.572   4.521  0.1770 -0.1264 -0.4430
   61CHL1  H26B 5689   2.073   4.575   4.576  0.1337 -0.6512  0.1878
   61CHL1  H26C 5690   2.053   4.570   4.407  3.2612 -0.0747  0.8578
   61CHL1   C27 5691   1.936   4.301   4.590 -0.2455 -0.1821 -0.0191
   61CHL1  H27A 5692   1.828   4.323   4.579 -0.5383 -1.5053  0.0267
   61CHL1  H27B 5693   1.948   4.191   4.577 -1.5580 -0.6949  2.4579
   61CHL1  H27C 5694   1.986   4.334   4.684  1.6856 -0.8677 -0.7525
   62CHL1    C3 5695   3.509   4.708   3.063 -0.6435 -0.2224 -0.2704
   62CHL1    H3 5696   3.587   4.631   3.049  1.1108  0.7534  3.0405
   62CHL1    O3 5697   3.471   4.763   2.938  0.0372 -0.5213 -0.4788
   62CHL1   H3' 5698   3.385   4.805   2.949  0.5487  0.5260 -0.4004
   62CHL1    C4 5699   3.391   4.640   3.134 -0.0431 -0.5850  0.1693
   62CHL1   H4A 5700   3.312   4.718   3.140  0.7558  0.1851  1.2380
   62CHL1   H4B 5701   3.350   4.553   3.079 -0.2645 -0.6520  0.4398
   62CHL1    C5 5702   3.416   4.591   3.271 -0.0727  0.2849 -0.3919
   62CHL1    C6 5703   3.400   4.459   3.306 -0.2711 -0.3149 -0.8270
   62CHL1    H6 5704   3.355   4.386   3.237 -2.2232 -0.5976  0.6652
   62CHL1    C7 5705   3.418   4.406   3.450 -0.1852 -0.4189 -0.0993
   62CHL1   H7A 5706   3.335   4.337   3.475 -0.1525 -0.7330 -0.8208
   62CHL1   H7B 5707   3.506   4.339   3.462  1.7595  2.1334  0.9777
   62CHL1    C8 5708   3.432   4.524   3.546 -0.6499  0.0515 -0.2370
   62CHL1    H8 5709   3.340   4.581   3.569  0.5187  1.3909  1.3718
   62CHL1   C14 5710   3.481   4.476   3.686  0.2871  0.3092 -0.0063
   62CHL1   H14 5711   3.579   4.425   3.671  1.3511  1.7422  1.6514
   62CHL1   C15 5712   3.393   4.367   3.747 -0.1381 -0.5228  0.4742
   62CHL1  H15A 5713   3.285   4.392   3.752 -0.2246 -1.1440  3.2912
   62CHL1  H15B 5714   3.407   4.275   3.686  0.7244 -0.1406  0.0894
   62CHL1   C16 5715   3.447   4.350   3.889  0.6137 -0.4239 -0.6277
   62CHL1  H16A 5716   3.356   4.370   3.951  0.4324  0.9164 -1.2932
   62CHL1  H16B 5717   3.497   4.253   3.909  1.1383 -0.0340 -0.0266
   62CHL1   C17 5718   3.547   4.471   3.910  0.4370  0.0911  0.4185
   62CHL1   H17 5719   3.647   4.428   3.889 -0.4718 -1.8170 -0.2518
   62CHL1   C13 5720   3.515   4.571   3.795 -0.4479  0.4292  0.1366
   62CHL1   C18 5721   3.393   4.660   3.840 -0.1358  0.5715  0.9570
   62CHL1  H18A 5722   3.428   4.729   3.919  0.4288 -0.0428  1.2490
   62CHL1  H18B 5723   3.343   4.723   3.764 -1.4170 -0.1545  1.1615
   62CHL1  H18C 5724   3.308   4.609   3.891 -1.9822  2.8275  0.2726
   62CHL1   C12 5725   3.618   4.667   3.732  0.0698 -0.2254  0.7639
   62CHL1  H12A 5726   3.649   4.741   3.808  1.2705  0.9786 -0.8386
   62CHL1  H12B 5727   3.709   4.606   3.710  0.6232 -0.7621  3.9683
   62CHL1   C11 5728   3.565   4.734   3.607 -0.0254 -0.2747  0.3799
   62CHL1  H11A 5729   3.479   4.795   3.640  0.4799  0.2794  0.6831
   62CHL1  H11B 5730   3.646   4.798   3.566 -1.8712  2.8441  1.3178
   62CHL1    C9 5731   3.530   4.627   3.495 -0.5493  0.4090 -0.1887
   62CHL1    H9 5732   3.625   4.573   3.473  0.1461  1.8842 -1.0362
   62CHL1   C10 5733   3.479   4.693   3.368 -0.0976 -0.4024 -0.1008
   62CHL1   C19 5734   3.373   4.811   3.404 -0.1016  0.0631 -0.3903
   62CHL1  H19A 5735   3.309   4.782   3.490  0.0077 -1.3789 -0.7666
   62CHL1  H19B 5736   3.438   4.894   3.440  2.0927 -1.3125 -1.0171
   62CHL1  H19C 5737   3.314   4.838   3.314  0.0818 -3.2344 -1.6321
   62CHL1    C1 5738   3.600   4.753   3.287  0.3422  0.7145  0.0871
   62CHL1   H1A 5739   3.649   4.823   3.357  1.1761  0.5173 -0.2805
   62CHL1   H1B 5740   3.684   4.682   3.269 -1.2801 -1.3770  0.3802
   62CHL1    C2 5741   3.569   4.819   3.150  0.2283  0.4222 -0.5078
   62CHL1   H2A 5742   3.668   4.852   3.115  1.1861 -1.0096  0.7303
   62CHL1   H2B 5743   3.491   4.897   3.164 -2.7855 -2.0431 -2.2087
   62CHL1   C20 5744   3.547   4.527   4.053 -0.5376 -0.3114 -0.0746
   62CHL1   H20 5745   3.443   4.548   4.086 -1.0825 -2.6434 -0.1914
   62CHL1   C21 5746   3.640   4.650   4.076 -0.2544 -0.1240 -0.0851
   62CHL1  H21A 5747   3.658   4.679   4.181 -1.4922 -0.1344  0.1446
   62CHL1  H21B 5748   3.604   4.736   4.015 -1.3876 -0.1210  0.5508
   62CHL1  H21C 5749   3.740   4.615   4.043  0.1529  1.5128 -0.6813
   62CHL1   C22 5750   3.599   4.437   4.166 -0.4486 -0.0053  0.0152
   62CHL1  H22A 5751   3.561   4.334   4.146 -0.7319  0.3133 -1.1630
   62CHL1  H22B 5752   3.710   4.441   4.164 -0.4398 -0.2932 -1.8972
   62CHL1   C23 5753   3.548   4.478   4.314 -0.4497 -0.7656  0.3775
   62CHL1  H23A 5754   3.587   4.580   4.333 -1.1446 -0.1238 -1.4645
   62CHL1  H23B 5755   3.438   4.487   4.303 -0.5272 -0.4767  1.3497
   62CHL1   C24 5756   3.586   4.394   4.438 -0.3097  0.0263 -0.1363
   62CHL1  H24A 5757   3.560   4.287   4.422  1.6069 -0.6983  1.2332
   62CHL1  H24B 5758   3.693   4.401   4.464 -0.2808 -1.4215  0.2002
   62CHL1   C25 5759   3.522   4.444   4.571  0.2801  0.5028  0.3401
   62CHL1   H25 5760   3.413   4.458   4.551 -0.0224 -1.7286  0.1724
   62CHL1   C26 5761   3.521   4.339   4.677 -0.6497 -0.2316 -0.3673
   62CHL1  H26A 5762   3.622   4.303   4.706  0.1960  0.5724 -2.1509
   62CHL1  H26B 5763   3.474   4.363   4.775  3.1116 -0.8065  1.7816
   62CHL1  H26C 5764   3.480   4.243   4.640  1.0115 -2.2567  2.6069
   62CHL1   C27 5765   3.586   4.574   4.627 -0.2343  0.3397 -0.3642
   62CHL1  H27A 5766   3.575   4.661   4.558 -1.0182  0.3285 -0.2641
   62CHL1  H27B 5767   3.543   4.605   4.725 -1.1362  0.9586 -0.9302
   62CHL1  H27C 5768   3.696   4.569   4.642 -0.0205 -3.3100 -2.1797
   63CHL1    C3 5769   3.870   0.083   3.335  0.2879 -0.5428 -0.6858
   63CHL1    H3 5770   3.979   0.090   3.314  0.3290  0.1018 -0.2782
   63CHL1    O3 5771   3.803   0.093   3.208 -0.2883 -0.1899 -0.8802
   63CHL1   H3' 5772   3.708   0.087   3.219 -0.2919 -0.3337 -0.9879
   63CHL1    C4 5773   3.823  -0.046   3.417 -0.1479 -0.8303  0.4291
   63CHL1   H4A 5774   3.713  -0.036   3.422 -0.2617  0.5725 -2.5073
   63CHL1   H4B 5775   3.843  -0.134   3.353  0.8828 -0.7363  0.6103
   63CHL1    C5 5776   3.884  -0.043   3.558 -0.0969  0.0841 -0.2156
   63CHL1    C6 5777   3.970  -0.132   3.610 -0.0952  0.0136 -0.0104
   63CHL1    H6 5778   3.986  -0.222   3.548  0.6910 -1.2050  1.8743
   63CHL1    C7 5779   4.025  -0.143   3.745 -0.2148 -0.2309 -0.8316
   63CHL1   H7A 5780   4.012  -0.244   3.790 -0.5638  0.3005  0.2828
   63CHL1   H7B 5781   4.133  -0.117   3.747 -0.2335 -0.1668 -0.6769
   63CHL1    C8 5782   3.950  -0.050   3.852 -0.2594  0.8039  0.7894
   63CHL1    H8 5783   3.852  -0.100   3.867  0.8840 -1.9436 -0.2586
   63CHL1   C14 5784   4.033  -0.030   3.978 -0.1237 -1.0590 -0.9496
   63CHL1   H14 5785   4.129   0.015   3.943  0.6370  0.9542  3.1260
   63CHL1   C15 5786   4.068  -0.158   4.064  0.4497 -0.0855  0.2866
   63CHL1  H15A 5787   3.969  -0.209   4.074 -0.4796  1.6767  0.3921
   63CHL1  H15B 5788   4.145  -0.215   4.007  0.4062  0.8813 -0.7663
   63CHL1   C16 5789   4.116  -0.099   4.194 -0.5718  0.1146  0.3272
   63CHL1  H16A 5790   4.062  -0.154   4.273 -0.5812  1.1925  1.0888
   63CHL1  H16B 5791   4.227  -0.103   4.202 -0.1567  3.4093 -1.8960
   63CHL1   C17 5792   4.074   0.053   4.190  0.3615 -0.3128 -0.2411
   63CHL1   H17 5793   4.160   0.115   4.157  0.4737 -0.3822 -0.0793
   63CHL1   C13 5794   3.972   0.070   4.074 -0.1045 -0.4875 -0.4073
   63CHL1   C18 5795   3.830   0.029   4.131 -0.6448  0.0810  0.5024
   63CHL1  H18A 5796   3.754   0.004   4.053 -0.3508  2.6528 -0.6896
   63CHL1  H18B 5797   3.859  -0.051   4.203  0.1619  0.3608  0.4885
   63CHL1  H18C 5798   3.778   0.098   4.201 -1.3042 -0.5594  0.6647
   63CHL1   C12 5799   3.970   0.209   4.001 -0.2802  1.2205 -0.0380
   63CHL1  H12A 5800   3.928   0.284   4.071  1.1076  1.9474  0.0580
   63CHL1  H12B 5801   4.069   0.243   3.961  0.1883 -0.5378 -0.4726
   63CHL1   C11 5802   3.882   0.202   3.884 -0.0942  0.1693  0.9798
   63CHL1  H11A 5803   3.778   0.176   3.911 -1.0015 -0.2249 -2.4382
   63CHL1  H11B 5804   3.895   0.299   3.832 -0.3560 -1.4237 -2.3123
   63CHL1    C9 5805   3.926   0.087   3.780  0.1499  0.0748 -0.2071
   63CHL1    H9 5806   4.022   0.125   3.739  0.0395 -0.1196 -0.6463
   63CHL1   C10 5807   3.841   0.073   3.652 -0.0988  0.0211 -0.1374
   63CHL1   C19 5808   3.693   0.059   3.695 -0.8702 -0.3496 -0.4037
   63CHL1  H19A 5809   3.633   0.036   3.605 -1.1412  0.4646 -0.4376
   63CHL1  H19B 5810   3.673  -0.026   3.764  0.2720 -0.1370  0.2206
   63CHL1  H19C 5811   3.655   0.157   3.731  2.1259  0.5371  0.6947
   63CHL1    C1 5812   3.856   0.205   3.570 -0.5564 -0.3020 -0.0930
   63CHL1   H1A 5813   3.842   0.297   3.631 -0.1632 -1.3689  1.6879
   63CHL1   H1B 5814   3.965   0.228   3.570 -0.9224  1.5912  0.1951
   63CHL1    C2 5815   3.820   0.203   3.418 -0.0351 -0.1879 -0.1113
   63CHL1   H2A 5816   3.856   0.294   3.366 -0.3531 -0.3862 -0.6944
   63CHL1   H2B 5817   3.711   0.220   3.403  0.1740  0.4304 -1.0055
   63CHL1   C20 5818   4.050   0.109   4.328  0.6405  1.2893  0.0339
   63CHL1   H20 5819   3.964   0.055   4.374 -0.5869  1.9668 -1.3494
   63CHL1   C21 5820   4.026   0.259   4.319  0.4511  0.3703 -0.3125
   63CHL1  H21A 5821   4.111   0.300   4.261  1.3910  0.5775  1.1388
   63CHL1  H21B 5822   4.033   0.304   4.421  0.9991  1.4935 -0.8312
   63CHL1  H21C 5823   3.931   0.292   4.272  0.1973 -1.1770 -0.9389
   63CHL1   C22 5824   4.171   0.078   4.426 -0.6351  0.3068  0.2074
   63CHL1  H22A 5825   4.187  -0.032   4.429  2.6585  0.6113 -1.6358
   63CHL1  H22B 5826   4.268   0.119   4.393 -1.0486  2.0819  1.1102
   63CHL1   C23 5827   4.156   0.123   4.578  0.6093 -0.1888 -1.4069
   63CHL1  H23A 5828   4.157   0.234   4.578 -1.0231 -0.0096  2.7943
   63CHL1  H23B 5829   4.060   0.088   4.621  1.6121 -1.6100 -0.2281
   63CHL1   C24 5830   4.268   0.089   4.675  0.1171  0.5519  0.3330
   63CHL1  H24A 5831   4.356   0.150   4.648  1.4934 -0.7313  1.6985
   63CHL1  H24B 5832   4.249   0.127   4.777 -1.0009  0.4733  0.1695
   63CHL1   C25 5833   4.298  -0.064   4.672  0.9796  0.3982 -0.1572
   63CHL1   H25 5834   4.320  -0.106   4.572  0.8195 -1.6048  0.5959
   63CHL1   C26 5835   4.419  -0.087   4.761  0.0629 -0.2496 -0.0676
   63CHL1  H26A 5836   4.507  -0.022   4.739  0.7964 -1.0723  0.3652
   63CHL1  H26B 5837   4.392  -0.079   4.869 -1.5211 -1.8638 -0.3131
   63CHL1  H26C 5838   4.448  -0.194   4.753 -2.5150 -0.9476 -0.8892
   63CHL1   C27 5839   4.169  -0.151   4.718  0.5282 -0.2389  0.2942
   63CHL1  H27A 5840   4.123  -0.118   4.813  1.2172 -1.3286  1.0319
   63CHL1  H27B 5841   4.091  -0.143   4.639 -0.5762  2.2618  1.5370
   63CHL1  H27C 5842   4.197  -0.258   4.729 -0.7143 -0.6005  0.1059
   64CHL1    C3 5843   4.221   1.631   3.177 -0.0135  0.2818  0.0478
   64CHL1    H3 5844   4.118   1.626   3.220  0.5266  1.5611  1.5947
   64CHL1    O3 5845   4.215   1.643   3.038 -0.5259 -0.5210  0.6010
   64CHL1   H3' 5846   4.161   1.719   3.016  0.0684 -0.6075 -1.3878
   64CHL1    C4 5847   4.291   1.756   3.235 -0.0432 -0.4659 -0.4126
   64CHL1   H4A 5848   4.389   1.766   3.183  0.0018 -2.2440 -0.7293
   64CHL1   H4B 5849   4.236   1.847   3.201  0.2527 -0.1621 -0.0952
   64CHL1    C5 5850   4.318   1.746   3.376  0.8127  0.7341 -0.6993
   64CHL1    C6 5851   4.294   1.850   3.458  0.1905 -0.2194 -0.5380
   64CHL1    H6 5852   4.256   1.946   3.421  0.9868 -0.1829 -1.2852
   64CHL1    C7 5853   4.322   1.859   3.608  0.0404 -0.0235 -0.4394
   64CHL1   H7A 5854   4.373   1.957   3.624 -1.1854  0.4767  0.5442
   64CHL1   H7B 5855   4.229   1.866   3.668  1.0194  2.5889  0.9380
   64CHL1    C8 5856   4.401   1.736   3.660  0.9043 -0.1001  0.7159
   64CHL1    H8 5857   4.503   1.752   3.618 -0.5683 -0.0861 -3.3653
   64CHL1   C14 5858   4.377   1.724   3.813 -0.0236  0.1992  0.2596
   64CHL1   H14 5859   4.274   1.687   3.834  0.4066 -0.6969  0.8534
   64CHL1   C15 5860   4.391   1.852   3.891  0.1510 -0.4024 -0.7511
   64CHL1  H15A 5861   4.471   1.918   3.850 -0.4376  1.3826  0.8460
   64CHL1  H15B 5862   4.301   1.917   3.896 -1.1527 -2.1071 -1.3336
   64CHL1   C16 5863   4.413   1.797   4.036 -0.3583 -0.5358  0.3289
   64CHL1  H16A 5864   4.510   1.839   4.072  1.8153 -1.4794 -3.7776
   64CHL1  H16B 5865   4.339   1.845   4.103 -0.3522  1.3108 -0.8979
   64CHL1   C17 5866   4.413   1.640   4.032  0.2101  0.0162  0.3341
   64CHL1   H17 5867   4.309   1.605   4.046  1.2952 -3.9781 -0.5543
   64CHL1   C13 5868   4.456   1.613   3.881  0.2620  0.0230  0.4267
   64CHL1   C18 5869   4.611   1.614   3.859  0.6161 -0.4484  0.9202
   64CHL1  H18A 5870   4.653   1.690   3.928  0.6662 -0.2907  0.7163
   64CHL1  H18B 5871   4.656   1.517   3.887  2.4968 -0.1272 -0.7369
   64CHL1  H18C 5872   4.638   1.640   3.754  0.0633  1.4204  1.2038
   64CHL1   C12 5873   4.403   1.486   3.816 -0.6755  0.3351 -0.6572
   64CHL1  H12A 5874   4.446   1.386   3.836 -0.5420  0.3645 -0.7885
   64CHL1  H12B 5875   4.294   1.476   3.832 -1.0113  0.3521 -2.6904
   64CHL1   C11 5876   4.424   1.480   3.658  0.0152  0.3572 -0.6467
   64CHL1  H11A 5877   4.534   1.482   3.641  0.1797  3.3680  0.2158
   64CHL1  H11B 5878   4.383   1.383   3.622 -2.1897  1.1182 -0.3404
   64CHL1    C9 5879   4.362   1.603   3.587  0.0284 -1.2545 -0.2032
   64CHL1    H9 5880   4.253   1.596   3.607 -0.0530  0.3613  0.0066
   64CHL1   C10 5881   4.384   1.616   3.433  0.4059 -0.2799 -0.0329
   64CHL1   C19 5882   4.526   1.623   3.390  0.5273  0.7795  0.0122
   64CHL1  H19A 5883   4.563   1.518   3.381 -0.8080  0.1777  1.2068
   64CHL1  H19B 5884   4.542   1.665   3.288  2.0419 -2.7756 -1.3999
   64CHL1  H19C 5885   4.591   1.672   3.465 -1.4222 -0.3716  2.5974
   64CHL1    C1 5886   4.297   1.503   3.364 -0.2606 -0.5026 -0.2522
   64CHL1   H1A 5887   4.333   1.402   3.394 -0.8368 -0.4505  0.6235
   64CHL1   H1B 5888   4.194   1.514   3.403  0.3572  0.6859  1.1204
   64CHL1    C2 5889   4.294   1.518   3.214 -0.3611  0.6812  0.3161
   64CHL1   H2A 5890   4.248   1.430   3.164  2.3550 -0.4205 -0.4571
   64CHL1   H2B 5891   4.398   1.520   3.174 -0.6296  1.5330 -0.3768
   64CHL1   C20 5892   4.491   1.575   4.147 -0.6240 -0.2209 -0.4747
   64CHL1   H20 5893   4.599   1.590   4.125 -0.2247  0.2455  1.5863
   64CHL1   C21 5894   4.469   1.427   4.152 -0.6952  0.4943  0.7873
   64CHL1  H21A 5895   4.531   1.385   4.235  0.7777  1.3436  0.1614
   64CHL1  H21B 5896   4.500   1.374   4.059 -0.8447 -0.7737  1.4357
   64CHL1  H21C 5897   4.363   1.403   4.176 -1.4260  0.2399 -2.3182
   64CHL1   C22 5898   4.456   1.628   4.294 -0.0981 -0.8096  1.2892
   64CHL1  H22A 5899   4.472   1.738   4.290 -0.9318 -0.6871  1.0963
   64CHL1  H22B 5900   4.347   1.617   4.315 -0.1226  0.5538  1.9593
   64CHL1   C23 5901   4.541   1.570   4.405 -0.2081 -0.1648  0.4869
   64CHL1  H23A 5902   4.501   1.469   4.430 -0.3292 -0.9747 -2.5702
   64CHL1  H23B 5903   4.646   1.552   4.375 -0.5750  0.8737 -1.6552
   64CHL1   C24 5904   4.531   1.652   4.526  0.0217  0.4921 -0.1813
   64CHL1  H24A 5905   4.522   1.762   4.513 -1.8826  0.5958  1.5146
   64CHL1  H24B 5906   4.444   1.619   4.587  0.0999  0.7299  0.0616
   64CHL1   C25 5907   4.658   1.624   4.612  0.1068 -0.2044 -0.7395
   64CHL1   H25 5908   4.747   1.618   4.546  1.4468 -1.2588  1.0663
   64CHL1   C26 5909   4.683   1.745   4.712 -0.0417  0.1141  0.1915
   64CHL1  H26A 5910   4.761   1.708   4.782 -0.1413 -2.7936 -1.0634
   64CHL1  H26B 5911   4.722   1.837   4.664  1.3142 -0.4239  0.2096
   64CHL1  H26C 5912   4.594   1.777   4.770 -0.8700  0.2738 -1.1142
   64CHL1   C27 5913   4.661   1.490   4.692 -0.2350  0.2312  0.8985
   64CHL1  H27A 5914   4.761   1.480   4.740 -0.6324  1.1165  1.9361
   64CHL1  H27B 5915   4.578   1.474   4.763 -0.8314 -0.7603  0.0112
   64CHL1  H27C 5916   4.644   1.414   4.612 -2.6371  1.1407  0.4769
   65CHL1    C3 5917   2.951   4.420   3.269 -0.5667  0.2675  0.0342
   65CHL1    H3 5918   3.008   4.325   3.261 -0.5487  0.3515 -0.9896
   65CHL1    O3 5919   2.930   4.462   3.133  0.1386  0.1429  0.3675
   65CHL1   H3' 5920   3.014   4.451   3.088 -0.0376  2.3695 -0.6554
   65CHL1    C4 5921   2.805   4.402   3.326 -0.2011  0.6025  0.0834
   65CHL1   H4A 5922   2.756   4.501   3.318  2.2342  1.8518  0.0130
   65CHL1   H4B 5923   2.754   4.323   3.266  2.6093 -0.5660 -0.9557
   65CHL1    C5 5924   2.818   4.377   3.475 -0.0116  0.3523 -0.0216
   65CHL1    C6 5925   2.751   4.278   3.524  0.6978  0.5078 -0.3874
   65CHL1    H6 5926   2.688   4.224   3.452 -0.1229  0.3553  0.4364
   65CHL1    C7 5927   2.746   4.239   3.667  0.0039 -0.1175  0.0853
   65CHL1   H7A 5928   2.638   4.221   3.685 -0.4336  2.1083  0.0625
   65CHL1   H7B 5929   2.809   4.150   3.686 -0.4824 -0.2298  1.2460
   65CHL1    C8 5930   2.793   4.354   3.764  0.4597  0.5615 -0.3165
   65CHL1    H8 5931   2.705   4.422   3.761  1.0092  1.2600 -1.1507
   65CHL1   C14 5932   2.842   4.299   3.905  0.6350  0.2956  1.1123
   65CHL1   H14 5933   2.932   4.236   3.887  0.3766  0.1569  0.2720
   65CHL1   C15 5934   2.749   4.209   3.987  0.1805 -1.1647 -0.2304
   65CHL1  H15A 5935   2.649   4.256   3.978  1.0582  1.3816  1.9808
   65CHL1  H15B 5936   2.747   4.105   3.947  2.2881 -2.4063  2.5241
   65CHL1   C16 5937   2.800   4.199   4.130 -0.0270 -0.1987  0.5110
   65CHL1  H16A 5938   2.726   4.209   4.211 -0.2097  0.8253  0.2271
   65CHL1  H16B 5939   2.858   4.105   4.144  3.1693  1.7688  1.6958
   65CHL1   C17 5940   2.902   4.316   4.130  0.7014  0.1297  0.3585
   65CHL1   H17 5941   2.996   4.263   4.104 -0.6319 -2.2969  0.2075
   65CHL1   C13 5942   2.875   4.408   4.007  0.4553  0.3962 -0.3282
   65CHL1   C18 5943   2.754   4.495   4.047  0.0174 -0.0559  0.2514
   65CHL1  H18A 5944   2.705   4.541   3.959 -1.8382  1.8327  2.1684
   65CHL1  H18B 5945   2.668   4.445   4.096  0.1932 -1.3645 -0.7321
   65CHL1  H18C 5946   2.786   4.574   4.118  0.0415 -1.1054  1.4391
   65CHL1   C12 5947   2.992   4.487   3.957  0.0609  0.4625  0.5459
   65CHL1  H12A 5948   3.005   4.588   4.001  2.2550  1.4299 -1.9916
   65CHL1  H12B 5949   3.088   4.430   3.954 -0.4563 -0.3963 -0.2710
   65CHL1   C11 5950   2.964   4.524   3.808 -0.1383 -0.2201 -0.0350
   65CHL1  H11A 5951   2.895   4.611   3.815  0.3896  0.3634 -1.7402
   65CHL1  H11B 5952   3.054   4.582   3.776  1.6020 -1.5826  2.0747
   65CHL1    C9 5953   2.919   4.424   3.703 -0.1255 -0.1660  0.2065
   65CHL1    H9 5954   3.000   4.350   3.690  0.5115  0.5048  0.3118
   65CHL1   C10 5955   2.895   4.479   3.560 -0.4415  0.6554  0.2675
   65CHL1   C19 5956   2.822   4.615   3.566  0.1111  0.7373 -0.5717
   65CHL1  H19A 5957   2.736   4.629   3.636  0.2823 -0.2502 -0.1548
   65CHL1  H19B 5958   2.885   4.696   3.609  0.0628 -0.6750  2.3683
   65CHL1  H19C 5959   2.779   4.648   3.469 -0.9020  0.3690 -0.2566
   65CHL1    C1 5960   3.036   4.491   3.484  0.0894  0.9013 -0.5054
   65CHL1   H1A 5961   3.093   4.572   3.536  1.7079 -0.9460  0.7347
   65CHL1   H1B 5962   3.100   4.400   3.481  1.0281  1.5712 -1.9723
   65CHL1    C2 5963   3.031   4.536   3.340 -0.9655 -0.4139  0.5709
   65CHL1   H2A 5964   3.126   4.544   3.282 -2.4368 -0.0162 -1.9581
   65CHL1   H2B 5965   2.975   4.631   3.331 -2.3054 -1.2009  0.3399
   65CHL1   C20 5966   2.916   4.365   4.272  0.3137  0.2095  0.6804
   65CHL1   H20 5967   2.824   4.414   4.310 -0.9855 -0.7756 -1.0082
   65CHL1   C21 5968   3.029   4.470   4.279 -0.1311 -0.3542 -0.4205
   65CHL1  H21A 5969   2.977   4.560   4.240 -0.3492  0.0832  0.8464
   65CHL1  H21B 5970   3.114   4.448   4.211  1.1979 -1.9791  1.6281
   65CHL1  H21C 5971   3.057   4.505   4.381  0.2382  0.9084 -0.9353
   65CHL1   C22 5972   2.958   4.255   4.369 -0.1656  0.3427  0.0970
   65CHL1  H22A 5973   2.879   4.179   4.387 -0.8288  1.1586  0.6904
   65CHL1  H22B 5974   3.049   4.206   4.327 -0.9306 -0.0220 -1.2087
   65CHL1   C23 5975   2.984   4.295   4.515 -0.3028  0.2287 -0.1360
   65CHL1  H23A 5976   3.080   4.350   4.528  0.6389 -1.3005 -0.3579
   65CHL1  H23B 5977   2.902   4.358   4.556  0.7223  0.5814  1.4478
   65CHL1   C24 5978   2.996   4.164   4.593  0.0849 -0.0489 -0.7761
   65CHL1  H24A 5979   2.903   4.105   4.579  0.0574  0.1566 -1.4963
   65CHL1  H24B 5980   3.086   4.106   4.566 -0.8474 -0.6280 -2.7456
   65CHL1   C25 5981   3.012   4.181   4.748 -0.2030  0.2239 -0.1962
   65CHL1   H25 5982   2.935   4.250   4.787 -0.3100  0.0410 -0.0845
   65CHL1   C26 5983   2.981   4.048   4.818  0.4357 -0.6417  0.9073
   65CHL1  H26A 5984   2.910   3.996   4.751  0.0886  3.9742 -2.7754
   65CHL1  H26B 5985   3.064   3.974   4.808 -1.4268 -2.7406 -0.1331
   65CHL1  H26C 5986   2.950   4.049   4.925 -0.8803 -0.3024  0.5358
   65CHL1   C27 5987   3.146   4.236   4.795 -0.4920  0.8756 -0.5692
   65CHL1  H27A 5988   3.229   4.184   4.742 -0.1129  0.1664  0.6883
   65CHL1  H27B 5989   3.165   4.343   4.771  2.9947  1.2142  2.7622
   65CHL1  H27C 5990   3.167   4.220   4.903 -1.2873 -4.3800 -0.9265
   66CHL1    C3 5991   6.340   4.469   2.806  0.6011  0.4005  0.5481
   66CHL1    H3 5992   6.354   4.579   2.809  0.6760  0.3788  3.1355
   66CHL1    O3 5993   6.339   4.415   2.680 -0.6489 -0.3021 -0.4695
   66CHL1   H3' 5994   6.339   4.320   2.697 -2.1882 -0.0463  1.2610
   66CHL1    C4 5995   6.460   4.405   2.874  0.4782 -0.9020  0.2043
   66CHL1   H4A 5996   6.453   4.296   2.856 -2.4623 -1.0948  1.8263
   66CHL1   H4B 5997   6.551   4.454   2.833 -0.8042  2.2392  0.7604
   66CHL1    C5 5998   6.463   4.433   3.020 -0.3171 -0.0039 -0.1078
   66CHL1    C6 5999   6.569   4.501   3.072 -0.0492 -0.1215  0.3518
   66CHL1    H6 6000   6.652   4.528   3.004 -0.4341 -0.2255 -0.1642
   66CHL1    C7 6001   6.584   4.543   3.212  0.0312 -0.2171  0.1053
   66CHL1   H7A 6002   6.679   4.509   3.257 -0.3697 -2.1125 -0.3918
   66CHL1   H7B 6003   6.567   4.653   3.213  1.9978  0.1639 -1.7195
   66CHL1    C8 6004   6.483   4.474   3.311 -0.2089  0.2942  0.4648
   66CHL1    H8 6005   6.505   4.366   3.318 -0.4236  0.2266  0.1281
   66CHL1   C14 6006   6.469   4.549   3.443  0.0419 -1.2662 -0.6109
   66CHL1   H14 6007   6.437   4.655   3.433  1.5011 -0.5884  1.3294
   66CHL1   C15 6008   6.596   4.580   3.518 -0.2022 -0.1733 -0.3662
   66CHL1  H15A 6009   6.660   4.494   3.489  0.6598  0.1064  0.6665
   66CHL1  H15B 6010   6.653   4.666   3.478 -0.2109  0.6187  1.2820
   66CHL1   C16 6011   6.551   4.576   3.660  0.4943  0.1566  0.4512
   66CHL1  H16A 6012   6.592   4.487   3.713  0.9455 -0.2073 -0.4721
   66CHL1  H16B 6013   6.594   4.663   3.715  0.0616  0.3356  0.5075
   66CHL1   C17 6014   6.405   4.570   3.667 -0.1894  0.0850  0.0083
   66CHL1   H17 6015   6.365   4.673   3.653  0.9857  0.7244  1.1768
   66CHL1   C13 6016   6.369   4.492   3.544 -0.3545 -0.8262 -0.5529
   66CHL1   C18 6017   6.385   4.340   3.567  0.1402 -0.1755  0.0640
   66CHL1  H18A 6018   6.487   4.306   3.595  0.0558 -0.4325  0.0616
   66CHL1  H18B 6019   6.309   4.313   3.644 -0.6830  0.0892 -0.6299
   66CHL1  H18C 6020   6.364   4.283   3.475 -0.4687  0.9665 -0.5344
   66CHL1   C12 6021   6.238   4.536   3.481  0.3074 -0.1620  0.2637
   66CHL1  H12A 6022   6.148   4.504   3.538 -1.8826  2.1187 -1.6143
   66CHL1  H12B 6023   6.236   4.647   3.477  1.9554 -0.1016  0.5575
   66CHL1   C11 6024   6.221   4.469   3.341  0.2077  0.4638  0.9202
   66CHL1  H11A 6025   6.191   4.364   3.361 -0.1951  0.5694  0.8654
   66CHL1  H11B 6026   6.140   4.524   3.290  1.2320 -0.6511 -2.1233
   66CHL1    C9 6027   6.343   4.485   3.247  0.3067  0.1392 -0.1976
   66CHL1    H9 6028   6.330   4.593   3.224  1.2922  0.0913 -1.0747
   66CHL1   C10 6029   6.338   4.414   3.111 -0.1991 -0.2911 -0.0602
   66CHL1   C19 6030   6.305   4.258   3.139 -0.2286 -0.0007  0.0649
   66CHL1  H19A 6031   6.206   4.232   3.182 -0.0205 -0.8434  0.0363
   66CHL1  H19B 6032   6.319   4.195   3.049  2.4064  0.6326 -0.0470
   66CHL1  H19C 6033   6.383   4.221   3.208 -1.8677 -0.4787  1.7428
   66CHL1    C1 6034   6.217   4.471   3.024 -0.5425  0.4947  0.4125
   66CHL1   H1A 6035   6.125   4.442   3.079 -0.1985  1.6558  1.6385
   66CHL1   H1B 6036   6.223   4.582   3.023  5.4067  0.5184  1.6606
   66CHL1    C2 6037   6.216   4.415   2.879 -0.0105  0.1262  0.1439
   66CHL1   H2A 6038   6.126   4.441   2.819  0.6285  0.4777 -0.6806
   66CHL1   H2B 6039   6.223   4.304   2.880  0.3301  0.1506  0.6183
   66CHL1   C20 6040   6.357   4.527   3.808  0.4637 -0.3378 -0.5179
   66CHL1   H20 6041   6.390   4.424   3.833 -1.2714 -0.5658  1.0995
   66CHL1   C21 6042   6.197   4.518   3.807 -0.1322 -0.1013 -0.3489
   66CHL1  H21A 6043   6.146   4.449   3.737 -1.6442  0.0235  0.5853
   66CHL1  H21B 6044   6.162   4.615   3.765  0.0575  0.1743  0.1125
   66CHL1  H21C 6045   6.149   4.510   3.907  1.7933  3.7086  1.1042
   66CHL1   C22 6046   6.399   4.614   3.934  0.9557  0.0377 -0.5721
   66CHL1  H22A 6047   6.505   4.583   3.945  0.5331 -2.4608 -2.5304
   66CHL1  H22B 6048   6.397   4.720   3.902 -0.1795 -0.6585 -3.0766
   66CHL1   C23 6049   6.317   4.602   4.064 -0.6936 -0.4420 -0.3257
   66CHL1  H23A 6050   6.220   4.657   4.072  0.1571  0.9228  1.0660
   66CHL1  H23B 6051   6.292   4.496   4.088 -1.9772  0.0049  0.4449
   66CHL1   C24 6052   6.413   4.658   4.178 -0.3186  0.2326  0.7203
   66CHL1  H24A 6053   6.498   4.587   4.192 -1.3482 -1.8390 -2.3460
   66CHL1  H24B 6054   6.450   4.757   4.144 -1.2419  1.2106  2.4507
   66CHL1   C25 6055   6.349   4.654   4.316  0.8104 -0.3058  0.3562
   66CHL1   H25 6056   6.265   4.726   4.318  1.0660  0.0357 -0.6955
   66CHL1   C26 6057   6.296   4.517   4.350 -0.4277  0.2306  0.2556
   66CHL1  H26A 6058   6.372   4.437   4.337 -1.3236 -0.4555 -0.8935
   66CHL1  H26B 6059   6.264   4.510   4.456  2.9314 -0.5726  1.3624
   66CHL1  H26C 6060   6.208   4.496   4.287  0.0901  1.5538 -0.9536
   66CHL1   C27 6061   6.459   4.694   4.422 -1.0097  0.2795  0.3010
   66CHL1  H27A 6062   6.545   4.624   4.416 -1.6310 -0.4623 -0.2355
   66CHL1  H27B 6063   6.415   4.688   4.524  0.4814 -0.5895  0.9376
   66CHL1  H27C 6064   6.497   4.796   4.400 -0.9109  0.7025  2.2244
   67CHL1    C3 6065   6.449   1.221   3.111  0.2647  0.4228 -0.4997
   67CHL1    H3 6066   6.549   1.264   3.132  0.6846 -0.1554 -1.2500
   67CHL1    O3 6067   6.424   1.213   2.975  0.5826 -0.2204  0.0922
   67CHL1   H3' 6068   6.356   1.145   2.970  0.5051 -0.1980  0.7936
   67CHL1    C4 6069   6.427   1.080   3.171 -0.6869  0.3607  0.6327
   67CHL1   H4A 6070   6.324   1.042   3.152 -1.0505  1.5409  0.1370
   67CHL1   H4B 6071   6.501   1.021   3.113 -0.5092  0.4439  0.7758
   67CHL1    C5 6072   6.457   1.072   3.319 -0.0667 -1.2682  0.0031
   67CHL1    C6 6073   6.545   0.986   3.374 -0.3093 -0.0582 -0.1590
   67CHL1    H6 6074   6.593   0.917   3.303 -0.9946  0.3620 -1.0423
   67CHL1    C7 6075   6.590   0.986   3.516 -0.3235 -0.1001 -0.2299
   67CHL1   H7A 6076   6.611   0.886   3.560  2.6761  0.3929 -0.3041
   67CHL1   H7B 6077   6.690   1.035   3.523 -0.5376  0.2693  0.3335
   67CHL1    C8 6078   6.494   1.068   3.605 -0.7474 -0.2115 -0.0738
   67CHL1    H8 6079   6.402   1.011   3.627 -1.3703  1.3915  1.6879
   67CHL1   C14 6080   6.550   1.096   3.749 -0.2056 -0.7956  0.9467
   67CHL1   H14 6081   6.635   1.160   3.719  0.4452 -1.2221  1.8573
   67CHL1   C15 6082   6.607   0.971   3.822 -0.7463 -0.0129  0.6861
   67CHL1  H15A 6083   6.530   0.892   3.810 -0.8484  0.4214 -2.2137
   67CHL1  H15B 6084   6.707   0.932   3.792 -0.2215  2.2857 -0.7816
   67CHL1   C16 6085   6.612   1.012   3.970  0.1168 -0.5238 -0.2677
   67CHL1  H16A 6086   6.541   0.962   4.039 -1.5640  2.5415  0.4076
   67CHL1  H16B 6087   6.717   1.010   4.007 -0.2627 -1.8121  0.8272
   67CHL1   C17 6088   6.562   1.160   3.967 -0.2308  0.2408 -0.7578
   67CHL1   H17 6089   6.649   1.223   3.940 -0.2778  1.7680  2.1720
   67CHL1   C13 6090   6.467   1.164   3.843 -0.2997 -0.0411 -0.0034
   67CHL1   C18 6091   6.341   1.077   3.881  0.3549  0.1423  0.5492
   67CHL1  H18A 6092   6.270   1.054   3.798  1.2512 -2.4946  0.4194
   67CHL1  H18B 6093   6.373   0.978   3.919  0.1865  0.0202  0.3748
   67CHL1  H18C 6094   6.283   1.122   3.964  1.0496  3.3273 -0.5655
   67CHL1   C12 6095   6.432   1.303   3.790  0.1709 -0.0132 -0.1640
   67CHL1  H12A 6096   6.358   1.340   3.864  0.8074 -0.2291  0.6043
   67CHL1  H12B 6097   6.522   1.368   3.790  1.3967 -1.6432  0.4705
   67CHL1   C11 6098   6.369   1.291   3.650 -0.2711  0.8179  0.0250
   67CHL1  H11A 6099   6.277   1.230   3.663  0.9980 -1.1207  0.2774
   67CHL1  H11B 6100   6.346   1.387   3.598  0.6706  1.3910  0.6291
   67CHL1    C9 6101   6.453   1.197   3.547  0.2048  0.0420 -0.0516
   67CHL1    H9 6102   6.538   1.268   3.532  0.5441  0.3968  2.9021
   67CHL1   C10 6103   6.389   1.181   3.405 -0.3771  0.0513  0.5189
   67CHL1   C19 6104   6.247   1.143   3.421  0.0081  0.1587 -0.2911
   67CHL1  H19A 6105   6.184   1.227   3.457 -0.4484  0.0679 -0.8562
   67CHL1  H19B 6106   6.196   1.122   3.325 -2.0135 -0.3784  0.8432
   67CHL1  H19C 6107   6.237   1.063   3.497 -3.6679  0.2553 -0.5320
   67CHL1    C1 6108   6.405   1.320   3.327 -0.7162  0.3983  0.0453
   67CHL1   H1A 6109   6.342   1.397   3.377  2.5850  1.7214  2.5352
   67CHL1   H1B 6110   6.513   1.341   3.335 -0.4107 -1.1333  0.1674
   67CHL1    C2 6111   6.357   1.316   3.176  0.2738 -0.6527 -0.2616
   67CHL1   H2A 6112   6.374   1.416   3.131  1.1038 -0.2142  0.9493
   67CHL1   H2B 6113   6.255   1.280   3.152  0.0052  1.5430 -2.9289
   67CHL1   C20 6114   6.508   1.216   4.106 -0.3014  0.5055 -1.0348
   67CHL1   H20 6115   6.401   1.198   4.131  0.0481  1.9915  2.1222
   67CHL1   C21 6116   6.538   1.362   4.122  0.3882  0.0204  0.0060
   67CHL1  H21A 6117   6.505   1.415   4.030  0.1333  0.6785  0.4664
   67CHL1  H21B 6118   6.646   1.384   4.130  0.5557 -0.0705 -1.6528
   67CHL1  H21C 6119   6.486   1.401   4.212 -0.5231 -1.1582  0.0110
   67CHL1   C22 6120   6.568   1.138   4.232  0.1805  0.0853 -0.2004
   67CHL1  H22A 6121   6.530   1.034   4.234  2.7582 -0.9150  0.6685
   67CHL1  H22B 6122   6.678   1.122   4.222  0.4465  0.2525  2.0471
   67CHL1   C23 6123   6.543   1.194   4.373  0.3952  0.5397 -0.3226
   67CHL1  H23A 6124   6.606   1.284   4.391 -0.5368  0.9288  1.2537
   67CHL1  H23B 6125   6.434   1.218   4.377  0.2875  0.0876 -0.4600
   67CHL1   C24 6126   6.566   1.096   4.497 -0.4408 -0.6885  1.0129
   67CHL1  H24A 6127   6.511   1.142   4.582 -0.8400 -0.1979  0.5031
   67CHL1  H24B 6128   6.526   0.996   4.470 -0.1310 -0.0385 -2.2572
   67CHL1   C25 6129   6.712   1.095   4.537  0.4403  1.1500 -0.2935
   67CHL1   H25 6130   6.780   1.075   4.452 -0.8331 -0.6606 -0.9628
   67CHL1   C26 6131   6.760   1.216   4.610  0.1211  0.2437  0.2697
   67CHL1  H26A 6132   6.746   1.302   4.541  0.4931  0.9484  1.0547
   67CHL1  H26B 6133   6.708   1.224   4.708 -0.6441  1.1401 -0.2070
   67CHL1  H26C 6134   6.867   1.201   4.637  0.7241  3.2038 -0.1404
   67CHL1   C27 6135   6.724   0.964   4.620 -0.7775  0.2935  0.3181
   67CHL1  H27A 6136   6.634   0.944   4.682  0.8996 -0.8275  2.5709
   67CHL1  H27B 6137   6.741   0.870   4.563  0.0585  0.3346  0.4848
   67CHL1  H27C 6138   6.812   0.973   4.688  0.4485 -0.7541 -1.0703
   68CHL1    C3 6139   5.433   2.305   2.796  0.0564 -0.2854 -0.8726
   68CHL1    H3 6140   5.345   2.263   2.849  1.2080 -1.6221  0.0615
   68CHL1    O3 6141   5.409   2.290   2.654  0.4283 -0.3281  0.5298
   68CHL1   H3' 6142   5.346   2.361   2.640  0.6840 -0.1151  0.4626
   68CHL1    C4 6143   5.454   2.450   2.841 -0.2896  0.1411  1.0598
   68CHL1   H4A 6144   5.531   2.498   2.777 -0.0934  1.5710  2.3035
   68CHL1   H4B 6145   5.369   2.518   2.821 -0.3133 -0.0415  0.5447
   68CHL1    C5 6146   5.490   2.475   2.985 -0.8831 -0.2431 -0.4023
   68CHL1    C6 6147   5.431   2.570   3.065 -0.0455 -0.2483 -0.1764
   68CHL1    H6 6148   5.365   2.642   3.015 -0.7807 -1.2689 -0.7260
   68CHL1    C7 6149   5.472   2.604   3.205 -1.0474 -0.1444  0.3053
   68CHL1   H7A 6150   5.507   2.709   3.210  0.9575 -0.7772  0.8800
   68CHL1   H7B 6151   5.380   2.581   3.263 -1.2163  3.6559  1.8200
   68CHL1    C8 6152   5.583   2.509   3.264  0.3564 -0.0846 -0.1577
   68CHL1    H8 6153   5.677   2.565   3.243  0.1598  0.5604  0.6367
   68CHL1   C14 6154   5.570   2.491   3.415  0.3169  0.3381 -0.7709
   68CHL1   H14 6155   5.483   2.423   3.430  0.3207 -0.0224 -2.1647
   68CHL1   C15 6156   5.547   2.623   3.492  0.3694  0.0682 -0.0518
   68CHL1  H15A 6157   5.612   2.705   3.454 -1.4856  2.0791  0.8935
   68CHL1  H15B 6158   5.437   2.637   3.480  0.5360  1.5057 -0.0251
   68CHL1   C16 6159   5.573   2.586   3.636  0.2140  0.2933  0.0317
   68CHL1  H16A 6160   5.629   2.659   3.697  3.1637 -0.7168 -1.2980
   68CHL1  H16B 6161   5.474   2.569   3.683 -0.9815  3.2886 -1.1242
   68CHL1   C17 6162   5.645   2.447   3.634  0.0337  0.4473  0.7659
   68CHL1   H17 6163   5.566   2.373   3.660  0.6146  0.0986  1.6156
   68CHL1   C13 6164   5.682   2.426   3.481  0.1237  0.3735 -0.5314
   68CHL1   C18 6165   5.806   2.509   3.459 -0.9016 -0.4655  0.1759
   68CHL1  H18A 6166   5.798   2.617   3.485 -1.6336 -0.2660 -0.8455
   68CHL1  H18B 6167   5.889   2.472   3.523 -1.5134  0.4223  1.5396
   68CHL1  H18C 6168   5.855   2.498   3.360  1.2235  0.2696  1.0733
   68CHL1   C12 6169   5.686   2.284   3.427 -0.0883  0.2757  0.7279
   68CHL1  H12A 6170   5.771   2.220   3.459 -1.5296 -1.4836  1.2500
   68CHL1  H12B 6171   5.594   2.227   3.453 -1.3767  1.5214 -0.8860
   68CHL1   C11 6172   5.693   2.280   3.274 -0.6343  0.7675 -0.2234
   68CHL1  H11A 6173   5.792   2.320   3.242 -0.4817  1.9325  1.5764
   68CHL1  H11B 6174   5.689   2.174   3.240  2.6680 -0.4845  2.6873
   68CHL1    C9 6175   5.594   2.370   3.199 -0.2734 -0.4377  0.8030
   68CHL1    H9 6176   5.504   2.311   3.226 -0.9126 -0.4566 -1.1527
   68CHL1   C10 6177   5.605   2.382   3.041  0.8474  0.3537  0.2802
   68CHL1   C19 6178   5.741   2.433   2.991  0.2887  0.3537 -0.4089
   68CHL1  H19A 6179   5.741   2.436   2.880  0.4716  3.1439 -0.3842
   68CHL1  H19B 6180   5.754   2.536   3.029 -0.7983 -0.2082  1.6495
   68CHL1  H19C 6181   5.826   2.372   3.028 -0.5724 -2.2307 -2.3730
   68CHL1    C1 6182   5.575   2.231   2.995  0.2530  0.1302 -0.0891
   68CHL1   H1A 6183   5.670   2.182   3.026 -1.4274 -2.0181  2.0525
   68CHL1   H1B 6184   5.488   2.190   3.051  0.0058 -0.5866 -0.9699
   68CHL1    C2 6185   5.543   2.209   2.845  0.3273  0.4962 -0.3036
   68CHL1   H2A 6186   5.522   2.102   2.823 -1.7832  0.2943  2.3216
   68CHL1   H2B 6187   5.634   2.246   2.792 -0.3378 -0.1234 -1.9566
   68CHL1   C20 6188   5.753   2.427   3.742  0.3284 -0.6752 -0.0786
   68CHL1   H20 6189   5.833   2.501   3.723  0.4500 -0.8807 -0.3892
   68CHL1   C21 6190   5.821   2.295   3.730 -0.6208  0.3741  0.1905
   68CHL1  H21A 6191   5.869   2.268   3.634 -0.2074 -1.5299  0.8790
   68CHL1  H21B 6192   5.740   2.222   3.751 -0.7052  0.3912 -0.0757
   68CHL1  H21C 6193   5.897   2.272   3.808 -0.5343 -1.8380 -0.4655
   68CHL1   C22 6194   5.705   2.447   3.892 -0.5780 -1.3882  0.1105
   68CHL1  H22A 6195   5.661   2.549   3.901  2.5659  0.2003 -0.9064
   68CHL1  H22B 6196   5.628   2.368   3.905 -1.8116 -0.1598  0.5193
   68CHL1   C23 6197   5.817   2.462   3.996  0.3410 -0.2400  0.9930
   68CHL1  H23A 6198   5.864   2.361   4.007 -2.6587 -1.7898  0.5312
   68CHL1  H23B 6199   5.882   2.546   3.965 -2.4231  1.3708 -0.7919
   68CHL1   C24 6200   5.752   2.518   4.125 -0.9880 -0.6034 -0.8768
   68CHL1  H24A 6201   5.727   2.624   4.106  2.5334  0.4153 -0.5298
   68CHL1  H24B 6202   5.661   2.462   4.154 -2.0586 -1.5079 -5.3247
   68CHL1   C25 6203   5.851   2.531   4.249  1.0627  0.2631  0.3631
   68CHL1   H25 6204   5.933   2.596   4.211 -1.6744  4.3208  0.6742
   68CHL1   C26 6205   5.778   2.604   4.361  0.2519  0.3613  0.1485
   68CHL1  H26A 6206   5.859   2.624   4.434  2.2007  3.1395 -2.5004
   68CHL1  H26B 6207   5.729   2.700   4.333  0.6210  0.2840 -0.8044
   68CHL1  H26C 6208   5.696   2.538   4.397 -0.2603  0.2355 -1.1789
   68CHL1   C27 6209   5.905   2.397   4.290 -0.1735 -0.5625 -0.5415
   68CHL1  H27A 6210   5.982   2.413   4.369  0.4722 -0.1084 -1.2429
   68CHL1  H27B 6211   5.819   2.343   4.334 -0.9903  0.2042 -1.1823
   68CHL1  H27C 6212   5.950   2.338   4.207  2.3025 -3.8157  2.7671
   69CHL1    C3 6213   0.549   5.115   3.356 -0.3565  0.1582  0.5026
   69CHL1    H3 6214   0.507   5.218   3.354 -1.8356 -0.4245 -0.5890
   69CHL1    O3 6215   0.589   5.094   3.219  0.1999  0.3090 -0.1668
   69CHL1   H3' 6216   0.600   4.999   3.212  3.4919  0.4488  1.2681
   69CHL1    C4 6217   0.667   5.126   3.437 -0.4663  0.3653 -0.6219
   69CHL1   H4A 6218   0.737   5.042   3.420  0.2448  0.1574  2.6518
   69CHL1   H4B 6219   0.729   5.212   3.403  2.1133 -1.5056 -0.9384
   69CHL1    C5 6220   0.636   5.132   3.582  0.3845 -0.1857 -0.1472
   69CHL1    C6 6221   0.676   5.232   3.659 -0.4718  0.3817  0.2145
   69CHL1    H6 6222   0.745   5.309   3.620 -0.2256 -0.5516 -1.2586
   69CHL1    C7 6223   0.649   5.250   3.804 -0.0993  0.3205  0.1454
   69CHL1   H7A 6224   0.736   5.289   3.861  1.1732 -1.7798 -0.2460
   69CHL1   H7B 6225   0.567   5.317   3.835  0.4259  0.7275  0.6854
   69CHL1    C8 6226   0.603   5.113   3.859 -0.9303  0.4449 -0.8307
   69CHL1    H8 6227   0.688   5.043   3.865  1.0003  2.7301  0.1855
   69CHL1   C14 6228   0.552   5.133   4.001  0.9646  0.0240  0.4107
   69CHL1   H14 6229   0.475   5.214   3.997 -0.3424 -1.1713  0.7269
   69CHL1   C15 6230   0.659   5.187   4.098 -0.1622 -0.4203 -0.1977
   69CHL1  H15A 6231   0.749   5.122   4.087 -2.7154 -4.4643  0.3462
   69CHL1  H15B 6232   0.688   5.292   4.077 -2.5975  0.1895 -0.8755
   69CHL1   C16 6233   0.603   5.165   4.232 -0.0851  0.4546  0.7572
   69CHL1  H16A 6234   0.685   5.108   4.281 -0.1565  0.0099  0.3748
   69CHL1  H16B 6235   0.588   5.254   4.296 -0.8778 -0.5588  2.0378
   69CHL1   C17 6236   0.472   5.082   4.209 -0.5029 -0.2054  0.5376
   69CHL1   H17 6237   0.393   5.159   4.197 -2.5554 -2.0876  1.3492
   69CHL1   C13 6238   0.491   5.010   4.073  0.1246  0.0407  0.0601
   69CHL1   C18 6239   0.595   4.899   4.092  0.0286 -0.5281  0.4813
   69CHL1  H18A 6240   0.680   4.936   4.154 -0.3345  2.9537 -0.8636
   69CHL1  H18B 6241   0.551   4.806   4.132  1.6581 -1.0050  1.2371
   69CHL1  H18C 6242   0.624   4.877   3.987 -1.2270  2.9875 -0.7736
   69CHL1   C12 6243   0.371   4.959   3.997 -0.0129  0.6479  0.6151
   69CHL1  H12A 6244   0.338   4.862   4.039  0.6404 -0.4189 -1.2202
   69CHL1  H12B 6245   0.295   5.040   3.994 -1.1114 -0.3722 -1.1270
   69CHL1   C11 6246   0.406   4.938   3.850 -0.2584 -0.0831 -0.3592
   69CHL1  H11A 6247   0.468   4.846   3.845  0.6107  0.5699 -2.3801
   69CHL1  H11B 6248   0.313   4.919   3.793 -1.3349 -1.0128  1.5847
   69CHL1    C9 6249   0.491   5.053   3.781  0.2382  0.7365  0.4150
   69CHL1    H9 6250   0.420   5.137   3.766 -2.2994 -1.3361  0.1352
   69CHL1   C10 6251   0.535   5.027   3.636  0.6013  0.1865  0.8045
   69CHL1   C19 6252   0.607   4.883   3.633  0.3767  0.0935 -0.6114
   69CHL1  H19A 6253   0.649   4.863   3.532 -1.1568 -0.8720 -1.1027
   69CHL1  H19B 6254   0.680   4.879   3.716 -0.7663  1.0875  0.4882
   69CHL1  H19C 6255   0.524   4.809   3.639  0.1860  0.2271 -1.4203
   69CHL1    C1 6256   0.412   5.026   3.540 -0.1713 -0.8018  0.1517
   69CHL1   H1A 6257   0.344   4.942   3.565  0.3876 -1.0193  0.9895
   69CHL1   H1B 6258   0.365   5.126   3.546  3.6000  1.2692 -1.2031
   69CHL1    C2 6259   0.445   5.008   3.393 -0.2098 -0.9373 -0.3563
   69CHL1   H2A 6260   0.350   5.027   3.339 -3.0034 -0.2831  4.2670
   69CHL1   H2B 6261   0.481   4.906   3.367 -1.0797 -0.8410 -2.0695
   69CHL1   C20 6262   0.434   4.996   4.337  0.4133 -0.3027  0.1759
   69CHL1   H20 6263   0.516   4.921   4.346  2.1752  1.5927  0.7971
   69CHL1   C21 6264   0.301   4.923   4.326 -0.0858  0.2239 -0.0626
   69CHL1  H21A 6265   0.288   4.850   4.408 -1.0041 -0.6144 -0.9178
   69CHL1  H21B 6266   0.302   4.851   4.241 -0.1100  0.1012  0.0412
   69CHL1  H21C 6267   0.215   4.989   4.299 -1.4042 -1.6196 -0.5462
   69CHL1   C22 6268   0.437   5.076   4.470  0.5648  0.5885 -1.1290
   69CHL1  H22A 6269   0.430   5.005   4.556  0.7095 -0.8842 -2.2790
   69CHL1  H22B 6270   0.540   5.117   4.478 -0.1303  2.3099 -0.5893
   69CHL1   C23 6271   0.338   5.190   4.489  0.7316 -0.3584 -0.0233
   69CHL1  H23A 6272   0.351   5.264   4.407  1.3150  0.5503  0.8609
   69CHL1  H23B 6273   0.235   5.148   4.480  0.1253  1.0104  0.3022
   69CHL1   C24 6274   0.351   5.272   4.623  0.4886 -0.7070  0.3325
   69CHL1  H24A 6275   0.261   5.337   4.619 -0.2714 -1.7567 -0.3532
   69CHL1  H24B 6276   0.343   5.205   4.712  2.3550 -0.2730  0.8767
   69CHL1   C25 6277   0.462   5.373   4.643 -0.6313  0.3714 -0.4683
   69CHL1   H25 6278   0.552   5.308   4.639 -0.0562  0.7373  3.1429
   69CHL1   C26 6279   0.486   5.470   4.527 -0.1096 -0.0626  0.1805
   69CHL1  H26A 6280   0.546   5.555   4.567 -2.3706  0.2313  3.3523
   69CHL1  H26B 6281   0.527   5.429   4.433 -0.0248  0.0167  0.1830
   69CHL1  H26C 6282   0.389   5.518   4.500  0.9266  1.1415 -1.5801
   69CHL1   C27 6283   0.451   5.446   4.778  0.3349 -0.3250 -1.2456
   69CHL1  H27A 6284   0.414   5.381   4.860 -0.7151  0.0189 -1.4277
   69CHL1  H27B 6285   0.547   5.493   4.808  1.0462 -3.2226  1.6149
   69CHL1  H27C 6286   0.360   5.510   4.773  0.4966  0.1997  1.3500
   70CHL1    C3 6287   5.362   2.994   3.006 -0.2408 -0.7641  0.5433
   70CHL1    H3 6288   5.382   2.885   3.000 -0.0456 -0.7436  0.8075
   70CHL1    O3 6289   5.346   3.042   2.873  0.0795  0.1010  0.0668
   70CHL1   H3' 6290   5.332   3.137   2.873 -0.3408  0.0511  0.9121
   70CHL1    C4 6291   5.228   3.022   3.081  0.2820  0.0705  0.3530
   70CHL1   H4A 6292   5.205   3.131   3.076  0.0763  0.0755  1.3803
   70CHL1   H4B 6293   5.144   2.967   3.034  0.0510  1.1639 -0.5692
   70CHL1    C5 6294   5.247   2.984   3.224  0.2442 -0.1457 -0.6520
   70CHL1    C6 6295   5.167   2.891   3.294 -0.4932 -0.0132  0.2878
   70CHL1    H6 6296   5.080   2.842   3.247 -0.7202 -0.2045  0.8982
   70CHL1    C7 6297   5.173   2.857   3.438 -0.2084  0.0962  0.1383
   70CHL1   H7A 6298   5.073   2.852   3.485  0.2566  1.1048  1.2848
   70CHL1   H7B 6299   5.209   2.752   3.428 -2.5474 -0.6278 -1.3345
   70CHL1    C8 6300   5.269   2.955   3.516 -0.1667  0.5555 -0.1613
   70CHL1    H8 6301   5.199   3.040   3.532 -3.0359 -1.7467  0.2542
   70CHL1   C14 6302   5.302   2.898   3.654  0.6632 -0.8705 -0.5438
   70CHL1   H14 6303   5.361   2.805   3.641  0.8999 -0.8600  0.3557
   70CHL1   C15 6304   5.184   2.858   3.742  0.1471  0.2808  0.0825
   70CHL1  H15A 6305   5.104   2.928   3.709  0.0726  0.7787  1.2929
   70CHL1  H15B 6306   5.158   2.756   3.707  1.9814 -0.1536 -0.1525
   70CHL1   C16 6307   5.246   2.852   3.886 -0.7292 -0.1023 -0.1730
   70CHL1  H16A 6308   5.187   2.917   3.954  0.1974  0.5860 -0.0043
   70CHL1  H16B 6309   5.258   2.748   3.923 -1.7590 -0.0609  0.3097
   70CHL1   C17 6310   5.393   2.912   3.867 -0.4123  0.9761  0.4017
   70CHL1   H17 6311   5.455   2.826   3.832  0.2790  1.0452  1.4236
   70CHL1   C13 6312   5.391   2.996   3.736 -0.5882  0.1254 -1.0156
   70CHL1   C18 6313   5.324   3.134   3.765 -0.0585  0.4488 -1.0764
   70CHL1  H18A 6314   5.226   3.110   3.812  0.8060 -0.3766  0.3858
   70CHL1  H18B 6315   5.388   3.203   3.824 -1.3310  0.4597  0.3604
   70CHL1  H18C 6316   5.317   3.194   3.671 -2.2812 -0.2409 -1.4039
   70CHL1   C12 6317   5.531   3.010   3.662  0.8334 -0.5933 -0.5547
   70CHL1  H12A 6318   5.576   3.097   3.714 -2.2352  1.8614 -1.6620
   70CHL1  H12B 6319   5.599   2.922   3.663  1.3401 -0.2070  0.8249
   70CHL1   C11 6320   5.511   3.066   3.520 -0.1575  0.7775  0.0232
   70CHL1  H11A 6321   5.502   3.177   3.529 -0.8721  0.7025  0.3042
   70CHL1  H11B 6322   5.603   3.031   3.468 -0.5509  0.2461 -0.3160
   70CHL1    C9 6323   5.395   2.985   3.437 -0.2707  0.0688 -0.2342
   70CHL1    H9 6324   5.444   2.888   3.414  0.3647  0.1742  0.6316
   70CHL1   C10 6325   5.367   3.050   3.295 -0.3207 -0.2637  0.0235
   70CHL1   C19 6326   5.336   3.201   3.316 -0.2527  0.6775  0.1773
   70CHL1  H19A 6327   5.430   3.255   3.337  0.2031  0.8713 -2.1065
   70CHL1  H19B 6328   5.303   3.254   3.224  1.3323  0.5401 -0.4971
   70CHL1  H19C 6329   5.272   3.226   3.403  0.6817  0.9628  0.7965
   70CHL1    C1 6330   5.496   3.034   3.209  0.4973  0.2237 -0.0396
   70CHL1   H1A 6331   5.575   3.099   3.252  0.5168  1.3790 -1.7078
   70CHL1   H1B 6332   5.537   2.933   3.228  1.2637  1.0023  2.9576
   70CHL1    C2 6333   5.479   3.072   3.067  0.2994 -0.0465 -0.4159
   70CHL1   H2A 6334   5.572   3.057   3.008  1.2703  2.4364  0.3324
   70CHL1   H2B 6335   5.457   3.181   3.073  2.5036  0.3894  1.5862
   70CHL1   C20 6336   5.467   2.955   3.997  0.6300  0.1386  0.1480
   70CHL1   H20 6337   5.553   3.011   3.956  1.4711 -1.8272 -0.9388
   70CHL1   C21 6338   5.518   2.838   4.070  0.9592  1.3249 -0.0543
   70CHL1  H21A 6339   5.554   2.755   4.004  1.4735 -2.7451  4.7746
   70CHL1  H21B 6340   5.445   2.783   4.132  1.5939  0.0626 -0.3829
   70CHL1  H21C 6341   5.599   2.863   4.142  1.2160  1.6747 -0.4601
   70CHL1   C22 6342   5.406   3.064   4.094 -0.0635  0.2384  0.1016
   70CHL1  H22A 6343   5.336   3.121   4.029  0.6057 -1.7007 -2.5107
   70CHL1  H22B 6344   5.342   3.016   4.171  1.0755 -1.9343 -0.2298
   70CHL1   C23 6345   5.511   3.152   4.159 -0.2178  0.1239 -0.0939
   70CHL1  H23A 6346   5.588   3.095   4.215  0.8762  1.3427 -0.3162
   70CHL1  H23B 6347   5.566   3.200   4.075  1.1780  1.3155  1.4464
   70CHL1   C24 6348   5.454   3.261   4.250  0.2373 -0.0550  0.5441
   70CHL1  H24A 6349   5.390   3.318   4.179 -1.6278 -2.4560  0.1668
   70CHL1  H24B 6350   5.402   3.224   4.340  2.1586  1.9164  2.5958
   70CHL1   C25 6351   5.563   3.351   4.308 -0.1220  0.3878  0.4504
   70CHL1   H25 6352   5.513   3.431   4.368 -0.5124  2.3240 -2.2479
   70CHL1   C26 6353   5.664   3.270   4.396 -0.1554 -0.5290 -0.8817
   70CHL1  H26A 6354   5.732   3.205   4.336  0.2857  0.1049 -1.0709
   70CHL1  H26B 6355   5.746   3.330   4.439 -0.9404  1.0210 -1.4808
   70CHL1  H26C 6356   5.606   3.218   4.475  0.3349 -0.0971 -0.2342
   70CHL1   C27 6357   5.640   3.427   4.197 -0.3609  0.1555 -0.5058
   70CHL1  H27A 6358   5.730   3.474   4.241  2.0390 -0.9337 -3.8794
   70CHL1  H27B 6359   5.680   3.352   4.126 -1.7221  0.5551 -1.7474
   70CHL1  H27C 6360   5.581   3.504   4.142  1.2484  0.5472 -1.7722
   71CHL1    C3 6361   2.633   3.368   3.068  0.5769 -0.8370 -0.1657
   71CHL1    H3 6362   2.739   3.386   3.098  0.1627  0.6634  0.4901
   71CHL1    O3 6363   2.626   3.369   2.922 -0.8389  0.6162  0.0802
   71CHL1   H3' 6364   2.535   3.384   2.896 -0.7159 -0.8401 -1.3333
   71CHL1    C4 6365   2.608   3.232   3.132  0.3347  0.1330  0.9159
   71CHL1   H4A 6366   2.513   3.195   3.088  1.5713 -0.1661 -1.7169
   71CHL1   H4B 6367   2.683   3.157   3.098 -0.0106  0.2639 -0.1688
   71CHL1    C5 6368   2.602   3.231   3.277 -0.7556  0.0933 -0.6876
   71CHL1    C6 6369   2.685   3.152   3.352  0.4921 -0.5460  0.0414
   71CHL1    H6 6370   2.762   3.095   3.298 -0.3813 -0.7689 -0.9922
   71CHL1    C7 6371   2.675   3.147   3.504 -0.0731 -0.0869 -0.1266
   71CHL1   H7A 6372   2.668   3.041   3.538  1.1941  0.1383  0.9183
   71CHL1   H7B 6373   2.767   3.194   3.544  0.2301  1.2434 -2.2379
   71CHL1    C8 6374   2.543   3.218   3.561 -0.1438  0.1177  0.1901
   71CHL1    H8 6375   2.457   3.154   3.531  0.6302 -0.0474 -1.8699
   71CHL1   C14 6376   2.560   3.246   3.707 -0.3607  0.4518 -0.2576
   71CHL1   H14 6377   2.655   3.303   3.713  0.9286 -1.3257 -2.1586
   71CHL1   C15 6378   2.586   3.119   3.788 -0.0261  0.2803 -0.4594
   71CHL1  H15A 6379   2.513   3.036   3.774 -1.9525  1.4130  2.0674
   71CHL1  H15B 6380   2.690   3.080   3.787  0.3561  1.2179  0.6474
   71CHL1   C16 6381   2.557   3.166   3.923  0.1263 -1.0844  0.2601
   71CHL1  H16A 6382   2.481   3.106   3.978 -0.7111 -0.7619 -0.5250
   71CHL1  H16B 6383   2.650   3.177   3.984 -0.0275 -1.0746  0.4925
   71CHL1   C17 6384   2.508   3.315   3.918 -0.0352  0.3361 -0.3640
   71CHL1   H17 6385   2.599   3.378   3.914 -0.4555  0.9231 -1.0618
   71CHL1   C13 6386   2.447   3.321   3.776  0.0688 -0.2215  0.8546
   71CHL1   C18 6387   2.315   3.243   3.764 -0.2961  0.2708  0.0209
   71CHL1  H18A 6388   2.227   3.310   3.760 -1.4343 -1.2227 -1.0978
   71CHL1  H18B 6389   2.314   3.185   3.669  0.6599 -0.5083  0.4676
   71CHL1  H18C 6390   2.304   3.168   3.846 -1.6141 -0.0258 -0.3973
   71CHL1   C12 6391   2.433   3.462   3.701 -0.7145  0.7167  0.3036
   71CHL1  H12A 6392   2.335   3.509   3.724 -1.6708 -0.6463 -0.8399
   71CHL1  H12B 6393   2.524   3.525   3.715 -1.0418  0.7870  2.3477
   71CHL1   C11 6394   2.406   3.438   3.553 -1.0383 -0.3463  0.5605
   71CHL1  H11A 6395   2.300   3.405   3.556 -1.3084  0.4650  0.4141
   71CHL1  H11B 6396   2.408   3.540   3.508 -0.2697 -0.9527 -0.8203
   71CHL1    C9 6397   2.521   3.352   3.487 -0.3922 -0.1905 -0.1643
   71CHL1    H9 6398   2.617   3.405   3.503 -1.7797  3.2045 -2.0090
   71CHL1   C10 6399   2.508   3.342   3.333  0.3377  0.1107  0.5903
   71CHL1   C19 6400   2.361   3.304   3.302 -0.7379 -0.1862  0.6318
   71CHL1  H19A 6401   2.322   3.212   3.350 -4.0203  1.4031  1.2868
   71CHL1  H19B 6402   2.291   3.384   3.336 -0.9351 -0.7848  1.6552
   71CHL1  H19C 6403   2.337   3.310   3.194 -0.9350  2.9147  0.7397
   71CHL1    C1 6404   2.532   3.480   3.274 -0.3510  0.2058  0.0649
   71CHL1   H1A 6405   2.457   3.555   3.308 -0.5266 -0.2393  0.6836
   71CHL1   H1B 6406   2.627   3.522   3.312 -0.7007  2.5255 -1.4536
   71CHL1    C2 6407   2.554   3.480   3.122 -0.3561 -0.2562 -0.2824
   71CHL1   H2A 6408   2.585   3.580   3.084  1.4625 -0.2608  1.0369
   71CHL1   H2B 6409   2.449   3.463   3.088  0.9053 -1.7664 -3.7851
   71CHL1   C20 6410   2.421   3.357   4.038  0.5959  0.3415 -0.0409
   71CHL1   H20 6411   2.329   3.294   4.041  0.4737  0.5418  0.8929
   71CHL1   C21 6412   2.396   3.507   4.026 -0.1955 -0.8805 -0.0354
   71CHL1  H21A 6413   2.334   3.550   4.108 -1.4040  2.5395 -2.5167
   71CHL1  H21B 6414   2.344   3.527   3.930  0.4263  1.2007 -0.0008
   71CHL1  H21C 6415   2.492   3.564   4.031 -0.9986  0.7995 -2.2441
   71CHL1   C22 6416   2.493   3.334   4.173 -0.3949  0.8323  0.6225
   71CHL1  H22A 6417   2.510   3.224   4.184  2.9342  0.8793 -2.2569
   71CHL1  H22B 6418   2.594   3.379   4.162  0.6273 -1.5170 -0.5305
   71CHL1   C23 6419   2.434   3.383   4.304 -0.2998 -0.1557  0.1507
   71CHL1  H23A 6420   2.418   3.493   4.301 -0.4373 -0.1688 -2.5895
   71CHL1  H23B 6421   2.334   3.342   4.330 -0.6266 -0.0819 -0.9506
   71CHL1   C24 6422   2.522   3.346   4.419  0.0254 -0.2710  0.4211
   71CHL1  H24A 6423   2.507   3.236   4.417 -0.9557 -0.1393 -0.2858
   71CHL1  H24B 6424   2.628   3.375   4.405 -0.1618  0.1114 -0.2417
   71CHL1   C25 6425   2.492   3.397   4.562 -0.0140  0.1318  0.3814
   71CHL1   H25 6426   2.388   3.363   4.583 -2.0278  3.9142 -2.1865
   71CHL1   C26 6427   2.594   3.327   4.653 -0.2953 -0.2718 -0.4921
   71CHL1  H26A 6428   2.585   3.358   4.759  0.6536  0.1964 -0.5343
   71CHL1  H26B 6429   2.584   3.216   4.649  0.2416 -0.3438  0.0064
   71CHL1  H26C 6430   2.698   3.351   4.622  0.9107 -0.5237  2.9559
   71CHL1   C27 6431   2.499   3.550   4.576  0.6909  0.4026  0.1383
   71CHL1  H27A 6432   2.461   3.604   4.486 -0.1774  0.0120  0.2685
   71CHL1  H27B 6433   2.461   3.575   4.677  2.1824 -0.0667  0.8380
   71CHL1  H27C 6434   2.609   3.565   4.581  1.0597 -1.7024 -0.7258
   72CHL1    C3 6435   2.656   6.402   3.470  0.0870 -1.0155 -0.5419
   72CHL1    H3 6436   2.629   6.506   3.496  0.3087 -0.9797 -0.4550
   72CHL1    O3 6437   2.688   6.397   3.332 -0.3740 -0.0381 -1.0074
   72CHL1   H3' 6438   2.730   6.311   3.323 -1.5546 -1.0674  1.9832
   72CHL1    C4 6439   2.754   6.352   3.568 -0.0453  0.0017  0.2070
   72CHL1   H4A 6440   2.759   6.242   3.549  1.5772  0.0425  0.2764
   72CHL1   H4B 6441   2.851   6.391   3.532 -0.9125  1.2463 -0.8449
   72CHL1    C5 6442   2.710   6.374   3.714  0.0807 -0.6431 -0.0654
   72CHL1    C6 6443   2.793   6.434   3.795 -0.5698  0.1437 -0.2889
   72CHL1    H6 6444   2.894   6.455   3.756 -0.6095  0.3136 -0.2999
   72CHL1    C7 6445   2.757   6.448   3.941 -0.7255  0.1263  0.2199
   72CHL1   H7A 6446   2.835   6.399   4.003 -0.5835 -1.5132 -1.1613
   72CHL1   H7B 6447   2.763   6.558   3.957  2.3083  0.2894 -1.3131
   72CHL1    C8 6448   2.624   6.381   3.999 -0.2515 -0.4999  0.6210
   72CHL1    H8 6449   2.648   6.276   4.030  0.1222  0.1545  2.6751
   72CHL1   C14 6450   2.571   6.453   4.118 -0.6185  0.3145 -0.1462
   72CHL1   H14 6451   2.536   6.549   4.075 -1.1141 -0.1570 -0.8085
   72CHL1   C15 6452   2.663   6.502   4.232 -0.2062 -0.9624  0.2647
   72CHL1  H15A 6453   2.733   6.422   4.265 -0.2190 -0.0047  2.8122
   72CHL1  H15B 6454   2.722   6.591   4.201 -0.2680 -1.2945 -0.8422
   72CHL1   C16 6455   2.568   6.538   4.348  0.5435  1.1223  0.1666
   72CHL1  H16A 6456   2.587   6.480   4.440 -2.1285  1.5466  1.0821
   72CHL1  H16B 6457   2.567   6.644   4.379  1.7726  0.8446  1.1961
   72CHL1   C17 6458   2.425   6.500   4.292  0.0556 -0.0699  0.4050
   72CHL1   H17 6459   2.381   6.586   4.238 -0.5636 -0.2718  0.5768
   72CHL1   C13 6460   2.453   6.391   4.187 -0.0123  0.1630  1.0734
   72CHL1   C18 6461   2.488   6.251   4.249 -0.0099 -0.4588  0.2702
   72CHL1  H18A 6462   2.579   6.256   4.312  1.1062  0.4346 -1.3454
   72CHL1  H18B 6463   2.415   6.209   4.322 -0.4259 -0.8082 -0.3334
   72CHL1  H18C 6464   2.511   6.187   4.161  0.7875  0.7821 -0.4543
   72CHL1   C12 6465   2.347   6.375   4.065 -0.0344 -0.4145  0.3002
   72CHL1  H12A 6466   2.260   6.317   4.102 -1.0019  0.0911 -1.1357
   72CHL1  H12B 6467   2.316   6.478   4.040 -0.2297 -0.4619  0.3462
   72CHL1   C11 6468   2.406   6.301   3.945 -0.0066 -0.3181 -1.1265
   72CHL1  H11A 6469   2.443   6.200   3.974 -0.9995 -0.7182 -1.2051
   72CHL1  H11B 6470   2.325   6.270   3.875 -0.7035 -1.7442  0.2329
   72CHL1    C9 6471   2.519   6.383   3.889  0.2322  0.3584  0.7896
   72CHL1    H9 6472   2.484   6.486   3.867 -0.3749 -0.5169 -3.0373
   72CHL1   C10 6473   2.566   6.329   3.747 -0.2646 -0.4159  0.1654
   72CHL1   C19 6474   2.570   6.167   3.753  0.5006 -0.3235 -0.4137
   72CHL1  H19A 6475   2.466   6.130   3.767 -0.4601  2.0968 -0.6995
   72CHL1  H19B 6476   2.617   6.117   3.665 -0.4144  1.5719 -2.0416
   72CHL1  H19C 6477   2.619   6.131   3.845  0.2717  1.0623  0.2724
   72CHL1    C1 6478   2.468   6.380   3.645  0.6619 -0.0817 -0.5375
   72CHL1   H1A 6479   2.372   6.333   3.673  0.2723  0.3326 -1.1755
   72CHL1   H1B 6480   2.451   6.489   3.659 -0.3102 -0.0553 -1.7956
   72CHL1    C2 6481   2.515   6.343   3.503 -0.0312 -0.4311  0.3275
   72CHL1   H2A 6482   2.442   6.385   3.431 -1.2051 -1.1505  1.0684
   72CHL1   H2B 6483   2.513   6.233   3.495 -0.2779 -0.3409 -1.0393
   72CHL1   C20 6484   2.325   6.475   4.408  0.5488 -0.1732 -0.5341
   72CHL1   H20 6485   2.352   6.376   4.448 -0.0057  0.3622  1.2720
   72CHL1   C21 6486   2.184   6.467   4.349  0.5097  0.1051  0.5772
   72CHL1  H21A 6487   2.175   6.554   4.280  0.6889 -1.2122 -1.1732
   72CHL1  H21B 6488   2.106   6.483   4.426 -1.3933  0.8825 -1.4108
   72CHL1  H21C 6489   2.174   6.366   4.303  0.5491 -0.5399  1.9460
   72CHL1   C22 6490   2.330   6.582   4.521  0.5829 -0.7183 -0.1839
   72CHL1  H22A 6491   2.261   6.561   4.605  1.0812 -0.0019  0.4161
   72CHL1  H22B 6492   2.430   6.573   4.569  0.3484 -0.9353  0.2615
   72CHL1   C23 6493   2.317   6.735   4.488  0.7925  0.6579 -0.0550
   72CHL1  H23A 6494   2.391   6.759   4.409  0.0778 -1.1731 -1.3497
   72CHL1  H23B 6495   2.215   6.748   4.444  0.2787  0.5406  1.0526
   72CHL1   C24 6496   2.331   6.818   4.613 -0.4434 -0.3226  0.8452
   72CHL1  H24A 6497   2.268   6.780   4.696 -0.8014 -1.3102  0.1397
   72CHL1  H24B 6498   2.438   6.806   4.641 -0.0266  1.1180  0.0078
   72CHL1   C25 6499   2.313   6.970   4.608 -0.8191  0.2285  0.3595
   72CHL1   H25 6500   2.203   6.984   4.600 -0.9907 -0.7666  0.8067
   72CHL1   C26 6501   2.340   7.023   4.753 -0.0058  0.2354  0.2097
   72CHL1  H26A 6502   2.329   7.134   4.751  1.6800  0.4187 -0.9858
   72CHL1  H26B 6503   2.265   6.975   4.819  0.0962  0.3460  0.4052
   72CHL1  H26C 6504   2.440   6.984   4.781 -0.5586 -2.0782 -0.8074
   72CHL1   C27 6505   2.385   7.047   4.496  0.3566 -0.3015 -0.4844
   72CHL1  H27A 6506   2.493   7.034   4.519  0.2828  2.9066  2.5681
   72CHL1  H27B 6507   2.366   7.005   4.396 -0.7893  2.2004 -1.4037
   72CHL1  H27C 6508   2.358   7.155   4.494 -0.0662 -0.4249 -2.1377
   73CHL1    C3 6509   4.748   2.775   3.141  0.2232  0.9800  0.4588
   73CHL1    H3 6510   4.833   2.842   3.167 -0.0340  1.4964 -0.0204
   73CHL1    O3 6511   4.741   2.754   3.005  0.1150 -0.0537  0.0179
   73CHL1   H3' 6512   4.833   2.743   2.980  0.9805  1.2985  2.2890
   73CHL1    C4 6513   4.758   2.644   3.215 -0.6859  0.0026 -0.0422
   73CHL1   H4A 6514   4.682   2.569   3.185 -1.7270  0.5317  1.1819
   73CHL1   H4B 6515   4.856   2.599   3.187 -0.1379 -0.2457  2.0825
   73CHL1    C5 6516   4.755   2.664   3.361 -0.2165 -0.1507  0.2977
   73CHL1    C6 6517   4.860   2.634   3.439  0.8103  0.1612  0.3352
   73CHL1    H6 6518   4.949   2.588   3.394 -0.0405 -1.8618  0.6187
   73CHL1    C7 6519   4.866   2.654   3.585  0.5352  0.1426 -0.5498
   73CHL1   H7A 6520   4.908   2.562   3.632  1.1109  0.7402  0.1189
   73CHL1   H7B 6521   4.933   2.738   3.611  2.1593 -1.5338  0.9878
   73CHL1    C8 6522   4.733   2.685   3.650  0.0728  0.2715  0.0829
   73CHL1    H8 6523   4.668   2.595   3.660  1.9452 -1.1546 -0.1109
   73CHL1   C14 6524   4.775   2.739   3.794 -0.7346 -0.5851  0.7520
   73CHL1   H14 6525   4.834   2.830   3.769 -0.7290 -0.8660 -0.2988
   73CHL1   C15 6526   4.868   2.643   3.882 -0.1240 -0.2922  0.1724
   73CHL1  H15A 6527   4.827   2.540   3.883 -3.0990  0.7935  1.3562
   73CHL1  H15B 6528   4.975   2.650   3.853  0.0796 -0.0184  0.9764
   73CHL1   C16 6529   4.841   2.712   4.011  0.3175  0.5441 -0.2711
   73CHL1  H16A 6530   4.834   2.633   4.088  0.1784  0.3968 -0.4352
   73CHL1  H16B 6531   4.934   2.771   4.025  0.4387  0.7508 -1.8148
   73CHL1   C17 6532   4.722   2.809   4.006  0.0803 -0.2513 -0.5440
   73CHL1   H17 6533   4.765   2.912   4.014 -0.2835 -0.1524  0.3118
   73CHL1   C13 6534   4.658   2.771   3.871  0.3075 -0.2349  0.0147
   73CHL1   C18 6535   4.561   2.648   3.904 -0.3134 -0.3049 -0.2175
   73CHL1  H18A 6536   4.611   2.569   3.964  1.4945 -0.5434 -1.9491
   73CHL1  H18B 6537   4.467   2.673   3.959 -0.3574 -0.6770 -0.1185
   73CHL1  H18C 6538   4.532   2.592   3.813 -0.4212  0.0975 -0.4315
   73CHL1   C12 6539   4.573   2.876   3.793 -0.4685  0.8149  0.2061
   73CHL1  H12A 6540   4.485   2.906   3.854 -0.8522  0.9896 -0.4181
   73CHL1  H12B 6541   4.632   2.968   3.773  1.4900  0.0648  2.1678
   73CHL1   C11 6542   4.534   2.828   3.651  0.2371 -0.0675  1.0378
   73CHL1  H11A 6543   4.450   2.756   3.656 -0.1878  0.2302 -0.9943
   73CHL1  H11B 6544   4.486   2.913   3.597 -0.0793 -1.6365 -1.2901
   73CHL1    C9 6545   4.659   2.787   3.575 -0.0820  1.1609  0.6729
   73CHL1    H9 6546   4.725   2.876   3.568 -0.4357  1.4094  0.4770
   73CHL1   C10 6547   4.639   2.739   3.426  0.9577  0.1329  0.5732
   73CHL1   C19 6548   4.525   2.634   3.424  0.7416 -0.0034 -0.1308
   73CHL1  H19A 6549   4.527   2.578   3.328  0.4128  1.4607 -1.0157
   73CHL1  H19B 6550   4.531   2.560   3.508 -2.7531 -1.3820 -0.9454
   73CHL1  H19C 6551   4.425   2.682   3.423  0.6910  0.1194  2.5584
   73CHL1    C1 6552   4.604   2.865   3.339  0.2205 -0.0061 -0.2538
   73CHL1   H1A 6553   4.504   2.900   3.374  0.3641 -0.3548  0.5161
   73CHL1   H1B 6554   4.681   2.943   3.357  1.3808 -1.2041  0.0596
   73CHL1    C2 6555   4.611   2.839   3.186 -1.0874 -0.0119  1.2137
   73CHL1   H2A 6556   4.604   2.939   3.138  1.8908 -0.6009 -0.6639
   73CHL1   H2B 6557   4.519   2.781   3.163 -0.2718 -0.2751 -1.8765
   73CHL1   C20 6558   4.648   2.799   4.139 -0.2486  0.0665  0.3164
   73CHL1   H20 6559   4.616   2.695   4.161 -1.3199  0.4578  0.6760
   73CHL1   C21 6560   4.528   2.897   4.141 -0.5015 -0.0687  0.0729
   73CHL1  H21A 6561   4.463   2.894   4.231  0.3903  0.2383  0.7431
   73CHL1  H21B 6562   4.457   2.887   4.055 -0.6951  0.7847  0.1252
   73CHL1  H21C 6563   4.574   2.998   4.145  0.6975 -0.6480  1.7671
   73CHL1   C22 6564   4.752   2.843   4.255  1.2595  0.2407  0.3344
   73CHL1  H22A 6565   4.856   2.811   4.233  0.9587  0.6713 -1.9754
   73CHL1  H22B 6566   4.765   2.953   4.255  3.2889  0.1126 -2.1877
   73CHL1   C23 6567   4.706   2.794   4.390  0.2679  0.4358 -0.2542
   73CHL1  H23A 6568   4.736   2.864   4.470  1.3337 -1.8888  1.5012
   73CHL1  H23B 6569   4.595   2.798   4.397  0.3345 -0.6937  2.9261
   73CHL1   C24 6570   4.776   2.661   4.425 -0.2346  0.1493 -0.5912
   73CHL1  H24A 6571   4.756   2.597   4.337 -0.5401 -0.4599 -0.0905
   73CHL1  H24B 6572   4.885   2.680   4.425 -0.5505  2.1921 -0.9165
   73CHL1   C25 6573   4.734   2.577   4.554  0.1449 -0.7661 -0.3815
   73CHL1   H25 6574   4.779   2.476   4.545  1.3967 -0.4800  1.8908
   73CHL1   C26 6575   4.807   2.648   4.673 -0.2985 -0.6161 -0.2223
   73CHL1  H26A 6576   4.917   2.649   4.659  0.1460  1.1501  2.5627
   73CHL1  H26B 6577   4.781   2.755   4.686 -0.0206 -0.4317 -1.1304
   73CHL1  H26C 6578   4.792   2.590   4.767 -0.0997 -2.1696 -1.1076
   73CHL1   C27 6579   4.584   2.565   4.581  0.4714  0.5731  0.2309
   73CHL1  H27A 6580   4.574   2.498   4.669  1.3735  0.5441  0.3229
   73CHL1  H27B 6581   4.535   2.661   4.609  2.1012  2.0227 -1.6385
   73CHL1  H27C 6582   4.517   2.520   4.505  1.7441  0.0992 -0.6279
   74CHL1    C3 6583   1.091   2.751   3.172  0.0957 -0.2950  0.1154
   74CHL1    H3 6584   1.194   2.712   3.181  0.7191  1.1332 -0.5396
   74CHL1    O3 6585   1.069   2.778   3.036 -0.4414  0.0608 -0.4376
   74CHL1   H3' 6586   0.974   2.779   3.023 -0.6198  2.4406  0.4917
   74CHL1    C4 6587   0.983   2.645   3.224 -0.7185 -0.4981  0.2497
   74CHL1   H4A 6588   0.882   2.686   3.205 -0.7293 -0.0522  1.1688
   74CHL1   H4B 6589   0.996   2.558   3.157  2.1283  0.6512 -0.8661
   74CHL1    C5 6590   1.013   2.608   3.365  0.3952 -0.3093 -0.4978
   74CHL1    C6 6591   1.024   2.479   3.412  0.3666 -0.1721 -0.6587
   74CHL1    H6 6592   1.010   2.401   3.335 -3.0180  2.4610 -3.0490
   74CHL1    C7 6593   1.052   2.429   3.552  0.8173  0.3226 -0.5408
   74CHL1   H7A 6594   0.985   2.350   3.591  1.9748 -0.1878  0.4636
   74CHL1   H7B 6595   1.155   2.388   3.558  1.3605  1.6016 -0.7217
   74CHL1    C8 6596   1.041   2.548   3.648  0.2192 -0.2091 -0.4264
   74CHL1    H8 6597   0.936   2.573   3.673 -0.1610  1.0027 -2.9348
   74CHL1   C14 6598   1.114   2.507   3.777  0.2340 -0.0543 -0.2026
   74CHL1   H14 6599   1.217   2.483   3.742  0.2631 -2.2153  1.1778
   74CHL1   C15 6600   1.074   2.371   3.835  0.1822  0.0339 -0.6231
   74CHL1  H15A 6601   0.963   2.368   3.834  0.1639  0.2201 -2.1243
   74CHL1  H15B 6602   1.096   2.281   3.773 -0.8219  0.2751 -1.3682
   74CHL1   C16 6603   1.127   2.380   3.977 -0.3857  0.4907 -0.1630
   74CHL1  H16A 6604   1.051   2.361   4.056 -0.2033 -1.1532 -0.3589
   74CHL1  H16B 6605   1.204   2.301   3.990 -2.2090 -1.0090  2.4030
   74CHL1   C17 6606   1.188   2.521   3.998  0.6504  0.0783 -0.0846
   74CHL1   H17 6607   1.293   2.508   3.964  1.6144  1.1216  2.3006
   74CHL1   C13 6608   1.121   2.610   3.894 -0.1049 -0.3707  0.5644
   74CHL1   C18 6609   0.982   2.670   3.927  0.0806  0.3123 -0.3171
   74CHL1  H18A 6610   0.914   2.597   3.975 -1.3005  0.0481 -2.5304
   74CHL1  H18B 6611   0.998   2.760   3.989 -1.0168  0.5555 -0.3760
   74CHL1  H18C 6612   0.921   2.694   3.837  0.3153  0.7156 -0.3716
   74CHL1   C12 6613   1.211   2.722   3.835  0.8361 -0.4607 -1.0290
   74CHL1  H12A 6614   1.219   2.804   3.910 -2.1486 -1.3465  0.4087
   74CHL1  H12B 6615   1.311   2.679   3.811  0.2143 -1.0508 -2.6423
   74CHL1   C11 6616   1.149   2.778   3.701 -0.9711  1.1183  0.0055
   74CHL1  H11A 6617   1.048   2.818   3.723 -1.2132  1.9337 -2.2668
   74CHL1  H11B 6618   1.219   2.852   3.657  1.7631 -1.0907  0.4088
   74CHL1    C9 6619   1.114   2.669   3.595  0.2560 -0.2040  0.9371
   74CHL1    H9 6620   1.213   2.629   3.563 -1.2772 -2.3844 -1.4784
   74CHL1   C10 6621   1.047   2.724   3.467  0.0823 -0.6546  0.9178
   74CHL1   C19 6622   0.908   2.789   3.498  0.0611  0.0983  0.3070
   74CHL1  H19A 6623   0.911   2.877   3.566 -2.6253 -0.2265  0.9787
   74CHL1  H19B 6624   0.853   2.830   3.411 -1.1021 -0.5103  0.7270
   74CHL1  H19C 6625   0.831   2.722   3.544  1.1889 -2.6824 -1.6009
   74CHL1    C1 6626   1.130   2.833   3.400 -0.2122  0.2612 -0.1974
   74CHL1   H1A 6627   1.141   2.926   3.459 -1.3425 -0.7519  1.7177
   74CHL1   H1B 6628   1.230   2.786   3.396 -1.7000 -3.2553  0.2573
   74CHL1    C2 6629   1.089   2.878   3.260 -0.0743  0.1128  0.0935
   74CHL1   H2A 6630   1.164   2.942   3.209 -2.4022  3.0449  0.0501
   74CHL1   H2B 6631   0.990   2.927   3.265  0.9085  2.5761 -2.2644
   74CHL1   C20 6632   1.204   2.573   4.146 -0.4418 -0.5692  0.0577
   74CHL1   H20 6633   1.106   2.579   4.197 -0.4120 -0.3086  0.0869
   74CHL1   C21 6634   1.264   2.717   4.154 -0.4340 -0.4964 -0.2570
   74CHL1  H21A 6635   1.362   2.726   4.102  0.1423  1.0835  1.0186
   74CHL1  H21B 6636   1.292   2.746   4.258 -0.6532 -3.0458  0.5833
   74CHL1  H21C 6637   1.204   2.798   4.108  1.9581  0.2637 -2.2392
   74CHL1   C22 6638   1.264   2.471   4.250  0.7201  0.0260 -0.2152
   74CHL1  H22A 6639   1.222   2.509   4.346 -0.0224  0.2563 -0.6317
   74CHL1  H22B 6640   1.223   2.370   4.230  0.0891  0.3656 -0.6455
   74CHL1   C23 6641   1.416   2.460   4.256 -0.1572  0.3181  0.2940
   74CHL1  H23A 6642   1.442   2.432   4.152  1.6540 -3.0523  1.4740
   74CHL1  H23B 6643   1.460   2.556   4.288  0.8169  0.1620 -0.5506
   74CHL1   C24 6644   1.471   2.347   4.347  0.2691 -0.0000 -0.6255
   74CHL1  H24A 6645   1.432   2.254   4.300  0.0282  0.0624 -0.5490
   74CHL1  H24B 6646   1.579   2.329   4.325  0.7686  0.9254  0.8873
   74CHL1   C25 6647   1.447   2.361   4.496 -0.4049 -0.3505 -0.0552
   74CHL1   H25 6648   1.337   2.352   4.512  0.0202 -2.7736  2.1494
   74CHL1   C26 6649   1.514   2.240   4.569  0.1660 -0.5640  0.0388
   74CHL1  H26A 6650   1.622   2.251   4.546 -0.0013  2.0742  0.1131
   74CHL1  H26B 6651   1.487   2.257   4.675  3.8498 -1.0834  1.1789
   74CHL1  H26C 6652   1.474   2.145   4.530 -0.4066  0.2658 -1.4898
   74CHL1   C27 6653   1.508   2.496   4.548 -0.1968 -0.0535  0.2710
   74CHL1  H27A 6654   1.450   2.587   4.520  1.9283  1.3665  0.2587
   74CHL1  H27B 6655   1.506   2.500   4.659 -0.8496 -0.8259  0.2953
   74CHL1  H27C 6656   1.612   2.505   4.510  0.0545 -0.8187  0.7738
   75CHL1    C3 6657   4.038   1.050   3.166 -0.9581  0.2045 -0.9465
   75CHL1    H3 6658   4.125   0.988   3.194 -1.1072  1.3568  2.4825
   75CHL1    O3 6659   4.025   1.040   3.028 -0.4509 -0.0462  0.1763
   75CHL1   H3' 6660   3.952   1.099   3.008 -0.6762  0.1994  1.6173
   75CHL1    C4 6661   3.910   0.997   3.232 -0.0853  0.0144  0.0937
   75CHL1   H4A 6662   3.821   1.052   3.195 -0.5542  0.3768  1.6736
   75CHL1   H4B 6663   3.888   0.893   3.199 -0.1320  0.4303 -1.2511
   75CHL1    C5 6664   3.908   1.008   3.381 -0.5626 -0.2251  0.3239
   75CHL1    C6 6665   3.889   0.910   3.469 -0.3147 -0.6344  0.0527
   75CHL1    H6 6666   3.871   0.809   3.429  0.7873 -0.3607 -1.1931
   75CHL1    C7 6667   3.884   0.924   3.616  0.5746  0.8492 -0.3485
   75CHL1   H7A 6668   3.790   0.889   3.663  0.6051  1.3496  0.0991
   75CHL1   H7B 6669   3.969   0.860   3.650 -1.1363 -0.6950  1.2512
   75CHL1    C8 6670   3.894   1.069   3.667  0.3276 -0.2332  0.2994
   75CHL1    H8 6671   3.797   1.122   3.659  1.2268  1.1959 -3.2836
   75CHL1   C14 6672   3.951   1.068   3.814  0.9714 -0.2933  0.4027
   75CHL1   H14 6673   4.055   1.029   3.814  0.6746 -1.0937  1.2980
   75CHL1   C15 6674   3.881   0.986   3.929 -0.2270  0.7834  0.3878
   75CHL1  H15A 6675   3.771   1.000   3.923 -0.4760 -1.3653 -2.4855
   75CHL1  H15B 6676   3.913   0.879   3.925 -0.7280  0.5948  1.2101
   75CHL1   C16 6677   3.938   1.045   4.060 -0.0923  0.1328  0.0726
   75CHL1  H16A 6678   3.853   1.077   4.125  0.2830  0.5165  0.3806
   75CHL1  H16B 6679   4.004   0.969   4.107  2.5349  0.4275 -2.8125
   75CHL1   C17 6680   4.010   1.172   4.015  0.1347 -0.1299 -0.8087
   75CHL1   H17 6681   4.118   1.153   3.994  0.7489  1.9493  0.1912
   75CHL1   C13 6682   3.961   1.209   3.872 -0.0896 -0.4122 -0.1160
   75CHL1   C18 6683   3.828   1.290   3.885 -0.3892  0.3604 -0.2961
   75CHL1  H18A 6684   3.746   1.235   3.937 -0.9920 -0.5570 -2.1444
   75CHL1  H18B 6685   3.858   1.390   3.924  1.2675 -0.6228  1.1180
   75CHL1  H18C 6686   3.787   1.302   3.783 -0.1575  0.0116 -0.4317
   75CHL1   C12 6687   4.057   1.290   3.783 -0.1545  0.6242 -0.6804
   75CHL1  H12A 6688   4.074   1.396   3.814  1.6892  0.1688 -0.0059
   75CHL1  H12B 6689   4.154   1.236   3.791 -0.3748  0.4017  1.0047
   75CHL1   C11 6690   4.025   1.284   3.634  0.1178  0.3321  0.4896
   75CHL1  H11A 6691   3.943   1.355   3.612  0.1025 -0.7433 -4.0036
   75CHL1  H11B 6692   4.109   1.327   3.576  2.1421 -4.3153 -0.5244
   75CHL1    C9 6693   3.987   1.148   3.580  0.3090  1.2292 -0.9004
   75CHL1    H9 6694   4.078   1.085   3.581 -0.4656  0.0811 -1.2563
   75CHL1   C10 6695   3.947   1.147   3.430 -0.3085 -0.8459 -0.0972
   75CHL1   C19 6696   3.826   1.239   3.399 -0.3554  0.3255 -0.9536
   75CHL1  H19A 6697   3.805   1.244   3.290  0.6001  0.4386 -1.1422
   75CHL1  H19B 6698   3.732   1.234   3.458  0.1561  1.8912  0.0486
   75CHL1  H19C 6699   3.854   1.340   3.435 -2.2040  0.3364  0.6412
   75CHL1    C1 6700   4.066   1.222   3.353 -0.4338  0.1523 -0.0159
   75CHL1   H1A 6701   4.071   1.329   3.381 -2.2930  0.3159 -0.1798
   75CHL1   H1B 6702   4.162   1.173   3.379  0.1971 -0.5075 -3.1417
   75CHL1    C2 6703   4.070   1.199   3.200 -0.9188  0.5333  0.2596
   75CHL1   H2A 6704   4.164   1.229   3.150 -2.0882  3.2110 -0.5199
   75CHL1   H2B 6705   3.988   1.261   3.156 -0.3506  3.0099  2.4508
   75CHL1   C20 6706   4.010   1.282   4.120  0.5504 -0.1985  0.4499
   75CHL1   H20 6707   3.905   1.320   4.126  0.3887 -0.1007 -1.8515
   75CHL1   C21 6708   4.099   1.399   4.081  0.2485  0.2985  0.3298
   75CHL1  H21A 6709   4.072   1.461   3.993  1.7405  0.1674 -0.2477
   75CHL1  H21B 6710   4.195   1.352   4.052  0.6783  1.5410 -0.3539
   75CHL1  H21C 6711   4.111   1.471   4.164 -3.0703 -0.1924  1.3627
   75CHL1   C22 6712   4.062   1.233   4.254  0.5881 -0.7024  0.0368
   75CHL1  H22A 6713   4.020   1.134   4.282 -1.4785  0.1369  0.0979
   75CHL1  H22B 6714   4.173   1.232   4.251  0.7779  2.6715  1.6419
   75CHL1   C23 6715   4.010   1.320   4.373 -0.6602  0.0356 -0.8454
   75CHL1  H23A 6716   4.004   1.429   4.354 -1.8276  0.1548  0.1209
   75CHL1  H23B 6717   3.909   1.288   4.406 -0.4735 -0.1255 -0.4207
   75CHL1   C24 6718   4.118   1.306   4.493  0.4062 -0.0516 -0.2592
   75CHL1  H24A 6719   4.148   1.201   4.513 -1.2441  0.0272  3.4468
   75CHL1  H24B 6720   4.208   1.367   4.469  1.2819 -1.2245 -0.0223
   75CHL1   C25 6721   4.054   1.356   4.629  0.0770  1.4232  0.2847
   75CHL1   H25 6722   4.006   1.452   4.601 -2.5230  0.0679 -0.3030
   75CHL1   C26 6723   3.948   1.266   4.694 -0.3128 -0.1536 -0.1531
   75CHL1  H26A 6724   3.859   1.236   4.635 -0.9032  1.6807 -0.2822
   75CHL1  H26B 6725   3.996   1.169   4.715 -1.2485 -0.5624  0.1336
   75CHL1  H26C 6726   3.902   1.319   4.780 -1.5414 -1.9975  0.3820
   75CHL1   C27 6727   4.167   1.394   4.722  0.0905  1.0855 -0.3135
   75CHL1  H27A 6728   4.197   1.314   4.793 -1.8263  0.6983  0.1092
   75CHL1  H27B 6729   4.263   1.418   4.672  1.3718  1.1175  1.9957
   75CHL1  H27C 6730   4.145   1.489   4.777 -0.2911  1.4399 -1.0683
   76CHL1    C3 6731   0.619   1.303   2.856  0.4978  0.0570  0.7633
   76CHL1    H3 6732   0.664   1.205   2.829  0.3859 -0.0842  1.0830
   76CHL1    O3 6733   0.604   1.370   2.735  0.4098  0.0242 -0.0611
   76CHL1   H3' 6734   0.529   1.322   2.698  0.8931  0.4778 -1.7386
   76CHL1    C4 6735   0.479   1.299   2.921 -0.1799 -0.4917  0.8344
   76CHL1   H4A 6736   0.442   1.403   2.917 -1.8327 -1.0616  0.7238
   76CHL1   H4B 6737   0.425   1.236   2.847 -0.3090  1.1494 -0.5326
   76CHL1    C5 6738   0.464   1.247   3.059 -0.5017 -0.0110 -0.0376
   76CHL1    C6 6739   0.383   1.150   3.091  0.5204  0.6314 -0.3283
   76CHL1    H6 6740   0.328   1.091   3.016  0.1231 -4.2779  3.2672
   76CHL1    C7 6741   0.381   1.086   3.228 -0.2051  0.4902  0.4343
   76CHL1   H7A 6742   0.278   1.070   3.265 -0.0239  2.0122  1.7070
   76CHL1   H7B 6743   0.437   0.991   3.212 -0.8532 -0.5479  3.6264
   76CHL1    C8 6744   0.455   1.167   3.335  0.2103 -0.0951  0.0363
   76CHL1    H8 6745   0.403   1.264   3.351  0.3106  0.1532 -1.0464
   76CHL1   C14 6746   0.469   1.099   3.466 -0.2774  0.1101 -0.2203
   76CHL1   H14 6747   0.533   1.009   3.453 -0.3104 -0.3152  2.0996
   76CHL1   C15 6748   0.343   1.035   3.525  0.4686  0.2446  1.3496
   76CHL1  H15A 6749   0.252   1.097   3.509  1.1327  0.5375 -2.2383
   76CHL1  H15B 6750   0.323   0.932   3.488 -0.9358  0.7672  0.5937
   76CHL1   C16 6751   0.376   1.020   3.676  0.3853  0.2058 -0.3410
   76CHL1  H16A 6752   0.311   1.101   3.716  1.4262  0.6099  0.5576
   76CHL1  H16B 6753   0.365   0.918   3.719  0.5402 -0.1407 -1.1067
   76CHL1   C17 6754   0.514   1.088   3.700  0.7225 -0.0907 -0.3199
   76CHL1   H17 6755   0.593   1.009   3.704  0.5142 -0.2441  1.5652
   76CHL1   C13 6756   0.540   1.178   3.576  0.0859  0.3918 -0.3972
   76CHL1   C18 6757   0.466   1.308   3.599  0.1460  0.6523  0.9504
   76CHL1  H18A 6758   0.439   1.359   3.504 -1.6970 -0.9033  0.5593
   76CHL1  H18B 6759   0.368   1.285   3.647 -0.7945 -1.5820 -1.7962
   76CHL1  H18C 6760   0.521   1.381   3.662  0.2690 -0.1039  1.7441
   76CHL1   C12 6761   0.686   1.190   3.525 -0.4691 -0.0441  0.6983
   76CHL1  H12A 6762   0.747   1.246   3.599 -0.3473  0.8937 -0.0831
   76CHL1  H12B 6763   0.735   1.093   3.505  1.3343  1.1733 -1.3094
   76CHL1   C11 6764   0.685   1.274   3.388  0.1319  0.3389 -0.2825
   76CHL1  H11A 6765   0.647   1.376   3.413  2.7318  0.8341  2.1014
   76CHL1  H11B 6766   0.782   1.277   3.335  0.0668 -0.9368 -0.4973
   76CHL1    C9 6767   0.593   1.209   3.277  0.5518 -0.2754 -0.3373
   76CHL1    H9 6768   0.642   1.111   3.254  0.4753 -0.5032  0.4265
   76CHL1   C10 6769   0.582   1.305   3.151  0.2576  0.7289  0.7241
   76CHL1   C19 6770   0.540   1.447   3.184 -0.3915  1.1097 -0.5260
   76CHL1  H19A 6771   0.620   1.490   3.248  1.7766 -0.4667 -2.0191
   76CHL1  H19B 6772   0.535   1.512   3.094 -0.4829 -0.3165 -1.5842
   76CHL1  H19C 6773   0.446   1.441   3.243 -0.0024 -1.0939 -0.0355
   76CHL1    C1 6774   0.725   1.317   3.077  0.6022  0.1408 -0.1478
   76CHL1   H1A 6775   0.791   1.375   3.146 -2.7671 -0.1007  3.7093
   76CHL1   H1B 6776   0.750   1.210   3.064 -0.1813  0.0444 -0.9455
   76CHL1    C2 6777   0.720   1.381   2.938  0.1497 -0.9788  0.4987
   76CHL1   H2A 6778   0.824   1.378   2.898 -0.1306  0.6500 -0.4774
   76CHL1   H2B 6779   0.683   1.486   2.940 -0.2452 -1.0509 -1.4261
   76CHL1   C20 6780   0.531   1.151   3.836 -0.4911  0.6435 -0.9101
   76CHL1   H20 6781   0.458   1.233   3.854  1.6444  2.3000  0.8174
   76CHL1   C21 6782   0.665   1.222   3.850  0.0303  0.1019  0.2063
   76CHL1  H21A 6783   0.677   1.299   3.770  1.9687 -0.1682  0.1998
   76CHL1  H21B 6784   0.743   1.143   3.845 -0.9606 -0.8347 -2.2507
   76CHL1  H21C 6785   0.672   1.276   3.947  0.2438  0.2974  0.0828
   76CHL1   C22 6786   0.510   1.049   3.950 -0.0080  0.9586 -0.2594
   76CHL1  H22A 6787   0.452   0.960   3.918  1.7562 -0.1968 -0.4145
   76CHL1  H22B 6788   0.614   1.011   3.965 -0.8814 -1.0251  1.3331
   76CHL1   C23 6789   0.449   1.100   4.079 -0.4252 -0.3991  0.3918
   76CHL1  H23A 6790   0.472   1.022   4.155  0.9744 -0.6690 -0.2712
   76CHL1  H23B 6791   0.510   1.191   4.098  1.9727 -1.3752 -1.9773
   76CHL1   C24 6792   0.300   1.128   4.073  0.4279 -0.2023  0.0774
   76CHL1  H24A 6793   0.272   1.184   3.981 -2.7495  1.0079  1.6198
   76CHL1  H24B 6794   0.255   1.027   4.081  1.9082 -0.7603  2.8067
   76CHL1   C25 6795   0.230   1.213   4.189  0.5437 -0.5876  0.0743
   76CHL1   H25 6796   0.263   1.318   4.171 -1.7748  0.1374 -0.2145
   76CHL1   C26 6797   0.084   1.233   4.158 -0.0539  0.3170 -0.8635
   76CHL1  H26A 6798   0.066   1.261   4.052 -1.1501 -2.6152 -1.5560
   76CHL1  H26B 6799   0.029   1.140   4.184  2.8987 -2.0172 -2.4882
   76CHL1  H26C 6800   0.038   1.319   4.212  0.3379  0.0515 -0.0964
   76CHL1   C27 6801   0.244   1.156   4.328 -0.2483  0.1461 -0.4944
   76CHL1  H27A 6802   0.348   1.179   4.360 -0.1383 -1.0168  0.0344
   76CHL1  H27B 6803   0.183   1.210   4.403 -0.9740 -1.1554 -0.1332
   76CHL1  H27C 6804   0.218   1.048   4.332  1.3305 -0.2546 -0.1952
   77SOPE     N 6805   3.803   4.122   7.559 -0.0144  0.0757 -0.0961
   77SOPE   HN1 6806   3.805   4.143   7.661 -1.5347 -0.1892  0.0108
   77SOPE   HN2 6807   3.779   4.021   7.549  3.0561 -0.9793  1.7366
   77SOPE   HN3 6808   3.904   4.134   7.537 -0.0113  2.9513  1.0271
   77SOPE   C12 6809   3.716   4.213   7.475 -0.1390 -0.2564 -0.2484
   77SOPE  H12A 6810   3.729   4.322   7.494 -0.8886 -0.4180  1.3189
   77SOPE  H12B 6811   3.612   4.201   7.512  0.2918 -0.6871  0.8617
   77SOPE   C11 6812   3.748   4.199   7.315 -0.1690  0.8933  0.0258
   77SOPE  H11A 6813   3.702   4.286   7.263  0.6118  1.4063  0.1769
   77SOPE  H11B 6814   3.688   4.109   7.289  1.5613 -0.4791  0.6365
   77SOPE     P 6815   3.963   4.117   7.180 -0.2054 -0.0448 -0.6135
   77SOPE   O13 6816   3.869   4.093   7.073 -0.3623 -0.8066 -0.1315
   77SOPE   O14 6817   4.040   4.006   7.245  0.0462 -0.7460  0.1085
   77SOPE   O12 6818   3.894   4.184   7.307  1.0517  0.0879 -0.4988
   77SOPE   O11 6819   4.061   4.233   7.149 -0.1519 -0.2591  0.2748
   77SOPE    C1 6820   4.007   4.354   7.084  0.1245 -0.1911 -0.3156
   77SOPE    HA 6821   4.050   4.439   7.141 -2.4028  0.9732 -0.0050
   77SOPE    HB 6822   3.896   4.361   7.096  0.0750 -1.9324  0.5240
   77SOPE    C2 6823   4.055   4.365   6.940  0.5564  0.0017  1.2384
   77SOPE    HS 6824   4.035   4.467   6.901  0.5589 -0.4541  0.0067
   77SOPE   O21 6825   3.993   4.268   6.861  0.1709  0.1693  0.3144
   77SOPE   C21 6826   3.871   4.295   6.822 -0.1387  0.4981  0.0353
   77SOPE   O22 6827   3.809   4.395   6.850 -0.5448 -0.0612 -0.1419
   77SOPE   C22 6828   3.821   4.189   6.723  0.5806 -0.2594 -0.7742
   77SOPE   H2R 6829   3.752   4.122   6.778  3.2356 -1.6573  1.0621
   77SOPE   H2S 6830   3.916   4.144   6.688  0.6607 -0.0437 -0.8365
   77SOPE    C3 6831   4.213   4.344   6.927 -0.5418  0.2236  0.2392
   77SOPE    HX 6832   4.244   4.237   6.920  0.7097  0.6606 -2.5449
   77SOPE    HY 6833   4.255   4.387   7.020 -0.4231 -0.3444  0.4537
   77SOPE   O31 6834   4.261   4.424   6.820 -0.1963 -0.1976  0.1382
   77SOPE   C31 6835   4.330   4.366   6.729  0.6577  0.6547 -0.1917
   77SOPE   O32 6836   4.359   4.242   6.729 -0.2215 -0.5303 -0.1784
   77SOPE   C32 6837   4.385   4.461   6.631 -0.7723 -0.4622  0.1421
   77SOPE   H2X 6838   4.455   4.528   6.687 -1.9427 -0.0093  1.1113
   77SOPE   H2Y 6839   4.313   4.525   6.577  1.2695  2.1887  0.3231
   77SOPE   C23 6840   3.769   4.262   6.592 -0.1043  0.1574  0.2196
   77SOPE   H3R 6841   3.852   4.321   6.549 -0.1767  0.2217  0.1691
   77SOPE   H3S 6842   3.691   4.338   6.613 -1.2279 -1.2661  1.4872
   77SOPE   C24 6843   3.718   4.161   6.488  0.9653 -0.4562 -0.0210
   77SOPE   H4R 6844   3.786   4.073   6.486  0.3416 -1.0390  2.1765
   77SOPE   H4S 6845   3.619   4.119   6.515  1.7255 -1.2900  1.5860
   77SOPE   C25 6846   3.696   4.220   6.349 -0.4956  0.2789 -0.5378
   77SOPE   H5R 6847   3.612   4.292   6.353 -1.1158 -0.4573  2.7486
   77SOPE   H5S 6848   3.785   4.283   6.327 -0.0196 -0.0983  0.2410
   77SOPE   C26 6849   3.673   4.114   6.248 -0.4816 -0.5323  0.2320
   77SOPE   H6R 6850   3.755   4.042   6.269 -0.9194 -0.8319  0.9269
   77SOPE   H6S 6851   3.573   4.069   6.260 -1.1335  0.0923 -2.2402
   77SOPE   C27 6852   3.684   4.152   6.104  0.1351 -0.0071  0.1836
   77SOPE   H7R 6853   3.590   4.199   6.068  0.7427  2.0581  1.1779
   77SOPE   H7S 6854   3.760   4.232   6.096  0.4476 -0.2194  0.9414
   77SOPE   C28 6855   3.715   4.040   6.005 -0.1259  0.6499 -0.0039
   77SOPE   H8R 6856   3.808   3.986   6.033  0.2453  1.4571  0.3485
   77SOPE   H8S 6857   3.640   3.958   6.012  0.1194  0.3090 -1.0951
   77SOPE   C29 6858   3.743   4.102   5.874  0.1505 -0.1758 -0.0907
   77SOPE   H91 6859   3.652   4.127   5.818  0.6833 -0.0263 -0.9018
   77SOPE  C210 6860   3.865   4.117   5.811 -0.5269  0.1189  0.0640
   77SOPE  H101 6861   3.862   4.172   5.716  0.8374  0.8677  0.4260
   77SOPE  C211 6862   4.002   4.074   5.855 -0.3822  0.1083  0.3167
   77SOPE  H11R 6863   4.004   3.989   5.927  3.0854  1.5678  2.2101
   77SOPE  H11S 6864   4.055   4.148   5.918 -1.8720 -0.2370  2.0477
   77SOPE  C212 6865   4.094   4.027   5.735 -0.4394  0.6508 -1.1728
   77SOPE  H12R 6866   4.197   3.999   5.766 -0.7321  1.0202  0.1683
   77SOPE  H12S 6867   4.111   4.114   5.667 -0.7137  0.8949 -0.9315
   77SOPE  C213 6868   4.033   3.902   5.660 -0.3580  0.0321  0.3693
   77SOPE  H13R 6869   3.925   3.911   5.637 -1.1852 -3.3563  2.2247
   77SOPE  H13S 6870   4.051   3.816   5.728  1.6308  0.1227  0.0046
   77SOPE  C214 6871   4.104   3.874   5.526 -0.1012  0.2665 -0.8914
   77SOPE  H14R 6872   4.212   3.858   5.543 -0.7245 -1.9658  1.6267
   77SOPE  H14S 6873   4.071   3.960   5.464 -0.0743 -0.6233 -2.1770
   77SOPE  C215 6874   4.031   3.751   5.471 -0.4589 -0.0135 -0.0057
   77SOPE  H15R 6875   3.922   3.755   5.451 -0.2674  1.5809 -0.8417
   77SOPE  H15S 6876   4.041   3.663   5.539  0.5053 -1.8004 -2.3129
   77SOPE  C216 6877   4.090   3.690   5.340 -0.5041 -1.0078  0.9534
   77SOPE  H16R 6878   4.197   3.711   5.324 -0.1899 -1.1492  2.6429
   77SOPE  H16S 6879   4.033   3.728   5.252  1.9796 -1.1641 -0.7965
   77SOPE  C217 6880   4.086   3.534   5.343  0.3386  0.0658  0.2573
   77SOPE  H17R 6881   4.086   3.504   5.450  0.1618  2.2433  0.9216
   77SOPE  H17S 6882   4.184   3.491   5.316  0.1180 -2.1332  2.6093
   77SOPE  C218 6883   3.980   3.464   5.256 -0.3491  1.0267  0.5028
   77SOPE  H18R 6884   3.985   3.354   5.270 -0.2632  1.0171  0.3938
   77SOPE  H18S 6885   4.009   3.485   5.151  1.1370  0.2210  0.7182
   77SOPE  H18T 6886   3.884   3.512   5.283  0.1334  2.0668  0.4293
   77SOPE   C33 6887   4.471   4.398   6.513  0.9724 -0.1488  0.1082
   77SOPE   H3X 6888   4.456   4.464   6.424  0.8376 -0.8709 -0.4140
   77SOPE   H3Y 6889   4.414   4.303   6.503  2.2003 -0.9455  0.4856
   77SOPE   C34 6890   4.622   4.384   6.548  0.6016  0.7256 -0.5155
   77SOPE   H4X 6891   4.665   4.466   6.610  0.3828 -0.2608  0.9888
   77SOPE   H4Y 6892   4.669   4.402   6.449  1.2026  1.7629 -0.0548
   77SOPE   C35 6893   4.674   4.243   6.579 -0.1611  0.3205  0.4365
   77SOPE   H5X 6894   4.643   4.192   6.673 -1.7394  0.0462 -0.2093
   77SOPE   H5Y 6895   4.785   4.237   6.590 -0.0712  1.9831  0.6108
   77SOPE   C36 6896   4.652   4.135   6.463 -0.2517 -0.0749 -0.5079
   77SOPE   H6X 6897   4.546   4.113   6.438 -0.0241 -1.0742 -0.6152
   77SOPE   H6Y 6898   4.700   4.041   6.496 -0.5172  0.7286  2.4635
   77SOPE   C37 6899   4.721   4.182   6.332  0.2492  0.1300  0.4702
   77SOPE   H7X 6900   4.819   4.222   6.365  0.4436  1.5073 -1.5875
   77SOPE   H7Y 6901   4.672   4.268   6.281  1.8481  0.7068 -0.1687
   77SOPE   C38 6902   4.739   4.071   6.237 -0.4521 -0.5608 -0.1901
   77SOPE   H8X 6903   4.660   3.994   6.248 -0.1075 -1.0845 -1.2443
   77SOPE   H8Y 6904   4.832   4.017   6.267  0.1513  1.6990  2.3819
   77SOPE   C39 6905   4.756   4.107   6.083 -0.2098 -0.0265  0.0375
   77SOPE   H9X 6906   4.657   4.124   6.037 -0.8951  0.6651  1.6725
   77SOPE   H9Y 6907   4.803   4.019   6.036 -0.4331 -0.3625  0.4343
   77SOPE  C310 6908   4.836   4.233   6.052  0.6118  0.5896  0.8480
   77SOPE  H10X 6909   4.912   4.251   6.130  0.6931 -2.5918  1.6443
   77SOPE  H10Y 6910   4.762   4.316   6.054  0.6535  0.6265  0.8503
   77SOPE  C311 6911   4.894   4.222   5.910  0.2221 -0.0983 -0.1298
   77SOPE  H11X 6912   4.947   4.125   5.899  0.8233  0.1763  0.2381
   77SOPE  H11Y 6913   4.974   4.297   5.892 -0.5362  0.6057 -0.6207
   77SOPE  C312 6914   4.793   4.246   5.806  0.2008 -0.5571  0.1337
   77SOPE  H12X 6915   4.725   4.333   5.819  0.1433 -0.3316 -1.5018
   77SOPE  H12Y 6916   4.725   4.158   5.809  0.7904 -1.3169 -3.7387
   77SOPE  C313 6917   4.864   4.258   5.669  1.0114 -0.0976 -0.0119
   77SOPE  H13X 6918   4.922   4.165   5.651 -1.0550 -1.5778  0.5926
   77SOPE  H13Y 6919   4.928   4.348   5.666  0.1566  0.5266 -2.5852
   77SOPE  C314 6920   4.765   4.271   5.553  0.8449  0.1631  0.3445
   77SOPE  H14X 6921   4.708   4.366   5.553  0.0404 -0.2249 -2.7507
   77SOPE  H14Y 6922   4.679   4.200   5.552 -1.0859  2.3950 -0.3493
   77SOPE  C315 6923   4.839   4.283   5.416  0.3835  0.6106 -0.5489
   77SOPE  H15X 6924   4.880   4.183   5.390 -0.0273  0.5543 -1.0035
   77SOPE  H15Y 6925   4.921   4.359   5.414  2.1565 -1.2359 -1.6711
   77SOPE  C316 6926   4.745   4.309   5.302 -0.0356  0.1897  0.0193
   77SOPE  H16X 6927   4.704   4.412   5.314 -0.5815  0.0499 -0.5963
   77SOPE  H16Y 6928   4.658   4.241   5.307 -1.0651  1.4859  0.3110
   77SOPE  C317 6929   4.805   4.308   5.163 -0.7036  0.1748  0.0769
   77SOPE  H17X 6930   4.837   4.204   5.141 -2.2024 -0.5593  1.2038
   77SOPE  H17Y 6931   4.891   4.379   5.157 -1.6072  1.2558 -0.2819
   77SOPE  C318 6932   4.701   4.348   5.057  0.2702  0.0910  0.7130
   77SOPE  H18X 6933   4.681   4.454   5.083  0.5890  0.2588  0.2855
   77SOPE  H18Y 6934   4.615   4.278   5.057  0.8891 -0.7477  2.7584
   77SOPE  H18Z 6935   4.746   4.345   4.955 -0.5297  0.0114  0.3538
   78SOPE     N 6936   1.912   3.159   6.930  0.3629 -0.1561 -1.0552
   78SOPE   HN1 6937   1.899   3.103   7.017 -1.5723  0.2272 -1.0559
   78SOPE   HN2 6938   1.964   3.101   6.861 -1.7706 -2.8586 -0.5647
   78SOPE   HN3 6939   1.972   3.238   6.961  0.8347 -1.6722  2.4015
   78SOPE   C12 6940   1.777   3.181   6.869  0.4080 -0.1086  0.3419
   78SOPE  H12A 6941   1.735   3.081   6.844  0.0948 -0.0453  0.6006
   78SOPE  H12B 6942   1.791   3.238   6.775  0.4229 -1.5019 -0.5273
   78SOPE   C11 6943   1.695   3.242   6.986  0.4468 -1.2381  0.7634
   78SOPE  H11A 6944   1.702   3.187   7.082  0.9692  0.9833  2.0556
   78SOPE  H11B 6945   1.589   3.244   6.953  0.6132  1.5147  0.1853
   78SOPE     P 6946   1.693   3.514   6.941  0.5160 -0.2786 -0.1159
   78SOPE   O13 6947   1.742   3.629   7.025  0.0140 -0.3712  0.0826
   78SOPE   O14 6948   1.545   3.500   6.919  0.6396 -0.2687 -0.0936
   78SOPE   O12 6949   1.748   3.378   7.012  0.3786  0.2043  0.5156
   78SOPE   O11 6950   1.766   3.506   6.798  1.1175 -0.2517  0.1398
   78SOPE    C1 6951   1.829   3.618   6.735 -0.1472  0.2541 -0.2742
   78SOPE    HA 6952   1.940   3.608   6.734  0.2054  3.2308 -1.2012
   78SOPE    HB 6953   1.821   3.711   6.795  0.2872  0.7693 -0.9932
   78SOPE    C2 6954   1.780   3.642   6.593 -0.0190  0.1855  0.1750
   78SOPE    HS 6955   1.678   3.683   6.610  0.1096  0.8747 -0.6212
   78SOPE   O21 6956   1.772   3.522   6.515 -0.1064  0.2181 -0.4692
   78SOPE   C21 6957   1.697   3.533   6.409  0.4686  0.3457  1.0087
   78SOPE   O22 6958   1.639   3.635   6.370  0.4054  0.3828 -0.6796
   78SOPE   C22 6959   1.686   3.390   6.338 -0.6899 -0.1349 -0.0656
   78SOPE   H2R 6960   1.639   3.320   6.411 -0.8343 -0.4408 -0.4492
   78SOPE   H2S 6961   1.794   3.375   6.316 -0.8522 -0.1014 -0.8949
   78SOPE    C3 6962   1.864   3.757   6.522 -0.2220  0.4569 -0.4739
   78SOPE    HX 6963   1.842   3.846   6.585  2.3833  0.2479  0.8882
   78SOPE    HY 6964   1.845   3.782   6.416  1.1919 -1.0564 -1.1197
   78SOPE   O31 6965   2.007   3.725   6.531  0.6523  0.2562  0.2222
   78SOPE   C31 6966   2.087   3.824   6.498 -0.2171  0.5394  0.2229
   78SOPE   O32 6967   2.051   3.912   6.422 -0.1119 -0.0723  1.0885
   78SOPE   C32 6968   2.224   3.800   6.557 -0.5693  0.4325 -0.7500
   78SOPE   H2X 6969   2.252   3.699   6.594 -1.4374  0.8851  1.3123
   78SOPE   H2Y 6970   2.228   3.870   6.644  0.5607 -0.8398  0.2609
   78SOPE   C23 6971   1.603   3.385   6.210  0.2772  0.1524  0.5109
   78SOPE   H3R 6972   1.649   3.303   6.151 -1.1628 -0.7163  0.5308
   78SOPE   H3S 6973   1.623   3.475   6.148  3.1474 -0.8326 -0.0968
   78SOPE   C24 6974   1.454   3.356   6.218  0.2451 -0.5290 -0.0482
   78SOPE   H4R 6975   1.441   3.262   6.276 -1.0673 -0.2701  0.1008
   78SOPE   H4S 6976   1.402   3.424   6.289  0.8467 -0.1240  0.0114
   78SOPE   C25 6977   1.383   3.362   6.080  0.0608  0.5575  0.2547
   78SOPE   H5R 6978   1.280   3.328   6.102  0.2746  0.1977  0.7130
   78SOPE   H5S 6979   1.378   3.469   6.049 -0.1440  0.1809 -1.0738
   78SOPE   C26 6980   1.443   3.284   5.969 -0.2146  0.1837 -0.0288
   78SOPE   H6R 6981   1.534   3.335   5.930  1.1495 -1.5710  0.7040
   78SOPE   H6S 6982   1.466   3.182   6.006  0.7299  0.6116  0.5981
   78SOPE   C27 6983   1.340   3.279   5.847  0.0109 -0.6164  0.2726
   78SOPE   H7R 6984   1.243   3.251   5.892 -0.7671  1.8316  0.2430
   78SOPE   H7S 6985   1.321   3.385   5.821 -0.8965 -0.5597  1.1357
   78SOPE   C28 6986   1.382   3.203   5.720  0.5764  0.0138  0.6363
   78SOPE   H8R 6987   1.378   3.094   5.741 -1.2109  0.0607  0.6749
   78SOPE   H8S 6988   1.307   3.214   5.639 -0.2228 -1.5540  1.1148
   78SOPE   C29 6989   1.513   3.236   5.659 -0.2143  0.3416  0.6095
   78SOPE   H91 6990   1.603   3.202   5.712  0.5072 -0.7614 -1.2262
   78SOPE  C210 6991   1.544   3.314   5.554 -0.3120  0.4724 -0.8737
   78SOPE  H101 6992   1.650   3.334   5.534  0.3001  1.1969  2.3840
   78SOPE  C211 6993   1.439   3.393   5.484  0.0880  0.2283 -0.3540
   78SOPE  H11R 6994   1.478   3.496   5.471 -0.4339  0.3329 -1.1826
   78SOPE  H11S 6995   1.345   3.422   5.536 -0.1591  1.0738 -1.2394
   78SOPE  C212 6996   1.396   3.360   5.343  0.0989  0.4089  0.8591
   78SOPE  H12R 6997   1.305   3.414   5.313  0.5387 -0.3138 -2.0891
   78SOPE  H12S 6998   1.363   3.254   5.350  2.8036 -0.6857 -1.1497
   78SOPE  C213 6999   1.503   3.384   5.236  0.1119  0.7128 -0.3945
   78SOPE  H13R 7000   1.591   3.319   5.255 -1.4100 -2.1674 -2.3890
   78SOPE  H13S 7001   1.540   3.489   5.232 -0.1423  0.8619  0.7313
   78SOPE  C214 7002   1.459   3.343   5.095 -0.5107 -0.0761  0.4901
   78SOPE  H14R 7003   1.374   3.408   5.067 -0.0265  0.8153  1.0581
   78SOPE  H14S 7004   1.421   3.239   5.105 -3.1351  0.7242 -0.4163
   78SOPE  C215 7005   1.583   3.344   5.001  0.0671  0.0357 -1.0253
   78SOPE  H15R 7006   1.540   3.298   4.909  3.0875 -1.9523 -1.6084
   78SOPE  H15S 7007   1.664   3.279   5.041 -0.1655  0.1016 -0.4396
   78SOPE  C216 7008   1.625   3.490   4.954  0.4836  0.6881 -0.7997
   78SOPE  H16R 7009   1.690   3.534   5.033 -2.0858  1.8671  0.7655
   78SOPE  H16S 7010   1.535   3.554   4.947  0.4429  0.5580 -1.6240
   78SOPE  C217 7011   1.685   3.495   4.819  0.5552  0.2942  0.0690
   78SOPE  H17R 7012   1.689   3.600   4.783  0.0866  0.5604  0.7642
   78SOPE  H17S 7013   1.612   3.442   4.754  0.4137  0.9572 -0.3210
   78SOPE  C218 7014   1.827   3.430   4.814  0.6377  1.2922 -0.3534
   78SOPE  H18R 7015   1.866   3.456   4.713  1.8848  1.3328  0.1308
   78SOPE  H18S 7016   1.829   3.320   4.829 -0.0360  1.0443 -1.8811
   78SOPE  H18T 7017   1.901   3.476   4.883  1.2773 -1.7612  1.1774
   78SOPE   C33 7018   2.338   3.838   6.462 -0.5241  0.1630  0.5697
   78SOPE   H3X 7019   2.440   3.838   6.507 -0.9786  0.5690  1.6287
   78SOPE   H3Y 7020   2.320   3.935   6.411  1.9819  0.9853  1.0648
   78SOPE   C34 7021   2.344   3.730   6.355  0.4092  0.3004 -0.0660
   78SOPE   H4X 7022   2.240   3.712   6.321  0.0815  1.0508  0.5108
   78SOPE   H4Y 7023   2.384   3.636   6.397 -0.4732 -0.7684 -1.5158
   78SOPE   C35 7024   2.427   3.769   6.235 -0.3542  0.3889 -0.7152
   78SOPE   H5X 7025   2.533   3.791   6.259 -0.2703 -1.0513  0.4285
   78SOPE   H5Y 7026   2.380   3.861   6.195  0.7901  2.0230  1.4876
   78SOPE   C36 7027   2.421   3.650   6.132 -0.1323  0.6090 -0.3891
   78SOPE   H6X 7028   2.319   3.608   6.124  0.1941 -0.0228 -1.5729
   78SOPE   H6Y 7029   2.492   3.574   6.171 -0.9701  0.1458  0.2458
   78SOPE   C37 7030   2.468   3.686   5.997  0.0404 -0.2259  0.1091
   78SOPE   H7X 7031   2.568   3.733   6.008  0.0256 -0.1815  0.0520
   78SOPE   H7Y 7032   2.406   3.770   5.957 -0.2840 -0.1970  0.6496
   78SOPE   C38 7033   2.472   3.562   5.910  0.6231  0.5432  0.7446
   78SOPE   H8X 7034   2.366   3.540   5.884  0.5756  2.1793 -0.6383
   78SOPE   H8Y 7035   2.510   3.482   5.977 -0.1967 -1.6140 -1.2566
   78SOPE   C39 7036   2.558   3.581   5.790  0.1436  0.0041  0.3603
   78SOPE   H9X 7037   2.595   3.482   5.756  2.6377  1.0708 -0.2500
   78SOPE   H9Y 7038   2.641   3.642   5.831 -0.1296  0.8401 -0.3165
   78SOPE  C310 7039   2.493   3.661   5.669  0.0837  0.2715  0.4443
   78SOPE  H10X 7040   2.476   3.767   5.699 -0.1179 -0.1351  1.8644
   78SOPE  H10Y 7041   2.399   3.609   5.642  2.0337 -1.0525 -4.9642
   78SOPE  C311 7042   2.580   3.653   5.540 -0.3154  0.4546 -0.4335
   78SOPE  H11X 7043   2.618   3.548   5.538 -2.5231 -0.6190  3.3134
   78SOPE  H11Y 7044   2.673   3.711   5.558 -0.3404  0.5089 -0.4769
   78SOPE  C312 7045   2.497   3.680   5.420 -0.0253  0.7299  0.4455
   78SOPE  H12X 7046   2.474   3.788   5.407 -1.9055  0.1804 -1.2826
   78SOPE  H12Y 7047   2.400   3.634   5.448  1.8343 -2.1131  2.8639
   78SOPE  C313 7048   2.559   3.628   5.285 -1.0970  0.1324  0.6178
   78SOPE  H13X 7049   2.580   3.521   5.302 -1.9895  0.2028  2.4954
   78SOPE  H13Y 7050   2.653   3.686   5.273 -0.6740 -0.8686 -1.2023
   78SOPE  C314 7051   2.459   3.647   5.168 -0.6713  0.0222 -0.4178
   78SOPE  H14X 7052   2.454   3.757   5.156 -0.0244  0.2832  1.4804
   78SOPE  H14Y 7053   2.359   3.610   5.201 -0.0857 -0.9874  0.2776
   78SOPE  C315 7054   2.493   3.572   5.036 -0.1153  0.1933 -0.5843
   78SOPE  H15X 7055   2.413   3.609   4.968  0.2709 -1.1774 -1.8524
   78SOPE  H15Y 7056   2.484   3.461   5.048  0.1378  0.3082  0.7433
   78SOPE  C316 7057   2.632   3.591   4.976 -0.0127 -0.7562  0.2678
   78SOPE  H16X 7058   2.616   3.556   4.872 -1.8539  1.9842 -0.4733
   78SOPE  H16Y 7059   2.707   3.525   5.026 -0.1337 -1.3461 -0.3094
   78SOPE  C317 7060   2.693   3.730   4.964 -0.6510  0.6447  0.1458
   78SOPE  H17X 7061   2.803   3.714   4.950 -1.0855 -2.2071 -0.7706
   78SOPE  H17Y 7062   2.671   3.772   5.064 -1.7961 -1.6859  0.9347
   78SOPE  C318 7063   2.646   3.824   4.849 -0.0726 -0.6221 -0.1597
   78SOPE  H18X 7064   2.694   3.924   4.864 -1.7530  0.4958 -1.8175
   78SOPE  H18Y 7065   2.536   3.832   4.860 -0.1951 -3.2655  1.3459
   78SOPE  H18Z 7066   2.664   3.791   4.745  0.2080  1.7903 -0.9523
   79SOPE     N 7067   3.939   2.371   7.452  0.1896  0.0763  0.6382
   79SOPE   HN1 7068   3.863   2.436   7.480  0.8459  1.4343 -0.6054
   79SOPE   HN2 7069   4.008   2.429   7.402  0.5172 -0.4727  0.4463
   79SOPE   HN3 7070   3.902   2.297   7.388  2.1746 -1.5301  1.2543
   79SOPE   C12 7071   4.004   2.311   7.581 -0.1161  0.7887  1.1943
   79SOPE  H12A 7072   3.933   2.234   7.620  1.7796  0.5968  4.5574
   79SOPE  H12B 7073   3.998   2.391   7.657 -1.9796  0.6962  1.2003
   79SOPE   C11 7074   4.145   2.256   7.557 -0.0567  0.9160 -0.4693
   79SOPE  H11A 7075   4.127   2.166   7.494  0.6099  0.9385 -0.7003
   79SOPE  H11B 7076   4.191   2.222   7.652 -0.6736 -1.5702 -0.9834
   79SOPE     P 7077   4.360   2.292   7.428 -0.0618 -0.2403  0.4963
   79SOPE   O13 7078   4.414   2.194   7.519 -0.1289  0.1392 -0.0024
   79SOPE   O14 7079   4.447   2.406   7.398  0.3691 -0.3156  0.1546
   79SOPE   O12 7080   4.227   2.346   7.488 -0.2129  0.0922  0.1300
   79SOPE   O11 7081   4.320   2.222   7.285  0.1563  0.1355 -0.3817
   79SOPE    C1 7082   4.217   2.273   7.202 -0.8631 -0.2923  0.1885
   79SOPE    HA 7083   4.271   2.348   7.140 -2.0072  0.9215  0.6226
   79SOPE    HB 7084   4.138   2.332   7.252  1.7814  2.5130  1.3846
   79SOPE    C2 7085   4.163   2.171   7.104  0.2039 -0.2830  1.2794
   79SOPE    HS 7086   4.142   2.085   7.171  4.1657 -1.8237  0.7598
   79SOPE   O21 7087   4.264   2.133   7.011  0.4243 -0.1730 -0.2163
   79SOPE   C21 7088   4.240   2.025   6.936  0.0138  1.0214  0.2073
   79SOPE   O22 7089   4.146   1.949   6.950  0.3500  0.4445  0.0432
   79SOPE   C22 7090   4.357   1.992   6.844  0.0555 -0.5682  0.6529
   79SOPE   H2R 7091   4.455   2.003   6.894  0.5212 -1.7938  0.0303
   79SOPE   H2S 7092   4.360   2.053   6.751 -1.9202 -2.8404 -1.0166
   79SOPE    C3 7093   4.031   2.213   7.029 -0.2728 -0.6184 -0.4325
   79SOPE    HX 7094   3.963   2.254   7.107  1.2894  3.9090 -1.1603
   79SOPE    HY 7095   3.985   2.126   6.978 -1.0208  0.1172 -1.0148
   79SOPE   O31 7096   4.062   2.320   6.935 -0.4340 -0.2411 -0.1220
   79SOPE   C31 7097   4.085   2.307   6.814 -0.1235  0.2337  0.4927
   79SOPE   O32 7098   4.044   2.214   6.739  0.1515 -0.4393 -0.5745
   79SOPE   C32 7099   4.160   2.435   6.777  0.6127  0.1697 -0.5463
   79SOPE   H2X 7100   4.254   2.441   6.836  0.1279 -1.5010  0.4506
   79SOPE   H2Y 7101   4.094   2.520   6.802 -1.1419 -1.0235 -0.9493
   79SOPE   C23 7102   4.343   1.847   6.792 -0.6304  0.4930 -0.5612
   79SOPE   H3R 7103   4.246   1.829   6.740 -1.4339  0.5703  0.8608
   79SOPE   H3S 7104   4.348   1.775   6.877  0.5232  0.8362 -0.3217
   79SOPE   C24 7105   4.453   1.810   6.697  0.5347 -0.2190 -0.1096
   79SOPE   H4R 7106   4.545   1.800   6.759  0.7172 -0.7106 -0.4506
   79SOPE   H4S 7107   4.435   1.708   6.656  0.5872 -0.4292  0.3844
   79SOPE   C25 7108   4.481   1.903   6.571  0.1373  0.0962 -0.4283
   79SOPE   H5R 7109   4.383   1.932   6.527  0.2007 -1.2067 -1.4983
   79SOPE   H5S 7110   4.536   1.993   6.606 -0.7876  0.1786  0.9042
   79SOPE   C26 7111   4.554   1.821   6.459 -0.0566 -0.2870 -0.6568
   79SOPE   H6R 7112   4.651   1.787   6.501  0.5889  1.0607 -0.9742
   79SOPE   H6S 7113   4.494   1.730   6.442  0.0663 -1.1515  2.7620
   79SOPE   C27 7114   4.571   1.899   6.333 -0.9184  0.2803 -0.6234
   79SOPE   H7R 7115   4.608   2.000   6.362  0.0172 -0.6412  1.6967
   79SOPE   H7S 7116   4.653   1.864   6.267  1.7773  2.0065  1.5882
   79SOPE   C28 7117   4.450   1.910   6.245  0.0927 -0.6556 -0.4125
   79SOPE   H8R 7118   4.371   1.958   6.307  1.2085 -0.9445  1.2773
   79SOPE   H8S 7119   4.450   1.966   6.149 -1.8992 -2.8553 -1.8139
   79SOPE   C29 7120   4.405   1.767   6.212  0.0006  0.4191 -0.0258
   79SOPE   H91 7121   4.348   1.724   6.296  1.0086  0.9426  0.9460
   79SOPE  C210 7122   4.441   1.699   6.104  0.8408 -0.4754 -0.0096
   79SOPE  H101 7123   4.395   1.600   6.094  0.1272 -0.0816 -0.7099
   79SOPE  C211 7124   4.525   1.743   5.986  0.1986  0.4634  0.4932
   79SOPE  H11R 7125   4.620   1.685   5.988  0.8106  1.4244  1.8322
   79SOPE  H11S 7126   4.555   1.850   5.985 -1.0648  0.8179 -1.0694
   79SOPE  C212 7127   4.461   1.710   5.844  0.8282  0.0485  0.5463
   79SOPE  H12R 7128   4.537   1.739   5.768  0.8568 -4.0410 -1.2359
   79SOPE  H12S 7129   4.363   1.761   5.827 -0.5425 -2.2945  0.9357
   79SOPE  C213 7130   4.437   1.558   5.814 -0.2255  0.5337 -0.4472
   79SOPE  H13R 7131   4.351   1.547   5.745 -0.7567 -1.7868  0.4985
   79SOPE  H13S 7132   4.402   1.511   5.908  2.5275  0.8433  0.8175
   79SOPE  C214 7133   4.557   1.489   5.749  0.5472 -0.3927 -0.0092
   79SOPE  H14R 7134   4.567   1.380   5.768 -0.0528 -0.4163  0.1949
   79SOPE  H14S 7135   4.654   1.528   5.784  1.0228 -1.9972  0.5430
   79SOPE  C215 7136   4.570   1.517   5.598  0.4862  0.1754 -0.8935
   79SOPE  H15R 7137   4.599   1.623   5.584 -1.2165  0.6017 -1.5675
   79SOPE  H15S 7138   4.474   1.508   5.542  1.2153  1.2842 -2.3819
   79SOPE  C216 7139   4.683   1.446   5.523 -0.0236  0.0069  0.2924
   79SOPE  H16R 7140   4.756   1.416   5.600 -1.9280  0.1028  2.2135
   79SOPE  H16S 7141   4.734   1.529   5.468 -2.1830  2.0995  1.2437
   79SOPE  C217 7142   4.633   1.317   5.460 -0.3062  0.3044  0.7674
   79SOPE  H17R 7143   4.532   1.329   5.415  0.6518  0.0559 -1.6269
   79SOPE  H17S 7144   4.619   1.252   5.548  0.0590  1.1831  1.4843
   79SOPE  C218 7145   4.724   1.254   5.348 -0.3162 -0.5655 -0.3664
   79SOPE  H18R 7146   4.764   1.324   5.271 -0.8474 -0.5670 -0.6431
   79SOPE  H18S 7147   4.675   1.164   5.305 -1.5033  0.6132 -1.5756
   79SOPE  H18T 7148   4.821   1.229   5.397 -1.2990 -0.8869  1.4726
   79SOPE   C33 7149   4.204   2.443   6.632  0.5560  0.2914  0.8232
   79SOPE   H3X 7150   4.234   2.549   6.618  1.5594 -0.0848  0.0266
   79SOPE   H3Y 7151   4.111   2.424   6.575 -0.7103  2.0936  2.1597
   79SOPE   C34 7152   4.322   2.348   6.591  0.4794 -0.3153 -0.2895
   79SOPE   H4X 7153   4.275   2.250   6.615 -0.3069  0.2623  0.5909
   79SOPE   H4Y 7154   4.411   2.368   6.655 -0.9570  0.3895  1.6117
   79SOPE   C35 7155   4.364   2.360   6.446  0.6264 -0.1551  0.3740
   79SOPE   H5X 7156   4.386   2.466   6.420  0.6867 -0.6715 -1.9570
   79SOPE   H5Y 7157   4.286   2.329   6.374  1.3755 -2.6996  0.5799
   79SOPE   C36 7158   4.489   2.283   6.415  0.0086  0.1844  0.2816
   79SOPE   H6X 7159   4.470   2.173   6.407 -0.9191  0.3278  0.3936
   79SOPE   H6Y 7160   4.563   2.306   6.494 -0.0788  0.0766  0.3956
   79SOPE   C37 7161   4.547   2.324   6.277  0.0210  0.1560  0.5438
   79SOPE   H7X 7162   4.646   2.275   6.263  0.6524  1.6383 -0.4264
   79SOPE   H7Y 7163   4.572   2.432   6.269 -0.1719  0.1361 -0.4945
   79SOPE   C38 7164   4.443   2.286   6.164 -0.8432 -0.3997 -0.0149
   79SOPE   H8X 7165   4.354   2.349   6.184  0.1763  1.6791 -1.5673
   79SOPE   H8Y 7166   4.420   2.179   6.184 -4.9506  0.5374  1.1230
   79SOPE   C39 7167   4.497   2.315   6.018  0.4587  0.3273 -0.3862
   79SOPE   H9X 7168   4.607   2.317   6.009  0.5194 -1.0059 -0.1746
   79SOPE   H9Y 7169   4.473   2.420   5.994  1.7769  0.6368 -0.3865
   79SOPE  C310 7170   4.436   2.224   5.917 -0.0364  0.1834 -0.6568
   79SOPE  H10X 7171   4.337   2.265   5.886 -1.1604 -1.5311  0.5195
   79SOPE  H10Y 7172   4.415   2.123   5.958 -1.8782  0.8542  0.1510
   79SOPE  C311 7173   4.523   2.206   5.794  0.7817  0.3598  0.2303
   79SOPE  H11X 7174   4.624   2.173   5.829  1.0343  0.9276  0.0408
   79SOPE  H11Y 7175   4.525   2.301   5.736  2.3557 -0.3454 -0.9606
   79SOPE  C312 7176   4.467   2.105   5.695  0.0948  0.0350 -0.7555
   79SOPE  H12X 7177   4.359   2.128   5.691  0.2565  0.7543 -1.2843
   79SOPE  H12Y 7178   4.474   2.007   5.746 -0.1720  0.7708  0.7602
   79SOPE  C313 7179   4.524   2.094   5.560  0.5902  0.3241  0.9356
   79SOPE  H13X 7180   4.630   2.074   5.586  0.4035 -0.4877  1.1173
   79SOPE  H13Y 7181   4.512   2.188   5.502  0.3120  0.0704  0.5772
   79SOPE  C314 7182   4.464   1.983   5.476 -0.1852  0.1470  0.3675
   79SOPE  H14X 7183   4.461   1.881   5.522 -1.4439  0.1286  0.2823
   79SOPE  H14Y 7184   4.547   1.981   5.402 -0.7929 -0.6519 -0.3150
   79SOPE  C315 7185   4.329   2.024   5.396  0.6319  0.2155  0.6026
   79SOPE  H15X 7186   4.345   2.124   5.349 -1.1355  0.9099  1.3892
   79SOPE  H15Y 7187   4.243   2.020   5.466  0.8819 -3.4928  0.8787
   79SOPE  C316 7188   4.302   1.930   5.276 -0.8164 -0.1918 -0.2172
   79SOPE  H16X 7189   4.261   1.835   5.316  0.5592 -0.3248  1.0031
   79SOPE  H16Y 7190   4.393   1.913   5.215 -0.3657  2.3668 -0.3692
   79SOPE  C317 7191   4.198   1.985   5.179 -0.6709  0.6044  0.5092
   79SOPE  H17X 7192   4.244   2.074   5.130 -2.1436 -0.4400 -3.1167
   79SOPE  H17Y 7193   4.113   2.019   5.241 -0.7840  1.6861 -0.2140
   79SOPE  C318 7194   4.162   1.885   5.064 -0.5079 -0.4761  0.2918
   79SOPE  H18X 7195   4.142   1.782   5.100  1.1130 -0.9507 -0.0891
   79SOPE  H18Y 7196   4.242   1.861   4.990 -0.7021 -2.7227  0.7274
   79SOPE  H18Z 7197   4.073   1.923   5.010  0.8632  0.7279 -1.2428
   80SOPE     N 7198   2.396   4.461   7.319 -0.3456  0.4948  0.0307
   80SOPE   HN1 7199   2.414   4.561   7.295  0.2580  0.6196  0.9440
   80SOPE   HN2 7200   2.413   4.449   7.421 -0.6804  1.2659  0.1899
   80SOPE   HN3 7201   2.461   4.396   7.271  0.8329  0.9073  1.0123
   80SOPE   C12 7202   2.254   4.420   7.288  0.2479  1.3223  0.1325
   80SOPE  H12A 7203   2.186   4.505   7.312 -1.6479  0.1379 -0.8031
   80SOPE  H12B 7204   2.234   4.330   7.350  0.1667  1.9511  1.0327
   80SOPE   C11 7205   2.236   4.388   7.136  0.2111 -0.1951 -0.7156
   80SOPE  H11A 7206   2.127   4.400   7.120  0.0325 -0.0725  0.5459
   80SOPE  H11B 7207   2.270   4.283   7.118  1.9995  0.1007  0.5846
   80SOPE     P 7208   2.333   4.463   6.904 -0.3375  0.0470  0.2536
   80SOPE   O13 7209   2.301   4.321   6.875 -0.0299 -0.4792  0.7019
   80SOPE   O14 7210   2.466   4.521   6.877  0.3915  0.2459  0.1485
   80SOPE   O12 7211   2.309   4.482   7.060 -0.1050  0.2233  0.2006
   80SOPE   O11 7212   2.220   4.546   6.836 -0.3595  0.1672 -0.4911
   80SOPE    C1 7213   2.084   4.529   6.872 -0.2344  0.1485 -0.7077
   80SOPE    HA 7214   2.067   4.557   6.978  2.6555 -1.8574  0.4039
   80SOPE    HB 7215   2.064   4.419   6.872  0.7831 -0.0467 -0.6244
   80SOPE    C2 7216   1.988   4.598   6.768 -0.5391  0.2993  0.4333
   80SOPE    HS 7217   1.887   4.553   6.774 -0.9949 -0.1034 -5.3602
   80SOPE   O21 7218   2.041   4.581   6.638 -0.2569  0.4377  0.4043
   80SOPE   C21 7219   2.054   4.450   6.605  0.0306 -0.1130  0.9505
   80SOPE   O22 7220   2.006   4.362   6.668  0.1446  0.9650  0.1507
   80SOPE   C22 7221   2.141   4.438   6.481  0.3151 -0.5823  0.6259
   80SOPE   H2R 7222   2.243   4.470   6.510 -0.8277  2.6389  1.5797
   80SOPE   H2S 7223   2.098   4.516   6.415  0.6254  1.2699  2.5140
   80SOPE    C3 7224   1.981   4.751   6.800  0.3165  0.4406  0.3285
   80SOPE    HX 7225   2.071   4.804   6.763  0.1100  0.0149 -0.8199
   80SOPE    HY 7226   1.981   4.757   6.911  1.8545 -2.1271  0.5386
   80SOPE   O31 7227   1.856   4.813   6.751  0.1588  0.7293  0.7288
   80SOPE   C31 7228   1.875   4.871   6.626  0.4909  0.6218  1.0446
   80SOPE   O32 7229   1.977   4.929   6.586 -0.2516  0.1837  0.1370
   80SOPE   C32 7230   1.740   4.880   6.554 -0.1006 -0.2192  0.2520
   80SOPE   H2X 7231   1.677   4.945   6.619  1.2599 -1.6705  3.1723
   80SOPE   H2Y 7232   1.695   4.779   6.544 -1.2793  0.5342 -3.7397
   80SOPE   C23 7233   2.139   4.305   6.414  0.3202  0.0091 -0.2890
   80SOPE   H3R 7234   2.030   4.282   6.416  0.0258  1.3318 -0.3236
   80SOPE   H3S 7235   2.192   4.226   6.473  0.9661  0.8036  0.2106
   80SOPE   C24 7236   2.192   4.299   6.267 -0.2838  0.3016 -0.3870
   80SOPE   H4R 7237   2.153   4.388   6.212  1.0465  2.0872  1.4047
   80SOPE   H4S 7238   2.302   4.310   6.272 -0.4762  1.9992  1.4074
   80SOPE   C25 7239   2.153   4.173   6.192  0.6474 -0.3861  0.1826
   80SOPE   H5R 7240   2.170   4.085   6.258 -0.6149 -1.0058 -0.2853
   80SOPE   H5S 7241   2.047   4.158   6.164  0.7132 -4.3360  1.3554
   80SOPE   C26 7242   2.233   4.149   6.056 -0.0396 -0.3931 -0.7402
   80SOPE   H6R 7243   2.242   4.251   6.013  0.2980  0.0624  0.3838
   80SOPE   H6S 7244   2.337   4.129   6.090  0.1437  1.9180  0.1913
   80SOPE   C27 7245   2.172   4.050   5.957 -0.0369 -0.2039 -0.1065
   80SOPE   H7R 7246   2.157   3.952   6.007  0.1622  0.0671  0.4995
   80SOPE   H7S 7247   2.074   4.098   5.934  0.0385  0.4528  0.8944
   80SOPE   C28 7248   2.238   4.030   5.819 -0.1827 -0.3866 -0.3794
   80SOPE   H8R 7249   2.228   4.129   5.770 -2.4972  0.9906  2.5007
   80SOPE   H8S 7250   2.346   4.006   5.820  0.4651  2.1935  1.1189
   80SOPE   C29 7251   2.158   3.925   5.750  0.1439 -0.3204 -0.5425
   80SOPE   H91 7252   2.169   3.833   5.810  0.4495  1.1561  1.7945
   80SOPE  C210 7253   2.073   3.924   5.645 -0.3177  0.3790  0.5378
   80SOPE  H101 7254   2.029   3.834   5.599 -0.7382 -0.3902  2.3748
   80SOPE  C211 7255   2.045   4.046   5.554  0.5632 -0.0362 -0.3170
   80SOPE  H11R 7256   2.044   4.139   5.615  0.8065  0.4431 -1.0176
   80SOPE  H11S 7257   1.942   4.040   5.512 -0.9278  0.6731  2.8978
   80SOPE  C212 7258   2.148   4.065   5.438 -0.0285  0.4995 -0.2402
   80SOPE  H12R 7259   2.143   3.985   5.362  1.5346  0.4109 -0.2855
   80SOPE  H12S 7260   2.247   4.062   5.488 -0.7948  1.2648  1.4264
   80SOPE  C213 7261   2.138   4.205   5.379 -0.2777  0.0904  0.0768
   80SOPE  H13R 7262   2.232   4.211   5.320  0.3257 -0.1357  1.0091
   80SOPE  H13S 7263   2.144   4.290   5.450  0.6167  0.0375  0.0751
   80SOPE  C214 7264   2.015   4.225   5.295  0.4350  0.3289 -0.2707
   80SOPE  H14R 7265   2.022   4.320   5.236  0.5851  0.6728  0.2969
   80SOPE  H14S 7266   1.922   4.233   5.354 -0.4177 -2.9864 -0.9775
   80SOPE  C215 7267   1.987   4.121   5.189  0.2756 -0.2632 -0.2238
   80SOPE  H15R 7268   1.953   4.022   5.227  1.2657  0.0284  1.4845
   80SOPE  H15S 7269   2.082   4.107   5.133  0.6863 -0.3078  0.4850
   80SOPE  C216 7270   1.884   4.178   5.087 -0.9968  0.5683  0.3642
   80SOPE  H16R 7271   1.919   4.271   5.037 -0.2197  0.1496  0.1043
   80SOPE  H16S 7272   1.783   4.197   5.127 -1.5718 -0.4208 -0.5394
   80SOPE  C217 7273   1.861   4.069   4.982  0.5039 -0.9171  0.3981
   80SOPE  H17R 7274   1.822   3.980   5.037 -1.7162  0.1826  0.6856
   80SOPE  H17S 7275   1.955   4.042   4.929 -0.2613 -0.1243 -1.4299
   80SOPE  C218 7276   1.751   4.102   4.877 -0.3453 -0.2765 -0.3941
   80SOPE  H18R 7277   1.798   4.168   4.801 -0.4805 -1.1066 -1.2138
   80SOPE  H18S 7278   1.666   4.158   4.923  0.3897  1.2396 -0.8094
   80SOPE  H18T 7279   1.711   4.016   4.820  0.1978 -0.0604 -1.1043
   80SOPE   C33 7280   1.761   4.927   6.415 -0.3717 -0.0263 -0.3139
   80SOPE   H3X 7281   1.846   4.879   6.362 -2.6938 -1.0974 -3.3308
   80SOPE   H3Y 7282   1.792   5.033   6.422 -0.5825  0.0471 -0.4913
   80SOPE   C34 7283   1.639   4.925   6.321 -0.5212 -0.0354  0.2716
   80SOPE   H4X 7284   1.574   5.007   6.358  0.6038  0.8010  0.4511
   80SOPE   H4Y 7285   1.591   4.825   6.327 -1.0029  0.1098 -0.8008
   80SOPE   C35 7286   1.674   4.944   6.179 -0.1078  1.1941  0.0402
   80SOPE   H5X 7287   1.744   4.865   6.146 -1.5487 -0.1623  0.1297
   80SOPE   H5Y 7288   1.706   5.048   6.157  0.5766  1.0782  0.4805
   80SOPE   C36 7289   1.559   4.920   6.080  0.2090 -0.0384  0.3152
   80SOPE   H6X 7290   1.481   4.991   6.115  0.5416 -0.0491  1.0898
   80SOPE   H6Y 7291   1.513   4.819   6.090 -1.6280  0.7067 -0.1618
   80SOPE   C37 7292   1.588   4.945   5.937 -0.0887 -0.9350 -0.1209
   80SOPE   H7X 7293   1.675   4.886   5.900  0.5889  1.4544 -2.6491
   80SOPE   H7Y 7294   1.622   5.050   5.923  0.4112 -1.1021 -0.1784
   80SOPE   C38 7295   1.467   4.940   5.844  0.4524  0.0830  0.1266
   80SOPE   H8X 7296   1.380   4.996   5.884  0.9267  2.4068 -1.8675
   80SOPE   H8Y 7297   1.431   4.836   5.825 -0.5776  0.3465  0.5750
   80SOPE   C39 7298   1.488   5.019   5.711 -0.3859  0.0686  0.4703
   80SOPE   H9X 7299   1.565   4.955   5.662  0.9503  0.9997  1.2941
   80SOPE   H9Y 7300   1.523   5.123   5.724  0.5140  0.1060 -1.7331
   80SOPE  C310 7301   1.368   5.015   5.611  0.2613  0.3509 -0.2702
   80SOPE  H10X 7302   1.283   5.072   5.655 -0.9381 -2.1226  0.8305
   80SOPE  H10Y 7303   1.338   4.910   5.592  1.3671  0.3242 -2.1677
   80SOPE  C311 7304   1.408   5.085   5.480  0.8967 -0.1373  0.0148
   80SOPE  H11X 7305   1.425   5.195   5.486 -0.8868  0.2396 -1.1461
   80SOPE  H11Y 7306   1.321   5.074   5.413  1.0658  0.3869 -0.2953
   80SOPE  C312 7307   1.523   5.019   5.401 -0.2862 -0.3835  0.3375
   80SOPE  H12X 7308   1.525   4.908   5.399  0.1984 -0.3814  0.7067
   80SOPE  H12Y 7309   1.626   5.054   5.420 -0.8583  2.5455 -1.3083
   80SOPE  C313 7310   1.521   5.043   5.245 -1.2460  0.0286 -0.2634
   80SOPE  H13X 7311   1.603   4.978   5.210  0.0956 -0.1248  2.8555
   80SOPE  H13Y 7312   1.556   5.144   5.214 -0.2902 -0.3690 -0.5062
   80SOPE  C314 7313   1.391   5.017   5.166 -0.1169  0.0157 -0.1573
   80SOPE  H14X 7314   1.307   5.068   5.218  2.8043  0.5410  4.7062
   80SOPE  H14Y 7315   1.359   4.913   5.185  0.9989 -0.3365 -0.1524
   80SOPE  C315 7316   1.393   5.057   5.017  0.0871  0.4009 -0.5747
   80SOPE  H15X 7317   1.462   4.985   4.967  1.7779  1.9331 -0.5544
   80SOPE  H15Y 7318   1.427   5.160   4.990  0.9436  0.3010  0.0510
   80SOPE  C316 7319   1.259   5.031   4.945  0.3297  0.9053 -0.4014
   80SOPE  H16X 7320   1.192   5.088   5.013  2.4548  1.4900  1.3122
   80SOPE  H16Y 7321   1.243   4.921   4.957  0.6356  0.7347 -1.4734
   80SOPE  C317 7322   1.256   5.077   4.801  0.5303  0.0521  0.1226
   80SOPE  H17X 7323   1.265   5.187   4.809  2.4504 -0.1939  2.4746
   80SOPE  H17Y 7324   1.160   5.042   4.757  1.0655  0.8355 -1.7543
   80SOPE  C318 7325   1.365   5.040   4.704  0.1797  0.2105 -0.4280
   80SOPE  H18X 7326   1.463   5.070   4.747 -0.3568  2.1623 -0.4828
   80SOPE  H18Y 7327   1.340   5.100   4.614 -0.7314 -1.7425 -1.5400
   80SOPE  H18Z 7328   1.369   4.930   4.690 -1.1948 -0.3591  2.8507
   81SOPE     N 7329   3.128   6.294   6.543 -0.2410 -0.4855 -0.7825
   81SOPE   HN1 7330   3.166   6.288   6.446 -0.0714 -2.0740 -0.6419
   81SOPE   HN2 7331   3.119   6.204   6.595 -3.2587  0.3950  0.4170
   81SOPE   HN3 7332   3.034   6.337   6.543 -1.4024 -2.8296  0.6494
   81SOPE   C12 7333   3.209   6.391   6.624 -0.3792 -0.6191 -0.1929
   81SOPE  H12A 7334   3.308   6.395   6.574  0.4758  0.8674  1.4950
   81SOPE  H12B 7335   3.224   6.353   6.728  0.3197 -0.9328 -0.4001
   81SOPE   C11 7336   3.140   6.532   6.631 -0.3510  1.0930  0.3281
   81SOPE  H11A 7337   3.124   6.580   6.532 -0.2062  0.9935  0.2561
   81SOPE  H11B 7338   3.202   6.600   6.693 -0.7543  1.5472  0.2396
   81SOPE     P 7339   2.872   6.511   6.659  0.0574  0.1097 -0.0598
   81SOPE   O13 7340   2.836   6.635   6.587 -0.1855  0.3248  0.1777
   81SOPE   O14 7341   2.784   6.476   6.772  0.0272  0.7558 -0.2371
   81SOPE   O12 7342   3.024   6.520   6.712  0.4317  0.2623  0.0018
   81SOPE   O11 7343   2.875   6.385   6.560  0.5685 -0.4842  0.0661
   81SOPE    C1 7344   2.755   6.318   6.521  0.2700 -0.8142 -0.1824
   81SOPE    HA 7345   2.669   6.388   6.515 -0.4752 -1.4640  2.0584
   81SOPE    HB 7346   2.739   6.230   6.586 -0.9652  1.0141  2.1320
   81SOPE    C2 7347   2.782   6.261   6.382  0.0333  0.6032  0.7688
   81SOPE    HS 7348   2.879   6.207   6.372  0.5599  1.6072  0.2448
   81SOPE   O21 7349   2.789   6.377   6.294 -0.4445 -0.4223 -0.7951
   81SOPE   C21 7350   2.902   6.415   6.249  0.5191 -0.3987  0.2862
   81SOPE   O22 7351   3.011   6.363   6.266  0.1955 -0.2408 -0.2746
   81SOPE   C22 7352   2.890   6.550   6.176  1.1726  0.4810  0.0820
   81SOPE   H2R 7353   2.983   6.559   6.115  2.3277 -0.8705  1.5613
   81SOPE   H2S 7354   2.892   6.630   6.253  2.5739  0.5735 -0.0161
   81SOPE    C3 7355   2.658   6.178   6.335 -0.4498 -0.8648  0.5457
   81SOPE    HX 7356   2.564   6.229   6.363 -0.8369 -2.6852  2.9392
   81SOPE    HY 7357   2.646   6.088   6.400  0.6795  0.0741  2.1250
   81SOPE   O31 7358   2.663   6.151   6.189  0.0566 -0.0247 -0.4558
   81SOPE   C31 7359   2.725   6.036   6.150 -0.3150 -0.3765  0.7428
   81SOPE   O32 7360   2.769   5.949   6.222  0.3140  0.8345  0.7290
   81SOPE   C32 7361   2.747   6.045   5.999  0.1424 -0.1776  0.1545
   81SOPE   H2X 7362   2.823   6.126   5.995 -1.3539  1.2722 -0.2451
   81SOPE   H2Y 7363   2.654   6.085   5.952  0.0126  0.1560  0.6901
   81SOPE   C23 7364   2.763   6.567   6.087 -0.7124  0.6660 -0.2697
   81SOPE   H3R 7365   2.767   6.673   6.055  1.0907  1.2391  1.6803
   81SOPE   H3S 7366   2.668   6.561   6.145 -0.4685  2.3036  0.3324
   81SOPE   C24 7367   2.763   6.476   5.959  0.2366  0.0485  0.2604
   81SOPE   H4R 7368   2.730   6.374   5.990 -1.6948  0.8147  0.8495
   81SOPE   H4S 7369   2.675   6.525   5.913  1.0822  2.1901  0.7784
   81SOPE   C25 7370   2.880   6.490   5.866  1.0786  0.1849  0.0242
   81SOPE   H5R 7371   2.877   6.599   5.844  0.8808  0.2122  0.1789
   81SOPE   H5S 7372   2.977   6.465   5.915 -0.1607 -0.7549  2.1673
   81SOPE   C26 7373   2.864   6.408   5.748  0.6507 -0.6226  0.3210
   81SOPE   H6R 7374   2.951   6.424   5.680 -0.2984 -0.6213 -0.9351
   81SOPE   H6S 7375   2.858   6.302   5.781 -2.0904 -0.3481  0.8923
   81SOPE   C27 7376   2.740   6.442   5.667  0.0955 -0.1170  0.6875
   81SOPE   H7R 7377   2.650   6.393   5.707  1.0529 -0.0937  3.0572
   81SOPE   H7S 7378   2.715   6.550   5.679  0.7002  0.5449 -2.8778
   81SOPE   C28 7379   2.742   6.407   5.520  0.3627 -0.2137  0.7363
   81SOPE   H8R 7380   2.639   6.428   5.487  0.9294  2.1193  0.3021
   81SOPE   H8S 7381   2.819   6.476   5.480  0.7040 -1.7406 -1.4222
   81SOPE   C29 7382   2.783   6.269   5.491  0.3509  0.2267 -0.5999
   81SOPE   H91 7383   2.793   6.201   5.577  2.9645  0.7944 -0.3975
   81SOPE  C210 7384   2.812   6.218   5.365  0.1562  0.2048  0.0237
   81SOPE  H101 7385   2.841   6.112   5.354 -1.4685 -0.4496  1.4418
   81SOPE  C211 7386   2.790   6.300   5.241  0.1973  0.4376 -0.4195
   81SOPE  H11R 7387   2.873   6.373   5.237  0.6087  0.0551  0.7973
   81SOPE  H11S 7388   2.704   6.371   5.242 -0.4490 -0.2602 -2.0503
   81SOPE  C212 7389   2.767   6.209   5.113 -0.2920  0.1874 -0.7173
   81SOPE  H12R 7390   2.720   6.278   5.039 -3.1052 -0.5010  0.2867
   81SOPE  H12S 7391   2.692   6.127   5.109  0.9229 -0.9536 -0.3651
   81SOPE  C213 7392   2.903   6.147   5.072  0.1169 -0.3577  0.1085
   81SOPE  H13R 7393   2.886   6.077   4.988  1.7490  1.1506 -1.5854
   81SOPE  H13S 7394   2.962   6.097   5.152  2.8632  1.4787 -0.6543
   81SOPE  C214 7395   2.995   6.245   5.001  0.1354  0.3510  0.0933
   81SOPE  H14R 7396   3.010   6.329   5.072 -1.0757 -1.1372  2.2055
   81SOPE  H14S 7397   2.950   6.288   4.909 -1.4786  1.9684  1.5765
   81SOPE  C215 7398   3.138   6.195   4.953 -0.2388 -0.2800  0.0068
   81SOPE  H15R 7399   3.118   6.109   4.885  0.2661 -1.0724  0.8443
   81SOPE  H15S 7400   3.192   6.154   5.041 -4.0944 -3.7728  1.0817
   81SOPE  C216 7401   3.219   6.312   4.885  0.8770  0.1702  0.4006
   81SOPE  H16R 7402   3.250   6.392   4.955  3.4640  0.4141 -0.8733
   81SOPE  H16S 7403   3.156   6.359   4.806  1.1041 -0.6868 -0.3148
   81SOPE  C217 7404   3.346   6.252   4.821  0.1808 -0.1096 -0.8300
   81SOPE  H17R 7405   3.315   6.162   4.762 -0.1446  0.2349 -1.1876
   81SOPE  H17S 7406   3.407   6.203   4.900 -0.6698  1.6192  0.9631
   81SOPE  C218 7407   3.433   6.354   4.743  0.3323  0.5612 -0.1289
   81SOPE  H18R 7408   3.367   6.405   4.671  0.9417  1.0910 -0.3193
   81SOPE  H18S 7409   3.512   6.310   4.678 -0.4867 -2.1402  0.5547
   81SOPE  H18T 7410   3.460   6.431   4.818 -1.9280  0.4478  0.8627
   81SOPE   C33 7411   2.797   5.918   5.930  1.0461  0.0699  0.0692
   81SOPE   H3X 7412   2.728   5.836   5.957  1.2115 -0.2948 -0.5940
   81SOPE   H3Y 7413   2.902   5.897   5.959  2.1940  2.2346 -2.1250
   81SOPE   C34 7414   2.800   5.930   5.780  0.2463  0.1196  0.3762
   81SOPE   H4X 7415   2.867   6.018   5.766  1.9194 -1.1863 -0.1355
   81SOPE   H4Y 7416   2.701   5.953   5.735  1.5556  3.1283 -1.3455
   81SOPE   C35 7417   2.850   5.803   5.710 -0.0531  0.6833 -0.3842
   81SOPE   H5X 7418   2.772   5.726   5.724 -0.5451  1.3491  0.6059
   81SOPE   H5Y 7419   2.946   5.778   5.761  0.9614 -0.2727 -2.6221
   81SOPE   C36 7420   2.872   5.810   5.551 -0.1966  0.5945 -0.4249
   81SOPE   H6X 7421   2.923   5.717   5.519  0.0716  0.1475  1.2177
   81SOPE   H6Y 7422   2.936   5.897   5.524 -1.5429  1.5475 -0.6766
   81SOPE   C37 7423   2.734   5.836   5.484 -0.3112  0.3843 -0.3265
   81SOPE   H7X 7424   2.689   5.932   5.514 -1.2215 -0.0914 -0.1424
   81SOPE   H7Y 7425   2.665   5.761   5.528 -0.1327  0.6137  0.3631
   81SOPE   C38 7426   2.739   5.827   5.334 -0.5158 -0.7243 -0.6247
   81SOPE   H8X 7427   2.779   5.725   5.314  1.4860 -0.3454  1.1675
   81SOPE   H8Y 7428   2.802   5.902   5.282 -2.8547  1.9943  0.1647
   81SOPE   C39 7429   2.595   5.832   5.278  0.6619  0.2027 -0.4582
   81SOPE   H9X 7430   2.556   5.934   5.298  1.5902  0.6855 -1.0119
   81SOPE   H9Y 7431   2.534   5.753   5.327  1.8115 -1.8507 -2.1750
   81SOPE  C310 7432   2.591   5.821   5.125 -0.3478 -0.4577 -0.1692
   81SOPE  H10X 7433   2.639   5.723   5.103  0.0614  0.2478 -2.7669
   81SOPE  H10Y 7434   2.665   5.891   5.081 -0.9265 -0.4465 -1.1529
   81SOPE  C311 7435   2.447   5.832   5.076  0.2512 -0.1340 -0.2402
   81SOPE  H11X 7436   2.393   5.907   5.138  1.8841  0.5148  0.4412
   81SOPE  H11Y 7437   2.386   5.740   5.089 -1.6587  0.7797 -2.2398
   81SOPE  C312 7438   2.440   5.856   4.922  0.1027  0.3262 -0.2636
   81SOPE  H12X 7439   2.489   5.776   4.864  2.2011  3.0751 -2.5990
   81SOPE  H12Y 7440   2.499   5.949   4.903  0.8571 -0.1712 -0.3837
   81SOPE  C313 7441   2.293   5.870   4.883  0.2762 -0.3086  0.8604
   81SOPE  H13X 7442   2.253   5.942   4.958  0.3463  0.9955 -0.3146
   81SOPE  H13Y 7443   2.236   5.775   4.895  1.7160 -1.2559  0.4098
   81SOPE  C314 7444   2.266   5.943   4.746 -0.3565 -0.2179 -0.2826
   81SOPE  H14X 7445   2.335   6.030   4.748 -0.8555  0.2172 -1.3223
   81SOPE  H14Y 7446   2.162   5.980   4.754 -0.5705 -1.0545  1.2148
   81SOPE  C315 7447   2.278   5.860   4.619 -0.1620 -0.1088  0.1006
   81SOPE  H15X 7448   2.216   5.768   4.628  1.8583 -1.6931 -1.2693
   81SOPE  H15Y 7449   2.385   5.834   4.611 -0.3378 -1.7204  2.3470
   81SOPE  C316 7450   2.228   5.944   4.504  0.1564  0.7066  0.2178
   81SOPE  H16X 7451   2.282   6.040   4.494 -0.6681  0.9730 -2.3684
   81SOPE  H16Y 7452   2.123   5.981   4.505 -0.2204 -0.2977 -0.6243
   81SOPE  C317 7453   2.239   5.867   4.370 -0.6611  0.9559  0.1766
   81SOPE  H17X 7454   2.345   5.836   4.367 -0.9929 -0.6700  2.5058
   81SOPE  H17Y 7455   2.216   5.932   4.283 -1.1611 -0.0862 -0.4933
   81SOPE  C318 7456   2.141   5.745   4.370 -0.7845  0.1693 -0.0245
   81SOPE  H18X 7457   2.047   5.776   4.420 -1.2389  0.4017 -0.9964
   81SOPE  H18Y 7458   2.176   5.656   4.427  0.3496  2.5974  3.3413
   81SOPE  H18Z 7459   2.119   5.715   4.265  0.1054 -0.0687 -0.1500
   82SOPE     N 7460   5.717   5.275   6.764 -0.1803  0.0704  0.1852
   82SOPE   HN1 7461   5.778   5.258   6.681 -0.1087  4.1944 -0.8241
   82SOPE   HN2 7462   5.662   5.188   6.784 -0.8782  0.3739 -0.3535
   82SOPE   HN3 7463   5.649   5.348   6.736  0.3638 -0.0025 -1.4111
   82SOPE   C12 7464   5.795   5.328   6.874 -0.4840  0.4006  0.1512
   82SOPE  H12A 7465   5.714   5.353   6.946 -0.7912 -1.2617  0.4198
   82SOPE  H12B 7466   5.856   5.416   6.842  0.4338 -0.6952 -1.2318
   82SOPE   C11 7467   5.899   5.224   6.920  0.2767  0.3189  0.1658
   82SOPE  H11A 7468   5.842   5.132   6.946  0.9455 -0.3068 -0.5277
   82SOPE  H11B 7469   5.951   5.275   7.004  0.4011  0.4200  0.0280
   82SOPE     P 7470   6.077   5.056   6.832 -0.3740  0.1191 -0.1666
   82SOPE   O13 7471   5.988   4.937   6.815 -0.3067  0.2295  0.3415
   82SOPE   O14 7472   6.166   5.074   6.946  0.4133 -0.5818 -0.4795
   82SOPE   O12 7473   5.989   5.189   6.817  0.2885  0.5796 -0.2033
   82SOPE   O11 7474   6.179   5.057   6.717  0.0183  0.9524 -0.3288
   82SOPE    C1 7475   6.170   5.159   6.620 -1.1659  0.3979  0.0256
   82SOPE    HA 7476   6.256   5.144   6.551 -0.5868  1.8531  0.3838
   82SOPE    HB 7477   6.190   5.258   6.665  1.1861  0.4896 -1.0838
   82SOPE    C2 7478   6.053   5.158   6.513  0.6586  1.0009  0.1157
   82SOPE    HS 7479   5.961   5.172   6.572  1.1818 -1.2864  1.6029
   82SOPE   O21 7480   6.074   5.034   6.446 -0.0422 -0.1531 -0.1917
   82SOPE   C21 7481   5.972   4.998   6.370 -0.0113  0.6124 -0.7638
   82SOPE   O22 7482   5.854   5.033   6.379  0.0159 -0.2967  0.8627
   82SOPE   C22 7483   6.023   4.893   6.269  0.1546 -0.0168 -0.4770
   82SOPE   H2R 7484   5.931   4.845   6.230  0.4951  0.3264 -1.7240
   82SOPE   H2S 7485   6.082   4.819   6.326 -1.6871  0.5541  2.4299
   82SOPE    C3 7486   6.072   5.282   6.429  0.1889  0.1472 -0.7530
   82SOPE    HX 7487   6.164   5.261   6.370  0.3232  0.9188 -0.8259
   82SOPE    HY 7488   6.084   5.365   6.501  1.6096 -1.1084  0.5224
   82SOPE   O31 7489   5.967   5.299   6.335  0.2606  0.2718  0.5818
   82SOPE   C31 7490   5.852   5.346   6.387  0.4757  0.4854  0.8423
   82SOPE   O32 7491   5.838   5.384   6.502 -0.3373  0.3204  0.2285
   82SOPE   C32 7492   5.744   5.354   6.274  0.0232 -0.5111 -0.8352
   82SOPE   H2X 7493   5.655   5.390   6.330  1.9820  2.0352  0.9124
   82SOPE   H2Y 7494   5.730   5.249   6.242 -1.3638  0.5791 -4.2689
   82SOPE   C23 7495   6.105   4.959   6.155  0.4305  0.5112  0.0015
   82SOPE   H3R 7496   6.162   4.879   6.103 -1.8626 -1.2891  0.0955
   82SOPE   H3S 7497   6.177   5.022   6.211  0.5313 -0.8842  1.5377
   82SOPE   C24 7498   6.013   5.036   6.063  0.3618 -0.2052  0.4224
   82SOPE   H4R 7499   5.964   5.123   6.110  3.2219  0.7326  1.9086
   82SOPE   H4S 7500   6.080   5.090   5.992 -0.4093 -1.6181 -1.5006
   82SOPE   C25 7501   5.919   4.950   5.965 -0.5918  0.1063  0.3101
   82SOPE   H5R 7502   5.975   4.867   5.916  0.8915  0.4158  1.4146
   82SOPE   H5S 7503   5.839   4.910   6.031 -0.3788  0.5608  0.8561
   82SOPE   C26 7504   5.869   5.051   5.858 -0.0891  0.6139  0.0817
   82SOPE   H6R 7505   5.801   5.124   5.906 -0.0720 -0.1757  1.3341
   82SOPE   H6S 7506   5.958   5.097   5.809 -1.0117  0.1161 -2.1779
   82SOPE   C27 7507   5.794   4.973   5.747 -0.1460 -0.9340  0.0494
   82SOPE   H7R 7508   5.842   4.886   5.697  0.1093 -0.5104 -0.4567
   82SOPE   H7S 7509   5.700   4.945   5.799  1.2940 -0.6482  2.9661
   82SOPE   C28 7510   5.753   5.076   5.641  0.7527  0.2742 -0.5970
   82SOPE   H8R 7511   5.677   5.039   5.568  1.7642  1.9513 -2.6161
   82SOPE   H8S 7512   5.695   5.164   5.677 -0.9104 -0.1665 -2.0357
   82SOPE   C29 7513   5.872   5.131   5.572  0.1581 -0.2495 -0.2496
   82SOPE   H91 7514   5.933   5.206   5.624 -0.6386 -0.1045  0.5067
   82SOPE  C210 7515   5.891   5.113   5.439 -0.9501 -0.2428  0.0348
   82SOPE  H101 7516   5.984   5.154   5.396 -1.7011  1.1693 -0.2892
   82SOPE  C211 7517   5.822   5.027   5.335 -0.3222 -0.0265  0.9259
   82SOPE  H11R 7518   5.747   5.090   5.282 -0.2246  0.7695  1.7143
   82SOPE  H11S 7519   5.784   4.934   5.383  0.3274  1.0777  3.8101
   82SOPE  C212 7520   5.919   4.991   5.218  1.0438 -0.5226 -0.2198
   82SOPE  H12R 7521   5.974   4.907   5.266  0.9722 -1.6865 -2.0878
   82SOPE  H12S 7522   5.979   5.075   5.178  1.3806  0.6609  2.5569
   82SOPE  C213 7523   5.839   4.933   5.101  0.0801 -0.0611  0.6273
   82SOPE  H13R 7524   5.765   5.004   5.057  1.5111  2.0943  1.5264
   82SOPE  H13S 7525   5.782   4.846   5.141  0.5243 -0.4130  0.4921
   82SOPE  C214 7526   5.936   4.887   4.996  0.1078  0.3801  0.2354
   82SOPE  H14R 7527   5.999   4.972   4.962  2.4474 -1.2477  0.2789
   82SOPE  H14S 7528   5.882   4.859   4.903  0.9268 -1.0057  0.1450
   82SOPE  C215 7529   6.028   4.762   5.024 -0.3582 -1.1279 -0.3866
   82SOPE  H15R 7530   5.972   4.670   5.052  0.1862 -1.2860  0.2087
   82SOPE  H15S 7531   6.080   4.783   5.120 -3.8418 -0.2288  1.4873
   82SOPE  C216 7532   6.136   4.722   4.924  0.3080  0.4345 -0.1033
   82SOPE  H16R 7533   6.199   4.640   4.964 -2.1573 -2.4447 -1.7254
   82SOPE  H16S 7534   6.202   4.810   4.910 -0.8054  1.2728 -0.3198
   82SOPE  C217 7535   6.088   4.665   4.788 -0.4054 -0.0072  0.1253
   82SOPE  H17R 7536   5.993   4.614   4.815  0.9017 -1.4321  2.3910
   82SOPE  H17S 7537   6.161   4.585   4.766  1.1165  0.6622  2.3461
   82SOPE  C218 7538   6.080   4.768   4.682 -0.0692  0.2584 -0.5089
   82SOPE  H18R 7539   6.179   4.804   4.645 -0.5245  0.0910 -1.9480
   82SOPE  H18S 7540   6.022   4.857   4.717  1.0214  0.7994 -0.0100
   82SOPE  H18T 7541   6.021   4.723   4.600 -0.8002  0.8908 -0.3411
   82SOPE   C33 7542   5.773   5.465   6.172  0.4835  0.3133  0.3833
   82SOPE   H3X 7543   5.872   5.515   6.182  0.1092  1.6272 -1.7511
   82SOPE   H3Y 7544   5.695   5.543   6.184 -1.6241 -1.6538  0.1233
   82SOPE   C34 7545   5.761   5.400   6.031 -0.2490  0.3186 -0.6554
   82SOPE   H4X 7546   5.654   5.372   6.014 -0.2624  0.4795 -0.8391
   82SOPE   H4Y 7547   5.824   5.308   6.028  1.4657  1.3988  0.6910
   82SOPE   C35 7548   5.792   5.495   5.913  0.1898 -0.3216  0.9978
   82SOPE   H5X 7549   5.890   5.543   5.934  0.0235  0.6328 -0.2783
   82SOPE   H5Y 7550   5.715   5.576   5.915 -0.8812 -1.2169 -1.1003
   82SOPE   C36 7551   5.790   5.434   5.776  0.1039 -0.3656  0.4855
   82SOPE   H6X 7552   5.708   5.359   5.771  0.8893 -1.1476 -2.7372
   82SOPE   H6Y 7553   5.880   5.372   5.759  0.2061 -0.0601 -0.1155
   82SOPE   C37 7554   5.784   5.543   5.675  0.2120 -0.5095  0.1197
   82SOPE   H7X 7555   5.864   5.617   5.696 -1.0114  0.4055  1.7522
   82SOPE   H7Y 7556   5.684   5.591   5.669  0.7895  0.5744 -1.3716
   82SOPE   C38 7557   5.787   5.487   5.531  0.6036  1.0926 -0.5984
   82SOPE   H8X 7558   5.687   5.444   5.509  0.9539 -1.0765  1.5907
   82SOPE   H8Y 7559   5.858   5.402   5.524 -1.2270 -0.5941  0.3727
   82SOPE   C39 7560   5.820   5.588   5.424 -0.1824 -0.1910 -0.0128
   82SOPE   H9X 7561   5.917   5.633   5.454  0.0386  0.5552 -1.7495
   82SOPE   H9Y 7562   5.750   5.673   5.413  1.0704  1.1044  1.4497
   82SOPE  C310 7563   5.851   5.530   5.289  0.3273  0.9789 -0.6786
   82SOPE  H10X 7564   5.927   5.450   5.302  0.0500  0.7601 -0.3998
   82SOPE  H10Y 7565   5.873   5.617   5.224 -0.1211  0.0835 -2.0760
   82SOPE  C311 7566   5.734   5.464   5.216 -0.1171  0.4807  0.8993
   82SOPE  H11X 7567   5.644   5.529   5.205 -1.1664 -1.0126  0.1418
   82SOPE  H11Y 7568   5.701   5.379   5.281  0.3411  1.2941  2.2269
   82SOPE  C312 7569   5.777   5.421   5.075 -0.2920 -0.4245  0.6746
   82SOPE  H12X 7570   5.874   5.368   5.070 -0.6941 -1.0699 -2.9381
   82SOPE  H12Y 7571   5.788   5.512   5.012 -0.3961 -0.8213  0.0777
   82SOPE  C313 7572   5.677   5.324   5.012  0.4210 -0.0801 -0.6517
   82SOPE  H13X 7573   5.582   5.370   5.045  1.2892 -0.3282  2.5201
   82SOPE  H13Y 7574   5.684   5.226   5.064 -1.1899  0.3300  0.4189
   82SOPE  C314 7575   5.692   5.324   4.862 -0.4170  0.6730  0.0115
   82SOPE  H14X 7576   5.675   5.427   4.822  1.0771  1.3098  0.9313
   82SOPE  H14Y 7577   5.619   5.251   4.822 -1.4584  2.3613 -1.3253
   82SOPE  C315 7578   5.820   5.280   4.816  0.1054 -0.2877 -0.4383
   82SOPE  H15X 7579   5.847   5.186   4.869  0.6579  0.8159  1.3232
   82SOPE  H15Y 7580   5.899   5.356   4.830 -0.6690  0.3293  0.7293
   82SOPE  C316 7581   5.827   5.255   4.661  0.9694 -0.1889 -0.8592
   82SOPE  H16X 7582   5.732   5.202   4.636  0.1653  0.7908 -0.0150
   82SOPE  H16Y 7583   5.917   5.193   4.644 -0.2708 -1.9997 -1.1475
   82SOPE  C317 7584   5.834   5.382   4.571  0.6785 -0.0069  0.3574
   82SOPE  H17X 7585   5.928   5.439   4.585  0.7833 -0.3405  1.0287
   82SOPE  H17Y 7586   5.741   5.441   4.586  0.4079 -0.5511  0.8877
   82SOPE  C318 7587   5.823   5.346   4.416 -0.1380 -0.2315 -0.0110
   82SOPE  H18X 7588   5.840   5.436   4.353 -1.7335  1.0586  1.3013
   82SOPE  H18Y 7589   5.718   5.318   4.392 -0.8754  2.3715 -0.2026
   82SOPE  H18Z 7590   5.895   5.266   4.390  0.6409  0.9693 -1.7180
   83SOPE     N 7591   3.464   2.889   2.719 -0.0095 -0.1301 -1.3115
   83SOPE   HN1 7592   3.538   2.901   2.791 -0.3013 -1.1988 -0.8143
   83SOPE   HN2 7593   3.492   2.969   2.658  1.4564  1.2487  1.0232
   83SOPE   HN3 7594   3.369   2.902   2.759  0.3884  1.5158 -0.8458
   83SOPE   C12 7595   3.497   2.771   2.642 -0.0053  0.0581 -0.0674
   83SOPE  H12A 7596   3.447   2.793   2.545  1.7982 -0.0496 -1.0719
   83SOPE  H12B 7597   3.462   2.673   2.682  0.6406 -0.3705 -0.5311
   83SOPE   C11 7598   3.647   2.767   2.606 -0.0832  0.3854 -1.0893
   83SOPE  H11A 7599   3.675   2.861   2.555  1.0232  1.4520  1.3307
   83SOPE  H11B 7600   3.661   2.688   2.528 -0.6135 -0.7545 -0.0745
   83SOPE     P 7601   3.797   2.616   2.762 -0.0711  0.2204 -0.1236
   83SOPE   O13 7602   3.897   2.577   2.658 -0.5350  0.0379 -0.0795
   83SOPE   O14 7603   3.688   2.515   2.788 -0.8741 -0.0813  0.6556
   83SOPE   O12 7604   3.733   2.758   2.724 -0.8680  0.6722  0.3046
   83SOPE   O11 7605   3.879   2.634   2.902 -0.0516 -0.0041 -0.2198
   83SOPE    C1 7606   3.967   2.751   2.914  0.7287  0.3375  0.3768
   83SOPE    HA 7607   3.950   2.817   2.826 -1.6121 -1.5003 -0.6774
   83SOPE    HB 7608   4.072   2.720   2.931  0.6909  0.8437  1.6159
   83SOPE    C2 7609   3.922   2.843   3.034 -0.2177  0.2260  0.7946
   83SOPE    HS 7610   3.992   2.930   3.039 -2.5008  2.1660  1.0917
   83SOPE   O21 7611   3.927   2.770   3.157  0.4439  0.7349  0.0331
   83SOPE   C21 7612   4.058   2.766   3.205  0.5398 -0.4574 -1.2123
   83SOPE   O22 7613   4.153   2.821   3.154  0.2830 -0.2633  0.0328
   83SOPE   C22 7614   4.068   2.687   3.341  0.7081 -0.0823  0.8809
   83SOPE   H2R 7615   4.177   2.687   3.362  0.9060 -1.2952 -0.0196
   83SOPE   H2S 7616   4.033   2.582   3.330 -0.2247  0.2081  0.9694
   83SOPE    C3 7617   3.784   2.904   3.015  0.3050  0.6422 -0.4950
   83SOPE    HX 7618   3.733   2.828   2.952  0.5457 -0.3635  0.4985
   83SOPE    HY 7619   3.798   2.989   2.944  1.3709 -1.2811 -2.7487
   83SOPE   O31 7620   3.719   2.957   3.137 -0.2358 -0.1567 -0.5629
   83SOPE   C31 7621   3.588   2.944   3.135  0.9862 -0.7087 -0.4884
   83SOPE   O32 7622   3.519   2.881   3.054 -0.7232 -0.4120  0.0302
   83SOPE   C32 7623   3.533   2.998   3.266  0.4862 -0.2538 -0.1440
   83SOPE   H2X 7624   3.444   3.061   3.246 -0.5028 -1.0629  1.5106
   83SOPE   H2Y 7625   3.608   3.066   3.312 -0.2724 -1.5372  3.2932
   83SOPE   C23 7626   3.980   2.760   3.452 -0.4598  0.3644  0.5458
   83SOPE   H3R 7627   3.872   2.739   3.433 -0.6961 -0.5551  2.6762
   83SOPE   H3S 7628   3.993   2.870   3.442  1.3746  0.4071  2.6742
   83SOPE   C24 7629   4.008   2.716   3.590  0.3329  1.1354  0.0528
   83SOPE   H4R 7630   3.922   2.746   3.654 -1.2829 -1.5436 -0.7337
   83SOPE   H4S 7631   4.013   2.606   3.601  2.5914  1.1751  0.0179
   83SOPE   C25 7632   4.124   2.785   3.658 -0.2646  0.4285  0.5069
   83SOPE   H5R 7633   4.214   2.750   3.603  0.2675  0.9251  1.0450
   83SOPE   H5S 7634   4.128   2.896   3.656  0.0360  0.4137 -0.8163
   83SOPE   C26 7635   4.159   2.732   3.791 -0.4310  0.0924  0.1492
   83SOPE   H6R 7636   4.147   2.623   3.806  2.3039 -0.6655 -2.1792
   83SOPE   H6S 7637   4.266   2.751   3.813 -0.3202  4.3488 -2.7326
   83SOPE   C27 7638   4.087   2.801   3.902  0.2728 -0.7057  0.7043
   83SOPE   H7R 7639   4.105   2.911   3.904 -3.0413 -0.0166 -0.5377
   83SOPE   H7S 7640   3.980   2.787   3.875 -0.1073  1.1640  1.0657
   83SOPE   C28 7641   4.117   2.756   4.050 -0.1533  0.7019 -0.3470
   83SOPE   H8R 7642   4.218   2.712   4.058 -1.1221 -1.6377 -0.1853
   83SOPE   H8S 7643   4.120   2.848   4.112  0.4988  0.4237  0.0412
   83SOPE   C29 7644   4.014   2.647   4.092 -0.2367 -0.4747  0.1969
   83SOPE   H91 7645   3.981   2.585   4.007 -2.3625 -1.9368  1.9520
   83SOPE  C210 7646   3.968   2.627   4.219  0.0382 -0.3094  0.4999
   83SOPE  H101 7647   3.906   2.538   4.238 -0.2857 -0.4336 -0.9590
   83SOPE  C211 7648   4.014   2.707   4.349  1.1508  0.4962  0.5251
   83SOPE  H11R 7649   4.117   2.747   4.335  0.7561  1.8492  1.3135
   83SOPE  H11S 7650   4.010   2.632   4.431 -3.3454  1.7912  1.7642
   83SOPE  C212 7651   3.910   2.816   4.387  0.2086  0.0466 -0.5734
   83SOPE  H12R 7652   3.808   2.776   4.403  0.5560  0.1389  2.7238
   83SOPE  H12S 7653   3.904   2.898   4.312 -2.2803 -0.4011 -0.9575
   83SOPE  C213 7654   3.939   2.872   4.527 -0.1511 -0.3560 -0.1149
   83SOPE  H13R 7655   3.947   2.784   4.593 -2.1579  0.0347  0.7155
   83SOPE  H13S 7656   3.855   2.935   4.564  0.2639  1.1597 -1.6001
   83SOPE  C214 7657   4.062   2.962   4.541  1.0972 -0.6583 -0.0340
   83SOPE  H14R 7658   4.074   3.033   4.457  0.7367 -0.8841 -0.2794
   83SOPE  H14S 7659   4.150   2.897   4.524  1.3964 -0.4406  0.6585
   83SOPE  C215 7660   4.069   3.044   4.675  0.7601 -0.2847 -0.3185
   83SOPE  H15R 7661   3.972   3.098   4.684  1.3458  0.7518 -0.0794
   83SOPE  H15S 7662   4.145   3.124   4.669 -0.2875  0.7151 -0.5780
   83SOPE  C216 7663   4.094   2.957   4.795  0.4494  0.2161 -0.2666
   83SOPE  H16R 7664   4.188   2.904   4.769 -0.1811  0.0244 -2.2581
   83SOPE  H16S 7665   4.011   2.885   4.807  0.3239  0.5201  0.8385
   83SOPE  C217 7666   4.114   3.039   4.926  0.2778  0.1871  0.2854
   83SOPE  H17R 7667   4.015   3.079   4.959  0.3204 -1.6007  2.8141
   83SOPE  H17S 7668   4.173   3.128   4.894  2.4835 -1.8847 -1.8641
   83SOPE  C218 7669   4.190   2.963   5.028 -0.3064  0.2515  0.2965
   83SOPE  H18R 7670   4.294   2.941   4.996  0.6395  0.2119  3.1143
   83SOPE  H18S 7671   4.143   2.862   5.029  1.3335 -0.5540  0.6318
   83SOPE  H18T 7672   4.195   3.019   5.124  1.9841  2.0889 -0.8017
   83SOPE   C33 7673   3.479   2.900   3.380  0.2416  0.5078  0.6625
   83SOPE   H3X 7674   3.416   2.827   3.324  0.8907 -2.2023  3.2354
   83SOPE   H3Y 7675   3.406   2.963   3.435 -1.4151  0.9955 -1.9158
   83SOPE   C34 7676   3.585   2.833   3.464  0.2478  0.0645  0.5965
   83SOPE   H4X 7677   3.665   2.908   3.472 -0.7469  1.2569 -0.1869
   83SOPE   H4Y 7678   3.631   2.746   3.412 -0.0048  1.4584 -2.1935
   83SOPE   C35 7679   3.532   2.804   3.605 -0.2766 -0.3158 -1.2829
   83SOPE   H5X 7680   3.619   2.749   3.649  0.3230  1.9822  0.6758
   83SOPE   H5Y 7681   3.443   2.739   3.606  0.6162 -1.6888  1.9335
   83SOPE   C36 7682   3.519   2.930   3.702 -0.2309  0.7038  0.2721
   83SOPE   H6X 7683   3.434   2.995   3.675  0.1957  1.1356 -0.0560
   83SOPE   H6Y 7684   3.617   2.982   3.695  0.1719  0.3892  2.8299
   83SOPE   C37 7685   3.500   2.891   3.848  0.6566 -0.2980 -0.0366
   83SOPE   H7X 7686   3.592   2.835   3.875  0.8757 -0.6099 -1.3447
   83SOPE   H7Y 7687   3.420   2.815   3.857  1.0019 -0.7269 -0.5153
   83SOPE   C38 7688   3.488   3.018   3.930  0.4485 -0.1096 -0.1027
   83SOPE   H8X 7689   3.392   3.069   3.909  0.6644  0.7410  0.8935
   83SOPE   H8Y 7690   3.568   3.089   3.899 -1.0171  0.8945 -1.7529
   83SOPE   C39 7691   3.502   2.983   4.079  0.0838 -0.9205 -0.5293
   83SOPE   H9X 7692   3.605   2.948   4.101 -0.1010 -1.1044  0.0786
   83SOPE   H9Y 7693   3.440   2.895   4.106  0.3949 -0.6383  1.2116
   83SOPE  C310 7694   3.463   3.104   4.170 -0.1146 -0.7547  0.1861
   83SOPE  H10X 7695   3.367   3.144   4.130  1.3021  2.6051 -0.2483
   83SOPE  H10Y 7696   3.549   3.173   4.155 -2.1267  2.1336  0.9839
   83SOPE  C311 7697   3.460   3.077   4.319 -0.6038  0.2556 -0.2441
   83SOPE  H11X 7698   3.413   3.165   4.368 -1.1549  0.5028 -1.1954
   83SOPE  H11Y 7699   3.562   3.065   4.363 -1.4456  0.5007  1.8971
   83SOPE  C312 7700   3.382   2.949   4.363 -0.0078 -0.3854 -0.8312
   83SOPE  H12X 7701   3.444   2.864   4.327  1.7366  0.5724 -0.1837
   83SOPE  H12Y 7702   3.290   2.938   4.302 -1.6384 -0.9165  1.5950
   83SOPE  C313 7703   3.342   2.943   4.509 -0.1393  0.4434 -1.1139
   83SOPE  H13X 7704   3.256   2.877   4.534  1.9560 -1.5613  1.5235
   83SOPE  H13Y 7705   3.327   3.047   4.543  2.2165  1.0315 -1.6474
   83SOPE  C314 7706   3.454   2.904   4.597 -0.0814 -0.0120 -0.9549
   83SOPE  H14X 7707   3.538   2.973   4.573  0.2510  0.2285  0.7881
   83SOPE  H14Y 7708   3.491   2.802   4.575 -0.0736 -0.4506  0.9820
   83SOPE  C315 7709   3.422   2.902   4.746 -0.4974  0.0558 -0.0218
   83SOPE  H15X 7710   3.374   2.995   4.784  0.3626  1.3738 -1.9714
   83SOPE  H15Y 7711   3.519   2.891   4.798 -0.3772 -1.3516 -0.4976
   83SOPE  C316 7712   3.328   2.779   4.772 -0.1288 -0.2010 -0.4452
   83SOPE  H16X 7713   3.376   2.691   4.724  0.9725  0.4116 -0.5057
   83SOPE  H16Y 7714   3.229   2.797   4.724 -0.4308 -3.9263 -1.5570
   83SOPE  C317 7715   3.311   2.760   4.920  0.6587  1.0348  0.0725
   83SOPE  H17X 7716   3.402   2.710   4.960 -1.8212 -2.8589  1.4571
   83SOPE  H17Y 7717   3.237   2.678   4.933  1.0901  0.1624 -2.4422
   83SOPE  C318 7718   3.272   2.876   5.004  0.4816  0.1630 -0.6788
   83SOPE  H18X 7719   3.240   2.845   5.106 -1.8140 -1.1257 -1.7130
   83SOPE  H18Y 7720   3.188   2.940   4.970  0.1013  0.5187  0.8515
   83SOPE  H18Z 7721   3.357   2.947   5.008 -1.6583  2.8618 -0.4385
   84SOPE     N 7722   3.775   6.586   3.007 -0.6895  0.0401 -0.1877
   84SOPE   HN1 7723   3.811   6.681   2.984  4.6379 -1.9220 -1.3275
   84SOPE   HN2 7724   3.849   6.549   3.069  0.0782 -1.0776 -1.7124
   84SOPE   HN3 7725   3.783   6.529   2.921 -0.7046  0.0509 -0.1963
   84SOPE   C12 7726   3.640   6.580   3.072  0.1379 -0.4686  0.3639
   84SOPE  H12A 7727   3.638   6.646   3.162  2.6610 -2.7192  2.2289
   84SOPE  H12B 7728   3.633   6.479   3.118  3.1266 -0.7692  0.3205
   84SOPE   C11 7729   3.526   6.606   2.969 -0.1475 -1.1412  0.0966
   84SOPE  H11A 7730   3.544   6.702   2.916 -2.2110  0.1246  1.5348
   84SOPE  H11B 7731   3.424   6.613   3.012 -0.0073 -1.7415  0.5330
   84SOPE     P 7732   3.403   6.503   2.760  0.1119  0.4234 -0.0340
   84SOPE   O13 7733   3.447   6.418   2.647  0.1222  0.2125  0.6890
   84SOPE   O14 7734   3.342   6.636   2.732  0.0947 -0.0824  0.2270
   84SOPE   O12 7735   3.512   6.510   2.863 -0.1494  0.2831  0.3119
   84SOPE   O11 7736   3.296   6.426   2.843  0.1019 -0.3229 -0.2336
   84SOPE    C1 7737   3.318   6.282   2.873 -0.4208 -0.3632  0.2037
   84SOPE    HA 7738   3.423   6.251   2.892 -1.1843 -1.3005  3.3729
   84SOPE    HB 7739   3.285   6.223   2.785 -0.5368  1.7819 -1.2651
   84SOPE    C2 7740   3.247   6.235   3.003  0.1587 -0.6207 -0.3390
   84SOPE    HS 7741   3.139   6.239   2.980 -0.0686  0.8576  0.8193
   84SOPE   O21 7742   3.283   6.333   3.108  0.1489 -0.6010 -0.0947
   84SOPE   C21 7743   3.210   6.446   3.106  0.0960 -0.3706 -0.1536
   84SOPE   O22 7744   3.113   6.470   3.038 -0.0647 -0.1470  0.1663
   84SOPE   C22 7745   3.247   6.531   3.231 -0.2276 -0.2062  0.1419
   84SOPE   H2R 7746   3.222   6.634   3.198 -1.1799  1.0579  4.2110
   84SOPE   H2S 7747   3.353   6.537   3.264 -0.7143  2.1764  1.4885
   84SOPE    C3 7748   3.296   6.102   3.054  0.4729 -0.6809 -0.4188
   84SOPE    HX 7749   3.407   6.112   3.054  0.2526  2.9776 -1.0281
   84SOPE    HY 7750   3.260   6.027   2.981 -1.8252  0.7253 -0.8309
   84SOPE   O31 7751   3.222   6.075   3.182  0.1346 -0.2138  0.3225
   84SOPE   C31 7752   3.101   6.020   3.168  0.8562 -0.0360  0.4338
   84SOPE   O32 7753   3.036   6.000   3.067 -0.0446 -0.1855  1.2437
   84SOPE   C32 7754   3.053   5.984   3.304 -0.5533  0.1166  0.4088
   84SOPE   H2X 7755   3.132   5.911   3.332  0.5689  1.1149 -0.1048
   84SOPE   H2Y 7756   2.956   5.929   3.306 -0.4748 -0.0033  1.3249
   84SOPE   C23 7757   3.156   6.499   3.353  0.5979  0.1704  0.4860
   84SOPE   H3R 7758   3.181   6.393   3.376 -0.9788  0.0195  1.6981
   84SOPE   H3S 7759   3.053   6.501   3.311  0.5054 -0.1271  0.6922
   84SOPE   C24 7760   3.178   6.596   3.465  0.2458  0.6770  0.3501
   84SOPE   H4R 7761   3.274   6.596   3.522  0.1512  2.7751  0.6011
   84SOPE   H4S 7762   3.185   6.698   3.420  0.3743  1.1342  1.3680
   84SOPE   C25 7763   3.068   6.590   3.573 -0.0520 -0.1092 -0.3036
   84SOPE   H5R 7764   2.974   6.616   3.521  1.0916 -1.2976 -3.1237
   84SOPE   H5S 7765   3.035   6.487   3.595 -1.8463  0.7593  1.4251
   84SOPE   C26 7766   3.093   6.692   3.681 -0.0467 -0.8335 -0.1464
   84SOPE   H6R 7767   3.176   6.755   3.643  0.0165 -0.1867  0.9951
   84SOPE   H6S 7768   3.015   6.772   3.685  1.8023  1.0788 -0.2270
   84SOPE   C27 7769   3.138   6.634   3.813 -0.3417 -0.4051 -0.2658
   84SOPE   H7R 7770   3.052   6.582   3.860  1.6193 -1.3399  2.5658
   84SOPE   H7S 7771   3.218   6.563   3.781 -0.6491  0.1968 -2.4637
   84SOPE   C28 7772   3.194   6.735   3.916  0.4555  0.4336 -0.1747
   84SOPE   H8R 7773   3.220   6.675   4.006 -0.4209 -1.1315 -0.9328
   84SOPE   H8S 7774   3.287   6.774   3.869  0.6577  0.2673  0.0855
   84SOPE   C29 7775   3.098   6.851   3.947  0.1915  0.2520  0.1046
   84SOPE   H91 7776   3.119   6.929   3.873 -3.3664  1.6241  0.3446
   84SOPE  C210 7777   3.014   6.879   4.044  0.5085  0.1581 -0.2238
   84SOPE  H101 7778   2.963   6.976   4.052 -0.7342 -0.5484  0.7236
   84SOPE  C211 7779   2.987   6.776   4.150  0.0643 -0.2261 -0.1608
   84SOPE  H11R 7780   3.012   6.675   4.114  0.1408 -0.7110  1.1800
   84SOPE  H11S 7781   2.877   6.767   4.165  0.0359  2.2255  1.7045
   84SOPE  C212 7782   3.050   6.813   4.283 -0.3747  0.2734  0.4450
   84SOPE  H12R 7783   3.160   6.827   4.280 -0.2938 -0.4390 -1.9230
   84SOPE  H12S 7784   3.048   6.730   4.356  1.6096  0.7669  1.1184
   84SOPE  C213 7785   2.981   6.933   4.349  0.3198 -0.3508 -0.5036
   84SOPE  H13R 7786   2.877   6.930   4.310 -0.2371 -0.3909  0.9075
   84SOPE  H13S 7787   3.026   7.022   4.301 -0.4534 -0.1525 -0.8802
   84SOPE  C214 7788   2.977   6.935   4.499 -0.1828  0.6134  0.0795
   84SOPE  H14R 7789   2.929   6.845   4.543  2.4999 -0.9632  0.0142
   84SOPE  H14S 7790   2.910   7.018   4.532 -0.4760 -0.2832  1.8978
   84SOPE  C215 7791   3.108   6.978   4.563  0.5908 -0.1191  0.4388
   84SOPE  H15R 7792   3.132   7.081   4.528  1.5219 -0.4033  0.1979
   84SOPE  H15S 7793   3.177   6.910   4.509  0.7072  1.2615 -1.2539
   84SOPE  C216 7794   3.120   6.953   4.717 -0.8574  0.0742 -0.8136
   84SOPE  H16R 7795   3.102   6.848   4.749  2.3678 -0.1686  0.5722
   84SOPE  H16S 7796   3.056   7.029   4.767 -0.2923  1.3227 -1.9135
   84SOPE  C217 7797   3.264   6.977   4.753 -0.1726  0.5423 -0.9941
   84SOPE  H17R 7798   3.293   7.082   4.733  1.6227  0.5424  1.2024
   84SOPE  H17S 7799   3.338   6.915   4.696 -0.1060 -0.1612 -0.1689
   84SOPE  C218 7800   3.291   6.971   4.904  0.3088 -0.6928  0.4279
   84SOPE  H18R 7801   3.243   7.058   4.953 -0.7044 -1.7324  1.3284
   84SOPE  H18S 7802   3.401   6.976   4.922  1.0730  0.3986 -3.5752
   84SOPE  H18T 7803   3.254   6.879   4.955 -0.6576  0.4072  1.7690
   84SOPE   C33 7804   3.060   6.089   3.416  0.2400 -0.0053 -0.2880
   84SOPE   H3X 7805   2.980   6.167   3.414  1.1780  1.0328  1.0217
   84SOPE   H3Y 7806   3.157   6.142   3.408  0.6440 -0.8149 -0.8614
   84SOPE   C34 7807   3.040   6.021   3.551  0.1109 -0.3833 -0.1182
   84SOPE   H4X 7808   3.112   5.937   3.561 -2.0947 -2.6257 -1.6702
   84SOPE   H4Y 7809   2.945   5.963   3.554  1.1551 -2.1472  2.6458
   84SOPE   C35 7810   3.046   6.124   3.657 -0.3901 -0.0068 -0.3097
   84SOPE   H5X 7811   2.951   6.181   3.662 -1.3888 -1.3419 -2.5478
   84SOPE   H5Y 7812   3.130   6.194   3.633 -0.9122 -0.0818 -2.5144
   84SOPE   C36 7813   3.079   6.069   3.797  0.0747 -0.3364  0.6162
   84SOPE   H6X 7814   3.181   6.028   3.788 -0.2789 -0.8291 -1.7976
   84SOPE   H6Y 7815   3.020   5.977   3.817  3.0292 -2.1834  1.5034
   84SOPE   C37 7816   3.066   6.173   3.909  0.0466 -0.8413 -1.3371
   84SOPE   H7X 7817   2.961   6.209   3.910  0.0174 -0.8920 -0.1314
   84SOPE   H7Y 7818   3.134   6.258   3.889 -2.0062  0.9299 -1.2433
   84SOPE   C38 7819   3.085   6.119   4.053 -0.0212 -0.5851 -0.0715
   84SOPE   H8X 7820   3.192   6.089   4.063  0.2223  0.1684 -0.3482
   84SOPE   H8Y 7821   3.024   6.030   4.076  0.5900 -0.6190  1.6224
   84SOPE   C39 7822   3.051   6.219   4.167  0.5129 -0.0021  0.1502
   84SOPE   H9X 7823   2.941   6.228   4.174  0.4928  0.9477 -1.1191
   84SOPE   H9Y 7824   3.093   6.316   4.132  2.0732 -0.3049  1.0701
   84SOPE  C310 7825   3.112   6.173   4.303  0.4005 -0.6581  0.8235
   84SOPE  H10X 7826   3.223   6.170   4.301  0.3969 -0.5803 -0.5220
   84SOPE  H10Y 7827   3.071   6.070   4.315  1.9012 -1.2255  1.3259
   84SOPE  C311 7828   3.058   6.244   4.426  0.5254  0.2180 -0.9215
   84SOPE  H11X 7829   3.117   6.214   4.515  2.0644  0.7474 -1.7161
   84SOPE  H11Y 7830   2.948   6.227   4.426  0.2957  1.5282 -0.1042
   84SOPE  C312 7831   3.085   6.398   4.422 -0.3985  0.8807  0.0130
   84SOPE  H12X 7832   3.032   6.435   4.331 -0.7990 -3.3665 -1.7088
   84SOPE  H12Y 7833   3.193   6.413   4.402 -0.2259 -0.6846 -0.3710
   84SOPE  C313 7834   3.055   6.478   4.549 -0.7285  0.1919 -0.1639
   84SOPE  H13X 7835   3.134   6.553   4.566 -1.2060  0.4818  0.9066
   84SOPE  H13Y 7836   3.061   6.407   4.635 -3.7810 -1.9993 -1.5526
   84SOPE  C314 7837   2.916   6.543   4.552  0.0834  0.7212 -0.3808
   84SOPE  H14X 7838   2.839   6.498   4.485 -0.8499  0.7187  0.6650
   84SOPE  H14Y 7839   2.922   6.648   4.517 -0.8923  1.3602  1.2922
   84SOPE  C315 7840   2.880   6.556   4.705  0.5747  0.4366 -0.2396
   84SOPE  H15X 7841   2.955   6.626   4.745 -0.3331  0.3325  1.7519
   84SOPE  H15Y 7842   2.861   6.454   4.746 -1.1841  0.4646 -0.8962
   84SOPE  C316 7843   2.755   6.645   4.716 -0.0292  0.5134 -0.5563
   84SOPE  H16X 7844   2.675   6.588   4.665  0.1343 -1.2818  1.0528
   84SOPE  H16Y 7845   2.767   6.737   4.655 -0.6694  0.6009 -0.5519
   84SOPE  C317 7846   2.737   6.703   4.858  0.4143 -0.0182 -0.2027
   84SOPE  H17X 7847   2.831   6.734   4.909 -0.4481 -0.1150  1.5153
   84SOPE  H17Y 7848   2.684   6.627   4.920 -3.1639  2.4511  0.1102
   84SOPE  C318 7849   2.652   6.831   4.854 -0.3459 -0.0195  0.1046
   84SOPE  H18X 7850   2.553   6.794   4.821 -0.0631 -0.2149 -0.5346
   84SOPE  H18Y 7851   2.694   6.895   4.773  0.6371 -1.3172 -0.4525
   84SOPE  H18Z 7852   2.649   6.885   4.952  2.8943  0.6111 -0.0066
   85SOPE     N 7853   6.400   4.336   2.246  0.2859 -0.0111 -0.1066
   85SOPE   HN1 7854   6.464   4.348   2.165 -0.7404  1.6276 -0.7074
   85SOPE   HN2 7855   6.365   4.430   2.274 -1.5100 -0.8163  0.4653
   85SOPE   HN3 7856   6.445   4.295   2.331  0.4545  0.9409  0.2760
   85SOPE   C12 7857   6.285   4.248   2.194 -0.4181 -0.1751 -0.0242
   85SOPE  H12A 7858   6.333   4.156   2.156  1.7761  1.3605 -1.2021
   85SOPE  H12B 7859   6.238   4.296   2.105 -0.3445  2.4714  1.2489
   85SOPE   C11 7860   6.188   4.227   2.312  0.0117  0.2002  0.0624
   85SOPE  H11A 7861   6.171   4.326   2.359  1.7431  1.2317 -1.3331
   85SOPE  H11B 7862   6.225   4.149   2.382 -2.0309 -3.2723 -2.3990
   85SOPE     P 7863   6.002   4.051   2.232 -0.3244 -0.1601  0.0814
   85SOPE   O13 7864   6.107   3.944   2.240  0.0771  0.3028  0.5909
   85SOPE   O14 7865   5.950   4.080   2.093 -0.0237  0.8746 -0.3636
   85SOPE   O12 7866   6.053   4.192   2.280 -0.2813  0.6037  0.1642
   85SOPE   O11 7867   5.881   4.016   2.326 -0.6650 -0.2808  0.0399
   85SOPE    C1 7868   5.803   4.128   2.386 -0.3659  0.8722  0.5024
   85SOPE    HA 7869   5.695   4.105   2.386 -0.6465  1.9781 -1.6293
   85SOPE    HB 7870   5.804   4.218   2.322  0.8518  0.6131  0.1133
   85SOPE    C2 7871   5.851   4.159   2.526  0.1344 -0.1703  0.7848
   85SOPE    HS 7872   5.951   4.207   2.513  0.7384 -1.8544 -1.3122
   85SOPE   O21 7873   5.868   4.029   2.585  0.3139 -0.1787  0.2786
   85SOPE   C21 7874   5.958   4.025   2.676 -0.6561 -0.0816 -0.3025
   85SOPE   O22 7875   6.026   4.122   2.714 -0.1751 -0.1563  0.0474
   85SOPE   C22 7876   5.974   3.881   2.730  0.3885  0.6262  0.6687
   85SOPE   H2R 7877   6.024   3.814   2.657 -3.0836  0.1176 -1.5104
   85SOPE   H2S 7878   5.874   3.838   2.751 -0.2696  1.0267 -1.3860
   85SOPE    C3 7879   5.746   4.241   2.613  0.7168  0.4917  0.9325
   85SOPE    HX 7880   5.657   4.175   2.617  1.0149  0.0389  0.2146
   85SOPE    HY 7881   5.693   4.316   2.551 -1.2733 -0.4007  1.4896
   85SOPE   O31 7882   5.797   4.292   2.738 -0.0111  0.1091  0.5253
   85SOPE   C31 7883   5.773   4.223   2.851  0.3026  0.6202  0.4698
   85SOPE   O32 7884   5.711   4.120   2.853 -0.2729  0.6297  0.4237
   85SOPE   C32 7885   5.841   4.291   2.969 -0.2307 -0.0513 -0.1069
   85SOPE   H2X 7886   5.858   4.392   2.926 -3.0947  0.0920 -1.0853
   85SOPE   H2Y 7887   5.934   4.233   2.989  0.0196  0.2449 -0.4008
   85SOPE   C23 7888   6.065   3.869   2.851  0.3651  0.1551 -0.6248
   85SOPE   H3R 7889   6.162   3.921   2.834 -0.0137  0.8701 -0.6377
   85SOPE   H3S 7890   6.092   3.761   2.856 -3.0131 -0.7615  0.7657
   85SOPE   C24 7891   6.005   3.919   2.989  0.0885  0.6274  0.3050
   85SOPE   H4R 7892   6.056   4.015   3.013 -0.1208  0.8331 -0.0745
   85SOPE   H4S 7893   5.895   3.922   2.983  0.0414  0.1766  0.8720
   85SOPE   C25 7894   6.041   3.816   3.102  0.4586  0.2708 -0.2149
   85SOPE   H5R 7895   6.000   3.724   3.055  0.4927  0.1288  0.0338
   85SOPE   H5S 7896   6.151   3.806   3.105  0.7013  2.5953  1.5498
   85SOPE   C26 7897   5.975   3.830   3.241 -0.6713  0.7762 -0.7489
   85SOPE   H6R 7898   6.003   3.923   3.295 -0.5164 -0.0093  0.5736
   85SOPE   H6S 7899   5.865   3.827   3.223 -1.0062  0.2402  1.1411
   85SOPE   C27 7900   6.006   3.715   3.335 -0.3909  0.2833 -0.4434
   85SOPE   H7R 7901   5.958   3.623   3.297  0.0390 -1.4830  2.9769
   85SOPE   H7S 7902   6.115   3.700   3.348 -0.9125 -1.1264  3.1975
   85SOPE   C28 7903   5.971   3.738   3.484 -0.1982 -0.3396 -0.0926
   85SOPE   H8R 7904   6.016   3.655   3.542  1.7306  0.9736  0.3761
   85SOPE   H8S 7905   6.026   3.830   3.512  1.6666 -0.6834 -2.3033
   85SOPE   C29 7906   5.822   3.742   3.499 -0.3398 -0.4896  0.4777
   85SOPE   H91 7907   5.767   3.699   3.414 -3.6227  1.8715  1.2082
   85SOPE  C210 7908   5.774   3.797   3.609  0.7128  0.2487  0.1248
   85SOPE  H101 7909   5.665   3.793   3.628  0.5604 -3.0633 -0.8489
   85SOPE  C211 7910   5.845   3.865   3.724 -0.3104  0.6812  0.4337
   85SOPE  H11R 7911   5.821   3.973   3.712  1.3711  0.8858 -1.6447
   85SOPE  H11S 7912   5.951   3.833   3.715 -0.2866  0.5456  1.1475
   85SOPE  C212 7913   5.792   3.810   3.856  0.7963  0.3922 -0.3546
   85SOPE  H12R 7914   5.815   3.702   3.853 -0.3313  0.0006  2.4555
   85SOPE  H12S 7915   5.683   3.821   3.872  1.1593  1.4091  1.8580
   85SOPE  C213 7916   5.869   3.870   3.978 -0.4258  0.4972 -0.2786
   85SOPE  H13R 7917   5.867   3.981   3.971 -0.0168  0.5705  0.6801
   85SOPE  H13S 7918   5.975   3.838   3.975 -0.3657  0.5679  0.7316
   85SOPE  C214 7919   5.805   3.824   4.107 -0.0621  0.0618  0.1764
   85SOPE  H14R 7920   5.806   3.715   4.123 -0.9279  0.0707  0.3279
   85SOPE  H14S 7921   5.699   3.857   4.095  0.3802  0.5783 -4.1791
   85SOPE  C215 7922   5.870   3.875   4.234 -0.2720  0.4029  0.1961
   85SOPE  H15R 7923   5.870   3.986   4.229 -2.0560  0.3728 -2.3768
   85SOPE  H15S 7924   5.973   3.850   4.267 -0.7490 -1.6243  0.2985
   85SOPE  C216 7925   5.774   3.825   4.351 -0.6449  0.7482 -0.3457
   85SOPE  H16R 7926   5.781   3.715   4.338 -1.0060  0.5301  1.1063
   85SOPE  H16S 7927   5.667   3.850   4.335 -0.7879  0.2709 -0.1719
   85SOPE  C217 7928   5.809   3.883   4.488 -0.4945 -0.0687  0.5729
   85SOPE  H17R 7929   5.782   3.990   4.479  0.3935  0.0372 -1.4046
   85SOPE  H17S 7930   5.920   3.876   4.499 -0.5448 -0.2672  0.9636
   85SOPE  C218 7931   5.735   3.822   4.598 -0.0395  0.4464 -0.5800
   85SOPE  H18R 7932   5.752   3.880   4.691  0.0093  0.7681 -0.7897
   85SOPE  H18S 7933   5.756   3.718   4.631 -4.6155 -0.9185 -1.2231
   85SOPE  H18T 7934   5.624   3.825   4.589 -0.2067  1.2102  1.3666
   85SOPE   C33 7935   5.736   4.292   3.080  0.3112 -0.5119  0.1440
   85SOPE   H3X 7936   5.681   4.196   3.090 -3.0656  1.4981  2.8939
   85SOPE   H3Y 7937   5.652   4.360   3.057  0.2115 -0.7249 -0.1250
   85SOPE   C34 7938   5.794   4.321   3.222 -0.5279 -0.6443  0.6415
   85SOPE   H4X 7939   5.715   4.365   3.286  0.7416  0.2029  1.6911
   85SOPE   H4Y 7940   5.872   4.400   3.217  0.1251 -1.2487  1.1793
   85SOPE   C35 7941   5.860   4.200   3.287 -0.1494 -0.3313  0.0000
   85SOPE   H5X 7942   5.936   4.163   3.215 -0.2474  1.0557 -0.8690
   85SOPE   H5Y 7943   5.779   4.125   3.296  0.5598 -1.1572 -0.3371
   85SOPE   C36 7944   5.928   4.229   3.417  0.2602 -0.4372  0.0785
   85SOPE   H6X 7945   5.991   4.319   3.400  0.0537 -0.2440  0.3110
   85SOPE   H6Y 7946   5.997   4.145   3.441 -0.8371 -1.5297 -0.5008
   85SOPE   C37 7947   5.823   4.244   3.531  0.2457  0.0765  0.5224
   85SOPE   H7X 7948   5.794   4.140   3.557  2.3687 -0.1855  2.1572
   85SOPE   H7Y 7949   5.726   4.287   3.499 -0.1839 -2.3762 -1.9147
   85SOPE   C38 7950   5.879   4.312   3.654 -0.1329  0.0786 -0.2137
   85SOPE   H8X 7951   5.888   4.419   3.627  1.3683  0.2850  1.0094
   85SOPE   H8Y 7952   5.985   4.279   3.658  0.5887  1.9912 -1.7346
   85SOPE   C39 7953   5.811   4.290   3.784  0.3624 -0.3977 -0.8605
   85SOPE   H9X 7954   5.794   4.184   3.811  1.8139 -0.1425  1.2890
   85SOPE   H9Y 7955   5.707   4.328   3.785  0.2970 -0.1721  3.9730
   85SOPE  C310 7956   5.891   4.352   3.901  0.1430 -0.4714  0.2204
   85SOPE  H10X 7957   5.861   4.458   3.911 -0.9791 -0.8695  1.4230
   85SOPE  H10Y 7958   6.000   4.337   3.888  0.2425  0.2621  0.2151
   85SOPE  C311 7959   5.870   4.290   4.044 -0.4413 -0.6990  0.6244
   85SOPE  H11X 7960   5.876   4.180   4.029  4.0543 -0.6407  0.5941
   85SOPE  H11Y 7961   5.774   4.313   4.095 -1.3924 -0.5629 -1.1190
   85SOPE  C312 7962   5.984   4.337   4.139 -0.4067 -0.4213  0.4802
   85SOPE  H12X 7963   5.983   4.448   4.132  1.7079 -0.1751  2.6853
   85SOPE  H12Y 7964   6.077   4.285   4.107 -2.5359 -3.0077 -1.9753
   85SOPE  C313 7965   5.976   4.302   4.287  0.2261 -0.6507 -0.7188
   85SOPE  H13X 7966   6.060   4.335   4.352 -0.9155  0.6018  0.1663
   85SOPE  H13Y 7967   5.995   4.192   4.289  0.7566 -0.5958  2.4219
   85SOPE  C314 7968   5.849   4.350   4.357 -0.4069  0.3223  0.3469
   85SOPE  H14X 7969   5.755   4.307   4.317 -0.9750  0.1459  1.8075
   85SOPE  H14Y 7970   5.845   4.461   4.363  0.7080  0.4309 -0.5029
   85SOPE  C315 7971   5.855   4.310   4.509  0.1736 -0.0596  0.6324
   85SOPE  H15X 7972   5.958   4.323   4.549  0.6102 -0.1903 -0.4159
   85SOPE  H15Y 7973   5.835   4.201   4.511  1.2527 -0.2621  1.2852
   85SOPE  C316 7974   5.762   4.398   4.586 -0.0821 -0.4124  0.2688
   85SOPE  H16X 7975   5.665   4.382   4.535 -0.8750 -3.7885  2.5168
   85SOPE  H16Y 7976   5.786   4.505   4.566 -0.3954 -0.5152 -0.7044
   85SOPE  C317 7977   5.755   4.371   4.738  0.2207 -0.0682 -0.6530
   85SOPE  H17X 7978   5.856   4.355   4.781 -0.5431 -0.3052  1.1390
   85SOPE  H17Y 7979   5.702   4.274   4.751  0.2530 -0.0639 -0.4940
   85SOPE  C318 7980   5.676   4.485   4.808 -0.0139 -0.1200  0.1269
   85SOPE  H18X 7981   5.717   4.587   4.788 -0.9631  0.1641 -0.4097
   85SOPE  H18Y 7982   5.664   4.458   4.915  1.9295  2.3589  1.0669
   85SOPE  H18Z 7983   5.572   4.495   4.770 -0.2184  1.5661  1.0388
   86SOPE     N 7984   1.223   2.736   2.803 -0.1758  0.4853  0.1834
   86SOPE   HN1 7985   1.142   2.771   2.748  0.3047 -0.6060 -1.2959
   86SOPE   HN2 7986   1.199   2.763   2.900 -0.4328 -0.5751  0.4253
   86SOPE   HN3 7987   1.303   2.790   2.765 -0.6870  1.6064  0.6411
   86SOPE   C12 7988   1.225   2.587   2.795 -0.8702  0.2422 -0.2187
   86SOPE  H12A 7989   1.290   2.541   2.872 -1.2324  0.8993  0.4950
   86SOPE  H12B 7990   1.266   2.553   2.697  0.2642  0.5732  0.1190
   86SOPE   C11 7991   1.089   2.541   2.815 -0.6128  0.7486  0.2597
   86SOPE  H11A 7992   1.073   2.570   2.921  1.4173  4.0482 -0.1678
   86SOPE  H11B 7993   1.088   2.430   2.819  1.3442  0.7333  3.1950
   86SOPE     P 7994   0.965   2.570   2.575 -0.2606 -0.2756 -0.5409
   86SOPE   O13 7995   1.093   2.547   2.512 -0.8795 -0.3535  0.0840
   86SOPE   O14 7996   0.861   2.667   2.526  0.5648  0.8287 -0.1957
   86SOPE   O12 7997   0.995   2.607   2.726 -0.7017  0.5272 -0.0201
   86SOPE   O11 7998   0.892   2.429   2.592  0.5828 -0.7424  0.1705
   86SOPE    C1 7999   0.761   2.422   2.664 -0.8528  0.4447 -0.0354
   86SOPE    HA 8000   0.696   2.349   2.613 -0.5582  0.6044 -0.6586
   86SOPE    HB 8001   0.706   2.518   2.675 -1.8345 -0.0467 -0.6269
   86SOPE    C2 8002   0.767   2.370   2.815 -0.0860  0.1362  0.1029
   86SOPE    HS 8003   0.826   2.443   2.874 -1.8136  0.3630  1.6299
   86SOPE   O21 8004   0.830   2.241   2.831  0.2471 -0.6082  0.1947
   86SOPE   C21 8005   0.878   2.212   2.956 -0.0830  0.1405  0.3646
   86SOPE   O22 8006   0.901   2.301   3.038 -0.1750  0.1656  0.1132
   86SOPE   C22 8007   0.906   2.065   2.960  0.1717  0.4490 -0.1385
   86SOPE   H2R 8008   0.969   2.031   2.875  1.3163  0.8745  0.5134
   86SOPE   H2S 8009   0.813   2.004   2.964  0.8719 -0.6630 -0.2460
   86SOPE    C3 8010   0.629   2.366   2.887 -0.3033  0.1957  1.0818
   86SOPE    HX 8011   0.558   2.292   2.845  0.5961 -0.3991  0.5678
   86SOPE    HY 8012   0.577   2.462   2.865  1.5972  1.1552  0.5393
   86SOPE   O31 8013   0.634   2.344   3.026 -0.0193  0.3691  0.3779
   86SOPE   C31 8014   0.627   2.441   3.112  0.3781 -0.2136 -0.7806
   86SOPE   O32 8015   0.613   2.561   3.092 -0.1949  0.1872 -0.1973
   86SOPE   C32 8016   0.628   2.378   3.252  0.1410  0.3385 -0.7144
   86SOPE   H2X 8017   0.705   2.297   3.248 -0.3302 -0.0438 -3.4225
   86SOPE   H2Y 8018   0.526   2.340   3.274  0.2284  0.4984  0.0103
   86SOPE   C23 8019   0.983   2.028   3.089  0.5090  0.7071 -0.4338
   86SOPE   H3R 8020   0.924   2.065   3.176 -0.5120 -2.4010  0.3444
   86SOPE   H3S 8021   1.086   2.069   3.088  1.2731 -1.1077 -1.3835
   86SOPE   C24 8022   0.997   1.873   3.107  0.5127  0.9469  0.4809
   86SOPE   H4R 8023   0.895   1.830   3.100  1.0521 -0.1679 -1.4200
   86SOPE   H4S 8024   1.055   1.827   3.025  1.3488 -1.1334  2.1698
   86SOPE   C25 8025   1.066   1.836   3.238  0.0801  0.4047 -0.5343
   86SOPE   H5R 8026   1.042   1.731   3.266  1.2458  0.2001 -0.2620
   86SOPE   H5S 8027   1.175   1.843   3.218 -0.1761  1.0695 -1.8366
   86SOPE   C26 8028   1.030   1.938   3.343  0.7120  0.5949 -0.7531
   86SOPE   H6R 8029   1.076   2.035   3.314  0.6195  0.7546 -0.3682
   86SOPE   H6S 8030   0.922   1.960   3.351  1.0172  1.6714  0.8837
   86SOPE   C27 8031   1.072   1.906   3.487 -0.5982 -0.0791  0.0928
   86SOPE   H7R 8032   1.025   1.809   3.518  0.3875 -0.2418  1.1446
   86SOPE   H7S 8033   1.180   1.880   3.490 -0.8449 -1.0982  1.1871
   86SOPE   C28 8034   1.035   2.019   3.587 -0.0891 -0.5337 -0.2178
   86SOPE   H8R 8035   1.100   2.002   3.675 -2.0251  0.6903  1.5297
   86SOPE   H8S 8036   1.063   2.121   3.552 -1.2462 -0.0813  0.1366
   86SOPE   C29 8037   0.887   2.024   3.628  0.2124 -0.1418 -0.2891
   86SOPE   H91 8038   0.809   2.051   3.556 -1.7189 -1.6053  1.1485
   86SOPE  C210 8039   0.840   1.978   3.744 -0.2968  0.2415 -0.2395
   86SOPE  H101 8040   0.733   1.979   3.768 -0.2169 -2.6892  0.6472
   86SOPE  C211 8041   0.921   1.930   3.864 -0.2847  0.2456 -0.2295
   86SOPE  H11R 8042   1.027   1.900   3.843 -1.3957 -3.4163 -1.4955
   86SOPE  H11S 8043   0.869   1.841   3.907 -0.7429  1.5680  2.0899
   86SOPE  C212 8044   0.932   2.024   3.994  0.4818  0.3183 -0.4314
   86SOPE  H12R 8045   0.839   2.078   4.022 -0.6867 -0.9011 -1.8046
   86SOPE  H12S 8046   0.995   2.107   3.955  2.3419 -0.8596 -0.0514
   86SOPE  C213 8047   0.997   1.965   4.114  0.4952 -0.9696  0.4256
   86SOPE  H13R 8048   1.079   1.900   4.078  2.3737  0.5660  1.6965
   86SOPE  H13S 8049   0.921   1.910   4.174 -0.0344  1.4546  2.1468
   86SOPE  C214 8050   1.032   2.065   4.224 -0.5359 -0.2938  0.1710
   86SOPE  H14R 8051   0.938   2.107   4.264  0.0426  0.7766  0.4576
   86SOPE  H14S 8052   1.092   2.146   4.177  1.6281 -0.3568  2.5787
   86SOPE  C215 8053   1.110   2.000   4.343 -0.2170 -0.1314 -0.0481
   86SOPE  H15R 8054   1.208   1.960   4.312  0.3087 -0.2702  1.6681
   86SOPE  H15S 8055   1.048   1.913   4.375 -0.4801 -0.0875 -0.4410
   86SOPE  C216 8056   1.126   2.102   4.454  0.0186 -0.0439 -0.3551
   86SOPE  H16R 8057   1.038   2.169   4.463  0.7221  0.6325  2.1900
   86SOPE  H16S 8058   1.219   2.158   4.431 -0.5942  1.4628  0.6777
   86SOPE  C217 8059   1.170   2.032   4.593  0.3160  0.3503  1.0530
   86SOPE  H17R 8060   1.086   1.980   4.644  1.3472 -1.6061  0.8280
   86SOPE  H17S 8061   1.206   2.113   4.660  2.1035  1.1887 -0.8320
   86SOPE  C218 8062   1.290   1.934   4.582 -0.2248  0.5876  0.1529
   86SOPE  H18R 8063   1.322   1.898   4.682 -1.3181 -0.0448  0.2858
   86SOPE  H18S 8064   1.379   1.979   4.532 -0.7407  0.7083 -0.6639
   86SOPE  H18T 8065   1.274   1.846   4.516  0.2408  1.3235 -0.9641
   86SOPE   C33 8066   0.655   2.476   3.370 -0.6170  0.1367 -0.3115
   86SOPE   H3X 8067   0.580   2.556   3.353 -0.9823 -0.4966 -1.8849
   86SOPE   H3Y 8068   0.756   2.521   3.381 -0.9041  0.3942  1.5738
   86SOPE   C34 8069   0.610   2.413   3.508 -0.5743  0.0092  0.9347
   86SOPE   H4X 8070   0.688   2.342   3.544 -1.6922 -0.8282  1.7425
   86SOPE   H4Y 8071   0.515   2.357   3.509  0.5911 -2.0784  1.8152
   86SOPE   C35 8072   0.592   2.519   3.615  0.1725 -0.1925  0.0935
   86SOPE   H5X 8073   0.510   2.580   3.573  0.7291  1.2624  1.0457
   86SOPE   H5Y 8074   0.668   2.599   3.632 -1.0884  0.7075  1.7247
   86SOPE   C36 8075   0.561   2.450   3.754  0.4102 -1.1705  0.0930
   86SOPE   H6X 8076   0.649   2.387   3.779  0.8407 -0.1165  1.3349
   86SOPE   H6Y 8077   0.468   2.391   3.762 -0.6507  0.3730 -0.4837
   86SOPE   C37 8078   0.556   2.554   3.866 -0.7749 -0.4345 -0.4291
   86SOPE   H7X 8079   0.469   2.618   3.840 -1.4165 -1.2135 -0.2293
   86SOPE   H7Y 8080   0.645   2.620   3.863  0.9781 -2.7225 -1.9208
   86SOPE   C38 8081   0.533   2.491   4.003 -0.8940  0.7531  0.7211
   86SOPE   H8X 8082   0.620   2.434   4.043 -1.5170 -2.1163 -1.6549
   86SOPE   H8Y 8083   0.449   2.420   3.984  0.6577 -1.3466  1.2904
   86SOPE   C39 8084   0.485   2.593   4.099 -0.4658 -0.2192 -0.2223
   86SOPE   H9X 8085   0.520   2.693   4.065 -1.5875  0.0887 -0.5465
   86SOPE   H9Y 8086   0.522   2.566   4.200 -1.8048 -2.9017 -0.3505
   86SOPE  C310 8087   0.331   2.591   4.107 -0.5191 -0.0512 -0.4688
   86SOPE  H10X 8088   0.298   2.500   4.161 -1.3910  0.9035  0.6542
   86SOPE  H10Y 8089   0.293   2.595   4.003 -0.7743 -0.1857 -0.3798
   86SOPE  C311 8090   0.275   2.703   4.191 -0.2591 -0.2580 -0.1831
   86SOPE  H11X 8091   0.316   2.794   4.143  0.4293 -1.4809 -2.0352
   86SOPE  H11Y 8092   0.296   2.694   4.300  1.9638  3.0784 -0.2037
   86SOPE  C312 8093   0.130   2.716   4.183 -0.3396 -0.1232 -0.7589
   86SOPE  H12X 8094   0.092   2.617   4.216  0.4715  0.3020  1.7125
   86SOPE  H12Y 8095   0.099   2.733   4.078  1.7295 -1.4929 -1.6587
   86SOPE  C313 8096   0.063   2.820   4.269 -0.3496 -0.4360  0.2158
   86SOPE  H13X 8097   0.086   2.803   4.377  1.6962  2.0818  0.3076
   86SOPE  H13Y 8098  -0.047   2.823   4.261 -0.5274  3.2248  1.9706
   86SOPE  C314 8099   0.112   2.967   4.241  0.3055  0.1288 -0.0624
   86SOPE  H14X 8100   0.210   2.983   4.291 -0.6558  1.1599  1.5752
   86SOPE  H14Y 8101   0.040   3.037   4.288 -0.6478 -2.5697  2.8635
   86SOPE  C315 8102   0.127   3.011   4.091 -0.6582 -0.8617 -0.4313
   86SOPE  H15X 8103   0.035   2.978   4.037 -0.8231 -1.5553  0.2570
   86SOPE  H15Y 8104   0.214   2.961   4.043 -1.6037 -0.5042 -2.6263
   86SOPE  C316 8105   0.128   3.165   4.086  0.0328 -0.5518 -0.0365
   86SOPE  H16X 8106   0.187   3.195   4.175 -3.5049 -0.9439  2.6605
   86SOPE  H16Y 8107   0.025   3.202   4.104 -1.0468 -3.7307  0.9422
   86SOPE  C317 8108   0.175   3.215   3.951 -0.5551 -0.0205 -0.4658
   86SOPE  H17X 8109   0.278   3.179   3.931 -0.8849 -1.4385  0.2779
   86SOPE  H17Y 8110   0.192   3.325   3.957 -0.0782 -0.1562  2.2346
   86SOPE  C318 8111   0.088   3.179   3.834  0.3741  0.1108 -0.9484
   86SOPE  H18X 8112   0.098   3.071   3.811 -0.1293 -0.3108  0.6504
   86SOPE  H18Y 8113   0.126   3.235   3.746 -0.1848 -0.1287 -1.3392
   86SOPE  H18Z 8114  -0.017   3.212   3.847  0.2259 -0.6673 -0.0074
   87SOPE     N 8115   1.669   3.664   2.084  0.8773  0.5457  0.2614
   87SOPE   HN1 8116   1.567   3.648   2.086  1.1787 -1.7863  0.6667
   87SOPE   HN2 8117   1.704   3.568   2.065  2.0593  0.6948  1.4759
   87SOPE   HN3 8118   1.686   3.686   2.185  1.9410  1.6624 -0.1369
   87SOPE   C12 8119   1.725   3.771   2.006  0.1292 -0.5976  0.0368
   87SOPE  H12A 8120   1.659   3.799   1.922 -2.2291 -1.6661  1.4395
   87SOPE  H12B 8121   1.828   3.749   1.970  1.2131  3.1215  0.5042
   87SOPE   C11 8122   1.746   3.886   2.107  0.1044  0.4185  0.0241
   87SOPE  H11A 8123   1.654   3.912   2.164 -0.2003  2.1717 -1.1642
   87SOPE  H11B 8124   1.756   3.968   2.033 -0.5068 -0.3351 -0.9138
   87SOPE     P 8125   1.855   3.824   2.338  0.6524 -0.0026  0.0947
   87SOPE   O13 8126   1.984   3.771   2.371 -0.6178  0.2241  0.2720
   87SOPE   O14 8127   1.738   3.726   2.341 -0.5360  0.1666  0.2084
   87SOPE   O12 8128   1.861   3.875   2.189 -0.6866  0.6479 -0.7876
   87SOPE   O11 8129   1.820   3.950   2.433 -0.1260  0.0440  0.0724
   87SOPE    C1 8130   1.915   3.977   2.533  0.4900 -0.5984  0.2948
   87SOPE    HA 8131   1.912   4.085   2.558  0.8383 -0.2293 -1.1647
   87SOPE    HB 8132   2.023   3.973   2.507  0.5484  2.1586 -0.2219
   87SOPE    C2 8133   1.892   3.903   2.668 -0.0538  0.5853 -0.4844
   87SOPE    HS 8134   1.953   3.810   2.665 -0.8445  0.0834 -1.3116
   87SOPE   O21 8135   1.751   3.878   2.687  0.3742 -0.2572 -0.2745
   87SOPE   C21 8136   1.714   3.761   2.749  0.2436 -0.3516  0.0615
   87SOPE   O22 8137   1.803   3.678   2.784  0.0972 -0.5919 -0.0055
   87SOPE   C22 8138   1.565   3.746   2.759 -0.7189 -0.7505  0.0218
   87SOPE   H2R 8139   1.524   3.726   2.658 -0.5047  0.4088 -0.3178
   87SOPE   H2S 8140   1.523   3.839   2.805 -0.2189 -0.5534  0.0891
   87SOPE    C3 8141   1.952   3.995   2.782 -0.3632 -0.3935  0.4336
   87SOPE    HX 8142   1.906   4.096   2.794  2.6049  1.2121 -0.6648
   87SOPE    HY 8143   2.057   4.025   2.764 -0.9817  0.5144 -1.9987
   87SOPE   O31 8144   1.935   3.928   2.899 -0.3250  1.0531  0.0894
   87SOPE   C31 8145   2.022   3.830   2.932 -0.7818 -0.1327  0.0436
   87SOPE   O32 8146   2.135   3.813   2.881  0.0692  0.2013 -0.3062
   87SOPE   C32 8147   1.984   3.764   3.056 -0.0208 -0.6330 -0.0864
   87SOPE   H2X 8148   1.953   3.660   3.034 -0.3799 -0.9240  1.6446
   87SOPE   H2Y 8149   1.904   3.826   3.103  0.2871  1.4951 -2.1998
   87SOPE   C23 8150   1.524   3.621   2.844  0.2238 -0.1232 -0.0274
   87SOPE   H3R 8151   1.603   3.543   2.840  1.8552  1.2517  2.4531
   87SOPE   H3S 8152   1.437   3.587   2.784 -0.2124  4.0174 -2.1291
   87SOPE   C24 8153   1.478   3.658   2.988  0.0258 -0.4506  0.3584
   87SOPE   H4R 8154   1.399   3.736   2.991  0.5357  0.2884 -2.4039
   87SOPE   H4S 8155   1.431   3.568   3.032 -2.2384  0.6959  0.3984
   87SOPE   C25 8156   1.598   3.715   3.073 -0.7096 -0.0989 -0.0921
   87SOPE   H5R 8157   1.689   3.652   3.058 -0.8936 -0.9076  1.8560
   87SOPE   H5S 8158   1.615   3.822   3.051  0.9411  0.2274  2.3516
   87SOPE   C26 8159   1.564   3.701   3.220 -0.3569  0.1223 -0.2344
   87SOPE   H6R 8160   1.459   3.738   3.221 -1.4352 -2.5603 -1.8445
   87SOPE   H6S 8161   1.566   3.592   3.241  2.2234 -0.4940 -2.9986
   87SOPE   C27 8162   1.659   3.778   3.311 -0.5931 -0.2641  0.6091
   87SOPE   H7R 8163   1.767   3.762   3.290 -0.7173  0.1201 -0.3970
   87SOPE   H7S 8164   1.623   3.882   3.303  0.8990  0.3430  1.4369
   87SOPE   C28 8165   1.638   3.732   3.459  0.2956 -0.0400  0.4783
   87SOPE   H8R 8166   1.704   3.804   3.512  0.2324  0.3328  0.0566
   87SOPE   H8S 8167   1.539   3.754   3.503 -0.2038  1.6916 -1.3698
   87SOPE   C29 8168   1.686   3.592   3.492 -0.3994 -0.3538  0.0239
   87SOPE   H91 8169   1.777   3.571   3.434 -1.2810  1.4997 -2.1871
   87SOPE  C210 8170   1.641   3.509   3.582 -0.2957 -0.0945  0.1078
   87SOPE  H101 8171   1.701   3.419   3.601 -0.7026 -0.6782 -1.2761
   87SOPE  C211 8172   1.512   3.527   3.661 -0.1537 -0.1264  0.1453
   87SOPE  H11R 8173   1.471   3.425   3.645  1.0141 -0.3740 -1.6791
   87SOPE  H11S 8174   1.438   3.599   3.620  0.2529  1.1811  1.6086
   87SOPE  C212 8175   1.516   3.548   3.809 -0.0038  0.0386  0.2374
   87SOPE  H12R 8176   1.412   3.568   3.842  0.7829  1.6708  1.9136
   87SOPE  H12S 8177   1.582   3.635   3.826  0.7977 -0.3641 -0.6441
   87SOPE  C213 8178   1.541   3.419   3.890 -0.2746  0.1841 -0.1498
   87SOPE  H13R 8179   1.641   3.372   3.878 -1.1623 -1.8313 -0.1128
   87SOPE  H13S 8180   1.483   3.329   3.862  0.2808 -1.1543  2.5991
   87SOPE  C214 8181   1.524   3.449   4.040  0.4316 -0.5822  0.4027
   87SOPE  H14R 8182   1.416   3.455   4.063  0.7231 -0.2756  1.7774
   87SOPE  H14S 8183   1.571   3.546   4.068  0.2484 -0.1820 -0.6168
   87SOPE  C215 8184   1.570   3.338   4.136  0.1421  0.4518 -0.2955
   87SOPE  H15R 8185   1.561   3.372   4.241 -0.8193 -1.9457  0.4742
   87SOPE  H15S 8186   1.673   3.309   4.108 -0.0733  0.7992 -1.4978
   87SOPE  C216 8187   1.477   3.204   4.118  0.2156 -0.3468 -0.4204
   87SOPE  H16R 8188   1.498   3.165   4.016  0.5817  0.4928 -0.6748
   87SOPE  H16S 8189   1.376   3.233   4.153  1.0490  1.5475  0.6029
   87SOPE  C217 8190   1.507   3.099   4.224 -0.2153 -0.4849  0.2879
   87SOPE  H17R 8191   1.434   3.017   4.207 -0.7534 -0.1173  0.7964
   87SOPE  H17S 8192   1.486   3.152   4.320 -0.4472  1.5105 -0.8028
   87SOPE  C218 8193   1.644   3.034   4.218  0.3356  0.4115 -0.0551
   87SOPE  H18R 8194   1.733   3.096   4.242  0.4241 -0.3798  1.8068
   87SOPE  H18S 8195   1.655   2.988   4.117  0.7420 -2.8195  1.3195
   87SOPE  H18T 8196   1.638   2.955   4.296 -0.5585  1.2050  0.7039
   87SOPE   C33 8197   2.101   3.762   3.157 -0.2466 -0.6133 -0.3668
   87SOPE   H3X 8198   2.133   3.868   3.173 -1.1579 -0.3857 -0.0006
   87SOPE   H3Y 8199   2.194   3.720   3.114  1.1585  2.2604 -0.3869
   87SOPE   C34 8200   2.069   3.684   3.282  0.4621  0.1575  0.4197
   87SOPE   H4X 8201   2.047   3.581   3.247 -1.4667  0.8604 -0.5509
   87SOPE   H4Y 8202   1.976   3.737   3.313 -0.7693  0.2724 -3.0427
   87SOPE   C35 8203   2.178   3.692   3.387 -0.0878 -0.1982 -1.1908
   87SOPE   H5X 8204   2.217   3.794   3.407 -1.5064 -0.2626  2.7869
   87SOPE   H5Y 8205   2.263   3.621   3.374 -0.5898 -1.6504  2.4288
   87SOPE   C36 8206   2.118   3.637   3.517  0.3469 -0.2782 -0.6002
   87SOPE   H6X 8207   2.204   3.620   3.585 -0.0408  1.3403  0.3498
   87SOPE   H6Y 8208   2.055   3.545   3.509 -1.0322  0.4404  1.1555
   87SOPE   C37 8209   2.022   3.745   3.587 -0.4779  0.1736 -0.2086
   87SOPE   H7X 8210   1.945   3.786   3.517 -0.4698 -0.6335 -0.7040
   87SOPE   H7Y 8211   2.087   3.830   3.618  0.0998  0.1368 -1.2562
   87SOPE   C38 8212   1.944   3.688   3.705  0.0215  0.2210  0.0834
   87SOPE   H8X 8213   1.888   3.602   3.663 -1.0125  1.9433 -2.3039
   87SOPE   H8Y 8214   1.863   3.763   3.716 -1.3259 -1.0806 -0.6946
   87SOPE   C39 8215   2.026   3.651   3.823  0.4284  0.5377 -0.3906
   87SOPE   H9X 8216   2.105   3.724   3.851 -0.0591  0.5892  0.9565
   87SOPE   H9Y 8217   2.085   3.563   3.792  1.9795  1.3815  0.0775
   87SOPE  C310 8218   1.938   3.603   3.943 -0.2765  0.1346 -0.0758
   87SOPE  H10X 8219   1.869   3.525   3.906  0.2871 -0.6436  0.4789
   87SOPE  H10Y 8220   1.884   3.692   3.981 -1.8234 -0.3469 -1.0527
   87SOPE  C311 8221   2.016   3.533   4.054  0.3380 -0.2904  0.2749
   87SOPE  H11X 8222   2.090   3.603   4.098  1.2897 -0.5414 -0.8848
   87SOPE  H11Y 8223   2.075   3.447   4.016  0.7227 -0.2466  0.7622
   87SOPE  C312 8224   1.930   3.474   4.171 -0.7456 -0.0149 -0.2177
   87SOPE  H12X 8225   1.955   3.366   4.166  0.9218  0.3230  0.2961
   87SOPE  H12Y 8226   1.820   3.479   4.155 -1.0466 -1.7408  1.0497
   87SOPE  C313 8227   1.965   3.537   4.307 -0.2542 -0.0718  0.1481
   87SOPE  H13X 8228   1.904   3.485   4.384  1.9814 -0.1808  1.9467
   87SOPE  H13Y 8229   1.932   3.643   4.310 -0.2771 -0.0888  0.5305
   87SOPE  C314 8230   2.122   3.541   4.348  0.0833 -0.2431  0.9584
   87SOPE  H14X 8231   2.190   3.558   4.262 -0.0683  0.5255  0.9859
   87SOPE  H14Y 8232   2.132   3.439   4.392  0.7233 -0.6872 -0.1651
   87SOPE  C315 8233   2.155   3.644   4.463 -0.0876  0.3248  0.6004
   87SOPE  H15X 8234   2.168   3.743   4.414  0.7577  0.7439  1.6313
   87SOPE  H15Y 8235   2.249   3.599   4.503 -0.9052 -1.6347  0.4121
   87SOPE  C316 8236   2.062   3.645   4.585  0.0455 -0.1977 -0.6820
   87SOPE  H16X 8237   2.051   3.547   4.637  0.2392  0.7934  1.2910
   87SOPE  H16Y 8238   1.958   3.674   4.557 -0.4224 -0.3022  0.8965
   87SOPE  C317 8239   2.082   3.737   4.702 -0.0191 -0.0280 -0.0590
   87SOPE  H17X 8240   2.178   3.714   4.754 -0.2522  2.3686  1.6106
   87SOPE  H17Y 8241   2.000   3.733   4.776 -1.5128 -0.2302 -1.6711
   87SOPE  C318 8242   2.102   3.882   4.664  0.3653 -0.1179 -0.0147
   87SOPE  H18X 8243   2.037   3.937   4.593 -0.2730  2.3083  2.2852
   87SOPE  H18Y 8244   2.205   3.880   4.624  0.1094 -1.3002 -0.6898
   87SOPE  H18Z 8245   2.105   3.935   4.761  0.3509 -1.4470  0.7471
   88SOPE     N 8246   3.090   3.299   2.594  0.6958  0.0765 -0.4615
   88SOPE   HN1 8247   3.167   3.285   2.661 -0.4994  1.1803  1.2196
   88SOPE   HN2 8248   3.003   3.278   2.647  0.5921  1.2075 -0.1563
   88SOPE   HN3 8249   3.089   3.236   2.511  2.2327  0.4958 -0.8329
   88SOPE   C12 8250   3.102   3.440   2.546  0.0585 -0.1214 -0.9783
   88SOPE  H12A 8251   3.005   3.495   2.541 -0.6293 -1.4260 -3.6757
   88SOPE  H12B 8252   3.136   3.434   2.441  2.0325 -3.7132 -0.2885
   88SOPE   C11 8253   3.211   3.508   2.632  0.5314 -0.0753 -0.8027
   88SOPE  H11A 8254   3.179   3.519   2.737 -0.0946  0.5835 -1.0595
   88SOPE  H11B 8255   3.229   3.608   2.587 -2.8224  0.5703 -0.9554
   88SOPE     P 8256   3.471   3.463   2.685  0.5717  0.3181 -0.2417
   88SOPE   O13 8257   3.545   3.565   2.611  0.1342  0.2690 -0.0416
   88SOPE   O14 8258   3.535   3.332   2.700  0.2132  0.0882 -0.0421
   88SOPE   O12 8259   3.333   3.433   2.611 -0.1835 -0.1482 -0.0209
   88SOPE   O11 8260   3.415   3.521   2.823  0.2784  0.0305  0.1690
   88SOPE    C1 8261   3.504   3.598   2.905  0.5429  0.1443 -0.1921
   88SOPE    HA 8262   3.442   3.664   2.970  0.5835 -0.5050  0.5182
   88SOPE    HB 8263   3.569   3.672   2.853  0.2678  0.7432  0.3036
   88SOPE    C2 8264   3.598   3.524   3.005  0.2037  0.2029  0.5420
   88SOPE    HS 8265   3.563   3.419   3.011  0.9513 -0.1908 -1.3581
   88SOPE   O21 8266   3.598   3.584   3.135  0.7088 -0.9852 -0.1869
   88SOPE   C21 8267   3.493   3.550   3.217 -0.3513  0.9687 -0.1279
   88SOPE   O22 8268   3.396   3.491   3.180  0.2496  0.3420  0.0806
   88SOPE   C22 8269   3.508   3.585   3.362  0.2473 -0.6845 -0.1952
   88SOPE   H2R 8270   3.404   3.594   3.401  0.1921 -3.5481  0.5988
   88SOPE   H2S 8271   3.552   3.686   3.360 -0.6470 -0.0551  3.4838
   88SOPE    C3 8272   3.740   3.512   2.947  0.5253  0.1466 -0.1305
   88SOPE    HX 8273   3.780   3.610   2.914  0.5467 -0.0198 -0.5956
   88SOPE    HY 8274   3.737   3.437   2.866  2.9665 -0.8834  0.6474
   88SOPE   O31 8275   3.833   3.470   3.049 -0.4899 -0.2066 -0.6685
   88SOPE   C31 8276   3.838   3.344   3.082  0.1753  0.2165 -0.4733
   88SOPE   O32 8277   3.755   3.261   3.055 -0.7782 -0.6622 -0.1078
   88SOPE   C32 8278   3.946   3.329   3.193  0.5958 -0.0242 -0.2401
   88SOPE   H2X 8279   3.923   3.404   3.272  3.5242  1.2089 -0.4062
   88SOPE   H2Y 8280   4.041   3.363   3.145  0.1546  1.6871  0.0273
   88SOPE   C23 8281   3.600   3.482   3.434  0.1207  0.4895 -0.5318
   88SOPE   H3R 8282   3.638   3.520   3.532 -2.5174 -1.0508  1.2202
   88SOPE   H3S 8283   3.691   3.464   3.373 -0.3510 -1.2986 -0.7639
   88SOPE   C24 8284   3.533   3.349   3.442  0.1892  0.3215  0.9098
   88SOPE   H4R 8285   3.508   3.298   3.346  1.1930 -0.8336  1.2311
   88SOPE   H4S 8286   3.601   3.275   3.489  2.8449  1.1595 -1.3128
   88SOPE   C25 8287   3.411   3.342   3.533  0.1148 -0.6012 -0.3873
   88SOPE   H5R 8288   3.322   3.395   3.492  0.8498  0.4505 -0.6672
   88SOPE   H5S 8289   3.386   3.234   3.544  0.9598 -0.7482  0.1604
   88SOPE   C26 8290   3.439   3.397   3.672  0.3344 -0.5351  0.0887
   88SOPE   H6R 8291   3.545   3.387   3.703  0.4152  2.2561  1.0597
   88SOPE   H6S 8292   3.417   3.505   3.656 -0.6870 -0.6067  0.8504
   88SOPE   C27 8293   3.348   3.347   3.779  0.8641  0.6844 -0.9540
   88SOPE   H7R 8294   3.243   3.356   3.742  0.3353 -0.6670  0.1233
   88SOPE   H7S 8295   3.379   3.241   3.792 -0.2000  0.3132 -1.2689
   88SOPE   C28 8296   3.356   3.431   3.909 -0.0668 -0.2719 -0.8562
   88SOPE   H8R 8297   3.340   3.537   3.881 -1.1243 -0.1862  0.0089
   88SOPE   H8S 8298   3.272   3.393   3.972  0.4784 -1.8222 -1.0066
   88SOPE   C29 8299   3.478   3.423   3.994 -0.6152  0.0453  0.9099
   88SOPE   H91 8300   3.561   3.369   3.947 -3.3900 -1.9873 -2.1603
   88SOPE  C210 8301   3.497   3.482   4.111  0.1644 -0.0601  0.5168
   88SOPE  H101 8302   3.590   3.459   4.165 -1.2427 -1.8031  2.3596
   88SOPE  C211 8303   3.394   3.566   4.187 -0.4824  0.2338 -0.3886
   88SOPE  H11R 8304   3.314   3.591   4.114  0.0954  3.9969  0.0661
   88SOPE  H11S 8305   3.436   3.656   4.237 -1.0549  0.6601 -0.6675
   88SOPE  C212 8306   3.321   3.493   4.304 -0.3285  0.6223 -0.3776
   88SOPE  H12R 8307   3.288   3.393   4.268 -2.8987  1.1418  0.3294
   88SOPE  H12S 8308   3.240   3.563   4.333  1.5416  3.4583 -1.5073
   88SOPE  C213 8309   3.417   3.467   4.422  0.0264 -0.1697  0.1720
   88SOPE  H13R 8310   3.478   3.559   4.431  1.0310 -0.9124  1.1144
   88SOPE  H13S 8311   3.482   3.380   4.400 -0.9696 -0.8596 -0.1400
   88SOPE  C214 8312   3.353   3.444   4.561  0.4312 -0.1603  0.7118
   88SOPE  H14R 8313   3.293   3.350   4.557 -0.0190  0.1395 -3.0528
   88SOPE  H14S 8314   3.283   3.529   4.578 -0.2439 -0.6357  0.3496
   88SOPE  C215 8315   3.461   3.437   4.672 -0.2789  0.6258 -0.3143
   88SOPE  H15R 8316   3.408   3.460   4.767  1.1421  0.3306  0.5805
   88SOPE  H15S 8317   3.541   3.509   4.645 -0.0130  0.0257 -1.2015
   88SOPE  C216 8318   3.528   3.300   4.671 -0.4156 -0.6187 -0.2936
   88SOPE  H16R 8319   3.566   3.277   4.569 -0.8359  0.4683 -0.7201
   88SOPE  H16S 8320   3.446   3.231   4.701 -0.3293  0.1767  1.9796
   88SOPE  C217 8321   3.641   3.276   4.772  0.1403  0.0737  0.8026
   88SOPE  H17R 8322   3.601   3.302   4.872 -1.2809 -1.5166  0.6948
   88SOPE  H17S 8323   3.722   3.346   4.742 -0.7343  1.0006  0.5325
   88SOPE  C218 8324   3.696   3.129   4.779 -0.2007  0.0448  0.5274
   88SOPE  H18R 8325   3.717   3.089   4.678  1.1905 -0.9043  1.1524
   88SOPE  H18S 8326   3.624   3.071   4.840  0.0390 -0.0074  0.7642
   88SOPE  H18T 8327   3.795   3.122   4.830 -0.5530  0.1210  1.2405
   88SOPE   C33 8328   3.957   3.193   3.255 -0.0659  0.2140  0.7458
   88SOPE   H3X 8329   4.064   3.169   3.275  0.8433  2.4303 -1.0096
   88SOPE   H3Y 8330   3.933   3.112   3.182  1.0036 -0.4076  1.0550
   88SOPE   C34 8331   3.868   3.164   3.375 -0.1422 -0.1580  0.4393
   88SOPE   H4X 8332   3.892   3.058   3.396  2.7497 -0.2889 -2.6851
   88SOPE   H4Y 8333   3.762   3.168   3.339 -0.1394  0.2136  0.4669
   88SOPE   C35 8334   3.892   3.255   3.493  0.5361  0.3079 -0.0133
   88SOPE   H5X 8335   3.822   3.341   3.492 -1.4385 -1.2195 -1.3422
   88SOPE   H5Y 8336   3.996   3.294   3.488  0.9706 -0.9383 -1.5458
   88SOPE   C36 8337   3.874   3.179   3.631  0.2890  0.0789 -0.1241
   88SOPE   H6X 8338   3.952   3.099   3.636  0.4094  0.2565  1.4074
   88SOPE   H6Y 8339   3.773   3.135   3.623  0.5844 -0.2540 -3.1980
   88SOPE   C37 8340   3.885   3.271   3.758 -0.0909 -1.0406 -0.8293
   88SOPE   H7X 8341   3.808   3.350   3.771  0.1929 -0.9571  0.5387
   88SOPE   H7Y 8342   3.980   3.327   3.773 -1.0335 -0.0433  2.1685
   88SOPE   C38 8343   3.865   3.184   3.884  0.1045 -0.1551  0.5773
   88SOPE   H8X 8344   3.952   3.115   3.893  0.0673  0.0257  2.8483
   88SOPE   H8Y 8345   3.777   3.120   3.862 -1.7276  2.5391 -0.4859
   88SOPE   C39 8346   3.862   3.254   4.022  0.3927 -0.4857  0.9426
   88SOPE   H9X 8347   3.779   3.328   4.020  0.7413 -0.0941  0.7902
   88SOPE   H9Y 8348   3.953   3.317   4.019  0.8318 -1.1251 -1.4153
   88SOPE  C310 8349   3.878   3.149   4.135 -0.1527  0.7967  0.8372
   88SOPE  H10X 8350   3.975   3.098   4.117 -1.5513 -1.3384 -1.3710
   88SOPE  H10Y 8351   3.799   3.072   4.122 -2.0215  2.7828 -0.4731
   88SOPE  C311 8352   3.855   3.202   4.278  0.0949  0.4866 -0.4669
   88SOPE  H11X 8353   3.847   3.121   4.353  2.4814  1.2848  0.7845
   88SOPE  H11Y 8354   3.758   3.255   4.268  0.7413  1.6337 -0.8753
   88SOPE  C312 8355   3.959   3.303   4.325  0.0399 -0.0049  0.4645
   88SOPE  H12X 8356   3.965   3.385   4.250 -0.4863 -0.8099 -0.4766
   88SOPE  H12Y 8357   4.056   3.249   4.327 -0.0201 -0.1204  0.2451
   88SOPE  C313 8358   3.949   3.355   4.469  0.5208  0.1656 -0.0920
   88SOPE  H13X 8359   3.947   3.264   4.534  1.2702 -0.3093 -0.7190
   88SOPE  H13Y 8360   3.849   3.402   4.478  0.3274 -0.4036  1.0188
   88SOPE  C314 8361   4.071   3.436   4.507  0.3202 -1.2179 -0.7658
   88SOPE  H14X 8362   4.066   3.533   4.452 -0.2428  0.6878  2.4111
   88SOPE  H14Y 8363   4.172   3.395   4.485  1.8767  2.3398 -0.9731
   88SOPE  C315 8364   4.076   3.472   4.658 -0.2732  0.0443 -0.7912
   88SOPE  H15X 8365   4.170   3.529   4.675 -1.7809  2.0951  1.4643
   88SOPE  H15Y 8366   4.097   3.373   4.705  0.7109  0.1559 -0.9814
   88SOPE  C316 8367   3.953   3.550   4.710 -0.6480  0.0108 -0.1162
   88SOPE  H16X 8368   3.870   3.476   4.709  0.4641 -1.2655 -1.1040
   88SOPE  H16Y 8369   3.930   3.630   4.637  1.1582  0.9155  0.2301
   88SOPE  C317 8370   3.962   3.619   4.843  0.7088  0.6665 -0.0440
   88SOPE  H17X 8371   4.053   3.682   4.831  1.0060  0.6625  1.8570
   88SOPE  H17Y 8372   3.982   3.548   4.926  2.9176  0.1098 -0.9646
   88SOPE  C318 8373   3.835   3.689   4.875  0.4563 -0.0512 -0.6593
   88SOPE  H18X 8374   3.844   3.739   4.974  0.6663  0.9012 -1.1458
   88SOPE  H18Y 8375   3.746   3.624   4.886  1.6003 -1.3741  1.4387
   88SOPE  H18Z 8376   3.821   3.776   4.808  0.2859  2.5987  2.5248
   89SAPC     N 8377   1.876   3.571   7.394  0.5249  0.2036 -0.0843
   89SAPC   C12 8378   1.877   3.504   7.260  0.3194 -0.1492 -0.2518
   89SAPC  H12A 8379   1.809   3.557   7.196 -2.9467 -1.9143  1.4792
   89SAPC  H12B 8380   1.819   3.414   7.267 -0.7185  0.5601  0.5932
   89SAPC   C13 8381   1.950   3.696   7.378 -0.5312 -0.9584 -0.1812
   89SAPC  H13A 8382   2.053   3.674   7.355 -0.6306 -0.7477 -0.8481
   89SAPC  H13B 8383   1.901   3.756   7.302  3.2539  3.7446  0.6234
   89SAPC  H13C 8384   1.953   3.742   7.476 -2.2437  0.4857 -0.7404
   89SAPC   C14 8385   1.733   3.600   7.436 -0.8344  0.7512  0.7796
   89SAPC  H14A 8386   1.674   3.654   7.363 -1.5635 -0.1969  0.6534
   89SAPC  H14B 8387   1.670   3.515   7.458 -0.7622  0.5940  0.3979
   89SAPC  H14C 8388   1.739   3.654   7.530 -0.2998  0.0061  1.1843
   89SAPC   C15 8389   1.942   3.486   7.505 -0.4217  0.3333  0.1199
   89SAPC  H15A 8390   2.049   3.477   7.494 -0.4780 -1.1451  0.6088
   89SAPC  H15B 8391   1.923   3.553   7.588 -0.7333  2.5602 -1.6422
   89SAPC  H15C 8392   1.881   3.398   7.515 -2.2803  1.6453  0.7996
   89SAPC   C11 8393   2.012   3.484   7.179  0.1669  0.6527 -0.4435
   89SAPC  H11A 8394   2.069   3.579   7.167 -0.5050  1.2057  0.5885
   89SAPC  H11B 8395   1.993   3.442   7.078  1.9598  0.2897 -0.6690
   89SAPC     P 8396   2.085   3.241   7.234  0.0390 -0.0529 -0.1190
   89SAPC   O13 8397   2.182   3.184   7.327  0.5797 -0.3266  0.0278
   89SAPC   O14 8398   1.946   3.203   7.250 -0.1882 -0.6898 -0.8208
   89SAPC   O12 8399   2.109   3.402   7.252  0.4526  0.0756 -0.7012
   89SAPC   O11 8400   2.123   3.207   7.085  0.3285  0.3486  0.2311
   89SAPC    C1 8401   2.259   3.183   7.050  0.6111  0.3243 -0.3765
   89SAPC    HA 8402   2.330   3.196   7.136  0.0224 -0.4498  0.2418
   89SAPC    HB 8403   2.263   3.076   7.020 -1.4529  0.0550  0.1952
   89SAPC    C2 8404   2.307   3.278   6.932  0.2305 -0.6422 -0.1020
   89SAPC    HS 8405   2.303   3.375   6.986  0.9927 -1.6891  1.9794
   89SAPC   O21 8406   2.207   3.271   6.825  0.7677  0.4292 -0.2667
   89SAPC   C21 8407   2.192   3.385   6.758  0.3627 -0.3793 -0.0767
   89SAPC   O22 8408   2.221   3.495   6.797 -0.2893 -0.4997 -0.4729
   89SAPC   C22 8409   2.123   3.352   6.631  0.1686  0.1013 -0.1309
   89SAPC   H2R 8410   2.075   3.251   6.632  0.5315 -0.0709  0.2317
   89SAPC   H2S 8411   2.035   3.419   6.625  2.0356  3.3549  4.1519
   89SAPC    C3 8412   2.451   3.255   6.891  0.1476 -0.3604  0.3774
   89SAPC    HX 8413   2.461   3.151   6.851 -2.8894  0.4525 -3.0331
   89SAPC    HY 8414   2.522   3.268   6.975  2.6359  0.9769 -1.7687
   89SAPC   O31 8415   2.499   3.343   6.781 -0.2150  0.0053  0.2959
   89SAPC   C31 8416   2.563   3.459   6.827  0.3126 -0.2177 -0.7695
   89SAPC   O32 8417   2.593   3.484   6.945  0.3526 -0.1899 -0.0543
   89SAPC   C32 8418   2.601   3.553   6.712  0.1045  0.4677  0.6063
   89SAPC   H2X 8419   2.668   3.630   6.755 -0.6141  1.0022  0.7935
   89SAPC   H2Y 8420   2.508   3.597   6.672 -0.4746 -1.8721 -0.8147
   89SAPC   C23 8421   2.215   3.374   6.506  0.0839 -0.5402 -0.3621
   89SAPC   H3R 8422   2.283   3.461   6.513  0.4721 -0.6618 -2.1862
   89SAPC   H3S 8423   2.152   3.413   6.424  2.8148 -1.3960 -3.0208
   89SAPC   C24 8424   2.290   3.253   6.460 -0.2529  0.5821  0.3367
   89SAPC   H4R 8425   2.223   3.174   6.422  0.4231  0.6892 -1.1565
   89SAPC   H4S 8426   2.351   3.212   6.543  1.7229  0.8934 -0.8806
   89SAPC   C25 8427   2.385   3.298   6.346 -0.3148  0.2101 -0.0828
   89SAPC   H5R 8428   2.494   3.296   6.361 -0.4372 -2.3261  0.9523
   89SAPC   C26 8429   2.354   3.326   6.219 -0.0819  0.1696 -0.2385
   89SAPC   H6R 8430   2.437   3.354   6.152  3.1683 -2.2648  2.3515
   89SAPC   C27 8431   2.213   3.324   6.173  0.1124 -0.9269 -0.2024
   89SAPC   H7R 8432   2.177   3.428   6.185  0.9469 -0.6503 -0.0414
   89SAPC   H7S 8433   2.152   3.251   6.231  0.7379 -0.9444  0.4484
   89SAPC   C28 8434   2.184   3.291   6.029  0.1647  0.6565 -0.8669
   89SAPC   H8R 8435   2.264   3.227   5.990 -1.5682 -2.1247 -0.1317
   89SAPC   C29 8436   2.082   3.326   5.951  0.6143  0.2937 -0.1305
   89SAPC   H9R 8437   2.078   3.293   5.846 -1.2705 -1.1906  0.3380
   89SAPC  C210 8438   1.954   3.399   5.987 -0.0022 -0.3565  0.4669
   89SAPC  H10R 8439   1.936   3.381   6.095 -0.7244 -1.6913  0.1422
   89SAPC  H10S 8440   1.864   3.371   5.929  0.2537  0.7488 -0.5053
   89SAPC  C211 8441   1.967   3.550   5.977 -0.1383  0.3164 -0.0471
   89SAPC  H11R 8442   1.992   3.601   6.071  3.8684  0.7929 -1.1858
   89SAPC  C212 8443   1.935   3.628   5.871  0.2115 -0.4411 -0.2190
   89SAPC  H12R 8444   1.938   3.735   5.893  1.6445 -0.4431 -0.3273
   89SAPC  C213 8445   1.885   3.581   5.735 -0.0319 -0.1248  0.1632
   89SAPC  H13R 8446   1.852   3.672   5.681  1.6779  1.3032  1.4039
   89SAPC  H13S 8447   1.805   3.507   5.759 -1.6947  0.0243 -4.0029
   89SAPC  C214 8448   1.985   3.507   5.648 -0.1144  0.3526  0.2193
   89SAPC  H14R 8449   2.067   3.458   5.702  0.1448  0.3390 -0.1817
   89SAPC  C215 8450   1.991   3.512   5.514 -0.3737 -0.5743  0.2968
   89SAPC  H15R 8451   2.066   3.456   5.456  0.9291  0.6479  0.7391
   89SAPC  C216 8452   1.893   3.596   5.438 -0.1999  0.0876 -0.6472
   89SAPC  H16R 8453   1.927   3.701   5.453  2.4877 -0.5734 -1.4641
   89SAPC  H16S 8454   1.792   3.581   5.480  0.9095 -1.3512  1.6760
   89SAPC  C217 8455   1.887   3.598   5.285 -1.0259  0.4739 -0.4598
   89SAPC  H17R 8456   1.802   3.662   5.255 -1.6848 -0.0621  0.2354
   89SAPC  H17S 8457   1.850   3.501   5.246 -2.8105  0.7484  0.4720
   89SAPC  C218 8458   2.014   3.652   5.225 -0.1675  0.6233  0.4335
   89SAPC  H18R 8459   2.099   3.581   5.232  0.3218  1.1441 -0.1169
   89SAPC  H18S 8460   2.041   3.741   5.286 -1.1173  1.8469 -0.8625
   89SAPC  C219 8461   2.018   3.693   5.076 -0.2905  0.0161  0.0205
   89SAPC  H19R 8462   1.916   3.733   5.059 -0.9925 -1.6147  0.1908
   89SAPC  H19S 8463   2.027   3.603   5.012  2.4181  0.5892 -0.5088
   89SAPC  C220 8464   2.133   3.800   5.052  0.5577 -0.0830  0.3306
   89SAPC  H20R 8465   2.124   3.839   4.948  0.7362 -2.3301 -0.5871
   89SAPC  H20S 8466   2.232   3.751   5.065  0.7574  1.0094  3.8664
   89SAPC  H20T 8467   2.117   3.879   5.128 -0.6818  0.0066  0.0019
   89SAPC   C33 8468   2.666   3.489   6.589  0.0735 -0.5750 -0.9327
   89SAPC   H3X 8469   2.594   3.422   6.538  0.2117 -0.3387 -1.4391
   89SAPC   H3Y 8470   2.751   3.423   6.619 -1.1996 -1.5808  0.6610
   89SAPC   C34 8471   2.694   3.585   6.470  0.1545  0.1827  0.4146
   89SAPC   H4X 8472   2.755   3.670   6.505  1.3542  0.8319 -2.9180
   89SAPC   H4Y 8473   2.598   3.636   6.448  0.5331  0.6462 -0.1684
   89SAPC   C35 8474   2.754   3.514   6.344  0.5537 -0.0080  0.9544
   89SAPC   H5X 8475   2.674   3.487   6.271  0.4179  0.3963  0.9483
   89SAPC   H5Y 8476   2.818   3.427   6.370 -0.6173 -1.0718  0.4227
   89SAPC   C36 8477   2.835   3.609   6.258  0.2185  0.3001 -0.3207
   89SAPC   H6X 8478   2.935   3.632   6.301 -0.0573 -1.6875  1.5874
   89SAPC   H6Y 8479   2.777   3.704   6.253 -0.2989  0.0603  0.7119
   89SAPC   C37 8480   2.839   3.548   6.116  0.2382 -0.0061  0.7114
   89SAPC   H7X 8481   2.735   3.535   6.080 -0.6053 -0.1099  3.0224
   89SAPC   H7Y 8482   2.880   3.447   6.140 -1.1684 -0.6782  0.4441
   89SAPC   C38 8483   2.923   3.627   6.019  0.2807 -0.3208  0.8398
   89SAPC   H8X 8484   3.028   3.641   6.054  0.6273 -0.6564 -0.0490
   89SAPC   H8Y 8485   2.873   3.726   6.015 -1.0633 -0.9597  1.3514
   89SAPC   C39 8486   2.939   3.575   5.873 -0.0004 -0.7578 -0.3499
   89SAPC   H9X 8487   2.854   3.513   5.836  0.6990 -1.7162 -0.4166
   89SAPC   H9Y 8488   3.005   3.487   5.887  0.8883 -0.0252  0.1458
   89SAPC  C310 8489   2.972   3.670   5.763 -0.0435 -0.1695 -0.1617
   89SAPC  H10X 8490   3.052   3.744   5.785  0.5131 -0.3754 -1.4293
   89SAPC  H10Y 8491   2.887   3.739   5.744  1.3010  2.6410  3.0280
   89SAPC  C311 8492   3.025   3.591   5.648  0.4228  0.6298 -0.9616
   89SAPC  H11X 8493   2.958   3.503   5.632  3.1870 -1.6813 -0.6265
   89SAPC  H11Y 8494   3.121   3.549   5.686 -0.3780  0.7695  1.3425
   89SAPC  C312 8495   3.034   3.668   5.517  0.0604  1.0711 -0.5760
   89SAPC  H12X 8496   3.119   3.738   5.522  0.5040  0.5645 -0.8708
   89SAPC  H12Y 8497   2.938   3.716   5.489 -2.2012 -1.5600  1.9901
   89SAPC  C313 8498   3.058   3.573   5.394  0.0875 -0.0972 -0.3963
   89SAPC  H13X 8499   2.961   3.537   5.353  1.1571 -2.2033 -1.2771
   89SAPC  H13Y 8500   3.108   3.482   5.435 -1.0768 -0.7610 -0.4160
   89SAPC  C314 8501   3.132   3.644   5.279 -0.0985  0.8020 -0.0303
   89SAPC  H14X 8502   3.237   3.658   5.309  0.7329 -2.5567 -0.9014
   89SAPC  H14Y 8503   3.090   3.747   5.272 -1.0498  0.3374 -2.8016
   89SAPC  C315 8504   3.131   3.575   5.143 -0.8620 -0.1591 -0.1043
   89SAPC  H15X 8505   3.191   3.630   5.067  2.6449 -3.4092  0.0420
   89SAPC  H15Y 8506   3.028   3.560   5.105 -1.0350  4.3141 -2.0424
   89SAPC  C316 8507   3.194   3.434   5.147 -0.5511  0.0888 -0.7183
   89SAPC  H16X 8508   3.129   3.356   5.192 -0.1243 -1.1690 -2.1865
   89SAPC  H16Y 8509   3.276   3.440   5.221  0.6549 -0.5936 -1.9479
   89SAPC  C317 8510   3.247   3.378   5.011  0.7442 -0.2215 -0.1670
   89SAPC  H17X 8511   3.311   3.455   4.962  1.0822 -0.1937  0.3154
   89SAPC  H17Y 8512   3.157   3.352   4.952  0.2518  1.3323 -0.1444
   89SAPC  C318 8513   3.337   3.249   5.015  0.0327  0.2549  0.1085
   89SAPC  H18X 8514   3.349   3.210   4.911 -0.8073  0.1926  0.0274
   89SAPC  H18Y 8515   3.301   3.167   5.081 -0.1986 -1.1958 -1.7367
   89SAPC  H18Z 8516   3.440   3.279   5.042 -0.6103  1.8877  0.8664
   90SAPC     N 8517   6.105   6.258   6.685 -0.2665 -0.3296  0.3691
   90SAPC   C12 8518   6.108   6.226   6.535  0.1451  0.3591 -1.0646
   90SAPC  H12A 8519   6.193   6.161   6.517  0.5994 -0.5700  3.2036
   90SAPC  H12B 8520   6.123   6.316   6.479  0.0558  0.3051 -1.1742
   90SAPC   C13 8521   6.237   6.306   6.734  0.3273  0.2589 -0.3080
   90SAPC  H13A 8522   6.236   6.345   6.834  0.9973  2.3013 -1.0513
   90SAPC  H13B 8523   6.312   6.231   6.718  0.5578  0.7839 -1.8418
   90SAPC  H13C 8524   6.269   6.388   6.672  2.4117 -0.3006 -0.0276
   90SAPC   C14 8525   6.003   6.366   6.707  0.1799  0.4612  0.0701
   90SAPC  H14A 8526   5.916   6.343   6.647 -2.2129  0.6170  3.2510
   90SAPC  H14B 8527   5.973   6.379   6.810  1.2001  0.1594  0.4114
   90SAPC  H14C 8528   6.033   6.465   6.676 -1.6814  0.8992 -0.4928
   90SAPC   C15 8529   6.073   6.132   6.759 -0.1772  0.7206 -0.4044
   90SAPC  H15A 8530   6.147   6.059   6.735 -1.1637 -1.8141  3.3404
   90SAPC  H15B 8531   6.086   6.133   6.866 -1.8983  1.5096 -0.1520
   90SAPC  H15C 8532   5.976   6.096   6.726  0.2767 -1.5568  0.5503
   90SAPC   C11 8533   5.979   6.156   6.480  0.9488  0.3932 -0.2579
   90SAPC  H11A 8534   5.973   6.063   6.542 -3.0357  1.8641  1.9459
   90SAPC  H11B 8535   5.989   6.126   6.374 -2.4903 -0.6164 -0.4132
   90SAPC     P 8536   5.728   6.173   6.493  0.7040 -0.2968  0.4716
   90SAPC   O13 8537   5.696   6.160   6.637 -0.5853 -0.1716  0.6692
   90SAPC   O14 8538   5.631   6.241   6.404  0.6228 -0.5003 -0.0783
   90SAPC   O12 8539   5.865   6.241   6.494 -0.6275 -0.5035  0.0700
   90SAPC   O11 8540   5.761   6.031   6.429  0.2751 -0.6851 -0.1092
   90SAPC    C1 8541   5.666   5.961   6.350 -0.0563 -0.3913  0.0908
   90SAPC    HA 8542   5.623   5.873   6.404 -1.1214 -0.3104 -0.6107
   90SAPC    HB 8543   5.574   6.018   6.329 -0.1412 -0.1552  1.0545
   90SAPC    C2 8544   5.738   5.892   6.225 -0.8019 -0.5215  0.1356
   90SAPC    HS 8545   5.686   5.795   6.208  0.3199 -0.9738 -0.9317
   90SAPC   O21 8546   5.885   5.878   6.242  0.6361  0.2778  0.4273
   90SAPC   C21 8547   5.918   5.786   6.332 -0.4766 -0.2385 -0.8361
   90SAPC   O22 8548   5.850   5.709   6.392  0.3098 -0.2910  0.2978
   90SAPC   C22 8549   6.063   5.816   6.371 -0.5142 -0.1513  0.8314
   90SAPC   H2R 8550   6.118   5.881   6.301  0.2234 -1.8784 -0.2371
   90SAPC   H2S 8551   6.055   5.870   6.468  1.1926  3.4714 -0.8653
   90SAPC    C3 8552   5.724   5.958   6.083 -0.4789  0.6326 -0.1199
   90SAPC    HX 8553   5.791   5.898   6.017 -0.8597  1.7249 -1.5637
   90SAPC    HY 8554   5.767   6.060   6.081 -0.0915  0.4726  0.0497
   90SAPC   O31 8555   5.586   5.967   6.042 -0.0537  0.3745  0.4972
   90SAPC   C31 8556   5.574   6.027   5.923 -0.6905 -0.3334  0.2918
   90SAPC   O32 8557   5.661   6.094   5.867  0.3268  0.2734 -0.1472
   90SAPC   C32 8558   5.438   6.003   5.867  0.5654 -0.2151  0.0426
   90SAPC   H2X 8559   5.410   6.106   5.837 -0.6612 -0.8442 -1.0926
   90SAPC   H2Y 8560   5.368   5.964   5.944 -0.8667  1.5814 -0.2713
   90SAPC   C23 8561   6.159   5.691   6.405  0.1899 -0.2292 -0.5461
   90SAPC   H3R 8562   6.090   5.612   6.443  0.2578 -0.9421 -1.8663
   90SAPC   H3S 8563   6.227   5.729   6.485 -0.6496  1.5878 -0.6427
   90SAPC   C24 8564   6.245   5.660   6.287 -0.3488  0.1663 -0.5142
   90SAPC   H4R 8565   6.315   5.585   6.331 -0.7244  0.2430  0.2402
   90SAPC   H4S 8566   6.307   5.749   6.263 -3.2415  1.9013 -2.1760
   90SAPC   C25 8567   6.174   5.605   6.167 -0.3475 -0.5586  0.0946
   90SAPC   H5R 8568   6.119   5.512   6.188  1.3108 -1.3097  1.3481
   90SAPC   C26 8569   6.146   5.662   6.052  0.2005 -0.3457  0.1078
   90SAPC   H6R 8570   6.086   5.609   5.977 -0.5018 -0.3554  0.6685
   90SAPC   C27 8571   6.205   5.790   5.995 -0.9215  0.7977 -0.1476
   90SAPC   H7R 8572   6.238   5.770   5.890  0.2350 -0.1338  0.3682
   90SAPC   H7S 8573   6.289   5.817   6.063 -0.0338 -2.7775  0.3775
   90SAPC   C28 8574   6.112   5.910   5.991  0.1123  0.0378  0.5230
   90SAPC   H8R 8575   6.119   5.977   6.078 -2.2560 -1.8754  2.3142
   90SAPC   C29 8576   6.045   5.944   5.881 -0.3140 -0.4772 -0.0303
   90SAPC   H9R 8577   5.990   6.040   5.883  0.1110 -0.0645 -3.2043
   90SAPC  C210 8578   6.027   5.876   5.751  0.0362  0.3968 -0.0785
   90SAPC  H10R 8579   5.921   5.870   5.718  0.2120  1.0128 -0.7968
   90SAPC  H10S 8580   6.054   5.769   5.764  0.1026  0.4210 -0.0179
   90SAPC  C211 8581   6.111   5.930   5.634 -0.3677  0.3034 -0.0739
   90SAPC  H11R 8582   6.220   5.926   5.646 -0.4628  0.2491  0.8685
   90SAPC  C212 8583   6.062   5.995   5.527 -0.5244  0.4165 -0.9268
   90SAPC  H12R 8584   6.138   6.031   5.457  1.4566 -1.1609  0.3137
   90SAPC  C213 8585   5.922   6.022   5.476 -0.0245  0.1692  0.2223
   90SAPC  H13R 8586   5.845   5.973   5.540 -2.5086  0.5780 -2.2685
   90SAPC  H13S 8587   5.916   6.002   5.367  0.3368  0.1555  0.2042
   90SAPC  C214 8588   5.893   6.164   5.493  0.1807  0.1084 -0.2906
   90SAPC  H14R 8589   5.893   6.189   5.600 -0.2478 -1.3533  0.0708
   90SAPC  C215 8590   5.869   6.259   5.406  0.9054 -0.1602  0.6009
   90SAPC  H15R 8591   5.880   6.362   5.442 -0.9128  0.4331 -0.4187
   90SAPC  C216 8592   5.881   6.244   5.251 -0.1297 -0.0655 -0.4485
   90SAPC  H16R 8593   5.958   6.169   5.226  0.6529  0.2450  0.9320
   90SAPC  H16S 8594   5.924   6.338   5.211 -2.4215  1.1254 -0.3160
   90SAPC  C217 8595   5.749   6.203   5.177 -0.2321  0.4062 -0.7002
   90SAPC  H17R 8596   5.669   6.276   5.199  0.1016  0.4460  0.4818
   90SAPC  H17S 8597   5.718   6.103   5.215 -0.2242 -0.4488 -2.7981
   90SAPC  C218 8598   5.753   6.192   5.024 -0.3455  0.2180 -0.0850
   90SAPC  H18R 8599   5.654   6.150   5.000 -1.2205 -0.0470  3.4288
   90SAPC  H18S 8600   5.835   6.123   4.993 -1.8245 -0.9739 -1.4636
   90SAPC  C219 8601   5.766   6.324   4.946  0.4915 -0.3782 -0.5976
   90SAPC  H19R 8602   5.853   6.383   4.981  0.7634  0.5842 -2.7347
   90SAPC  H19S 8603   5.670   6.377   4.966 -0.3373 -0.7554 -3.1872
   90SAPC  C220 8604   5.774   6.324   4.797  0.4689 -0.0639 -0.1613
   90SAPC  H20R 8605   5.719   6.237   4.754 -0.6676  0.9181 -0.7385
   90SAPC  H20S 8606   5.872   6.318   4.746 -0.0847  1.8380 -1.5580
   90SAPC  H20T 8607   5.733   6.418   4.755 -0.4325 -0.8318 -1.0717
   90SAPC   C33 8608   5.432   5.906   5.744 -0.3891  0.7681  0.0730
   90SAPC   H3X 8609   5.326   5.877   5.728 -0.4854  0.1094  1.6365
   90SAPC   H3Y 8610   5.483   5.810   5.767 -1.3826  0.1684 -0.1927
   90SAPC   C34 8611   5.503   5.951   5.614  0.2028  0.4842  0.0737
   90SAPC   H4X 8612   5.612   5.967   5.629  0.3884  0.2719 -0.9581
   90SAPC   H4Y 8613   5.458   6.052   5.602 -1.6816 -0.1658  1.2547
   90SAPC   C35 8614   5.476   5.845   5.498 -1.2150 -0.7747  0.5880
   90SAPC   H5X 8615   5.370   5.811   5.501 -1.0215 -1.8047  5.5655
   90SAPC   H5Y 8616   5.551   5.764   5.510 -0.0460  0.0038 -1.0687
   90SAPC   C36 8617   5.499   5.916   5.363  0.1090  0.1037  0.8970
   90SAPC   H6X 8618   5.597   5.967   5.371 -0.5687  1.5545  0.3156
   90SAPC   H6Y 8619   5.421   5.993   5.343 -1.1642 -1.3563 -0.0493
   90SAPC   C37 8620   5.504   5.820   5.254  0.3324  0.1967  0.0894
   90SAPC   H7X 8621   5.428   5.739   5.255  0.0992  0.3513 -1.9947
   90SAPC   H7Y 8622   5.600   5.764   5.255 -0.1009 -0.6276  2.3901
   90SAPC   C38 8623   5.481   5.878   5.113 -0.6369 -0.0389 -0.1672
   90SAPC   H8X 8624   5.533   5.976   5.120  0.7758 -0.6585 -1.3537
   90SAPC   H8Y 8625   5.373   5.881   5.088 -0.7087 -2.4785 -0.3211
   90SAPC   C39 8626   5.550   5.808   4.987 -0.9511  0.0394  0.1272
   90SAPC   H9X 8627   5.657   5.806   5.015 -1.5237 -1.1251  2.4428
   90SAPC   H9Y 8628   5.537   5.885   4.908 -1.7436  1.5097  1.6341
   90SAPC  C310 8629   5.516   5.661   4.959  0.4262 -0.1079 -0.0738
   90SAPC  H10X 8630   5.508   5.601   5.051  0.1357 -0.8522 -0.5766
   90SAPC  H10Y 8631   5.598   5.613   4.901 -0.0872 -0.8805 -0.1821
   90SAPC  C311 8632   5.384   5.649   4.880 -0.6127 -0.2301  0.2626
   90SAPC  H11X 8633   5.388   5.716   4.792  0.8598 -0.7123 -0.0662
   90SAPC  H11Y 8634   5.301   5.683   4.945  0.3333  1.1679  0.7828
   90SAPC  C312 8635   5.359   5.506   4.840  0.2782  0.7006 -0.3691
   90SAPC  H12X 8636   5.357   5.440   4.929 -2.3729  1.2921  0.0896
   90SAPC  H12Y 8637   5.435   5.468   4.769  0.1653  0.3451 -0.2994
   90SAPC  C313 8638   5.220   5.506   4.770  0.0953 -0.1989  0.3537
   90SAPC  H13X 8639   5.217   5.591   4.698  1.6381  1.0084  1.6324
   90SAPC  H13Y 8640   5.131   5.519   4.836 -1.4785 -0.6270 -1.5692
   90SAPC  C314 8641   5.191   5.390   4.675 -0.6963 -0.8079  0.4646
   90SAPC  H14X 8642   5.282   5.384   4.611 -1.8351  1.8048 -1.6146
   90SAPC  H14Y 8643   5.098   5.406   4.616  0.3151  1.8004 -0.5679
   90SAPC  C315 8644   5.168   5.249   4.746  0.0741 -0.0866  0.4848
   90SAPC  H15X 8645   5.092   5.266   4.826 -0.6358  1.3889 -0.4466
   90SAPC  H15Y 8646   5.257   5.209   4.799  0.3870  0.1808  0.1694
   90SAPC  C316 8647   5.102   5.141   4.655 -0.4387 -0.5754 -0.1352
   90SAPC  H16X 8648   5.183   5.123   4.581 -0.5990  0.3196 -0.5355
   90SAPC  H16Y 8649   5.019   5.195   4.605  0.4033 -0.3882 -1.3774
   90SAPC  C317 8650   5.057   5.010   4.721 -0.4576  0.2576  0.2185
   90SAPC  H17X 8651   4.987   5.026   4.807 -0.9962 -1.5401  0.1472
   90SAPC  H17Y 8652   5.148   4.971   4.772 -1.7882 -0.8418  1.8832
   90SAPC  C318 8653   5.007   4.906   4.621 -0.0764  0.1790 -0.7270
   90SAPC  H18X 8654   4.921   4.927   4.554 -2.7034 -2.6644  1.4759
   90SAPC  H18Y 8655   4.958   4.821   4.674 -1.2819  0.8409 -0.7445
   90SAPC  H18Z 8656   5.087   4.863   4.556  0.0751  1.7100 -1.5978
   91SAPC     N 8657   4.818   6.303   6.911  0.0858  0.2495  0.1740
   91SAPC   C12 8658   4.850   6.157   6.935 -0.3842  0.1631 -0.1238
   91SAPC  H12A 8659   4.910   6.117   6.855 -0.1255  0.9844 -0.3559
   91SAPC  H12B 8660   4.763   6.095   6.927  0.7754 -1.4026 -1.3388
   91SAPC   C13 8661   4.932   6.400   6.924  0.1754  0.1149  0.1797
   91SAPC  H13A 8662   4.974   6.398   7.024 -0.3595 -1.0036  0.3990
   91SAPC  H13B 8663   5.013   6.381   6.855 -0.6701  2.9402 -1.7697
   91SAPC  H13C 8664   4.906   6.503   6.907 -1.0348 -0.3151 -0.7061
   91SAPC   C14 8665   4.741   6.328   6.778  0.5022 -0.4423  0.9891
   91SAPC  H14A 8666   4.715   6.433   6.769 -1.8524 -1.0314  0.2878
   91SAPC  H14B 8667   4.812   6.316   6.697 -0.9311  2.5961 -0.9464
   91SAPC  H14C 8668   4.650   6.272   6.763  0.7780 -0.8120  0.6606
   91SAPC   C15 8669   4.720   6.342   7.017 -0.2293  1.0390 -0.0750
   91SAPC  H15A 8670   4.681   6.441   6.995  0.5033  0.9862 -1.7472
   91SAPC  H15B 8671   4.639   6.271   7.017  0.6481 -0.0719 -2.7119
   91SAPC  H15C 8672   4.764   6.332   7.115 -1.5070  3.3030  0.8261
   91SAPC   C11 8673   4.929   6.122   7.061 -0.8375 -0.3724  0.0234
   91SAPC  H11A 8674   4.862   6.152   7.146  0.3659  0.1015  0.8367
   91SAPC  H11B 8675   5.019   6.185   7.082 -2.4185  1.0608  3.2607
   91SAPC     P 8676   5.050   5.909   6.987  0.2772  0.2549 -0.0176
   91SAPC   O13 8677   5.184   5.957   7.009  0.7712  0.0126 -0.1137
   91SAPC   O14 8678   5.030   5.760   7.007  0.1830  0.6574  0.4797
   91SAPC   O12 8679   4.951   5.984   7.083  0.2690  0.8585  0.1674
   91SAPC   O11 8680   5.004   5.945   6.844 -0.1981  0.6084  0.1955
   91SAPC    C1 8681   5.101   5.997   6.752 -0.1858  0.5013  1.0124
   91SAPC    HA 8682   5.127   6.104   6.765  0.4995  0.6110 -0.9748
   91SAPC    HB 8683   5.196   5.939   6.757 -0.7831 -0.4533  1.6022
   91SAPC    C2 8684   5.040   5.978   6.613  0.4994  0.3083  0.4803
   91SAPC    HS 8685   5.127   5.986   6.545  0.3176 -0.3629  0.1657
   91SAPC   O21 8686   4.938   6.079   6.581  0.0736  0.4436 -0.6320
   91SAPC   C21 8687   4.950   6.120   6.455  0.0410 -0.3750  0.5138
   91SAPC   O22 8688   5.028   6.074   6.374 -0.1702 -0.4258  0.8555
   91SAPC   C22 8689   4.860   6.235   6.421 -0.2842  0.5295 -0.3192
   91SAPC   H2R 8690   4.759   6.201   6.451  0.0176 -0.7023 -0.6222
   91SAPC   H2S 8691   4.889   6.312   6.497  0.6386 -0.2314  0.1279
   91SAPC    C3 8692   4.988   5.832   6.595  0.8489 -0.2437  0.1106
   91SAPC    HX 8693   4.883   5.823   6.629  1.3670 -2.9828  1.2786
   91SAPC    HY 8694   5.045   5.770   6.667  1.8781  0.3499 -0.1782
   91SAPC   O31 8695   4.997   5.795   6.451  0.3086 -0.5965  0.2867
   91SAPC   C31 8696   4.878   5.758   6.393  0.0967  0.1026 -0.1012
   91SAPC   O32 8697   4.771   5.755   6.448  0.3911 -0.1677 -0.3384
   91SAPC   C32 8698   4.911   5.737   6.245  0.6811 -0.9114  0.4209
   91SAPC   H2X 8699   4.982   5.654   6.225 -0.7271 -1.8262 -1.0391
   91SAPC   H2Y 8700   4.962   5.830   6.213 -2.1571  0.8011  0.4861
   91SAPC   C23 8701   4.854   6.258   6.269 -0.5939 -0.8037  0.1472
   91SAPC   H3R 8702   4.956   6.260   6.224 -1.2973 -0.2401 -1.4990
   91SAPC   H3S 8703   4.816   6.362   6.262  1.0633 -0.2423 -1.2190
   91SAPC   C24 8704   4.769   6.167   6.193  0.1892 -0.1421 -1.0691
   91SAPC   H4R 8705   4.668   6.177   6.238  0.1142 -1.0216 -1.0148
   91SAPC   H4S 8706   4.786   6.058   6.202 -2.9462 -0.7388 -0.9555
   91SAPC   C25 8707   4.758   6.211   6.048 -0.1383 -1.0367  0.4168
   91SAPC   H5R 8708   4.709   6.308   6.030 -0.2581 -1.3140 -0.8600
   91SAPC   C26 8709   4.819   6.156   5.944 -0.0153  0.2142  0.0465
   91SAPC   H6R 8710   4.807   6.200   5.844  0.8476  0.8338  0.2031
   91SAPC   C27 8711   4.915   6.040   5.936 -0.6363  0.1426 -0.2497
   91SAPC   H7R 8712   4.877   5.960   5.870 -0.3420 -0.4802  0.3255
   91SAPC   H7S 8713   4.924   5.985   6.032 -2.0779  0.1678 -0.0788
   91SAPC   C28 8714   5.046   6.087   5.888  0.1142 -0.0236  0.3629
   91SAPC   H8R 8715   5.110   6.137   5.962 -1.1966  2.4148 -0.0229
   91SAPC   C29 8716   5.097   6.063   5.772 -1.1383  0.3277  0.1692
   91SAPC   H9R 8717   5.195   6.104   5.745 -2.0353  1.3836 -1.7462
   91SAPC  C210 8718   5.035   5.986   5.654  0.2091 -0.2003  0.0715
   91SAPC  H10R 8719   4.933   6.027   5.640  0.8621  1.7004  0.6511
   91SAPC  H10S 8720   5.017   5.878   5.677  1.5287 -0.1520  1.5084
   91SAPC  C211 8721   5.112   5.987   5.523  0.1853 -0.1996  0.6040
   91SAPC  H11R 8722   5.221   5.983   5.533  0.3118  0.4330 -0.3205
   91SAPC  C212 8723   5.054   6.000   5.397 -0.1111  0.6928 -0.5645
   91SAPC  H12R 8724   5.118   6.021   5.311  0.5956 -1.3927 -0.5893
   91SAPC  C213 8725   4.902   5.996   5.373  0.2873 -1.2953 -0.4269
   91SAPC  H13R 8726   4.855   5.938   5.454  1.5358 -0.4209  0.9734
   91SAPC  H13S 8727   4.884   5.946   5.275 -0.1374  0.6138 -1.3724
   91SAPC  C214 8728   4.844   6.138   5.365  0.2651  0.7488 -0.0319
   91SAPC  H14R 8729   4.825   6.177   5.466  0.6470 -0.2387  0.4312
   91SAPC  C215 8730   4.789   6.202   5.253 -0.4200 -0.2918 -0.8547
   91SAPC  H15R 8731   4.734   6.296   5.270  1.6734  0.6478  1.3571
   91SAPC  C216 8732   4.808   6.159   5.108 -0.2863 -0.3347 -0.2359
   91SAPC  H16R 8733   4.749   6.235   5.052 -0.9784  0.1806  1.1562
   91SAPC  H16S 8734   4.742   6.071   5.098 -0.7225 -0.0504  0.0933
   91SAPC  C217 8735   4.952   6.133   5.061 -0.0047 -0.2718  0.4170
   91SAPC  H17R 8736   5.013   6.083   5.139 -0.5840  0.3355  1.2730
   91SAPC  H17S 8737   4.990   6.237   5.054 -0.0096 -0.1319  2.0899
   91SAPC  C218 8738   4.945   6.071   4.919 -0.7992 -0.1309 -0.0140
   91SAPC  H18R 8739   5.041   6.096   4.868 -1.2244 -1.2383 -1.4144
   91SAPC  H18S 8740   4.861   6.130   4.878 -0.3179  0.0271 -0.7875
   91SAPC  C219 8741   4.891   5.930   4.906 -0.3820 -0.1378  0.0195
   91SAPC  H19R 8742   4.861   5.924   4.799 -0.1334  1.1495 -0.1457
   91SAPC  H19S 8743   4.805   5.914   4.975  1.1809 -1.2571  1.7974
   91SAPC  C220 8744   4.997   5.821   4.942  0.0632  0.4405 -0.1261
   91SAPC  H20R 8745   5.009   5.816   5.053  0.2499 -0.4011 -0.1744
   91SAPC  H20S 8746   5.097   5.841   4.899 -1.0465  0.3814 -2.9115
   91SAPC  H20T 8747   4.957   5.724   4.906 -1.7266  0.7978  0.7427
   91SAPC   C33 8748   4.776   5.716   6.161 -0.3126  0.2909 -0.3014
   91SAPC   H3X 8749   4.713   5.805   6.181 -1.5645 -0.9966  1.9676
   91SAPC   H3Y 8750   4.732   5.625   6.206  0.7588 -0.6224 -1.0490
   91SAPC   C34 8751   4.823   5.703   6.014  0.5603  0.0600  0.3360
   91SAPC   H4X 8752   4.886   5.611   6.001 -0.2102 -0.1294 -3.2547
   91SAPC   H4Y 8753   4.901   5.779   5.993  1.7360 -1.0172  0.6567
   91SAPC   C35 8754   4.708   5.704   5.915  0.4034 -0.1825 -0.4809
   91SAPC   H5X 8755   4.657   5.802   5.922 -1.1069 -0.9032 -0.9891
   91SAPC   H5Y 8756   4.636   5.628   5.953 -0.0238  0.8146  0.7605
   91SAPC   C36 8757   4.748   5.672   5.768  0.2881 -0.0188  0.3285
   91SAPC   H6X 8758   4.789   5.570   5.754  2.7341  1.2786 -3.6592
   91SAPC   H6Y 8759   4.836   5.739   5.753  0.3548 -0.2611 -0.3627
   91SAPC   C37 8760   4.644   5.691   5.652  0.2608  0.7629 -0.3988
   91SAPC   H7X 8761   4.613   5.797   5.639 -0.1871  0.6477 -0.3014
   91SAPC   H7Y 8762   4.547   5.638   5.667  0.9511 -0.2379  0.7081
   91SAPC   C38 8763   4.701   5.633   5.517  0.0175 -1.1236  0.2350
   91SAPC   H8X 8764   4.722   5.525   5.524  0.3988 -1.0025  1.0350
   91SAPC   H8Y 8765   4.798   5.683   5.494 -0.8626  0.8986  0.6831
   91SAPC   C39 8766   4.614   5.681   5.403  0.2281  0.9805  0.9791
   91SAPC   H9X 8767   4.561   5.776   5.427 -0.9707  0.2216  1.4315
   91SAPC   H9Y 8768   4.530   5.608   5.396 -0.2827  1.6616 -0.3555
   91SAPC  C310 8769   4.666   5.683   5.258  0.1163  1.0567 -0.9341
   91SAPC  H10X 8770   4.677   5.580   5.216 -1.0929  1.2162 -1.6871
   91SAPC  H10Y 8771   4.770   5.722   5.268  1.2363 -1.5235 -1.6288
   91SAPC  C311 8772   4.588   5.772   5.161 -0.1976  0.2470 -0.0627
   91SAPC  H11X 8773   4.674   5.805   5.099  0.7968 -1.1086  0.5340
   91SAPC  H11Y 8774   4.552   5.861   5.217  0.4360  2.1785 -2.5316
   91SAPC  C312 8775   4.476   5.707   5.081  0.5535 -0.2553  0.0353
   91SAPC  H12X 8776   4.390   5.682   5.147  0.9067  2.5638  1.7706
   91SAPC  H12Y 8777   4.510   5.614   5.030 -1.1155  0.2752 -2.2038
   91SAPC  C313 8778   4.423   5.801   4.977  0.0214 -0.0189 -0.4864
   91SAPC  H13X 8779   4.387   5.896   5.024 -2.4779 -0.1810 -1.8976
   91SAPC  H13Y 8780   4.328   5.758   4.940 -0.4857  0.4826  0.2023
   91SAPC  C314 8781   4.525   5.838   4.862 -0.5169 -0.2975 -0.6379
   91SAPC  H14X 8782   4.569   5.750   4.810 -0.3522 -0.3559 -0.4023
   91SAPC  H14Y 8783   4.605   5.906   4.897 -0.0719 -0.1187 -1.9439
   91SAPC  C315 8784   4.469   5.910   4.744  0.1947 -0.3581  0.5462
   91SAPC  H15X 8785   4.395   5.852   4.684  0.3704  1.6180 -1.7468
   91SAPC  H15Y 8786   4.547   5.922   4.666  0.9171 -3.3849  0.6739
   91SAPC  C316 8787   4.415   6.052   4.767 -0.1864  0.0416 -0.2460
   91SAPC  H16X 8788   4.329   6.051   4.839  0.8842  0.2976  1.0772
   91SAPC  H16Y 8789   4.378   6.099   4.674 -0.9766 -1.6732 -0.8471
   91SAPC  C317 8790   4.529   6.141   4.827  0.2056  0.2175  0.7385
   91SAPC  H17X 8791   4.628   6.124   4.780 -1.1204 -1.9013 -1.5131
   91SAPC  H17Y 8792   4.555   6.122   4.934  0.8975  0.6552  0.6558
   91SAPC  C318 8793   4.481   6.290   4.815 -0.3845  0.0077  0.4533
   91SAPC  H18X 8794   4.544   6.360   4.874  1.0172  1.1056 -2.1680
   91SAPC  H18Y 8795   4.374   6.287   4.843 -1.0728 -1.1332 -2.0295
   91SAPC  H18Z 8796   4.472   6.319   4.709 -1.9342 -0.8911  0.3026
   92SAPC     N 8797   3.391   0.366   7.264  0.0269 -0.3018  0.1450
   92SAPC   C12 8798   3.443   0.311   7.129 -0.0676 -0.2362  0.1634
   92SAPC  H12A 8799   3.531   0.369   7.106  0.3273 -0.9608 -0.2005
   92SAPC  H12B 8800   3.371   0.343   7.055 -0.5745  0.3957  0.9204
   92SAPC   C13 8801   3.379   0.514   7.257  0.3595 -0.1268 -0.2556
   92SAPC  H13A 8802   3.349   0.561   7.349  1.5143 -0.3227  0.2481
   92SAPC  H13B 8803   3.473   0.564   7.239  1.2267 -0.2691  3.1837
   92SAPC  H13C 8804   3.309   0.541   7.180  1.8150 -1.0837 -2.0107
   92SAPC   C14 8805   3.249   0.309   7.282  0.3909 -0.0685 -0.5421
   92SAPC  H14A 8806   3.256   0.202   7.299  2.3893  0.1538  0.3630
   92SAPC  H14B 8807   3.207   0.358   7.368 -0.0744  1.1391 -1.4383
   92SAPC  H14C 8808   3.183   0.318   7.198 -0.9238 -0.6738  0.3937
   92SAPC   C15 8809   3.481   0.329   7.384  0.3518  0.4184  0.2936
   92SAPC  H15A 8810   3.436   0.345   7.481 -1.0365  1.8288 -0.5406
   92SAPC  H15B 8811   3.503   0.223   7.383 -0.6757  0.1467  2.0486
   92SAPC  H15C 8812   3.581   0.370   7.380  0.2451  0.5801 -1.8522
   92SAPC   C11 8813   3.477   0.168   7.114 -0.6383 -0.5347 -0.5434
   92SAPC  H11A 8814   3.495   0.136   7.009  1.0072 -1.2308 -0.0730
   92SAPC  H11B 8815   3.398   0.103   7.159 -1.7345  1.4778  0.6035
   92SAPC     P 8816   3.742   0.161   7.146 -0.0417  0.2329 -0.0684
   92SAPC   O13 8817   3.815   0.238   7.251  0.1740  0.0749  0.3554
   92SAPC   O14 8818   3.800   0.031   7.113  0.0188 -0.1980  0.7626
   92SAPC   O12 8819   3.594   0.145   7.193 -0.7497 -0.2482 -0.2043
   92SAPC   O11 8820   3.741   0.242   7.013  0.3810  0.2109 -1.0125
   92SAPC    C1 8821   3.763   0.377   7.000  0.2725 -0.4026  0.5647
   92SAPC    HA 8822   3.689   0.432   7.062  0.8697  0.1115  0.8332
   92SAPC    HB 8823   3.871   0.403   7.012  0.6488 -0.4459 -2.1074
   92SAPC    C2 8824   3.757   0.414   6.845  0.3301  0.1407 -0.1893
   92SAPC    HS 8825   3.652   0.385   6.823  0.0652  0.9015  0.0288
   92SAPC   O21 8826   3.843   0.321   6.780  0.4390  0.0967 -0.5013
   92SAPC   C21 8827   3.822   0.291   6.658 -0.3602 -0.0972 -0.1538
   92SAPC   O22 8828   3.738   0.337   6.581  0.1463  0.1752 -0.4435
   92SAPC   C22 8829   3.919   0.168   6.623  0.4068  0.1426 -0.4340
   92SAPC   H2R 8830   4.015   0.184   6.677 -0.2151 -1.5053  1.2536
   92SAPC   H2S 8831   3.864   0.081   6.664 -0.6736  0.9040 -0.2131
   92SAPC    C3 8832   3.791   0.563   6.818 -0.1262 -0.3512 -0.4980
   92SAPC    HX 8833   3.887   0.582   6.871 -1.3740  0.2367  1.6506
   92SAPC    HY 8834   3.712   0.626   6.863 -1.2372 -0.4352 -2.2467
   92SAPC   O31 8835   3.820   0.595   6.682 -0.1130  0.1463  0.3849
   92SAPC   C31 8836   3.735   0.675   6.618 -0.2978  0.4956 -0.6982
   92SAPC   O32 8837   3.636   0.724   6.672  0.0929  0.3068 -0.0673
   92SAPC   C32 8838   3.787   0.713   6.487 -0.6376  0.4525  0.7282
   92SAPC   H2X 8839   3.833   0.624   6.439 -0.1264  1.5241 -0.8469
   92SAPC   H2Y 8840   3.877   0.774   6.508  0.2906 -0.4247 -0.5318
   92SAPC   C23 8841   3.945   0.130   6.475  0.5950 -0.5358  0.2952
   92SAPC   H3R 8842   3.856   0.088   6.425  1.3374  0.2486 -1.8104
   92SAPC   H3S 8843   4.007   0.038   6.478  0.7969 -0.3740  1.3906
   92SAPC   C24 8844   4.013   0.241   6.384  0.6728  0.0054 -0.4617
   92SAPC   H4R 8845   3.956   0.334   6.400 -0.5731 -0.2501 -2.8719
   92SAPC   H4S 8846   3.989   0.206   6.281  0.1312  2.0957 -1.0861
   92SAPC   C25 8847   4.157   0.244   6.410  0.0934  0.7819 -0.5974
   92SAPC   H5R 8848   4.193   0.256   6.513 -1.2920 -1.2480  0.1918
   92SAPC   C26 8849   4.248   0.235   6.307 -0.0940 -0.7437  0.4179
   92SAPC   H6R 8850   4.355   0.249   6.329 -0.3445  1.0613  0.6430
   92SAPC   C27 8851   4.217   0.224   6.160  0.0560 -0.4184  0.6568
   92SAPC   H7R 8852   4.251   0.309   6.097 -1.2844 -0.7371 -0.5724
   92SAPC   H7S 8853   4.107   0.233   6.144  0.0019 -0.3905  1.0477
   92SAPC   C28 8854   4.256   0.091   6.097 -0.3554 -0.1273  0.2088
   92SAPC   H8R 8855   4.250   0.006   6.166 -0.6813 -0.4133 -0.1692
   92SAPC   C29 8856   4.279   0.066   5.967 -0.0342 -0.6380  0.2674
   92SAPC   H9R 8857   4.317  -0.035   5.945 -2.8844 -1.5739 -0.8654
   92SAPC  C210 8858   4.266   0.167   5.860 -0.4567 -0.2612 -0.4984
   92SAPC  H10R 8859   4.369   0.200   5.834 -0.1262 -1.1784 -0.3881
   92SAPC  H10S 8860   4.215   0.261   5.888  4.0318  1.5680  2.7715
   92SAPC  C211 8861   4.209   0.118   5.737 -0.3200  0.6723 -0.4964
   92SAPC  H11R 8862   4.288   0.070   5.677 -3.6522  0.2081 -5.0855
   92SAPC  C212 8863   4.078   0.128   5.696  0.0920 -0.0965 -0.4022
   92SAPC  H12R 8864   4.041   0.085   5.602  1.2527  1.3918 -1.5847
   92SAPC  C213 8865   3.959   0.188   5.766 -0.1548  0.5677  0.2725
   92SAPC  H13R 8866   3.932   0.273   5.700  0.7777  3.4369  3.3034
   92SAPC  H13S 8867   3.992   0.224   5.866 -1.9748  0.4469  0.9578
   92SAPC  C214 8868   3.843   0.095   5.796 -0.5443  0.3650  0.6335
   92SAPC  H14R 8869   3.856   0.046   5.893  1.2296  1.4867  1.0185
   92SAPC  C215 8870   3.733   0.073   5.726 -0.1596 -0.5213  0.7870
   92SAPC  H15R 8871   3.654   0.013   5.774 -0.7280 -0.1872  0.2874
   92SAPC  C216 8872   3.697   0.115   5.589 -0.4776 -0.7222 -0.6493
   92SAPC  H16R 8873   3.750   0.211   5.569 -1.5824  0.6227  2.2568
   92SAPC  H16S 8874   3.592   0.147   5.574 -0.2062 -0.3032 -1.7434
   92SAPC  C217 8875   3.737   0.011   5.498  0.7466 -0.4735 -0.0543
   92SAPC  H17R 8876   3.697  -0.088   5.530  0.0818 -0.1379  0.1809
   92SAPC  H17S 8877   3.847   0.005   5.492  0.8197  0.5495  0.1611
   92SAPC  C218 8878   3.682   0.039   5.354  0.1284  0.4595  0.5456
   92SAPC  H18R 8879   3.687  -0.054   5.293 -0.9641  0.5856  0.2544
   92SAPC  H18S 8880   3.748   0.112   5.302  0.1102  0.7460  0.9186
   92SAPC  C219 8881   3.535   0.078   5.338 -0.1673  0.1533  0.4820
   92SAPC  H19R 8882   3.511   0.161   5.407  0.4496  0.4249  0.3746
   92SAPC  H19S 8883   3.464  -0.005   5.359 -0.7600  0.1118 -1.4420
   92SAPC  C220 8884   3.498   0.133   5.201 -0.1491 -0.6732  0.3690
   92SAPC  H20R 8885   3.389   0.148   5.192 -0.2163 -0.9314  0.7278
   92SAPC  H20S 8886   3.519   0.054   5.125 -1.7712 -1.2376  0.4641
   92SAPC  H20T 8887   3.542   0.234   5.197  0.1762 -0.8397 -0.7300
   92SAPC   C33 8888   3.672   0.767   6.394 -0.0046  0.2172  0.3592
   92SAPC   H3X 8889   3.632   0.862   6.437 -0.4889  0.0555  0.2715
   92SAPC   H3Y 8890   3.588   0.695   6.389  0.3384 -0.1713  0.1121
   92SAPC   C34 8891   3.711   0.794   6.249 -0.5394  0.3141 -0.1371
   92SAPC   H4X 8892   3.780   0.713   6.216 -0.0779 -0.2596  2.0883
   92SAPC   H4Y 8893   3.771   0.885   6.231 -0.3305  0.1812 -0.1127
   92SAPC   C35 8894   3.593   0.801   6.153  0.0516  0.0956 -0.5907
   92SAPC   H5X 8895   3.525   0.884   6.182 -0.8648  0.3517 -3.1884
   92SAPC   H5Y 8896   3.528   0.711   6.151 -0.3499  0.3623  0.0990
   92SAPC   C36 8897   3.642   0.821   6.012  0.2141 -0.7260 -0.1756
   92SAPC   H6X 8898   3.655   0.722   5.963  1.3680 -1.7595  2.0986
   92SAPC   H6Y 8899   3.738   0.876   6.018 -0.4318  0.2642  1.8761
   92SAPC   C37 8900   3.543   0.895   5.923 -0.5562  0.1185  0.6086
   92SAPC   H7X 8901   3.527   0.992   5.976  1.4267 -0.0156  1.5478
   92SAPC   H7Y 8902   3.447   0.843   5.904 -0.0982  0.0886 -2.1451
   92SAPC   C38 8903   3.610   0.925   5.787 -0.7858 -0.1901  0.5770
   92SAPC   H8X 8904   3.660   0.837   5.742  1.4198  0.1192  2.2664
   92SAPC   H8Y 8905   3.692   0.995   5.812 -1.7989  1.2139  0.0834
   92SAPC   C39 8906   3.509   0.990   5.686  0.3338 -0.3012 -0.1784
   92SAPC   H9X 8907   3.467   1.078   5.738 -1.5923 -0.4044 -1.4443
   92SAPC   H9Y 8908   3.428   0.916   5.672 -1.4812  0.6355  3.9524
   92SAPC  C310 8909   3.561   1.045   5.554  0.2314  0.2480 -0.3273
   92SAPC  H10X 8910   3.617   1.136   5.585 -1.7498  0.6745  2.3493
   92SAPC  H10Y 8911   3.477   1.076   5.488 -0.1962  0.6204  0.3749
   92SAPC  C311 8912   3.655   0.952   5.485  0.3394 -0.1494 -0.4158
   92SAPC  H11X 8913   3.603   0.857   5.461  0.2579 -0.7081  1.7891
   92SAPC  H11Y 8914   3.739   0.932   5.554 -0.2319  0.1690  0.3862
   92SAPC  C312 8915   3.705   1.005   5.356 -0.2045  0.1293  0.2964
   92SAPC  H12X 8916   3.748   1.107   5.357  0.0798  0.0124  0.2219
   92SAPC  H12Y 8917   3.630   1.025   5.276 -0.6323  2.0104  1.1091
   92SAPC  C313 8918   3.797   0.900   5.302  0.9383 -0.0967 -0.5480
   92SAPC  H13X 8919   3.729   0.827   5.253 -1.1940  1.3314  0.1143
   92SAPC  H13Y 8920   3.865   0.854   5.376  0.5013  0.5662  0.2875
   92SAPC  C314 8921   3.894   0.965   5.197 -0.4839  0.4467 -0.4426
   92SAPC  H14X 8922   3.946   1.058   5.229  0.8098  0.1303 -1.5128
   92SAPC  H14Y 8923   3.831   0.999   5.111 -2.1126  1.9512  1.2474
   92SAPC  C315 8924   4.013   0.869   5.153  0.0499 -0.5993  0.4961
   92SAPC  H15X 8925   4.071   0.830   5.239  0.4944 -0.4356  0.2736
   92SAPC  H15Y 8926   4.084   0.933   5.095  0.3875 -0.5693  0.9413
   92SAPC  C316 8927   3.968   0.755   5.062  0.5465  0.0293 -0.1679
   92SAPC  H16X 8928   3.913   0.798   4.976  1.8302 -0.5379 -1.3038
   92SAPC  H16Y 8929   3.893   0.685   5.107 -0.5071 -0.2955 -2.2919
   92SAPC  C317 8930   4.093   0.688   5.004 -0.1471  0.1832 -0.0187
   92SAPC  H17X 8931   4.158   0.662   5.090 -0.8632 -1.6894 -0.0182
   92SAPC  H17Y 8932   4.147   0.754   4.932  1.7488  1.1898  2.1869
   92SAPC  C318 8933   4.063   0.557   4.925 -0.6691  0.1092 -0.1686
   92SAPC  H18X 8934   4.160   0.509   4.898 -0.0450  0.9852  0.4721
   92SAPC  H18Y 8935   3.999   0.581   4.838 -2.1646 -0.8628  0.6311
   92SAPC  H18Z 8936   4.001   0.487   4.985 -0.2442  1.1333  1.5602
   93SAPC     N 8937   0.595   6.526   6.817  0.1089  0.2952 -0.0088
   93SAPC   C12 8938   0.461   6.580   6.848 -0.1253  0.0723  0.5397
   93SAPC  H12A 8939   0.388   6.511   6.809 -2.0964  2.1970  0.2748
   93SAPC  H12B 8940   0.439   6.672   6.797  0.2167  0.3114  0.8173
   93SAPC   C13 8941   0.691   6.626   6.876 -0.3430 -0.3942  0.3088
   93SAPC  H13A 8942   0.683   6.720   6.825 -2.1109  1.3627  3.5156
   93SAPC  H13B 8943   0.657   6.650   6.976 -0.8087  0.6933 -0.0948
   93SAPC  H13C 8944   0.788   6.578   6.885 -0.8149 -1.4688 -0.0877
   93SAPC   C14 8945   0.620   6.391   6.887 -0.0631 -0.4857 -0.1998
   93SAPC  H14A 8946   0.548   6.318   6.854 -2.2844  0.3044  2.4637
   93SAPC  H14B 8947   0.722   6.357   6.883  0.6634  1.4787  0.4802
   93SAPC  H14C 8948   0.594   6.407   6.991 -3.0159 -1.5997 -0.6764
   93SAPC   C15 8949   0.623   6.515   6.671 -0.1123 -0.4813 -0.4746
   93SAPC  H15A 8950   0.595   6.420   6.629  0.0281 -1.0627  0.7031
   93SAPC  H15B 8951   0.590   6.601   6.614 -1.8238 -0.0007  1.1507
   93SAPC  H15C 8952   0.729   6.528   6.651 -0.6324  2.0840 -2.0012
   93SAPC   C11 8953   0.429   6.606   7.001 -0.0675 -0.3819  0.2424
   93SAPC  H11A 8954   0.444   6.516   7.064 -2.8207 -0.6077  0.6773
   93SAPC  H11B 8955   0.321   6.627   7.014  0.0244 -0.2745  0.8700
   93SAPC     P 8956   0.464   6.869   7.018  0.1830  0.0506  0.4515
   93SAPC   O13 8957   0.394   6.928   7.136  0.0232 -0.0162  0.4216
   93SAPC   O14 8958   0.586   6.935   6.969  0.3477  0.2965 -0.0728
   93SAPC   O12 8959   0.504   6.715   7.054 -0.2965 -0.1228  0.0647
   93SAPC   O11 8960   0.365   6.851   6.892  0.1844 -0.1801 -0.2752
   93SAPC    C1 8961   0.302   6.957   6.826 -0.3890 -0.3897 -0.1898
   93SAPC    HA 8962   0.199   6.963   6.867  0.2510  1.9246  1.2597
   93SAPC    HB 8963   0.349   7.052   6.858  1.2124 -1.7880  1.8541
   93SAPC    C2 8964   0.321   6.937   6.671  0.3828  0.2253 -0.2347
   93SAPC    HS 8965   0.262   7.020   6.627  1.0065  1.5442  1.3132
   93SAPC   O21 8966   0.280   6.807   6.621 -0.4792 -0.1730  0.1884
   93SAPC   C21 8967   0.150   6.788   6.634  0.0892 -1.2374 -0.8005
   93SAPC   O22 8968   0.074   6.867   6.685  0.1027 -0.5604  0.2208
   93SAPC   C22 8969   0.110   6.652   6.578 -0.0358  0.1872  0.0460
   93SAPC   H2R 8970   0.184   6.624   6.500  0.5618  1.6257  0.0687
   93SAPC   H2S 8971   0.104   6.580   6.662 -0.1351  1.7924  1.4758
   93SAPC    C3 8972   0.465   6.954   6.635  0.2829  0.1036  0.3814
   93SAPC    HX 8973   0.539   6.884   6.680 -0.5930 -0.1893  1.3814
   93SAPC    HY 8974   0.501   7.058   6.652  2.7967 -0.5104 -0.6113
   93SAPC   O31 8975   0.477   6.946   6.488  0.3458 -1.0060 -0.2849
   93SAPC   C31 8976   0.514   6.835   6.428  0.1932 -0.1011 -0.2133
   93SAPC   O32 8977   0.543   6.727   6.479  0.1485 -0.1854 -0.7574
   93SAPC   C32 8978   0.510   6.856   6.278  0.8817  0.5565 -0.2808
   93SAPC   H2X 8979   0.601   6.811   6.235 -0.4328 -1.6766 -0.8572
   93SAPC   H2Y 8980   0.509   6.965   6.254 -0.1887  0.1521 -2.2984
   93SAPC   C23 8981  -0.029   6.655   6.510  0.3606 -0.2127  0.2569
   93SAPC   H3R 8982  -0.106   6.686   6.584  0.8475 -1.2860  1.2474
   93SAPC   H3S 8983  -0.047   6.548   6.486 -1.3485 -0.7914  3.4625
   93SAPC   C24 8984  -0.038   6.752   6.392 -0.0269 -0.1593  0.4115
   93SAPC   H4R 8985   0.062   6.743   6.343 -0.8293 -1.2087 -1.1173
   93SAPC   H4S 8986  -0.055   6.859   6.416 -3.1778 -0.0148 -1.8871
   93SAPC   C25 8987  -0.151   6.708   6.299  0.1676 -0.2716  0.3612
   93SAPC   H5R 8988  -0.248   6.689   6.347 -0.5957  1.3651 -0.4870
   93SAPC   C26 8989  -0.145   6.663   6.175 -0.6831 -0.0633 -0.8034
   93SAPC   H6R 8990  -0.230   6.634   6.111 -0.6492 -0.2715 -0.7541
   93SAPC   C27 8991  -0.018   6.667   6.101 -0.2393 -0.2031  0.4561
   93SAPC   H7R 8992   0.051   6.744   6.142 -0.8059 -1.2091  3.6032
   93SAPC   H7S 8993  -0.036   6.712   6.001  2.4441  0.8244  0.3761
   93SAPC   C28 8994   0.043   6.528   6.088  0.4674 -0.2359  0.3647
   93SAPC   H8R 8995   0.095   6.498   6.180 -0.5542 -1.5044  0.5446
   93SAPC   C29 8996   0.025   6.438   5.993  0.0366 -0.5915  1.0769
   93SAPC   H9R 8997   0.071   6.339   6.005  3.0911  0.7511  1.4989
   93SAPC  C210 8998  -0.058   6.455   5.866  0.0882 -0.5678  0.0630
   93SAPC  H10R 8999   0.020   6.450   5.787  0.9293 -2.2757  0.9342
   93SAPC  H10S 9000  -0.097   6.558   5.873 -1.1782 -1.0980  1.1463
   93SAPC  C211 9001  -0.169   6.352   5.851  0.3424  0.3060 -0.1119
   93SAPC  H11R 9002  -0.218   6.330   5.947  0.9554  1.9888  0.6277
   93SAPC  C212 9003  -0.201   6.301   5.733  1.0115 -0.3258 -0.0985
   93SAPC  H12R 9004  -0.281   6.225   5.731  0.0223  0.6794  0.2665
   93SAPC  C213 9005  -0.140   6.328   5.601 -0.1442  0.4658 -1.1525
   93SAPC  H13R 9006  -0.160   6.242   5.534 -1.0006 -0.2279 -0.0460
   93SAPC  H13S 9007  -0.029   6.323   5.612 -0.1496  1.6706 -0.3907
   93SAPC  C214 9008  -0.185   6.461   5.539 -0.7011  0.0168  0.4400
   93SAPC  H14R 9009  -0.164   6.556   5.591  0.6402  0.3476 -0.6629
   93SAPC  C215 9010  -0.243   6.476   5.414 -0.6101  0.0494 -0.0365
   93SAPC  H15R 9011  -0.280   6.569   5.368  0.2357 -0.4627 -1.8243
   93SAPC  C216 9012  -0.263   6.367   5.313  0.4183  0.9079  0.2900
   93SAPC  H16R 9013  -0.262   6.267   5.362 -0.8717  0.1465 -1.1603
   93SAPC  H16S 9014  -0.188   6.369   5.230 -0.1110  0.7148 -0.1968
   93SAPC  C217 9015  -0.399   6.370   5.238  0.0926  0.1522 -0.1488
   93SAPC  H17R 9016  -0.407   6.271   5.188 -1.9107 -0.1267  0.6267
   93SAPC  H17S 9017  -0.383   6.443   5.156  1.0474 -0.3072 -0.3865
   93SAPC  C218 9018  -0.527   6.394   5.322  0.0933 -0.9423 -0.5923
   93SAPC  H18R 9019  -0.621   6.386   5.263  0.0392 -1.3213 -0.4610
   93SAPC  H18S 9020  -0.531   6.501   5.350 -0.9838 -0.9674 -0.5998
   93SAPC  C219 9021  -0.535   6.312   5.447  0.1521  0.5861 -0.6277
   93SAPC  H19R 9022  -0.441   6.299   5.504 -0.1135 -1.2091 -0.5408
   93SAPC  H19S 9023  -0.563   6.209   5.416  0.9778  0.4054 -0.7925
   93SAPC  C220 9024  -0.648   6.366   5.542  0.3092 -0.2448  0.3905
   93SAPC  H20R 9025  -0.662   6.301   5.631 -1.2035 -0.1436  0.2652
   93SAPC  H20S 9026  -0.744   6.375   5.486 -0.5634 -1.0435  1.6884
   93SAPC  H20T 9027  -0.609   6.461   5.585 -1.7541  1.2163 -0.7224
   93SAPC   C33 9028   0.383   6.785   6.232  0.4790  0.2332 -0.7743
   93SAPC   H3X 9029   0.294   6.847   6.258  1.0619  0.0577  1.9699
   93SAPC   H3Y 9030   0.366   6.685   6.277 -5.0616  1.1410 -0.1358
   93SAPC   C34 9031   0.379   6.759   6.082  0.2011 -0.3248  0.0088
   93SAPC   H4X 9032   0.298   6.685   6.065 -2.8921  2.1210  2.7787
   93SAPC   H4Y 9033   0.466   6.709   6.035 -1.1700 -1.2790 -1.6190
   93SAPC   C35 9034   0.324   6.883   6.004 -0.3614  0.7101 -0.2794
   93SAPC   H5X 9035   0.390   6.971   6.020  0.7853 -0.2775  0.6105
   93SAPC   H5Y 9036   0.226   6.910   6.048 -0.3215  0.6287 -0.1400
   93SAPC   C36 9037   0.306   6.837   5.859  0.1923  0.2746  1.0559
   93SAPC   H6X 9038   0.253   6.915   5.800  0.4156  0.6319  1.3271
   93SAPC   H6Y 9039   0.249   6.744   5.837  3.4502 -1.3038 -1.6308
   93SAPC   C37 9040   0.439   6.805   5.794 -0.0525 -0.0373  0.5580
   93SAPC   H7X 9041   0.480   6.706   5.821 -0.8683 -1.1989 -2.1056
   93SAPC   H7Y 9042   0.512   6.883   5.826 -0.0421 -1.0856  3.3234
   93SAPC   C38 9043   0.442   6.805   5.635  0.1139  0.0920 -0.0619
   93SAPC   H8X 9044   0.371   6.739   5.582  2.0138 -1.5424 -0.7206
   93SAPC   H8Y 9045   0.548   6.776   5.614  0.5195  1.3041  0.2265
   93SAPC   C39 9046   0.427   6.945   5.573  0.4324  0.1488 -0.1666
   93SAPC   H9X 9047   0.492   7.018   5.626  1.1516 -0.4139 -0.2619
   93SAPC   H9Y 9048   0.323   6.978   5.595  0.1739 -0.6850 -0.1226
   93SAPC  C310 9049   0.455   6.943   5.428  1.1297 -0.2514  0.9062
   93SAPC  H10X 9050   0.515   6.852   5.409  1.2373  0.0763 -0.5011
   93SAPC  H10Y 9051   0.515   7.029   5.391  0.6874  1.0943  3.1291
   93SAPC  C311 9052   0.327   6.928   5.339 -0.2040 -0.0058  0.0128
   93SAPC  H11X 9053   0.277   7.026   5.324  0.0100  0.2477  0.8606
   93SAPC  H11Y 9054   0.262   6.868   5.406 -0.1858 -3.2350 -2.6468
   93SAPC  C312 9055   0.356   6.854   5.206 -0.5304 -0.2910 -0.4150
   93SAPC  H12X 9056   0.263   6.828   5.152  0.3898 -1.1443 -1.6375
   93SAPC  H12Y 9057   0.400   6.757   5.239  3.7423  1.3679 -0.5587
   93SAPC  C313 9058   0.469   6.924   5.121 -0.1371 -0.9177 -0.6311
   93SAPC  H13X 9059   0.569   6.927   5.168 -0.4172  0.4882 -0.0877
   93SAPC  H13Y 9060   0.441   7.031   5.114  2.6184 -0.1770 -1.4318
   93SAPC  C314 9061   0.481   6.873   4.977  0.6891  0.1547  0.6552
   93SAPC  H14X 9062   0.473   6.762   4.973  1.2473  0.1461 -0.6716
   93SAPC  H14Y 9063   0.576   6.912   4.936  1.3450  0.3501  2.2655
   93SAPC  C315 9064   0.367   6.934   4.890  0.5058 -0.1271 -0.7755
   93SAPC  H15X 9065   0.378   7.044   4.874  0.3390 -0.0778 -0.5611
   93SAPC  H15Y 9066   0.271   6.926   4.945 -0.7469  0.4070 -2.7865
   93SAPC  C316 9067   0.344   6.858   4.756  0.2140 -1.2944  0.0746
   93SAPC  H16X 9068   0.273   6.777   4.783 -3.0864  2.1181  2.7614
   93SAPC  H16Y 9069   0.431   6.819   4.700  1.0338  1.2714 -0.5628
   93SAPC  C317 9070   0.263   6.953   4.665  0.0562 -0.2405 -0.1770
   93SAPC  H17X 9071   0.322   7.045   4.646 -0.0930 -0.3215 -1.0608
   93SAPC  H17Y 9072   0.175   6.976   4.728 -0.6822 -2.6050 -0.2358
   93SAPC  C318 9073   0.217   6.884   4.534  0.2124 -0.0225 -0.2179
   93SAPC  H18X 9074   0.127   6.824   4.559  0.2190  0.4508  1.0300
   93SAPC  H18Y 9075   0.299   6.832   4.481 -0.5466 -0.8929 -0.5647
   93SAPC  H18Z 9076   0.199   6.963   4.458 -2.8041 -2.1966 -1.9873
   94SAPC     N 9077   5.634   0.096   7.191  0.4887 -0.4832  0.1426
   94SAPC   C12 9078   5.651   0.198   7.085  0.7045 -0.7222  0.8122
   94SAPC  H12A 9079   5.666   0.295   7.129 -1.2492 -1.4901  3.4199
   94SAPC  H12B 9080   5.553   0.209   7.041  0.1164 -0.1441  2.2018
   94SAPC   C13 9081   5.514   0.141   7.280 -0.0927 -0.2478  0.1253
   94SAPC  H13A 9082   5.509   0.247   7.299  0.7378 -0.1189 -0.3377
   94SAPC  H13B 9083   5.427   0.101   7.230 -0.4398 -0.6528  1.0299
   94SAPC  H13C 9084   5.535   0.098   7.377  0.2039 -2.1172 -0.7177
   94SAPC   C14 9085   5.619  -0.045   7.140  0.8115  0.7830 -0.2678
   94SAPC  H14A 9086   5.523  -0.076   7.101 -0.3424  0.3335  2.6581
   94SAPC  H14B 9087   5.698  -0.063   7.068  1.5251 -1.5326  0.9703
   94SAPC  H14C 9088   5.634  -0.124   7.212 -2.1469  0.3058 -0.0485
   94SAPC   C15 9089   5.752   0.093   7.281  0.5609 -0.5424  0.2898
   94SAPC  H15A 9090   5.833   0.062   7.216  0.5844  0.8824 -0.3883
   94SAPC  H15B 9091   5.779   0.188   7.324  0.3604  0.3905 -1.5500
   94SAPC  H15C 9092   5.756   0.013   7.354 -3.1702 -1.0706  0.1088
   94SAPC   C11 9093   5.754   0.169   6.965  0.0554  0.2091  0.0826
   94SAPC  H11A 9094   5.860   0.161   6.999  0.7129 -0.5017 -1.9500
   94SAPC  H11B 9095   5.768   0.262   6.906 -1.4773  1.4999  1.6748
   94SAPC     P 9096   5.594   0.073   6.783  0.3074 -0.6767 -0.0377
   94SAPC   O13 9097   5.547  -0.060   6.733 -0.0043  0.2836 -0.9901
   94SAPC   O14 9098   5.494   0.160   6.847  0.3000  0.2569  0.0873
   94SAPC   O12 9099   5.715   0.059   6.879  0.3307  0.3363  0.2140
   94SAPC   O11 9100   5.649   0.151   6.659  0.2084 -0.0683 -0.1389
   94SAPC    C1 9101   5.779   0.123   6.609 -0.7775  0.3199  1.2390
   94SAPC    HA 9102   5.827   0.219   6.581 -0.7258 -0.4796 -1.7606
   94SAPC    HB 9103   5.855   0.078   6.677 -1.9215 -0.7339  1.8706
   94SAPC    C2 9104   5.773   0.043   6.474  0.5740 -0.1081 -0.1773
   94SAPC    HS 9105   5.872   0.034   6.426  0.0291 -2.9171 -0.9660
   94SAPC   O21 9106   5.672   0.099   6.381  0.2693  0.2690 -0.0526
   94SAPC   C21 9107   5.703   0.223   6.341 -0.6632  0.7533 -0.0026
   94SAPC   O22 9108   5.809   0.282   6.350  0.6783 -0.0794  0.2980
   94SAPC   C22 9109   5.584   0.274   6.270 -0.0249  0.2969 -0.0796
   94SAPC   H2R 9110   5.509   0.193   6.254 -0.3707 -0.5770  4.5879
   94SAPC   H2S 9111   5.544   0.347   6.343  0.4280 -1.2169  1.7637
   94SAPC    C3 9112   5.741  -0.109   6.492 -0.7077 -0.0676 -0.1465
   94SAPC    HX 9113   5.631  -0.116   6.495 -0.8921  1.7178 -1.1437
   94SAPC    HY 9114   5.781  -0.155   6.585  0.6494  0.5858 -0.3674
   94SAPC   O31 9115   5.805  -0.172   6.386  0.6195  0.4782  0.2861
   94SAPC   C31 9116   5.738  -0.191   6.267 -0.1238 -0.4732  0.0188
   94SAPC   O32 9117   5.619  -0.200   6.258  0.1711  0.1221  0.2936
   94SAPC   C32 9118   5.826  -0.187   6.145  0.3190 -0.2714 -0.4632
   94SAPC   H2X 9119   5.908  -0.260   6.164  2.3166  2.0690  0.5726
   94SAPC   H2Y 9120   5.873  -0.087   6.131 -1.8376  0.8489 -0.0559
   94SAPC   C23 9121   5.621   0.333   6.135 -0.1503  0.3805 -0.3616
   94SAPC   H3R 9122   5.683   0.423   6.151 -0.8335  1.2194 -2.1381
   94SAPC   H3S 9123   5.524   0.372   6.097 -0.6844  0.1674  0.7438
   94SAPC   C24 9124   5.680   0.233   6.039 -0.0122 -0.1802 -0.4399
   94SAPC   H4R 9125   5.767   0.183   6.085  0.6886  1.7571  0.4679
   94SAPC   H4S 9126   5.707   0.282   5.943 -0.8578  0.6532 -0.2693
   94SAPC   C25 9127   5.568   0.133   6.014 -0.2445 -0.2997  0.7795
   94SAPC   H5R 9128   5.561   0.045   6.080  0.0507 -0.4355  0.6288
   94SAPC   C26 9129   5.474   0.148   5.921  0.2358  0.6618 -0.5405
   94SAPC   H6R 9130   5.395   0.071   5.921  2.2444 -1.6129  2.0808
   94SAPC   C27 9131   5.464   0.251   5.817  0.5063  0.2338 -0.6461
   94SAPC   H7R 9132   5.535   0.333   5.843 -1.2427  1.4925  0.4197
   94SAPC   H7S 9133   5.363   0.296   5.821 -0.7697 -2.4282 -1.1776
   94SAPC   C28 9134   5.477   0.209   5.670  0.2202  0.9608  0.2637
   94SAPC   H8R 9135   5.548   0.126   5.659 -0.9050  0.2345 -2.0030
   94SAPC   C29 9136   5.413   0.271   5.567  0.1368  0.1599 -0.0776
   94SAPC   H9R 9137   5.430   0.235   5.464 -1.1645  1.2357 -0.7054
   94SAPC  C210 9138   5.317   0.386   5.570  0.1167 -0.2914 -0.6940
   94SAPC  H10R 9139   5.266   0.388   5.669  2.1705  1.6629  0.3930
   94SAPC  H10S 9140   5.246   0.365   5.486  0.8446 -0.1356 -1.3598
   94SAPC  C211 9141   5.377   0.525   5.559 -0.2143 -0.0728  0.2496
   94SAPC  H11R 9142   5.387   0.583   5.652  0.7116 -0.0001  0.1148
   94SAPC  C212 9143   5.443   0.577   5.450 -0.4296  0.1773  0.3073
   94SAPC  H12R 9144   5.483   0.679   5.462 -1.5707  0.7178 -0.3221
   94SAPC  C213 9145   5.461   0.513   5.314 -0.3035  0.3730 -0.8152
   94SAPC  H13R 9146   5.445   0.404   5.296  3.3373 -0.1404 -1.8877
   94SAPC  H13S 9147   5.571   0.530   5.309 -0.7240  4.4066  0.6045
   94SAPC  C214 9148   5.392   0.600   5.210  0.7313  0.0977 -0.1318
   94SAPC  H14R 9149   5.306   0.662   5.239  1.9076  0.0533  3.9889
   94SAPC  C215 9150   5.429   0.596   5.081 -0.5316  0.4220 -1.0041
   94SAPC  H15R 9151   5.365   0.636   5.002 -0.7255  1.0372 -0.5443
   94SAPC  C216 9152   5.556   0.511   5.037  0.1185  0.1278  0.0732
   94SAPC  H16R 9153   5.616   0.465   5.118  0.7668  0.2417 -0.3244
   94SAPC  H16S 9154   5.620   0.577   4.973  0.5805 -0.1121  0.2791
   94SAPC  C217 9155   5.542   0.394   4.943  0.4755 -0.3273 -0.1075
   94SAPC  H17R 9156   5.640   0.387   4.891  1.6149  1.8320  1.5974
   94SAPC  H17S 9157   5.469   0.412   4.861  0.3329 -0.6846 -0.0588
   94SAPC  C218 9158   5.503   0.254   4.997 -0.6396 -0.7560 -0.0010
   94SAPC  H18R 9159   5.425   0.276   5.074 -0.4919 -1.0190  0.2275
   94SAPC  H18S 9160   5.588   0.223   5.061 -0.8826  2.7216  2.2782
   94SAPC  C219 9161   5.455   0.160   4.889 -0.1674 -0.7695  0.1388
   94SAPC  H19R 9162   5.539   0.159   4.817  1.0904  1.0422  1.4909
   94SAPC  H19S 9163   5.368   0.197   4.831 -1.7272 -1.2818  2.0364
   94SAPC  C220 9164   5.423   0.019   4.938 -0.4911 -0.1942  0.3728
   94SAPC  H20R 9165   5.380  -0.042   4.856 -3.2256 -0.1157  1.6279
   94SAPC  H20S 9166   5.346   0.030   5.018 -0.8692 -1.1118  0.1471
   94SAPC  H20T 9167   5.511  -0.022   4.991 -1.3378 -2.1862  0.3397
   94SAPC   C33 9168   5.745  -0.210   6.011  0.3079  0.6198  0.0452
   94SAPC   H3X 9169   5.672  -0.129   5.991  2.0826  1.9845 -1.2512
   94SAPC   H3Y 9170   5.682  -0.300   6.028 -2.9916  3.0827  2.2254
   94SAPC   C34 9171   5.841  -0.226   5.893 -0.6174 -0.6827  0.2792
   94SAPC   H4X 9172   5.922  -0.297   5.917  1.5316  2.1162  1.7998
   94SAPC   H4Y 9173   5.897  -0.131   5.882 -0.7784 -0.8322 -3.0059
   94SAPC   C35 9174   5.760  -0.246   5.764  0.6288 -0.0525  0.1604
   94SAPC   H5X 9175   5.679  -0.170   5.758 -0.4682 -1.2649 -1.3777
   94SAPC   H5Y 9176   5.708  -0.343   5.773 -0.6456  0.7770  2.5650
   94SAPC   C36 9177   5.856  -0.235   5.643 -0.0613  0.5122 -0.8632
   94SAPC   H6X 9178   5.929  -0.318   5.631  0.6752  1.4329 -3.7639
   94SAPC   H6Y 9179   5.912  -0.139   5.643  3.1238 -1.0336  3.5897
   94SAPC   C37 9180   5.777  -0.236   5.512 -0.0696 -0.3604 -0.2160
   94SAPC   H7X 9181   5.711  -0.147   5.507  0.2749 -0.1461 -1.3413
   94SAPC   H7Y 9182   5.706  -0.321   5.505 -0.8886  0.0818  2.0745
   94SAPC   C38 9183   5.877  -0.212   5.398  1.0761 -0.4623 -0.1536
   94SAPC   H8X 9184   5.967  -0.277   5.402  1.3843 -0.1069 -1.0952
   94SAPC   H8Y 9185   5.909  -0.107   5.416 -0.6833 -0.0611  0.8870
   94SAPC   C39 9186   5.810  -0.209   5.257  0.5292  0.3050 -0.1985
   94SAPC   H9X 9187   5.710  -0.162   5.260  0.0079 -0.7873  0.1245
   94SAPC   H9Y 9188   5.778  -0.310   5.224  0.4088 -0.1477  1.2570
   94SAPC  C310 9189   5.894  -0.130   5.160 -0.1166 -0.1109  0.1167
   94SAPC  H10X 9190   5.928  -0.037   5.211 -1.5253  1.6469 -1.9919
   94SAPC  H10Y 9191   5.828  -0.088   5.081  1.0314  0.6060 -0.4813
   94SAPC  C311 9192   6.007  -0.218   5.100 -0.2503 -0.0749 -0.3996
   94SAPC  H11X 9193   5.955  -0.305   5.054 -1.0301 -0.6970  1.5488
   94SAPC  H11Y 9194   6.072  -0.263   5.177 -1.5362  0.3515  0.9815
   94SAPC  C312 9195   6.098  -0.145   4.998 -0.5199 -0.0713 -0.6473
   94SAPC  H12X 9196   6.120  -0.052   5.055  1.0360 -0.6859 -0.2002
   94SAPC  H12Y 9197   6.039  -0.119   4.907  1.1793  0.5613 -1.6010
   94SAPC  C313 9198   6.228  -0.208   4.942  0.4828  0.6502 -0.7932
   94SAPC  H13X 9199   6.196  -0.299   4.888  0.7646  0.0757 -0.0020
   94SAPC  H13Y 9200   6.295  -0.252   5.018 -0.1006 -1.3245 -1.3563
   94SAPC  C314 9201   6.320  -0.121   4.855  0.0304  0.2309  0.1452
   94SAPC  H14X 9202   6.361  -0.034   4.911 -1.2682  0.3796  0.9207
   94SAPC  H14Y 9203   6.265  -0.077   4.769 -0.7843  1.4577  1.2623
   94SAPC  C315 9204   6.432  -0.206   4.792  0.1894 -0.5394  0.0616
   94SAPC  H15X 9205   6.386  -0.302   4.758 -0.4148  0.4915 -2.2090
   94SAPC  H15Y 9206   6.511  -0.224   4.868 -0.6552  0.0089  1.0999
   94SAPC  C316 9207   6.483  -0.124   4.669 -0.4652  0.0747 -0.6758
   94SAPC  H16X 9208   6.515  -0.021   4.697 -0.2821 -0.2060  0.1653
   94SAPC  H16Y 9209   6.394  -0.090   4.612 -1.6882 -0.2053  1.0245
   94SAPC  C317 9210   6.572  -0.194   4.573  0.0392  0.0630  0.1128
   94SAPC  H17X 9211   6.517  -0.284   4.537 -0.1828  0.3210 -0.2017
   94SAPC  H17Y 9212   6.652  -0.236   4.636 -1.9431  0.1553  2.8659
   94SAPC  C318 9213   6.636  -0.121   4.462  0.3758  0.8556  0.7466
   94SAPC  H18X 9214   6.724  -0.167   4.413 -0.4116  1.0986 -0.9606
   94SAPC  H18Y 9215   6.668  -0.017   4.485 -0.8459  1.8733 -1.7733
   94SAPC  H18Z 9216   6.554  -0.108   4.389  3.0048  1.7552 -2.2888
   95SAPC     N 9217   0.643   3.478   2.307 -0.0595 -0.0020  0.0796
   95SAPC   C12 9218   0.720   3.495   2.432 -0.3609  0.4274 -0.4663
   95SAPC  H12A 9219   0.685   3.428   2.508 -2.3007  1.8019 -0.0597
   95SAPC  H12B 9220   0.705   3.590   2.482 -2.7350 -1.2575  2.3131
   95SAPC   C13 9221   0.711   3.562   2.199  0.0343 -0.2157  0.4735
   95SAPC  H13A 9222   0.710   3.666   2.227  1.9591 -0.0017 -0.1508
   95SAPC  H13B 9223   0.811   3.529   2.177  0.2407 -0.2959  1.4672
   95SAPC  H13C 9224   0.652   3.548   2.110 -2.0108  1.1736  1.5194
   95SAPC   C14 9225   0.641   3.338   2.263 -0.8498 -0.3502  0.3406
   95SAPC  H14A 9226   0.624   3.320   2.158 -1.9251 -1.3102  0.6478
   95SAPC  H14B 9227   0.728   3.283   2.297 -0.8823  0.2448  1.4499
   95SAPC  H14C 9228   0.565   3.290   2.323  0.0827  0.4586  2.2708
   95SAPC   C15 9229   0.501   3.531   2.323  0.0030 -0.5684 -0.0640
   95SAPC  H15A 9230   0.449   3.468   2.394  0.5999 -2.0266 -0.8913
   95SAPC  H15B 9231   0.500   3.634   2.355 -2.1966 -0.3311 -0.7390
   95SAPC  H15C 9232   0.441   3.528   2.233 -0.8254 -4.0966  0.4859
   95SAPC   C11 9233   0.875   3.460   2.430 -0.4515 -0.3480 -0.0500
   95SAPC  H11A 9234   0.909   3.499   2.528 -1.4574  1.1364 -0.2514
   95SAPC  H11B 9235   0.923   3.519   2.349 -1.4642  1.2788  0.4925
   95SAPC     P 9236   0.853   3.213   2.514 -0.1094  0.4045  0.1639
   95SAPC   O13 9237   0.759   3.129   2.443 -0.1013  0.6193  0.0736
   95SAPC   O14 9238   0.959   3.141   2.580 -0.2725 -0.1480  0.1268
   95SAPC   O12 9239   0.909   3.321   2.411 -0.1664 -0.3985  0.2411
   95SAPC   O11 9240   0.776   3.289   2.628  0.0759  0.5307  0.0221
   95SAPC    C1 9241   0.685   3.221   2.709  0.1472 -0.4195  0.5169
   95SAPC    HA 9242   0.613   3.161   2.650  0.2635 -0.9076  0.8622
   95SAPC    HB 9243   0.738   3.150   2.776 -1.2237 -1.7807  0.2177
   95SAPC    C2 9244   0.602   3.323   2.808 -0.1402  0.3192 -0.0127
   95SAPC    HS 9245   0.534   3.384   2.744  0.0535  1.0274  0.4427
   95SAPC   O21 9246   0.699   3.404   2.878  0.3729 -0.3213 -0.3604
   95SAPC   C21 9247   0.647   3.518   2.925  0.3882  0.6309 -0.8105
   95SAPC   O22 9248   0.532   3.555   2.908 -0.0182 -0.2415 -0.1537
   95SAPC   C22 9249   0.761   3.594   2.996 -0.4729 -0.2651 -0.8887
   95SAPC   H2R 9250   0.831   3.517   3.035 -0.2402  0.8486  1.0692
   95SAPC   H2S 9251   0.827   3.662   2.938 -0.5372  1.3440  0.8184
   95SAPC    C3 9252   0.501   3.249   2.905 -0.2054 -0.4911 -0.0375
   95SAPC    HX 9253   0.428   3.191   2.845 -0.8313  0.2070  0.0255
   95SAPC    HY 9254   0.446   3.328   2.962  0.7807 -1.3801  2.2817
   95SAPC   O31 9255   0.558   3.159   2.998 -0.2138  0.1362 -0.3083
   95SAPC   C31 9256   0.611   3.206   3.110  0.0658  0.1059  0.5709
   95SAPC   O32 9257   0.583   3.308   3.162  0.3198 -0.2333 -0.4481
   95SAPC   C32 9258   0.719   3.106   3.154  0.0597  0.4650 -0.2401
   95SAPC   H2X 9259   0.774   3.156   3.237 -0.6356 -0.3994  0.7702
   95SAPC   H2Y 9260   0.789   3.076   3.074 -0.1223  1.0928 -0.6434
   95SAPC   C23 9261   0.712   3.688   3.111  0.2898 -0.6576 -0.2683
   95SAPC   H3R 9262   0.652   3.639   3.191  1.0390  2.3244  2.3210
   95SAPC   H3S 9263   0.641   3.762   3.067  0.7308 -0.8472 -1.3155
   95SAPC   C24 9264   0.833   3.755   3.176  0.2170 -0.8623  0.5337
   95SAPC   H4R 9265   0.918   3.766   3.105  1.0963 -2.6239  1.2578
   95SAPC   H4S 9266   0.873   3.689   3.256  0.1375 -0.5438  0.8386
   95SAPC   C25 9267   0.797   3.891   3.235  0.1070  0.7114 -0.1559
   95SAPC   H5R 9268   0.814   3.976   3.167 -1.0055  0.4117 -0.8355
   95SAPC   C26 9269   0.748   3.921   3.357 -0.2740 -0.1554 -0.2630
   95SAPC   H6R 9270   0.733   4.028   3.378 -0.8418 -0.1699 -0.6047
   95SAPC   C27 9271   0.721   3.814   3.459 -0.3532 -0.1299  0.6575
   95SAPC   H7R 9272   0.819   3.767   3.482  0.8520  1.8273 -0.1579
   95SAPC   H7S 9273   0.658   3.734   3.415  0.8831 -0.6486 -0.2240
   95SAPC   C28 9274   0.647   3.869   3.576  0.9021 -0.2576  1.1353
   95SAPC   H8R 9275   0.560   3.930   3.547  0.5017 -1.6599 -0.9048
   95SAPC   C29 9276   0.676   3.860   3.704  0.4778  0.2377  0.1458
   95SAPC   H9R 9277   0.601   3.903   3.772 -2.4313 -1.3202 -1.8539
   95SAPC  C210 9278   0.791   3.788   3.771  0.1400 -0.0551 -0.4711
   95SAPC  H10R 9279   0.835   3.871   3.830 -2.5769  1.1098  0.0596
   95SAPC  H10S 9280   0.866   3.739   3.704  1.6401  1.6466 -0.1133
   95SAPC  C211 9281   0.762   3.678   3.873 -0.6835  0.1036  0.1733
   95SAPC  H11R 9282   0.658   3.667   3.907 -1.4400 -5.9312 -2.6454
   95SAPC  C212 9283   0.850   3.595   3.926 -0.3016  0.1822 -0.2547
   95SAPC  H12R 9284   0.817   3.512   3.990  3.5067 -2.1755 -1.0462
   95SAPC  C213 9285   1.002   3.601   3.888  0.0104  0.0192 -0.2005
   95SAPC  H13R 9286   1.044   3.693   3.935 -0.9797  0.1945  0.3785
   95SAPC  H13S 9287   1.020   3.631   3.783  1.4457 -1.2188 -0.3411
   95SAPC  C214 9288   1.085   3.483   3.930 -0.6857 -0.7331  0.3091
   95SAPC  H14R 9289   1.126   3.416   3.853 -1.9323 -0.1581 -0.8997
   95SAPC  C215 9290   1.118   3.460   4.060 -0.5093  0.4447  0.9845
   95SAPC  H15R 9291   1.180   3.373   4.088 -0.3677  0.1948 -0.0643
   95SAPC  C216 9292   1.085   3.551   4.171  0.7276 -0.4516 -0.1474
   95SAPC  H16R 9293   1.010   3.509   4.241 -1.4215  0.2511 -1.9055
   95SAPC  H16S 9294   1.039   3.644   4.133 -0.2209 -1.2272 -0.9349
   95SAPC  C217 9295   1.206   3.599   4.251  0.0863  0.8920  0.2048
   95SAPC  H17R 9296   1.179   3.696   4.297 -0.0315  1.5207 -1.1183
   95SAPC  H17S 9297   1.294   3.615   4.184 -1.3382 -1.4084 -2.4176
   95SAPC  C218 9298   1.254   3.499   4.357  0.0001 -0.6823  0.1589
   95SAPC  H18R 9299   1.273   3.397   4.318  0.0044 -1.0145  1.0166
   95SAPC  H18S 9300   1.173   3.500   4.433 -0.4304 -0.8219 -0.2894
   95SAPC  C219 9301   1.387   3.552   4.414  0.1663  0.3877 -0.6488
   95SAPC  H19R 9302   1.388   3.662   4.402 -2.8764  0.3532 -2.4441
   95SAPC  H19S 9303   1.472   3.503   4.363  0.7874 -0.9497  1.5422
   95SAPC  C220 9304   1.417   3.509   4.559  0.5643  0.2584 -0.2288
   95SAPC  H20R 9305   1.512   3.551   4.599  1.2597 -1.8455  0.4821
   95SAPC  H20S 9306   1.419   3.400   4.581  2.2986  0.7929  2.9133
   95SAPC  H20T 9307   1.334   3.543   4.624  0.4883  1.1467 -0.7786
   95SAPC   C33 9308   0.659   2.982   3.220  0.3461  0.4648  0.0383
   95SAPC   H3X 9309   0.739   2.906   3.233 -1.1181 -1.6832 -2.5099
   95SAPC   H3Y 9310   0.578   2.936   3.160 -1.6345  3.5439  0.1374
   95SAPC   C34 9311   0.605   3.004   3.362 -0.1100  0.6149 -0.4372
   95SAPC   H4X 9312   0.550   3.101   3.363 -0.4630  0.4267 -0.9837
   95SAPC   H4Y 9313   0.678   3.005   3.446 -3.5647 -2.8197  3.0241
   95SAPC   C35 9314   0.500   2.898   3.407 -1.1158 -0.1566  0.2885
   95SAPC   H5X 9315   0.541   2.797   3.386 -0.7047  0.2514 -1.0304
   95SAPC   H5Y 9316   0.407   2.904   3.345 -1.2101 -0.3797  0.4082
   95SAPC   C36 9317   0.460   2.903   3.555 -0.1386 -0.1023 -0.6831
   95SAPC   H6X 9318   0.401   2.810   3.572  0.3777 -0.2017  0.6970
   95SAPC   H6Y 9319   0.397   2.989   3.585 -0.8173 -0.9282  0.3097
   95SAPC   C37 9320   0.573   2.906   3.664 -0.1946  0.0396 -0.1457
   95SAPC   H7X 9321   0.654   2.973   3.628 -0.1897  0.4677  0.6463
   95SAPC   H7Y 9322   0.628   2.810   3.673  0.5802  0.4960  0.0361
   95SAPC   C38 9323   0.529   2.950   3.804 -0.4274 -0.7366 -0.3437
   95SAPC   H8X 9324   0.463   2.872   3.846 -1.3862  0.5647  0.6700
   95SAPC   H8Y 9325   0.477   3.049   3.807  2.1929  0.8298 -1.9704
   95SAPC   C39 9326   0.653   2.952   3.901 -0.5803 -0.2895  0.0943
   95SAPC   H9X 9327   0.721   3.029   3.859 -0.2344 -0.7441 -0.1995
   95SAPC   H9Y 9328   0.712   2.859   3.880 -1.3856 -0.8682  0.3719
   95SAPC  C310 9329   0.622   2.983   4.051 -0.4605 -0.3714  0.2348
   95SAPC  H10X 9330   0.558   2.911   4.107  0.4722  1.0978  3.4014
   95SAPC  H10Y 9331   0.576   3.084   4.051  1.4195  0.5292  0.0535
   95SAPC  C311 9332   0.755   2.986   4.132 -0.3739  0.1898 -0.0993
   95SAPC  H11X 9333   0.759   3.079   4.193 -0.2371 -0.2869  0.6305
   95SAPC  H11Y 9334   0.841   2.991   4.062 -0.2622 -2.2837 -0.2187
   95SAPC  C312 9335   0.786   2.873   4.224 -0.2389 -0.1559  0.1621
   95SAPC  H12X 9336   0.789   2.779   4.164 -1.9036  1.7347 -3.1730
   95SAPC  H12Y 9337   0.717   2.848   4.308 -3.1410  0.8269 -1.7755
   95SAPC  C313 9338   0.929   2.895   4.273  0.6138  0.2437  0.4699
   95SAPC  H13X 9339   0.915   2.992   4.327  0.9005 -0.7528  2.4480
   95SAPC  H13Y 9340   1.005   2.904   4.194 -0.0215  0.0907 -0.1689
   95SAPC  C314 9341   0.965   2.805   4.389 -0.2309 -0.0753 -0.4474
   95SAPC  H14X 9342   1.019   2.719   4.343 -0.0068 -0.0637 -0.2061
   95SAPC  H14Y 9343   0.875   2.771   4.444 -0.0931  2.6672  1.6287
   95SAPC  C315 9344   1.068   2.875   4.477 -0.1430  0.3083  0.5284
   95SAPC  H15X 9345   1.020   2.963   4.525  3.3760  2.2089  0.9397
   95SAPC  H15Y 9346   1.154   2.916   4.419  1.4335 -0.7915  1.9898
   95SAPC  C316 9347   1.125   2.777   4.594  0.8089 -0.0445 -0.1377
   95SAPC  H16X 9348   1.188   2.837   4.663 -0.1260  0.3190  0.4026
   95SAPC  H16Y 9349   1.204   2.714   4.546  1.4733 -1.1655  2.2206
   95SAPC  C317 9350   1.031   2.679   4.659  0.3458  0.3648 -0.3575
   95SAPC  H17X 9351   0.993   2.609   4.581 -0.4651  0.5828 -0.1730
   95SAPC  H17Y 9352   0.945   2.737   4.700 -0.9329 -2.2922  0.9625
   95SAPC  C318 9353   1.088   2.599   4.784 -0.1270  0.2533  0.8207
   95SAPC  H18X 9354   1.011   2.532   4.829 -0.1785 -0.3057 -0.0609
   95SAPC  H18Y 9355   1.131   2.672   4.856  0.4413 -0.3069  1.0643
   95SAPC  H18Z 9356   1.169   2.529   4.753  1.0841  2.4176 -1.2376
   96SAPC     N 9357   0.181   5.030   2.190  0.1890  0.2988  0.1351
   96SAPC   C12 9358   0.124   4.970   2.324 -0.1513  0.2305  0.0483
   96SAPC  H12A 9359   0.170   4.876   2.349 -0.5767  0.7774  3.3930
   96SAPC  H12B 9360   0.020   4.943   2.316 -0.7366  2.4336 -0.4666
   96SAPC   C13 9361   0.297   5.117   2.216 -0.5951  0.1134  0.2876
   96SAPC  H13A 9362   0.320   5.180   2.131 -1.7889 -1.5270 -1.3466
   96SAPC  H13B 9363   0.275   5.180   2.301  0.2660 -0.9395  1.3293
   96SAPC  H13C 9364   0.381   5.053   2.239  0.1167  1.5775  1.9581
   96SAPC   C14 9365   0.217   4.917   2.101 -0.0454  0.1692  0.3916
   96SAPC  H14A 9366   0.286   4.846   2.146 -0.7532 -2.5117 -2.4214
   96SAPC  H14B 9367   0.132   4.868   2.056 -0.3700  3.1333 -2.5381
   96SAPC  H14C 9368   0.263   4.964   2.016 -1.5213  1.4183  0.2478
   96SAPC   C15 9369   0.085   5.122   2.116 -0.4523  0.2465  0.4990
   96SAPC  H15A 9370   0.059   5.209   2.173  1.4551  1.5261 -0.4419
   96SAPC  H15B 9371   0.136   5.157   2.027 -0.0869 -0.0216  0.6006
   96SAPC  H15C 9372  -0.006   5.078   2.079 -1.1513  1.7071  0.4067
   96SAPC   C11 9373   0.150   5.051   2.449  0.4437 -0.2381 -0.5901
   96SAPC  H11A 9374   0.258   5.074   2.460  0.5160 -0.9186  0.1916
   96SAPC  H11B 9375   0.131   4.989   2.539  0.9628  1.0424  0.4333
   96SAPC     P 9376  -0.070   5.176   2.505  0.1922  0.6071  0.6469
   96SAPC   O13 9377  -0.124   5.311   2.507 -0.4595 -0.0552  0.2917
   96SAPC   O14 9378  -0.152   5.070   2.431 -0.1849  0.3373  0.1978
   96SAPC   O12 9379   0.077   5.175   2.455  0.0795  0.2021  0.3854
   96SAPC   O11 9380  -0.058   5.137   2.656  0.0537 -0.2991 -0.0902
   96SAPC    C1 9381   0.057   5.165   2.739  0.9639 -0.3821  0.7206
   96SAPC    HA 9382   0.113   5.073   2.765  1.0866 -1.1920 -2.0606
   96SAPC    HB 9383   0.126   5.233   2.684  1.5540 -0.6741  1.0896
   96SAPC    C2 9384   0.014   5.228   2.873 -0.3783  0.4183  0.2969
   96SAPC    HS 9385  -0.041   5.153   2.934 -2.6212 -0.8356 -2.9605
   96SAPC   O21 9386  -0.068   5.341   2.850 -0.0851  0.2224 -0.1506
   96SAPC   C21 9387  -0.195   5.318   2.843 -0.1913 -0.4472 -0.4814
   96SAPC   O22 9388  -0.256   5.211   2.864  0.0034  0.5087 -0.0774
   96SAPC   C22 9389  -0.265   5.453   2.837 -0.0637  0.1647  0.4540
   96SAPC   H2R 9390  -0.252   5.494   2.735 -3.3869  0.6414  0.1073
   96SAPC   H2S 9391  -0.375   5.441   2.840 -0.2708  1.6764 -0.3613
   96SAPC    C3 9392   0.139   5.271   2.961  0.3808 -0.2776  0.4096
   96SAPC    HX 9393   0.193   5.346   2.900 -2.7335  1.2437 -0.7211
   96SAPC    HY 9394   0.214   5.189   2.962  2.4259  1.3102 -3.2479
   96SAPC   O31 9395   0.114   5.304   3.096  0.6499 -0.1295  0.1683
   96SAPC   C31 9396   0.105   5.437   3.114 -0.2410 -0.4802  0.5387
   96SAPC   O32 9397   0.113   5.520   3.025 -0.0547 -0.3397 -0.0917
   96SAPC   C32 9398   0.087   5.456   3.274  0.1037 -0.2122 -0.3881
   96SAPC   H2X 9399   0.175   5.401   3.313  0.5000 -0.2945 -1.3628
   96SAPC   H2Y 9400  -0.008   5.399   3.285  0.4807 -1.2349 -2.1926
   96SAPC   C23 9401  -0.214   5.558   2.949  0.3621  0.1798  0.2840
   96SAPC   H3R 9402  -0.110   5.585   2.923  1.5245 -2.1799  2.0876
   96SAPC   H3S 9403  -0.209   5.509   3.049 -2.3725  0.2002  0.5058
   96SAPC   C24 9404  -0.306   5.680   2.951 -0.8949 -0.1965 -0.1462
   96SAPC   H4R 9405  -0.415   5.662   2.948 -0.7234 -1.2274 -0.5975
   96SAPC   H4S 9406  -0.278   5.730   2.856 -2.8752  1.0671 -0.1171
   96SAPC   C25 9407  -0.268   5.760   3.076 -0.2892 -0.9037 -0.2799
   96SAPC   H5R 9408  -0.210   5.854   3.066 -0.3663 -0.9686 -1.5149
   96SAPC   C26 9409  -0.310   5.723   3.197  0.2288 -0.3145  0.7858
   96SAPC   H6R 9410  -0.298   5.791   3.283 -1.1333 -0.6015  1.2292
   96SAPC   C27 9411  -0.405   5.605   3.226  0.0053  0.6174  0.1957
   96SAPC   H7R 9412  -0.459   5.575   3.133 -0.8976 -1.6328  1.3624
   96SAPC   H7S 9413  -0.483   5.643   3.296 -0.0650  0.3770  0.2484
   96SAPC   C28 9414  -0.334   5.484   3.294  0.0448  0.0430 -0.1378
   96SAPC   H8R 9415  -0.276   5.418   3.228 -0.4714 -1.9835  1.3254
   96SAPC   C29 9416  -0.332   5.458   3.428 -0.5052  0.2332  0.0671
   96SAPC   H9R 9417  -0.292   5.360   3.457 -1.4377 -1.2520 -3.2264
   96SAPC  C210 9418  -0.397   5.537   3.534 -0.4984 -0.4139  0.3855
   96SAPC  H10R 9419  -0.452   5.618   3.482 -0.9592 -1.1684 -0.3197
   96SAPC  H10S 9420  -0.322   5.578   3.606 -0.1117 -0.4881  0.0280
   96SAPC  C211 9421  -0.504   5.461   3.614  0.5088 -0.6805 -0.2256
   96SAPC  H11R 9422  -0.593   5.426   3.561 -0.7442  0.9760  0.6987
   96SAPC  C212 9423  -0.483   5.413   3.742 -0.6639 -0.3285 -0.1735
   96SAPC  H12R 9424  -0.568   5.370   3.797  0.2524  1.0268  2.4705
   96SAPC  C213 9425  -0.363   5.438   3.827 -0.0846  0.6913  0.3405
   96SAPC  H13R 9426  -0.364   5.548   3.839  1.4335  0.6146  1.4786
   96SAPC  H13S 9427  -0.267   5.415   3.777 -0.1876  0.1023  0.3984
   96SAPC  C214 9428  -0.344   5.364   3.956 -0.3599  0.6659  0.9366
   96SAPC  H14R 9429  -0.323   5.257   3.943  0.0731  0.5687  2.3347
   96SAPC  C215 9430  -0.354   5.424   4.074 -0.5693 -0.5400 -0.7966
   96SAPC  H15R 9431  -0.353   5.362   4.165  1.0391  0.6238  0.0555
   96SAPC  C216 9432  -0.394   5.573   4.111 -0.1804  0.1295  1.1879
   96SAPC  H16R 9433  -0.498   5.570   4.151 -0.5612  0.5588  0.2662
   96SAPC  H16S 9434  -0.415   5.633   4.020  3.3276 -0.5479 -0.2148
   96SAPC  C217 9435  -0.301   5.648   4.201 -0.1281  0.6990 -0.4503
   96SAPC  H17R 9436  -0.196   5.629   4.168 -0.3121 -2.7851  0.5567
   96SAPC  H17S 9437  -0.297   5.620   4.308  1.7241 -1.5952 -1.0481
   96SAPC  C218 9438  -0.326   5.801   4.201  0.0477  0.2864  0.4147
   96SAPC  H18R 9439  -0.433   5.825   4.222 -0.5470  2.7308 -4.2840
   96SAPC  H18S 9440  -0.305   5.819   4.094  1.3229 -3.0790 -0.0414
   96SAPC  C219 9441  -0.233   5.877   4.290 -0.2080 -0.1576  0.4818
   96SAPC  H19R 9442  -0.231   5.977   4.241 -2.3853  1.6394  3.7280
   96SAPC  H19S 9443  -0.132   5.831   4.290 -0.9612 -1.9579  2.3423
   96SAPC  C220 9444  -0.271   5.892   4.438  0.1516 -0.2205  0.0618
   96SAPC  H20R 9445  -0.259   5.805   4.506  0.2770  0.1345  0.4977
   96SAPC  H20S 9446  -0.374   5.931   4.452  0.4342  1.3071 -1.6563
   96SAPC  H20T 9447  -0.203   5.965   4.487  0.9326 -1.6454  1.1858
   96SAPC   C33 9448   0.090   5.601   3.308 -0.7976 -0.0326  0.6645
   96SAPC   H3X 9449  -0.005   5.647   3.275 -1.2761  0.0159  2.0337
   96SAPC   H3Y 9450   0.174   5.650   3.254  1.1561 -2.9575  0.8524
   96SAPC   C34 9451   0.122   5.613   3.457 -0.5830  0.3406  0.4235
   96SAPC   H4X 9452   0.045   5.556   3.513 -1.3879  0.2371 -0.7562
   96SAPC   H4Y 9453   0.101   5.722   3.469 -0.4058  0.3288  0.8739
   96SAPC   C35 9454   0.251   5.551   3.510  0.6078  0.1124  1.1449
   96SAPC   H5X 9455   0.325   5.618   3.460 -1.6906  0.4106 -2.1578
   96SAPC   H5Y 9456   0.268   5.444   3.489 -1.2837 -1.0194  4.7097
   96SAPC   C36 9457   0.279   5.579   3.655  0.1386  0.3011  0.1319
   96SAPC   H6X 9458   0.244   5.683   3.673 -1.2775 -0.2725  0.9138
   96SAPC   H6Y 9459   0.386   5.564   3.681  0.1092 -0.5264 -0.1913
   96SAPC   C37 9460   0.207   5.472   3.738  0.0604 -0.3489 -0.0104
   96SAPC   H7X 9461   0.236   5.376   3.690 -1.0294 -0.2124 -0.9933
   96SAPC   H7Y 9462   0.098   5.482   3.718  0.1508  2.1386  0.4910
   96SAPC   C38 9463   0.227   5.472   3.888  0.0197  0.1129  0.2780
   96SAPC   H8X 9464   0.186   5.565   3.932 -1.9283 -0.7281  0.3667
   96SAPC   H8Y 9465   0.337   5.465   3.901 -0.0179 -3.1494 -0.1682
   96SAPC   C39 9466   0.149   5.359   3.959  0.2298 -1.1327  0.1216
   96SAPC   H9X 9467   0.174   5.263   3.909  2.1773 -1.0178  0.7548
   96SAPC   H9Y 9468   0.043   5.379   3.935  0.6122  0.8152 -0.0750
   96SAPC  C310 9469   0.183   5.359   4.113  0.6280 -0.1657  0.4606
   96SAPC  H10X 9470   0.287   5.388   4.140  0.3367  0.2109  1.1779
   96SAPC  H10Y 9471   0.180   5.259   4.162  0.8420 -0.4238 -0.0394
   96SAPC  C311 9472   0.094   5.453   4.194  0.3183 -0.2461 -0.9855
   96SAPC  H11X 9473  -0.013   5.438   4.166  0.9317 -1.7749 -2.7060
   96SAPC  H11Y 9474   0.132   5.557   4.184 -1.0790  0.6157  1.6483
   96SAPC  C312 9475   0.103   5.412   4.345 -0.4245  0.3603 -0.7951
   96SAPC  H12X 9476   0.205   5.436   4.384  0.5670 -0.4762 -2.7091
   96SAPC  H12Y 9477   0.089   5.302   4.350 -0.0172  0.3498  0.7150
   96SAPC  C313 9478  -0.008   5.489   4.411 -0.8809 -0.6735 -0.3999
   96SAPC  H13X 9479  -0.108   5.445   4.390 -0.7950 -0.6176 -0.9445
   96SAPC  H13Y 9480  -0.005   5.594   4.376 -1.0868 -1.1835 -2.0862
   96SAPC  C314 9481   0.014   5.502   4.562 -0.1382  0.1603 -0.9105
   96SAPC  H14X 9482   0.108   5.557   4.585 -0.8185  1.1919 -0.5422
   96SAPC  H14Y 9483   0.017   5.403   4.613  0.1589 -0.4513 -2.0843
   96SAPC  C315 9484  -0.102   5.586   4.618  0.1110  0.0018  0.2293
   96SAPC  H15X 9485  -0.192   5.528   4.588 -1.2701  0.5736  3.0038
   96SAPC  H15Y 9486  -0.096   5.679   4.558 -0.7377  0.7779  1.3060
   96SAPC  C316 9487  -0.103   5.599   4.764 -0.5873  0.3894  0.7824
   96SAPC  H16X 9488   0.001   5.607   4.802 -0.8719  2.7207  1.1927
   96SAPC  H16Y 9489  -0.130   5.501   4.809  0.7889 -0.5479 -0.3557
   96SAPC  C317 9490  -0.192   5.707   4.818  0.2401  0.0311 -0.9051
   96SAPC  H17X 9491  -0.294   5.686   4.781 -0.5078  2.8670 -0.7126
   96SAPC  H17Y 9492  -0.168   5.811   4.787 -1.6146  0.8913  0.3426
   96SAPC  C318 9493  -0.203   5.726   4.975 -0.4173 -0.0187 -0.6209
   96SAPC  H18X 9494  -0.263   5.815   5.002  0.2868 -0.3528  2.3597
   96SAPC  H18Y 9495  -0.102   5.737   5.021 -1.7525  1.0053  2.2979
   96SAPC  H18Z 9496  -0.262   5.645   5.024 -0.5722  2.6515  4.1898
   97SAPC     N 9497   4.736   4.316   2.620  0.4946 -0.1203 -0.4707
   97SAPC   C12 9498   4.722   4.169   2.657  0.2530  0.6828  0.1115
   97SAPC  H12A 9499   4.637   4.121   2.610  1.1944 -2.1669  1.1271
   97SAPC  H12B 9500   4.709   4.156   2.763 -2.2315 -0.0902 -0.2103
   97SAPC   C13 9501   4.755   4.329   2.478 -0.3889 -0.2854  0.1027
   97SAPC  H13A 9502   4.779   4.433   2.462 -2.8236  0.1936 -0.8073
   97SAPC  H13B 9503   4.837   4.265   2.446  2.3356  0.2697  4.9671
   97SAPC  H13C 9504   4.661   4.306   2.430 -0.8918  0.0405  0.9014
   97SAPC   C14 9505   4.606   4.380   2.653 -0.5541 -0.0797 -0.1915
   97SAPC  H14A 9506   4.599   4.476   2.604 -1.6264  0.9712  1.8678
   97SAPC  H14B 9507   4.515   4.337   2.612 -1.5733  1.8614 -0.0973
   97SAPC  H14C 9508   4.601   4.392   2.760  2.4100  2.9587 -0.2242
   97SAPC   C15 9509   4.854   4.392   2.686  0.2397  0.7294 -0.0483
   97SAPC  H15A 9510   4.944   4.359   2.636  0.7567 -1.5684  2.1838
   97SAPC  H15B 9511   4.844   4.498   2.672  0.2782  0.8744  0.9852
   97SAPC  H15C 9512   4.856   4.376   2.793 -1.1836  0.9655  0.0353
   97SAPC   C11 9513   4.842   4.085   2.605 -0.0476  0.0260  0.2907
   97SAPC  H11A 9514   4.933   4.129   2.651 -0.9816 -0.0379  2.3156
   97SAPC  H11B 9515   4.864   4.097   2.497  1.1677  0.6074  0.5808
   97SAPC     P 9516   4.733   3.858   2.559 -0.1818  0.1337  0.0742
   97SAPC   O13 9517   4.629   3.943   2.491  0.7614 -0.3982 -0.1214
   97SAPC   O14 9518   4.826   3.777   2.479 -0.1139  0.4797 -0.0765
   97SAPC   O12 9519   4.824   3.955   2.652  0.0453  0.0473  0.3569
   97SAPC   O11 9520   4.662   3.769   2.668  0.4577  0.0783 -0.6691
   97SAPC    C1 9521   4.717   3.743   2.787  0.6148  0.4121 -0.2799
   97SAPC    HA 9522   4.828   3.743   2.790  0.6023  1.0692  0.7412
   97SAPC    HB 9523   4.677   3.811   2.865  0.5665 -1.0952  1.0445
   97SAPC    C2 9524   4.682   3.592   2.825 -0.0457 -0.0483 -0.1938
   97SAPC    HS 9525   4.686   3.535   2.729  0.6126 -1.9306  0.8899
   97SAPC   O21 9526   4.550   3.583   2.895 -0.4212  0.2993 -0.5530
   97SAPC   C21 9527   4.464   3.494   2.857  0.2510  0.5401 -0.2258
   97SAPC   O22 9528   4.475   3.406   2.774 -0.2694 -0.3719  0.6889
   97SAPC   C22 9529   4.354   3.501   2.959  0.5917 -0.6768  0.0126
   97SAPC   H2R 9530   4.383   3.570   3.042 -0.1338  0.1634 -0.4122
   97SAPC   H2S 9531   4.260   3.538   2.913 -0.3735 -0.0041  2.3421
   97SAPC    C3 9532   4.794   3.539   2.923  0.3567  0.0479  0.3353
   97SAPC    HX 9533   4.806   3.603   3.013 -1.2871 -0.4416  0.9295
   97SAPC    HY 9534   4.893   3.550   2.874  0.1684  0.0672 -0.0415
   97SAPC   O31 9535   4.767   3.401   2.972 -0.1543  0.2717  0.6750
   97SAPC   C31 9536   4.832   3.310   2.901  1.1256 -0.4575  0.5610
   97SAPC   O32 9537   4.893   3.327   2.799 -0.5499  0.5405 -0.7762
   97SAPC   C32 9538   4.807   3.172   2.961 -0.5860  0.7999  0.5670
   97SAPC   H2X 9539   4.844   3.094   2.891 -0.7022 -0.2083  1.5951
   97SAPC   H2Y 9540   4.699   3.161   2.984 -0.7003  1.6900  0.5104
   97SAPC   C23 9541   4.319   3.362   3.013  0.2013 -0.2431  0.2933
   97SAPC   H3R 9542   4.314   3.289   2.930 -3.0809  0.7305 -0.4867
   97SAPC   H3S 9543   4.218   3.370   3.058 -0.5199 -0.1304 -1.2940
   97SAPC   C24 9544   4.422   3.312   3.124 -0.9683 -0.1047 -0.3314
   97SAPC   H4R 9545   4.430   3.383   3.209  1.8261  0.3275 -0.8572
   97SAPC   H4S 9546   4.524   3.313   3.080 -0.1924  1.6725  1.3525
   97SAPC   C25 9547   4.386   3.174   3.165  0.2745  0.2615  1.1422
   97SAPC   H5R 9548   4.370   3.113   3.075 -2.3430  2.9301 -0.3874
   97SAPC   C26 9549   4.349   3.142   3.292 -1.0416 -0.5557  0.4088
   97SAPC   H6R 9550   4.336   3.037   3.323 -3.1122 -0.2097  0.8365
   97SAPC   C27 9551   4.335   3.239   3.411 -1.0887  0.2002  0.3158
   97SAPC   H7R 9552   4.243   3.210   3.466 -0.8902 -0.5882  0.2534
   97SAPC   H7S 9553   4.302   3.339   3.376  0.3787  0.0832 -1.5711
   97SAPC   C28 9554   4.454   3.251   3.502  0.5570 -0.6866  0.5137
   97SAPC   H8R 9555   4.539   3.303   3.456 -0.6085  0.6038 -0.2687
   97SAPC   C29 9556   4.446   3.215   3.636 -0.8372  0.9571  0.3309
   97SAPC   H9R 9557   4.536   3.233   3.697  0.8636  0.2015 -1.8386
   97SAPC  C210 9558   4.334   3.157   3.719 -0.5174  0.2792 -0.6596
   97SAPC  H10R 9559   4.384   3.083   3.785 -0.4113 -0.1081 -1.1630
   97SAPC  H10S 9560   4.259   3.092   3.669  0.6155 -0.2447 -1.7369
   97SAPC  C211 9561   4.259   3.266   3.788 -0.0491 -0.3330  0.1645
   97SAPC  H11R 9562   4.208   3.337   3.720 -0.0733 -0.8030 -0.3099
   97SAPC  C212 9563   4.257   3.286   3.919  0.3769  0.0261 -1.3933
   97SAPC  H12R 9564   4.202   3.364   3.974  3.1146 -0.0118  1.7471
   97SAPC  C213 9565   4.321   3.205   4.028 -0.5708  0.1286  0.1410
   97SAPC  H13R 9566   4.350   3.112   3.975 -0.9535 -1.2220  2.1737
   97SAPC  H13S 9567   4.250   3.180   4.110  2.7745 -3.0110  2.4231
   97SAPC  C214 9568   4.443   3.261   4.096  0.1948  0.1210 -0.3028
   97SAPC  H14R 9569   4.508   3.298   4.016 -1.3698 -0.1617 -1.7810
   97SAPC  C215 9570   4.478   3.259   4.226 -0.0438 -0.5609 -0.1594
   97SAPC  H15R 9571   4.587   3.268   4.239  0.1286 -0.7303 -1.3651
   97SAPC  C216 9572   4.396   3.203   4.343  0.3352  0.6222  0.2875
   97SAPC  H16R 9573   4.319   3.133   4.304  1.5537 -1.1328  0.9074
   97SAPC  H16S 9574   4.338   3.281   4.396 -0.4841  3.1862 -3.8610
   97SAPC  C217 9575   4.489   3.126   4.439 -0.3518 -0.2664 -0.2629
   97SAPC  H17R 9576   4.583   3.186   4.446  0.8606 -2.1492  0.3493
   97SAPC  H17S 9577   4.531   3.035   4.392 -1.2468  0.6144 -2.9861
   97SAPC  C218 9578   4.426   3.128   4.572  0.3088  0.0226 -0.1811
   97SAPC  H18R 9579   4.323   3.088   4.562  0.4770 -0.4247 -0.1684
   97SAPC  H18S 9580   4.411   3.233   4.605 -0.8307 -0.5923  1.3855
   97SAPC  C219 9581   4.504   3.059   4.683  0.1153  0.0306 -0.3398
   97SAPC  H19R 9582   4.538   2.956   4.657  2.2717  0.2868  1.1598
   97SAPC  H19S 9583   4.431   3.035   4.763  1.4098  1.3222  1.2933
   97SAPC  C220 9584   4.611   3.151   4.737  0.9119  0.4235  0.2217
   97SAPC  H20R 9585   4.567   3.251   4.758  0.6654  0.5799 -0.9663
   97SAPC  H20S 9586   4.697   3.160   4.668  2.4424  1.8349  2.1820
   97SAPC  H20T 9587   4.639   3.099   4.831 -2.8377 -1.0698  0.6778
   97SAPC   C33 9588   4.891   3.149   3.086 -0.5441 -0.0038 -0.2679
   97SAPC   H3X 9589   4.994   3.188   3.075 -1.2161  2.3372  1.0327
   97SAPC   H3Y 9590   4.900   3.039   3.103 -0.6463 -0.2965 -1.9317
   97SAPC   C34 9591   4.826   3.210   3.215 -0.0938  0.4434  0.7092
   97SAPC   H4X 9592   4.719   3.180   3.223  0.7865 -2.9465  1.6843
   97SAPC   H4Y 9593   4.836   3.318   3.194 -1.1077 -0.2795 -4.9378
   97SAPC   C35 9594   4.905   3.155   3.336 -0.4290 -0.7129  0.2052
   97SAPC   H5X 9595   5.010   3.192   3.331 -0.9193  0.6990 -0.2490
   97SAPC   H5Y 9596   4.908   3.044   3.335 -1.6576 -0.8283  2.6375
   97SAPC   C36 9597   4.837   3.185   3.475 -0.1625 -0.1830  0.0148
   97SAPC   H6X 9598   4.743   3.126   3.482 -0.2723 -0.2251 -1.5105
   97SAPC   H6Y 9599   4.821   3.294   3.488 -1.0462 -0.5542  2.4571
   97SAPC   C37 9600   4.923   3.142   3.595  0.1018 -0.3401  0.1044
   97SAPC   H7X 9601   5.022   3.191   3.585  0.1122 -0.0782  1.2893
   97SAPC   H7Y 9602   4.928   3.032   3.581 -1.8671 -0.4353 -0.1140
   97SAPC   C38 9603   4.861   3.185   3.731  0.3153 -0.3831 -0.1172
   97SAPC   H8X 9604   4.752   3.164   3.724 -0.3846  2.4489  1.0248
   97SAPC   H8Y 9605   4.860   3.296   3.739  1.1155 -0.4238  0.7125
   97SAPC   C39 9606   4.941   3.145   3.858  0.2410 -0.2450 -0.2135
   97SAPC   H9X 9607   5.040   3.195   3.851 -1.0048  2.1313 -2.6973
   97SAPC   H9Y 9608   4.952   3.035   3.855 -0.4599 -0.3036 -2.1248
   97SAPC  C310 9609   4.865   3.187   3.984  0.0182 -0.2780  0.3695
   97SAPC  H10X 9610   4.773   3.126   4.000  0.4436 -0.5909  1.7353
   97SAPC  H10Y 9611   4.836   3.293   3.963 -2.3813 -1.2246 -1.6732
   97SAPC  C311 9612   4.953   3.176   4.111 -0.0039  0.9147  0.3774
   97SAPC  H11X 9613   5.048   3.228   4.088 -0.0216  0.9413  0.3654
   97SAPC  H11Y 9614   4.975   3.070   4.136  0.3226  0.9715  0.3304
   97SAPC  C312 9615   4.884   3.250   4.229 -0.0062 -0.8222 -0.3254
   97SAPC  H12X 9616   4.783   3.215   4.258  0.3942 -0.1036  2.1526
   97SAPC  H12Y 9617   4.887   3.355   4.195  1.5962 -1.3180 -1.8939
   97SAPC  C313 9618   4.956   3.261   4.358  0.1492  0.0876  0.0233
   97SAPC  H13X 9619   4.913   3.338   4.426 -0.5516 -1.7974  1.8277
   97SAPC  H13Y 9620   5.064   3.283   4.346 -0.0374  2.0757  1.4624
   97SAPC  C314 9621   4.945   3.131   4.451 -0.1103  0.3977  0.0986
   97SAPC  H14X 9622   5.004   3.056   4.395 -0.8460 -0.2075  0.1120
   97SAPC  H14Y 9623   4.839   3.096   4.460  0.1904 -0.4452  0.4813
   97SAPC  C315 9624   5.017   3.158   4.585  0.0007 -0.0218  0.2431
   97SAPC  H15X 9625   4.944   3.208   4.653 -0.0819 -0.4898  0.5020
   97SAPC  H15Y 9626   5.114   3.209   4.569  0.8030 -0.9398  1.8688
   97SAPC  C316 9627   5.052   3.021   4.642 -0.0941 -0.3032  0.4430
   97SAPC  H16X 9628   5.143   2.990   4.586  1.7020  1.3233  2.3298
   97SAPC  H16Y 9629   4.974   2.943   4.629 -1.6583  1.0302  1.4278
   97SAPC  C317 9630   5.104   3.029   4.790 -0.1701 -0.2868  0.0722
   97SAPC  H17X 9631   5.136   2.925   4.810 -0.0466 -0.1735  0.4650
   97SAPC  H17Y 9632   5.019   3.054   4.858  1.0822 -1.7268  2.2636
   97SAPC  C318 9633   5.220   3.112   4.813  0.4989  0.6197 -0.8209
   97SAPC  H18X 9634   5.209   3.215   4.775  0.0461  0.2231 -1.8104
   97SAPC  H18Y 9635   5.311   3.072   4.763  2.0497  2.0475  0.7834
   97SAPC  H18Z 9636   5.243   3.117   4.921  0.1053  1.6535 -0.7752
   98SAPC     N 9637   3.321   5.918   2.364  0.1343 -0.3993  0.2708
   98SAPC   C12 9638   3.394   5.857   2.248  0.1326  0.3132 -0.2889
   98SAPC  H12A 9639   3.439   5.939   2.193 -0.1221  2.7190  2.7813
   98SAPC  H12B 9640   3.325   5.815   2.176  2.3388 -4.0603 -0.1517
   98SAPC   C13 9641   3.213   6.014   2.317  1.0600 -0.1110  0.5627
   98SAPC  H13A 9642   3.139   5.959   2.261  0.1016  0.7823  0.9193
   98SAPC  H13B 9643   3.166   6.062   2.401 -0.9998  0.7339 -0.9746
   98SAPC  H13C 9644   3.261   6.084   2.250 -3.1133  0.7657 -1.8753
   98SAPC   C14 9645   3.252   5.813   2.441  0.0131 -0.2986  0.7529
   98SAPC  H14A 9646   3.235   5.847   2.542  1.7321 -0.0074  0.9729
   98SAPC  H14B 9647   3.164   5.790   2.383  1.1954  1.9137 -2.1903
   98SAPC  H14C 9648   3.307   5.721   2.443  0.7298  0.1058  0.1444
   98SAPC   C15 9649   3.417   5.993   2.451 -0.7605 -0.6028 -0.3489
   98SAPC  H15A 9650   3.370   6.017   2.546  1.5368  1.0081  0.4726
   98SAPC  H15B 9651   3.504   5.931   2.459 -0.3156  0.0036 -0.4291
   98SAPC  H15C 9652   3.445   6.087   2.406 -0.1521 -1.0517 -0.9146
   98SAPC   C11 9653   3.502   5.748   2.272  0.2302 -0.7976 -0.2843
   98SAPC  H11A 9654   3.581   5.793   2.336 -0.6898 -0.4247  0.6144
   98SAPC  H11B 9655   3.562   5.716   2.184  1.1850 -2.9270  1.0377
   98SAPC     P 9656   3.396   5.505   2.257 -0.0313  0.3067  0.1947
   98SAPC   O13 9657   3.289   5.547   2.164 -0.4795 -0.7333  0.0246
   98SAPC   O14 9658   3.517   5.431   2.203  1.1037  0.1798 -0.2342
   98SAPC   O12 9659   3.448   5.634   2.342  0.1217 -0.4662 -0.2591
   98SAPC   O11 9660   3.340   5.414   2.372  0.0208 -0.2269 -0.3515
   98SAPC    C1 9661   3.218   5.438   2.442  0.3073 -0.1116 -0.4229
   98SAPC    HA 9662   3.228   5.527   2.508  1.6192 -0.8336  0.3961
   98SAPC    HB 9663   3.132   5.467   2.378  0.6001  2.1784  0.1251
   98SAPC    C2 9664   3.187   5.322   2.520  0.6332  0.3947  0.6035
   98SAPC    HS 9665   3.171   5.229   2.461  0.9264  0.9295 -0.3413
   98SAPC   O21 9666   3.073   5.355   2.602 -0.1384  0.2699 -0.5072
   98SAPC   C21 9667   3.016   5.257   2.666 -1.0331  1.3408 -0.1021
   98SAPC   O22 9668   3.051   5.137   2.664  0.0563  0.0536  0.2534
   98SAPC   C22 9669   2.881   5.296   2.733  0.2962  0.6899 -0.9490
   98SAPC   H2R 9670   2.891   5.407   2.736  2.3488  0.5480  1.7126
   98SAPC   H2S 9671   2.791   5.277   2.672 -0.2165  2.2591 -0.7238
   98SAPC    C3 9672   3.299   5.285   2.614 -0.1066 -0.5575  0.3941
   98SAPC    HX 9673   3.383   5.228   2.569  0.6562  0.5814  0.3162
   98SAPC    HY 9674   3.254   5.213   2.685 -1.7529 -0.5486 -0.5983
   98SAPC   O31 9675   3.350   5.398   2.685 -0.3728  0.2594  0.4478
   98SAPC   C31 9676   3.321   5.402   2.823 -0.4428  0.9849  0.4531
   98SAPC   O32 9677   3.272   5.312   2.886  0.2564  0.3885  0.2182
   98SAPC   C32 9678   3.385   5.531   2.888 -0.0747 -0.3480 -0.5489
   98SAPC   H2X 9679   3.353   5.609   2.816 -1.0383 -1.1961 -1.0751
   98SAPC   H2Y 9680   3.493   5.515   2.904 -0.6313 -0.6610  4.7394
   98SAPC   C23 9681   2.859   5.233   2.869  0.6088  0.2986 -0.2549
   98SAPC   H3R 9682   2.876   5.124   2.861 -0.0787 -0.0399  2.1163
   98SAPC   H3S 9683   2.753   5.240   2.901  1.1220 -0.1771  1.6956
   98SAPC   C24 9684   2.939   5.293   2.981 -0.3542 -0.1912 -0.3731
   98SAPC   H4R 9685   3.042   5.310   2.943  0.1194 -0.1292  0.9012
   98SAPC   H4S 9686   2.957   5.217   3.059 -1.1595  0.1215  0.1311
   98SAPC   C25 9687   2.877   5.420   3.031 -0.0866 -0.2674  0.5883
   98SAPC   H5R 9688   2.844   5.491   2.953  2.1284 -0.6012 -0.7624
   98SAPC   C26 9689   2.861   5.448   3.156  0.1516  0.0825 -0.0680
   98SAPC   H6R 9690   2.820   5.549   3.168  2.3369  1.2228 -1.5123
   98SAPC   C27 9691   2.897   5.363   3.280  0.3092 -0.0969  0.1674
   98SAPC   H7R 9692   2.876   5.261   3.244  1.6623 -0.2173 -0.3695
   98SAPC   H7S 9693   2.821   5.390   3.357 -0.2376  1.1841 -0.7866
   98SAPC   C28 9694   3.040   5.371   3.334  0.1131  0.6525 -0.6570
   98SAPC   H8R 9695   3.120   5.320   3.277  0.3783 -1.8566  1.7699
   98SAPC   C29 9696   3.065   5.442   3.445  0.0180  0.4329 -0.3377
   98SAPC   H9R 9697   3.167   5.445   3.484 -0.0147  1.9214 -0.3055
   98SAPC  C210 9698   2.982   5.513   3.545 -0.4635 -0.0186  0.2910
   98SAPC  H10R 9699   2.968   5.444   3.630  1.0862 -0.4619  0.2199
   98SAPC  H10S 9700   2.878   5.517   3.506 -0.4991 -1.2753  0.2266
   98SAPC  C211 9701   3.023   5.650   3.584 -0.0520  0.1826 -0.5845
   98SAPC  H11R 9702   2.989   5.727   3.513 -2.5165 -1.3909 -1.2419
   98SAPC  C212 9703   3.073   5.682   3.704  0.3443 -0.8462  0.2548
   98SAPC  H12R 9704   3.072   5.789   3.729  0.4099 -0.8559  0.2948
   98SAPC  C213 9705   3.117   5.588   3.821 -0.1341 -0.5175  0.4114
   98SAPC  H13R 9706   3.228   5.586   3.826 -0.0250  1.3554 -0.3206
   98SAPC  H13S 9707   3.082   5.483   3.808 -0.6583 -0.0951 -2.1198
   98SAPC  C214 9708   3.060   5.650   3.945  0.1975 -0.1297 -0.1200
   98SAPC  H14R 9709   2.955   5.625   3.961  0.5866 -1.6045  0.2898
   98SAPC  C215 9710   3.119   5.729   4.034 -0.3678  0.3539  0.1839
   98SAPC  H15R 9711   3.059   5.780   4.111 -1.0019 -0.3666  0.1793
   98SAPC  C216 9712   3.270   5.760   4.020  1.0273  0.3288  0.2541
   98SAPC  H16R 9713   3.285   5.863   3.981 -0.7731  0.0911 -1.2083
   98SAPC  H16S 9714   3.332   5.702   3.948 -0.5187  1.2896 -1.9926
   98SAPC  C217 9715   3.335   5.751   4.158  0.0927  0.0863 -0.5931
   98SAPC  H17R 9716   3.445   5.750   4.149  0.2069 -1.9111  0.5646
   98SAPC  H17S 9717   3.327   5.651   4.205 -2.1186  1.4203  2.1804
   98SAPC  C218 9718   3.297   5.865   4.251 -0.5483 -0.3548 -0.3363
   98SAPC  H18R 9719   3.192   5.897   4.239 -0.1147  0.9169 -0.8628
   98SAPC  H18S 9720   3.358   5.957   4.237  0.5482 -0.8625  0.8057
   98SAPC  C219 9721   3.333   5.837   4.401 -0.5967  0.4723  0.3306
   98SAPC  H19R 9722   3.439   5.804   4.394 -0.3300  1.1483  1.0651
   98SAPC  H19S 9723   3.267   5.754   4.436 -1.5484  1.0197 -0.1447
   98SAPC  C220 9724   3.324   5.956   4.498 -0.2837 -0.0570  0.1404
   98SAPC  H20R 9725   3.359   6.055   4.462  3.0557 -0.6723  1.3056
   98SAPC  H20S 9726   3.389   5.944   4.587  1.3175 -1.9340 -1.1926
   98SAPC  H20T 9727   3.223   5.973   4.540 -0.1045 -1.0072  0.9986
   98SAPC   C33 9728   3.318   5.560   3.032  0.1871  0.4706 -0.2150
   98SAPC   H3X 9729   3.317   5.469   3.096 -2.0009  0.6452  0.0806
   98SAPC   H3Y 9730   3.210   5.587   3.023  0.7640  2.2502 -3.0150
   98SAPC   C34 9731   3.397   5.675   3.100  0.5926  0.1083 -0.1465
   98SAPC   H4X 9732   3.376   5.760   3.032  0.7560 -1.2180 -1.9350
   98SAPC   H4Y 9733   3.505   5.654   3.084  0.0122 -3.0867 -0.5817
   98SAPC   C35 9734   3.353   5.695   3.243 -0.8164  0.4084 -0.4859
   98SAPC   H5X 9735   3.374   5.601   3.299 -1.1488  1.4691  1.5314
   98SAPC   H5Y 9736   3.248   5.731   3.249 -0.7378  0.9071 -1.8386
   98SAPC   C36 9737   3.444   5.796   3.315  0.1796 -1.1644 -0.0716
   98SAPC   H6X 9738   3.407   5.898   3.292  2.5426 -0.2785 -0.1419
   98SAPC   H6Y 9739   3.546   5.786   3.274  0.0156  0.1385 -0.8442
   98SAPC   C37 9740   3.453   5.780   3.470  0.3591  0.2524  0.6522
   98SAPC   H7X 9741   3.347   5.779   3.504 -0.0827  1.8708 -0.5536
   98SAPC   H7Y 9742   3.491   5.872   3.519 -0.0489 -0.7743  3.0294
   98SAPC   C38 9743   3.535   5.660   3.513  0.6099 -0.0764  0.1245
   98SAPC   H8X 9744   3.630   5.645   3.457 -1.7890 -1.5164 -3.9998
   98SAPC   H8Y 9745   3.480   5.568   3.484  1.5156 -0.0515 -1.8399
   98SAPC   C39 9746   3.549   5.661   3.668 -0.0046 -0.6586  0.3331
   98SAPC   H9X 9747   3.448   5.668   3.715 -0.1851  1.2617 -0.2610
   98SAPC   H9Y 9748   3.606   5.747   3.709 -1.4596  1.2357 -1.3765
   98SAPC  C310 9749   3.622   5.533   3.708 -0.3739 -0.6603  0.6480
   98SAPC  H10X 9750   3.725   5.539   3.665 -0.4377  0.2999  0.6031
   98SAPC  H10Y 9751   3.567   5.453   3.655 -0.9372  0.4791 -0.5535
   98SAPC  C311 9752   3.631   5.499   3.856  0.3056  0.0065 -0.8455
   98SAPC  H11X 9753   3.614   5.390   3.870  1.3541  0.1655  2.6683
   98SAPC  H11Y 9754   3.547   5.548   3.910  0.0533  0.0543 -1.2749
   98SAPC  C312 9755   3.762   5.534   3.927 -0.0091 -0.5760 -0.1502
   98SAPC  H12X 9756   3.763   5.644   3.920 -1.0651 -0.4734  0.9655
   98SAPC  H12Y 9757   3.844   5.495   3.864  0.7359  1.5067 -0.5297
   98SAPC  C313 9758   3.770   5.498   4.072 -0.5516  0.3923  0.3459
   98SAPC  H13X 9759   3.720   5.400   4.087 -1.6803  0.5742 -1.8020
   98SAPC  H13Y 9760   3.711   5.560   4.142  1.2824 -0.1256  2.4532
   98SAPC  C314 9761   3.912   5.508   4.131 -0.2557  0.1701 -0.3659
   98SAPC  H14X 9762   3.955   5.609   4.113  0.1939 -0.0124 -0.3432
   98SAPC  H14Y 9763   3.977   5.447   4.065 -0.5267 -0.7377  0.1887
   98SAPC  C315 9764   3.923   5.455   4.279 -0.0886  0.0287 -0.1879
   98SAPC  H15X 9765   4.021   5.486   4.322 -0.2754 -2.3073  2.2037
   98SAPC  H15Y 9766   3.915   5.345   4.291 -2.8618  0.4941  4.2703
   98SAPC  C316 9767   3.807   5.505   4.372 -0.9133 -0.6203 -0.2325
   98SAPC  H16X 9768   3.817   5.461   4.474  0.7835 -1.6382 -0.8042
   98SAPC  H16Y 9769   3.708   5.479   4.329 -2.1668  1.5538  1.1344
   98SAPC  C317 9770   3.811   5.655   4.391  0.0464  0.2131  0.4511
   98SAPC  H17X 9771   3.786   5.710   4.298  0.7884  0.5424  0.4368
   98SAPC  H17Y 9772   3.906   5.689   4.438 -1.7312  0.7963  3.9941
   98SAPC  C318 9773   3.701   5.698   4.484  0.4321  0.5086  0.6676
   98SAPC  H18X 9774   3.706   5.658   4.588 -0.1825  1.2214  0.9812
   98SAPC  H18Y 9775   3.605   5.660   4.443  1.3589 -2.1958  0.7893
   98SAPC  H18Z 9776   3.706   5.807   4.505 -0.9616  0.5267  0.9757
   99SAPC     N 9777   4.436   6.488   2.498 -0.1153 -0.3321 -0.0078
   99SAPC   C12 9778   4.537   6.504   2.380  0.5486  0.1189 -0.3092
   99SAPC  H12A 9779   4.476   6.528   2.294 -1.2107 -0.4175  0.7360
   99SAPC  H12B 9780   4.586   6.410   2.363 -1.3796 -2.1090  4.5316
   99SAPC   C13 9781   4.372   6.610   2.542 -1.1370 -0.5807 -0.1509
   99SAPC  H13A 9782   4.329   6.653   2.454 -0.3542  0.6299  0.0382
   99SAPC  H13B 9783   4.295   6.591   2.615 -0.4541 -0.1609  0.7057
   99SAPC  H13C 9784   4.443   6.681   2.582 -1.8040  0.3868 -0.6668
   99SAPC   C14 9785   4.328   6.391   2.458  0.8041  0.2264 -0.9577
   99SAPC  H14A 9786   4.269   6.425   2.375 -1.0452  0.7591  0.5139
   99SAPC  H14B 9787   4.381   6.297   2.447 -0.0059 -0.3171 -0.3473
   99SAPC  H14C 9788   4.263   6.380   2.544 -0.4818  0.7731 -1.8376
   99SAPC   C15 9789   4.503   6.424   2.617  0.1604 -0.6853  0.1283
   99SAPC  H15A 9790   4.428   6.416   2.695  0.0930 -1.5213 -0.0161
   99SAPC  H15B 9791   4.530   6.326   2.579 -0.0849  0.3654 -3.0756
   99SAPC  H15C 9792   4.577   6.483   2.670 -0.8787  1.5080 -0.7377
   99SAPC   C11 9793   4.652   6.602   2.404 -0.7893  0.0439 -0.6333
   99SAPC  H11A 9794   4.607   6.696   2.441  0.2819 -0.1583  1.3328
   99SAPC  H11B 9795   4.712   6.629   2.314 -0.3222  1.4766  0.0764
   99SAPC     P 9796   4.860   6.468   2.501 -0.0673 -0.1275 -0.1115
   99SAPC   O13 9797   4.827   6.339   2.571 -0.3584 -0.0403 -0.4640
   99SAPC   O14 9798   4.908   6.458   2.365 -0.1824  0.0716 -0.0979
   99SAPC   O12 9799   4.731   6.559   2.516 -0.0432  0.2791 -0.5865
   99SAPC   O11 9800   4.967   6.544   2.585  0.4156  0.1992  0.2176
   99SAPC    C1 9801   4.984   6.688   2.572  0.3461  0.6125  0.2826
   99SAPC    HA 9802   5.061   6.701   2.493 -0.6092 -1.2717 -1.0265
   99SAPC    HB 9803   4.888   6.734   2.541 -0.7790 -2.1974 -0.6985
   99SAPC    C2 9804   5.036   6.757   2.698  0.0787  0.3500 -0.1446
   99SAPC    HS 9805   5.132   6.709   2.725 -1.6453 -2.7610  0.9591
   99SAPC   O21 9806   4.940   6.759   2.811  0.5245 -0.1148 -0.7751
   99SAPC   C21 9807   4.949   6.644   2.880 -0.0817  1.0245 -0.2505
   99SAPC   O22 9808   5.046   6.567   2.887  0.3514  0.2187 -0.2752
   99SAPC   C22 9809   4.831   6.613   2.960 -0.1487  0.2261 -0.6354
   99SAPC   H2R 9810   4.759   6.561   2.893  0.3445 -0.6410 -0.4988
   99SAPC   H2S 9811   4.856   6.544   3.044  0.7217 -0.4775 -1.4546
   99SAPC    C3 9812   5.077   6.909   2.676 -0.1085 -0.1720  0.5959
   99SAPC    HX 9813   4.991   6.972   2.645  0.3479  0.1864  0.0265
   99SAPC    HY 9814   5.146   6.902   2.590 -1.0618 -1.4915 -0.0978
   99SAPC   O31 9815   5.157   6.962   2.787 -0.3916 -0.8827  0.1623
   99SAPC   C31 9816   5.106   7.034   2.879  0.5268  0.4025  0.0684
   99SAPC   O32 9817   4.993   7.082   2.885  0.2534  0.2502 -0.4381
   99SAPC   C32 9818   5.207   7.069   2.982  0.0001  0.0029 -0.3191
   99SAPC   H2X 9819   5.232   7.177   2.985  2.2046 -0.4319 -1.0176
   99SAPC   H2Y 9820   5.302   7.019   2.954 -0.0003  0.4162 -1.0621
   99SAPC   C23 9821   4.759   6.735   3.025  0.1769 -0.0955 -0.1724
   99SAPC   H3R 9822   4.658   6.705   3.060 -0.3369  2.2888  0.5828
   99SAPC   H3S 9823   4.746   6.821   2.956  0.1563  0.3150  0.3382
   99SAPC   C24 9824   4.839   6.774   3.160 -0.2576 -0.2872  0.2499
   99SAPC   H4R 9825   4.943   6.796   3.128 -0.6281  2.4579  0.7218
   99SAPC   H4S 9826   4.844   6.680   3.219 -2.2428 -0.7078 -0.1962
   99SAPC   C25 9827   4.791   6.902   3.229 -0.6681 -0.2040 -0.9436
   99SAPC   H5R 9828   4.771   6.988   3.163  0.0534  0.9112  0.2307
   99SAPC   C26 9829   4.780   6.912   3.361 -0.0298  0.8793 -0.7417
   99SAPC   H6R 9830   4.747   7.008   3.405 -0.5713  0.0763  0.6623
   99SAPC   C27 9831   4.791   6.796   3.461  0.0536 -0.5962  0.1698
   99SAPC   H7R 9832   4.769   6.694   3.422  1.0257 -0.8705  0.2996
   99SAPC   H7S 9833   4.715   6.806   3.542  1.4407  1.2139  1.3468
   99SAPC   C28 9834   4.933   6.794   3.520  0.1597 -0.1010 -0.1842
   99SAPC   H8R 9835   5.012   6.831   3.453  0.8495  1.0820  1.2089
   99SAPC   C29 9836   4.963   6.772   3.650  0.2297  0.1020 -0.5104
   99SAPC   H9R 9837   5.070   6.780   3.673  0.2841  0.6004 -0.9176
   99SAPC  C210 9838   4.878   6.750   3.771 -0.4402  0.5381 -0.1354
   99SAPC  H10R 9839   4.770   6.770   3.754 -0.4085 -0.8885 -2.5407
   99SAPC  H10S 9840   4.910   6.823   3.848  1.0002 -1.3846  1.1986
   99SAPC  C211 9841   4.898   6.618   3.837  0.3479  0.2408 -0.1822
   99SAPC  H11R 9842   4.861   6.539   3.771 -0.1292 -0.2853  0.6923
   99SAPC  C212 9843   4.976   6.594   3.946 -0.2453 -0.0589 -0.0463
   99SAPC  H12R 9844   5.001   6.490   3.971  2.0151 -0.3403 -2.9432
   99SAPC  C213 9845   5.047   6.698   4.029  0.1198  0.3921 -0.1422
   99SAPC  H13R 9846   5.090   6.780   3.968  0.7956  1.5616  1.8126
   99SAPC  H13S 9847   5.131   6.641   4.075 -1.2733 -1.3575  0.3514
   99SAPC  C214 9848   4.959   6.760   4.135  0.4383  0.0937 -0.7396
   99SAPC  H14R 9849   4.858   6.717   4.143  1.1610 -1.4618  0.8702
   99SAPC  C215 9850   5.001   6.855   4.223  0.0915  0.9087  0.0276
   99SAPC  H15R 9851   4.933   6.896   4.299 -0.7492 -1.0797  0.4285
   99SAPC  C216 9852   5.141   6.919   4.233 -0.1252  0.0905 -0.1423
   99SAPC  H16R 9853   5.131   7.028   4.217 -0.4160 -0.0846 -1.2377
   99SAPC  H16S 9854   5.213   6.893   4.152 -0.3191 -1.5366  0.1675
   99SAPC  C217 9855   5.209   6.900   4.372  0.5131 -0.0712  0.1640
   99SAPC  H17R 9856   5.196   6.794   4.402 -1.3407  0.0339 -0.1625
   99SAPC  H17S 9857   5.148   6.957   4.445 -1.3338  1.6661 -2.5552
   99SAPC  C218 9858   5.359   6.920   4.385 -0.0432 -0.1248  0.4178
   99SAPC  H18R 9859   5.385   7.016   4.334 -0.0117 -1.1742 -1.6608
   99SAPC  H18S 9860   5.410   6.845   4.321 -1.1437 -0.4777 -0.0629
   99SAPC  C219 9861   5.398   6.913   4.537  0.2048 -0.4033 -1.0461
   99SAPC  H19R 9862   5.305   6.894   4.594  0.9032  2.0429  1.0966
   99SAPC  H19S 9863   5.435   7.012   4.571 -0.4771 -0.5471  0.1686
   99SAPC  C220 9864   5.512   6.809   4.565 -0.2275 -0.4027 -0.6000
   99SAPC  H20R 9865   5.603   6.837   4.508 -0.2492 -0.4218 -0.6447
   99SAPC  H20S 9866   5.476   6.709   4.531 -1.5527 -1.5277  3.4888
   99SAPC  H20T 9867   5.531   6.814   4.674 -2.3382 -0.5255 -0.1810
   99SAPC   C33 9868   5.173   7.018   3.125 -0.1981  0.3954  0.5764
   99SAPC   H3X 9869   5.184   6.907   3.127 -0.6662  0.3523  0.7731
   99SAPC   H3Y 9870   5.067   7.048   3.141 -0.3568 -0.4410  1.1852
   99SAPC   C34 9871   5.263   7.074   3.234  0.0846  0.2317  0.7457
   99SAPC   H4X 9872   5.241   7.181   3.249 -0.0210  0.2302  0.6038
   99SAPC   H4Y 9873   5.370   7.060   3.204 -0.4394 -0.4958 -0.8863
   99SAPC   C35 9874   5.242   6.991   3.362 -0.4458  0.3049  0.7918
   99SAPC   H5X 9875   5.225   6.882   3.347  1.0047  0.4093 -2.1908
   99SAPC   H5Y 9876   5.148   7.036   3.402 -0.4061  1.8228 -0.7055
   99SAPC   C36 9877   5.355   7.010   3.467 -0.3564 -0.1449  0.2884
   99SAPC   H6X 9878   5.403   7.109   3.446 -0.4515  0.4346  2.5048
   99SAPC   H6Y 9879   5.436   6.934   3.474  0.7671  0.7348 -2.0993
   99SAPC   C37 9880   5.296   7.022   3.604  0.0779 -0.3086  0.2220
   99SAPC   H7X 9881   5.248   6.926   3.634 -0.4164 -1.0632 -2.7100
   99SAPC   H7Y 9882   5.225   7.108   3.596  0.1583 -0.1058  1.4243
   99SAPC   C38 9883   5.394   7.071   3.700  0.2022 -0.3251  0.0894
   99SAPC   H8X 9884   5.441   7.158   3.650  0.8589 -0.3951  0.5728
   99SAPC   H8Y 9885   5.462   6.983   3.705 -0.6332 -0.9586  0.6555
   99SAPC   C39 9886   5.346   7.094   3.838  0.3624 -0.3393 -0.0912
   99SAPC   H9X 9887   5.280   7.010   3.867 -1.9250  1.6551  0.7501
   99SAPC   H9Y 9888   5.285   7.186   3.851  0.4939 -0.2398 -0.1717
   99SAPC  C310 9889   5.462   7.116   3.934  0.4460  0.7643 -0.5150
   99SAPC  H10X 9890   5.521   7.192   3.879 -0.2441  2.5257  1.0599
   99SAPC  H10Y 9891   5.519   7.023   3.956 -0.6261  0.5841  1.7475
   99SAPC  C311 9892   5.416   7.178   4.077  0.0991  0.7322 -0.3580
   99SAPC  H11X 9893   5.370   7.103   4.145 -0.5519 -0.0130 -1.6016
   99SAPC  H11Y 9894   5.347   7.263   4.058 -0.2370  0.4555 -0.3758
   99SAPC  C312 9895   5.547   7.240   4.135  1.2681  0.0396  1.3642
   99SAPC  H12X 9896   5.575   7.313   4.056 -3.3159  0.7186  0.0949
   99SAPC  H12Y 9897   5.626   7.162   4.137  0.6584 -0.5807  1.4983
   99SAPC  C313 9898   5.526   7.302   4.278  0.0349 -0.5063  0.0184
   99SAPC  H13X 9899   5.494   7.224   4.351 -1.5883  0.4944  0.4281
   99SAPC  H13Y 9900   5.435   7.365   4.272  0.6965  0.3391 -2.3626
   99SAPC  C314 9901   5.643   7.371   4.343 -0.5615  0.3306 -0.5399
   99SAPC  H14X 9902   5.713   7.408   4.265  1.7993  1.1655  1.8375
   99SAPC  H14Y 9903   5.693   7.301   4.413 -1.4886  1.8681  1.7864
   99SAPC  C315 9904   5.599   7.489   4.437 -0.1567 -0.4980  0.1276
   99SAPC  H15X 9905   5.518   7.471   4.511 -0.0510  1.5714  0.8172
   99SAPC  H15Y 9906   5.571   7.573   4.369  1.7142  0.3550  0.3617
   99SAPC  C316 9907   5.722   7.536   4.519 -0.0394  0.2126 -0.0047
   99SAPC  H16X 9908   5.708   7.644   4.542 -2.7280 -0.4294  1.8437
   99SAPC  H16Y 9909   5.811   7.522   4.453 -0.3529  1.1633 -0.6474
   99SAPC  C317 9910   5.768   7.454   4.637 -0.0250  0.6504  0.4046
   99SAPC  H17X 9911   5.753   7.349   4.604 -0.6321  1.1644 -0.9948
   99SAPC  H17Y 9912   5.699   7.467   4.724 -1.6525 -0.2846 -0.6947
   99SAPC  C318 9913   5.913   7.482   4.672 -0.1368 -0.4873  0.4638
   99SAPC  H18X 9914   5.934   7.591   4.669  0.1341 -0.5697 -1.5516
   99SAPC  H18Y 9915   5.981   7.425   4.605  0.0899 -0.9534  1.0746
   99SAPC  H18Z 9916   5.933   7.449   4.776  0.3365 -2.0155 -0.0770
  100SAPC     N 9917   4.982   2.128   2.346  0.6608 -0.7379  0.2094
  100SAPC   C12 9918   5.068   2.019   2.410  0.0912  0.5347 -0.4073
  100SAPC  H12A 9919   5.163   2.026   2.357  0.4072  1.1916  0.2299
  100SAPC  H12B 9920   5.013   1.929   2.392  1.0104  0.1479 -1.4277
  100SAPC   C13 9921   4.847   2.139   2.407 -0.4987 -0.3051  0.2047
  100SAPC  H13A 9922   4.800   2.222   2.357 -0.0971 -0.3084 -0.1886
  100SAPC  H13B 9923   4.788   2.051   2.387 -0.8707  0.1190 -0.6413
  100SAPC  H13C 9924   4.849   2.150   2.514  2.1438 -1.2990  0.3398
  100SAPC   C14 9925   5.046   2.261   2.365 -0.2649 -0.4800  0.0808
  100SAPC  H14A 9926   5.019   2.342   2.298  0.2362  0.4442  0.9807
  100SAPC  H14B 9927   5.032   2.296   2.466  0.9434  0.1937  0.0449
  100SAPC  H14C 9928   5.152   2.249   2.344 -0.5163 -0.1767 -1.5599
  100SAPC   C15 9929   4.976   2.094   2.195 -0.1236 -0.0478 -0.1986
  100SAPC  H15A 9930   5.073   2.097   2.148  0.3971 -0.6931  0.7876
  100SAPC  H15B 9931   4.937   1.993   2.191 -1.6226  0.4411  0.8679
  100SAPC  H15C 9932   4.918   2.168   2.142 -0.4943 -0.8048 -0.8783
  100SAPC   C11 9933   5.087   2.026   2.560 -0.1060  0.9260  0.4471
  100SAPC  H11A 9934   5.131   2.124   2.586  0.7423  0.9265 -0.8867
  100SAPC  H11B 9935   5.165   1.952   2.589  0.2555  1.3888  0.6661
  100SAPC     P 9936   4.906   1.860   2.633 -0.0838  0.1375 -0.3506
  100SAPC   O13 9937   4.758   1.875   2.650 -0.1413 -0.6080  0.1041
  100SAPC   O14 9938   4.950   1.785   2.513 -0.3078 -1.2600  0.0441
  100SAPC   O12 9939   4.967   2.002   2.631  0.7614 -0.5422  0.4518
  100SAPC   O11 9940   4.970   1.798   2.761  0.1808 -0.3034  0.3213
  100SAPC    C1 9941   4.959   1.668   2.797  0.3177 -0.0465 -1.0149
  100SAPC    HA 9942   4.964   1.671   2.908 -0.8097  0.3568 -0.9600
  100SAPC    HB 9943   4.860   1.623   2.772 -1.4432  0.8030  3.4911
  100SAPC    C2 9944   5.077   1.585   2.731  0.6513  0.4266  0.3843
  100SAPC    HS 9945   5.054   1.565   2.624  1.4156 -1.8161  0.5809
  100SAPC   O21 9946   5.080   1.456   2.796  0.2355  0.1159 -0.5162
  100SAPC   C21 9947   5.151   1.369   2.727  0.0340  0.4543  0.0494
  100SAPC   O22 9948   5.190   1.381   2.615  0.1022 -0.0447  0.0211
  100SAPC   C22 9949   5.182   1.243   2.817  0.1546 -0.1518 -0.5199
  100SAPC   H2R 9950   5.108   1.165   2.788 -0.7968  1.3775 -2.4377
  100SAPC   H2S 9951   5.288   1.212   2.808  1.2647  3.1966 -0.4880
  100SAPC    C3 9952   5.214   1.655   2.736 -0.3067 -0.3451  0.2423
  100SAPC    HX 9953   5.209   1.739   2.664 -3.6359 -0.0944  0.6058
  100SAPC    HY 9954   5.294   1.583   2.709  1.4922  0.8959  1.9474
  100SAPC   O31 9955   5.248   1.706   2.871 -0.0361  0.1512  0.5054
  100SAPC   C31 9956   5.353   1.791   2.858  0.4299 -0.3197 -0.1689
  100SAPC   O32 9957   5.415   1.803   2.755 -0.5017 -0.1726 -0.2177
  100SAPC   C32 9958   5.375   1.864   2.990 -0.1559 -0.9227  0.8063
  100SAPC   H2X 9959   5.400   1.968   2.960 -2.4752 -0.5507 -0.0465
  100SAPC   H2Y 9960   5.455   1.816   3.051  0.9407 -0.0055  0.1282
  100SAPC   C23 9961   5.143   1.273   2.965  0.7234  0.1080 -0.2210
  100SAPC   H3R 9962   5.036   1.300   2.974  0.7905 -0.0942  1.5836
  100SAPC   H3S 9963   5.195   1.368   2.991 -0.1166  0.1299  1.4979
  100SAPC   C24 9964   5.176   1.164   3.061  0.2101 -0.5150  0.2727
  100SAPC   H4R 9965   5.166   1.212   3.161  4.1972 -2.2242  1.7236
  100SAPC   H4S 9966   5.283   1.132   3.056  0.8588  1.5088  0.0410
  100SAPC   C25 9967   5.092   1.041   3.061  0.4350 -0.2333 -0.5724
  100SAPC   H5R 9968   5.010   1.045   2.988  0.3395 -0.1146 -0.4581
  100SAPC   C26 9969   5.106   0.936   3.141  0.2527 -0.5740 -0.2985
  100SAPC   H6R 9970   5.042   0.849   3.123  0.8748 -1.2644  0.7147
  100SAPC   C27 9971   5.199   0.905   3.254 -0.5556 -0.3428  0.2824
  100SAPC   H7R 9972   5.256   0.998   3.275  0.2946 -0.5898 -0.8239
  100SAPC   H7S 9973   5.271   0.827   3.221 -0.1117  0.7820 -1.5679
  100SAPC   C28 9974   5.111   0.863   3.369  0.5427 -0.2190 -0.2186
  100SAPC   H8R 9975   5.039   0.785   3.342  1.6060 -0.9601 -1.0235
  100SAPC   C29 9976   5.131   0.897   3.501  1.4089 -0.8462  1.0256
  100SAPC   H9R 9977   5.060   0.853   3.573 -2.1896  3.4265  0.4912
  100SAPC  C210 9978   5.241   0.980   3.555 -0.3996  0.7358 -0.3842
  100SAPC  H10R 9979   5.194   1.024   3.646  0.6646  0.2666  0.4217
  100SAPC  H10S 9980   5.270   1.064   3.488  2.0558 -0.3510 -0.8054
  100SAPC  C211 9981   5.365   0.896   3.591  0.1723  0.6410 -0.7870
  100SAPC  H11R 9982   5.443   0.885   3.515  1.9710 -0.1704  1.0657
  100SAPC  C212 9983   5.387   0.838   3.710 -0.0594 -0.5154  0.0302
  100SAPC  H12R 9984   5.492   0.806   3.721 -0.1290 -0.4348  0.9619
  100SAPC  C213 9985   5.292   0.844   3.826  0.6545  0.3229  0.0822
  100SAPC  H13R 9986   5.188   0.818   3.795  0.8688 -0.7167  0.1914
  100SAPC  H13S 9987   5.281   0.950   3.858  0.4228  0.3918 -0.2180
  100SAPC  C214 9988   5.329   0.749   3.936 -0.6118  0.5097 -0.0787
  100SAPC  H14R 9989   5.351   0.646   3.906 -1.1363  0.0749  0.9691
  100SAPC  C215 9990   5.347   0.772   4.070 -0.7020 -0.3476 -0.2377
  100SAPC  H15R 9991   5.392   0.700   4.139 -0.4580 -0.6219 -0.6755
  100SAPC  C216 9992   5.342   0.899   4.150  0.3146 -0.0885  0.6719
  100SAPC  H16R 9993   5.280   0.878   4.240  0.5523 -3.3775  0.1803
  100SAPC  H16S 9994   5.289   0.978   4.092  2.6230  1.0816  0.0542
  100SAPC  C217 9995   5.473   0.967   4.201  0.0115  0.2893  0.4014
  100SAPC  H17R 9996   5.534   0.983   4.110  1.5149  1.4856  1.5775
  100SAPC  H17S 9997   5.538   0.906   4.267 -0.3691  0.7393  1.2089
  100SAPC  C218 9998   5.461   1.101   4.282 -0.2005 -0.2704 -0.5347
  100SAPC  H18R 9999   5.392   1.085   4.367 -0.0533  0.9696 -0.1516
  100SAPC  H18S10000   5.400   1.170   4.219 -1.2130 -0.5865  0.0738
  100SAPC  C21910001   5.602   1.153   4.326 -0.2110 -0.1866  0.1323
  100SAPC  H19R10002   5.575   1.244   4.385 -1.7862 -1.3235  1.2772
  100SAPC  H19S10003   5.656   1.186   4.235 -0.8087 -2.8969 -1.3233
  100SAPC  C22010004   5.689   1.065   4.416 -0.4869 -0.4129 -0.0756
  100SAPC  H20R10005   5.771   1.134   4.445 -1.0067  1.8176 -3.3736
  100SAPC  H20S10006   5.733   0.977   4.365  0.1986  0.3260 -0.7955
  100SAPC  H20T10007   5.643   1.034   4.512  0.9341  2.2149  1.5723
  100SAPC   C3310008   5.250   1.885   3.069 -0.6446  1.1338  0.0488
  100SAPC   H3X10009   5.218   1.782   3.094 -0.5365  1.2079  0.4910
  100SAPC   H3Y10010   5.167   1.921   3.005 -1.0351  0.7787  0.3522
  100SAPC   C3410011   5.263   1.973   3.196 -1.0950  0.0716 -0.4165
  100SAPC   H4X10012   5.163   1.999   3.237  0.2370  1.6654  2.1306
  100SAPC   H4Y10013   5.305   2.072   3.168  1.1746 -0.1205  1.8588
  100SAPC   C3510014   5.350   1.901   3.301  0.5282  0.7447 -0.4952
  100SAPC   H5X10015   5.453   1.875   3.268 -0.3311 -1.2596 -1.8092
  100SAPC   H5Y10016   5.302   1.803   3.321 -0.8680  1.2596 -1.1592
  100SAPC   C3610017   5.358   1.969   3.441 -0.4237  0.0389 -0.0766
  100SAPC   H6X10018   5.261   2.018   3.463 -0.2522  1.4495 -2.1515
  100SAPC   H6Y10019   5.427   2.055   3.432  0.5256 -0.6314  0.5924
  100SAPC   C3710020   5.408   1.869   3.544  0.5795  0.8153 -0.0985
  100SAPC   H7X10021   5.501   1.818   3.511 -0.7167 -3.4884  2.1902
  100SAPC   H7Y10022   5.339   1.784   3.561  0.2032  0.5222 -2.6872
  100SAPC   C3810023   5.431   1.944   3.686 -0.0175  0.1163 -0.2224
  100SAPC   H8X10024   5.335   1.995   3.707 -0.0038  0.3426 -0.6951
  100SAPC   H8Y10025   5.504   2.026   3.666 -2.1641  1.9973 -0.7610
  100SAPC   C3910026   5.474   1.856   3.807 -0.2661 -0.9626  1.0845
  100SAPC   H9X10027   5.579   1.824   3.788 -0.8737 -1.8831 -0.9983
  100SAPC   H9Y10028   5.419   1.760   3.812 -0.0490 -1.1656 -0.1483
  100SAPC  C31010029   5.488   1.927   3.950 -0.2623  0.1489  0.4999
  100SAPC  H10X10030   5.537   1.856   4.020  1.2537  0.6223 -0.0514
  100SAPC  H10Y10031   5.387   1.946   3.992 -0.9826 -2.1203 -0.0728
  100SAPC  C31110032   5.568   2.056   3.950  0.3164 -0.2985  0.3537
  100SAPC  H11X10033   5.522   2.137   3.890 -1.4259 -0.9856  0.6987
  100SAPC  H11Y10034   5.658   2.037   3.888  0.5187  2.5446 -0.3553
  100SAPC  C31210035   5.612   2.121   4.081 -0.6365  0.3078 -0.2523
  100SAPC  H12X10036   5.667   2.214   4.056 -1.5324  0.7601 -0.5496
  100SAPC  H12Y10037   5.688   2.060   4.136 -0.5858  0.7058  0.1201
  100SAPC  C31310038   5.493   2.146   4.178  0.1780 -0.5558 -0.3129
  100SAPC  H13X10039   5.424   2.061   4.195 -0.7474  0.5650  1.7910
  100SAPC  H13Y10040   5.427   2.229   4.146  1.3081  1.0957  1.4380
  100SAPC  C31410041   5.547   2.184   4.320  0.0576 -0.5048  0.2262
  100SAPC  H14X10042   5.621   2.264   4.299 -1.2326  0.3201 -1.3962
  100SAPC  H14Y10043   5.599   2.098   4.368  1.5328 -0.7440 -1.7104
  100SAPC  C31510044   5.439   2.229   4.423 -0.3658 -0.6940  0.4883
  100SAPC  H15X10045   5.406   2.138   4.477  0.3693 -1.4415 -0.2988
  100SAPC  H15Y10046   5.352   2.276   4.371 -0.8113 -1.2497  0.7219
  100SAPC  C31610047   5.506   2.312   4.528  0.1470 -0.0987  0.3126
  100SAPC  H16X10048   5.431   2.338   4.606 -0.0347  1.7903 -0.4335
  100SAPC  H16Y10049   5.541   2.410   4.489 -1.2063  0.6240  0.8528
  100SAPC  C31710050   5.622   2.234   4.592  0.6374  0.0576  0.3263
  100SAPC  H17X10051   5.694   2.203   4.514  0.2209 -0.2685  0.0674
  100SAPC  H17Y10052   5.569   2.141   4.622 -0.1156  0.9605  1.9515
  100SAPC  C31810053   5.700   2.305   4.702 -0.0704 -0.1967 -0.5441
  100SAPC  H18X10054   5.770   2.230   4.744 -0.0229  0.8050  1.2752
  100SAPC  H18Y10055   5.620   2.337   4.773 -1.5334 -2.9346 -0.8258
  100SAPC  H18Z10056   5.762   2.390   4.667  0.3737 -0.2409  0.1140
  101OSM      N10057   2.943   3.935   7.352 -0.1068 -0.1559  0.1619
  101OSM    C1510058   2.820   3.994   7.294  0.5158 -0.2621  0.7007
  101OSM   H15A10059   2.790   4.089   7.336 -0.9812 -0.9567  1.3108
  101OSM   H15B10060   2.736   3.931   7.321 -0.0190  0.0046 -0.2810
  101OSM   H15C10061   2.817   3.996   7.186 -1.1775  0.6695  0.7350
  101OSM    C1410062   3.057   4.004   7.299 -0.5667  0.0394 -0.2231
  101OSM   H14A10063   3.055   4.011   7.192 -0.1364 -1.2148 -0.3340
  101OSM   H14B10064   3.149   3.963   7.339 -0.1314  0.8274 -0.3808
  101OSM   H14C10065   3.066   4.106   7.333  1.3182  0.4614 -1.7662
  101OSM    C1310066   2.940   3.963   7.503 -0.3215 -0.6176 -0.8223
  101OSM   H13A10067   3.031   3.930   7.552 -2.5409 -2.3324  2.5034
  101OSM   H13B10068   2.866   3.901   7.550 -2.0123  0.7035 -1.6621
  101OSM   H13C10069   2.928   4.068   7.524  0.9933 -0.7934  1.0632
  101OSM    C1210070   2.951   3.787   7.323  0.0802  0.3223 -0.2656
  101OSM   H12A10071   2.962   3.781   7.216  0.8080 -3.0789 -0.1319
  101OSM   H12B10072   2.856   3.738   7.339 -0.5342  1.3428 -0.6605
  101OSM    C1110073   3.066   3.699   7.385 -0.0241 -0.6352 -0.2572
  101OSM   H11A10074   3.067   3.596   7.344 -4.5452 -0.6613 -0.8318
  101OSM   H11B10075   3.038   3.695   7.492 -0.3093  0.0121 -0.3026
  101OSM      P10076   3.329   3.702   7.420  0.2711 -0.0677 -0.1845
  101OSM    O1310077   3.412   3.820   7.438 -0.3658  0.2876  0.1085
  101OSM    O1410078   3.311   3.624   7.548  0.0271  0.1923  0.4065
  101OSM    O1110079   3.388   3.621   7.303 -0.0590  0.4549  0.3465
  101OSM    O1210080   3.195   3.762   7.361  0.0111  0.3162 -0.3731
  101OSM    C1S10081   3.361   3.669   7.167 -0.2325  0.4045 -0.4335
  101OSM    H1S10082   3.398   3.774   7.163  0.6381  0.1362  0.2378
  101OSM    H1T10083   3.253   3.666   7.143 -0.3521 -2.5233  0.1887
  101OSM     NF10084   3.414   3.666   6.926 -0.9325  0.0360 -0.4092
  101OSM    HNF10085   3.347   3.615   6.872 -0.6350  0.0451 -0.7910
  101OSM    C2S10086   3.434   3.590   7.052 -0.0376 -0.5790  0.0453
  101OSM    H2S10087   3.542   3.595   7.074 -0.0545 -2.4660  0.7761
  101OSM    C3S10088   3.380   3.439   7.067  0.4952  0.5958 -0.5044
  101OSM    H3S10089   3.273   3.424   7.044  0.6135 -0.7949 -0.2210
  101OSM     O310090   3.392   3.384   7.201 -0.0848 -0.1933  0.0994
  101OSM    HO310091   3.371   3.455   7.261  0.3391 -1.9172  2.4210
  101OSM    C4S10092   3.449   3.348   6.975  0.5739 -0.0070  0.2529
  101OSM    H4S10093   3.383   3.326   6.891 -2.5071 -0.8249  2.7094
  101OSM    C5S10094   3.570   3.291   6.987 -0.6559  0.9446 -0.3263
  101OSM    H5S10095   3.637   3.327   7.066 -1.7226  1.6619  0.2712
  101OSM    C6S10096   3.643   3.199   6.898  0.0772  0.2514 -0.1098
  101OSM    H6S10097   3.688   3.114   6.954  0.7171  0.6018 -0.0832
  101OSM    H6T10098   3.732   3.244   6.848  2.6548 -0.9895  2.9483
  101OSM    C7S10099   3.563   3.139   6.785 -0.4769 -0.0143 -0.3046
  101OSM    H7S10100   3.528   3.225   6.724  2.2772  0.9394 -0.7027
  101OSM    H7T10101   3.484   3.077   6.832  0.8495 -0.2915  1.7096
  101OSM    C8S10102   3.651   3.045   6.704 -0.0801 -0.0244  0.1080
  101OSM    H8S10103   3.681   2.964   6.774  1.5905 -0.2061 -0.7652
  101OSM    H8T10104   3.740   3.097   6.663  1.2384 -2.5364 -0.4079
  101OSM    C9S10105   3.582   3.005   6.570  0.8043  0.6959  0.7039
  101OSM    H9S10106   3.535   3.096   6.527 -1.9679  0.0320  2.1184
  101OSM    H9T10107   3.496   2.938   6.592  1.1364 -0.9566 -2.4018
  101OSM   C10S10108   3.674   2.937   6.461  0.2470  0.0465 -0.3143
  101OSM   H10S10109   3.735   2.858   6.511  0.5657  0.3907 -0.1529
  101OSM   H10T10110   3.739   3.014   6.414 -1.1733  1.0622 -0.6884
  101OSM   C11S10111   3.599   2.886   6.336  0.5539 -0.8628 -0.5926
  101OSM   H11S10112   3.520   2.959   6.306  0.3552 -0.8456 -0.0444
  101OSM   H11T10113   3.555   2.785   6.351  0.2433 -1.1523 -3.0258
  101OSM   C12S10114   3.697   2.870   6.225  0.7875  0.1652  0.2547
  101OSM   H12S10115   3.779   2.801   6.254 -0.0891 -0.8857  0.3174
  101OSM   H12T10116   3.745   2.967   6.199  0.4421 -0.1520 -1.7135
  101OSM   C13S10117   3.620   2.826   6.102  0.0000  0.3548 -0.9491
  101OSM   H13S10118   3.547   2.903   6.071  0.7119  0.9588 -1.1624
  101OSM   H13T10119   3.580   2.725   6.123  1.4945 -0.2329 -0.7564
  101OSM   C14S10120   3.721   2.811   5.987  0.4125 -0.6672 -0.8210
  101OSM   H14S10121   3.811   2.751   6.014  0.6219  0.0189  0.0826
  101OSM   H14T10122   3.749   2.908   5.943  0.5001 -0.0781  0.4756
  101OSM   C15S10123   3.660   2.733   5.871  0.0737 -0.0182  0.5011
  101OSM   H15S10124   3.591   2.810   5.829  2.6045  2.9270  1.3592
  101OSM   H15T10125   3.610   2.643   5.912  2.0611 -0.9107  1.0925
  101OSM   C16S10126   3.763   2.695   5.762 -0.7757  0.5205 -0.2490
  101OSM   H16S10127   3.814   2.608   5.808 -1.3319  0.9434  1.2122
  101OSM   H16T10128   3.837   2.776   5.748 -2.1766  1.8549 -0.2274
  101OSM   C17S10129   3.707   2.655   5.623  0.2532 -0.9321  0.0263
  101OSM   H17S10130   3.650   2.745   5.589 -2.5446 -2.1468  1.1393
  101OSM   H17T10131   3.628   2.576   5.625  0.1482 -0.8227  1.1942
  101OSM   C18S10132   3.813   2.631   5.527 -0.4555 -0.7032 -0.2505
  101OSM   H18S10133   3.772   2.572   5.442  0.0473 -0.2358 -0.8245
  101OSM   H18T10134   3.897   2.567   5.563  0.5403 -0.0132 -1.2796
  101OSM   H18U10135   3.854   2.723   5.482 -1.9098 -0.0650 -0.3313
  101OSM    C1F10136   3.457   3.787   6.896  1.0885  0.4569 -0.1118
  101OSM     OF10137   3.534   3.848   6.969  0.2937 -0.0263 -0.0902
  101OSM    C2F10138   3.382   3.860   6.778 -0.4948 -0.5232  0.5834
  101OSM    H2F10139   3.294   3.917   6.813 -0.8579  0.4162 -1.6497
  101OSM    H2G10140   3.345   3.778   6.712 -1.4474 -0.4944  1.0656
  101OSM    C3F10141   3.488   3.939   6.703  0.0913 -0.0725 -0.3212
  101OSM    H3F10142   3.532   4.030   6.748  2.8513  0.3901 -3.5634
  101OSM    H3G10143   3.434   3.970   6.611  2.0439  0.6371 -1.2733
  101OSM    C4F10144   3.602   3.860   6.638  0.0077  0.4129 -0.0899
  101OSM    H4F10145   3.647   3.779   6.699  1.8658  0.7963 -0.8670
  101OSM    H4G10146   3.689   3.929   6.627 -0.2803  0.8318  0.2216
  101OSM    C5F10147   3.566   3.796   6.502 -0.1732  0.0506  0.6350
  101OSM    H5F10148   3.496   3.860   6.446 -3.3151 -1.9447  2.0310
  101OSM    H5G10149   3.509   3.703   6.524 -1.2697 -0.0372 -2.2516
  101OSM    C6F10150   3.682   3.764   6.412  0.2274 -0.4604 -0.5363
  101OSM    H6F10151   3.750   3.690   6.458 -1.9186 -2.4821 -0.4137
  101OSM    H6G10152   3.730   3.862   6.388 -1.5330  0.1993 -1.5749
  101OSM    C7F10153   3.634   3.699   6.279 -0.2433 -0.2001 -0.2822
  101OSM    H7F10154   3.596   3.771   6.204  1.2330  1.0176  0.0888
  101OSM    H7G10155   3.562   3.619   6.307  0.4744 -0.8348 -0.2194
  101OSM    C8F10156   3.738   3.622   6.203  0.0488 -0.2582  0.2106
  101OSM    H8F10157   3.686   3.545   6.142 -2.0245  1.6215 -0.5085
  101OSM    H8G10158   3.800   3.567   6.277  0.0401 -1.7430 -0.8469
  101OSM    C9F10159   3.834   3.720   6.136  0.2932 -0.3695 -0.2059
  101OSM    H9F10160   3.885   3.793   6.199 -1.0440 -1.0739  1.7940
  101OSM   C10F10161   3.852   3.723   6.004  0.0973 -0.3466 -0.1205
  101OSM   H10F10162   3.924   3.798   5.967 -1.6507  1.0594 -0.8515
  101OSM   C11F10163   3.774   3.654   5.900  0.0956  0.0566 -0.0671
  101OSM   H11F10164   3.725   3.729   5.834  2.6839  1.4522 -0.5117
  101OSM   H11G10165   3.686   3.595   5.935  0.2777 -0.9790 -1.2805
  101OSM   C12F10166   3.856   3.572   5.808  0.1430  0.4297  0.2037
  101OSM   H12F10167   3.907   3.492   5.866 -1.5944 -2.5036 -2.0067
  101OSM   H12G10168   3.938   3.632   5.764 -0.4246  0.0138 -1.5112
  101OSM   C13F10169   3.775   3.499   5.702  0.2890  0.0759 -0.1052
  101OSM   H13F10170   3.705   3.433   5.757  0.6607  0.3941  0.7550
  101OSM   H13G10171   3.843   3.439   5.638 -1.1776  0.9263 -2.6091
  101OSM   C14F10172   3.691   3.588   5.610  0.2980 -0.3081 -0.5283
  101OSM   H14F10173   3.752   3.674   5.575 -0.7741  0.8169  0.2822
  101OSM   H14G10174   3.609   3.630   5.671  2.4002  1.8306  1.0157
  101OSM   C15F10175   3.643   3.503   5.483 -1.0352 -0.1475  0.5943
  101OSM   H15F10176   3.570   3.423   5.507 -1.4940 -0.9454 -2.9340
  101OSM   H15G10177   3.727   3.454   5.429 -1.1406  0.9203 -0.5779
  101OSM   C16F10178   3.574   3.588   5.379  0.8681 -0.1515 -0.0765
  101OSM   H16F10179   3.628   3.684   5.364  0.1582  0.3862  0.6868
  101OSM   H16G10180   3.466   3.600   5.402  0.8967  1.5870 -0.6519
  101OSM   C17F10181   3.576   3.523   5.233 -0.2764  0.5523  0.0547
  101OSM   H17F10182   3.501   3.442   5.236  1.2905 -0.9574  0.3514
  101OSM   H17G10183   3.681   3.492   5.211 -0.7605 -0.0099 -1.5527
  101OSM   C18F10184   3.551   3.628   5.124 -0.2987  0.1182  0.3849
  101OSM   H18F10185   3.629   3.706   5.131  0.6393 -0.8051  0.4272
  101OSM   H18G10186   3.449   3.671   5.136 -0.3717  0.1900 -0.4219
  101OSM   H18H10187   3.557   3.579   5.024 -0.1949 -0.2211  0.5576
  102OSM      N10188   4.151   3.336   7.707  0.8993  0.2002  0.0162
  102OSM    C1510189   4.252   3.226   7.694 -0.0344 -0.1946 -0.0865
  102OSM   H15A10190   4.318   3.236   7.779  1.9220  1.3624 -1.6978
  102OSM   H15B10191   4.304   3.242   7.601 -1.9082  1.4735 -0.9289
  102OSM   H15C10192   4.200   3.131   7.696  0.6244 -0.5714 -0.4271
  102OSM    C1410193   4.067   3.329   7.834  0.3116  0.2698  0.0194
  102OSM   H14A10194   4.019   3.423   7.857 -0.8335 -0.5515  1.1527
  102OSM   H14B10195   4.127   3.307   7.921  0.5080 -0.9070 -0.3958
  102OSM   H14C10196   3.996   3.248   7.840  2.7779 -2.0267 -0.0835
  102OSM    C1310197   4.229   3.465   7.719  0.5580 -0.2986  0.4667
  102OSM   H13A10198   4.165   3.544   7.756 -0.2983 -0.4248 -0.6819
  102OSM   H13B10199   4.282   3.482   7.626  1.9540 -0.5801  1.1889
  102OSM   H13C10200   4.305   3.444   7.793  1.6688 -0.1927 -0.6115
  102OSM    C1210201   4.057   3.350   7.589 -0.7911 -0.8796  1.3085
  102OSM   H12A10202   3.987   3.429   7.609 -0.6390  0.0865 -1.5682
  102OSM   H12B10203   3.990   3.265   7.586  0.1383 -1.6037 -0.3624
  102OSM    C1110204   4.126   3.360   7.447  0.0794 -0.0505  0.2284
  102OSM   H11A10205   4.045   3.349   7.371  0.5720  0.3454 -0.3698
  102OSM   H11B10206   4.188   3.269   7.439  0.6152  0.2507  0.8406
  102OSM      P10207   4.149   3.620   7.389  0.5325 -0.0948  0.0873
  102OSM    O1310208   4.036   3.671   7.469 -0.1809 -0.2489  0.1350
  102OSM    O1410209   4.267   3.707   7.369 -0.1679 -0.3547  0.2157
  102OSM    O1110210   4.092   3.579   7.245 -0.5315  0.1640 -0.2957
  102OSM    O1210211   4.203   3.484   7.444  0.4390  0.5067  1.0433
  102OSM    C1S10212   4.068   3.692   7.154  0.4813  0.1607  0.2222
  102OSM    H1S10213   4.151   3.766   7.149 -0.9757  1.7760 -2.0686
  102OSM    H1T10214   3.973   3.735   7.192  0.4926  0.6713 -0.3183
  102OSM     NF10215   4.051   3.782   6.932 -0.0297 -0.3683 -0.3526
  102OSM    HNF10216   3.964   3.828   6.916  0.6739  0.9374 -0.4642
  102OSM    C2S10217   4.044   3.657   7.011 -0.4542  0.9415  0.2792
  102OSM    H2S10218   4.128   3.592   6.978 -2.6732 -1.2625 -1.3222
  102OSM    C3S10219   3.920   3.569   6.989 -0.1030  0.4549  0.1060
  102OSM    H3S10220   3.832   3.634   7.013  0.6317  1.8499 -0.8604
  102OSM     O310221   3.896   3.470   7.086  0.1876 -0.4798 -0.1927
  102OSM    HO310222   3.953   3.488   7.162 -0.3325  0.6791 -0.0586
  102OSM    C4S10223   3.907   3.513   6.856  0.1459 -0.2682 -0.4471
  102OSM    H4S10224   3.991   3.453   6.818 -0.4276 -1.3689 -0.0052
  102OSM    C5S10225   3.793   3.529   6.779  0.1590 -0.6632 -0.1824
  102OSM    H5S10226   3.712   3.587   6.826  0.6554 -0.1759  0.0800
  102OSM    C6S10227   3.767   3.453   6.648  0.6135  0.6252  1.0698
  102OSM    H6S10228   3.710   3.520   6.580  1.8022 -0.8901 -1.5899
  102OSM    H6T10229   3.696   3.371   6.669  0.5147 -0.0587 -1.5668
  102OSM    C7S10230   3.887   3.390   6.583 -0.1797 -0.6291 -0.5535
  102OSM    H7S10231   3.959   3.346   6.655  1.7906 -0.4204 -2.3079
  102OSM    H7T10232   3.946   3.473   6.539  0.3997 -0.8622 -0.2358
  102OSM    C8S10233   3.851   3.294   6.469 -0.0069  0.5676  0.4631
  102OSM    H8S10234   3.759   3.335   6.423  0.0991  1.0273  0.6586
  102OSM    H8T10235   3.824   3.205   6.530  0.3314  0.4338  0.4194
  102OSM    C9S10236   3.956   3.272   6.356 -0.8399 -0.1903 -0.2455
  102OSM    H9S10237   4.047   3.224   6.399  0.6966  3.2275  0.6883
  102OSM    H9T10238   3.998   3.372   6.332 -0.3992 -1.0718 -3.6681
  102OSM   C10S10239   3.903   3.199   6.232 -0.4115 -0.8593 -0.1158
  102OSM   H10S10240   3.793   3.183   6.244 -0.7734 -0.1706 -2.0644
  102OSM   H10T10241   3.956   3.101   6.231  0.3912 -0.4336 -0.9368
  102OSM   C11S10242   3.942   3.262   6.094 -0.0310  0.5282 -0.4459
  102OSM   H11S10243   4.033   3.323   6.110  0.5740 -0.2405 -0.9141
  102OSM   H11T10244   3.865   3.340   6.075  0.7000  1.2235 -0.6209
  102OSM   C12S10245   3.966   3.152   5.987  0.2428  0.6892 -0.3712
  102OSM   H12S10246   3.878   3.086   6.001  2.0454 -1.3318  2.7575
  102OSM   H12T10247   4.060   3.095   6.004 -0.2205  0.2185  0.6755
  102OSM   C13S10248   3.951   3.198   5.842  0.0939 -0.4355  0.1831
  102OSM   H13S10249   4.035   3.266   5.817  1.0781 -1.7669 -0.2700
  102OSM   H13T10250   3.856   3.254   5.825 -0.6784 -1.6526  0.3386
  102OSM   C14S10251   3.918   3.081   5.747  0.2714  0.5979 -0.8453
  102OSM   H14S10252   3.867   3.114   5.653  0.3908  1.4285 -0.6230
  102OSM   H14T10253   3.843   3.014   5.795  0.5832  1.1487  0.4479
  102OSM   C15S10254   4.039   2.988   5.710  0.2143 -0.5732  0.2485
  102OSM   H15S10255   4.019   2.879   5.703 -0.0229 -0.4277 -2.2881
  102OSM   H15T10256   4.111   2.999   5.794 -0.6534  1.0830  0.8428
  102OSM   C16S10257   4.114   3.033   5.584  1.0979 -0.7475 -0.1018
  102OSM   H16S10258   4.143   3.139   5.602 -0.3367 -0.0039 -1.8305
  102OSM   H16T10259   4.042   3.034   5.499  0.8629 -0.3540  0.1017
  102OSM   C17S10260   4.239   2.953   5.552  0.0357 -0.7378 -0.3935
  102OSM   H17S10261   4.251   2.876   5.632 -0.0939  0.5028  0.8625
  102OSM   H17T10262   4.325   3.024   5.558 -0.7166  0.2724 -1.3293
  102OSM   C18S10263   4.244   2.888   5.412  0.0880  0.6416  0.2214
  102OSM   H18S10264   4.340   2.835   5.389  0.4028  1.8694 -1.4754
  102OSM   H18T10265   4.238   2.974   5.342  1.1045  1.0633  0.6351
  102OSM   H18U10266   4.153   2.826   5.397  1.8894 -1.7389 -1.6944
  102OSM    C1F10267   4.170   3.834   6.900 -0.3989  0.3339 -0.5195
  102OSM     OF10268   4.281   3.786   6.928  0.5779 -0.4929  0.2248
  102OSM    C2F10269   4.163   3.961   6.827 -0.0128  0.2616  0.5663
  102OSM    H2F10270   4.241   4.032   6.862  2.3360 -1.6433 -0.4815
  102OSM    H2G10271   4.063   4.006   6.843 -0.4562  0.0331 -1.3297
  102OSM    C3F10272   4.171   3.964   6.677 -0.6131  0.1356  0.1836
  102OSM    H3F10273   4.274   3.944   6.640 -0.0705  2.4381  0.3377
  102OSM    H3G10274   4.150   4.070   6.651 -0.2852  0.6720  2.0052
  102OSM    C4F10275   4.059   3.878   6.612  0.4557  0.4961 -0.3838
  102OSM    H4F10276   3.961   3.917   6.645 -0.3297 -1.0790 -0.7492
  102OSM    H4G10277   4.057   3.775   6.652 -2.0236  0.2897 -0.8997
  102OSM    C5F10278   4.057   3.870   6.458  0.0520  0.1013 -0.2131
  102OSM    H5F10279   3.952   3.869   6.420  0.5415 -2.4759 -1.6758
  102OSM    H5G10280   4.115   3.784   6.421 -1.9461 -0.4905 -2.1830
  102OSM    C6F10281   4.109   3.994   6.387  0.0224 -0.1320  0.3756
  102OSM    H6F10282   4.219   3.984   6.397  0.1917  0.1395 -1.0226
  102OSM    H6G10283   4.076   4.091   6.429  1.4477  0.8233 -0.5936
  102OSM    C7F10284   4.089   3.990   6.237  0.3299 -0.0196  0.2282
  102OSM    H7F10285   3.984   4.017   6.214 -0.0827  1.6251  3.3999
  102OSM    H7G10286   4.098   3.883   6.209 -1.1054  0.1739 -1.0583
  102OSM    C8F10287   4.201   4.065   6.166 -1.1212  0.1602 -0.5554
  102OSM    H8F10288   4.185   4.038   6.059 -0.8843 -3.8360  0.2836
  102OSM    H8G10289   4.299   4.024   6.196 -0.8736  0.6666 -0.6665
  102OSM    C9F10290   4.201   4.208   6.196  0.5290 -0.2793  0.3445
  102OSM    H9F10291   4.111   4.237   6.251  1.4872 -0.2321  1.9349
  102OSM   C10F10292   4.288   4.310   6.170 -0.0900  0.4049 -0.2443
  102OSM   H10F10293   4.273   4.410   6.214  3.1990  1.6952 -1.7321
  102OSM   C11F10294   4.413   4.298   6.093  0.7899 -0.5028  0.1404
  102OSM   H11F10295   4.434   4.192   6.066  1.2267 -0.4645  0.3191
  102OSM   H11G10296   4.498   4.336   6.155  2.2397  0.7516 -2.4495
  102OSM   C12F10297   4.413   4.382   5.965 -0.4381  0.0288  0.1433
  102OSM   H12F10298   4.522   4.396   5.946 -0.4514 -1.4290 -1.2353
  102OSM   H12G10299   4.369   4.483   5.981 -1.0208 -0.5664  2.9474
  102OSM   C13F10300   4.332   4.323   5.854 -0.4804  0.3402 -0.1257
  102OSM   H13F10301   4.224   4.333   5.879 -0.6776 -1.0985 -0.3257
  102OSM   H13G10302   4.344   4.213   5.848  2.8295  0.5251  1.0249
  102OSM   C14F10303   4.356   4.387   5.713  0.1388 -0.2098 -0.4440
  102OSM   H14F10304   4.466   4.383   5.693  0.1124  1.6667 -1.1413
  102OSM   H14G10305   4.317   4.491   5.715  0.3354 -0.1192  2.1436
  102OSM   C15F10306   4.291   4.313   5.595  0.0820  0.0793  0.4542
  102OSM   H15F10307   4.180   4.319   5.589  0.0581 -0.2876  0.5295
  102OSM   H15G10308   4.326   4.208   5.608 -1.6177 -0.7262 -0.9934
  102OSM   C16F10309   4.340   4.354   5.458  0.3062  0.1673  0.0365
  102OSM   H16F10310   4.445   4.389   5.471  1.3417 -2.0049 -1.8382
  102OSM   H16G10311   4.286   4.449   5.435  3.7448  1.8944 -1.8086
  102OSM   C17F10312   4.320   4.242   5.350  0.0347  0.2543 -0.1699
  102OSM   H17F10313   4.214   4.208   5.357  0.2475 -1.3242 -2.9999
  102OSM   H17G10314   4.385   4.160   5.388  2.4985  0.7459 -3.0012
  102OSM   C18F10315   4.371   4.270   5.207  0.8138 -0.4943 -0.0511
  102OSM   H18F10316   4.300   4.316   5.136  1.6629 -2.0048 -1.9776
  102OSM   H18G10317   4.406   4.178   5.156  2.0959 -0.3169  0.4711
  102OSM   H18H10318   4.461   4.335   5.207  0.2668  0.2713  0.5382
  103OSM      N10319   2.739   2.416   7.118 -0.0075  0.4627 -0.8942
  103OSM    C1510320   2.889   2.414   7.099 -0.5747 -0.0371 -0.7525
  103OSM   H15A10321   2.907   2.440   6.996 -2.0083  2.1579 -0.5117
  103OSM   H15B10322   2.942   2.322   7.119  1.9154  1.5480  0.4834
  103OSM   H15C10323   2.927   2.486   7.170 -0.8901 -0.2165 -0.3990
  103OSM    C1410324   2.685   2.334   7.003  0.3301 -0.2629 -0.0520
  103OSM   H14A10325   2.722   2.233   7.005  3.1064  0.6659  0.2894
  103OSM   H14B10326   2.716   2.373   6.907  1.1254 -2.9793 -0.9884
  103OSM   H14C10327   2.577   2.337   7.000  0.3402  1.0438  0.0369
  103OSM    C1310328   2.723   2.356   7.257  0.0765  0.6178 -0.0555
  103OSM   H13A10329   2.618   2.338   7.273  0.5150 -1.4589  0.7861
  103OSM   H13B10330   2.754   2.427   7.333  0.2768  2.3547 -1.6896
  103OSM   H13C10331   2.765   2.257   7.262  0.3657  0.7524  0.3333
  103OSM    C1210332   2.688   2.555   7.109  0.3681 -0.3143  0.3439
  103OSM   H12A10333   2.580   2.558   7.113  0.3927  0.0383  0.8490
  103OSM   H12B10334   2.720   2.578   7.008  0.4952 -1.5135  0.1023
  103OSM    C1110335   2.745   2.669   7.196  0.2276 -0.3058 -0.2527
  103OSM   H11A10336   2.704   2.658   7.299  1.4789 -1.8349  0.1190
  103OSM   H11B10337   2.704   2.763   7.153 -0.1644 -0.6082 -0.5390
  103OSM      P10338   2.970   2.759   7.092 -0.1359 -0.0672 -0.0440
  103OSM    O1310339   2.947   2.904   7.119  0.0359  0.3033 -0.0485
  103OSM    O1410340   3.108   2.708   7.090  0.1703  0.4053  0.4225
  103OSM    O1110341   2.890   2.723   6.958 -0.0050 -0.9080 -0.5822
  103OSM    O1210342   2.884   2.677   7.199 -0.1978  0.0717 -0.5630
  103OSM    C1S10343   2.807   2.814   6.894  0.3042  0.5538  0.1343
  103OSM    H1S10344   2.830   2.922   6.907 -1.6531  1.2245 -1.3990
  103OSM    H1T10345   2.702   2.798   6.927  0.5701  0.6260  1.0240
  103OSM     NF10346   2.737   2.897   6.675  0.4918 -0.1433 -0.3450
  103OSM    HNF10347   2.646   2.868   6.646 -0.1982 -0.3439  1.8130
  103OSM    C2S10348   2.801   2.787   6.742 -0.1521 -0.3613  0.3997
  103OSM    H2S10349   2.906   2.796   6.706 -0.5906  3.4106 -0.3714
  103OSM    C3S10350   2.744   2.646   6.709 -0.9557  0.3317 -0.4331
  103OSM    H3S10351   2.638   2.654   6.742 -0.6846  2.4394  0.0221
  103OSM     O310352   2.808   2.543   6.785 -0.1532  0.0581  0.0563
  103OSM    HO310353   2.867   2.584   6.848  0.8422  0.8950 -1.3575
  103OSM    C4S10354   2.760   2.614   6.569  0.2251 -0.3897 -0.9352
  103OSM    H4S10355   2.867   2.614   6.543  0.3925 -0.6018 -0.2795
  103OSM    C5S10356   2.665   2.573   6.479 -0.8264 -0.4726 -0.4427
  103OSM    H5S10357   2.562   2.561   6.515 -0.2025 -1.3910  1.1592
  103OSM    C6S10358   2.693   2.534   6.336  0.0902  0.2163  0.8353
  103OSM    H6S10359   2.627   2.447   6.311  2.1512 -1.7258  1.7643
  103OSM    H6T10360   2.800   2.503   6.329 -0.1059 -0.1819 -0.7313
  103OSM    C7S10361   2.664   2.644   6.230  0.4068 -0.2346  0.2247
  103OSM    H7S10362   2.756   2.701   6.256  0.3670 -1.3181  3.2485
  103OSM    H7T10363   2.578   2.710   6.256  0.1708  0.5457 -2.3316
  103OSM    C8S10364   2.666   2.588   6.091  0.5117 -0.1645  0.2855
  103OSM    H8S10365   2.569   2.534   6.074  0.9066 -0.9944  0.6008
  103OSM    H8T10366   2.747   2.512   6.090 -0.5324 -1.3450 -0.9060
  103OSM    C9S10367   2.687   2.687   5.970  0.2605  0.3115  0.5583
  103OSM    H9S10368   2.794   2.713   5.962  0.1871  0.0872 -2.2232
  103OSM    H9T10369   2.633   2.777   6.005  2.4486  1.8725  0.0827
  103OSM   C10S10370   2.631   2.641   5.833 -0.7959  0.5496 -0.2828
  103OSM   H10S10371   2.522   2.619   5.838 -1.0378  1.2607 -1.7583
  103OSM   H10T10372   2.677   2.545   5.801 -0.4715  0.5875  0.0628
  103OSM   C11S10373   2.659   2.741   5.722  1.1519 -0.0624 -0.3090
  103OSM   H11S10374   2.602   2.831   5.754 -1.1188 -1.8581  1.0301
  103OSM   H11T10375   2.613   2.705   5.627 -2.6612 -1.2953  1.7588
  103OSM   C12S10376   2.811   2.770   5.691 -0.2260 -0.1483  0.3912
  103OSM   H12S10377   2.865   2.673   5.690  0.1482  0.0632 -0.0658
  103OSM   H12T10378   2.871   2.832   5.761 -0.3589  0.5986 -0.1425
  103OSM   C13S10379   2.825   2.831   5.548  0.5326  1.0648 -0.2590
  103OSM   H13S10380   2.787   2.935   5.548 -3.0549  0.1723 -5.2541
  103OSM   H13T10381   2.767   2.781   5.467  1.1332 -1.1032  0.5775
  103OSM   C14S10382   2.972   2.838   5.502 -0.2204 -0.2318 -0.9473
  103OSM   H14S10383   3.019   2.737   5.508  1.6707  0.6850  1.3466
  103OSM   H14T10384   3.029   2.892   5.581 -0.8978 -0.5645 -0.2132
  103OSM   C15S10385   2.996   2.889   5.356 -0.4466 -0.4687  0.3489
  103OSM   H15S10386   2.961   2.807   5.289  1.2185 -0.4866 -0.5654
  103OSM   H15T10387   3.106   2.906   5.358 -0.3969 -0.5047 -1.2139
  103OSM   C16S10388   2.935   3.025   5.331 -0.3347 -0.1213 -0.6776
  103OSM   H16S10389   2.953   3.094   5.416 -1.2026 -1.0015  0.2549
  103OSM   H16T10390   2.824   3.013   5.332 -0.5110  1.0632  1.9852
  103OSM   C17S10391   2.981   3.101   5.201 -0.6651 -0.3962  0.3538
  103OSM   H17S10392   3.092   3.113   5.206 -0.5628 -1.5887  1.3554
  103OSM   H17T10393   2.931   3.201   5.198  2.8819  1.5222 -1.6040
  103OSM   C18S10394   2.936   3.026   5.078  0.2138  0.1785 -0.8039
  103OSM   H18S10395   2.920   3.098   4.995 -1.7876 -2.1033 -2.5566
  103OSM   H18T10396   2.841   2.969   5.092 -0.1200  0.8285 -0.4131
  103OSM   H18U10397   3.011   2.951   5.044 -1.1388 -0.9910 -1.2970
  103OSM    C1F10398   2.791   3.020   6.659  0.0635  0.1570  0.1185
  103OSM     OF10399   2.892   3.054   6.719  0.0324 -1.0231 -0.5309
  103OSM    C2F10400   2.713   3.106   6.563 -0.2457  0.0153  0.0019
  103OSM    H2F10401   2.698   3.208   6.605 -2.6598  0.1249 -0.9415
  103OSM    H2G10402   2.613   3.061   6.545  0.0413 -0.1577 -1.2990
  103OSM    C3F10403   2.785   3.127   6.428  0.2040 -0.0744 -0.2683
  103OSM    H3F10404   2.894   3.140   6.448  0.1942  0.2816 -0.4369
  103OSM    H3G10405   2.738   3.214   6.378  0.5091  1.1448  1.4462
  103OSM    C4F10406   2.773   3.004   6.332  0.7134  0.6531 -0.1377
  103OSM    H4F10407   2.666   2.975   6.330  1.1153 -1.3939  2.3355
  103OSM    H4G10408   2.831   2.920   6.377  0.8558  2.1459  2.7087
  103OSM    C5F10409   2.836   3.037   6.197  0.3687 -0.6192  0.5468
  103OSM    H5F10410   2.828   2.941   6.141  0.2423  0.5031 -1.4570
  103OSM    H5G10411   2.944   3.060   6.210  0.4530 -0.5973 -0.1445
  103OSM    C6F10412   2.765   3.153   6.122 -0.5477  0.7421 -0.0022
  103OSM    H6F10413   2.802   3.249   6.166 -0.8989  0.9653 -0.1927
  103OSM    H6G10414   2.655   3.147   6.133 -0.5041  0.2021  0.1380
  103OSM    C7F10415   2.799   3.148   5.977  0.1224  0.6493  0.3110
  103OSM    H7F10416   2.772   3.053   5.926  1.2218 -1.0138  2.6732
  103OSM    H7G10417   2.909   3.163   5.963  0.1526  1.2987  1.1541
  103OSM    C8F10418   2.724   3.254   5.892  0.0367  0.3176  0.1917
  103OSM    H8F10419   2.738   3.358   5.928  1.2903 -0.4000  1.8688
  103OSM    H8G10420   2.614   3.252   5.907  0.1435 -0.5516  0.9433
  103OSM    C9F10421   2.764   3.242   5.750  0.4784  0.1436 -0.0558
  103OSM    H9F10422   2.862   3.278   5.714  0.4958  2.4930  2.0593
  103OSM   C10F10423   2.685   3.197   5.652  0.4172  0.3037  0.3277
  103OSM   H10F10424   2.723   3.190   5.549 -1.5148 -0.2180 -0.3969
  103OSM   C11F10425   2.536   3.149   5.662 -0.7053 -0.0788 -0.2241
  103OSM   H11F10426   2.467   3.234   5.640  0.7846  1.3325  0.3603
  103OSM   H11G10427   2.498   3.094   5.750 -2.9971  0.3294 -0.9019
  103OSM   C12F10428   2.503   3.043   5.562  0.5120  0.6587 -0.5195
  103OSM   H12F10429   2.394   3.024   5.567  0.8887 -2.0619 -1.2799
  103OSM   H12G10430   2.556   2.947   5.581  0.9386  0.9280 -0.3181
  103OSM   C13F10431   2.539   3.076   5.415  0.2032 -0.5036  0.8208
  103OSM   H13F10432   2.648   3.066   5.395  0.1826 -0.8462  0.8707
  103OSM   H13G10433   2.501   3.178   5.394  0.6352 -0.4038  0.5076
  103OSM   C14F10434   2.475   2.980   5.311 -0.1577 -0.1069 -0.2775
  103OSM   H14F10435   2.364   2.972   5.319 -0.3371  2.0914  0.1063
  103OSM   H14G10436   2.503   2.873   5.325 -2.3399 -0.7029 -0.0271
  103OSM   C15F10437   2.511   3.020   5.175 -0.6796 -0.2399  0.3754
  103OSM   H15F10438   2.621   3.010   5.176 -0.4354  1.6995  2.7189
  103OSM   H15G10439   2.472   3.119   5.142 -0.4359 -0.4477 -0.5519
  103OSM   C16F10440   2.445   2.923   5.077  0.7892  0.5639 -0.3470
  103OSM   H16F10441   2.335   2.926   5.089  0.5977 -1.0418 -1.3515
  103OSM   H16G10442   2.469   2.818   5.105 -0.9985 -0.0119 -0.8447
  103OSM   C17F10443   2.475   2.947   4.930 -0.5655 -0.3350  0.5751
  103OSM   H17F10444   2.584   2.941   4.913 -0.6132  2.6382 -1.5400
  103OSM   H17G10445   2.444   3.052   4.916  2.3545  0.5466  0.0506
  103OSM   C18F10446   2.400   2.869   4.823 -0.4223 -0.1713 -0.3725
  103OSM   H18F10447   2.408   2.909   4.719 -2.9544 -1.0355 -0.9787
  103OSM   H18G10448   2.293   2.875   4.853 -0.5898 -0.5117 -0.8872
  103OSM   H18H10449   2.420   2.760   4.817 -0.3180 -0.2024  0.3950
  104OSM      N10450   3.326   4.887   7.697 -0.2629  0.4619 -0.2752
  104OSM    C1510451   3.279   4.805   7.814  0.0779  0.2554  0.2672
  104OSM   H15A10452   3.288   4.700   7.792 -0.3200 -0.0902  1.6669
  104OSM   H15B10453   3.177   4.834   7.834  0.4313  2.6431 -0.9847
  104OSM   H15C10454   3.345   4.829   7.896  1.7449 -1.2771 -0.5552
  104OSM    C1410455   3.242   4.857   7.579  0.1643 -0.0020 -0.2587
  104OSM   H14A10456   3.142   4.882   7.611  0.8890  0.0895  2.1500
  104OSM   H14B10457   3.249   4.755   7.543  3.5554  0.5825 -1.6480
  104OSM   H14C10458   3.281   4.914   7.497  0.3770 -1.0198 -0.8890
  104OSM    C1310459   3.337   5.027   7.727 -0.2002 -0.6935 -0.9314
  104OSM   H13A10460   3.401   5.052   7.810 -0.1455  0.2160 -1.2384
  104OSM   H13B10461   3.241   5.072   7.751 -0.2609 -0.1906 -2.0694
  104OSM   H13C10462   3.381   5.067   7.637  1.1031 -0.7595 -0.3459
  104OSM    C1210463   3.465   4.831   7.663  1.1176 -0.0082 -0.4067
  104OSM   H12A10464   3.462   4.724   7.652 -0.6352 -0.0810  0.4359
  104OSM   H12B10465   3.520   4.845   7.755 -1.0707  1.1920  0.8071
  104OSM    C1110466   3.543   4.891   7.550 -0.2477  0.2778  0.0836
  104OSM   H11A10467   3.510   4.836   7.459  2.3858  0.8303 -1.3032
  104OSM   H11B10468   3.650   4.866   7.566  0.4200  2.1699 -0.9979
  104OSM      P10469   3.516   5.093   7.386 -0.2351  0.2224  0.0555
  104OSM    O1310470   3.373   5.078   7.362  0.3132  0.1569 -0.3229
  104OSM    O1410471   3.583   5.221   7.379  0.0404 -0.2850  0.4865
  104OSM    O1110472   3.608   4.990   7.296  0.1327 -0.2625 -0.1101
  104OSM    O1210473   3.542   5.033   7.533  0.1633  1.0493  0.0810
  104OSM    C1S10474   3.548   4.947   7.173 -0.2391  0.2194  0.4851
  104OSM    H1S10475   3.499   5.033   7.122 -0.6705 -0.6908 -0.6761
  104OSM    H1T10476   3.468   4.878   7.208 -1.2842  1.6656  1.0470
  104OSM     NF10477   3.555   4.811   6.968  0.6010  0.1128 -0.0267
  104OSM    HNF10478   3.543   4.712   6.964  0.6759  0.1219 -3.1180
  104OSM    C2S10479   3.641   4.876   7.067 -0.7496  0.1072 -0.5078
  104OSM    H2S10480   3.709   4.950   7.020 -0.2254  0.8369  1.2995
  104OSM    C3S10481   3.742   4.777   7.128  0.5968 -0.2186  0.5728
  104OSM    H3S10482   3.687   4.688   7.164  0.3467 -0.2249  0.1837
  104OSM     O310483   3.814   4.826   7.247  0.8327  0.2878  0.4664
  104OSM    HO310484   3.764   4.903   7.276  0.3366  0.0832  0.1649
  104OSM    C4S10485   3.833   4.729   7.015  0.1536 -0.1670 -0.8586
  104OSM    H4S10486   3.833   4.619   7.023 -0.2759 -0.0220  2.8318
  104OSM    C5S10487   3.918   4.792   6.925 -0.2818  0.1540  0.2477
  104OSM    H5S10488   3.922   4.902   6.925  0.4764  0.1562 -1.0621
  104OSM    C6S10489   3.992   4.721   6.808  0.0859 -0.7763 -0.5885
  104OSM    H6S10490   3.948   4.627   6.769 -0.9892 -0.0102 -1.2869
  104OSM    H6T10491   4.096   4.705   6.841  0.8164  1.6139 -1.4688
  104OSM    C7S10492   3.998   4.828   6.694  0.8087 -0.7360 -0.4858
  104OSM    H7S10493   4.016   4.929   6.735 -1.1657 -0.5852  0.1306
  104OSM    H7T10494   3.901   4.836   6.639  0.3647  1.9302  0.5658
  104OSM    C8S10495   4.095   4.786   6.585 -0.1116 -0.2225 -0.0831
  104OSM    H8S10496   4.065   4.684   6.553  0.8989 -0.8344  0.8405
  104OSM    H8T10497   4.199   4.767   6.619  0.6765  0.7421 -1.8316
  104OSM    C9S10498   4.091   4.879   6.469  0.1445 -0.3818 -0.3244
  104OSM    H9S10499   4.080   4.985   6.501 -2.3933 -0.4593 -0.7261
  104OSM    H9T10500   4.003   4.847   6.409  1.8343 -3.3149 -1.3926
  104OSM   C10S10501   4.218   4.861   6.390  0.2200 -0.1504  0.0955
  104OSM   H10S10502   4.232   4.763   6.340  0.1552 -0.1824  0.1389
  104OSM   H10T10503   4.305   4.876   6.458 -0.0432 -1.5622  0.7931
  104OSM   C11S10504   4.214   4.967   6.276  0.9048  0.6732  0.2847
  104OSM   H11S10505   4.320   4.980   6.245  0.5267 -1.7815 -2.4796
  104OSM   H11T10506   4.164   5.055   6.322 -0.7057 -0.4900  0.8515
  104OSM   C12S10507   4.141   4.920   6.154  0.1321  0.2123 -0.3936
  104OSM   H12S10508   4.030   4.915   6.164  0.1393  0.3118 -0.2622
  104OSM   H12T10509   4.177   4.822   6.118  0.0371  0.3948 -0.9947
  104OSM   C13S10510   4.174   4.999   6.023  0.3347  0.0588  0.0990
  104OSM   H13S10511   4.283   5.014   6.012  0.5415 -0.0400  1.7514
  104OSM   H13T10512   4.129   5.101   6.026  0.6676  0.2834 -1.6227
  104OSM   C14S10513   4.116   4.931   5.896  0.4114 -0.6178 -0.0137
  104OSM   H14S10514   4.011   4.898   5.915  0.7866 -1.4743  0.6453
  104OSM   H14T10515   4.168   4.834   5.904  1.6180  0.1415  2.0723
  104OSM   C15S10516   4.141   5.013   5.780 -0.4384  0.5132  0.4662
  104OSM   H15S10517   4.250   5.024   5.765 -0.4743 -2.8178 -5.3032
  104OSM   H15T10518   4.088   5.111   5.786 -1.1273  0.2194 -0.5064
  104OSM   C16S10519   4.102   4.931   5.651  1.1719 -0.6491  0.8238
  104OSM   H16S10520   3.994   4.905   5.649  0.9511  0.2842 -0.0106
  104OSM   H16T10521   4.150   4.832   5.633  0.7047 -0.3459 -2.6485
  104OSM   C17S10522   4.124   5.011   5.519 -0.0743  0.1468  0.8139
  104OSM   H17S10523   4.110   4.937   5.437 -1.9825 -0.3570  1.5517
  104OSM   H17T10524   4.233   5.033   5.509  0.2320 -0.7505  1.9638
  104OSM   C18S10525   4.039   5.139   5.501 -0.3107 -0.6830 -0.8206
  104OSM   H18S10526   4.029   5.184   5.400  2.0790  3.0791  0.4125
  104OSM   H18T10527   4.078   5.222   5.563 -0.1189 -1.3175 -0.0888
  104OSM   H18U10528   3.937   5.123   5.541 -0.5493 -0.4207 -1.3163
  104OSM    C1F10529   3.482   4.887   6.884  0.2834 -0.3608 -0.3391
  104OSM     OF10530   3.508   5.006   6.864  0.0060  0.0203  0.1010
  104OSM    C2F10531   3.354   4.831   6.838 -0.0436 -0.1304  1.4523
  104OSM    H2F10532   3.275   4.869   6.907 -0.7973 -0.0264  0.5465
  104OSM    H2G10533   3.358   4.720   6.838  1.3731 -0.1014  0.3614
  104OSM    C3F10534   3.314   4.884   6.695 -0.1611 -0.0081 -0.0778
  104OSM    H3F10535   3.348   4.988   6.674 -0.8234 -0.0012 -1.1846
  104OSM    H3G10536   3.206   4.889   6.671 -0.1915  0.1122  0.0836
  104OSM    C4F10537   3.391   4.806   6.584  0.0004 -0.1900 -0.4882
  104OSM    H4F10538   3.351   4.854   6.492 -1.6405  0.2611  0.4111
  104OSM    H4G10539   3.369   4.697   6.588  0.8518 -0.4293 -1.6685
  104OSM    C5F10540   3.544   4.810   6.582 -0.5421 -0.7985 -0.3745
  104OSM    H5F10541   3.594   4.775   6.675 -0.5159 -0.5450 -0.2950
  104OSM    H5G10542   3.576   4.916   6.575 -1.6237 -0.4589 -0.4267
  104OSM    C6F10543   3.594   4.712   6.475  0.3039 -0.0396 -0.0566
  104OSM    H6F10544   3.550   4.750   6.381  2.3600 -0.6176 -1.3109
  104OSM    H6G10545   3.547   4.612   6.489  0.7633 -0.0555  1.7088
  104OSM    C7F10546   3.750   4.692   6.461 -0.1698 -0.7968 -1.1846
  104OSM    H7F10547   3.774   4.627   6.547 -0.9346 -1.4542 -1.4486
  104OSM    H7G10548   3.805   4.788   6.469 -1.0360 -0.4226  0.9483
  104OSM    C8F10549   3.790   4.606   6.344  0.4413  0.0131  0.3317
  104OSM    H8F10550   3.713   4.526   6.350  0.7191 -0.1431  2.4093
  104OSM    H8G10551   3.892   4.565   6.360 -1.4521 -5.0648  1.1076
  104OSM    C9F10552   3.781   4.687   6.226  0.4054  0.0924  0.4253
  104OSM    H9F10553   3.776   4.796   6.238  1.7504  0.0019  2.1689
  104OSM   C10F10554   3.814   4.637   6.106 -0.2097 -0.1343  0.1965
  104OSM   H10F10555   3.788   4.709   6.027 -2.0450  0.5411  1.3528
  104OSM   C11F10556   3.858   4.500   6.069 -0.5503  0.0611  0.4366
  104OSM   H11F10557   3.795   4.456   5.989  3.4486 -1.1313 -2.4085
  104OSM   H11G10558   3.870   4.422   6.147 -0.9629 -0.4702 -0.0171
  104OSM   C12F10559   3.999   4.492   6.001  0.0952  0.2771  0.0395
  104OSM   H12F10560   4.032   4.386   5.994  0.3679  0.3963 -0.5522
  104OSM   H12G10561   4.074   4.531   6.073  0.2281 -0.3584  0.2504
  104OSM   C13F10562   4.004   4.570   5.872 -0.5146  0.1694 -0.4670
  104OSM   H13F10563   4.112   4.580   5.847 -0.6249 -0.1353 -1.0928
  104OSM   H13G10564   3.965   4.672   5.890 -2.6654 -0.5289 -0.9126
  104OSM   C14F10565   3.938   4.493   5.751 -1.0589 -0.1290 -0.4541
  104OSM   H14F10566   3.834   4.469   5.779  0.1408 -3.5548  1.7494
  104OSM   H14G10567   3.983   4.392   5.761  0.0675  0.5179  1.6852
  104OSM   C15F10568   3.969   4.562   5.621 -0.3201 -1.2166 -0.2314
  104OSM   H15F10569   4.079   4.578   5.614 -0.3023 -1.1054  0.2626
  104OSM   H15G10570   3.916   4.659   5.621  3.1057  0.8122 -1.0312
  104OSM   C16F10571   3.935   4.479   5.491 -0.7191 -0.1978 -0.1821
  104OSM   H16F10572   3.827   4.455   5.487 -0.6988 -0.2412 -0.5235
  104OSM   H16G10573   3.985   4.380   5.501  1.0199  0.3523 -2.4369
  104OSM   C17F10574   3.972   4.556   5.360 -0.3765  0.1055 -0.3194
  104OSM   H17F10575   3.959   4.489   5.272 -0.5128  0.1122 -0.3050
  104OSM   H17G10576   4.079   4.586   5.358 -0.2279 -0.4510 -1.6838
  104OSM   C18F10577   3.891   4.684   5.339 -0.3125 -0.6011  0.1160
  104OSM   H18F10578   3.929   4.740   5.251  0.9503 -0.6695  0.5929
  104OSM   H18G10579   3.916   4.758   5.418 -0.1491  0.6309 -1.0525
  104OSM   H18H10580   3.782   4.666   5.327 -0.1602 -0.4152 -1.8032
  105OSM      N10581   5.794   4.614   6.955 -0.8989  0.2290  0.4995
  105OSM    C1510582   5.800   4.762   6.974 -0.3715 -0.7764 -0.9151
  105OSM   H15A10583   5.707   4.809   6.946 -0.7298  0.2024  1.6388
  105OSM   H15B10584   5.881   4.799   6.914  0.1959 -1.3699 -0.5212
  105OSM   H15C10585   5.815   4.786   7.078 -0.6507  0.7932 -1.2140
  105OSM    C1410586   5.845   4.590   6.815 -0.6744  0.2074 -0.0522
  105OSM   H14A10587   5.947   4.625   6.806 -1.1151  1.6783  0.3710
  105OSM   H14B10588   5.779   4.642   6.748  0.6208  1.1122 -0.6685
  105OSM   H14C10589   5.836   4.486   6.787 -1.9479  0.2401  0.1683
  105OSM    C1310590   5.880   4.545   7.064 -0.1921  0.0519  0.1550
  105OSM   H13A10591   5.825   4.542   7.156 -3.0981  1.7796 -1.3871
  105OSM   H13B10592   5.976   4.592   7.081  0.3762 -1.2197  0.6464
  105OSM   H13C10593   5.898   4.442   7.035 -0.2019 -0.3025  1.3525
  105OSM    C1210594   5.654   4.562   6.960  0.3063  0.1007 -0.4111
  105OSM   H12A10595   5.629   4.548   7.064  1.5845 -2.0941 -0.3249
  105OSM   H12B10596   5.662   4.460   6.926 -0.7885  0.4874 -1.9351
  105OSM    C1110597   5.546   4.639   6.880 -0.6114  0.3445  0.4689
  105OSM   H11A10598   5.453   4.579   6.870  0.1395 -0.5719 -1.7713
  105OSM   H11B10599   5.584   4.655   6.776 -0.9308  0.3226  0.3494
  105OSM      P10600   5.416   4.799   7.037 -0.2336  0.3733  0.5032
  105OSM    O1310601   5.440   4.707   7.148  0.0570  0.1533 -0.3393
  105OSM    O1410602   5.419   4.943   7.065 -0.2947 -0.1139 -0.3380
  105OSM    O1110603   5.282   4.764   6.972 -0.5990 -0.0702  0.5281
  105OSM    O1210604   5.516   4.768   6.928 -0.5270  0.5968 -0.2806
  105OSM    C1S10605   5.239   4.863   6.872  0.3053 -0.1468 -0.1251
  105OSM    H1S10606   5.310   4.947   6.857  0.0006  0.6528  2.3882
  105OSM    H1T10607   5.146   4.913   6.907 -1.0467 -1.3668 -1.7947
  105OSM     NF10608   5.199   4.914   6.637  0.0172 -1.1776  0.0788
  105OSM    HNF10609   5.107   4.943   6.612 -0.0560  0.4227  1.9689
  105OSM    C2S10610   5.224   4.805   6.734  0.1640 -0.1123 -0.3712
  105OSM    H2S10611   5.323   4.761   6.711  0.8950  0.7080  1.0766
  105OSM    C3S10612   5.118   4.690   6.736  1.1715 -0.4559 -0.6305
  105OSM    H3S10613   5.023   4.735   6.769  1.3248 -0.8669  0.4252
  105OSM     O310614   5.127   4.602   6.844  0.0670 -0.2611 -0.4979
  105OSM    HO310615   5.193   4.645   6.899  1.2412 -0.4570 -1.7001
  105OSM    C4S10616   5.114   4.617   6.612  0.4785  0.4850  0.6214
  105OSM    H4S10617   5.194   4.543   6.595  1.5257  2.2059 -2.8847
  105OSM    C5S10618   5.015   4.628   6.521 -0.4862  0.6280 -0.2865
  105OSM    H5S10619   4.929   4.696   6.531 -0.7667  0.2345 -0.0093
  105OSM    C6S10620   5.009   4.545   6.391 -0.5383  0.1863 -0.0388
  105OSM    H6S10621   4.936   4.463   6.413 -2.3295  1.6887 -0.1184
  105OSM    H6T10622   5.099   4.482   6.379 -0.7648 -0.9156  3.0240
  105OSM    C7S10623   4.973   4.624   6.263 -0.4392 -0.4892  0.5418
  105OSM    H7S10624   5.057   4.696   6.252 -0.9916  0.6260  2.9252
  105OSM    H7T10625   4.877   4.672   6.294 -1.1070 -1.2449 -0.3333
  105OSM    C8S10626   4.958   4.555   6.127  0.4099 -0.4753  1.1739
  105OSM    H8S10627   4.861   4.502   6.127 -0.4637  1.0772  0.6226
  105OSM    H8T10628   5.042   4.486   6.101  2.6548  2.3532  0.3993
  105OSM    C9S10629   4.941   4.669   6.019  0.2778  0.4972  0.2195
  105OSM    H9S10630   5.037   4.722   6.034  0.0135  1.1241 -0.2329
  105OSM    H9T10631   4.852   4.734   6.038  0.3738  0.2218  1.7467
  105OSM   C10S10632   4.944   4.620   5.872  0.0587 -0.3160  0.6658
  105OSM   H10S10633   4.856   4.553   5.860  0.2731 -0.9194  2.1737
  105OSM   H10T10634   5.036   4.561   5.850  0.8408  1.4012 -0.9022
  105OSM   C11S10635   4.950   4.728   5.753 -0.1375  0.4550  0.5078
  105OSM   H11S10636   5.054   4.766   5.750 -0.3597  0.9988 -0.2956
  105OSM   H11T10637   4.882   4.815   5.763  0.1046  0.6658  0.3292
  105OSM   C12S10638   4.898   4.673   5.625 -0.2062 -0.0059  0.3780
  105OSM   H12S10639   4.802   4.618   5.634 -0.1413 -0.7107 -2.3042
  105OSM   H12T10640   4.968   4.599   5.582 -1.8299 -1.6491  0.4472
  105OSM   C13S10641   4.890   4.771   5.508  0.8850  0.2118  0.5412
  105OSM   H13S10642   4.993   4.813   5.502  0.8853  0.2429  0.7559
  105OSM   H13T10643   4.812   4.847   5.527  2.4177  2.6682 -2.0982
  105OSM   C14S10644   4.855   4.716   5.373 -0.3091  0.2079 -0.0963
  105OSM   H14S10645   4.750   4.679   5.370 -1.1218  2.4138 -0.8094
  105OSM   H14T10646   4.928   4.637   5.343 -2.0423 -0.4214 -3.1266
  105OSM   C15S10647   4.891   4.808   5.254  0.9277  0.2902  0.6988
  105OSM   H15S10648   5.001   4.825   5.263  0.9793 -0.9511  3.2703
  105OSM   H15T10649   4.835   4.904   5.254  0.3638 -0.0348  0.0379
  105OSM   C16S10650   4.849   4.733   5.124 -0.3565 -0.8387  0.3957
  105OSM   H16S10651   4.740   4.711   5.137 -0.5141 -0.2771  0.0547
  105OSM   H16T10652   4.917   4.645   5.126  2.3646  1.1908  1.8733
  105OSM   C17S10653   4.873   4.799   4.980  0.4705  0.3254  0.1710
  105OSM   H17S10654   4.858   4.713   4.911 -1.3668  1.3947 -0.8370
  105OSM   H17T10655   4.980   4.828   4.981  1.0866 -1.7406 -0.4960
  105OSM   C18S10656   4.768   4.900   4.935 -0.7110  0.5348  0.5444
  105OSM   H18S10657   4.794   4.961   4.845 -2.6662  2.9999  1.5518
  105OSM   H18T10658   4.770   4.971   5.020  0.4494  1.0981  0.0630
  105OSM   H18U10659   4.668   4.854   4.924 -0.0961 -0.9983  1.0648
  105OSM    C1F10660   5.303   4.993   6.596 -0.8605  0.0527  0.6775
  105OSM     OF10661   5.419   4.972   6.628 -0.8860  0.1416  0.1974
  105OSM    C2F10662   5.267   5.104   6.503 -0.0203 -0.2553  0.0556
  105OSM    H2F10663   5.160   5.120   6.531 -0.0696 -0.4883  0.0009
  105OSM    H2G10664   5.270   5.081   6.394 -0.2505  0.4868 -0.1093
  105OSM    C3F10665   5.348   5.240   6.522  0.1975 -0.0864 -0.4990
  105OSM    H3F10666   5.452   5.203   6.528  0.0982 -0.2116  3.6121
  105OSM    H3G10667   5.341   5.279   6.626  0.2282 -2.0000  0.2657
  105OSM    C4F10668   5.325   5.353   6.410  0.8421 -0.2780  0.2337
  105OSM    H4F10669   5.395   5.437   6.432  1.5165 -1.2343  1.9555
  105OSM    H4G10670   5.220   5.385   6.422  1.2695  0.6964  1.6825
  105OSM    C5F10671   5.338   5.312   6.267 -0.2910  0.3969  0.6565
  105OSM    H5F10672   5.251   5.257   6.226 -1.5042  0.9331  2.3790
  105OSM    H5G10673   5.429   5.252   6.247 -2.5039 -2.3836 -2.0244
  105OSM    C6F10674   5.355   5.434   6.178  0.4581  0.1579  0.3928
  105OSM    H6F10675   5.450   5.485   6.207  1.3632 -1.1205 -0.2297
  105OSM    H6G10676   5.275   5.510   6.193 -1.1390 -1.8963  3.0411
  105OSM    C7F10677   5.361   5.394   6.031 -0.1435 -0.6236  0.3756
  105OSM    H7F10678   5.264   5.341   6.012 -0.7071  0.2426  0.7826
  105OSM    H7G10679   5.442   5.319   6.023 -1.1453 -1.6453 -0.8282
  105OSM    C8F10680   5.389   5.511   5.936 -0.6499  0.3207  0.4881
  105OSM    H8F10681   5.395   5.484   5.828  1.9574  1.9506  0.1426
  105OSM    H8G10682   5.493   5.542   5.958  0.4024 -2.8157  0.4234
  105OSM    C9F10683   5.294   5.631   5.955 -0.2461 -0.0589 -0.1655
  105OSM    H9F10684   5.320   5.706   6.030  0.9822  0.6726 -1.2874
  105OSM   C10F10685   5.183   5.658   5.880  0.4194  0.2581  0.5735
  105OSM   H10F10686   5.133   5.753   5.905  2.7837  1.0308  2.8233
  105OSM   C11F10687   5.129   5.574   5.764  0.3710 -0.3297  0.5737
  105OSM   H11F10688   5.018   5.581   5.757  0.2654  3.0208  3.1276
  105OSM   H11G10689   5.169   5.471   5.779 -0.3214 -0.5002  1.2800
  105OSM   C12F10690   5.184   5.626   5.621 -0.2275 -0.3086 -0.8150
  105OSM   H12F10691   5.294   5.627   5.640 -0.7409 -0.8459  2.8777
  105OSM   H12G10692   5.151   5.729   5.594  3.0606  1.5547  1.4576
  105OSM   C13F10693   5.170   5.522   5.506 -0.1331 -0.5109 -0.0181
  105OSM   H13F10694   5.064   5.492   5.493 -1.2930  2.8582  0.8352
  105OSM   H13G10695   5.212   5.427   5.546  0.7243 -0.0479  0.2089
  105OSM   C14F10696   5.240   5.570   5.383  0.2568  0.9085  0.5054
  105OSM   H14F10697   5.349   5.574   5.399  0.3811 -1.2837  0.5103
  105OSM   H14G10698   5.195   5.667   5.352 -0.9914  0.0958 -0.3362
  105OSM   C15F10699   5.242   5.471   5.257  0.3318 -0.4177  0.0326
  105OSM   H15F10700   5.305   5.522   5.181  1.9635 -1.5499  0.5711
  105OSM   H15G10701   5.135   5.475   5.229  0.3375  1.2395  0.1205
  105OSM   C16F10702   5.321   5.347   5.279  0.0513 -0.1966 -0.0554
  105OSM   H16F10703   5.301   5.306   5.380  1.8216  0.2905  0.5263
  105OSM   H16G10704   5.429   5.375   5.278 -0.1050  0.4319  0.3032
  105OSM   C17F10705   5.302   5.233   5.180  0.6040  0.1783 -0.0219
  105OSM   H17F10706   5.351   5.142   5.220 -1.0717 -1.1208 -0.7862
  105OSM   H17G10707   5.347   5.251   5.080  1.2752 -1.1711  0.0028
  105OSM   C18F10708   5.152   5.197   5.151  0.2135  0.6336 -0.2745
  105OSM   H18F10709   5.111   5.178   5.252  0.6431  2.4786  0.2899
  105OSM   H18G10710   5.149   5.105   5.089 -0.4548  0.9727 -0.7558
  105OSM   H18H10711   5.094   5.284   5.115  2.3648  2.0119 -0.6404
  106OSM      N10712   3.555   2.955   7.350 -0.5170  0.3048 -0.1344
  106OSM    C1510713   3.593   3.077   7.434  0.5782  0.6611  0.0578
  106OSM   H15A10714   3.520   3.156   7.442 -0.3885 -0.2123  0.0753
  106OSM   H15B10715   3.691   3.114   7.408  0.5169 -0.1152 -1.3668
  106OSM   H15C10716   3.617   3.046   7.535  0.7899  2.3630  0.5599
  106OSM    C1410717   3.441   2.879   7.404  0.7501 -0.0801  0.6869
  106OSM   H14A10718   3.469   2.831   7.497  0.1117 -0.9683  0.4437
  106OSM   H14B10719   3.412   2.804   7.332  0.4201  0.2217  0.5067
  106OSM   H14C10720   3.360   2.944   7.433 -1.4046 -2.2328 -0.1530
  106OSM    C1310721   3.532   3.005   7.214  0.0704 -0.1336  0.1809
  106OSM   H13A10722   3.443   3.066   7.221 -0.3675 -0.8430  1.0252
  106OSM   H13B10723   3.503   2.931   7.142  1.0299  0.0633 -0.4266
  106OSM   H13C10724   3.614   3.066   7.180  0.1449 -0.7666 -0.7951
  106OSM    C1210725   3.669   2.859   7.340 -0.2967 -0.1888 -0.2840
  106OSM   H12A10726   3.749   2.896   7.279  0.7448 -4.0650 -1.5721
  106OSM   H12B10727   3.634   2.776   7.281  0.7355 -1.6759  1.0908
  106OSM    C1110728   3.728   2.812   7.480  0.2564  1.1028  0.0492
  106OSM   H11A10729   3.756   2.903   7.538  1.2560  1.3402 -0.7889
  106OSM   H11B10730   3.824   2.757   7.473 -0.8968 -1.1367  0.6609
  106OSM      P10731   3.617   2.583   7.533 -0.1662 -0.4384 -0.3953
  106OSM    O1310732   3.742   2.514   7.558  0.2806 -0.0273 -0.1821
  106OSM    O1410733   3.503   2.533   7.612  0.1522 -0.3181 -0.2737
  106OSM    O1110734   3.581   2.574   7.384 -0.2764  0.0001 -0.1747
  106OSM    O1210735   3.634   2.737   7.564 -0.2390  0.3925 -0.2038
  106OSM    C1S10736   3.546   2.450   7.322 -0.1827 -0.0074  0.0536
  106OSM    H1S10737   3.442   2.422   7.350 -0.2277 -0.9396 -0.9674
  106OSM    H1T10738   3.605   2.364   7.358 -0.9963 -0.2534  0.8464
  106OSM     NF10739   3.477   2.368   7.087  0.0926 -0.3820 -0.4046
  106OSM    HNF10740   3.526   2.289   7.052 -0.1361 -1.3589  1.3606
  106OSM    C2S10741   3.555   2.470   7.166  0.2034  0.5745 -0.1439
  106OSM    H2S10742   3.506   2.569   7.153 -1.3390  0.3794  3.1609
  106OSM    C3S10743   3.700   2.471   7.124 -0.4838 -0.2364  0.3772
  106OSM    H3S10744   3.746   2.375   7.155 -0.5082 -0.1099  0.8090
  106OSM     O310745   3.772   2.578   7.195 -0.0445  0.2987  0.4019
  106OSM    HO310746   3.709   2.595   7.266 -3.7213 -1.7940 -2.0227
  106OSM    C4S10747   3.725   2.485   6.976 -0.4638 -0.6851 -0.4327
  106OSM    H4S10748   3.724   2.388   6.924 -2.6761 -0.7575 -0.3500
  106OSM    C5S10749   3.750   2.594   6.895 -0.6489 -0.2087 -0.8730
  106OSM    H5S10750   3.756   2.694   6.940 -2.6963 -0.3203 -0.2879
  106OSM    C6S10751   3.783   2.591   6.747  0.3619  0.2543  0.2652
  106OSM    H6S10752   3.894   2.591   6.741  0.4381  0.4732  1.4961
  106OSM    H6T10753   3.758   2.687   6.696  1.2664 -1.3137 -3.5347
  106OSM    C7S10754   3.736   2.482   6.657  0.5584 -0.1325  0.2406
  106OSM    H7S10755   3.628   2.472   6.682  0.3728  1.9491  0.4946
  106OSM    H7T10756   3.781   2.381   6.664 -0.6270 -0.6998 -0.0640
  106OSM    C8S10757   3.753   2.527   6.505  0.1174 -0.2493  0.0578
  106OSM    H8S10758   3.853   2.574   6.498  0.0049  0.0966  0.6899
  106OSM    H8T10759   3.679   2.605   6.477 -0.3762 -0.7377 -0.0257
  106OSM    C9S10760   3.730   2.417   6.412  0.5093  0.8628 -0.3956
  106OSM    H9S10761   3.623   2.389   6.421  1.3344 -2.7217 -0.4746
  106OSM    H9T10762   3.770   2.319   6.445  0.8648  1.0081 -0.3920
  106OSM   C10S10763   3.767   2.442   6.265 -0.0448  0.6544  0.2825
  106OSM   H10S10764   3.878   2.447   6.265  0.2411 -2.8657 -1.1127
  106OSM   H10T10765   3.717   2.536   6.233 -2.6809 -0.3956  0.9651
  106OSM   C11S10766   3.728   2.331   6.166  0.2408 -0.4570  0.7129
  106OSM   H11S10767   3.620   2.308   6.158  0.5138 -2.2243  1.5466
  106OSM   H11T10768   3.776   2.239   6.206  1.1166 -0.8614 -1.1845
  106OSM   C12S10769   3.785   2.365   6.028  0.6947 -0.0767  0.1755
  106OSM   H12S10770   3.895   2.361   6.034  0.7149 -1.3554 -0.6188
  106OSM   H12T10771   3.758   2.469   6.000  2.2878 -0.0381 -1.3314
  106OSM   C13S10772   3.730   2.275   5.913 -0.3166  0.6207 -0.0533
  106OSM   H13S10773   3.629   2.315   5.890 -0.8692 -0.4107  0.4941
  106OSM   H13T10774   3.720   2.169   5.945  0.4936  0.6264  0.2307
  106OSM   C14S10775   3.809   2.293   5.786 -0.8752  0.3279  0.4251
  106OSM   H14S10776   3.915   2.268   5.805 -0.3790  0.9484 -1.3942
  106OSM   H14T10777   3.809   2.401   5.761 -2.4704  0.5744  1.3339
  106OSM   C15S10778   3.756   2.210   5.673  0.0301  0.5909  0.9390
  106OSM   H15S10779   3.649   2.227   5.650  0.6736  2.8842 -0.7979
  106OSM   H15T10780   3.784   2.106   5.699  5.6811  1.5277 -0.0564
  106OSM   C16S10781   3.828   2.235   5.534 -0.2313  0.5495 -0.2485
  106OSM   H16S10782   3.930   2.193   5.548 -1.1401 -0.9655  2.7200
  106OSM   H16T10783   3.836   2.344   5.509  2.1109  0.4592 -0.1555
  106OSM   C17S10784   3.754   2.175   5.411  0.2970  0.2421 -0.7586
  106OSM   H17S10785   3.653   2.222   5.400 -0.3996 -0.3359  2.3101
  106OSM   H17T10786   3.716   2.073   5.430 -3.0466  1.3618 -0.6391
  106OSM   C18S10787   3.819   2.192   5.273 -0.4737 -0.2386  0.2652
  106OSM   H18S10788   3.745   2.183   5.190 -1.6701  2.2271  0.9647
  106OSM   H18T10789   3.908   2.126   5.271 -0.6640 -0.4822 -0.6456
  106OSM   H18U10790   3.866   2.293   5.263 -0.2198 -0.3405  0.4149
  106OSM    C1F10791   3.336   2.367   7.082  0.0671  0.2685 -0.0214
  106OSM     OF10792   3.266   2.451   7.144 -0.5699  0.0176 -0.4753
  106OSM    C2F10793   3.274   2.250   7.020 -0.4250  0.3795 -0.5277
  106OSM    H2F10794   3.207   2.201   7.094  0.1117  0.8350  0.2727
  106OSM    H2G10795   3.356   2.182   6.990  2.0957  2.3023  1.4905
  106OSM    C3F10796   3.192   2.296   6.903  0.2839  0.4318 -0.8734
  106OSM    H3F10797   3.265   2.333   6.828  1.4323  0.7427  0.3707
  106OSM    H3G10798   3.121   2.380   6.914 -0.3122 -0.0049 -1.2770
  106OSM    C4F10799   3.121   2.183   6.846  0.0373  0.2183  0.7095
  106OSM    H4F10800   3.047   2.145   6.920  1.5108 -1.0732  1.5978
  106OSM    H4G10801   3.198   2.103   6.832  0.3593  0.3867  1.4310
  106OSM    C5F10802   3.057   2.227   6.710 -0.0378  0.1151  0.1857
  106OSM    H5F10803   3.122   2.267   6.629 -0.9316 -0.5717 -0.8982
  106OSM    H5G10804   2.988   2.312   6.732 -0.3136  0.2540 -1.1538
  106OSM    C6F10805   2.941   2.128   6.669  0.0089  0.2580  0.2820
  106OSM    H6F10806   2.877   2.117   6.759  0.5882  0.2255  0.6913
  106OSM    H6G10807   2.989   2.031   6.645  0.8251  0.7383 -0.0457
  106OSM    C7F10808   2.836   2.184   6.565  0.4229 -0.4597  0.0960
  106OSM    H7F10809   2.780   2.271   6.606  2.2913  0.5212  0.7394
  106OSM    H7G10810   2.770   2.097   6.543 -0.2789 -0.0867  0.6800
  106OSM    C8F10811   2.900   2.230   6.432  0.3313  0.5354 -0.3018
  106OSM    H8F10812   2.988   2.295   6.451  1.1460 -0.3500 -0.9370
  106OSM    H8G10813   2.830   2.299   6.379 -1.3953  0.2438  1.4829
  106OSM    C9F10814   2.943   2.113   6.354 -0.6206 -0.3263 -0.1738
  106OSM    H9F10815   2.996   2.034   6.410  1.1172  0.3139 -0.8398
  106OSM   C10F10816   2.910   2.097   6.225 -0.3362  0.5702 -0.8324
  106OSM   H10F10817   2.941   2.002   6.180 -0.6997 -0.7202  1.4806
  106OSM   C11F10818   2.841   2.193   6.128  0.0434 -0.0682  0.4854
  106OSM   H11F10819   2.870   2.297   6.156 -1.6349  0.2017  1.3581
  106OSM   H11G10820   2.731   2.180   6.132 -0.1869 -1.4468 -4.1718
  106OSM   C12F10821   2.867   2.177   5.972  0.4986  0.5483 -0.4361
  106OSM   H12F10822   2.786   2.237   5.924  0.3075  0.5135 -0.1609
  106OSM   H12G10823   2.857   2.068   5.953  0.0619  0.5097 -0.0068
  106OSM   C13F10824   3.007   2.228   5.940  0.8380 -0.6041 -0.0618
  106OSM   H13F10825   3.080   2.198   6.019 -0.6004 -0.6429  1.2871
  106OSM   H13G10826   3.014   2.338   5.927  3.4857 -0.8011 -0.8973
  106OSM   C14F10827   3.052   2.165   5.810 -0.4214  0.1631  0.0376
  106OSM   H14F10828   3.052   2.054   5.806 -0.2967  0.1317  0.7982
  106OSM   H14G10829   3.158   2.189   5.790 -0.9905  1.7064 -1.3904
  106OSM   C15F10830   2.979   2.219   5.694  0.2323 -0.1915  0.1764
  106OSM   H15F10831   2.988   2.330   5.701  1.3762 -0.2421 -0.2984
  106OSM   H15G10832   2.870   2.200   5.705  0.1219  0.8200  0.9676
  106OSM   C16F10833   3.028   2.166   5.563  0.0154  0.5855  0.1713
  106OSM   H16F10834   3.054   2.059   5.582 -2.1862  0.4560  2.9414
  106OSM   H16G10835   3.118   2.221   5.527  0.8112 -0.6584  0.1734
  106OSM   C17F10836   2.917   2.160   5.455  0.4003 -0.0846 -0.4020
  106OSM   H17F10837   2.844   2.244   5.463  0.1694 -0.2626 -0.6427
  106OSM   H17G10838   2.856   2.073   5.489  0.4370  0.0218 -0.0588
  106OSM   C18F10839   2.964   2.126   5.318 -1.1124  0.0071  0.3756
  106OSM   H18F10840   3.017   2.215   5.280  1.0662  0.3746  3.7893
  106OSM   H18G10841   2.877   2.081   5.265 -0.8516 -0.7475  0.5679
  106OSM   H18H10842   3.039   2.045   5.324 -2.6526 -1.4142  1.4649
  107OSM      N10843   4.014   1.768   7.568 -0.0146  0.4895  0.1959
  107OSM    C1510844   4.013   1.631   7.496 -0.5088  0.0595  0.0015
  107OSM   H15A10845   3.985   1.550   7.562  1.5411 -1.8428 -1.3430
  107OSM   H15B10846   4.113   1.612   7.461 -0.3364  1.8992 -0.6147
  107OSM   H15C10847   3.953   1.638   7.406  0.6425  0.4107 -0.7534
  107OSM    C1410848   4.107   1.744   7.679 -0.0419  0.1490 -0.7044
  107OSM   H14A10849   4.208   1.721   7.649 -0.9745 -2.6820 -1.9776
  107OSM   H14B10850   4.071   1.666   7.744  0.6919 -0.4859 -1.0423
  107OSM   H14C10851   4.125   1.829   7.744  1.6224 -0.3446 -0.4524
  107OSM    C1310852   4.078   1.875   7.489  0.6176  0.1839 -0.4629
  107OSM   H13A10853   4.084   1.964   7.551 -0.8790 -0.1150  0.1319
  107OSM   H13B10854   4.012   1.886   7.405 -0.2348 -0.5445  0.0942
  107OSM   H13C10855   4.176   1.842   7.457  0.3383 -0.3072 -0.8053
  107OSM    C1210856   3.871   1.806   7.610  0.6193 -0.3025 -0.0773
  107OSM   H12A10857   3.871   1.881   7.687 -1.1287 -0.6512  0.3076
  107OSM   H12B10858   3.833   1.717   7.659 -1.2804 -0.6021 -1.9594
  107OSM    C1110859   3.768   1.839   7.509 -0.6324 -0.2097 -0.1734
  107OSM   H11A10860   3.664   1.830   7.546 -0.9462 -0.5028 -1.0814
  107OSM   H11B10861   3.777   1.764   7.427  1.5231  0.0494 -0.2173
  107OSM      P10862   3.731   2.055   7.360  0.1696  0.0731 -0.3724
  107OSM    O1310863   3.598   2.096   7.413  0.1658  0.0376  0.3655
  107OSM    O1410864   3.826   2.162   7.335 -0.2868 -0.4181  0.3398
  107OSM    O1110865   3.703   1.982   7.230  0.0681  0.1456 -0.3474
  107OSM    O1210866   3.796   1.967   7.472  0.6591 -0.3946  0.4229
  107OSM    C1S10867   3.804   1.915   7.151 -0.7593 -0.1014  0.4682
  107OSM    H1S10868   3.835   1.822   7.204 -0.1283  0.0834  0.4374
  107OSM    H1T10869   3.894   1.980   7.142 -1.8140  1.1995 -1.0932
  107OSM     NF10870   3.849   1.791   6.953 -0.2293 -0.3928 -0.1089
  107OSM    HNF10871   3.905   1.827   6.879  0.2154 -1.2819 -0.2164
  107OSM    C2S10872   3.753   1.877   7.019  0.2435 -0.7187  0.6044
  107OSM    H2S10873   3.657   1.822   7.019 -1.0743  1.4246 -1.1943
  107OSM    C3S10874   3.724   2.008   6.943 -0.4364 -0.0742  0.4976
  107OSM    H3S10875   3.826   2.049   6.927 -0.9213  0.8916 -0.2120
  107OSM     O310876   3.656   2.110   7.016  0.5319  0.4360  0.5064
  107OSM    HO310877   3.669   2.077   7.106 -1.3681 -0.5680  0.4715
  107OSM    C4S10878   3.666   1.983   6.806 -0.9838  0.1067  0.3049
  107OSM    H4S10879   3.749   1.999   6.735 -1.1386  0.6888  0.2538
  107OSM    C5S10880   3.540   1.977   6.759 -0.5451 -0.1697 -0.4122
  107OSM    H5S10881   3.461   1.990   6.835 -0.7863 -0.6800 -0.5709
  107OSM    C6S10882   3.503   1.982   6.615 -0.2939  0.1927  0.7172
  107OSM    H6S10883   3.437   1.898   6.585 -1.0995  0.6071  1.2843
  107OSM    H6T10884   3.593   1.964   6.552  0.3255  2.2307  0.9287
  107OSM    C7S10885   3.432   2.119   6.577 -0.0483  0.2282 -0.2810
  107OSM    H7S10886   3.507   2.200   6.565 -1.1038  2.0474  3.7702
  107OSM    H7T10887   3.359   2.153   6.653  0.7468 -0.6433  0.9077
  107OSM    C8S10888   3.347   2.112   6.443 -0.1594  0.0527  0.5542
  107OSM    H8S10889   3.269   2.191   6.435 -3.3370 -2.8250  0.3335
  107OSM    H8T10890   3.279   2.025   6.458 -1.6203  1.1162  0.3592
  107OSM    C9S10891   3.429   2.073   6.317  0.4533  0.4883 -0.2204
  107OSM    H9S10892   3.504   1.996   6.342  1.1350  1.0644 -0.4628
  107OSM    H9T10893   3.484   2.168   6.299  0.6095  0.5851  0.7374
  107OSM   C10S10894   3.346   2.048   6.188 -0.1181 -0.1521  0.4959
  107OSM   H10S10895   3.262   2.118   6.170  1.0289  0.5181 -3.2641
  107OSM   H10T10896   3.309   1.943   6.193  2.9614 -1.3866  0.1199
  107OSM   C11S10897   3.441   2.045   6.063  0.3183  0.1130  0.9011
  107OSM   H11S10898   3.512   1.961   6.075 -1.8733 -1.4524  5.6128
  107OSM   H11T10899   3.496   2.141   6.058 -0.2944  0.4130 -2.6585
  107OSM   C12S10900   3.368   2.045   5.926 -0.2790 -0.1925 -0.0001
  107OSM   H12S10901   3.296   2.129   5.928  0.3112  0.3431 -0.5803
  107OSM   H12T10902   3.295   1.962   5.922 -2.1046  1.3696 -0.7901
  107OSM   C13S10903   3.467   2.058   5.812 -0.4042  0.9549  0.4335
  107OSM   H13S10904   3.556   1.992   5.815 -0.9025  0.1483 -1.2066
  107OSM   H13T10905   3.495   2.165   5.798 -0.4617  0.8839 -0.3088
  107OSM   C14S10906   3.391   2.001   5.686  0.0903 -0.1246 -0.0863
  107OSM   H14S10907   3.301   2.063   5.667  0.6268  0.8323  0.4069
  107OSM   H14T10908   3.354   1.897   5.703 -4.1687  1.2172  0.1409
  107OSM   C15S10909   3.485   1.988   5.566  0.7290  0.1812  0.4580
  107OSM   H15S10910   3.570   1.922   5.594 -0.2552 -2.5239 -2.3284
  107OSM   H15T10911   3.507   2.095   5.549 -3.9491  1.3816  0.7157
  107OSM   C16S10912   3.415   1.930   5.441  0.1053  0.2778  0.2295
  107OSM   H16S10913   3.321   1.986   5.423  0.3074  0.3764 -0.5702
  107OSM   H16T10914   3.393   1.822   5.458 -1.4889  0.1814 -2.0082
  107OSM   C17S10915   3.501   1.953   5.315 -0.2686 -0.1068 -0.3893
  107OSM   H17S10916   3.602   1.907   5.317 -0.9451 -1.6641 -0.6861
  107OSM   H17T10917   3.513   2.063   5.305 -1.7411  0.2567  1.3200
  107OSM   C18S10918   3.435   1.901   5.188  0.2447 -0.2194  0.4558
  107OSM   H18S10919   3.334   1.947   5.183  0.7527  0.9869  0.8758
  107OSM   H18T10920   3.416   1.792   5.179  0.4944 -0.1180 -1.9128
  107OSM   H18U10921   3.484   1.945   5.099  0.1965  0.3806  0.7220
  107OSM    C1F10922   3.879   1.667   6.985  0.3450  0.3753  0.2797
  107OSM     OF10923   3.822   1.608   7.075  0.0750 -0.3154  0.5949
  107OSM    C2F10924   3.966   1.607   6.883 -0.0649  0.1970 -0.5813
  107OSM    H2F10925   4.069   1.647   6.893  0.0966 -0.3184 -0.0617
  107OSM    H2G10926   3.925   1.637   6.784  0.1765  1.2383 -0.3782
  107OSM    C3F10927   3.958   1.445   6.885 -0.0395  0.0252 -0.0669
  107OSM    H3F10928   3.853   1.414   6.867  0.4771 -0.6918 -2.1956
  107OSM    H3G10929   3.999   1.420   6.986  0.3065  4.1776  0.9995
  107OSM    C4F10930   4.059   1.398   6.782 -0.3430 -0.1211 -0.1324
  107OSM    H4F10931   4.049   1.287   6.788  1.3486 -0.3004 -0.2136
  107OSM    H4G10932   4.162   1.429   6.808 -0.4609  0.0083  0.1878
  107OSM    C5F10933   4.023   1.435   6.640  0.1203 -0.2265  0.4064
  107OSM    H5F10934   4.026   1.545   6.632  1.8610  0.0080  3.1338
  107OSM    H5G10935   3.915   1.414   6.625  0.1136 -0.0696  0.2385
  107OSM    C6F10936   4.098   1.377   6.519  0.3393 -0.5189  0.0691
  107OSM    H6F10937   4.054   1.424   6.429 -2.1196  2.8593  2.7653
  107OSM    H6G10938   4.082   1.267   6.524  0.7479 -0.6814 -1.7638
  107OSM    C7F10939   4.246   1.403   6.523 -0.5075  0.7929 -0.1003
  107OSM    H7F10940   4.291   1.330   6.594 -0.4562 -0.6820 -1.5843
  107OSM    H7G10941   4.281   1.501   6.561  2.6923 -0.9811  2.0401
  107OSM    C8F10942   4.313   1.383   6.380 -0.4586 -0.3087  0.3547
  107OSM    H8F10943   4.416   1.424   6.375 -0.0333 -1.4143 -0.2525
  107OSM    H8G10944   4.258   1.444   6.306  0.0083 -0.9202 -0.5144
  107OSM    C9F10945   4.315   1.238   6.331  0.6123  0.6409  0.1321
  107OSM    H9F10946   4.342   1.155   6.399 -3.2658 -1.2333 -0.3298
  107OSM   C10F10947   4.287   1.199   6.205  0.2326 -0.6121 -0.5023
  107OSM   H10F10948   4.281   1.090   6.191  1.3083 -0.4636 -2.3378
  107OSM   C11F10949   4.256   1.282   6.082 -0.4295 -0.1320  0.2282
  107OSM   H11F10950   4.336   1.252   6.011 -0.0805 -1.4177  1.1333
  107OSM   H11G10951   4.268   1.392   6.087  0.2504 -0.1104 -1.2396
  107OSM   C12F10952   4.119   1.247   6.018 -0.4517 -0.4040  0.2589
  107OSM   H12F10953   4.030   1.299   6.058 -0.0461 -0.1665  0.8772
  107OSM   H12G10954   4.102   1.138   6.032  2.1052 -0.9650 -0.4034
  107OSM   C13F10955   4.125   1.278   5.865 -0.2456  0.3716 -0.4703
  107OSM   H13F10956   4.170   1.377   5.841 -0.2461  0.4161 -0.2913
  107OSM   H13G10957   4.022   1.261   5.828 -0.8075  2.7397 -0.2006
  107OSM   C14F10958   4.213   1.177   5.793  0.0467 -0.3587 -0.2716
  107OSM   H14F10959   4.215   1.075   5.838 -0.4603  0.2978  1.3221
  107OSM   H14G10960   4.317   1.215   5.797 -0.4538  0.9811  2.2721
  107OSM   C15F10961   4.165   1.162   5.641 -0.0039 -0.0785 -0.2576
  107OSM   H15F10962   4.149   1.267   5.606  1.0181 -0.3927 -1.7532
  107OSM   H15G10963   4.070   1.105   5.642 -0.8949  1.3310  1.2379
  107OSM   C16F10964   4.276   1.085   5.567 -0.5100  0.2590  0.7018
  107OSM   H16F10965   4.285   0.978   5.597  0.8727  0.3204  0.6081
  107OSM   H16G10966   4.375   1.133   5.586  1.2222 -1.3885 -3.1287
  107OSM   C17F10967   4.250   1.078   5.413  0.0149  0.1280  0.0898
  107OSM   H17F10968   4.238   1.180   5.370 -2.9630 -0.8476 -1.7146
  107OSM   H17G10969   4.151   1.030   5.394  0.7644 -0.9572 -1.1830
  107OSM   C18F10970   4.355   0.998   5.335 -0.6933  0.1403 -0.3950
  107OSM   H18F10971   4.362   0.889   5.356 -1.1016 -0.7035 -4.0011
  107OSM   H18G10972   4.457   1.034   5.362 -0.8869  0.4201 -0.0314
  107OSM   H18H10973   4.336   1.031   5.230 -3.7846  0.7921  0.2648
  108OSM      N10974   6.584   0.030   6.902 -0.4397  0.0165 -0.7456
  108OSM    C1510975   6.519  -0.039   7.019  0.3010 -0.7440 -0.0696
  108OSM   H15A10976   6.600  -0.064   7.086  0.6302  3.9769  1.6744
  108OSM   H15B10977   6.473  -0.136   7.003 -2.1918  0.5992 -1.5909
  108OSM   H15C10978   6.446   0.023   7.067  0.9770 -0.9058  1.2051
  108OSM    C1410979   6.629   0.170   6.946 -1.0517 -0.1853 -0.7571
  108OSM   H14A10980   6.681   0.165   7.041 -1.5919  0.4926 -0.4103
  108OSM   H14B10981   6.546   0.236   6.969  0.3057  1.0210  0.9923
  108OSM   H14C10982   6.681   0.223   6.868 -2.0342 -0.7152 -1.8022
  108OSM    C1310983   6.698  -0.056   6.862  0.0667  0.2504  0.4632
  108OSM   H13A10984   6.759   0.000   6.793  0.1546  1.9083  1.8223
  108OSM   H13B10985   6.668  -0.153   6.827 -0.1306  0.4593  0.0434
  108OSM   H13C10986   6.770  -0.067   6.941  0.3637 -2.8838 -0.1169
  108OSM    C1210987   6.479   0.045   6.801  0.4228 -0.0145 -0.0725
  108OSM   H12A10988   6.394   0.095   6.845  1.0285 -0.1275  1.2775
  108OSM   H12B10989   6.435  -0.051   6.780 -0.4575  0.6356 -1.3094
  108OSM    C1110990   6.507   0.099   6.662  0.0199  0.2014 -0.1097
  108OSM   H11A10991   6.427   0.066   6.593 -0.1619 -1.0014  0.6395
  108OSM   H11B10992   6.598   0.055   6.614  2.0091  4.0287 -0.2303
  108OSM      P10993   6.401   0.341   6.678 -0.1741  0.1833  0.4204
  108OSM    O1310994   6.308   0.299   6.783  0.1756  0.0415  0.6773
  108OSM    O1410995   6.450   0.479   6.675  0.3519 -0.3535  0.0533
  108OSM    O1110996   6.323   0.309   6.543  0.2384 -0.3452 -0.0602
  108OSM    O1210997   6.517   0.245   6.679 -0.1485  0.2473 -0.4236
  108OSM    C1S10998   6.179   0.327   6.544  0.3031 -0.6943  0.1589
  108OSM    H1S10999   6.139   0.396   6.621 -1.8654 -1.2504 -0.3905
  108OSM    H1T11000   6.129   0.229   6.561  0.0004 -0.4018  0.9788
  108OSM     NF11001   6.013   0.460   6.422 -0.0784  0.4904 -0.0559
  108OSM    HNF11002   5.932   0.415   6.385  0.1266 -0.1558  0.2854
  108OSM    C2S11003   6.131   0.384   6.407  0.7280 -0.3550 -0.2445
  108OSM    H2S11004   6.203   0.462   6.374  1.4187  1.8849  5.4518
  108OSM    C3S11005   6.128   0.263   6.315  0.2141 -0.1352  0.2223
  108OSM    H3S11006   6.049   0.196   6.354 -0.0584  1.0878  1.8696
  108OSM     O311007   6.251   0.190   6.308  0.3590  0.2304  0.4652
  108OSM    HO311008   6.315   0.236   6.363 -0.8186  1.0129  1.2407
  108OSM    C4S11009   6.090   0.308   6.176 -0.5464  0.3675 -0.7725
  108OSM    H4S11010   5.991   0.266   6.152  0.0223 -0.3908 -1.8486
  108OSM    C5S11011   6.173   0.346   6.074  0.3760 -0.0023 -0.6615
  108OSM    H5S11012   6.282   0.348   6.093  0.2219 -2.8502  1.1107
  108OSM    C6S11013   6.130   0.359   5.930 -0.1883  0.7257 -0.0426
  108OSM    H6S11014   6.215   0.320   5.870  0.1605  1.3000  0.0606
  108OSM    H6T11015   6.111   0.467   5.910 -1.3276  0.5817  0.2118
  108OSM    C7S11016   6.012   0.267   5.879  0.2507 -0.4782  0.0892
  108OSM    H7S11017   5.913   0.294   5.922  0.0541 -1.0775  0.0218
  108OSM    H7T11018   6.031   0.164   5.915  0.1853 -0.5874 -0.1880
  108OSM    C8S11019   5.994   0.265   5.731 -0.1065 -0.3786 -0.0220
  108OSM    H8S11020   6.095   0.262   5.685 -0.0679 -2.0828  0.1084
  108OSM    H8T11021   5.943   0.357   5.696  0.0319 -0.2607  0.0830
  108OSM    C9S11022   5.898   0.154   5.692 -0.4429  0.0547  0.1501
  108OSM    H9S11023   5.799   0.180   5.736  0.2085 -0.8888  2.3229
  108OSM    H9T11024   5.924   0.058   5.742 -2.1387  0.8984  2.8599
  108OSM   C10S11025   5.888   0.144   5.541 -0.3174 -0.2319  1.0888
  108OSM   H10S11026   5.830   0.055   5.508 -2.6691  1.1095  1.4102
  108OSM   H10T11027   5.991   0.143   5.500 -0.9916 -1.1480 -0.6660
  108OSM   C11S11028   5.821   0.261   5.472  0.4096 -0.5752  0.0553
  108OSM   H11S11029   5.884   0.350   5.494  0.1233 -0.5122  0.6317
  108OSM   H11T11030   5.724   0.268   5.524  1.1180 -0.1530  1.3771
  108OSM   C12S11031   5.793   0.248   5.324  0.0709  0.2046 -0.4530
  108OSM   H12S11032   5.720   0.321   5.285  1.1276  2.3916  1.4606
  108OSM   H12T11033   5.753   0.145   5.313 -2.1504  0.8936  0.7472
  108OSM   C13S11034   5.913   0.248   5.238 -0.2563  0.2999 -0.4923
  108OSM   H13S11035   5.975   0.163   5.273 -1.8823 -0.9285 -0.4462
  108OSM   H13T11036   5.954   0.350   5.257 -0.3592  0.5863 -1.7212
  108OSM   C14S11037   5.888   0.232   5.085 -0.5173  0.4448 -0.1457
  108OSM   H14S11038   5.811   0.301   5.045  1.3608  2.8904  0.2387
  108OSM   H14T11039   5.852   0.130   5.061  2.2332 -0.6306 -0.0295
  108OSM   C15S11040   6.016   0.260   5.000 -0.1778 -0.2195  0.0336
  108OSM   H15S11041   6.098   0.186   5.009  0.4199  0.5357  1.0637
  108OSM   H15T11042   6.056   0.359   5.031 -0.5620  0.0424 -0.2971
  108OSM   C16S11043   5.988   0.277   4.852  1.2898 -0.4838  0.0318
  108OSM   H16S11044   6.085   0.296   4.802  1.3477 -1.5612 -0.2974
  108OSM   H16T11045   5.922   0.366   4.854  0.2268 -1.2475  2.0104
  108OSM   C17S11046   5.912   0.160   4.775  0.2429 -0.0013 -0.7699
  108OSM   H17S11047   5.825   0.118   4.829 -0.7075 -0.4836 -2.6039
  108OSM   H17T11048   5.988   0.079   4.771  0.3183  0.1253 -2.6114
  108OSM   C18S11049   5.868   0.189   4.636  1.1199  0.0613  0.7303
  108OSM   H18S11050   5.826   0.092   4.602  1.9133  0.5594 -1.9068
  108OSM   H18T11051   5.955   0.212   4.570  2.0244  1.4385  2.3216
  108OSM   H18U11052   5.786   0.265   4.639 -0.1347 -1.2046 -0.1841
  108OSM    C1F11053   6.011   0.583   6.467 -0.5236  0.1020  0.2652
  108OSM     OF11054   6.102   0.656   6.494 -0.6873  0.1792  0.0445
  108OSM    C2F11055   5.878   0.639   6.474  0.0899 -0.2390  0.0540
  108OSM    H2F11056   5.875   0.738   6.524  1.3110 -0.1559  0.0071
  108OSM    H2G11057   5.815   0.563   6.525 -0.4772 -0.0910 -0.4165
  108OSM    C3F11058   5.819   0.662   6.333 -0.1328 -0.3559  0.1013
  108OSM    H3F11059   5.723   0.717   6.342  0.7868  1.0070  2.3605
  108OSM    H3G11060   5.784   0.563   6.294  2.4601 -1.4160  0.2945
  108OSM    C4F11061   5.915   0.743   6.240  0.5187  0.1415  0.5572
  108OSM    H4F11062   5.951   0.834   6.292 -0.8315  0.8550  0.3095
  108OSM    H4G11063   5.835   0.777   6.170 -2.6017 -1.6236  2.9863
  108OSM    C5F11064   6.019   0.669   6.155 -0.6553  0.6308  0.3093
  108OSM    H5F11065   5.972   0.577   6.115 -0.3998  0.0641  1.2955
  108OSM    H5G11066   6.109   0.640   6.212 -1.6120  2.5109  2.9451
  108OSM    C6F11067   6.070   0.751   6.036  0.1254 -0.3338  0.0006
  108OSM    H6F11068   5.993   0.762   5.956 -2.1074  0.4126  2.1170
  108OSM    H6G11069   6.156   0.693   5.997  0.8495 -0.0645  1.1849
  108OSM    C7F11070   6.125   0.882   6.074 -0.5607 -0.2765  0.4637
  108OSM    H7F11071   6.200   0.868   6.154 -0.0959 -1.0868 -0.1046
  108OSM    H7G11072   6.044   0.944   6.118 -0.1238  0.3974  0.3315
  108OSM    C8F11073   6.191   0.969   5.958 -0.3304 -0.8092 -0.3306
  108OSM    H8F11074   6.223   1.067   6.001  1.2483  0.6326 -4.2889
  108OSM    H8G11075   6.105   0.989   5.891 -0.8514  0.5295  0.6667
  108OSM    C9F11076   6.307   0.901   5.884 -0.2952  0.2401 -0.2538
  108OSM    H9F11077   6.391   0.869   5.949  0.1087 -2.4355 -1.9276
  108OSM   C10F11078   6.309   0.851   5.760 -0.2879  0.0542  0.4431
  108OSM   H10F11079   6.397   0.795   5.726 -0.7061  0.4745 -1.4255
  108OSM   C11F11080   6.194   0.867   5.665  0.7493 -0.3401 -0.0535
  108OSM   H11F11081   6.143   0.964   5.678  0.7635 -0.2886 -0.3745
  108OSM   H11G11082   6.119   0.789   5.688 -1.3627  1.3533 -0.9096
  108OSM   C12F11083   6.233   0.867   5.514 -0.3179  0.2642 -0.2669
  108OSM   H12F11084   6.303   0.949   5.486 -0.8619  0.5886 -0.6965
  108OSM   H12G11085   6.141   0.900   5.461 -0.4289  1.9427  0.9032
  108OSM   C13F11086   6.272   0.725   5.463 -0.2447  0.0970 -0.0810
  108OSM   H13F11087   6.191   0.650   5.471 -1.1837  1.1288  0.4502
  108OSM   H13G11088   6.346   0.680   5.532 -1.8183  0.9728  2.3405
  108OSM   C14F11089   6.320   0.716   5.313 -0.0178 -0.2305 -0.2071
  108OSM   H14F11090   6.340   0.609   5.291  0.0931 -0.3496  0.4504
  108OSM   H14G11091   6.422   0.757   5.300 -0.7945  1.2267 -2.1204
  108OSM   C15F11092   6.223   0.772   5.204 -0.5356  0.6977 -0.1353
  108OSM   H15F11093   6.280   0.797   5.112  1.4484  1.3979  1.2334
  108OSM   H15G11094   6.190   0.871   5.241 -0.9128  0.6586 -0.3567
  108OSM   C16F11095   6.102   0.678   5.184  0.0148  0.3492  0.1648
  108OSM   H16F11096   6.053   0.669   5.284  0.9102 -0.2500  0.5587
  108OSM   H16G11097   6.124   0.574   5.152  1.7308  0.9059 -0.5623
  108OSM   C17F11098   6.002   0.729   5.075  0.6717  0.1095  0.1650
  108OSM   H17F11099   6.063   0.737   4.982  1.3637  1.4343  0.7048
  108OSM   H17G11100   5.987   0.835   5.103 -1.5054 -0.7504  2.7173
  108OSM   C18F11101   5.870   0.661   5.042 -0.0228  0.6954 -0.3247
  108OSM   H18F11102   5.886   0.564   4.989  0.6321  0.3305  0.5251
  108OSM   H18G11103   5.814   0.733   4.978 -0.3148  0.5169 -0.2708
  108OSM   H18H11104   5.808   0.635   5.130 -0.3309  1.2998 -0.3616
  109OSM      N11105   2.334   2.923   7.443 -0.2068 -0.0023  0.0076
  109OSM    C1511106   2.306   2.984   7.576  0.1694 -0.4135 -1.3442
  109OSM   H15A11107   2.242   2.920   7.636  1.6542  0.0507  0.8267
  109OSM   H15B11108   2.245   3.072   7.568  2.4691  1.4240  0.1007
  109OSM   H15C11109   2.385   3.006   7.646 -0.3310 -0.0695 -0.8844
  109OSM    C1411110   2.412   3.021   7.364  0.3936 -0.3834  0.0976
  109OSM   H14A11111   2.438   2.980   7.267  1.8922  1.6680 -0.4435
  109OSM   H14B11112   2.505   3.051   7.410  0.3065  0.1744 -0.0803
  109OSM   H14C11113   2.352   3.109   7.350 -1.4292 -1.2788  1.8710
  109OSM    C1311114   2.418   2.798   7.463  0.2587 -0.8110  0.1698
  109OSM   H13A11115   2.518   2.825   7.494 -0.0403  0.3231  0.1899
  109OSM   H13B11116   2.423   2.747   7.368  0.3719 -1.3154  0.4397
  109OSM   H13C11117   2.374   2.743   7.545  0.6515  0.0728  0.9853
  109OSM    C1211118   2.204   2.888   7.372 -0.0447 -0.7650 -0.2782
  109OSM   H12A11119   2.161   2.981   7.337 -2.5821 -1.5972  0.4194
  109OSM   H12B11120   2.146   2.825   7.437  0.0134 -0.8484 -0.3077
  109OSM    C1111121   2.210   2.800   7.244 -0.4648  0.9471 -0.0203
  109OSM   H11A11122   2.106   2.787   7.207  0.1685 -0.1397 -1.4863
  109OSM   H11B11123   2.239   2.696   7.269 -5.0771  0.0169  2.7414
  109OSM      P11124   2.400   2.798   7.059  0.0828  0.2434  0.1400
  109OSM    O1311125   2.513   2.881   7.094  0.0409 -0.1582  0.1815
  109OSM    O1411126   2.405   2.650   7.080  0.1997 -0.3014  0.5636
  109OSM    O1111127   2.373   2.824   6.903 -0.1720  0.4976 -0.1238
  109OSM    O1211128   2.276   2.856   7.130 -0.1506  0.1424  0.4129
  109OSM    C1S11129   2.247   2.794   6.839  0.1363 -0.5287 -0.7641
  109OSM    H1S11130   2.165   2.841   6.898  1.2277 -0.4969  0.8000
  109OSM    H1T11131   2.234   2.684   6.834  1.8406 -0.8243  0.3952
  109OSM     NF11132   2.094   2.821   6.636  0.1702 -0.1852  0.5639
  109OSM    HNF11133   2.076   2.738   6.582 -0.6659 -0.1315  0.7466
  109OSM    C2S11134   2.230   2.840   6.689  0.1904 -0.3996  0.2540
  109OSM    H2S11135   2.244   2.950   6.690  0.0627 -0.3380 -1.4625
  109OSM    C3S11136   2.343   2.782   6.606  0.0492  0.1974  0.3948
  109OSM    H3S11137   2.330   2.672   6.609 -3.0940  0.2861 -2.8239
  109OSM     O311138   2.472   2.818   6.649 -0.2690 -0.2380 -0.0781
  109OSM    HO311139   2.459   2.826   6.743  1.4853 -1.7373  0.3623
  109OSM    C4S11140   2.327   2.800   6.457 -0.7865  0.8079 -0.4222
  109OSM    H4S11141   2.266   2.723   6.408  1.6219 -0.2365 -1.9427
  109OSM    C5S11142   2.377   2.906   6.392  0.0253 -0.4651  0.4109
  109OSM    H5S11143   2.437   2.979   6.448  2.1522 -1.3378 -0.6370
  109OSM    C6S11144   2.367   2.928   6.240  0.1324  0.0486 -0.2314
  109OSM    H6S11145   2.472   2.954   6.213 -0.4655  1.4915 -1.3054
  109OSM    H6T11146   2.310   3.018   6.211  1.8280  0.7394 -1.6237
  109OSM    C7S11147   2.327   2.814   6.142  0.6316  0.2083  0.9446
  109OSM    H7S11148   2.237   2.772   6.192  0.4214 -2.1387 -1.1801
  109OSM    H7T11149   2.411   2.741   6.149  2.9917  2.8141  1.5735
  109OSM    C8S11150   2.306   2.863   6.000 -0.1736  0.3403  0.1083
  109OSM    H8S11151   2.403   2.880   5.948 -0.1698  2.6625  0.7299
  109OSM    H8T11152   2.250   2.959   5.991 -0.1282  0.3998  0.4359
  109OSM    C9S11153   2.232   2.758   5.912  0.3069  0.0230  0.7832
  109OSM    H9S11154   2.123   2.767   5.935  0.4557  1.3971  1.0636
  109OSM    H9T11155   2.277   2.662   5.945 -3.1147 -0.8179  3.6801
  109OSM   C10S11156   2.256   2.787   5.761  0.0852  0.9016  0.5797
  109OSM   H10S11157   2.364   2.772   5.738 -0.4860  0.7096 -2.3083
  109OSM   H10T11158   2.238   2.895   5.749 -2.2861  0.5775  0.7728
  109OSM   C11S11159   2.175   2.702   5.670 -0.4865  0.2687  0.4419
  109OSM   H11S11160   2.068   2.727   5.686 -0.3558 -0.2907  2.4966
  109OSM   H11T11161   2.190   2.595   5.697 -2.3327 -0.2305 -0.3738
  109OSM   C12S11162   2.192   2.730   5.517 -0.0983  0.2388  0.5376
  109OSM   H12S11163   2.300   2.714   5.496 -0.1313 -1.8855  1.7865
  109OSM   H12T11164   2.163   2.838   5.517  0.1325  0.3216 -0.7463
  109OSM   C13S11165   2.102   2.648   5.426  0.0185 -0.1393  0.2418
  109OSM   H13S11166   1.996   2.673   5.449  0.0954  0.2336  0.1981
  109OSM   H13T11167   2.129   2.543   5.451  0.0628 -0.6476 -1.7595
  109OSM   C14S11168   2.134   2.670   5.280 -0.2885  0.7182  0.5854
  109OSM   H14S11169   2.216   2.601   5.250  1.3882  2.4926  0.8316
  109OSM   H14T11170   2.181   2.771   5.271  1.6618 -0.0675  1.4604
  109OSM   C15S11171   2.018   2.643   5.183 -0.2556 -0.3233  0.4244
  109OSM   H15S11172   1.921   2.681   5.222  0.8940  1.2524  1.8957
  109OSM   H15T11173   2.014   2.533   5.168  0.6487 -0.8776  3.4987
  109OSM   C16S11174   2.057   2.708   5.053  0.2920 -0.4100  0.3115
  109OSM   H16S11175   1.989   2.671   4.973 -2.2472  1.0313  1.6721
  109OSM   H16T11176   2.167   2.701   5.036  0.3768  2.0842 -0.6594
  109OSM   C17S11177   2.009   2.861   5.047  0.2042 -0.1147 -0.7682
  109OSM   H17S11178   2.105   2.911   5.071 -0.7935  1.1700  0.7737
  109OSM   H17T11179   1.923   2.876   5.117  0.9807  0.2989  0.1221
  109OSM   C18S11180   1.968   2.906   4.911 -0.0451 -1.1629  0.1637
  109OSM   H18S11181   2.061   2.917   4.851  1.4221 -1.0029  2.3567
  109OSM   H18T11182   1.924   3.007   4.923  2.9448  0.4093 -1.2036
  109OSM   H18U11183   1.895   2.831   4.872  0.4640 -2.4617  1.5946
  109OSM    C1F11184   1.998   2.907   6.659 -0.5504 -0.0160  0.2542
  109OSM     OF11185   2.013   3.011   6.731  0.0428  0.4011  0.3446
  109OSM    C2F11186   1.870   2.872   6.586 -0.2001  0.6586  0.0653
  109OSM    H2F11187   1.785   2.878   6.657  0.4817 -1.1115  1.0943
  109OSM    H2G11188   1.871   2.764   6.559 -1.9146  0.5759  0.2533
  109OSM    C3F11189   1.842   2.978   6.478  0.1682  0.1303 -0.0312
  109OSM    H3F11190   1.830   3.076   6.528 -0.8516  0.8768 -1.6460
  109OSM    H3G11191   1.745   2.954   6.430 -0.7374  0.0096  1.7945
  109OSM    C4F11192   1.958   2.999   6.373 -0.6471  0.2627 -0.8461
  109OSM    H4F11193   1.974   2.900   6.324  0.8578 -0.9808  1.9618
  109OSM    H4G11194   2.048   3.028   6.431 -0.9479 -1.7115  0.6813
  109OSM    C5F11195   1.925   3.100   6.264 -0.3911  0.1243  0.1273
  109OSM    H5F11196   2.015   3.108   6.200  0.1588 -2.9666  0.3692
  109OSM    H5G11197   1.892   3.200   6.299 -0.0068  0.1153  0.5239
  109OSM    C6F11198   1.820   3.038   6.165 -0.0538 -0.0485  0.3943
  109OSM    H6F11199   1.801   3.118   6.090  1.3171  0.0892  0.1829
  109OSM    H6G11200   1.725   3.030   6.223 -0.6438  0.6470 -0.4484
  109OSM    C7F11201   1.860   2.923   6.076 -0.5095  0.1816  0.9215
  109OSM    H7F11202   1.881   2.832   6.136  1.7122  0.3409  0.4813
  109OSM    H7G11203   1.956   2.954   6.030 -0.5871  1.4600  1.5535
  109OSM    C8F11204   1.750   2.888   5.970 -0.2357 -0.4020  0.6143
  109OSM    H8F11205   1.727   2.981   5.913 -2.8540 -0.8331  0.8317
  109OSM    H8G11206   1.648   2.880   6.013  0.4945  1.2843  2.8218
  109OSM    C9F11207   1.788   2.779   5.875 -0.2309 -0.1905  0.1982
  109OSM    H9F11208   1.817   2.688   5.929 -0.9179  0.9685  2.6478
  109OSM   C10F11209   1.803   2.780   5.746  0.1546  1.2179 -0.2620
  109OSM   H10F11210   1.834   2.689   5.694 -1.0429  0.7372 -0.1679
  109OSM   C11F11211   1.765   2.889   5.642 -0.1911  0.3508 -0.0597
  109OSM   H11F11212   1.685   2.954   5.685  1.3032  1.6645  0.8528
  109OSM   H11G11213   1.729   2.833   5.554 -0.4011 -1.1464  0.9398
  109OSM   C12F11214   1.873   2.978   5.599 -0.1083 -0.3088  0.0048
  109OSM   H12F11215   1.968   2.920   5.598  0.5591  0.6822  1.7768
  109OSM   H12G11216   1.880   3.059   5.675 -2.9240 -1.1846  1.3266
  109OSM   C13F11217   1.851   3.038   5.455  0.5971 -0.9589 -0.2092
  109OSM   H13F11218   1.771   3.113   5.472  0.3442 -1.5811  1.5841
  109OSM   H13G11219   1.802   2.964   5.388  0.9384 -1.3187 -0.0659
  109OSM   C14F11220   1.976   3.097   5.388 -0.5569 -0.2897  0.2607
  109OSM   H14F11221   2.044   3.012   5.366 -1.7102 -1.4269  0.9751
  109OSM   H14G11222   2.036   3.160   5.457 -0.4948 -0.9814  0.8448
  109OSM   C15F11223   1.956   3.184   5.270 -0.7127 -0.3314  0.5922
  109OSM   H15F11224   1.906   3.275   5.310  0.3243  0.6774 -0.3255
  109OSM   H15G11225   1.893   3.124   5.201  1.6970 -1.4263 -0.7598
  109OSM   C16F11226   2.090   3.226   5.199  0.3747  0.2283 -0.5320
  109OSM   H16F11227   2.153   3.137   5.176  0.7841  0.3403  0.1283
  109OSM   H16G11228   2.149   3.287   5.270 -0.2852 -1.5206  1.6651
  109OSM   C17F11229   2.064   3.300   5.064  0.6469  0.0352 -0.2551
  109OSM   H17F11230   2.001   3.380   5.106  1.3218 -0.7624  2.4991
  109OSM   H17G11231   2.006   3.232   4.998 -1.0059  0.5700  0.5945
  109OSM   C18F11232   2.182   3.363   5.000  0.4722 -0.0037  0.3903
  109OSM   H18F11233   2.164   3.433   4.916 -0.1684 -1.5329 -0.8081
  109OSM   H18G11234   2.263   3.289   4.979  0.4620  0.7394 -2.6284
  109OSM   H18H11235   2.235   3.432   5.069  0.8933  0.1569 -0.0871
  110OSM      N11236   3.057   6.525   7.090 -0.0504 -0.0817  0.0219
  110OSM    C1511237   2.970   6.414   7.040  0.0476 -0.5710  0.3646
  110OSM   H15A11238   2.905   6.379   7.120 -1.4013 -1.7946 -1.2707
  110OSM   H15B11239   3.033   6.334   7.003 -0.7425 -0.8005 -0.5255
  110OSM   H15C11240   2.921   6.460   6.956  1.3244  1.9547  0.8973
  110OSM    C1411241   2.971   6.637   7.146  0.0877  1.2772  0.6540
  110OSM   H14A11242   2.928   6.632   7.245 -1.0483 -0.0589  0.1188
  110OSM   H14B11243   2.898   6.668   7.073 -0.5146 -0.9265  0.2766
  110OSM   H14C11244   3.043   6.716   7.167  0.7392  0.6276  0.9024
  110OSM    C1311245   3.149   6.473   7.195  0.0185  0.3048 -0.4588
  110OSM   H13A11246   3.091   6.432   7.276 -0.5057  0.9424 -0.4970
  110OSM   H13B11247   3.196   6.561   7.238  2.5184 -0.0872 -2.1496
  110OSM   H13C11248   3.225   6.408   7.154  0.4227 -0.4627  1.3938
  110OSM    C1211249   3.141   6.574   6.970 -0.4146  0.7024 -0.1204
  110OSM   H12A11250   3.074   6.595   6.888 -0.6778 -2.7180 -0.9148
  110OSM   H12B11251   3.197   6.488   6.937  0.9697  0.0751  3.4216
  110OSM    C1111252   3.235   6.690   6.996 -0.3822  0.1928 -0.7338
  110OSM   H11A11253   3.318   6.711   6.925 -0.0966  3.5919  0.4111
  110OSM   H11B11254   3.299   6.652   7.079 -0.7308 -2.8316 -1.7363
  110OSM      P11255   3.113   6.926   6.967  0.5069 -0.1016 -0.2986
  110OSM    O1311256   3.031   6.870   6.859  0.1692  0.4104  0.1376
  110OSM    O1411257   3.046   7.013   7.062 -0.5496  0.7101 -0.2710
  110OSM    O1111258   3.239   7.000   6.908 -0.0855 -0.8563  0.2584
  110OSM    O1211259   3.168   6.803   7.045  0.0034 -0.0078  0.1004
  110OSM    C1S11260   3.295   6.943   6.782  0.4044 -0.7416  1.0905
  110OSM    H1S11261   3.241   6.857   6.737 -0.7914  1.1694 -1.3915
  110OSM    H1T11262   3.400   6.919   6.808  0.5494  0.2001  1.4326
  110OSM     NF11263   3.342   6.983   6.550 -0.9699  0.5221 -0.1816
  110OSM    HNF11264   3.419   7.021   6.499 -1.6894 -2.6490 -4.1615
  110OSM    C2S11265   3.298   7.048   6.670  0.1790 -0.0117 -0.6504
  110OSM    H2S11266   3.190   7.071   6.656 -0.4766 -2.1491  0.4547
  110OSM    C3S11267   3.363   7.185   6.705  0.6109  0.2649  0.2246
  110OSM    H3S11268   3.472   7.168   6.707  0.8693  1.6495 -0.5568
  110OSM     O311269   3.330   7.230   6.835 -0.5799 -0.3100 -0.3813
  110OSM    HO311270   3.287   7.153   6.872 -1.5570 -0.0922 -1.0384
  110OSM    C4S11271   3.339   7.292   6.597 -0.6257 -0.0185  0.2038
  110OSM    H4S11272   3.419   7.287   6.522 -0.7095 -0.1545  0.1232
  110OSM    C5S11273   3.237   7.378   6.584 -0.1126  0.2443  0.8497
  110OSM    H5S11274   3.159   7.379   6.661 -0.9676 -0.0851  0.0062
  110OSM    C6S11275   3.205   7.478   6.477 -0.1181  0.1789  0.5175
  110OSM    H6S11276   3.292   7.502   6.412  0.8828  1.2439  2.1791
  110OSM    H6T11277   3.195   7.576   6.528  1.3296  0.5171  0.2050
  110OSM    C7S11278   3.072   7.449   6.401  0.2711  0.1832 -0.1627
  110OSM    H7S11279   2.987   7.435   6.471  0.3307  0.1578 -0.0941
  110OSM    H7T11280   3.078   7.349   6.354 -1.6743 -0.5397  0.9914
  110OSM    C8S11281   3.045   7.549   6.291  0.9536 -0.2566 -0.5040
  110OSM    H8S11282   3.137   7.541   6.230  0.7466  0.2920 -0.8935
  110OSM    H8T11283   3.028   7.650   6.333 -3.5638 -0.8568 -0.4301
  110OSM    C9S11284   2.936   7.501   6.208  0.1501 -0.1043  0.3129
  110OSM    H9S11285   2.836   7.516   6.254 -0.8554 -0.5529 -1.6256
  110OSM    H9T11286   2.948   7.397   6.171 -4.3510 -1.2384  1.3677
  110OSM   C10S11287   2.913   7.601   6.092  0.2806 -0.4315 -0.0058
  110OSM   H10S11288   3.016   7.624   6.057 -0.0935  0.8909 -0.3044
  110OSM   H10T11289   2.883   7.704   6.122  1.8541 -0.5029  2.0378
  110OSM   C11S11290   2.811   7.549   5.984  0.0842 -0.9678 -0.0048
  110OSM   H11S11291   2.704   7.568   6.008  0.2240 -0.0890 -0.0155
  110OSM   H11T11292   2.823   7.440   5.966 -0.8242 -1.1212  0.3099
  110OSM   C12S11293   2.826   7.625   5.847 -0.9663 -0.3649 -0.0881
  110OSM   H12S11294   2.914   7.593   5.786  0.4031 -0.3332  1.7916
  110OSM   H12T11295   2.868   7.723   5.877  0.6285 -1.4446  1.4402
  110OSM   C13S11296   2.700   7.630   5.774 -0.4357  0.0135  0.0574
  110OSM   H13S11297   2.625   7.695   5.824 -0.5729  0.2536 -0.4611
  110OSM   H13T11298   2.660   7.527   5.764  0.3988 -0.3928  0.6884
  110OSM   C14S11299   2.709   7.692   5.634 -0.2714  0.2606 -1.2500
  110OSM   H14S11300   2.784   7.774   5.644 -2.6656  2.2337  4.3365
  110OSM   H14T11301   2.612   7.735   5.603 -1.0851 -1.7370 -1.6239
  110OSM   C15S11302   2.739   7.591   5.519  0.1374  0.6615  0.2949
  110OSM   H15S11303   2.651   7.523   5.517 -0.4463  1.3867  0.7534
  110OSM   H15T11304   2.835   7.541   5.543  0.9896  1.2025 -1.8000
  110OSM   C16S11305   2.764   7.655   5.381  0.0784  0.2845  0.0212
  110OSM   H16S11306   2.762   7.766   5.388  0.7202  0.5065 -2.3207
  110OSM   H16T11307   2.686   7.629   5.306  2.1716 -1.0844 -1.7822
  110OSM   C17S11308   2.892   7.604   5.317 -0.0253 -0.3637 -0.1582
  110OSM   H17S11309   2.900   7.496   5.338 -1.3113 -1.0349 -2.7565
  110OSM   H17T11310   2.976   7.665   5.357 -0.4114  1.3372 -1.7455
  110OSM   C18S11311   2.885   7.624   5.165  0.0686 -0.6153  0.0251
  110OSM   H18S11312   2.789   7.587   5.126  0.3907 -0.2810 -1.1178
  110OSM   H18T11313   2.976   7.582   5.117  1.4883  0.1477  1.8823
  110OSM   H18U11314   2.890   7.730   5.132 -0.3778 -0.4678  0.4157
  110OSM    C1F11315   3.310   6.868   6.487  0.0471 -0.5539 -0.1424
  110OSM     OF11316   3.204   6.815   6.513  1.1498  0.6255 -0.4517
  110OSM    C2F11317   3.407   6.811   6.383  1.1136  0.4230 -0.5244
  110OSM    H2F11318   3.493   6.761   6.432 -0.1266 -1.5346 -0.2341
  110OSM    H2G11319   3.439   6.896   6.318 -1.4699  0.4447 -1.9411
  110OSM    C3F11320   3.355   6.691   6.306 -0.3661  0.7775  0.2826
  110OSM    H3F11321   3.341   6.603   6.372 -0.4010  0.0571 -0.6696
  110OSM    H3G11322   3.436   6.661   6.236 -0.2470  1.0864  0.2858
  110OSM    C4F11323   3.226   6.711   6.226  0.1857  0.1428 -0.4303
  110OSM    H4F11324   3.145   6.749   6.293 -0.2516 -1.3773 -0.0341
  110OSM    H4G11325   3.210   6.605   6.194  1.7163 -0.6749  1.3313
  110OSM    C5F11326   3.242   6.801   6.110 -0.2426 -0.3931 -0.4899
  110OSM    H5F11327   3.309   6.744   6.043  0.0736  1.0425 -1.4333
  110OSM    H5G11328   3.290   6.894   6.146  0.1073 -0.5905 -0.4412
  110OSM    C6F11329   3.106   6.823   6.041  0.4320  0.2854  0.1657
  110OSM    H6F11330   3.065   6.737   5.985 -0.8819 -0.4551  2.1519
  110OSM    H6G11331   3.124   6.896   5.959  0.0493  1.2391  0.9113
  110OSM    C7F11332   2.998   6.884   6.135  0.2377  0.3716  0.0910
  110OSM    H7F11333   3.040   6.939   6.222 -0.6866  2.2635 -0.6197
  110OSM    H7G11334   2.937   6.799   6.173  1.1442 -0.6032 -0.5656
  110OSM    C8F11335   2.911   6.984   6.052 -0.7611  0.4773 -0.4484
  110OSM    H8F11336   2.817   7.005   6.107 -1.3949 -0.0061 -1.3209
  110OSM    H8G11337   2.867   6.923   5.969  0.4305 -1.5985  0.3558
  110OSM    C9F11338   2.970   7.117   6.006 -0.5775 -0.4734  0.0542
  110OSM    H9F11339   3.054   7.155   6.066 -0.5346 -0.3268 -0.1002
  110OSM   C10F11340   2.927   7.195   5.907  0.1926 -0.4418  0.0808
  110OSM   H10F11341   2.981   7.289   5.888  2.2972 -1.6656 -0.3439
  110OSM   C11F11342   2.821   7.174   5.801 -0.2993 -0.5001  0.0052
  110OSM   H11F11343   2.765   7.266   5.774  0.3526 -0.0334  0.2288
  110OSM   H11G11344   2.741   7.113   5.848 -0.4940 -0.1338  0.1538
  110OSM   C12F11345   2.899   7.117   5.680 -0.6438 -0.6998 -0.4583
  110OSM   H12F11346   2.943   7.021   5.715 -0.0358 -0.7281 -1.2705
  110OSM   H12G11347   2.976   7.184   5.637 -0.7880  0.0912  0.4920
  110OSM   C13F11348   2.798   7.085   5.575  0.5400 -0.0521  0.3491
  110OSM   H13F11349   2.859   7.040   5.493  1.8507  0.3678  1.0737
  110OSM   H13G11350   2.754   7.181   5.541 -0.4485 -1.1811 -1.7705
  110OSM   C14F11351   2.686   6.989   5.613 -0.5506 -0.8240 -0.0086
  110OSM   H14F11352   2.629   7.045   5.691  0.2916 -0.1394  0.1364
  110OSM   H14G11353   2.736   6.903   5.662  0.5790 -0.0763  0.2004
  110OSM   C15F11354   2.600   6.931   5.498 -0.3639  0.8887  0.6625
  110OSM   H15F11355   2.545   7.003   5.435  1.1564 -0.3891 -2.3576
  110OSM   H15G11356   2.523   6.868   5.548  1.2234 -0.4706  1.5117
  110OSM   C16F11357   2.686   6.840   5.407  0.2678  0.8003 -0.5395
  110OSM   H16F11358   2.746   6.767   5.465 -0.9527 -0.5054 -0.8603
  110OSM   H16G11359   2.756   6.899   5.343  1.1650  0.8239  0.4350
  110OSM   C17F11360   2.601   6.766   5.308  1.3734 -0.9580 -0.0737
  110OSM   H17F11361   2.547   6.843   5.249  1.7602  1.0971  2.1188
  110OSM   H17G11362   2.527   6.699   5.357 -0.2653 -1.3384 -2.8580
  110OSM   C18F11363   2.678   6.677   5.205 -0.3278 -0.9084 -0.0194
  110OSM   H18F11364   2.753   6.606   5.244  2.1754  1.0491 -0.9953
  110OSM   H18G11365   2.728   6.747   5.134 -0.1186  0.4760  1.4437
  110OSM   H18H11366   2.607   6.623   5.138 -0.4371  2.1168 -2.5771
  111OSM      N11367   0.026   3.235   7.100 -0.4134  0.3086 -0.0126
  111OSM    C1511368  -0.076   3.326   7.162  0.1246 -0.1099 -0.0534
  111OSM   H15A11369  -0.126   3.392   7.093 -0.1795 -0.2862 -0.0008
  111OSM   H15B11370  -0.037   3.382   7.246 -1.9155  0.4835  0.5574
  111OSM   H15C11371  -0.148   3.273   7.223 -0.8354 -0.2393 -1.2775
  111OSM    C1411372   0.139   3.322   7.046 -0.4000 -0.5504 -0.1729
  111OSM   H14A11373   0.185   3.374   7.129 -0.4349 -1.1027  0.1993
  111OSM   H14B11374   0.108   3.382   6.962  0.0007  1.2551  0.9257
  111OSM   H14C11375   0.220   3.256   7.018 -2.2536 -2.5322 -1.2192
  111OSM    C1311376   0.074   3.138   7.205 -0.3664  0.1878 -0.2699
  111OSM   H13A11377   0.148   3.075   7.159  0.4817 -0.0724  1.3904
  111OSM   H13B11378   0.001   3.059   7.218  1.0368 -1.0777  0.2790
  111OSM   H13C11379   0.097   3.183   7.301 -2.4619 -0.2508  0.5003
  111OSM    C1211380  -0.039   3.155   6.985 -0.1147  0.4065 -0.2265
  111OSM   H12A11381  -0.110   3.085   7.027  0.6039  0.2994  0.8623
  111OSM   H12B11382   0.034   3.088   6.941 -1.4001 -0.9470 -0.3848
  111OSM    C1111383  -0.103   3.237   6.872  0.0824 -0.4825  0.1213
  111OSM   H11A11384  -0.065   3.205   6.772 -2.0300  0.1841 -0.9525
  111OSM   H11B11385  -0.080   3.344   6.886 -1.1396 -0.5358  3.2807
  111OSM      P11386  -0.325   3.112   6.808  0.5499 -0.0586  0.2441
  111OSM    O1311387  -0.271   2.987   6.862  0.7369  0.1300  0.1133
  111OSM    O1411388  -0.472   3.134   6.819 -0.4413  0.0441 -0.2392
  111OSM    O1111389  -0.282   3.132   6.659  0.1093  0.0546 -0.1436
  111OSM    O1211390  -0.244   3.221   6.877  0.4962 -0.4028 -0.4211
  111OSM    C1S11391  -0.271   3.263   6.604  0.0932 -0.1346  0.8207
  111OSM    H1S11392  -0.195   3.325   6.656 -0.2105 -0.2057  1.3600
  111OSM    H1T11393  -0.369   3.312   6.588  0.2806 -0.6923 -2.7428
  111OSM     NF11394  -0.200   3.387   6.403 -0.1473  0.9034  0.0234
  111OSM    HNF11395  -0.277   3.436   6.361  1.4200  3.5146  0.0053
  111OSM    C2S11396  -0.222   3.258   6.462  0.0642  0.2878 -0.4529
  111OSM    H2S11397  -0.135   3.188   6.462  1.6339  2.1578 -0.9843
  111OSM    C3S11398  -0.324   3.182   6.369 -0.0447 -0.0704  0.2923
  111OSM    H3S11399  -0.402   3.260   6.359 -0.0213 -0.3452 -2.7469
  111OSM     O311400  -0.387   3.066   6.430  0.2276  0.0828  0.3457
  111OSM    HO311401  -0.366   3.086   6.522  2.3975 -4.4643  1.0927
  111OSM    C4S11402  -0.265   3.152   6.234 -0.1449  0.0932 -0.2080
  111OSM    H4S11403  -0.239   3.237   6.169 -0.8425 -2.2400 -3.7983
  111OSM    C5S11404  -0.233   3.034   6.183 -0.0256 -0.2733  0.0482
  111OSM    H5S11405  -0.250   2.941   6.239  0.3010 -0.4658 -0.1723
  111OSM    C6S11406  -0.180   3.014   6.045 -0.2289 -0.1123 -0.9467
  111OSM    H6S11407  -0.234   2.926   6.004 -0.9507  0.0637 -0.3977
  111OSM    H6T11408  -0.074   2.981   6.050 -0.3531 -0.6868 -1.8790
  111OSM    C7S11409  -0.185   3.131   5.944  0.6329  0.0492  0.1223
  111OSM    H7S11410  -0.117   3.212   5.978  0.7620 -0.2203  0.5167
  111OSM    H7T11411  -0.289   3.171   5.947  0.4823 -0.2659 -0.6186
  111OSM    C8S11412  -0.149   3.081   5.805 -0.0777 -0.5222 -0.0946
  111OSM    H8S11413  -0.052   3.030   5.819 -0.0097 -0.6241 -0.8587
  111OSM    H8T11414  -0.126   3.168   5.739  1.3789 -0.9532 -0.1999
  111OSM    C9S11415  -0.256   2.992   5.734  0.2149 -0.3888  0.4620
  111OSM    H9S11416  -0.303   2.931   5.814  0.4076 -0.8739  0.2095
  111OSM    H9T11417  -0.200   2.922   5.668 -0.5027 -0.5275 -0.0060
  111OSM   C10S11418  -0.359   3.069   5.653  0.2524  0.4342 -0.1768
  111OSM   H10S11419  -0.424   3.128   5.721 -1.6088 -0.8663 -0.7415
  111OSM   H10T11420  -0.429   2.991   5.617  0.2945  2.1955 -4.9052
  111OSM   C11S11421  -0.312   3.137   5.526  0.5135 -0.3736 -0.5892
  111OSM   H11S11422  -0.226   3.086   5.479  1.5721  0.6780  0.1616
  111OSM   H11T11423  -0.277   3.239   5.555 -0.3095  0.2880 -1.8144
  111OSM   C12S11424  -0.417   3.131   5.410 -0.8020  0.9232 -0.6211
  111OSM   H12S11425  -0.518   3.154   5.451 -0.9123  1.2581 -1.0659
  111OSM   H12T11426  -0.422   3.025   5.378  1.1027  1.0595 -1.5184
  111OSM   C13S11427  -0.386   3.199   5.272 -0.1769 -0.4729 -0.8695
  111OSM   H13S11428  -0.366   3.308   5.277 -0.8241 -0.3283 -1.2041
  111OSM   H13T11429  -0.481   3.183   5.216 -0.9798 -1.4136  0.7065
  111OSM   C14S11430  -0.268   3.139   5.197 -0.9393 -0.5429 -0.0529
  111OSM   H14S11431  -0.285   3.029   5.205 -0.4192 -0.5406  1.2695
  111OSM   H14T11432  -0.169   3.165   5.238 -0.3196 -0.5226 -1.5069
  111OSM   C15S11433  -0.284   3.175   5.048  0.1140 -0.1692  0.2226
  111OSM   H15S11434  -0.337   3.271   5.034 -1.8996 -1.0774  1.1733
  111OSM   H15T11435  -0.343   3.103   4.987 -3.4516  2.9506 -0.3838
  111OSM   C16S11436  -0.149   3.180   4.977  0.5258 -0.1037 -0.2831
  111OSM   H16S11437  -0.084   3.094   5.003  0.0166  0.0212  1.5153
  111OSM   H16T11438  -0.103   3.276   5.010  0.4971  1.6112 -4.5613
  111OSM   C17S11439  -0.169   3.174   4.824  0.5856 -0.1635 -0.0222
  111OSM   H17S11440  -0.236   3.259   4.798  1.0814 -0.1955 -1.4967
  111OSM   H17T11441  -0.224   3.078   4.807  0.4344 -0.6273  2.7438
  111OSM   C18S11442  -0.045   3.183   4.734  1.0176  0.2127 -0.1382
  111OSM   H18S11443  -0.081   3.206   4.632  1.1003  2.6114  0.3100
  111OSM   H18T11444   0.009   3.087   4.745  0.3165 -0.2254 -0.4771
  111OSM   H18U11445   0.029   3.263   4.759  0.4520  0.4408  0.8896
  111OSM    C1F11446  -0.089   3.459   6.438  0.0370 -0.1992  0.2453
  111OSM     OF11447   0.003   3.400   6.503  0.1217 -0.1846 -0.1648
  111OSM    C2F11448  -0.066   3.601   6.396 -0.2514 -0.3296 -0.9359
  111OSM    H2F11449  -0.005   3.648   6.476 -1.6252  1.2756 -0.7638
  111OSM    H2G11450  -0.163   3.657   6.393  0.2778  0.5928 -1.2115
  111OSM    C3F11451   0.008   3.621   6.261  0.4138  0.3189 -0.1268
  111OSM    H3F11452  -0.024   3.550   6.182 -0.4230 -1.0506  1.3756
  111OSM    H3G11453   0.116   3.603   6.274  0.6299  2.1561  0.9503
  111OSM    C4F11454   0.000   3.762   6.194 -0.3051  0.9098 -0.2491
  111OSM    H4F11455   0.062   3.825   6.261  2.1751 -1.9770  0.4506
  111OSM    H4G11456  -0.106   3.792   6.181 -1.2368 -1.4893  1.1168
  111OSM    C5F11457   0.082   3.755   6.063 -0.0393  0.1517  0.6660
  111OSM    H5F11458   0.037   3.681   5.993 -1.1846 -0.4478  1.9890
  111OSM    H5G11459   0.182   3.720   6.098  0.9589 -1.5037 -3.3214
  111OSM    C6F11460   0.107   3.885   5.984 -0.5380 -0.2474  0.0171
  111OSM    H6F11461   0.185   3.852   5.912  0.6809  0.3022  1.0411
  111OSM    H6G11462   0.151   3.967   6.044 -3.6263  0.7014  1.1603
  111OSM    C7F11463  -0.012   3.934   5.895 -0.6993 -0.4934  0.2608
  111OSM    H7F11464  -0.018   4.044   5.907  1.8408 -0.3212  0.6060
  111OSM    H7G11465  -0.104   3.881   5.926 -2.5855  1.1651 -2.1463
  111OSM    C8F11466  -0.000   3.899   5.745  0.1552 -0.2847  0.2149
  111OSM    H8F11467  -0.101   3.902   5.699 -0.0781  0.0948  0.7362
  111OSM    H8G11468   0.043   3.797   5.732 -3.8795 -2.0681 -0.8041
  111OSM    C9F11469   0.095   4.006   5.684  0.4305  0.4198  0.4373
  111OSM    H9F11470   0.184   3.956   5.644 -1.4338 -1.6380 -1.4435
  111OSM   C10F11471   0.059   4.127   5.643  0.5323 -0.7278  0.2924
  111OSM   H10F11472   0.133   4.187   5.589 -0.4797 -0.1261 -0.4657
  111OSM   C11F11473  -0.073   4.206   5.653 -0.5602  0.5454 -0.5032
  111OSM   H11F11474  -0.145   4.155   5.720 -0.0453 -0.5939 -0.7920
  111OSM   H11G11475  -0.119   4.226   5.554  1.4092  1.0517 -1.3800
  111OSM   C12F11476  -0.049   4.355   5.703 -0.7128 -0.3646 -0.4393
  111OSM   H12F11477  -0.133   4.419   5.667  0.9195  1.2210 -1.5905
  111OSM   H12G11478   0.038   4.391   5.643 -0.7777 -0.0767 -0.3618
  111OSM   C13F11479  -0.011   4.373   5.853 -0.4589  0.3438  0.1534
  111OSM   H13F11480   0.028   4.474   5.875  1.0451 -0.7582  3.0477
  111OSM   H13G11481   0.078   4.311   5.874  0.5153  2.1648  1.6620
  111OSM   C14F11482  -0.115   4.324   5.951  0.2696 -0.9484 -0.0619
  111OSM   H14F11483  -0.128   4.216   5.928 -0.8744 -1.0156  0.7929
  111OSM   H14G11484  -0.215   4.369   5.935  1.5807  2.0025 -0.5510
  111OSM   C15F11485  -0.056   4.351   6.091  0.9273 -0.3326  0.3214
  111OSM   H15F11486  -0.057   4.461   6.104 -1.4251 -0.2060 -0.4169
  111OSM   H15G11487   0.046   4.313   6.115  0.2068 -2.4423  0.2645
  111OSM   C16F11488  -0.146   4.283   6.197 -0.2311  0.4495  1.5531
  111OSM   H16F11489  -0.253   4.293   6.172  0.2271  1.4201 -0.2274
  111OSM   H16G11490  -0.120   4.301   6.303  0.0541 -0.7765  1.7115
  111OSM   C17F11491  -0.107   4.134   6.208 -0.1223 -0.0977  0.0237
  111OSM   H17F11492  -0.000   4.140   6.238 -0.6835  2.4717  1.8652
  111OSM   H17G11493  -0.121   4.092   6.106 -1.1647 -1.4475  0.6925
  111OSM   C18F11494  -0.189   4.071   6.316 -0.6943 -0.3249 -0.4273
  111OSM   H18F11495  -0.231   4.140   6.392 -1.9153 -1.2497 -0.2318
  111OSM   H18G11496  -0.131   4.003   6.382 -0.6685 -0.5762 -0.7049
  111OSM   H18H11497  -0.279   4.014   6.283  1.1074 -1.9385 -2.9340
  112OSM      N11498   2.484   1.011   7.013  0.3171  0.6262 -0.2782
  112OSM    C1511499   2.537   0.884   7.073  0.2316  0.2281 -0.1782
  112OSM   H15A11500   2.522   0.875   7.180 -1.0578 -0.6706 -0.4161
  112OSM   H15B11501   2.640   0.875   7.043 -0.0034  0.5997 -1.1205
  112OSM   H15C11502   2.492   0.799   7.024  0.5908  0.4774 -0.9569
  112OSM    C1411503   2.346   1.031   7.051  0.5099  0.4499  0.3692
  112OSM   H14A11504   2.318   1.025   7.155  0.8799  4.5548  0.8776
  112OSM   H14B11505   2.290   0.956   6.997  1.8256 -0.1507 -0.2207
  112OSM   H14C11506   2.306   1.124   7.013 -4.0965 -1.2407  0.4910
  112OSM    C1311507   2.564   1.118   7.081  0.3084 -0.9008 -0.2475
  112OSM   H13A11508   2.669   1.093   7.076  0.3621 -0.6233 -0.4980
  112OSM   H13B11509   2.537   1.118   7.186  1.4392  0.6393  0.0823
  112OSM   H13C11510   2.540   1.213   7.036  0.1553 -0.7674  0.1054
  112OSM    C1211511   2.492   1.009   6.861 -0.3162 -0.1131 -0.2997
  112OSM   H12A11512   2.595   1.024   6.835 -0.4718  0.4606 -0.6111
  112OSM   H12B11513   2.431   1.083   6.812 -0.7166 -0.3309 -0.1408
  112OSM    C1111514   2.445   0.878   6.790 -0.0842 -0.1487 -0.4247
  112OSM   H11A11515   2.515   0.807   6.837  0.1979  0.8744  0.7428
  112OSM   H11B11516   2.474   0.894   6.684  1.3541 -0.3110 -0.0650
  112OSM      P11517   2.237   0.716   6.762  0.2876 -0.1188 -0.5953
  112OSM    O1311518   2.328   0.604   6.782 -0.5869  0.2799 -0.7121
  112OSM    O1411519   2.095   0.706   6.814 -0.8018 -0.1578 -0.6781
  112OSM    O1111520   2.225   0.733   6.612  0.0989  0.1771  0.0045
  112OSM    O1211521   2.310   0.849   6.815  0.5229 -0.3128  0.0790
  112OSM    C1S11522   2.180   0.860   6.558  0.8127 -0.1970 -0.5971
  112OSM    H1S11523   2.236   0.946   6.601 -0.9698  0.3400  0.7516
  112OSM    H1T11524   2.073   0.875   6.582  0.5352 -1.4542 -0.9702
  112OSM     NF11525   2.151   0.987   6.346 -0.2059  0.2394  0.0007
  112OSM    HNF11526   2.073   0.983   6.284  0.1384  1.1710 -0.5151
  112OSM    C2S11527   2.206   0.865   6.404 -0.2267 -0.0430 -0.0860
  112OSM    H2S11528   2.316   0.866   6.385 -0.3493 -2.6572 -1.3837
  112OSM    C3S11529   2.164   0.740   6.329  0.1632 -0.5978  0.0035
  112OSM    H3S11530   2.053   0.741   6.335  0.1888 -1.0946  0.7424
  112OSM     O311531   2.199   0.618   6.383 -0.2279 -0.0615  0.2883
  112OSM    HO311532   2.232   0.640   6.471 -0.4622 -1.4550  0.7568
  112OSM    C4S11533   2.206   0.755   6.186 -0.7539  0.3577  0.5295
  112OSM    H4S11534   2.124   0.776   6.115 -0.2572 -1.9027 -0.8588
  112OSM    C5S11535   2.333   0.720   6.137 -0.4542  0.2563 -0.1768
  112OSM    H5S11536   2.415   0.693   6.205 -1.1837 -1.2699  0.1327
  112OSM    C6S11537   2.365   0.704   5.989  0.4738  0.5846 -0.3915
  112OSM    H6S11538   2.476   0.702   5.978  0.2765  0.0574 -3.1207
  112OSM    H6T11539   2.321   0.796   5.943  1.3989  0.6916 -1.1118
  112OSM    C7S11540   2.312   0.588   5.905  0.6120  0.0972  0.2886
  112OSM    H7S11541   2.201   0.583   5.912  0.1958  0.8051 -3.7103
  112OSM    H7T11542   2.348   0.490   5.943  0.4796  0.9026  2.6709
  112OSM    C8S11543   2.349   0.614   5.756  0.6629 -0.8042 -0.3449
  112OSM    H8S11544   2.459   0.632   5.745  0.7209 -2.0032 -2.3769
  112OSM    H8T11545   2.294   0.704   5.722  1.7882  0.0656  0.0658
  112OSM    C9S11546   2.336   0.485   5.666 -0.0186 -0.3057  0.3012
  112OSM    H9S11547   2.228   0.465   5.653 -0.0741 -0.0808  0.4057
  112OSM    H9T11548   2.386   0.397   5.711  1.2291 -0.6962 -1.7199
  112OSM   C10S11549   2.407   0.497   5.534 -0.1429 -0.0196  0.4223
  112OSM   H10S11550   2.517   0.485   5.547  0.3107  0.4595 -2.3691
  112OSM   H10T11551   2.384   0.597   5.492 -0.3755 -0.1074  0.3402
  112OSM   C11S11552   2.349   0.396   5.433 -0.2708 -1.3600 -0.2521
  112OSM   H11S11553   2.238   0.399   5.430 -0.2485  1.3715 -2.1564
  112OSM   H11T11554   2.380   0.298   5.475  1.5430  0.4925  3.1970
  112OSM   C12S11555   2.396   0.428   5.290 -0.1183 -0.3097  0.1697
  112OSM   H12S11556   2.384   0.536   5.269  3.0647  0.1539  0.2959
  112OSM   H12T11557   2.333   0.368   5.220  1.4052 -2.2845  0.3850
  112OSM   C13S11558   2.541   0.396   5.265 -0.9847 -0.2327 -0.3848
  112OSM   H13S11559   2.551   0.285   5.270  0.9299 -0.1097 -0.6210
  112OSM   H13T11560   2.609   0.436   5.343  0.6696 -1.3279 -1.1893
  112OSM   C14S11561   2.595   0.452   5.136 -0.3513 -0.1523 -0.5656
  112OSM   H14S11562   2.578   0.561   5.121 -1.2950  0.0459  1.6293
  112OSM   H14T11563   2.537   0.394   5.061  1.0280  1.0006 -2.6350
  112OSM   C15S11564   2.740   0.414   5.121  0.6382 -0.2781  0.1784
  112OSM   H15S11565   2.751   0.308   5.151 -0.1039 -0.3907  0.0821
  112OSM   H15T11566   2.803   0.459   5.201 -2.2168  1.4136  1.6641
  112OSM   C16S11567   2.803   0.428   4.983 -0.3383 -0.0145 -0.6335
  112OSM   H16S11568   2.908   0.391   4.982 -0.1086  0.6315 -1.5899
  112OSM   H16T11569   2.792   0.538   4.971  0.5969  0.3260  1.2597
  112OSM   C17S11570   2.732   0.360   4.869  0.6770  0.0576 -0.4286
  112OSM   H17S11571   2.636   0.416   4.859  1.8994  2.1956 -0.7485
  112OSM   H17T11572   2.718   0.250   4.881  3.2446 -0.0584  2.6707
  112OSM   C18S11573   2.814   0.370   4.744 -0.8109  0.3382  0.2623
  112OSM   H18S11574   2.824   0.478   4.721 -0.7692  0.3330  0.2552
  112OSM   H18T11575   2.776   0.309   4.659  1.0842 -0.5792  0.0047
  112OSM   H18U11576   2.916   0.325   4.750 -1.1510 -0.6212 -0.7708
  112OSM    C1F11577   2.196   1.112   6.384 -0.2179 -1.0610  0.4051
  112OSM     OF11578   2.296   1.119   6.452  0.1344 -0.1033 -0.2786
  112OSM    C2F11579   2.118   1.227   6.336  0.9500  0.2309  0.3484
  112OSM    H2F11580   2.102   1.305   6.414 -0.2814 -0.8548  1.2208
  112OSM    H2G11581   2.016   1.199   6.301  1.4472  1.6543 -2.5454
  112OSM    C3F11582   2.187   1.298   6.223  0.4642  0.2260  0.4444
  112OSM    H3F11583   2.291   1.326   6.250  0.2644  1.4319  0.0115
  112OSM    H3G11584   2.139   1.397   6.209 -2.8901 -1.4769 -1.3086
  112OSM    C4F11585   2.195   1.218   6.090 -0.4276 -0.1810 -0.5784
  112OSM    H4F11586   2.093   1.190   6.057 -0.2771 -1.1375 -0.2671
  112OSM    H4G11587   2.253   1.129   6.119 -0.5801 -0.1733 -0.2416
  112OSM    C5F11588   2.268   1.288   5.978  0.7775 -0.0720  0.0541
  112OSM    H5F11589   2.374   1.296   6.012  1.9020 -3.1344 -2.3636
  112OSM    H5G11590   2.234   1.391   5.953  1.7847 -0.3119 -2.5136
  112OSM    C6F11591   2.272   1.217   5.842 -0.5583 -0.1764 -0.8901
  112OSM    H6F11592   2.337   1.282   5.780 -0.4906  1.4166  0.7476
  112OSM    H6G11593   2.169   1.203   5.804 -0.0757  2.0629 -3.3095
  112OSM    C7F11594   2.337   1.075   5.846 -0.0512  0.3425 -0.2789
  112OSM    H7F11595   2.285   0.998   5.907 -0.2370 -0.7187 -1.7227
  112OSM    H7G11596   2.432   1.096   5.899  0.6081 -0.0225 -1.2789
  112OSM    C8F11597   2.367   1.012   5.705  0.4654  0.3685 -0.6175
  112OSM    H8F11598   2.432   0.923   5.716  1.3294  0.9327 -1.0533
  112OSM    H8G11599   2.438   1.086   5.662  0.7274 -0.7192 -2.1518
  112OSM    C9F11600   2.252   0.975   5.620 -0.1750 -1.0596  0.3152
  112OSM    H9F11601   2.185   0.907   5.674 -0.6564 -2.5535 -1.9871
  112OSM   C10F11602   2.225   1.028   5.495 -0.1671  0.5389  0.2942
  112OSM   H10F11603   2.147   0.972   5.442  0.6916 -1.6017  1.1759
  112OSM   C11F11604   2.305   1.120   5.406 -0.0638  0.0963  0.1538
  112OSM   H11F11605   2.405   1.144   5.449 -0.6429  1.6985  0.6963
  112OSM   H11G11606   2.238   1.205   5.381  0.3784  0.7502  1.1138
  112OSM   C12F11607   2.337   1.042   5.287  0.0219 -0.5362  0.7501
  112OSM   H12F11608   2.402   1.106   5.223 -0.9967  0.6961  0.9114
  112OSM   H12G11609   2.240   1.019   5.238  0.9490 -3.2269  0.0211
  112OSM   C13F11610   2.429   0.911   5.307  0.3784  0.9418  0.3369
  112OSM   H13F11611   2.371   0.851   5.380  0.6230  0.9041  0.5021
  112OSM   H13G11612   2.519   0.952   5.358 -0.6560  1.9969  1.3759
  112OSM   C14F11613   2.447   0.836   5.171 -0.1469  0.3776 -0.2735
  112OSM   H14F11614   2.350   0.826   5.117 -0.9011  1.7646  0.7535
  112OSM   H14G11615   2.495   0.737   5.183 -0.8554 -0.0093 -0.6105
  112OSM   C15F11616   2.541   0.923   5.076 -0.9177 -0.3197  0.0424
  112OSM   H15F11617   2.633   0.945   5.135 -1.9504 -1.4616  2.1820
  112OSM   H15G11618   2.490   1.017   5.048 -2.4436 -1.0747  0.2057
  112OSM   C16F11619   2.575   0.854   4.945 -0.3983  0.3158 -0.3583
  112OSM   H16F11620   2.481   0.813   4.902  0.4313  1.2288 -3.3191
  112OSM   H16G11621   2.642   0.766   4.955 -0.3616  0.3164 -0.5829
  112OSM   C17F11622   2.635   0.954   4.839 -0.0524  0.4641 -0.1109
  112OSM   H17F11623   2.696   1.033   4.889 -1.7285  1.0935  1.0237
  112OSM   H17G11624   2.546   1.016   4.813 -0.2927  0.7194  1.2390
  112OSM   C18F11625   2.702   0.892   4.725  0.5019 -0.3318  0.0853
  112OSM   H18F11626   2.767   0.810   4.763 -1.2061 -1.3271  0.9658
  112OSM   H18G11627   2.770   0.962   4.671  0.1791 -0.8676 -1.0591
  112OSM   H18H11628   2.632   0.858   4.646 -0.6145  0.4634  0.7075
  113OSM      N11629   5.853   1.989   7.205  0.0696  0.2552 -0.0835
  113OSM    C1511630   5.955   1.889   7.152 -1.0412 -0.4226 -0.0336
  113OSM   H15A11631   5.980   1.817   7.229  1.0359  1.0364  0.7291
  113OSM   H15B11632   6.045   1.944   7.130 -1.6519  0.7476  0.3480
  113OSM   H15C11633   5.914   1.830   7.072 -2.5960  3.6754 -2.5194
  113OSM    C1411634   5.722   1.923   7.215 -0.0820  0.6877  1.2112
  113OSM   H14A11635   5.657   1.989   7.270 -1.1658 -0.7671  1.7467
  113OSM   H14B11636   5.734   1.826   7.262  0.6442  0.8041  1.2773
  113OSM   H14C11637   5.667   1.914   7.122  0.2917 -1.9381  1.1562
  113OSM    C1311638   5.918   2.018   7.339  0.6195 -0.1258  0.1716
  113OSM   H13A11639   5.941   1.929   7.395 -0.2002 -0.9093 -0.7030
  113OSM   H13B11640   5.854   2.075   7.404  0.5571  0.8866 -0.7390
  113OSM   H13C11641   6.010   2.075   7.330  0.1425  0.3693 -2.2755
  113OSM    C1211642   5.837   2.108   7.115 -0.0836 -0.1865  0.0473
  113OSM   H12A11643   5.924   2.171   7.106  0.3586 -1.0206 -2.3020
  113OSM   H12B11644   5.774   2.184   7.158  1.1139  2.1809 -2.0940
  113OSM    C1111645   5.784   2.094   6.973 -0.4853  0.0933 -0.3913
  113OSM   H11A11646   5.857   2.024   6.927 -0.5439 -0.1807 -0.0673
  113OSM   H11B11647   5.807   2.189   6.920 -0.3572 -0.6579 -1.7215
  113OSM      P11648   5.524   2.147   6.958 -0.4587  0.4584  0.1105
  113OSM    O1311649   5.401   2.073   6.920  0.4987 -0.4880  0.4428
  113OSM    O1411650   5.525   2.221   7.085 -0.4142  0.3878 -0.3061
  113OSM    O1111651   5.559   2.241   6.831  0.4430  0.1672 -0.1591
  113OSM    O1211652   5.646   2.050   6.963 -0.2702  0.3960 -0.3035
  113OSM    C1S11653   5.571   2.174   6.703 -1.1354  0.3249  0.1729
  113OSM    H1S11654   5.592   2.065   6.707 -1.4534  0.2681  0.3620
  113OSM    H1T11655   5.660   2.213   6.649 -0.8761 -0.0837  0.3070
  113OSM     NF11656   5.428   2.105   6.502  0.0708  0.0422  0.0855
  113OSM    HNF11657   5.436   2.149   6.413 -0.6237  0.5251  0.2533
  113OSM    C2S11658   5.441   2.192   6.621  0.1584 -0.0029 -0.4610
  113OSM    H2S11659   5.357   2.166   6.690  0.6978  0.8095  0.5247
  113OSM    C3S11660   5.423   2.347   6.581 -0.3980 -0.4398 -0.2433
  113OSM    H3S11661   5.512   2.361   6.516 -1.6254  1.9887 -1.5614
  113OSM     O311662   5.434   2.432   6.694 -0.1113  0.0245 -0.1886
  113OSM    HO311663   5.467   2.370   6.759  0.2576 -0.2765 -0.6571
  113OSM    C4S11664   5.305   2.381   6.495 -0.3525 -0.5155  0.4034
  113OSM    H4S11665   5.343   2.392   6.393  0.7041 -0.4196  0.7954
  113OSM    C5S11666   5.180   2.416   6.527  1.0684  0.0527  0.2393
  113OSM    H5S11667   5.152   2.428   6.633 -0.8683  0.5671 -0.2941
  113OSM    C6S11668   5.079   2.453   6.419  0.3106 -0.0614  0.5238
  113OSM    H6S11669   4.979   2.471   6.465 -0.4585 -1.6510 -0.4519
  113OSM    H6T11670   5.061   2.368   6.350 -0.3405  1.1125 -0.8278
  113OSM    C7S11671   5.122   2.574   6.330 -0.4675  0.6460 -0.8055
  113OSM    H7S11672   5.217   2.541   6.282  0.3757  0.9397  0.6115
  113OSM    H7T11673   5.145   2.663   6.392 -1.3996  0.9870 -0.9240
  113OSM    C8S11674   5.026   2.618   6.223  0.0115 -0.3789 -0.5174
  113OSM    H8S11675   5.070   2.702   6.165 -1.6220 -0.0857 -1.3603
  113OSM    H8T11676   4.939   2.667   6.272  0.4753 -0.2697  0.2289
  113OSM    C9S11677   4.992   2.512   6.117 -0.8244  0.3795 -0.2559
  113OSM    H9S11678   4.919   2.439   6.160 -0.5001  1.3864  2.1216
  113OSM    H9T11679   5.087   2.457   6.104 -1.2071  0.1785 -2.8920
  113OSM   C10S11680   4.944   2.573   5.993  0.4467 -0.4731 -0.4199
  113OSM   H10S11681   5.034   2.623   5.952 -0.0095  0.9209  0.1935
  113OSM   H10T11682   4.862   2.640   6.027  1.0415 -1.0479  2.3893
  113OSM   C11S11683   4.888   2.463   5.901 -0.2725  0.0330 -0.1579
  113OSM   H11S11684   4.782   2.442   5.924 -0.1330 -1.6662 -0.8852
  113OSM   H11T11685   4.945   2.372   5.931  2.0036  1.4568  0.0668
  113OSM   C12S11686   4.918   2.481   5.748  0.1368  0.1394  0.1719
  113OSM   H12S11687   5.026   2.474   5.725 -0.3307  0.2036 -2.3115
  113OSM   H12T11688   4.885   2.586   5.732 -1.8687 -0.4308  0.2821
  113OSM   C13S11689   4.850   2.389   5.644  0.6590 -0.4903 -0.6669
  113OSM   H13S11690   4.739   2.389   5.647  0.6200 -1.3240 -1.6322
  113OSM   H13T11691   4.874   2.286   5.677  0.9317 -0.2117  0.0232
  113OSM   C14S11692   4.891   2.420   5.499 -0.9971  0.7644  0.1106
  113OSM   H14S11693   5.000   2.414   5.479 -0.6715  1.6920  1.4872
  113OSM   H14T11694   4.858   2.525   5.482 -0.3828  0.5347 -3.0373
  113OSM   C15S11695   4.812   2.321   5.413 -0.6002 -0.5791 -0.5505
  113OSM   H15S11696   4.704   2.334   5.432 -0.6213  1.9276 -1.9737
  113OSM   H15T11697   4.839   2.221   5.454  1.6876  0.5522  0.9073
  113OSM   C16S11698   4.842   2.329   5.259 -0.3457 -0.5472  0.3071
  113OSM   H16S11699   4.953   2.319   5.252 -0.2704 -0.5920  1.4122
  113OSM   H16T11700   4.828   2.434   5.226  2.6532 -0.3745 -0.7884
  113OSM   C17S11701   4.761   2.231   5.165 -0.1651  0.2118  0.1954
  113OSM   H17S11702   4.653   2.255   5.178  0.2394  1.2995  1.8237
  113OSM   H17T11703   4.766   2.128   5.206  1.4424  0.2717  0.1963
  113OSM   C18S11704   4.805   2.249   5.018 -0.4229  0.1614 -0.9001
  113OSM   H18S11705   4.739   2.197   4.946  0.9022 -0.8054 -1.4607
  113OSM   H18T11706   4.910   2.216   5.004 -0.0190  0.6346  0.7711
  113OSM   H18U11707   4.798   2.354   4.981  0.6228 -0.7563 -3.9570
  113OSM    C1F11708   5.452   1.973   6.506  0.0267  0.2452  0.6304
  113OSM     OF11709   5.435   1.904   6.612  0.8831  0.2294 -0.1750
  113OSM    C2F11710   5.496   1.901   6.382  0.2098 -0.1941 -0.1535
  113OSM    H2F11711   5.594   1.947   6.360  0.6947 -0.3680  1.5124
  113OSM    H2G11712   5.427   1.921   6.297 -0.0650  0.8322  0.2972
  113OSM    C3F11713   5.506   1.747   6.386 -0.1596  0.1040 -0.2102
  113OSM    H3F11714   5.414   1.697   6.424  0.0923 -0.0052  0.2564
  113OSM    H3G11715   5.589   1.712   6.451  0.1880 -0.1067 -0.7603
  113OSM    C4F11716   5.535   1.684   6.245  0.0628 -0.9826 -0.8989
  113OSM    H4F11717   5.640   1.705   6.218 -0.5111 -0.2384 -2.6546
  113OSM    H4G11718   5.465   1.737   6.177 -0.5002 -1.0480 -0.3892
  113OSM    C5F11719   5.516   1.533   6.238 -0.2439 -0.2284  0.2338
  113OSM    H5F11720   5.408   1.509   6.251 -0.3912  0.8072  1.0569
  113OSM    H5G11721   5.582   1.469   6.299 -1.0200 -3.2929 -1.8753
  113OSM    C6F11722   5.546   1.493   6.087  0.1187 -0.1165  0.3009
  113OSM    H6F11723   5.495   1.395   6.073 -1.5632  1.0259 -2.5466
  113OSM    H6G11724   5.656   1.484   6.079  0.0340  0.0494 -1.4740
  113OSM    C7F11725   5.501   1.591   5.979 -0.1036  0.0816 -0.2500
  113OSM    H7F11726   5.577   1.673   5.979  1.4599 -1.3129 -0.5452
  113OSM    H7G11727   5.404   1.637   6.009 -1.0517 -1.8310 -0.2222
  113OSM    C8F11728   5.477   1.519   5.845 -0.1475 -0.1630  0.1534
  113OSM    H8F11729   5.415   1.582   5.779 -2.5961 -0.5102  1.9855
  113OSM    H8G11730   5.419   1.428   5.871  0.0035 -1.2564 -2.9519
  113OSM    C9F11731   5.600   1.461   5.779 -0.3297 -0.4260  0.6275
  113OSM    H9F11732   5.666   1.409   5.851  0.5974 -0.9748 -0.5756
  113OSM   C10F11733   5.638   1.480   5.651 -0.2918  0.3445  0.1600
  113OSM   H10F11734   5.736   1.438   5.624  0.0689  2.4856 -2.2731
  113OSM   C11F11735   5.555   1.540   5.540  0.6588 -0.3589  0.4164
  113OSM   H11F11736   5.596   1.631   5.492 -2.0161 -0.5065 -2.4605
  113OSM   H11G11737   5.464   1.583   5.587  0.0900 -1.4879  0.3832
  113OSM   C12F11738   5.509   1.439   5.435 -0.6457 -0.0456  0.1994
  113OSM   H12F11739   5.446   1.497   5.364  1.8121  1.0371 -1.1988
  113OSM   H12G11740   5.442   1.362   5.479 -0.5119  0.4368  1.2874
  113OSM   C13F11741   5.620   1.372   5.351  0.2719 -0.9213 -0.5730
  113OSM   H13F11742   5.697   1.332   5.420 -0.4960 -0.0576  0.8312
  113OSM   H13G11743   5.664   1.438   5.274 -1.4431  0.0098 -0.8067
  113OSM   C14F11744   5.562   1.255   5.263 -0.1257 -0.3606 -0.2091
  113OSM   H14F11745   5.461   1.282   5.224 -0.9494  2.4808  3.3196
  113OSM   H14G11746   5.558   1.165   5.328 -2.9148 -0.1773 -0.0186
  113OSM   C15F11747   5.668   1.214   5.155  0.2414  0.8281 -0.4756
  113OSM   H15F11748   5.762   1.188   5.207 -0.9634  0.2743  1.5053
  113OSM   H15G11749   5.684   1.299   5.085 -0.5054  0.2509 -1.3848
  113OSM   C16F11750   5.621   1.083   5.078  0.3437 -0.3572 -0.4132
  113OSM   H16F11751   5.517   1.109   5.051  0.3614  0.2280  0.0418
  113OSM   H16G11752   5.607   0.996   5.146  0.9943  2.4166  3.6752
  113OSM   C17F11753   5.704   1.051   4.953  0.1319 -0.5598  0.0965
  113OSM   H17F11754   5.806   1.028   4.990  0.3723  1.1561  0.6006
  113OSM   H17G11755   5.715   1.147   4.897 -0.0775  0.5704  1.9226
  113OSM   C18F11756   5.646   0.934   4.867 -0.4107 -0.5463  0.6780
  113OSM   H18F11757   5.713   0.901   4.785 -0.2179 -0.0296  0.6213
  113OSM   H18G11758   5.553   0.962   4.813 -0.1625  0.5684  0.7848
  113OSM   H18H11759   5.631   0.838   4.920  0.0728 -1.1473 -0.2403
  114OSM      N11760   6.766   6.186   7.099 -0.0681  0.2505 -0.2356
  114OSM    C1511761   6.905   6.234   7.067 -0.5990  0.0482  0.8880
  114OSM   H15A11762   6.941   6.281   7.157 -3.0159  2.7192  0.5985
  114OSM   H15B11763   6.904   6.304   6.984  0.1707 -1.7096 -0.6788
  114OSM   H15C11764   6.979   6.162   7.036  0.8126  1.3227  1.1825
  114OSM    C1411765   6.774   6.114   7.231  0.4010 -0.5213 -0.3089
  114OSM   H14A11766   6.687   6.051   7.247 -0.1362  0.4060  0.5412
  114OSM   H14B11767   6.773   6.189   7.308 -1.7306 -0.5212 -0.2771
  114OSM   H14C11768   6.866   6.058   7.232 -0.4144 -1.9914  2.4529
  114OSM    C1311769   6.686   6.313   7.124 -0.0127  0.5118  0.5867
  114OSM   H13A11770   6.684   6.380   7.039 -0.9440 -1.4388 -1.0074
  114OSM   H13B11771   6.730   6.372   7.202  3.0140 -0.8659  0.0469
  114OSM   H13C11772   6.581   6.298   7.146  0.2289  1.1856  2.3836
  114OSM    C1211773   6.718   6.101   6.978  0.2846  0.0620 -0.5631
  114OSM   H12A11774   6.613   6.083   6.996 -0.5710  1.8820 -3.1060
  114OSM   H12B11775   6.791   6.023   6.961 -0.0045  0.2068 -2.7087
  114OSM    C1111776   6.706   6.171   6.839 -0.0123  0.7180 -0.1634
  114OSM   H11A11777   6.687   6.100   6.755  2.7456  2.7852 -2.7496
  114OSM   H11B11778   6.808   6.211   6.824 -0.0371  1.1918  0.8503
  114OSM      P11779   6.623   6.405   6.761 -0.5543  0.0654 -0.0129
  114OSM    O1311780   6.495   6.469   6.751 -0.4265 -0.1084  0.3527
  114OSM    O1411781   6.732   6.480   6.828  0.0281 -0.3285 -0.5538
  114OSM    O1111782   6.667   6.359   6.621 -0.3867 -0.2037  0.0168
  114OSM    O1211783   6.596   6.265   6.829 -0.1713  0.2843 -0.0221
  114OSM    C1S11784   6.594   6.269   6.532 -0.5313  0.4875 -0.6637
  114OSM    H1S11785   6.488   6.301   6.519 -0.9951 -0.7353 -0.0588
  114OSM    H1T11786   6.585   6.165   6.570 -1.5041  0.8749  0.2288
  114OSM     NF11787   6.567   6.191   6.310  0.4560  0.1761  0.7367
  114OSM    HNF11788   6.562   6.092   6.309 -1.3189  0.1930 -1.6488
  114OSM    C2S11789   6.659   6.256   6.394 -0.7509  0.4399  0.6397
  114OSM    H2S11790   6.678   6.360   6.360 -0.9193 -0.0404 -0.9996
  114OSM    C3S11791   6.792   6.174   6.418  0.3958 -0.2678 -0.7212
  114OSM    H3S11792   6.768   6.075   6.464 -0.3948  0.6889  1.0061
  114OSM     O311793   6.871   6.218   6.527 -0.2941  0.4059  0.2167
  114OSM    HO311794   6.815   6.279   6.575  2.2351  2.9316  0.1872
  114OSM    C4S11795   6.871   6.152   6.300 -0.6500 -0.1294  1.1041
  114OSM    H4S11796   6.876   6.231   6.224  0.7082  0.0299  1.3278
  114OSM    C5S11797   6.955   6.048   6.276  0.6973 -0.0698 -0.1849
  114OSM    H5S11798   6.965   5.970   6.353 -1.6682 -0.3475 -0.0852
  114OSM    C6S11799   7.030   6.033   6.143  0.1854  0.2311  0.8636
  114OSM    H6S11800   7.132   5.989   6.152  0.1978  0.1648  0.4262
  114OSM    H6T11801   7.050   6.133   6.098  1.6628 -1.0699 -1.6465
  114OSM    C7S11802   6.940   5.961   6.043  0.0458 -0.4900  0.4009
  114OSM    H7S11803   6.854   6.028   6.027  0.1923 -0.3810  0.0408
  114OSM    H7T11804   6.897   5.874   6.097 -0.4133  0.2756  1.2852
  114OSM    C8S11805   7.022   5.931   5.913  0.3856  0.2385 -0.4452
  114OSM    H8S11806   7.063   5.828   5.915 -1.9899 -0.7756 -0.5820
  114OSM    H8T11807   7.112   5.994   5.896 -1.3716  2.6123 -1.5289
  114OSM    C9S11808   6.940   5.932   5.783 -0.7370  0.0945 -0.3326
  114OSM    H9S11809   6.902   6.036   5.774  0.7644  0.7897  0.8395
  114OSM    H9T11810   6.847   5.875   5.802 -1.0187  1.0388  1.3835
  114OSM   C10S11811   7.016   5.895   5.659  0.8143 -0.4030  0.2946
  114OSM   H10S11812   7.060   5.793   5.671 -3.2765 -2.3437  0.7140
  114OSM   H10T11813   7.102   5.964   5.666  1.0417 -0.7973  1.8953
  114OSM   C11S11814   6.922   5.899   5.537 -0.1439 -0.4498  0.2752
  114OSM   H11S11815   6.878   6.000   5.538  2.7567  0.9204  1.9586
  114OSM   H11T11816   6.847   5.817   5.530  0.6407 -1.0454 -2.5483
  114OSM   C12S11817   6.996   5.882   5.406 -0.8428  0.0769 -0.6721
  114OSM   H12S11818   7.051   5.786   5.404  1.3367  1.2731 -1.6520
  114OSM   H12T11819   7.073   5.962   5.402 -0.6553 -0.1441 -2.0739
  114OSM   C13S11820   6.906   5.889   5.285 -0.2996 -0.5636  0.2695
  114OSM   H13S11821   6.802   5.853   5.303 -1.4053  0.9217 -2.5903
  114OSM   H13T11822   6.946   5.837   5.196  0.5901 -0.5189  0.6310
  114OSM   C14S11823   6.875   6.036   5.240 -0.1063  0.0029 -0.2182
  114OSM   H14S11824   6.967   6.080   5.195 -0.5202  1.1155 -0.0191
  114OSM   H14T11825   6.830   6.088   5.327  0.5193  0.3212 -0.0792
  114OSM   C15S11826   6.756   6.051   5.137 -0.6370 -1.0031  0.0366
  114OSM   H15S11827   6.674   6.096   5.197  0.1238  1.8256 -0.9083
  114OSM   H15T11828   6.736   5.947   5.102 -1.4002 -0.5625 -0.8883
  114OSM   C16S11829   6.801   6.129   5.009 -0.0117  0.2993 -0.6098
  114OSM   H16S11830   6.864   6.056   4.953 -2.2333 -0.8509 -1.7718
  114OSM   H16T11831   6.856   6.221   5.036  4.0075 -1.1867 -2.8813
  114OSM   C17S11832   6.684   6.165   4.916 -0.2076  1.2067 -0.1240
  114OSM   H17S11833   6.609   6.224   4.971 -0.5748  1.3949 -0.8173
  114OSM   H17T11834   6.630   6.076   4.878  0.3453  0.7452  0.1591
  114OSM   C18S11835   6.741   6.234   4.789  0.2894  0.6490  0.0955
  114OSM   H18S11836   6.772   6.154   4.718 -1.7287 -0.2655  0.1735
  114OSM   H18T11837   6.829   6.298   4.813 -1.0798  2.0036  1.7515
  114OSM   H18U11838   6.654   6.281   4.738  0.3687  0.4780 -0.1998
  114OSM    C1F11839   6.460   6.258   6.259 -0.0304  0.2965  0.1139
  114OSM     OF11840   6.469   6.375   6.250  0.3431 -0.7676 -0.0908
  114OSM    C2F11841   6.335   6.178   6.229 -0.3231  0.6444  0.3435
  114OSM    H2F11842   6.288   6.154   6.327 -0.3813  0.2996  0.2326
  114OSM    H2G11843   6.363   6.084   6.175 -0.0456  0.4028  0.9006
  114OSM    C3F11844   6.222   6.243   6.141 -0.2173  0.1476  0.6929
  114OSM    H3F11845   6.185   6.336   6.190 -1.0154  0.5177 -0.5635
  114OSM    H3G11846   6.132   6.177   6.147  0.2939 -0.5821  0.5427
  114OSM    C4F11847   6.262   6.273   5.991 -0.4171  0.6283  0.2862
  114OSM    H4F11848   6.257   6.183   5.926 -3.2999 -0.8115  2.2892
  114OSM    H4G11849   6.370   6.302   5.988  0.1013 -1.0835  0.9001
  114OSM    C5F11850   6.175   6.373   5.921  0.2942 -0.2245  0.6059
  114OSM    H5F11851   6.097   6.406   5.993 -0.7422 -2.1636  0.4290
  114OSM    H5G11852   6.112   6.324   5.844 -0.3754  1.3633  0.0971
  114OSM    C6F11853   6.256   6.496   5.873  0.2181  0.1096 -0.1947
  114OSM    H6F11854   6.179   6.558   5.822  1.0950 -0.7878 -2.8219
  114OSM    H6G11855   6.336   6.460   5.805 -0.6135 -1.0756 -0.5908
  114OSM    C7F11856   6.330   6.568   5.983  0.6425 -0.1074 -0.1819
  114OSM    H7F11857   6.429   6.527   6.014  2.6774  3.5994 -1.1814
  114OSM    H7G11858   6.268   6.574   6.075  1.5936 -0.0323  0.4678
  114OSM    C8F11859   6.360   6.705   5.933 -0.0994  0.1594 -0.5239
  114OSM    H8F11860   6.397   6.776   6.010  0.2061  0.0057 -0.5294
  114OSM    H8G11861   6.265   6.760   5.913 -1.6189 -0.8629  3.0617
  114OSM    C9F11862   6.458   6.702   5.819  0.3921  0.7772 -0.4443
  114OSM    H9F11863   6.559   6.660   5.831 -0.5065 -0.9151  1.8196
  114OSM   C10F11864   6.422   6.742   5.697  0.0822 -0.4838 -0.4289
  114OSM   H10F11865   6.504   6.750   5.624  0.1626  1.5059 -0.2003
  114OSM   C11F11866   6.284   6.795   5.648  0.1523  0.1681 -0.6127
  114OSM   H11F11867   6.279   6.904   5.669 -0.1405  0.0046  0.1790
  114OSM   H11G11868   6.194   6.749   5.695  0.2513  1.0836  0.5095
  114OSM   C12F11869   6.253   6.795   5.497  0.8524 -0.5046 -0.0669
  114OSM   H12F11870   6.150   6.833   5.481  0.0914 -2.4356 -0.0362
  114OSM   H12G11871   6.257   6.694   5.449  1.0817 -0.7271  0.4174
  114OSM   C13F11872   6.337   6.891   5.405 -0.1427 -0.3741  0.1230
  114OSM   H13F11873   6.443   6.858   5.420 -0.2162 -1.2549 -1.1513
  114OSM   H13G11874   6.315   6.992   5.446  0.2496 -0.7171  1.2369
  114OSM   C14F11875   6.289   6.889   5.262  0.3870  0.9683  0.9355
  114OSM   H14F11876   6.181   6.916   5.262  0.0371 -0.0660 -1.8041
  114OSM   H14G11877   6.299   6.786   5.222 -0.2835  0.6995  1.4278
  114OSM   C15F11878   6.377   6.986   5.190  0.2055  0.5215 -1.0567
  114OSM   H15F11879   6.339   6.970   5.087 -0.8699  0.6083 -0.6852
  114OSM   H15G11880   6.481   6.947   5.199 -0.6720 -1.6090  1.3030
  114OSM   C16F11881   6.349   7.132   5.218 -0.4671  0.8360  0.6746
  114OSM   H16F11882   6.389   7.169   5.315  0.4136  2.1638 -0.1687
  114OSM   H16G11883   6.238   7.135   5.209 -0.7191 -2.6888  1.0811
  114OSM   C17F11884   6.414   7.222   5.111  0.9560  0.0336  0.2039
  114OSM   H17F11885   6.525   7.207   5.110  1.3041  2.2909 -0.4757
  114OSM   H17G11886   6.401   7.327   5.145  0.7517  0.9548 -2.4796
  114OSM   C18F11887   6.361   7.221   4.974 -0.3265 -0.2500  0.6809
  114OSM   H18F11888   6.442   7.244   4.902 -1.0902  0.1872 -0.0663
  114OSM   H18G11889   6.277   7.293   4.964 -0.5398 -0.7576 -2.1028
  114OSM   H18H11890   6.319   7.124   4.939 -0.5830  0.1468 -0.1461
  115OSM      N11891   4.746   4.589   7.057 -0.3759 -0.2617 -0.0656
  115OSM    C1511892   4.754   4.735   7.091  0.4407  0.2396 -0.5966
  115OSM   H15A11893   4.706   4.757   7.184  1.7546  0.9059 -0.0416
  115OSM   H15B11894   4.725   4.800   7.010 -0.4918  1.2294  0.5023
  115OSM   H15C11895   4.854   4.765   7.120 -0.5384  1.6659  1.5614
  115OSM    C1411896   4.781   4.527   7.184 -0.6501 -0.1351 -0.5949
  115OSM   H14A11897   4.779   4.419   7.176 -2.7104 -0.1775 -0.2866
  115OSM   H14B11898   4.707   4.555   7.258 -0.7974 -0.8628 -0.4547
  115OSM   H14C11899   4.879   4.555   7.217 -1.2417  0.2307  0.9663
  115OSM    C1311900   4.603   4.557   7.029 -0.0935  0.3925  0.0833
  115OSM   H13A11901   4.576   4.459   6.992 -0.1479  1.3970 -2.8166
  115OSM   H13B11902   4.572   4.625   6.950 -1.2712  0.4591  0.5730
  115OSM   H13C11903   4.548   4.577   7.120  0.8460  0.2077  0.7011
  115OSM    C1211904   4.844   4.554   6.953  0.3734 -0.2865 -0.7896
  115OSM   H12A11905   4.944   4.583   6.982  1.1794 -2.6981 -0.9317
  115OSM   H12B11906   4.823   4.621   6.870  2.6962  3.2886  1.2384
  115OSM    C1111907   4.854   4.402   6.906  0.0064  0.2766  0.1197
  115OSM   H11A11908   4.923   4.401   6.820  1.7195  2.2431  1.3860
  115OSM   H11B11909   4.754   4.370   6.868 -0.0306  0.3862  0.1262
  115OSM      P11910   4.888   4.169   7.006 -0.4108  0.1863 -0.4612
  115OSM    O1311911   4.990   4.112   7.094 -0.3018  0.2582  0.3064
  115OSM    O1411912   4.747   4.142   7.034 -0.3582  0.0154  0.6621
  115OSM    O1111913   4.919   4.137   6.853 -0.5327 -0.2983  0.1721
  115OSM    O1211914   4.909   4.323   7.010  0.5188 -0.0457  0.8919
  115OSM    C1S11915   5.022   4.033   6.830 -0.4067  0.4239  0.4181
  115OSM    H1S11916   4.985   3.934   6.865  2.3685 -1.9667 -2.6467
  115OSM    H1T11917   5.112   4.060   6.890 -1.2540  0.2504  1.7931
  115OSM     NF11918   5.089   3.884   6.638 -0.4459  0.4905  0.4471
  115OSM    HNF11919   5.183   3.877   6.605 -0.8695 -0.9721 -0.5360
  115OSM    C2S11920   5.049   4.016   6.671 -0.3202 -0.5822 -0.5199
  115OSM    H2S11921   4.949   4.034   6.624 -0.4072  0.9431  0.1788
  115OSM    C3S11922   5.135   4.138   6.622  0.1351  0.2787  0.2448
  115OSM    H3S11923   5.236   4.125   6.666  0.7473 -1.0975 -1.4596
  115OSM     O311924   5.094   4.260   6.683 -0.2799 -0.2322  0.0441
  115OSM    HO311925   5.017   4.241   6.738 -0.7921  0.2183 -0.4994
  115OSM    C4S11926   5.138   4.154   6.475 -0.5567 -0.5365 -0.5280
  115OSM    H4S11927   5.044   4.197   6.438 -0.5954  0.3486  0.5212
  115OSM    C5S11928   5.236   4.132   6.387  0.8607  0.5589  0.2246
  115OSM    H5S11929   5.331   4.087   6.415  0.7928  0.1771 -0.1461
  115OSM    C6S11930   5.215   4.151   6.240  0.1778 -0.8168 -0.3028
  115OSM    H6S11931   5.135   4.217   6.200 -1.1119 -1.0563  1.7337
  115OSM    H6T11932   5.186   4.050   6.204 -0.0990 -1.5619  1.8499
  115OSM    C7S11933   5.343   4.187   6.165 -0.0162  0.0444  0.0743
  115OSM    H7S11934   5.427   4.117   6.181 -1.2124 -2.3344 -3.0394
  115OSM    H7T11935   5.375   4.285   6.207  2.9370 -0.8545  0.1281
  115OSM    C8S11936   5.328   4.217   6.014  0.8265 -0.1869  0.7601
  115OSM    H8S11937   5.423   4.234   5.961 -0.6186 -2.9191 -3.1226
  115OSM    H8T11938   5.261   4.302   5.987  0.3879 -1.2218 -1.5661
  115OSM    C9S11939   5.265   4.110   5.926 -0.1164  0.4257  0.7004
  115OSM    H9S11940   5.156   4.109   5.948  0.1733 -0.4539  2.2659
  115OSM    H9T11941   5.319   4.018   5.957  3.2183  1.0381 -2.5119
  115OSM   C10S11942   5.282   4.144   5.774 -0.0211  0.0913  0.2150
  115OSM   H10S11943   5.389   4.166   5.758  0.3491 -0.8957  1.2220
  115OSM   H10T11944   5.215   4.231   5.756 -0.7869 -0.4751  0.2926
  115OSM   C11S11945   5.238   4.024   5.678  0.2209 -0.4330 -0.6340
  115OSM   H11S11946   5.140   3.984   5.711  0.5097 -0.5094  0.1584
  115OSM   H11T11947   5.316   3.947   5.697 -0.6805 -0.6521  3.0163
  115OSM   C12S11948   5.232   4.066   5.529 -0.2646 -0.0936 -0.5646
  115OSM   H12S11949   5.328   4.102   5.488 -1.1029 -0.9918 -3.5817
  115OSM   H12T11950   5.151   4.143   5.525 -1.7556 -1.5263  0.4413
  115OSM   C13S11951   5.183   3.950   5.442  0.6753  0.1387 -0.9508
  115OSM   H13S11952   5.097   3.887   5.473  1.3957 -1.6537 -2.4303
  115OSM   H13T11953   5.271   3.883   5.437  1.9528  1.3651  2.4640
  115OSM   C14S11954   5.132   3.995   5.302 -0.7286  0.2406  0.3512
  115OSM   H14S11955   5.071   4.085   5.327  0.1833  0.4551  1.9380
  115OSM   H14T11956   5.065   3.916   5.262  0.7337 -2.0211  2.1158
  115OSM   C15S11957   5.249   4.016   5.199  0.6413  0.2114 -0.2838
  115OSM   H15S11958   5.328   3.941   5.219  0.8322  0.1944 -1.0671
  115OSM   H15T11959   5.283   4.119   5.221 -0.7683  1.1484 -2.2265
  115OSM   C16S11960   5.204   3.995   5.055  1.0385 -1.0738  0.2097
  115OSM   H16S11961   5.200   3.885   5.042 -1.2832 -1.0436  0.2259
  115OSM   H16T11962   5.279   4.042   4.988 -0.0695  2.4111  1.1961
  115OSM   C17S11963   5.065   4.067   5.027 -0.3202 -0.3663 -0.1873
  115OSM   H17S11964   5.065   4.176   5.047 -0.0092 -0.0090 -1.9627
  115OSM   H17T11965   4.980   4.035   5.091 -2.5180  2.6838 -1.3414
  115OSM   C18S11966   5.025   4.051   4.877  0.3159  0.2174  0.0816
  115OSM   H18S11967   4.914   4.062   4.880  0.4041  0.9710  0.8398
  115OSM   H18T11968   5.051   3.946   4.849  3.0606  1.0705 -0.8497
  115OSM   H18U11969   5.069   4.129   4.811  0.3382  0.0718 -0.0764
  115OSM    C1F11970   5.033   3.766   6.658 -0.8141  0.4846  0.4254
  115OSM     OF11971   4.932   3.742   6.728  0.1268  0.0602  0.4231
  115OSM    C2F11972   5.104   3.642   6.594  0.5041  0.0213  0.5031
  115OSM    H2F11973   5.046   3.548   6.598  1.5052 -0.6310  0.1471
  115OSM    H2G11974   5.191   3.624   6.662  0.5106  0.6177  0.6642
  115OSM    C3F11975   5.169   3.671   6.460 -0.2113  0.3278 -0.2969
  115OSM    H3F11976   5.235   3.582   6.447 -1.8407 -0.9240 -0.2112
  115OSM    H3G11977   5.244   3.752   6.473 -0.0525 -0.0119  1.0686
  115OSM    C4F11978   5.070   3.687   6.349 -0.2112  0.6383  0.0742
  115OSM    H4F11979   4.997   3.757   6.394 -1.2436 -1.7638  2.3676
  115OSM    H4G11980   5.018   3.593   6.321 -0.2592  0.6411  0.1539
  115OSM    C5F11981   5.131   3.733   6.218 -1.1534  0.0973  0.4083
  115OSM    H5F11982   5.197   3.649   6.188 -1.2030 -0.4708  1.8004
  115OSM    H5G11983   5.190   3.827   6.212  1.4017 -1.4501 -1.1026
  115OSM    C6F11984   5.023   3.748   6.118 -0.1257  0.1615  0.1831
  115OSM    H6F11985   4.953   3.825   6.157  1.1792  0.0919  2.8632
  115OSM    H6G11986   4.967   3.654   6.104  1.2115 -1.1286  2.7850
  115OSM    C7F11987   5.066   3.803   5.979  0.8770 -0.1063  0.0125
  115OSM    H7F11988   5.144   3.734   5.940 -0.9169 -2.9308  1.0968
  115OSM    H7G11989   5.102   3.908   5.984 -0.2743  0.3716 -0.9604
  115OSM    C8F11990   4.951   3.794   5.881  0.1240 -0.1089 -0.1652
  115OSM    H8F11991   4.965   3.858   5.791  1.6408 -1.0899 -0.6540
  115OSM    H8G11992   4.861   3.842   5.927  0.1572 -1.1885  1.0685
  115OSM    C9F11993   4.904   3.655   5.842 -0.0526  0.0223 -0.2901
  115OSM    H9F11994   4.829   3.606   5.905  0.0285 -2.6769 -2.1248
  115OSM   C10F11995   4.945   3.586   5.741 -0.0573 -0.3389  0.2572
  115OSM   H10F11996   4.920   3.479   5.727 -0.2634 -0.2248 -0.2687
  115OSM   C11F11997   5.057   3.618   5.641 -0.0792 -0.0497 -0.6783
  115OSM   H11F11998   5.136   3.543   5.664 -0.6068 -0.3424  0.1980
  115OSM   H11G11999   5.108   3.716   5.653 -0.5078  0.1504 -0.4910
  115OSM   C12F12000   5.019   3.584   5.489  0.6006 -0.6103 -0.2112
  115OSM   H12F12001   4.959   3.670   5.453  0.1896 -0.5007  0.6920
  115OSM   H12G12002   4.962   3.489   5.482 -0.4854 -0.1911  2.0143
  115OSM   C13F12003   5.149   3.582   5.404  0.7500  0.2142  0.1132
  115OSM   H13F12004   5.207   3.491   5.430 -1.1711 -0.4456  2.4386
  115OSM   H13G12005   5.203   3.675   5.431 -2.0488  2.2900 -0.8490
  115OSM   C14F12006   5.122   3.583   5.253 -0.5920  0.5056  0.4353
  115OSM   H14F12007   5.220   3.577   5.201 -0.2614  1.0631  0.9792
  115OSM   H14G12008   5.072   3.677   5.221  1.3463  1.6751  0.6811
  115OSM   C15F12009   5.033   3.474   5.200  0.1746  0.0835 -0.7681
  115OSM   H15F12010   4.933   3.501   5.240 -0.5700 -0.3004 -2.3212
  115OSM   H15G12011   5.051   3.368   5.229  0.2445  0.0934 -0.7736
  115OSM   C16F12012   5.015   3.467   5.041 -0.1355 -0.5376 -0.0420
  115OSM   H16F12013   5.101   3.404   5.010  0.5176  0.5797 -0.5247
  115OSM   H16G12014   5.017   3.563   4.986 -2.2870 -0.8416 -0.7368
  115OSM   C17F12015   4.893   3.390   4.989 -0.1472  0.4289  0.1940
  115OSM   H17F12016   4.920   3.373   4.883  1.8319 -1.6912  0.9505
  115OSM   H17G12017   4.804   3.454   5.009 -0.8978 -0.5483  0.0387
  115OSM   C18F12018   4.861   3.261   5.058  0.0626  0.5948 -0.2273
  115OSM   H18F12019   4.943   3.186   5.048 -2.0472 -1.9572  0.3535
  115OSM   H18G12020   4.772   3.218   5.007 -0.7322 -0.0133  1.5636
  115OSM   H18H12021   4.838   3.276   5.166  2.6574 -0.6777  0.5843
  116OSM      N12022   0.978   1.716   7.053 -0.6240  0.4551 -0.8785
  116OSM    C1512023   1.045   1.849   7.013 -0.0713 -0.0896 -0.6549
  116OSM   H15A12024   0.967   1.920   6.990  1.0578  0.9201 -1.5273
  116OSM   H15B12025   1.122   1.842   6.937  0.8801  0.8280  0.1845
  116OSM   H15C12026   1.096   1.896   7.096  1.7922  1.3939 -2.5418
  116OSM    C1412027   1.090   1.627   7.115  0.1702 -1.2394 -0.3040
  116OSM   H14A12028   1.120   1.680   7.204  1.2470  0.2910 -1.5159
  116OSM   H14B12029   1.170   1.616   7.043  0.6581 -0.8957  0.1802
  116OSM   H14C12030   1.053   1.533   7.153  2.9665 -1.5091  2.1054
  116OSM    C1312031   0.869   1.733   7.151  0.2657  0.0357 -0.2720
  116OSM   H13A12032   0.898   1.786   7.241  0.3029  0.4406 -0.5238
  116OSM   H13B12033   0.834   1.638   7.188 -2.1799  0.9458 -0.0380
  116OSM   H13C12034   0.785   1.781   7.104  0.0474  1.3024  1.3238
  116OSM    C1212035   0.925   1.655   6.923 -0.3049 -0.3946  0.1771
  116OSM   H12A12036   1.010   1.627   6.862 -1.3911  1.1333 -2.2021
  116OSM   H12B12037   0.867   1.730   6.871  1.7426  1.1379 -0.0526
  116OSM    C1112038   0.837   1.528   6.934 -0.6024 -0.4739 -0.3562
  116OSM   H11A12039   0.796   1.504   6.834  1.4587 -1.1397 -1.0911
  116OSM   H11B12040   0.751   1.543   7.004 -2.2333 -2.2094 -1.8854
  116OSM      P12041   1.014   1.345   6.890 -0.2348  0.0558  0.0634
  116OSM    O1312042   1.115   1.438   6.834  0.5186  0.4367 -0.1053
  116OSM    O1412043   1.064   1.227   6.972 -0.0059  0.3301  0.1381
  116OSM    O1112044   0.927   1.308   6.764 -0.4690 -0.8233  0.1300
  116OSM    O1212045   0.914   1.421   6.982 -0.2834 -0.0624  0.6664
  116OSM    C1S12046   0.983   1.294   6.631 -0.6088  0.1031 -0.0400
  116OSM    H1S12047   1.069   1.224   6.635 -0.7136 -0.0043  0.5636
  116OSM    H1T12048   1.033   1.388   6.599  0.4617  0.0960  1.4868
  116OSM     NF12049   0.934   1.209   6.398 -0.3210  0.2958  0.6453
  116OSM    HNF12050   0.954   1.262   6.316 -0.5693 -3.4715 -2.1438
  116OSM    C2S12051   0.876   1.263   6.521  0.8655 -0.3711  1.1407
  116OSM    H2S12052   0.804   1.184   6.550 -0.8307  0.3043 -0.9568
  116OSM    C3S12053   0.779   1.392   6.486 -0.5247 -0.0741 -0.1017
  116OSM    H3S12054   0.851   1.471   6.457  0.1238 -0.4803  0.3726
  116OSM     O312055   0.707   1.435   6.600 -0.5014 -0.0875 -0.0395
  116OSM    HO312056   0.741   1.380   6.671  1.7135 -0.7909 -1.5106
  116OSM    C4S12057   0.685   1.372   6.366 -0.7249 -0.0190  0.2156
  116OSM    H4S12058   0.742   1.378   6.272  0.7008  0.5970  1.0766
  116OSM    C5S12059   0.560   1.307   6.373 -0.3690 -0.2135  0.4111
  116OSM    H5S12060   0.525   1.281   6.474  2.4945 -3.4220  0.7457
  116OSM    C6S12061   0.468   1.274   6.260  0.3950 -0.0288  0.5563
  116OSM    H6S12062   0.380   1.342   6.268  1.0140  0.7857  0.6297
  116OSM    H6T12063   0.430   1.170   6.267 -0.3376  0.2783  1.3554
  116OSM    C7S12064   0.526   1.285   6.119 -1.3741  0.2122 -0.9854
  116OSM    H7S12065   0.612   1.216   6.103 -0.5819  0.4089  1.8958
  116OSM    H7T12066   0.573   1.386   6.117  0.5760 -0.6469 -1.4304
  116OSM    C8S12067   0.419   1.283   6.010  0.1255  0.6842  0.1863
  116OSM    H8S12068   0.350   1.369   6.020  0.5992  0.8563  2.9532
  116OSM    H8T12069   0.361   1.191   6.036  1.1716 -0.1870 -0.4543
  116OSM    C9S12070   0.490   1.262   5.879  0.8737  0.3011 -0.0797
  116OSM    H9S12071   0.559   1.176   5.890  2.0489  1.3894  1.5240
  116OSM    H9T12072   0.540   1.357   5.851  1.9665 -0.4216 -0.6266
  116OSM   C10S12073   0.379   1.241   5.773 -1.0158  0.2560  0.3451
  116OSM   H10S12074   0.321   1.336   5.769  0.8786  1.5028  1.1695
  116OSM   H10T12075   0.324   1.150   5.808 -0.3303 -0.1455  0.3907
  116OSM   C11S12076   0.444   1.206   5.638  0.5022  0.0895 -0.2016
  116OSM   H11S12077   0.493   1.107   5.647  2.6271  1.0527 -0.4913
  116OSM   H11T12078   0.528   1.276   5.615  0.3059 -0.4331 -2.8449
  116OSM   C12S12079   0.351   1.206   5.517 -0.4182 -0.1235 -0.5828
  116OSM   H12S12080   0.282   1.292   5.527  1.0055  0.9854  0.1020
  116OSM   H12T12081   0.288   1.115   5.529 -0.6980  0.0845 -0.4699
  116OSM   C13S12082   0.426   1.219   5.388 -0.5423  0.2113 -0.5473
  116OSM   H13S12083   0.524   1.167   5.396 -0.1698  1.1974  2.8110
  116OSM   H13T12084   0.454   1.325   5.370  0.6879 -0.2400 -1.4041
  116OSM   C14S12085   0.342   1.154   5.276  0.2560  0.2331  0.1554
  116OSM   H14S12086   0.242   1.200   5.265  0.3701 -0.0951 -3.2819
  116OSM   H14T12087   0.311   1.050   5.298 -1.0640  0.0202 -2.2813
  116OSM   C15S12088   0.407   1.156   5.132  0.1899  1.0280  0.1065
  116OSM   H15S12089   0.510   1.115   5.142 -0.3415  0.1761  3.6311
  116OSM   H15T12090   0.418   1.257   5.089  1.0950  1.2720  0.8631
  116OSM   C16S12091   0.337   1.082   5.023 -0.7591  0.5372 -0.4011
  116OSM   H16S12092   0.234   1.122   5.025 -0.6825  0.7102  0.2223
  116OSM   H16T12093   0.317   0.973   5.033 -2.6444  0.9376  0.5164
  116OSM   C17S12094   0.409   1.097   4.887 -0.0634  0.5869  0.1830
  116OSM   H17S12095   0.499   1.032   4.889 -1.0340 -0.8450 -1.0229
  116OSM   H17T12096   0.444   1.202   4.877  1.0997  0.0495 -2.0242
  116OSM   C18S12097   0.312   1.073   4.779  0.7449 -0.4828  0.9273
  116OSM   H18S12098   0.284   0.968   4.758  0.1987 -0.1246 -0.2422
  116OSM   H18T12099   0.349   1.114   4.682  0.1082  1.0276  1.2919
  116OSM   H18U12100   0.214   1.121   4.800  0.4534 -0.4007 -0.4777
  116OSM    C1F12101   0.983   1.088   6.386 -0.0433  0.7849 -0.1108
  116OSM     OF12102   0.978   1.015   6.486  0.6304 -0.5259 -0.1644
  116OSM    C2F12103   1.036   1.033   6.250 -0.1739  0.1698 -0.6094
  116OSM    H2F12104   1.068   0.928   6.268  0.0877  0.4058  0.3133
  116OSM    H2G12105   1.126   1.088   6.215 -0.7827  0.2915 -2.0785
  116OSM    C3F12106   0.928   1.041   6.141 -0.0137  0.6695  0.1647
  116OSM    H3F12107   0.908   1.147   6.114  1.0906  1.2645  1.5775
  116OSM    H3G12108   0.838   1.004   6.193  0.4915 -1.6915 -0.5089
  116OSM    C4F12109   0.947   0.977   6.000  0.1350 -0.9115 -0.3734
  116OSM    H4F12110   0.847   1.002   5.959 -0.9548  2.6199  3.7845
  116OSM    H4G12111   0.966   0.868   6.012  0.7207 -0.9208 -1.2758
  116OSM    C5F12112   1.067   1.021   5.919 -0.5084 -0.5981  0.3863
  116OSM    H5F12113   1.159   0.980   5.967 -1.2862  0.6859  3.1719
  116OSM    H5G12114   1.081   1.131   5.923  3.4916 -0.9619 -0.0104
  116OSM    C6F12115   1.059   0.966   5.772 -0.5335  0.4588  0.3402
  116OSM    H6F12116   0.992   1.036   5.717 -0.0896  0.0611 -0.7416
  116OSM    H6G12117   1.009   0.868   5.765 -1.2794  0.8652 -0.1112
  116OSM    C7F12118   1.197   0.982   5.717  0.0666 -0.4018  0.6580
  116OSM    H7F12119   1.271   0.937   5.787 -0.6694  0.5611  2.1189
  116OSM    H7G12120   1.205   1.093   5.715 -0.4783 -0.3479 -1.9690
  116OSM    C8F12121   1.227   0.939   5.569  0.0008  0.1264  0.4484
  116OSM    H8F12122   1.180   1.016   5.504  1.3526 -0.2165 -0.9799
  116OSM    H8G12123   1.186   0.839   5.542  1.9218 -0.9944  1.4549
  116OSM    C9F12124   1.372   0.946   5.538 -0.4962 -0.4759 -0.3066
  116OSM    H9F12125   1.430   0.855   5.554  1.6545  0.2383 -3.2612
  116OSM   C10F12126   1.437   1.057   5.493 -0.1785 -0.3833 -0.5509
  116OSM   H10F12127   1.541   1.050   5.458 -0.0149 -1.0247  0.0413
  116OSM   C11F12128   1.375   1.192   5.473 -0.7008 -0.2682  0.2997
  116OSM   H11F12129   1.455   1.264   5.501 -1.1491  0.4715 -0.2683
  116OSM   H11G12130   1.296   1.211   5.548 -0.0916 -1.2061  1.2084
  116OSM   C12F12131   1.333   1.201   5.328 -0.2521 -0.5039  1.0545
  116OSM   H12F12132   1.280   1.297   5.309  1.3008  0.8425  3.1301
  116OSM   H12G12133   1.255   1.126   5.302 -0.4659  0.8466 -3.0072
  116OSM   C13F12134   1.450   1.198   5.229 -0.1982  0.6452  0.0901
  116OSM   H13F12135   1.511   1.105   5.230 -2.8827 -1.2074  0.8667
  116OSM   H13G12136   1.519   1.283   5.245  0.0072  0.8524 -1.6606
  116OSM   C14F12137   1.396   1.220   5.082  0.6085  0.0942 -0.0097
  116OSM   H14F12138   1.483   1.239   5.016  1.2741 -2.7638 -0.0861
  116OSM   H14G12139   1.331   1.309   5.096 -3.5134 -2.9865  2.5770
  116OSM   C15F12140   1.312   1.101   5.039 -0.0525  0.2515  0.1716
  116OSM   H15F12141   1.208   1.098   5.080 -0.3112  3.1294 -0.0592
  116OSM   H15G12142   1.360   1.008   5.076 -0.3677  0.3839  0.9499
  116OSM   C16F12143   1.301   1.101   4.886 -0.1283  0.6624  0.0136
  116OSM   H16F12144   1.399   1.095   4.833  0.0334 -0.3849  0.4172
  116OSM   H16G12145   1.258   1.200   4.857 -1.3027  0.0593 -0.3358
  116OSM   C17F12146   1.213   0.988   4.832 -0.0358  0.5378  0.3960
  116OSM   H17F12147   1.104   1.005   4.845 -0.2549  1.2503 -1.8703
  116OSM   H17G12148   1.225   0.895   4.891 -2.8126 -0.2537 -0.1489
  116OSM   C18F12149   1.230   0.957   4.686  0.3287  0.0444  0.2064
  116OSM   H18F12150   1.194   1.050   4.637  0.7198 -0.2233 -0.6172
  116OSM   H18G12151   1.176   0.867   4.649 -0.3123 -0.0972  1.4532
  116OSM   H18H12152   1.337   0.959   4.654  0.1898  1.1757 -0.2510
  117OSM      N12153   6.188   3.738   6.937  0.1605 -0.5155 -0.7517
  117OSM    C1512154   6.152   3.681   7.071 -0.1677 -0.1194 -0.1287
  117OSM   H15A12155   6.045   3.684   7.085 -0.1313  1.6038  0.0210
  117OSM   H15B12156   6.202   3.724   7.156  4.7308  1.5089 -3.3830
  117OSM   H15C12157   6.172   3.575   7.070 -0.4000 -0.1868  1.0267
  117OSM    C1412158   6.330   3.712   6.916 -0.1727 -0.0570  0.6294
  117OSM   H14A12159   6.358   3.608   6.918  0.1629 -0.0648 -1.7624
  117OSM   H14B12160   6.390   3.762   6.990  1.3184  2.0060 -1.8089
  117OSM   H14C12161   6.357   3.749   6.819 -2.6557 -1.9826 -0.9216
  117OSM    C1312162   6.109   3.669   6.831  0.0439  0.3042 -0.0177
  117OSM   H13A12163   6.129   3.707   6.732 -2.7436 -0.2484 -0.8910
  117OSM   H13B12164   6.005   3.699   6.836  0.1960  1.0909 -1.3321
  117OSM   H13C12165   6.104   3.562   6.844  0.8258  0.2361 -0.2686
  117OSM    C1212166   6.175   3.890   6.936 -0.4309 -0.0352  0.1081
  117OSM   H12A12167   6.240   3.940   7.007 -1.3129  0.1522  0.8022
  117OSM   H12B12168   6.081   3.918   6.980 -1.0574 -0.3285 -1.0252
  117OSM    C1112169   6.193   3.966   6.800 -1.0384  0.5009 -0.1876
  117OSM   H11A12170   6.142   4.062   6.822  0.5089  1.1970  0.5648
  117OSM   H11B12171   6.138   3.917   6.716  0.4979 -1.1381 -0.3066
  117OSM      P12172   6.427   4.078   6.811 -0.0398 -0.2672  0.1657
  117OSM    O1312173   6.400   4.106   6.953 -0.3390  0.4225 -0.1352
  117OSM    O1412174   6.566   4.039   6.770  0.5191 -0.2437  0.1989
  117OSM    O1112175   6.389   4.207   6.735  0.0692  0.3769  0.2568
  117OSM    O1212176   6.329   3.974   6.755 -0.3690  0.2033  0.1158
  117OSM    C1S12177   6.370   4.213   6.591  0.8422 -0.3967  0.5816
  117OSM    H1S12178   6.415   4.126   6.540  0.4710 -0.8862  1.0774
  117OSM    H1T12179   6.412   4.309   6.553 -1.6053  0.2704 -0.6222
  117OSM     NF12180   6.198   4.209   6.402  0.9138  0.5000 -0.0508
  117OSM    HNF12181   6.141   4.284   6.369  1.1573  0.6551 -0.1268
  117OSM    C2S12182   6.216   4.217   6.547  0.8761  0.5844  1.0671
  117OSM    H2S12183   6.177   4.119   6.581  0.4813 -0.7982 -2.8735
  117OSM    C3S12184   6.141   4.333   6.628  0.0464 -0.1916 -0.1154
  117OSM    H3S12185   6.167   4.427   6.575  0.1971 -0.0273  0.2509
  117OSM     O312186   6.191   4.359   6.761  0.3572  0.5105 -0.3913
  117OSM    HO312187   6.275   4.312   6.767 -0.4111 -0.9336 -0.4770
  117OSM    C4S12188   5.989   4.323   6.633 -0.7552  0.1817 -0.5005
  117OSM    H4S12189   5.945   4.366   6.542  2.3440  0.6695 -1.9181
  117OSM    C5S12190   5.916   4.268   6.732  0.1328 -0.4774  0.7310
  117OSM    H5S12191   5.966   4.224   6.819  0.0366 -0.1908  0.9304
  117OSM    C6S12192   5.766   4.264   6.726  0.1838 -0.2289 -0.7415
  117OSM    H6S12193   5.729   4.332   6.806 -0.4084 -0.1995 -1.0316
  117OSM    H6T12194   5.711   4.169   6.744  0.2283  0.2442  2.3822
  117OSM    C7S12195   5.705   4.321   6.596 -0.0937 -0.0007 -0.1424
  117OSM    H7S12196   5.741   4.255   6.514  0.8114 -2.1633  1.8614
  117OSM    H7T12197   5.740   4.425   6.582 -0.8512  0.5677  1.7779
  117OSM    C8S12198   5.550   4.336   6.601  0.2419  0.1935 -0.1625
  117OSM    H8S12199   5.514   4.407   6.679 -0.9116  0.4173 -0.8721
  117OSM    H8T12200   5.510   4.234   6.618  1.9794 -0.6268 -0.7222
  117OSM    C9S12201   5.491   4.388   6.470 -0.5007  0.1963  0.4113
  117OSM    H9S12202   5.390   4.344   6.456 -0.1836 -0.0599 -1.2958
  117OSM    H9T12203   5.551   4.344   6.387  0.1424  0.3296  0.7953
  117OSM   C10S12204   5.499   4.544   6.451 -0.6701 -0.7730 -0.1723
  117OSM   H10S12205   5.606   4.569   6.439 -0.6919 -0.3307  0.5404
  117OSM   H10T12206   5.463   4.606   6.536  0.3035  3.3024 -2.4545
  117OSM   C11S12207   5.420   4.599   6.330 -0.7840  0.2624  0.2148
  117OSM   H11S12208   5.317   4.583   6.366 -0.5620 -1.2492  0.2577
  117OSM   H11T12209   5.425   4.527   6.245 -0.6734  1.1473 -0.5536
  117OSM   C12S12210   5.462   4.741   6.283  0.0490  0.6901  0.2620
  117OSM   H12S12211   5.572   4.748   6.271 -0.0509  1.3451 -0.3650
  117OSM   H12T12212   5.435   4.807   6.368  1.5129  1.3473  0.2509
  117OSM   C13S12213   5.405   4.788   6.150  1.1752 -0.4331  1.0254
  117OSM   H13S12214   5.296   4.767   6.154  0.4903  2.1394 -1.1320
  117OSM   H13T12215   5.440   4.729   6.063 -1.8652 -0.6789 -0.1777
  117OSM   C14S12216   5.443   4.937   6.125 -0.1526  0.1800 -0.2758
  117OSM   H14S12217   5.552   4.927   6.106 -0.5492 -0.0034 -2.8282
  117OSM   H14T12218   5.425   4.980   6.226  0.8932 -2.5211  1.1565
  117OSM   C15S12219   5.357   5.016   6.026  0.5108  0.6215  0.1050
  117OSM   H15S12220   5.349   5.126   6.042  1.0502  0.8488 -1.1016
  117OSM   H15T12221   5.251   4.984   6.036  0.6254  0.3136  0.3559
  117OSM   C16S12222   5.408   5.008   5.883  0.3334 -0.1643 -0.4297
  117OSM   H16S12223   5.423   4.899   5.871  0.4865 -0.2732  0.6697
  117OSM   H16T12224   5.505   5.061   5.872  0.4009 -0.0699  0.5721
  117OSM   C17S12225   5.309   5.053   5.776  0.7654 -0.0628  0.6603
  117OSM   H17S12226   5.302   5.164   5.771 -0.8822 -0.1187  1.1408
  117OSM   H17T12227   5.204   5.021   5.796  0.4182 -1.4664 -2.7602
  117OSM   C18S12228   5.335   4.989   5.638 -0.3084 -0.2192 -0.1129
  117OSM   H18S12229   5.253   5.020   5.571 -0.5431  1.7663  1.0228
  117OSM   H18T12230   5.340   4.878   5.647 -0.7270 -0.2905 -0.6790
  117OSM   H18U12231   5.438   5.005   5.598  0.4704 -2.4036  0.8340
  117OSM    C1F12232   6.250   4.108   6.329  0.6368 -0.1978  0.2778
  117OSM     OF12233   6.295   4.009   6.384 -0.1159 -0.0459  0.3109
  117OSM    C2F12234   6.245   4.126   6.179  0.5941 -0.0497 -0.2564
  117OSM    H2F12235   6.239   4.234   6.152  4.2573  0.0922 -0.9820
  117OSM    H2G12236   6.149   4.076   6.153  0.7692 -0.1749 -0.6738
  117OSM    C3F12237   6.354   4.056   6.102 -0.2785  0.2908 -0.2037
  117OSM    H3F12238   6.358   3.948   6.127 -3.7910  0.2118  0.5600
  117OSM    H3G12239   6.454   4.093   6.132 -0.4726  0.0674  0.7606
  117OSM    C4F12240   6.336   4.070   5.954 -0.2580 -0.0393 -0.5226
  117OSM    H4F12241   6.243   4.026   5.912  0.7422 -2.3382 -0.5258
  117OSM    H4G12242   6.403   4.002   5.896  0.7990  0.8968 -0.4282
  117OSM    C5F12243   6.350   4.213   5.902 -0.2858  0.8108 -0.4749
  117OSM    H5F12244   6.450   4.251   5.929  0.1698 -0.0274 -0.9389
  117OSM    H5G12245   6.271   4.282   5.940  0.2401  1.2931 -0.2484
  117OSM    C6F12246   6.332   4.218   5.748 -0.0939  0.1836  0.1060
  117OSM    H6F12247   6.230   4.197   5.708  0.2060 -0.2038 -0.4607
  117OSM    H6G12248   6.416   4.157   5.710  1.2992  1.0939  1.5922
  117OSM    C7F12249   6.372   4.356   5.694  0.4587  0.4423  0.4480
  117OSM    H7F12250   6.475   4.382   5.725  0.9033  0.0948 -0.6591
  117OSM    H7G12251   6.303   4.430   5.740 -1.4467  0.4194 -2.1212
  117OSM    C8F12252   6.367   4.368   5.538 -0.1742 -0.6724 -0.5780
  117OSM    H8F12253   6.426   4.282   5.498  0.7786 -0.8205  1.0581
  117OSM    H8G12254   6.420   4.462   5.512 -1.7541  1.2626  2.6615
  117OSM    C9F12255   6.229   4.399   5.481  0.2516 -0.1843 -0.3094
  117OSM    H9F12256   6.195   4.494   5.526  3.2159  1.2749 -0.9131
  117OSM   C10F12257   6.161   4.328   5.392 -0.1063  0.1487  0.2872
  117OSM   H10F12258   6.065   4.369   5.358 -0.0525  0.1474  0.1342
  117OSM   C11F12259   6.210   4.206   5.317  0.3745  0.5400  0.0318
  117OSM   H11F12260   6.124   4.136   5.305  1.3515 -1.3702  2.9796
  117OSM   H11G12261   6.285   4.161   5.385  0.3027  0.5256  0.1020
  117OSM   C12F12262   6.263   4.222   5.172  0.8624  0.2965 -0.2188
  117OSM   H12F12263   6.297   4.119   5.150 -0.3188 -0.1027 -0.2213
  117OSM   H12G12264   6.344   4.299   5.172  1.0368  0.1878  1.7383
  117OSM   C13F12265   6.164   4.255   5.061 -0.4156  0.5983  0.0465
  117OSM   H13F12266   6.150   4.365   5.050  1.6883  0.8442 -0.6462
  117OSM   H13G12267   6.065   4.209   5.079  0.2637 -1.1379 -0.4778
  117OSM   C14F12268   6.216   4.185   4.931  0.3443 -0.2356  0.4202
  117OSM   H14F12269   6.179   4.080   4.931 -0.4664  0.0170 -1.0265
  117OSM   H14G12270   6.325   4.179   4.950  0.2558 -2.9806  0.3988
  117OSM   C15F12271   6.173   4.244   4.802  0.2056  0.4268  0.3465
  117OSM   H15F12272   6.222   4.343   4.790  0.7631  0.5602  3.0981
  117OSM   H15G12273   6.063   4.254   4.788  0.3939  1.5853 -0.4090
  117OSM   C16F12274   6.228   4.160   4.682  0.2728 -0.1369  0.7198
  117OSM   H16F12275   6.332   4.134   4.711  0.3320  0.5318  1.1099
  117OSM   H16G12276   6.225   4.224   4.591 -1.5250  0.8899  1.4319
  117OSM   C17F12277   6.153   4.031   4.654 -0.5557  0.3422 -0.2528
  117OSM   H17F12278   6.050   4.064   4.629 -0.7049 -1.0980 -1.7482
  117OSM   H17G12279   6.151   3.966   4.744 -1.2313  1.3141  0.4396
  117OSM   C18F12280   6.213   3.947   4.545  0.0374  0.0438 -0.0791
  117OSM   H18F12281   6.319   3.922   4.566  0.1509 -0.2010 -0.8915
  117OSM   H18G12282   6.212   4.007   4.451 -5.5471  0.8265  0.1441
  117OSM   H18H12283   6.154   3.854   4.530 -1.0334  0.6677  0.2092
  118OSM      N12284   5.951   2.620   6.687  0.2212  0.6349  0.4656
  118OSM    C1512285   5.958   2.717   6.578  0.9246  0.3125 -0.4802
  118OSM   H15A12286   5.976   2.816   6.617 -2.2152  0.5776  0.5930
  118OSM   H15B12287   5.867   2.720   6.521  0.1161 -0.5751  0.6911
  118OSM   H15C12288   6.036   2.703   6.505  0.9672 -1.9932 -0.0973
  118OSM    C1412289   6.086   2.607   6.747  0.1729 -0.5477  0.4179
  118OSM   H14A12290   6.163   2.600   6.670 -1.7108 -0.5233 -1.5740
  118OSM   H14B12291   6.098   2.529   6.820  1.6949 -1.1988 -0.4543
  118OSM   H14C12292   6.098   2.692   6.811  1.6706 -0.9997  0.7897
  118OSM    C1312293   5.843   2.658   6.775 -0.3059  0.4610 -0.6758
  118OSM   H13A12294   5.761   2.701   6.720 -0.0501 -0.6326 -1.9511
  118OSM   H13B12295   5.878   2.732   6.845  1.5571 -0.4213 -0.6143
  118OSM   H13C12296   5.798   2.572   6.822 -0.1755  1.4871  1.4761
  118OSM    C1212297   5.918   2.488   6.610  0.8975 -0.1228 -0.1146
  118OSM   H12A12298   6.003   2.463   6.548 -0.5169 -0.9587 -1.8146
  118OSM   H12B12299   5.828   2.503   6.552  0.1844 -0.8341  0.7826
  118OSM    C1112300   5.893   2.359   6.696  0.7647 -0.3025  0.8729
  118OSM   H11A12301   5.862   2.277   6.627  0.7713  1.0142 -0.7575
  118OSM   H11B12302   5.800   2.371   6.756  0.0883 -1.8652  0.1715
  118OSM      P12303   6.108   2.224   6.732 -0.0641  0.1570 -0.2851
  118OSM    O1312304   6.200   2.229   6.845 -0.1664 -0.7909 -0.0223
  118OSM    O1412305   6.049   2.095   6.691  0.3217  0.1440 -0.2868
  118OSM    O1112306   6.169   2.307   6.611 -0.1196  0.0043 -0.2022
  118OSM    O1212307   5.993   2.320   6.789 -0.0720  0.3098  0.2385
  118OSM    C1S12308   6.158   2.244   6.483  0.4426 -0.5972 -0.1708
  118OSM    H1S12309   6.050   2.242   6.454  0.0487  0.6432  1.1171
  118OSM    H1T12310   6.187   2.138   6.471 -0.9777 -0.8706 -1.6764
  118OSM     NF12311   6.222   2.278   6.240 -0.1079  0.0901 -0.0789
  118OSM    HNF12312   6.299   2.232   6.196  0.2382 -1.5359  2.0648
  118OSM    C2S12313   6.246   2.324   6.373 -0.1099  0.0311 -0.2017
  118OSM    H2S12314   6.197   2.424   6.376 -0.6508 -0.2100 -0.7412
  118OSM    C3S12315   6.395   2.342   6.417 -0.2539  0.2139 -1.1032
  118OSM    H3S12316   6.438   2.239   6.413 -0.7189  0.0511 -4.0892
  118OSM     O312317   6.410   2.404   6.545 -0.7232 -0.1511  0.2442
  118OSM    HO312318   6.324   2.392   6.586 -0.1418  1.4057  2.0564
  118OSM    C4S12319   6.465   2.430   6.323  0.5111  0.3678 -0.3260
  118OSM    H4S12320   6.409   2.523   6.314 -1.5604 -0.6572  1.2249
  118OSM    C5S12321   6.564   2.406   6.244  0.0755 -0.1440 -0.4475
  118OSM    H5S12322   6.601   2.303   6.233  0.9833  0.0645  0.5159
  118OSM    C6S12323   6.599   2.507   6.140  0.2915  0.1736 -0.0618
  118OSM    H6S12324   6.709   2.512   6.123  0.2866 -2.4543 -1.4122
  118OSM    H6T12325   6.575   2.610   6.174  1.2852  0.0528  1.0684
  118OSM    C7S12326   6.541   2.482   6.000  0.4800  0.2273 -0.0013
  118OSM    H7S12327   6.431   2.488   6.016  0.5492 -0.5984  0.8432
  118OSM    H7T12328   6.570   2.382   5.963  1.4838  0.7220 -0.6009
  118OSM    C8S12329   6.580   2.586   5.897  0.6013 -0.9648 -0.0727
  118OSM    H8S12330   6.689   2.576   5.876  0.4446 -0.6123 -1.0825
  118OSM    H8T12331   6.569   2.688   5.937  0.7153 -2.0480  2.9737
  118OSM    C9S12332   6.505   2.557   5.763 -0.2887  0.0823  0.1310
  118OSM    H9S12333   6.402   2.520   5.779 -1.0043  1.6951 -0.5475
  118OSM    H9T12334   6.573   2.486   5.712  1.8718  1.3713  1.0561
  118OSM   C10S12335   6.482   2.678   5.678  0.1180  0.2330 -0.4419
  118OSM   H10S12336   6.584   2.720   5.660  1.0174 -2.3496 -1.9285
  118OSM   H10T12337   6.423   2.752   5.735 -0.8144 -1.0284  0.2779
  118OSM   C11S12338   6.414   2.634   5.544 -0.1113 -0.0807 -0.1080
  118OSM   H11S12339   6.313   2.596   5.568 -0.0749  0.1822  0.4833
  118OSM   H11T12340   6.460   2.542   5.501  0.3763  0.9037 -1.7963
  118OSM   C12S12341   6.415   2.748   5.437 -0.3358  0.4958  0.0071
  118OSM   H12S12342   6.524   2.761   5.419  0.2946 -0.6242  2.5469
  118OSM   H12T12343   6.369   2.843   5.470 -1.5091  0.8086 -2.3057
  118OSM   C13S12344   6.352   2.706   5.312 -0.5899 -1.0339  0.3251
  118OSM   H13S12345   6.246   2.685   5.335 -1.0887 -0.9335 -1.6422
  118OSM   H13T12346   6.390   2.603   5.295  2.6920  0.3132 -1.6624
  118OSM   C14S12347   6.367   2.798   5.193 -0.2240 -0.2079 -0.4096
  118OSM   H14S12348   6.475   2.798   5.163  0.5282  2.6419  1.8366
  118OSM   H14T12349   6.347   2.905   5.218 -1.6216 -0.4397 -0.4551
  118OSM   C15S12350   6.274   2.765   5.079  0.3307 -0.1552  0.0504
  118OSM   H15S12351   6.170   2.761   5.119  0.5494 -0.7906  0.5716
  118OSM   H15T12352   6.290   2.662   5.042 -0.0723 -0.2770  0.2074
  118OSM   C16S12353   6.284   2.854   4.957  0.6115  0.6455  0.5837
  118OSM   H16S12354   6.386   2.858   4.912  0.8392  0.0664  1.0276
  118OSM   H16T12355   6.266   2.960   4.987 -1.8404  0.5268 -0.3014
  118OSM   C17S12356   6.165   2.823   4.861 -0.3138 -0.0375 -0.2816
  118OSM   H17S12357   6.076   2.836   4.926  0.0587 -1.5622  0.5889
  118OSM   H17T12358   6.181   2.714   4.841  0.5527  0.0649 -0.1795
  118OSM   C18S12359   6.162   2.907   4.739  0.4477  0.0531  0.2167
  118OSM   H18S12360   6.158   3.014   4.768 -0.5736  0.3879 -1.0873
  118OSM   H18T12361   6.074   2.889   4.675  1.2722  2.1605 -1.6018
  118OSM   H18U12362   6.257   2.895   4.682  0.0221  0.3543 -0.5595
  118OSM    C1F12363   6.100   2.285   6.177  0.5596  0.1391 -0.2552
  118OSM     OF12364   6.004   2.350   6.223  0.0600 -0.1890  0.0795
  118OSM    C2F12365   6.078   2.203   6.051 -0.4429 -0.2639  0.1811
  118OSM    H2F12366   6.075   2.098   6.084 -1.7201 -0.2863  0.0406
  118OSM    H2G12367   6.168   2.218   5.987 -0.4568 -0.8063  0.0298
  118OSM    C3F12368   5.960   2.252   5.960  0.7747  0.0952  0.7865
  118OSM    H3F12369   5.959   2.356   5.923 -0.6287 -1.0221 -2.8401
  118OSM    H3G12370   5.861   2.238   6.009  0.1118 -0.7888 -0.7175
  118OSM    C4F12371   5.951   2.171   5.825 -0.1720  0.5635 -0.4488
  118OSM    H4F12372   5.847   2.169   5.786 -0.4526 -1.7973  0.2605
  118OSM    H4G12373   5.968   2.062   5.838  0.9028  0.7905  0.2503
  118OSM    C5F12374   6.040   2.229   5.716  0.0433 -0.1762  0.8019
  118OSM    H5F12375   6.147   2.215   5.742  0.4135  0.1173 -0.4722
  118OSM    H5G12376   6.028   2.338   5.697  1.5224 -0.1770 -0.3123
  118OSM    C6F12377   6.023   2.154   5.575  0.1655 -0.3034 -0.2676
  118OSM    H6F12378   6.007   2.045   5.589 -2.1294 -0.0109 -0.1607
  118OSM    H6G12379   6.115   2.159   5.512  0.2076  0.9227 -0.1286
  118OSM    C7F12380   5.901   2.200   5.488  0.2552  0.0751  0.0957
  118OSM    H7F12381   5.915   2.310   5.489  0.8743 -0.0032  0.8857
  118OSM    H7G12382   5.810   2.166   5.541 -2.2115  3.2762 -1.7581
  118OSM    C8F12383   5.926   2.141   5.348 -0.3189 -0.5636 -0.6640
  118OSM    H8F12384   5.965   2.036   5.349  2.1592  0.2643  1.2448
  118OSM    H8G12385   6.010   2.206   5.315 -1.3744  0.5220 -1.2647
  118OSM    C9F12386   5.808   2.141   5.249 -0.3671 -0.0389 -0.4080
  118OSM    H9F12387   5.729   2.066   5.267  2.0574 -3.3468 -2.4178
  118OSM   C10F12388   5.790   2.229   5.143  0.0599 -0.1502 -0.7549
  118OSM   H10F12389   5.702   2.218   5.077  1.0088  1.5836 -2.4275
  118OSM   C11F12390   5.882   2.341   5.102 -0.4406 -0.3873  0.6445
  118OSM   H11F12391   5.928   2.313   5.004  1.7216  3.7519  0.2497
  118OSM   H11G12392   5.964   2.374   5.169 -2.0017 -0.8942  2.8835
  118OSM   C12F12393   5.782   2.457   5.083 -0.4594 -0.0690 -0.3300
  118OSM   H12F12394   5.755   2.482   5.187  0.8808  0.4708 -0.0858
  118OSM   H12G12395   5.695   2.426   5.021 -0.0997 -0.4472 -0.6578
  118OSM   C13F12396   5.839   2.584   5.028  0.4733 -0.3247 -0.0980
  118OSM   H13F12397   5.894   2.568   4.933  1.5389  1.9565  0.0660
  118OSM   H13G12398   5.918   2.632   5.088  0.7379 -0.1609 -0.5688
  118OSM   C14F12399   5.724   2.680   4.988  0.5692  0.6947 -0.0684
  118OSM   H14F12400   5.653   2.672   5.072  1.8068 -2.1401  0.8406
  118OSM   H14G12401   5.671   2.642   4.897  1.4316 -1.1391  0.1532
  118OSM   C15F12402   5.771   2.818   4.943  0.3432 -0.7859 -0.0143
  118OSM   H15F12403   5.824   2.824   4.846  0.9497 -0.3194  0.3389
  118OSM   H15G12404   5.829   2.865   5.025 -0.5391 -0.1578  0.2588
  118OSM   C16F12405   5.653   2.918   4.936 -0.1425 -0.1549  0.6952
  118OSM   H16F12406   5.622   2.939   5.041 -4.8740  0.9246 -0.6575
  118OSM   H16G12407   5.573   2.857   4.889  0.6578 -0.5326 -0.2048
  118OSM   C17F12408   5.667   3.049   4.855  0.3615 -0.7787 -0.0783
  118OSM   H17F12409   5.759   3.096   4.895  0.4496  1.2760 -2.4120
  118OSM   H17G12410   5.582   3.115   4.883  1.0341  0.7897 -1.5217
  118OSM   C18F12411   5.679   3.040   4.706  0.2236 -0.5468  0.4528
  118OSM   H18F12412   5.581   3.006   4.665 -0.2867 -0.2976  1.4477
  118OSM   H18G12413   5.764   2.972   4.686  0.0477 -0.8040  0.5668
  118OSM   H18H12414   5.716   3.140   4.677  1.7332 -0.0507  3.6837
  119OSM      N12415   6.254   5.547   7.071 -0.4140 -0.1004 -0.2510
  119OSM    C1512416   6.212   5.410   7.014 -0.3125 -0.1667 -0.1248
  119OSM   H15A12417   6.119   5.377   7.057 -0.6681 -1.4552 -1.7801
  119OSM   H15B12418   6.289   5.340   7.043 -0.7027  0.2270  2.0953
  119OSM   H15C12419   6.209   5.429   6.908  1.5184 -0.1712 -0.2194
  119OSM    C1412420   6.160   5.659   7.018  0.0971  0.1293  0.2977
  119OSM   H14A12421   6.195   5.671   6.916  1.8540 -4.7703  0.0725
  119OSM   H14B12422   6.178   5.750   7.074  2.8206  0.9772 -1.7152
  119OSM   H14C12423   6.057   5.627   7.022  0.3468 -1.1326 -1.7617
  119OSM    C1312424   6.246   5.534   7.221  0.0529 -0.1926 -0.1508
  119OSM   H13A12425   6.287   5.446   7.269  0.1033  1.1110  2.3480
  119OSM   H13B12426   6.141   5.539   7.249 -0.5576 -1.5313 -1.9882
  119OSM   H13C12427   6.303   5.609   7.273  1.2256 -1.9667  1.2703
  119OSM    C1212428   6.394   5.581   7.030  0.2385 -0.4144 -0.3816
  119OSM   H12A12429   6.462   5.516   7.084 -1.4416  0.4278  3.0244
  119OSM   H12B12430   6.416   5.671   7.084 -0.6813 -1.5442  2.0058
  119OSM    C1112431   6.423   5.586   6.883 -0.1312 -0.3345  0.8184
  119OSM   H11A12432   6.397   5.494   6.826  2.7898 -0.4034 -0.6041
  119OSM   H11B12433   6.533   5.585   6.873 -0.3013  0.1925 -1.9048
  119OSM      P12434   6.432   5.842   6.816 -0.2629 -0.3525 -0.5042
  119OSM    O1312435   6.350   5.940   6.748 -0.0506 -1.0052  0.2526
  119OSM    O1412436   6.478   5.885   6.953 -0.0007 -0.3738  0.0030
  119OSM    O1112437   6.564   5.812   6.732  0.0740  0.3962  0.2304
  119OSM    O1212438   6.358   5.698   6.824  0.0475  0.3954  0.2853
  119OSM    C1S12439   6.555   5.754   6.605  0.2093 -0.4673  0.5409
  119OSM    H1S12440   6.478   5.812   6.548  1.1737  0.7887  0.4769
  119OSM    H1T12441   6.537   5.646   6.620 -0.3762 -0.7630 -1.8371
  119OSM     NF12442   6.686   5.725   6.393  0.5071  0.3645  0.2132
  119OSM    HNF12443   6.719   5.634   6.369 -1.6851 -0.2807 -0.5966
  119OSM    C2S12444   6.697   5.766   6.534 -0.2600  0.3710 -0.2035
  119OSM    H2S12445   6.728   5.872   6.537 -0.4263  0.3976  0.9915
  119OSM    C3S12446   6.797   5.689   6.611 -0.2941  0.1108  0.0272
  119OSM    H3S12447   6.773   5.582   6.596  2.3757 -0.5303 -0.1098
  119OSM     O312448   6.790   5.685   6.759  0.2157 -0.0598  0.3332
  119OSM    HO312449   6.709   5.727   6.790  0.8287  0.4822  1.2515
  119OSM    C4S12450   6.938   5.710   6.552 -0.6649 -0.5719 -0.8320
  119OSM    H4S12451   6.961   5.650   6.462  0.6811 -0.1653 -0.7866
  119OSM    C5S12452   7.034   5.795   6.600  0.2769 -0.2915  0.8704
  119OSM    H5S12453   7.027   5.848   6.696 -0.9909 -0.5626  0.9465
  119OSM    C6S12454   7.160   5.840   6.529  0.5128 -0.3122  0.3334
  119OSM    H6S12455   7.178   5.950   6.530  1.1190 -0.4082  0.3330
  119OSM    H6T12456   7.176   5.811   6.423  1.8936  1.3615  0.0237
  119OSM    C7S12457   7.283   5.778   6.599  0.6856 -0.1775  0.4494
  119OSM    H7S12458   7.276   5.668   6.585 -1.1879 -0.2068  1.3705
  119OSM    H7T12459   7.280   5.799   6.708  2.0077 -0.3728  0.5421
  119OSM    C8S12460   7.425   5.830   6.561 -0.2367  0.0128  0.1486
  119OSM    H8S12461   7.495   5.790   6.638 -1.5184 -3.0993 -0.1260
  119OSM    H8T12462   7.442   5.939   6.569  2.1297  0.1255 -3.9915
  119OSM    C9S12463   7.482   5.782   6.418  0.5826  0.4982  0.0805
  119OSM    H9S12464   7.416   5.820   6.337 -2.0707 -1.7914  1.0202
  119OSM    H9T12465   7.497   5.672   6.417 -2.1324  0.0523  0.5719
  119OSM   C10S12466   7.634   5.836   6.412 -0.0196 -0.1040 -0.0627
  119OSM   H10S12467   7.691   5.803   6.501  1.1845  1.2179 -0.3037
  119OSM   H10T12468   7.627   5.947   6.409  2.7144  0.1212 -1.5488
  119OSM   C11S12469   7.700   5.778   6.290 -0.4355  0.2935  0.2767
  119OSM   H11S12470   7.639   5.790   6.199  1.2328 -0.8373 -1.0627
  119OSM   H11T12471   7.705   5.668   6.301  0.0130  0.1511 -1.1504
  119OSM   C12S12472   7.842   5.829   6.266  0.2823  0.1623  0.0214
  119OSM   H12S12473   7.897   5.777   6.347 -2.1929 -1.0979  1.0058
  119OSM   H12T12474   7.853   5.939   6.270 -1.9103  0.4021  0.8963
  119OSM   C13S12475   7.907   5.771   6.138 -0.4113 -0.0491  0.2892
  119OSM   H13S12476   7.883   5.663   6.126  0.8252 -0.3528  0.4149
  119OSM   H13T12477   8.018   5.776   6.140 -0.4176  0.0708  0.3239
  119OSM   C14S12478   7.863   5.851   6.011 -0.0372  0.0992 -0.3945
  119OSM   H14S12479   7.897   5.957   6.018 -0.4677  0.2946 -1.1611
  119OSM   H14T12480   7.753   5.845   6.007  0.0033 -0.2891 -0.9925
  119OSM   C15S12481   7.930   5.788   5.885 -0.0801  0.7750 -0.3178
  119OSM   H15S12482   7.910   5.679   5.891 -1.3063  1.0356  0.9761
  119OSM   H15T12483   8.039   5.809   5.878  0.0552  0.6623  1.0881
  119OSM   C16S12484   7.874   5.853   5.757 -0.1912  0.1559 -0.4049
  119OSM   H16S12485   7.943   5.935   5.727 -0.9542  1.2247  0.6661
  119OSM   H16T12486   7.774   5.895   5.779  0.9973  1.5485  2.8974
  119OSM   C17S12487   7.845   5.751   5.635 -0.0982 -1.0415  0.1415
  119OSM   H17S12488   7.778   5.673   5.677 -0.7600 -0.7102 -0.2786
  119OSM   H17T12489   7.936   5.696   5.604 -1.6569 -1.7360 -3.6956
  119OSM   C18S12490   7.802   5.830   5.507 -0.1724  0.0348  0.8183
  119OSM   H18S12491   7.715   5.893   5.533 -2.3362 -2.2826 -0.3878
  119OSM   H18T12492   7.773   5.765   5.421 -1.6561  1.1198  0.4618
  119OSM   H18U12493   7.879   5.903   5.474  0.8179 -0.6150  1.6248
  119OSM    C1F12494   6.607   5.791   6.312  0.2263 -0.5579  0.5877
  119OSM     OF12495   6.553   5.891   6.349  0.2742 -0.5782 -0.0555
  119OSM    C2F12496   6.601   5.745   6.170  0.1310 -0.4981  0.7711
  119OSM    H2F12497   6.528   5.662   6.160 -1.4226  1.0808 -2.6378
  119OSM    H2G12498   6.698   5.712   6.126 -0.1396  1.9228 -1.9454
  119OSM    C3F12499   6.563   5.855   6.077 -0.1935  0.1670 -0.3074
  119OSM    H3F12500   6.649   5.925   6.072 -0.7676  0.9557  0.5979
  119OSM    H3G12501   6.473   5.906   6.117  1.2378  2.7355 -0.1443
  119OSM    C4F12502   6.552   5.811   5.931 -0.5084  0.0391  0.3231
  119OSM    H4F12503   6.464   5.743   5.932  1.2215 -2.3691 -0.6269
  119OSM    H4G12504   6.637   5.747   5.900 -0.7005 -1.0959  1.9700
  119OSM    C5F12505   6.555   5.931   5.828 -0.1717  0.6206 -0.2280
  119OSM    H5F12506   6.645   5.995   5.835  1.7632 -2.0865  2.4891
  119OSM    H5G12507   6.474   5.999   5.861  0.1873  1.6664 -1.4274
  119OSM    C6F12508   6.531   5.879   5.685  0.3751  0.4467  0.0102
  119OSM    H6F12509   6.449   5.804   5.685 -0.8725  1.6305  3.1177
  119OSM    H6G12510   6.623   5.822   5.660 -0.8689 -0.8536 -1.8339
  119OSM    C7F12511   6.518   5.992   5.575 -0.5621 -0.3583  0.0252
  119OSM    H7F12512   6.601   6.059   5.606  0.8360 -2.5538  1.3700
  119OSM    H7G12513   6.425   6.051   5.590  0.6324  1.0415  2.7298
  119OSM    C8F12514   6.543   5.936   5.438 -1.0893  0.6105  0.6901
  119OSM    H8F12515   6.636   5.875   5.441 -2.3524 -1.5350 -0.7826
  119OSM    H8G12516   6.565   6.011   5.358  1.2341 -1.4675 -0.7775
  119OSM    C9F12517   6.422   5.850   5.403 -0.4977  0.4423  0.1593
  119OSM    H9F12518   6.397   5.762   5.464 -0.8471 -0.1631 -0.8450
  119OSM   C10F12519   6.348   5.852   5.287  0.2543  0.0396 -0.4937
  119OSM   H10F12520   6.269   5.776   5.276  0.7217 -0.1623 -3.1106
  119OSM   C11F12521   6.351   5.946   5.165 -0.7746 -0.0442 -0.0081
  119OSM   H11F12522   6.456   5.979   5.154 -0.7579 -0.6681 -2.3267
  119OSM   H11G12523   6.288   6.035   5.187 -1.6562 -0.8624  0.8690
  119OSM   C12F12524   6.309   5.906   5.025  0.4041  0.6729  0.1720
  119OSM   H12F12525   6.336   5.799   5.017  1.2569  0.7108  1.9916
  119OSM   H12G12526   6.376   5.968   4.961  0.7160  1.2816  1.0681
  119OSM   C13F12527   6.160   5.930   4.992  0.2496 -0.1225  0.2988
  119OSM   H13F12528   6.153   6.041   4.999  0.0110 -0.0427 -0.9427
  119OSM   H13G12529   6.097   5.883   5.070 -0.2498  0.2853  0.1483
  119OSM   C14F12530   6.133   5.877   4.852  0.2637 -0.3465  0.4490
  119OSM   H14F12531   6.128   5.767   4.858 -0.0540 -0.3356  0.3785
  119OSM   H14G12532   6.222   5.908   4.792  0.8522 -1.0974  0.9095
  119OSM   C15F12533   5.993   5.913   4.793 -0.5971 -0.2845 -0.2933
  119OSM   H15F12534   5.990   6.023   4.777 -0.2319 -0.3253 -0.6716
  119OSM   H15G12535   5.920   5.886   4.872  0.8683 -0.3496  1.0987
  119OSM   C16F12536   5.962   5.837   4.657 -0.3595 -1.0184 -0.3821
  119OSM   H16F12537   5.948   5.730   4.684  2.1717 -1.1738  0.6233
  119OSM   H16G12538   6.057   5.847   4.601 -0.0773 -0.6030  0.1614
  119OSM   C17F12539   5.848   5.898   4.579 -0.4180  0.1098 -0.0919
  119OSM   H17F12540   5.825   5.845   4.485 -4.4812 -2.0456  1.8542
  119OSM   H17G12541   5.877   5.999   4.543  0.5837  0.8191  2.4630
  119OSM   C18F12542   5.717   5.913   4.657  1.2076 -0.6564 -0.2711
  119OSM   H18F12543   5.684   5.813   4.691 -2.2964  0.0775 -1.1638
  119OSM   H18G12544   5.630   5.947   4.597  0.6415 -0.9176  0.3930
  119OSM   H18H12545   5.720   5.983   4.743  0.1638 -0.9728  0.0287
  120OSM      N12546   2.054   5.939   7.127  0.0783 -0.6827  0.7708
  120OSM    C1512547   1.912   5.913   7.186 -0.2652  0.3692  0.2501
  120OSM   H15A12548   1.893   5.808   7.171  0.6484  0.3608 -1.0560
  120OSM   H15B12549   1.841   5.967   7.125 -1.0456 -1.3623 -0.4207
  120OSM   H15C12550   1.908   5.939   7.291  2.8795  1.2722  0.2461
  120OSM    C1412551   2.070   6.086   7.132 -0.1407  0.1248  0.7476
  120OSM   H14A12552   2.166   6.123   7.098  0.0253  1.3991  2.4909
  120OSM   H14B12553   2.047   6.132   7.227 -1.5054  2.2901 -0.5467
  120OSM   H14C12554   1.997   6.131   7.067 -0.4848 -0.2805  0.8448
  120OSM    C1312555   2.155   5.878   7.219  0.0929 -0.0851  0.6739
  120OSM   H13A12556   2.156   5.939   7.308  0.9330  0.5328  0.2562
  120OSM   H13B12557   2.248   5.899   7.169 -0.8384  0.5425 -0.8909
  120OSM   H13C12558   2.133   5.774   7.237 -0.6330  0.4171  3.0178
  120OSM    C1212559   2.066   5.879   6.993  0.6005  0.0875 -0.0850
  120OSM   H12A12560   1.992   5.924   6.929 -1.9229 -1.8578  1.3075
  120OSM   H12B12561   2.048   5.773   7.003  0.8215  0.1982  1.7350
  120OSM    C1112562   2.204   5.900   6.922  0.6490 -0.7081 -0.4133
  120OSM   H11A12563   2.215   6.009   6.908  0.8756 -0.9357 -2.1847
  120OSM   H11B12564   2.185   5.859   6.821  0.4106 -2.6166  0.3558
  120OSM      P12565   2.332   5.687   6.977 -0.0889  0.2116 -0.1552
  120OSM    O1312566   2.454   5.662   7.050  0.5023 -0.6410 -0.5432
  120OSM    O1412567   2.204   5.620   7.019  0.2210 -0.6782 -0.1498
  120OSM    O1112568   2.356   5.650   6.831 -0.4634 -0.8769 -0.6132
  120OSM    O1212569   2.322   5.842   6.983 -0.2014  0.3656 -0.2029
  120OSM    C1S12570   2.474   5.677   6.761  0.4420 -0.8452  0.8450
  120OSM    H1S12571   2.548   5.599   6.790  1.7642  0.8999  2.4440
  120OSM    H1T12572   2.521   5.774   6.789 -1.0594 -0.3722  1.8340
  120OSM     NF12573   2.567   5.729   6.543  0.2029  0.0362 -0.5715
  120OSM    HNF12574   2.583   5.826   6.528  1.1535  0.0967  0.6300
  120OSM    C2S12575   2.454   5.674   6.611 -0.0094  0.2431 -0.6423
  120OSM    H2S12576   2.450   5.566   6.586  3.3956 -0.4034  0.9467
  120OSM    C3S12577   2.316   5.728   6.565 -1.0473  0.0509 -0.6262
  120OSM    H3S12578   2.311   5.839   6.574 -0.0310  0.1409 -1.0752
  120OSM     O312579   2.199   5.674   6.633  0.0525 -0.3686  0.2326
  120OSM    HO312580   2.230   5.640   6.717 -2.1338 -0.0282  1.2585
  120OSM    C4S12581   2.297   5.701   6.421  0.1278 -0.4371 -0.0563
  120OSM    H4S12582   2.271   5.595   6.406 -0.9233 -0.1612 -0.3098
  120OSM    C5S12583   2.286   5.793   6.322 -0.3468  0.6420  1.2501
  120OSM    H5S12584   2.304   5.897   6.352 -1.7161  1.3229 -0.1353
  120OSM    C6S12585   2.263   5.764   6.172 -0.0453 -0.4250 -0.2895
  120OSM    H6S12586   2.230   5.855   6.119  2.0309  0.4531 -0.1750
  120OSM    H6T12587   2.191   5.680   6.157  0.9082 -1.4439  0.5871
  120OSM    C7S12588   2.392   5.716   6.103  0.6154 -0.0809 -0.2359
  120OSM    H7S12589   2.437   5.630   6.156  0.5266  0.0616  0.0696
  120OSM    H7T12590   2.469   5.796   6.106 -0.0508  0.5309  1.8566
  120OSM    C8S12591   2.373   5.677   5.958 -0.0216  0.1723  0.0517
  120OSM    H8S12592   2.298   5.739   5.905  0.7929 -0.1912 -1.5886
  120OSM    H8T12593   2.320   5.579   5.959 -0.1419  0.2230 -0.8375
  120OSM    C9S12594   2.509   5.669   5.888  0.2867  0.4860  0.3716
  120OSM    H9S12595   2.591   5.627   5.951  0.9099 -2.3159 -2.0472
  120OSM    H9T12596   2.546   5.767   5.852  0.7258 -0.5513 -2.3242
  120OSM   C10S12597   2.493   5.574   5.762 -0.6796 -0.2529  0.0584
  120OSM   H10S12598   2.487   5.469   5.799  2.9018 -1.4418 -2.2117
  120OSM   H10T12599   2.592   5.573   5.712  0.6064 -0.2628  2.4970
  120OSM   C11S12600   2.388   5.607   5.661  0.5771  0.6404 -0.1384
  120OSM   H11S12601   2.398   5.713   5.631 -0.8518  0.3140 -1.9006
  120OSM   H11T12602   2.286   5.601   5.704  1.3206 -0.5209  1.5832
  120OSM   C12S12603   2.393   5.523   5.535  0.0047  0.2617 -0.3619
  120OSM   H12S12604   2.375   5.420   5.572 -1.0360  0.8066  0.7200
  120OSM   H12T12605   2.489   5.534   5.480  0.2566  1.2424  0.2533
  120OSM   C13S12606   2.278   5.560   5.435  0.3211 -0.0311 -0.2004
  120OSM   H13S12607   2.303   5.658   5.389  0.7112  0.6820  1.4787
  120OSM   H13T12608   2.184   5.580   5.491 -0.3333 -0.5481 -1.0737
  120OSM   C14S12609   2.264   5.455   5.324  0.1518 -0.0723 -0.4210
  120OSM   H14S12610   2.247   5.353   5.366 -0.8743  0.6870  1.1049
  120OSM   H14T12611   2.366   5.444   5.280  0.5885 -1.8706  0.9078
  120OSM   C15S12612   2.152   5.471   5.229  0.1031 -0.3999 -0.0448
  120OSM   H15S12613   2.051   5.472   5.276  0.4194 -1.8122  0.6973
  120OSM   H15T12614   2.157   5.387   5.158  1.6513  0.5624 -1.1333
  120OSM   C16S12615   2.157   5.591   5.133 -0.0415 -0.2843  0.1562
  120OSM   H16S12616   2.251   5.576   5.075  0.0609 -1.4436  0.6068
  120OSM   H16T12617   2.168   5.682   5.197 -0.3864  2.1420 -2.9537
  120OSM   C17S12618   2.024   5.620   5.058  1.2481  0.5138 -0.6982
  120OSM   H17S12619   2.023   5.724   5.019  0.1882 -0.1615 -2.5474
  120OSM   H17T12620   1.952   5.614   5.143  2.5522  0.4301  0.4540
  120OSM   C18S12621   1.980   5.519   4.950  0.1536 -0.1647  0.0454
  120OSM   H18S12622   2.043   5.428   4.961  0.6103 -0.0890 -1.7374
  120OSM   H18T12623   2.001   5.552   4.846  1.0098  1.6293  0.7484
  120OSM   H18U12624   1.875   5.486   4.960 -0.0818  0.7756  0.7897
  120OSM    C1F12625   2.689   5.664   6.550  0.7958  0.1824 -0.2849
  120OSM     OF12626   2.679   5.547   6.591  0.4095 -0.5578  0.2727
  120OSM    C2F12627   2.818   5.732   6.503  0.6280  0.9810 -0.2688
  120OSM    H2F12628   2.873   5.755   6.597  2.4740 -1.1027 -0.7374
  120OSM    H2G12629   2.789   5.822   6.446  1.0078  0.3403 -1.5203
  120OSM    C3F12630   2.903   5.632   6.411  0.0215 -0.1260 -0.4176
  120OSM    H3F12631   2.918   5.531   6.454  4.0548 -0.7475 -2.7673
  120OSM    H3G12632   3.006   5.671   6.422  0.2597 -0.5902 -0.9560
  120OSM    C4F12633   2.850   5.636   6.268  0.4430 -0.9223 -1.3478
  120OSM    H4F12634   2.864   5.737   6.224 -0.2053 -0.1689  0.0909
  120OSM    H4G12635   2.739   5.639   6.263  0.1108 -1.1055  2.4574
  120OSM    C5F12636   2.898   5.521   6.186 -0.3151  0.2705  0.0929
  120OSM    H5F12637   2.858   5.429   6.234 -3.1143  1.3669  0.0268
  120OSM    H5G12638   3.009   5.508   6.187 -0.4669 -1.2895 -0.4624
  120OSM    C6F12639   2.857   5.536   6.033  0.0307  0.4551 -0.0707
  120OSM    H6F12640   2.889   5.632   5.987 -2.2377  1.8070  1.0233
  120OSM    H6G12641   2.746   5.536   6.037  0.0385  0.0210  0.2852
  120OSM    C7F12642   2.896   5.414   5.948 -0.0716 -1.0140  0.4613
  120OSM    H7F12643   2.833   5.330   5.983  0.3473 -1.5398 -0.0351
  120OSM    H7G12644   3.001   5.389   5.975 -0.3268  0.0959  2.6871
  120OSM    C8F12645   2.873   5.439   5.796  0.0503  0.4114  0.4470
  120OSM    H8F12646   2.916   5.536   5.767  1.4723 -0.4851 -0.5630
  120OSM    H8G12647   2.765   5.444   5.769  0.4314  0.0311 -1.2785
  120OSM    C9F12648   2.944   5.338   5.717  0.0508  0.2157 -0.3282
  120OSM    H9F12649   3.048   5.331   5.752  0.4670  1.1074 -1.3115
  120OSM   C10F12650   2.900   5.260   5.617 -0.4602 -0.4642  0.6884
  120OSM   H10F12651   2.968   5.186   5.573  1.0321  1.9009 -1.2325
  120OSM   C11F12652   2.753   5.253   5.579 -0.5875 -0.4854  0.2124
  120OSM   H11F12653   2.692   5.290   5.664  0.5208  1.0306  0.3898
  120OSM   H11G12654   2.714   5.153   5.550 -0.0175 -0.0977 -2.0869
  120OSM   C12F12655   2.715   5.342   5.454 -0.4253 -0.3202  0.1962
  120OSM   H12F12656   2.747   5.445   5.478 -0.4069  0.0202 -1.2294
  120OSM   H12G12657   2.605   5.347   5.435 -0.4763  1.5349  0.8540
  120OSM   C13F12658   2.794   5.317   5.333  0.0407  0.6645 -0.8018
  120OSM   H13F12659   2.776   5.211   5.303  0.4829  0.1940  0.5156
  120OSM   H13G12660   2.901   5.333   5.356 -0.0179  1.6768 -1.1745
  120OSM   C14F12661   2.770   5.406   5.211 -0.1044 -0.0874  0.1251
  120OSM   H14F12662   2.786   5.512   5.241 -1.1823 -0.2739  1.4575
  120OSM   H14G12663   2.661   5.394   5.191 -0.0462  1.1119 -1.0408
  120OSM   C15F12664   2.852   5.362   5.091  0.5993  0.6272 -0.4894
  120OSM   H15F12665   2.851   5.251   5.090 -1.2277  0.6162 -0.6579
  120OSM   H15G12666   2.957   5.398   5.100  0.9015 -0.6586  2.4203
  120OSM   C16F12667   2.793   5.404   4.956 -0.4632  0.0800 -0.4784
  120OSM   H16F12668   2.768   5.512   4.947 -3.0003 -0.3530  0.6088
  120OSM   H16G12669   2.700   5.347   4.934  0.7725 -1.0622 -3.2500
  120OSM   C17F12670   2.885   5.369   4.842 -0.0845  0.3652  0.1896
  120OSM   H17F12671   2.911   5.261   4.847 -2.0881 -0.3183 -2.1357
  120OSM   H17G12672   2.977   5.432   4.838 -0.5335  0.9787 -2.4989
  120OSM   C18F12673   2.818   5.395   4.699  0.4134  0.0591  0.4911
  120OSM   H18F12674   2.880   5.365   4.612 -0.4265 -1.4963  0.3987
  120OSM   H18G12675   2.807   5.505   4.695 -1.1757  0.0931  3.3719
  120OSM   H18H12676   2.716   5.350   4.691 -0.2470  1.6092 -0.3148
  121OSM      N12677   0.582   1.087   6.871  0.2065 -0.5134 -0.1438
  121OSM    C1512678   0.492   1.105   6.986 -0.2247  0.3839  0.5103
  121OSM   H15A12679   0.539   1.100   7.083 -0.1297 -0.6962  0.4243
  121OSM   H15B12680   0.419   1.027   6.972 -1.6267  1.5004  1.3993
  121OSM   H15C12681   0.432   1.193   6.971  1.7861  2.1888  2.3621
  121OSM    C1412682   0.691   1.192   6.879  0.0204 -0.5689 -0.2458
  121OSM   H14A12683   0.658   1.294   6.869  0.8349 -0.2427  0.2640
  121OSM   H14B12684   0.764   1.178   6.800  0.7346  1.7405 -0.0753
  121OSM   H14C12685   0.746   1.187   6.972  0.0279  0.1024 -0.2145
  121OSM    C1312686   0.653   0.962   6.892 -0.1004  0.7323 -0.1075
  121OSM   H13A12687   0.722   0.953   6.810  0.6854 -0.8798  0.6796
  121OSM   H13B12688   0.596   0.871   6.891  0.3214  0.4649 -1.1885
  121OSM   H13C12689   0.707   0.966   6.986 -1.4475  2.8640  0.6632
  121OSM    C1212690   0.499   1.080   6.738  0.0358  0.0080  0.1912
  121OSM   H12A12691   0.564   1.031   6.666  1.3931  2.1488 -0.1320
  121OSM   H12B12692   0.484   1.186   6.723  2.2557  0.3020 -0.2829
  121OSM    C1112693   0.356   1.013   6.730  0.5856 -0.4694 -0.3580
  121OSM   H11A12694   0.359   0.912   6.777 -0.4528 -0.9416 -1.2561
  121OSM   H11B12695   0.329   0.992   6.624 -0.3007 -0.0311 -0.2333
  121OSM      P12696   0.108   1.061   6.815  0.1948 -0.2408  0.3753
  121OSM    O1312697   0.099   0.939   6.901 -0.0704 -0.4322 -0.4502
  121OSM    O1412698   0.028   1.183   6.859  0.6166  0.3763 -0.5602
  121OSM    O1112699   0.064   1.022   6.663  0.4851 -0.4908 -0.1618
  121OSM    O1212700   0.261   1.097   6.799 -0.3828  0.3189  0.9441
  121OSM    C1S12701   0.048   1.118   6.556  0.0357  0.8690  0.7248
  121OSM    H1S12702   0.080   1.222   6.577  1.2345  1.0924 -1.8508
  121OSM    H1T12703  -0.059   1.110   6.527 -0.4574  0.8432  2.4252
  121OSM     NF12704   0.066   1.147   6.309  0.0290  0.1509  0.1967
  121OSM    HNF12705   0.023   1.096   6.235 -0.6807 -0.4943  1.0416
  121OSM    C2S12706   0.124   1.076   6.424  0.4462 -0.5245 -0.6195
  121OSM    H2S12707   0.231   1.104   6.436  0.2832 -0.1513  0.0206
  121OSM    C3S12708   0.133   0.927   6.391 -0.2351 -0.8347 -0.6627
  121OSM    H3S12709   0.032   0.893   6.361 -0.8729  0.3228  0.1029
  121OSM     O312710   0.163   0.845   6.500 -0.2753  0.1942  0.2347
  121OSM    HO312711   0.135   0.903   6.572 -0.0837  0.4818  0.0766
  121OSM    C4S12712   0.244   0.909   6.284  0.9070  0.1987  0.3185
  121OSM    H4S12713   0.205   0.918   6.181  1.1952  0.9629  0.2636
  121OSM    C5S12714   0.375   0.885   6.294  0.1474  0.2567 -0.4288
  121OSM    H5S12715   0.411   0.868   6.397 -0.1932 -1.6962 -0.5838
  121OSM    C6S12716   0.474   0.865   6.178  1.2934 -0.3555  0.4784
  121OSM    H6S12717   0.514   0.762   6.185 -1.6142 -1.5667  0.5632
  121OSM    H6T12718   0.557   0.938   6.193  1.1476  0.2768 -1.4902
  121OSM    C7S12719   0.422   0.872   6.030 -0.3743 -0.2163  0.1861
  121OSM    H7S12720   0.372   0.968   6.009  0.2999  0.3887  1.2462
  121OSM    H7T12721   0.349   0.790   6.015 -0.0666 -0.7026  1.2458
  121OSM    C8S12722   0.544   0.839   5.930  0.7969  0.9973  0.2950
  121OSM    H8S12723   0.581   0.740   5.964  1.4478  0.2423 -2.4335
  121OSM    H8T12724   0.618   0.921   5.944  2.1809 -0.1784  0.0569
  121OSM    C9S12725   0.502   0.829   5.783 -0.3452 -0.3447  0.6418
  121OSM    H9S12726   0.444   0.919   5.756 -0.8824 -0.3770  1.6597
  121OSM    H9T12727   0.440   0.737   5.773 -1.3056  0.3484  0.1571
  121OSM   C10S12728   0.619   0.817   5.691 -0.0596  0.2847  0.6705
  121OSM   H10S12729   0.676   0.722   5.686 -1.6881 -0.6278 -1.9954
  121OSM   H10T12730   0.686   0.901   5.720  1.6421 -0.8068  0.1033
  121OSM   C11S12731   0.565   0.833   5.547  0.2277  0.1674  0.0904
  121OSM   H11S12732   0.518   0.933   5.537 -0.7210 -0.4009 -1.6393
  121OSM   H11T12733   0.479   0.764   5.530  0.1122  0.6741 -1.5777
  121OSM   C12S12734   0.657   0.805   5.422 -0.3115  0.4400 -0.3969
  121OSM   H12S12735   0.672   0.696   5.413  0.1871  0.5410 -0.8245
  121OSM   H12T12736   0.754   0.851   5.451 -1.0743  1.6770  0.2854
  121OSM   C13S12737   0.605   0.862   5.291  0.0898 -0.0913 -0.5464
  121OSM   H13S12738   0.598   0.971   5.311 -1.3077 -0.7359  3.4327
  121OSM   H13T12739   0.505   0.824   5.259  0.0381  0.8923 -1.6091
  121OSM   C14S12740   0.710   0.832   5.182 -0.1511 -0.6761 -0.8047
  121OSM   H14S12741   0.728   0.726   5.156 -0.1984 -0.5934 -1.1816
  121OSM   H14T12742   0.804   0.866   5.230 -0.2208 -0.9310 -0.4793
  121OSM   C15S12743   0.693   0.901   5.049  0.0158 -0.4650  0.0362
  121OSM   H15S12744   0.686   1.012   5.061 -2.8361 -0.6508  0.8242
  121OSM   H15T12745   0.607   0.872   4.986  1.2207  2.4636 -3.3230
  121OSM   C16S12746   0.812   0.875   4.945  0.1684  0.3990 -1.5171
  121OSM   H16S12747   0.905   0.863   5.005  0.4268  0.6483 -1.8688
  121OSM   H16T12748   0.830   0.969   4.890  1.4983  1.1754  0.1437
  121OSM   C17S12749   0.792   0.755   4.847  0.5216 -0.9689  0.2873
  121OSM   H17S12750   0.705   0.763   4.779  0.4293 -3.4188  0.0150
  121OSM   H17T12751   0.778   0.663   4.908 -0.3209 -0.7289  0.4598
  121OSM   C18S12752   0.917   0.750   4.756 -0.4981  0.2130  0.7051
  121OSM   H18S12753   0.930   0.847   4.703  0.6837  1.3150  2.8867
  121OSM   H18T12754   0.905   0.663   4.688 -1.2218  0.1670  0.8873
  121OSM   H18U12755   1.010   0.735   4.816 -0.5898  0.9970  1.0541
  121OSM    C1F12756   0.075   1.282   6.300  0.2982 -0.0927  0.0562
  121OSM     OF12757   0.139   1.341   6.391  0.0003  0.5640  0.6438
  121OSM    C2F12758   0.007   1.345   6.185 -0.2182  0.2848 -0.5068
  121OSM    H2F12759  -0.103   1.345   6.198 -0.1246  1.8707  0.5094
  121OSM    H2G12760   0.051   1.282   6.105  1.7230 -1.5870  1.8746
  121OSM    C3F12761   0.054   1.495   6.176  0.4096 -0.1941 -0.1593
  121OSM    H3F12762   0.164   1.499   6.187  0.3648  1.5598 -0.1982
  121OSM    H3G12763   0.014   1.555   6.260 -0.2142 -1.1054  0.2119
  121OSM    C4F12764   0.001   1.565   6.045  0.1045 -0.1965  0.2695
  121OSM    H4F12765   0.059   1.659   6.036 -2.0602  1.2516  0.7484
  121OSM    H4G12766  -0.106   1.593   6.034  0.7850  1.6778 -2.6507
  121OSM    C5F12767   0.035   1.488   5.913  0.6000 -0.4147 -1.3089
  121OSM    H5F12768  -0.014   1.387   5.912  0.7791 -0.4971 -1.8694
  121OSM    H5G12769   0.145   1.471   5.915  0.9289  1.5495 -0.6112
  121OSM    C6F12770  -0.013   1.567   5.794  0.6802 -0.1853  0.2271
  121OSM    H6F12771   0.052   1.656   5.780 -1.6803  1.3111 -2.2754
  121OSM    H6G12772  -0.112   1.612   5.814  0.6856  0.8471 -1.7585
  121OSM    C7F12773  -0.015   1.487   5.659  0.4640 -0.5279  0.0943
  121OSM    H7F12774  -0.086   1.403   5.680  0.9217 -0.4802  2.0044
  121OSM    H7G12775   0.086   1.442   5.648  0.5368 -0.6831  1.2716
  121OSM    C8F12776  -0.061   1.575   5.540  0.3092 -0.0923 -0.0844
  121OSM    H8F12777   0.026   1.637   5.510  0.9666 -1.0294 -0.1530
  121OSM    H8G12778  -0.154   1.630   5.567  0.0091  0.5079 -2.1648
  121OSM    C9F12779  -0.107   1.489   5.425 -0.1433 -0.1000 -0.1069
  121OSM    H9F12780  -0.162   1.399   5.456 -0.2375  0.2907  0.8987
  121OSM   C10F12781  -0.079   1.514   5.301 -1.2486  0.2514 -0.2004
  121OSM   H10F12782  -0.128   1.450   5.226 -0.0855  0.4096 -1.1129
  121OSM   C11F12783   0.000   1.627   5.234 -0.5755  0.2329  0.1736
  121OSM   H11F12784   0.051   1.697   5.304 -0.6149  0.1729  0.2640
  121OSM   H11G12785  -0.072   1.690   5.179  0.5154  0.8128 -0.6289
  121OSM   C12F12786   0.121   1.569   5.155  0.0774  0.1134  0.4385
  121OSM   H12F12787   0.192   1.509   5.215  1.6335  1.0091 -0.4476
  121OSM   H12G12788   0.174   1.663   5.129 -0.3258 -0.4817 -2.9126
  121OSM   C13F12789   0.090   1.510   5.014 -0.6941 -0.3833  0.3441
  121OSM   H13F12790   0.029   1.418   5.019 -1.1010 -0.0932  0.8561
  121OSM   H13G12791   0.182   1.476   4.961  0.2694 -1.8613  2.7991
  121OSM   C14F12792   0.009   1.597   4.923 -0.3621  0.0105 -0.2312
  121OSM   H14F12793  -0.089   1.621   4.970 -1.0418 -1.2431 -0.9846
  121OSM   H14G12794  -0.012   1.556   4.822 -2.5895 -0.0841  0.2187
  121OSM   C15F12795   0.060   1.739   4.894 -0.3021  0.1246  1.0154
  121OSM   H15F12796   0.167   1.725   4.868 -0.2121  2.4427 -0.0666
  121OSM   H15G12797   0.048   1.789   4.992  0.2849 -0.2460  1.2814
  121OSM   C16F12798  -0.018   1.811   4.789 -0.2900 -0.2393 -0.2626
  121OSM   H16F12799  -0.022   1.744   4.701 -0.4688 -0.7493  0.1227
  121OSM   H16G12800   0.043   1.900   4.765  0.1765 -0.7252 -0.9039
  121OSM   C17F12801  -0.161   1.853   4.835 -0.8057 -0.5288  0.5104
  121OSM   H17F12802  -0.155   1.869   4.945 -1.1873  1.0728  0.3205
  121OSM   H17G12803  -0.215   1.756   4.827  0.7129 -1.5655  2.0550
  121OSM   C18F12804  -0.217   1.970   4.754 -0.3306  0.1979  0.0361
  121OSM   H18F12805  -0.264   1.934   4.660  1.7973 -2.8547 -0.0168
  121OSM   H18G12806  -0.134   2.041   4.733 -1.3147  1.4679  0.3183
  121OSM   H18H12807  -0.286   2.028   4.819 -0.4503 -1.1972  1.1990
  122OSM      N12808   4.650   5.866   7.457 -0.4695  0.6614  0.4771
  122OSM    C1512809   4.682   6.005   7.488  0.2369  0.1689  0.8069
  122OSM   H15A12810   4.642   6.032   7.585 -0.2929  1.7575  0.1646
  122OSM   H15B12811   4.636   6.069   7.415 -0.0976 -1.4497 -0.4635
  122OSM   H15C12812   4.789   6.008   7.480  0.1794 -1.2333 -1.4197
  122OSM    C1412813   4.709   5.770   7.551  0.0740  0.6347 -0.2649
  122OSM   H14A12814   4.669   5.672   7.529  1.0429  0.1194  0.1754
  122OSM   H14B12815   4.666   5.791   7.648  0.1705 -1.2556  0.2393
  122OSM   H14C12816   4.816   5.751   7.553  0.1437  0.8476 -1.2533
  122OSM    C1312817   4.507   5.834   7.455 -0.2371  0.3504  0.5972
  122OSM   H13A12818   4.497   5.737   7.409  0.5592  1.0086 -1.0631
  122OSM   H13B12819   4.463   5.900   7.382  1.9042 -0.3442 -1.4617
  122OSM   H13C12820   4.458   5.830   7.551 -0.9700  0.1635  0.2249
  122OSM    C1212821   4.710   5.821   7.316  0.0293 -0.1754 -0.4880
  122OSM   H12A12822   4.682   5.719   7.294 -0.5608 -0.0262 -0.4416
  122OSM   H12B12823   4.817   5.829   7.327  0.0532 -1.6091  0.7398
  122OSM    C1112824   4.663   5.894   7.189  0.4119 -0.1904  0.9302
  122OSM   H11A12825   4.723   5.859   7.102 -0.7053  1.1386 -0.4458
  122OSM   H11B12826   4.694   6.000   7.205 -1.5539  0.1758  2.8948
  122OSM      P12827   4.467   5.963   7.043 -0.2672  0.2579  0.0057
  122OSM    O1312828   4.360   5.880   6.982 -0.2065 -0.6152 -0.0590
  122OSM    O1412829   4.431   6.104   7.079 -0.6325  1.0713 -0.3603
  122OSM    O1112830   4.590   5.963   6.945 -0.0740 -0.1731  0.7613
  122OSM    O1212831   4.522   5.888   7.169  0.3554 -0.0718  0.1053
  122OSM    C1S12832   4.610   5.845   6.867 -0.0582  0.3852  0.2185
  122OSM    H1S12833   4.583   5.753   6.922  0.3694  1.6067  2.6196
  122OSM    H1T12834   4.719   5.838   6.847  0.1819 -0.6788  1.7491
  122OSM     NF12835   4.589   5.720   6.657  0.9194 -0.5116  0.1085
  122OSM    HNF12836   4.643   5.731   6.574  0.8711  0.8014  0.2323
  122OSM    C2S12837   4.543   5.844   6.724  0.0452 -0.1909 -0.4390
  122OSM    H2S12838   4.432   5.839   6.734 -0.3918  2.2522 -3.1179
  122OSM    C3S12839   4.577   5.966   6.642 -0.7813 -0.0152 -0.1253
  122OSM    H3S12840   4.685   5.974   6.619 -1.3166  2.0026 -2.3840
  122OSM     O312841   4.543   6.089   6.703 -0.0303  0.4951 -0.1834
  122OSM    HO312842   4.513   6.065   6.791 -0.6806 -0.4383 -0.6406
  122OSM    C4S12843   4.508   5.956   6.508 -0.1237 -0.6023  0.1992
  122OSM    H4S12844   4.552   5.884   6.438  1.4295 -1.2302  1.7483
  122OSM    C5S12845   4.396   6.024   6.460  1.1347  0.5115 -0.4067
  122OSM    H5S12846   4.339   6.077   6.538  0.2478 -2.2775  0.9572
  122OSM    C6S12847   4.327   5.998   6.327 -0.4374 -0.3470 -0.0378
  122OSM    H6S12848   4.294   6.089   6.273 -1.2032  0.0922  1.1455
  122OSM    H6T12849   4.222   5.967   6.345 -0.4834 -1.6586 -2.1561
  122OSM    C7S12850   4.393   5.907   6.223  0.3985 -0.6518 -0.3616
  122OSM    H7S12851   4.410   5.808   6.270 -2.4228 -0.8306  0.4253
  122OSM    H7T12852   4.491   5.949   6.191  0.3127 -1.7768 -2.1895
  122OSM    C8S12853   4.298   5.887   6.104  0.0013  0.0659 -0.4568
  122OSM    H8S12854   4.295   5.982   6.047 -1.6713  0.5018  0.2830
  122OSM    H8T12855   4.192   5.871   6.132  0.3729 -0.3559  0.7741
  122OSM    C9S12856   4.337   5.789   5.985  0.0901 -1.1216 -0.0179
  122OSM    H9S12857   4.338   5.688   6.033 -1.3766 -1.8915 -1.5244
  122OSM    H9T12858   4.445   5.804   5.961  0.5693  0.2591  2.6441
  122OSM   C10S12859   4.243   5.799   5.867  0.1281 -0.4031  0.1467
  122OSM   H10S12860   4.280   5.883   5.804 -0.6290 -0.9996 -1.1254
  122OSM   H10T12861   4.142   5.822   5.908  0.5703 -2.2464  2.5193
  122OSM   C11S12862   4.232   5.674   5.782  0.3293 -0.5184  0.4377
  122OSM   H11S12863   4.185   5.588   5.835 -0.0728 -1.6822 -1.7242
  122OSM   H11T12864   4.327   5.635   5.741 -0.0869 -0.5721 -0.5069
  122OSM   C12S12865   4.138   5.706   5.661 -0.2753 -0.1918 -0.7775
  122OSM   H12S12866   4.155   5.814   5.644 -0.0308 -0.1310 -0.1930
  122OSM   H12T12867   4.033   5.705   5.698 -0.3036  1.6650 -0.7370
  122OSM   C13S12868   4.179   5.638   5.534  0.1357  0.8999  0.1333
  122OSM   H13S12869   4.166   5.528   5.537 -1.8478  1.0076 -1.9978
  122OSM   H13T12870   4.289   5.647   5.519  0.1158 -2.0194 -2.6969
  122OSM   C14S12871   4.099   5.684   5.404 -0.1338  0.8908 -0.4632
  122OSM   H14S12872   4.134   5.789   5.396  1.3547  0.7807  2.8167
  122OSM   H14T12873   3.992   5.683   5.433  0.1988  3.2132  1.1496
  122OSM   C15S12874   4.126   5.606   5.276  0.0866  0.0107 -0.0287
  122OSM   H15S12875   4.124   5.496   5.290 -2.8285  0.0507  0.5185
  122OSM   H15T12876   4.229   5.626   5.240  0.2173 -0.2647  0.1846
  122OSM   C16S12877   4.032   5.638   5.165  0.1624 -0.5660  0.0110
  122OSM   H16S12878   4.054   5.741   5.129 -4.0347  1.2437  1.9181
  122OSM   H16T12879   3.928   5.632   5.204 -0.6026 -3.8702 -2.1888
  122OSM   C17S12880   4.031   5.530   5.058 -0.2585  0.2982 -0.6204
  122OSM   H17S12881   4.003   5.432   5.101  1.7059  0.8401  2.1458
  122OSM   H17T12882   4.135   5.513   5.021 -0.8038 -1.5011 -1.4109
  122OSM   C18S12883   3.938   5.573   4.943  0.2921  0.1593 -0.5687
  122OSM   H18S12884   3.833   5.594   4.975  0.4910 -0.0456  0.2286
  122OSM   H18T12885   3.913   5.489   4.875 -4.0972 -1.3007  2.3617
  122OSM   H18U12886   3.973   5.669   4.899  0.0963  0.8973  0.8118
  122OSM    C1F12887   4.571   5.598   6.709  0.3797 -0.2933  0.0750
  122OSM     OF12888   4.490   5.580   6.806  0.3720  0.3857  0.1810
  122OSM    C2F12889   4.660   5.486   6.657 -0.7919 -0.1796  0.2221
  122OSM    H2F12890   4.703   5.427   6.741  1.4965  0.5508 -0.3587
  122OSM    H2G12891   4.747   5.522   6.598 -1.7941  0.0011 -1.1929
  122OSM    C3F12892   4.595   5.368   6.576  0.0789 -0.3412 -0.5590
  122OSM    H3F12893   4.501   5.338   6.627 -0.1343 -2.5376 -2.1264
  122OSM    H3G12894   4.663   5.281   6.586  1.0615  0.1391 -2.3813
  122OSM    C4F12895   4.550   5.420   6.434  0.1846 -0.3424 -0.1127
  122OSM    H4F12896   4.641   5.454   6.381 -0.3723  1.0258 -0.2180
  122OSM    H4G12897   4.492   5.514   6.444  0.9091  0.0876  0.1069
  122OSM    C5F12898   4.464   5.330   6.358  0.3262  0.9520 -0.3956
  122OSM    H5F12899   4.387   5.273   6.415  1.4372 -0.4396 -0.2306
  122OSM    H5G12900   4.533   5.257   6.309  3.5124  2.6997  1.1712
  122OSM    C6F12901   4.397   5.408   6.238  0.0890 -0.7967  0.2617
  122OSM    H6F12902   4.470   5.478   6.193 -0.2026 -1.2253 -0.9091
  122OSM    H6G12903   4.308   5.461   6.280  1.9701  0.8423  2.4088
  122OSM    C7F12904   4.347   5.307   6.123 -0.0607 -0.2869  0.0249
  122OSM    H7F12905   4.254   5.257   6.156 -0.8721  1.3433  0.3303
  122OSM    H7G12906   4.426   5.230   6.109  0.0416 -0.1195 -0.3346
  122OSM    C8F12907   4.315   5.369   5.991 -0.7681  0.5135  0.5313
  122OSM    H8F12908   4.239   5.449   5.996 -0.2923  0.9936  0.1260
  122OSM    H8G12909   4.271   5.287   5.929 -1.0484  0.6950  0.4895
  122OSM    C9F12910   4.445   5.414   5.928  0.5736  0.5663  0.2975
  122OSM    H9F12911   4.496   5.485   5.995  0.6650 -0.4700  1.3597
  122OSM   C10F12912   4.505   5.372   5.810 -0.3830  0.4542 -0.0776
  122OSM   H10F12913   4.591   5.426   5.769 -0.8992  0.0819 -1.7306
  122OSM   C11F12914   4.449   5.277   5.705  0.5680  0.1106 -0.4789
  122OSM   H11F12915   4.340   5.256   5.711  0.3521  1.2650 -0.0297
  122OSM   H11G12916   4.497   5.177   5.707  0.6259  0.1407 -0.3566
  122OSM   C12F12917   4.457   5.338   5.562 -0.0592 -0.2832 -0.3623
  122OSM   H12F12918   4.562   5.361   5.533  0.0328  0.8446  0.7342
  122OSM   H12G12919   4.392   5.428   5.567  1.9890  1.2207  2.3807
  122OSM   C13F12920   4.392   5.256   5.454 -0.2713  1.3275  0.7167
  122OSM   H13F12921   4.283   5.235   5.459 -0.1134 -0.2869 -1.2454
  122OSM   H13G12922   4.446   5.162   5.428 -1.8780  1.4121 -3.8195
  122OSM   C14F12923   4.389   5.331   5.322  0.0284  0.0152 -0.2792
  122OSM   H14F12924   4.491   5.329   5.277  1.1384 -1.1926  2.1124
  122OSM   H14G12925   4.355   5.435   5.341  0.9961  0.2488  0.2631
  122OSM   C15F12926   4.289   5.274   5.219 -0.0658  0.3383 -0.1207
  122OSM   H15F12927   4.286   5.358   5.146  0.6786  1.6618  1.3245
  122OSM   H15G12928   4.189   5.260   5.266 -0.7631  0.0440 -1.6121
  122OSM   C16F12929   4.334   5.145   5.153  0.2736  0.3244 -0.2119
  122OSM   H16F12930   4.353   5.079   5.241  1.0260  1.3256  0.3918
  122OSM   H16G12931   4.429   5.147   5.095  0.3587 -1.6040 -0.2286
  122OSM   C17F12932   4.233   5.092   5.055  0.8851 -0.4815 -0.0046
  122OSM   H17F12933   4.284   5.009   5.003 -0.0192  0.8211 -3.2112
  122OSM   H17G12934   4.213   5.161   4.970  0.5981 -3.0266 -2.1309
  122OSM   C18F12935   4.095   5.035   5.107  0.1554  0.3189  0.0202
  122OSM   H18F12936   4.047   5.123   5.153  0.7102  1.0206 -0.7098
  122OSM   H18G12937   4.116   4.961   5.187  1.0042 -0.0544 -0.5271
  122OSM   H18H12938   4.030   4.984   5.032  0.8863  2.2422 -2.0496
  123OSM      N12939   3.811   5.525   2.530 -0.2627 -0.1565 -0.4225
  123OSM    C1512940   3.782   5.472   2.388  0.3057  0.7888 -0.0356
  123OSM   H15A12941   3.687   5.509   2.355  0.3160  1.5251  0.7285
  123OSM   H15B12942   3.779   5.364   2.387 -0.2177  0.7734 -2.3920
  123OSM   H15C12943   3.851   5.511   2.314  0.0098  0.4658 -0.4858
  123OSM    C1412944   3.834   5.668   2.518 -0.7660 -0.4584  0.2133
  123OSM   H14A12945   3.908   5.691   2.442 -0.0092 -1.5901  0.5824
  123OSM   H14B12946   3.883   5.708   2.605 -0.5194 -2.0134  0.8166
  123OSM   H14C12947   3.740   5.717   2.502 -0.6713 -0.1757  0.5092
  123OSM    C1312948   3.684   5.497   2.614  0.2335 -0.4369  0.2308
  123OSM   H13A12949   3.715   5.496   2.717  0.5589 -1.4439  0.1416
  123OSM   H13B12950   3.642   5.398   2.601 -0.4105 -0.2394  0.7809
  123OSM   H13C12951   3.601   5.562   2.594  0.6444 -0.5402 -2.1502
  123OSM    C1212952   3.938   5.457   2.578 -0.3007  0.4376  0.2967
  123OSM   H12A12953   4.013   5.469   2.501 -0.0498 -0.1292  0.4482
  123OSM   H12B12954   3.920   5.351   2.591 -2.6275  0.6648 -0.5275
  123OSM    C1112955   3.986   5.503   2.717  0.7716  0.4729 -0.5634
  123OSM   H11A12956   4.032   5.412   2.761 -2.6935 -1.2094 -0.0694
  123OSM   H11B12957   3.902   5.537   2.781  0.4222  1.8681 -1.7295
  123OSM      P12958   4.233   5.571   2.645  0.1031 -0.3977  0.1521
  123OSM    O1312959   4.216   5.497   2.523  0.0670 -0.6455 -0.2008
  123OSM    O1412960   4.314   5.691   2.644 -0.3236  0.6973 -0.1951
  123OSM    O1112961   4.292   5.459   2.737 -0.0737 -0.1372  0.5458
  123OSM    O1212962   4.083   5.602   2.710  0.1081  0.4184 -0.1108
  123OSM    C1S12963   4.316   5.474   2.876 -0.3369 -0.8498  0.3078
  123OSM    H1S12964   4.255   5.559   2.913  0.4520  0.1422 -0.6074
  123OSM    H1T12965   4.416   5.520   2.887  0.0662 -1.6074 -0.0475
  123OSM     NF12966   4.302   5.394   3.106 -0.0525  0.0318  0.7021
  123OSM    HNF12967   4.390   5.378   3.150 -0.2400 -1.5151  0.5594
  123OSM    C2S12968   4.293   5.351   2.962  0.4967 -0.0263 -0.4886
  123OSM    H2S12969   4.198   5.296   2.946  0.4620  0.1623 -0.9373
  123OSM    C3S12970   4.406   5.249   2.914  0.0192 -0.5016 -0.5991
  123OSM    H3S12971   4.505   5.297   2.926 -0.9588  1.9569 -1.7840
  123OSM     O312972   4.391   5.207   2.784 -0.1495  0.5382 -0.1042
  123OSM    HO312973   4.334   5.274   2.746 -1.4126 -1.0549 -1.1946
  123OSM    C4S12974   4.399   5.132   3.010  0.1467 -0.2067 -0.4406
  123OSM    H4S12975   4.303   5.079   3.003  0.1079  0.0112 -1.9174
  123OSM    C5S12976   4.506   5.096   3.091  0.1648  0.0812 -0.0893
  123OSM    H5S12977   4.605   5.141   3.079  0.4549 -0.2021  1.0945
  123OSM    C6S12978   4.507   4.989   3.191 -0.4886  0.1565  0.0919
  123OSM    H6S12979   4.604   4.992   3.245 -1.0262 -0.1805  1.1033
  123OSM    H6T12980   4.509   4.887   3.147 -0.4283 -0.6726  1.9484
  123OSM    C7S12981   4.391   4.992   3.291 -0.3660 -0.1888 -0.5814
  123OSM    H7S12982   4.295   4.963   3.241 -1.5759 -1.3190  2.1797
  123OSM    H7T12983   4.388   5.076   3.363 -1.6541 -2.4601  2.1975
  123OSM    C8S12984   4.401   4.878   3.397 -0.1853 -0.0381  0.8483
  123OSM    H8S12985   4.403   4.784   3.336 -0.0022  0.6853 -0.2885
  123OSM    H8T12986   4.310   4.876   3.460  0.4615 -2.3434  1.8237
  123OSM    C9S12987   4.521   4.880   3.490 -0.3215  0.7346  0.5501
  123OSM    H9S12988   4.617   4.882   3.435 -0.5013 -1.7123  0.0753
  123OSM    H9T12989   4.518   4.785   3.547  0.7839 -1.2210 -2.4356
  123OSM   C10S12990   4.529   4.993   3.585  0.0509 -0.8766 -0.5518
  123OSM   H10S12991   4.433   5.007   3.639  0.5375 -0.2536  0.1912
  123OSM   H10T12992   4.560   5.090   3.541  0.4238 -0.3524  0.8037
  123OSM   C11S12993   4.633   4.974   3.709 -0.1074  0.2031  0.0327
  123OSM   H11S12994   4.733   4.943   3.673 -0.0508  1.2789 -0.7558
  123OSM   H11T12995   4.579   4.897   3.769 -0.4488 -0.5963 -1.2542
  123OSM   C12S12996   4.640   5.094   3.797 -1.1979 -1.1441  0.1011
  123OSM   H12S12997   4.549   5.109   3.858  0.4575 -1.1923  2.7449
  123OSM   H12T12998   4.653   5.176   3.724  1.4058 -2.6240 -1.2234
  123OSM   C13S12999   4.761   5.097   3.893 -0.0113  0.5024  0.3666
  123OSM   H13S13000   4.850   5.143   3.845 -0.2720  0.9192  0.2712
  123OSM   H13T13001   4.788   4.997   3.931  0.6164  1.1820  1.7804
  123OSM   C14S13002   4.728   5.192   4.010  0.4966 -0.0722  0.7825
  123OSM   H14S13003   4.652   5.145   4.076 -0.4092  0.5087  0.1677
  123OSM   H14T13004   4.684   5.288   3.977 -0.9567 -1.6761 -2.3795
  123OSM   C15S13005   4.840   5.237   4.101 -0.9777  0.0748 -0.2639
  123OSM   H15S13006   4.903   5.313   4.051 -1.7643  0.1672 -1.1309
  123OSM   H15T13007   4.909   5.156   4.134 -1.6249 -0.1838  0.4877
  123OSM   C16S13008   4.791   5.303   4.232 -0.4733 -0.3609 -0.4201
  123OSM   H16S13009   4.693   5.261   4.263 -0.6041  0.4968  0.3629
  123OSM   H16T13010   4.768   5.411   4.216 -1.1971 -0.7342 -2.1574
  123OSM   C17S13011   4.899   5.298   4.345  0.3181  0.2947 -0.3427
  123OSM   H17S13012   4.896   5.193   4.379 -0.5487 -0.1207 -1.5955
  123OSM   H17T13013   4.851   5.361   4.423  0.5556 -1.5801  1.3960
  123OSM   C18S13014   5.036   5.358   4.311 -0.4684 -0.5868  0.0316
  123OSM   H18S13015   5.096   5.300   4.238  1.3527  1.9914 -0.6854
  123OSM   H18T13016   5.098   5.374   4.402  0.9265  0.7173 -1.0793
  123OSM   H18U13017   5.010   5.456   4.265  0.5256 -0.6572 -0.7061
  123OSM    C1F13018   4.200   5.460   3.162 -0.9794  0.4300  0.2858
  123OSM     OF13019   4.117   5.530   3.100 -0.4731 -0.2400  0.1917
  123OSM    C2F13020   4.193   5.469   3.310 -0.4639  0.3688  0.0689
  123OSM    H2F13021   4.146   5.562   3.348  0.7630  0.7515  0.6928
  123OSM    H2G13022   4.298   5.464   3.346 -0.0802 -1.7579 -1.1618
  123OSM    C3F13023   4.107   5.352   3.373  0.6042 -0.7018 -0.0758
  123OSM    H3F13024   4.150   5.258   3.332 -1.3550 -1.0890 -1.3857
  123OSM    H3G13025   3.997   5.363   3.366  0.7051  0.7813  0.3662
  123OSM    C4F13026   4.144   5.329   3.517  0.3782  0.4066 -0.4070
  123OSM    H4F13027   4.108   5.411   3.583 -1.0016 -1.4014  1.1664
  123OSM    H4G13028   4.255   5.332   3.523  0.3115  2.0003  0.5825
  123OSM    C5F13029   4.099   5.186   3.559 -0.2340  0.0045 -0.5001
  123OSM    H5F13030   4.172   5.117   3.512 -0.5978 -0.4889 -0.3501
  123OSM    H5G13031   3.999   5.170   3.515 -0.8333 -0.9965  1.1362
  123OSM    C6F13032   4.106   5.149   3.710  0.2284  0.3396 -0.0211
  123OSM    H6F13033   4.210   5.154   3.749 -0.4573 -0.5529  2.1181
  123OSM    H6G13034   4.084   5.040   3.704 -2.0547  0.6191  1.7008
  123OSM    C7F13035   3.999   5.216   3.796  1.2126  0.1167 -0.3826
  123OSM    H7F13036   3.902   5.221   3.742  1.2681 -2.2163 -0.7960
  123OSM    H7G13037   4.039   5.318   3.816  1.4702 -0.1584  0.5307
  123OSM    C8F13038   3.980   5.152   3.932 -0.0639  0.5459  0.3781
  123OSM    H8F13039   3.919   5.204   4.009  0.5965 -0.4864  1.6389
  123OSM    H8G13040   4.077   5.145   3.985  0.4803  0.1872 -0.6415
  123OSM    C9F13041   3.921   5.011   3.917 -0.0291  0.6710 -0.4960
  123OSM    H9F13042   3.909   4.975   3.814  0.5571  0.8696 -0.6401
  123OSM   C10F13043   3.870   4.945   4.026 -0.4646 -0.6410  0.1490
  123OSM   H10F13044   3.842   4.840   4.007  1.3897 -0.9822 -0.9977
  123OSM   C11F13045   3.875   4.981   4.170  0.1283 -0.4582  0.3747
  123OSM   H11F13046   3.781   5.011   4.221  1.6751  1.5733  2.2436
  123OSM   H11G13047   3.943   5.064   4.199  0.1067 -0.7907  1.4316
  123OSM   C12F13048   3.928   4.865   4.258  0.3333 -1.3376  0.5302
  123OSM   H12F13049   4.031   4.832   4.235 -0.0169 -3.8397  2.0837
  123OSM   H12G13050   3.866   4.775   4.236 -1.4002 -0.0175 -0.2096
  123OSM   C13F13051   3.911   4.903   4.405  0.1445  0.3332  0.1234
  123OSM   H13F13052   3.804   4.923   4.424 -0.6395 -1.1246 -2.3443
  123OSM   H13G13053   3.975   4.991   4.430 -0.6719  0.5679  1.4701
  123OSM   C14F13054   3.960   4.785   4.490 -0.1689 -0.0129  0.1096
  123OSM   H14F13055   4.064   4.750   4.472 -0.5848 -0.7371 -1.0228
  123OSM   H14G13056   3.890   4.700   4.471 -0.7176 -0.1587  2.4895
  123OSM   C15F13057   3.944   4.809   4.644 -0.4746 -0.4325 -0.2879
  123OSM   H15F13058   3.835   4.803   4.659 -0.0997  0.1946  3.5682
  123OSM   H15G13059   3.977   4.914   4.657 -1.8143  0.2181 -1.8108
  123OSM   C16F13060   4.025   4.705   4.726  0.7089 -0.0779 -0.1194
  123OSM   H16F13061   4.129   4.709   4.689 -0.0501  1.0792 -2.3276
  123OSM   H16G13062   3.980   4.612   4.686  2.1663 -0.1899 -1.5906
  123OSM   C17F13063   4.003   4.709   4.886 -0.0681 -0.8154  0.7301
  123OSM   H17F13064   4.037   4.809   4.922  0.1033 -0.2466 -0.9439
  123OSM   H17G13065   4.077   4.635   4.924  0.8512 -0.4932 -0.3756
  123OSM   C18F13066   3.856   4.688   4.923  0.0885  0.0599  0.0203
  123OSM   H18F13067   3.847   4.686   5.033  3.5322  0.6098  0.4122
  123OSM   H18G13068   3.813   4.591   4.890  1.5303 -0.1839 -1.2627
  123OSM   H18H13069   3.797   4.775   4.887 -0.8246  0.2178  1.8106
  124OSM      N13070   5.000   1.372   2.284 -0.8453  0.5305 -0.1383
  124OSM    C1513071   4.893   1.325   2.198  0.7212  0.2998 -0.1960
  124OSM   H15A13072   4.917   1.230   2.153 -0.0069 -0.2407  0.5365
  124OSM   H15B13073   4.858   1.390   2.119 -1.6009 -1.8826 -1.1167
  124OSM   H15C13074   4.801   1.318   2.252 -0.7499 -0.1323 -2.5981
  124OSM    C1413075   5.123   1.395   2.198  0.2676 -0.2582  0.7867
  124OSM   H14A13076   5.196   1.444   2.261  2.6866 -2.3284 -0.2117
  124OSM   H14B13077   5.094   1.464   2.120  0.2456 -0.2891  0.7675
  124OSM   H14C13078   5.158   1.300   2.159 -0.0644  0.0083 -0.1957
  124OSM    C1313079   4.968   1.503   2.349  0.3069 -0.9843 -0.0467
  124OSM   H13A13080   4.937   1.570   2.269 -2.2590  0.2596  1.8550
  124OSM   H13B13081   5.043   1.547   2.414 -1.1186  0.6359  0.5788
  124OSM   H13C13082   4.881   1.484   2.410  0.8076 -1.4860  0.5233
  124OSM    C1213083   5.035   1.284   2.397  0.1547 -0.8256 -0.0587
  124OSM   H12A13084   5.112   1.329   2.458 -0.9636  0.6142  0.3322
  124OSM   H12B13085   5.084   1.197   2.356  0.3354 -0.2928 -0.9863
  124OSM    C1113086   4.932   1.232   2.492  0.4818  0.3954  0.2007
  124OSM   H11A13087   4.976   1.182   2.580 -0.5523 -1.3186 -0.2112
  124OSM   H11B13088   4.878   1.153   2.435 -0.8082  2.0382 -0.9790
  124OSM      P13089   4.692   1.308   2.557 -0.3598  0.3620  0.1537
  124OSM    O1313090   4.616   1.435   2.547 -0.1666 -0.3502 -0.4056
  124OSM    O1413091   4.654   1.204   2.457  0.4156 -0.0298 -0.1765
  124OSM    O1113092   4.680   1.264   2.704  0.0067 -0.0348 -0.3189
  124OSM    O1213093   4.846   1.336   2.546  0.1878 -0.0835 -0.1310
  124OSM    C1S13094   4.766   1.321   2.804  0.0515 -0.2922 -0.6886
  124OSM    H1S13095   4.774   1.430   2.785 -2.6634  0.2437  0.6652
  124OSM    H1T13096   4.867   1.274   2.802  1.1787  1.9255  0.1471
  124OSM     NF13097   4.784   1.374   3.045 -0.0191 -0.1288  0.0458
  124OSM    HNF13098   4.842   1.321   3.107  2.9004  1.4032 -1.1689
  124OSM    C2S13099   4.709   1.297   2.948  0.1653 -0.2429 -0.6975
  124OSM    H2S13100   4.604   1.333   2.953  0.5709  0.9489 -0.5695
  124OSM    C3S13101   4.707   1.142   2.979 -0.3201 -0.1040  0.0764
  124OSM    H3S13102   4.812   1.106   2.987  0.2034  1.1490 -0.8661
  124OSM     O313103   4.654   1.064   2.872 -0.0959 -0.1921 -0.0693
  124OSM    HO313104   4.650   1.124   2.797  1.5296 -0.2567 -0.2468
  124OSM    C4S13105   4.638   1.105   3.115 -0.1485  0.2848 -0.2341
  124OSM    H4S13106   4.712   1.094   3.196  0.9269 -1.3838 -1.3737
  124OSM    C5S13107   4.501   1.097   3.124  0.2096  0.0024 -0.3449
  124OSM    H5S13108   4.452   1.115   3.028  0.0670  1.5391 -0.0081
  124OSM    C6S13109   4.421   1.074   3.253  0.0182  0.0125  0.1873
  124OSM    H6S13110   4.347   0.992   3.246 -2.5706  2.2037 -0.0957
  124OSM    H6T13111   4.355   1.158   3.285 -2.4350 -2.4948  2.1864
  124OSM    C7S13112   4.493   1.039   3.386 -0.7486  0.8640 -0.3348
  124OSM    H7S13113   4.557   1.128   3.409  1.4163 -1.1764  2.1606
  124OSM    H7T13114   4.573   0.962   3.378 -0.7568  1.0079 -2.0776
  124OSM    C8S13115   4.396   1.016   3.499  0.4934  0.1184 -0.8111
  124OSM    H8S13116   4.309   0.952   3.477 -0.3459  0.8943  0.1406
  124OSM    H8T13117   4.358   1.120   3.511 -0.6879 -0.3576 -0.2522
  124OSM    C9S13118   4.463   0.964   3.624  0.2209 -0.1032 -0.5318
  124OSM    H9S13119   4.572   0.944   3.622  0.3847 -0.8678  4.4163
  124OSM    H9T13120   4.423   0.863   3.646 -1.7681  0.5148 -1.0542
  124OSM   C10S13121   4.449   1.050   3.751 -0.8698 -1.0553  0.5506
  124OSM   H10S13122   4.353   1.106   3.749 -0.9672 -1.2323 -1.6894
  124OSM   H10T13123   4.524   1.130   3.738 -1.5509 -0.1102  2.0807
  124OSM   C11S13124   4.466   0.981   3.887  0.0395  0.0859 -0.3227
  124OSM   H11S13125   4.561   0.926   3.905  0.7204  1.3357 -0.0353
  124OSM   H11T13126   4.376   0.915   3.890  0.2989 -0.3772  4.4765
  124OSM   C12S13127   4.457   1.085   4.008  0.0487 -1.0620  0.3840
  124OSM   H12S13128   4.373   1.156   3.996  0.3173 -0.0606  3.5887
  124OSM   H12T13129   4.551   1.144   3.996 -0.4161 -0.1480  1.1902
  124OSM   C13S13130   4.447   1.010   4.135  0.0457  0.0656 -0.4142
  124OSM   H13S13131   4.526   0.932   4.139 -0.8275 -0.8877 -1.0969
  124OSM   H13T13132   4.344   0.968   4.146 -0.6439  2.0619  1.6380
  124OSM   C14S13133   4.477   1.100   4.256 -0.1375 -0.1913 -0.9030
  124OSM   H14S13134   4.398   1.179   4.249  0.3577  0.4200  0.2086
  124OSM   H14T13135   4.580   1.142   4.255  0.1858 -0.9446 -0.0172
  124OSM   C15S13136   4.471   1.028   4.395  0.5311 -0.1452 -0.1160
  124OSM   H15S13137   4.559   0.959   4.402  1.7098  1.0028 -2.6047
  124OSM   H15T13138   4.373   0.977   4.405  0.6588 -0.5913 -1.0600
  124OSM   C16S13139   4.474   1.131   4.510  0.2173  0.1785  0.1506
  124OSM   H16S13140   4.388   1.202   4.518  0.7670  0.8712 -0.0493
  124OSM   H16T13141   4.566   1.187   4.483  0.6456 -0.7890 -0.4524
  124OSM   C17S13142   4.494   1.066   4.645  0.1266  0.4491 -0.4371
  124OSM   H17S13143   4.572   0.988   4.633 -0.8644 -0.9814  1.8591
  124OSM   H17T13144   4.409   1.004   4.678  0.2156 -0.4727 -1.8570
  124OSM   C18S13145   4.535   1.167   4.754  0.3476 -0.2098 -0.2111
  124OSM   H18S13146   4.454   1.240   4.776  0.5234  0.2497 -1.0370
  124OSM   H18T13147   4.625   1.221   4.717  0.0469 -0.1823 -0.9088
  124OSM   H18U13148   4.565   1.103   4.839  0.2948 -1.3149 -0.9975
  124OSM    C1F13149   4.782   1.509   3.057  0.5733 -0.1551  0.2504
  124OSM     OF13150   4.710   1.577   2.975 -0.4089  0.0634 -0.2778
  124OSM    C2F13151   4.879   1.574   3.156  0.2127 -0.6057 -0.4273
  124OSM    H2F13152   4.984   1.562   3.120  0.8456  2.9724 -0.1070
  124OSM    H2G13153   4.872   1.520   3.252  1.3287  0.4133  0.2535
  124OSM    C3F13154   4.854   1.727   3.191  0.2717 -0.4663 -0.3593
  124OSM    H3F13155   4.750   1.739   3.229  0.0097  2.0506 -1.5789
  124OSM    H3G13156   4.864   1.791   3.100  2.7183 -0.1969  0.0366
  124OSM    C4F13157   4.961   1.777   3.296 -0.0710 -0.1442 -0.6219
  124OSM    H4F13158   4.974   1.887   3.296 -0.1671 -0.0974 -2.3879
  124OSM    H4G13159   5.057   1.732   3.264 -0.2033 -0.4009 -0.6607
  124OSM    C5F13160   4.929   1.738   3.444 -0.4567  0.4984 -0.7110
  124OSM    H5F13161   4.970   1.636   3.460  1.9138  0.9852 -2.9399
  124OSM    H5G13162   4.820   1.723   3.460 -0.1510  0.8595  2.3935
  124OSM    C6F13163   4.990   1.833   3.554  0.1597  0.8773  0.4654
  124OSM    H6F13164   4.910   1.910   3.558 -1.4565 -0.5281 -2.1947
  124OSM    H6G13165   5.095   1.864   3.532  1.1863 -1.7089  1.3250
  124OSM    C7F13166   5.017   1.764   3.693 -0.2198 -0.6712  0.4924
  124OSM    H7F13167   5.095   1.687   3.678  1.3617  0.9218  0.3104
  124OSM    H7G13168   4.926   1.710   3.728 -0.0988 -0.5523  0.9960
  124OSM    C8F13169   5.057   1.870   3.796  0.2784  0.4365  0.2372
  124OSM    H8F13170   4.972   1.938   3.818  0.9845  1.4087  0.0293
  124OSM    H8G13171   5.143   1.930   3.760 -1.4988  2.9236 -0.1385
  124OSM    C9F13172   5.104   1.808   3.925  0.1686 -0.0454 -0.1585
  124OSM    H9F13173   5.206   1.767   3.921  0.7179  1.2305  0.4161
  124OSM   C10F13174   5.040   1.799   4.045  0.1580  0.2766  0.0181
  124OSM   H10F13175   5.093   1.747   4.126  1.3461  1.1928 -0.1347
  124OSM   C11F13176   4.905   1.847   4.091  0.3293 -0.0202 -0.3880
  124OSM   H11F13177   4.837   1.759   4.096 -0.6229  0.6259 -1.4491
  124OSM   H11G13178   4.858   1.910   4.012  0.1350 -0.8547 -0.9493
  124OSM   C12F13179   4.912   1.939   4.212 -0.6207  0.4713 -0.6557
  124OSM   H12F13180   4.962   2.037   4.199  1.5682 -0.2120  1.6614
  124OSM   H12G13181   4.973   1.886   4.288  0.3461 -0.0758 -1.7941
  124OSM   C13F13182   4.774   1.965   4.281  0.1583 -0.2953  0.6575
  124OSM   H13F13183   4.737   1.868   4.320 -1.1640  0.3157  0.9939
  124OSM   H13G13184   4.699   1.993   4.204  1.5742 -0.8397 -1.0042
  124OSM   C14F13185   4.773   2.067   4.394 -0.3585  0.2453  0.8939
  124OSM   H14F13186   4.683   2.050   4.456 -0.1719 -0.1066  1.0749
  124OSM   H14G13187   4.788   2.168   4.349  1.8317 -0.2670  0.3524
  124OSM   C15F13188   4.893   2.053   4.476 -0.3698  0.6889  0.3893
  124OSM   H15F13189   4.981   2.084   4.417 -0.9675  1.2864 -0.1958
  124OSM   H15G13190   4.897   1.955   4.528  0.1392  2.1315  3.3163
  124OSM   C16F13191   4.894   2.167   4.588 -0.2340 -0.5689 -0.2517
  124OSM   H16F13192   4.797   2.168   4.642 -1.2732 -1.6982 -2.0042
  124OSM   H16G13193   4.912   2.261   4.532  0.5618 -0.9085 -0.5811
  124OSM   C17F13194   5.005   2.159   4.686 -0.5804  0.1346  0.4147
  124OSM   H17F13195   5.000   2.262   4.728  1.4809 -0.3283  1.9409
  124OSM   H17G13196   5.109   2.141   4.651 -0.8108 -0.9428  0.2677
  124OSM   C18F13197   4.981   2.048   4.794 -0.3253 -0.1178  0.3480
  124OSM   H18F13198   4.880   2.057   4.838  0.7980 -1.2201  3.4116
  124OSM   H18G13199   5.057   2.053   4.875  2.2492  1.3365 -1.9893
  124OSM   H18H13200   4.990   1.949   4.745  0.4041  0.7733 -1.4187
  125OSM      N13201   0.225   2.625   1.978  0.1546  0.1048  0.0887
  125OSM    C1513202   0.348   2.627   1.891  0.3715 -0.0621  0.2865
  125OSM   H15A13203   0.312   2.615   1.790 -0.8799  1.3469  0.5196
  125OSM   H15B13204   0.407   2.539   1.912  0.9421  0.3639  0.4877
  125OSM   H15C13205   0.398   2.723   1.893 -1.3130  0.8513  0.4643
  125OSM    C1413206   0.132   2.720   1.914  0.3434  0.4696 -0.3923
  125OSM   H14A13207   0.068   2.751   1.994 -0.1873  0.2715 -0.7330
  125OSM   H14B13208   0.079   2.693   1.823  0.1048 -0.6990  0.0725
  125OSM   H14C13209   0.184   2.812   1.890 -1.4948  1.3197 -1.3051
  125OSM    C1313210   0.158   2.494   1.970 -0.1524 -0.7846  0.0396
  125OSM   H13A13211   0.062   2.508   2.016  1.0416  1.5680  2.0837
  125OSM   H13B13212   0.217   2.415   2.015  1.3229  0.3771  0.2354
  125OSM   H13C13213   0.142   2.467   1.866 -0.8840 -0.2172  0.0005
  125OSM    C1213214   0.253   2.659   2.123  0.1605  0.4299  0.3454
  125OSM   H12A13215   0.156   2.681   2.164  0.7737  0.9978  1.5383
  125OSM   H12B13216   0.316   2.747   2.121  0.1164  0.4699  0.7214
  125OSM    C1113217   0.331   2.558   2.206  0.0279  0.3364 -0.1043
  125OSM   H11A13218   0.381   2.610   2.290  0.9295  1.6380 -1.3799
  125OSM   H11B13219   0.414   2.530   2.138 -0.1808 -0.3629 -0.0773
  125OSM      P13220   0.298   2.349   2.358  0.0710 -0.2533 -0.2276
  125OSM    O1313221   0.238   2.214   2.355 -0.7736  0.2224 -0.1302
  125OSM    O1413222   0.443   2.362   2.378  0.6844 -0.7723 -0.7589
  125OSM    O1113223   0.233   2.429   2.473  0.1164  0.2638 -0.1971
  125OSM    O1213224   0.254   2.438   2.239 -0.1235  0.4130 -0.9324
  125OSM    C1S13225   0.282   2.539   2.549  0.3296 -0.7740  0.3253
  125OSM    H1S13226   0.266   2.631   2.489  0.2504 -0.6509  0.5344
  125OSM    H1T13227   0.388   2.529   2.582  0.6549 -2.5994 -1.1106
  125OSM     NF13228   0.201   2.670   2.730 -0.0716  0.3026  0.2482
  125OSM    HNF13229   0.270   2.681   2.802 -0.5089  0.0638  0.7037
  125OSM    C2S13230   0.198   2.531   2.676  0.7147 -0.3335 -0.1432
  125OSM    H2S13231   0.094   2.499   2.655  1.0944 -0.6508 -1.6763
  125OSM    C3S13232   0.250   2.415   2.768  0.0397  0.2768  0.8486
  125OSM    H3S13233   0.358   2.442   2.764 -0.3273  1.8690 -3.2796
  125OSM     O313234   0.242   2.282   2.703  0.1366  0.1166 -0.1626
  125OSM    HO313235   0.217   2.300   2.612 -0.9058  1.6286  0.3685
  125OSM    C4S13236   0.189   2.410   2.905  0.3399 -0.2193 -0.3323
  125OSM    H4S13237   0.081   2.421   2.917  0.7223  2.5228  1.5614
  125OSM    C5S13238   0.263   2.423   3.011  0.0714 -0.3291 -0.5458
  125OSM    H5S13239   0.367   2.455   2.996  0.1841 -0.0176  0.7650
  125OSM    C6S13240   0.197   2.444   3.148  0.3718  0.7890  1.3832
  125OSM    H6S13241   0.217   2.344   3.192  0.8780 -1.0344 -2.5464
  125OSM    H6T13242   0.088   2.465   3.149  0.4701  1.6065 -0.8936
  125OSM    C7S13243   0.262   2.564   3.225  0.2994  0.3103  0.3934
  125OSM    H7S13244   0.248   2.656   3.164 -1.7666 -0.0092  0.3134
  125OSM    H7T13245   0.369   2.539   3.242  0.3104  0.6984  0.9555
  125OSM    C8S13246   0.198   2.602   3.353 -0.1941  0.0841  0.3413
  125OSM    H8S13247   0.090   2.618   3.333 -0.2920 -0.9850 -0.0585
  125OSM    H8T13248   0.255   2.689   3.393  2.5932 -0.5438 -1.9263
  125OSM    C9S13249   0.204   2.483   3.457  0.2313  0.8118 -0.0597
  125OSM    H9S13250   0.309   2.475   3.493  0.0805  1.7862  0.6453
  125OSM    H9T13251   0.179   2.391   3.401 -0.9655  0.3863  1.1223
  125OSM   C10S13252   0.103   2.493   3.578  0.2004 -0.2590  0.4015
  125OSM   H10S13253   0.121   2.400   3.635 -2.1194 -1.0398 -0.0174
  125OSM   H10T13254   0.005   2.476   3.529  0.5971 -2.7502  0.3622
  125OSM   C11S13255   0.109   2.629   3.643 -0.2665 -0.5079 -0.0003
  125OSM   H11S13256   0.053   2.704   3.583  0.8018  1.2833  1.1287
  125OSM   H11T13257   0.218   2.650   3.654 -0.0530 -1.4962 -0.1625
  125OSM   C12S13258   0.060   2.624   3.788 -0.1584 -0.1963 -0.0649
  125OSM   H12S13259   0.099   2.709   3.847  0.5589 -2.8975  3.7140
  125OSM   H12T13260   0.090   2.530   3.838  0.8310 -0.7569 -1.6353
  125OSM   C13S13261  -0.096   2.617   3.796 -0.0831  0.9364 -0.1940
  125OSM   H13S13262  -0.124   2.514   3.766  2.3086  0.4861 -1.0938
  125OSM   H13T13263  -0.145   2.697   3.735  1.9996  2.3865 -0.0604
  125OSM   C14S13264  -0.127   2.644   3.946  0.9311  0.1137  0.2881
  125OSM   H14S13265  -0.100   2.750   3.964 -0.1193  0.5432 -0.5365
  125OSM   H14T13266  -0.072   2.574   4.012 -0.2942  0.1466  1.3770
  125OSM   C15S13267  -0.273   2.626   3.979 -0.2369 -0.3835  0.4366
  125OSM   H15S13268  -0.306   2.527   3.941 -0.6481  0.0414 -0.3249
  125OSM   H15T13269  -0.337   2.698   3.923  1.7839 -0.4455 -2.1334
  125OSM   C16S13270  -0.297   2.663   4.131  0.3293 -0.1751 -0.2805
  125OSM   H16S13271  -0.406   2.683   4.140  0.5013  0.2171  1.0653
  125OSM   H16T13272  -0.237   2.756   4.133 -1.2377  1.0156 -2.6471
  125OSM   C17S13273  -0.264   2.557   4.238 -0.0496  0.0551 -0.6081
  125OSM   H17S13274  -0.184   2.594   4.305  0.9860 -0.4915 -1.5027
  125OSM   H17T13275  -0.228   2.467   4.182 -0.0945 -0.2843 -0.0993
  125OSM   C18S13276  -0.386   2.525   4.321  0.9547 -0.2419  0.3687
  125OSM   H18S13277  -0.413   2.618   4.375  2.7775  0.2048  0.5906
  125OSM   H18T13278  -0.351   2.452   4.398 -0.2044 -1.0195  0.1799
  125OSM   H18U13279  -0.478   2.488   4.272 -0.4067  1.2985  1.6371
  125OSM    C1F13280   0.133   2.777   2.701 -0.0672 -0.3974  0.7738
  125OSM     OF13281   0.054   2.771   2.609  1.0885 -0.2232 -0.4891
  125OSM    C2F13282   0.147   2.899   2.780 -0.2724  0.5026 -0.3572
  125OSM    H2F13283   0.052   2.955   2.767 -0.3432  0.2276 -1.0733
  125OSM    H2G13284   0.231   2.966   2.751  1.2217 -0.5050  1.4463
  125OSM    C3F13285   0.178   2.875   2.934 -0.1615 -0.4253 -0.3566
  125OSM    H3F13286   0.272   2.818   2.949  0.7233  1.2219  0.6472
  125OSM    H3G13287   0.091   2.825   2.982  0.1000  0.6424  1.3206
  125OSM    C4F13288   0.186   3.010   3.002  0.8461  0.1424  0.2261
  125OSM    H4F13289   0.090   3.064   2.987  1.5299  1.3044 -0.0408
  125OSM    H4G13290   0.270   3.067   2.956  0.6239 -0.5181 -1.0575
  125OSM    C5F13291   0.209   3.001   3.153  0.4694  0.0715  0.1457
  125OSM    H5F13292   0.306   2.955   3.181 -0.5140 -2.7382 -0.7099
  125OSM    H5G13293   0.139   2.927   3.197  1.6116 -0.5380  1.0239
  125OSM    C6F13294   0.189   3.136   3.220 -0.3119 -0.2342 -0.5256
  125OSM    H6F13295   0.082   3.165   3.222  0.2806  2.2496  1.8577
  125OSM    H6G13296   0.245   3.204   3.153  0.4590  0.0406  0.3722
  125OSM    C7F13297   0.244   3.139   3.367 -0.1350 -0.6916 -0.0193
  125OSM    H7F13298   0.349   3.104   3.374  0.0526  0.1520  2.3166
  125OSM    H7G13299   0.201   3.066   3.438 -0.0757 -0.0010  0.7414
  125OSM    C8F13300   0.239   3.283   3.429 -0.0999 -0.0100  0.3550
  125OSM    H8F13301   0.248   3.270   3.539 -1.2122  1.3425  0.6378
  125OSM    H8G13302   0.139   3.326   3.410 -0.0191 -0.3646 -0.9301
  125OSM    C9F13303   0.348   3.369   3.374 -0.5735 -0.1024  0.3659
  125OSM    H9F13304   0.387   3.343   3.275  0.2504  1.4824  0.2419
  125OSM   C10F13305   0.445   3.440   3.447  0.4721 -0.0628 -0.0308
  125OSM   H10F13306   0.526   3.488   3.389 -0.0801  1.3892  0.3632
  125OSM   C11F13307   0.437   3.455   3.598  0.2068 -0.7743 -0.0533
  125OSM   H11F13308   0.340   3.431   3.648  0.7755  0.9667  2.0343
  125OSM   H11G13309   0.463   3.561   3.617 -1.2141  0.4207 -3.8467
  125OSM   C12F13310   0.541   3.348   3.635 -0.6355 -0.9208  0.6513
  125OSM   H12F13311   0.507   3.245   3.610 -2.6844 -0.2019  0.2816
  125OSM   H12G13312   0.548   3.353   3.746 -1.3582 -0.1383  0.6747
  125OSM   C13F13313   0.682   3.363   3.587 -0.1396 -0.2891  0.3952
  125OSM   H13F13314   0.712   3.470   3.592  1.5337 -0.6014 -1.3547
  125OSM   H13G13315   0.677   3.340   3.478  1.3629  1.1759 -0.0378
  125OSM   C14F13316   0.778   3.261   3.660 -0.3700 -0.2252 -0.0005
  125OSM   H14F13317   0.732   3.162   3.641 -1.9530  0.1593  1.5033
  125OSM   H14G13318   0.769   3.274   3.770 -1.0201 -0.3779 -0.0296
  125OSM   C15F13319   0.922   3.253   3.609  0.3466 -0.4054  0.3080
  125OSM   H15F13320   0.959   3.357   3.623  0.3655 -0.4154  0.3322
  125OSM   H15G13321   0.939   3.233   3.501 -0.9774  0.8334 -0.1594
  125OSM   C16F13322   0.999   3.168   3.706 -0.6887 -0.0611  0.4621
  125OSM   H16F13323   0.987   3.059   3.694 -1.2316  0.1227 -0.7620
  125OSM   H16G13324   0.983   3.194   3.813  0.7799  1.2686  0.4019
  125OSM   C17F13325   1.155   3.186   3.683 -0.5899 -0.2339  0.2068
  125OSM   H17F13326   1.175   3.294   3.673  0.6219 -0.5383 -0.9476
  125OSM   H17G13327   1.189   3.139   3.588  0.6238 -1.3742  1.1657
  125OSM   C18F13328   1.232   3.118   3.794  0.5006  0.1948  0.3083
  125OSM   H18F13329   1.339   3.107   3.767  0.4291  0.0602  0.0843
  125OSM   H18G13330   1.193   3.014   3.801 -1.7902  0.9618 -0.2173
  125OSM   H18H13331   1.218   3.178   3.887 -0.9751  0.9937 -0.3930
  126OSM      N13332   2.715   3.914   2.211  0.0340  0.1484  0.3310
  126OSM    C1513333   2.799   3.799   2.176  0.4952  0.3733  0.2012
  126OSM   H15A13334   2.887   3.777   2.235  0.2225 -2.9263 -0.4325
  126OSM   H15B13335   2.836   3.800   2.074 -0.4527  0.5294 -0.1451
  126OSM   H15C13336   2.732   3.715   2.178  1.2295 -0.2202  0.6825
  126OSM    C1413337   2.789   4.044   2.202 -0.1560  0.3551 -0.0014
  126OSM   H14A13338   2.731   4.131   2.231 -0.5542 -0.2462  1.0667
  126OSM   H14B13339   2.814   4.059   2.098 -1.3727  0.4300 -0.2971
  126OSM   H14C13340   2.886   4.034   2.250  0.1986 -0.3440 -0.8392
  126OSM    C1313341   2.603   3.925   2.111  0.1993  0.1098  0.3303
  126OSM   H13A13342   2.628   3.953   2.010  0.8541  2.1723  1.0162
  126OSM   H13B13343   2.526   3.992   2.147  0.1522 -0.0952  0.6148
  126OSM   H13C13344   2.549   3.831   2.105  0.4127 -0.1450  1.9371
  126OSM    C1213345   2.671   3.895   2.359 -0.0601 -0.0284 -0.3290
  126OSM   H12A13346   2.640   3.993   2.391 -1.5688 -0.9407  1.1359
  126OSM   H12B13347   2.754   3.877   2.425  0.2229  1.3445 -0.2745
  126OSM    C1113348   2.568   3.788   2.387 -0.0897  0.0993 -0.1935
  126OSM   H11A13349   2.487   3.814   2.316 -0.5271 -1.4520 -0.2779
  126OSM   H11B13350   2.530   3.819   2.487 -1.1910  1.6006 -1.0242
  126OSM      P13351   2.669   3.559   2.473  0.1884 -0.0081 -0.0933
  126OSM    O1313352   2.630   3.422   2.437  0.3050 -0.5465 -0.1932
  126OSM    O1413353   2.815   3.584   2.474 -0.1417 -0.1712 -0.0335
  126OSM    O1113354   2.617   3.609   2.608  0.5746 -0.0227  0.6009
  126OSM    O1213355   2.611   3.657   2.370  0.2959 -0.0411  0.0783
  126OSM    C1S13356   2.477   3.583   2.644  0.6346 -0.1847  0.2830
  126OSM    H1S13357   2.459   3.474   2.653  1.9761 -0.3640  1.0932
  126OSM    H1T13358   2.408   3.628   2.569  0.5111  0.1501  0.5930
  126OSM     NF13359   2.302   3.619   2.833  0.4122 -0.0414 -0.2141
  126OSM    HNF13360   2.240   3.694   2.854  2.0305  0.9400  1.3197
  126OSM    C2S13361   2.440   3.648   2.787  0.3286 -0.1645 -0.2826
  126OSM    H2S13362   2.507   3.608   2.867  1.4431  1.0426 -0.5659
  126OSM    C3S13363   2.473   3.797   2.784  0.6370 -0.3979  0.3195
  126OSM    H3S13364   2.422   3.848   2.699  0.7435 -0.0008  0.4894
  126OSM     O313365   2.604   3.832   2.757  0.7307 -0.2462  0.6203
  126OSM    HO313366   2.626   3.756   2.702 -0.5156 -1.9426  2.3383
  126OSM    C4S13367   2.435   3.857   2.914 -0.7125 -0.2246 -0.5269
  126OSM    H4S13368   2.330   3.887   2.931 -0.5374 -0.0738  0.3593
  126OSM    C5S13369   2.514   3.860   3.028 -0.4065 -0.1016  0.2799
  126OSM    H5S13370   2.617   3.823   3.017  0.4567  2.3402 -0.4995
  126OSM    C6S13371   2.490   3.922   3.164  0.0512 -0.2891  0.3224
  126OSM    H6S13372   2.385   3.921   3.200  0.1915 -0.4441  0.7272
  126OSM    H6T13373   2.522   4.028   3.156 -0.0841 -0.0452  2.5180
  126OSM    C7S13374   2.582   3.861   3.277 -0.1971  0.0829  0.3696
  126OSM    H7S13375   2.688   3.872   3.246 -0.4614 -1.1170 -1.0578
  126OSM    H7T13376   2.562   3.752   3.267  1.1223 -0.1149 -0.2675
  126OSM    C8S13377   2.561   3.917   3.415 -0.3610  0.1411 -0.8666
  126OSM    H8S13378   2.455   3.935   3.442  0.3526  0.8071  1.8901
  126OSM    H8T13379   2.618   4.007   3.446  0.6557 -0.8035  0.1426
  126OSM    C9S13380   2.613   3.822   3.527  0.3351  0.5803 -0.0806
  126OSM    H9S13381   2.721   3.800   3.519 -0.1814 -1.8330 -1.5499
  126OSM    H9T13382   2.562   3.723   3.523 -1.2109  1.1179  3.1876
  126OSM   C10S13383   2.585   3.870   3.672  0.2831 -0.0884  0.3844
  126OSM   H10S13384   2.656   3.945   3.715 -1.1782  0.6538  1.6135
  126OSM   H10T13385   2.598   3.777   3.731  1.0624 -0.8020 -0.8654
  126OSM   C11S13386   2.433   3.910   3.695 -1.3837  0.4913  0.1395
  126OSM   H11S13387   2.363   3.863   3.622 -1.2193  0.1650  0.1899
  126OSM   H11T13388   2.428   4.020   3.682  0.7722  0.6418  0.3175
  126OSM   C12S13389   2.383   3.870   3.835 -0.1648 -0.0179 -0.3824
  126OSM   H12S13390   2.398   3.761   3.846  0.0373 -0.2268 -2.3841
  126OSM   H12T13391   2.275   3.889   3.823 -0.4923 -0.6820  1.2819
  126OSM   C13S13392   2.455   3.948   3.946 -0.4206  0.1283 -0.2366
  126OSM   H13S13393   2.443   4.050   3.905  1.5503  0.4833  0.0144
  126OSM   H13T13394   2.560   3.913   3.943 -0.4163  0.1660 -0.5479
  126OSM   C14S13395   2.396   3.921   4.083 -0.3037 -0.2793  0.1437
  126OSM   H14S13396   2.418   3.813   4.097  0.5042  0.0814  1.7913
  126OSM   H14T13397   2.287   3.941   4.086 -0.1394  1.0042 -1.2814
  126OSM   C15S13398   2.459   4.005   4.195  0.2843 -0.1407 -0.0538
  126OSM   H15S13399   2.463   4.112   4.164 -1.9509 -0.3920 -1.4825
  126OSM   H15T13400   2.560   3.966   4.221  0.4311  0.1439 -0.1938
  126OSM   C16S13401   2.383   4.027   4.327  0.8309 -0.5560  0.7920
  126OSM   H16S13402   2.385   3.934   4.387 -0.8740 -1.5532 -0.6164
  126OSM   H16T13403   2.273   4.034   4.312  0.6406 -0.0654  2.2841
  126OSM   C17S13404   2.423   4.147   4.414 -0.8546  0.6156  0.1790
  126OSM   H17S13405   2.338   4.149   4.485 -0.3095 -1.7797  0.9953
  126OSM   H17T13406   2.436   4.233   4.345 -1.0327  0.9406  0.5459
  126OSM   C18S13407   2.560   4.123   4.484  0.2594  0.3105  0.1479
  126OSM   H18S13408   2.554   4.026   4.539  1.1372  0.4609  0.5164
  126OSM   H18T13409   2.573   4.213   4.547 -1.6257  1.1323 -0.5354
  126OSM   H18U13410   2.636   4.112   4.405 -0.5110  0.3523 -0.6195
  126OSM    C1F13411   2.266   3.494   2.851 -0.2417  0.2403  0.8319
  126OSM     OF13412   2.353   3.404   2.854 -0.0861  0.0990  0.1507
  126OSM    C2F13413   2.123   3.471   2.872  0.6945  0.1333  0.3280
  126OSM    H2F13414   2.095   3.432   2.772  1.3790  1.0169 -0.2336
  126OSM    H2G13415   2.072   3.569   2.858  0.0440 -0.2862 -0.2713
  126OSM    C3F13416   2.083   3.382   2.990  0.0239  0.2057 -1.1531
  126OSM    H3F13417   2.112   3.439   3.081 -1.3217  0.2309 -0.7185
  126OSM    H3G13418   2.141   3.288   2.995  2.1851  1.5229  1.7058
  126OSM    C4F13419   1.932   3.353   2.982  0.6656 -0.7246 -0.4780
  126OSM    H4F13420   1.918   3.273   2.906 -1.3284 -0.9184  0.0373
  126OSM    H4G13421   1.871   3.444   2.962 -2.0175 -1.8176  1.9592
  126OSM    C5F13422   1.871   3.313   3.122 -0.4532  0.0220 -0.5804
  126OSM    H5F13423   1.774   3.262   3.107 -1.0372  0.4940  1.3937
  126OSM    H5G13424   1.839   3.404   3.178 -2.1347 -0.5743 -0.5256
  126OSM    C6F13425   1.972   3.233   3.209  0.3539 -0.2631  0.2315
  126OSM    H6F13426   2.058   3.294   3.244 -0.5011  0.6468  0.7842
  126OSM    H6G13427   2.009   3.141   3.159  0.0204  0.6038 -1.7004
  126OSM    C7F13428   1.901   3.193   3.344  0.3173 -0.1930  0.3158
  126OSM    H7F13429   1.835   3.104   3.331  0.2912 -0.0941 -0.2618
  126OSM    H7G13430   1.830   3.271   3.379  0.4067  0.1475 -0.2414
  126OSM    C8F13431   1.993   3.162   3.469 -1.2543 -0.2344  0.4741
  126OSM    H8F13432   2.091   3.117   3.444 -1.3290 -0.4871  0.6278
  126OSM    H8G13433   1.947   3.086   3.536 -2.1519  1.4402  1.8498
  126OSM    C9F13434   2.003   3.286   3.545  0.0042  0.4614 -0.0532
  126OSM    H9F13435   2.061   3.357   3.485  0.2736 -0.5062 -0.9598
  126OSM   C10F13436   1.963   3.313   3.674 -0.3030  0.1377  0.3955
  126OSM   H10F13437   1.961   3.413   3.721 -0.2803 -0.4414  1.6951
  126OSM   C11F13438   1.904   3.210   3.772  0.1274 -0.4062  0.4003
  126OSM   H11F13439   1.846   3.136   3.711  1.0215  0.1300 -1.1491
  126OSM   H11G13440   1.838   3.260   3.845 -1.6661  0.6173 -1.7777
  126OSM   C12F13441   2.013   3.128   3.840 -0.0763  0.2579  0.0060
  126OSM   H12F13442   2.068   3.202   3.901  0.7451 -0.0928 -0.2910
  126OSM   H12G13443   2.082   3.091   3.761 -3.6442 -1.6163 -2.5030
  126OSM   C13F13444   1.958   3.022   3.937  0.5479  0.0640 -0.8046
  126OSM   H13F13445   1.920   2.935   3.879 -1.5087  1.2059 -1.2456
  126OSM   H13G13446   1.865   3.063   3.982  0.6119  3.5257 -3.3912
  126OSM   C14F13447   2.058   2.981   4.048 -0.3241  0.3417 -0.0829
  126OSM   H14F13448   2.162   3.011   4.026  0.0581  0.5942  1.8448
  126OSM   H14G13449   2.053   2.871   4.063 -0.9055  0.4787  0.8447
  126OSM   C15F13450   2.024   3.049   4.178 -0.0656 -0.2684 -1.0554
  126OSM   H15F13451   1.924   3.010   4.203  0.8592 -0.6750  2.4808
  126OSM   H15G13452   2.025   3.160   4.167 -1.9746 -0.2057 -0.8266
  126OSM   C16F13453   2.114   3.014   4.297 -0.2050  0.1435  0.1606
  126OSM   H16F13454   2.211   3.062   4.273  1.1163 -1.3608  2.1946
  126OSM   H16G13455   2.119   2.903   4.303  1.4054  0.1234 -0.9249
  126OSM   C17F13456   2.060   3.072   4.425 -0.5230  0.0030 -0.2117
  126OSM   H17F13457   2.009   3.005   4.497 -0.8501  1.5632  1.0753
  126OSM   H17G13458   1.985   3.149   4.396 -0.0781  1.1631  1.5621
  126OSM   C18F13459   2.155   3.157   4.509 -0.2915 -0.5180  0.2379
  126OSM   H18F13460   2.209   3.229   4.445  0.2706  0.3021  1.6001
  126OSM   H18G13461   2.220   3.091   4.571 -0.5211  2.2590  3.7512
  126OSM   H18H13462   2.098   3.211   4.588 -0.9327  1.2073 -1.3285
  127OSM      N13463   3.902   0.795   2.699  0.0934 -0.0251  0.5248
  127OSM    C1513464   4.045   0.782   2.666 -0.0205 -0.0857 -0.3749
  127OSM   H15A13465   4.098   0.723   2.739 -0.2934 -0.9225 -0.8411
  127OSM   H15B13466   4.085   0.882   2.659  0.3637 -0.2178 -0.0467
  127OSM   H15C13467   4.062   0.736   2.570 -0.6272  1.4292 -1.2410
  127OSM    C1413468   3.850   0.895   2.607 -0.4624  0.0786  0.2808
  127OSM   H14A13469   3.751   0.933   2.627  0.2164  2.4661 -0.5577
  127OSM   H14B13470   3.848   0.856   2.506  2.1673  1.4311 -0.3862
  127OSM   H14C13471   3.921   0.975   2.619 -1.8723  1.8033 -2.0419
  127OSM    C1313472   3.840   0.661   2.666  0.2220 -0.3032  0.0587
  127OSM   H13A13473   3.880   0.585   2.731  0.9833  1.8011  2.1969
  127OSM   H13B13474   3.848   0.656   2.558  0.2464  3.2270 -0.2140
  127OSM   H13C13475   3.734   0.674   2.678  0.4427  1.4123  0.3244
  127OSM    C1213476   3.885   0.834   2.844 -0.2562 -0.2440 -0.2521
  127OSM   H12A13477   3.947   0.922   2.852 -2.1088  1.0750 -0.0998
  127OSM   H12B13478   3.944   0.762   2.901  1.1698  0.9609 -0.1399
  127OSM    C1113479   3.752   0.861   2.911  0.5708  0.6854 -0.2019
  127OSM   H11A13480   3.762   0.897   3.016  1.4664  2.9459 -1.0013
  127OSM   H11B13481   3.694   0.766   2.917  1.2298  0.3374  1.0269
  127OSM      P13482   3.686   1.111   2.877  0.5196  0.1798 -0.2627
  127OSM    O1313483   3.828   1.137   2.899 -0.3939 -0.4782  0.1438
  127OSM    O1413484   3.607   1.194   2.786  0.5565 -0.4595  0.0050
  127OSM    O1113485   3.611   1.096   3.012 -0.0920 -0.3159 -0.2121
  127OSM    O1213486   3.679   0.958   2.835  0.1168 -0.1145 -0.0150
  127OSM    C1S13487   3.469   1.097   3.013 -0.1737  0.2717 -0.0096
  127OSM    H1S13488   3.434   1.035   2.927  1.3157 -0.0630 -0.4096
  127OSM    H1T13489   3.422   1.197   3.010 -2.5030 -0.7011  1.7115
  127OSM     NF13490   3.279   0.970   3.125 -0.3117 -0.1362 -0.3850
  127OSM    HNF13491   3.200   1.028   3.141 -1.3157 -1.1062 -1.5710
  127OSM    C2S13492   3.415   1.027   3.146  0.3781  0.2038  0.1344
  127OSM    H2S13493   3.482   0.944   3.175 -0.4499  0.2291  2.2965
  127OSM    C3S13494   3.417   1.139   3.255 -0.3790  0.1050  0.4405
  127OSM    H3S13495   3.326   1.202   3.251  0.3856  1.1966 -1.0480
  127OSM     O313496   3.524   1.234   3.238  0.5000 -0.0464 -0.5862
  127OSM    HO313497   3.560   1.201   3.156  0.7376 -0.7504 -0.2040
  127OSM    C4S13498   3.414   1.087   3.398 -0.4635 -0.1723  0.7443
  127OSM    H4S13499   3.328   1.125   3.454  1.2078  2.1635  1.8957
  127OSM    C5S13500   3.520   1.045   3.471 -0.7250 -0.6369 -0.4052
  127OSM    H5S13501   3.620   1.045   3.427 -0.6414  0.8711 -0.2479
  127OSM    C6S13502   3.511   1.022   3.616  0.7839  0.1562 -0.3775
  127OSM    H6S13503   3.533   1.113   3.676  2.0955  0.4537 -1.2823
  127OSM    H6T13504   3.600   0.963   3.646  0.0252 -1.2661 -0.8518
  127OSM    C7S13505   3.380   0.963   3.676  0.9738  0.4182  0.4518
  127OSM    H7S13506   3.351   0.884   3.603  3.4019 -1.2898  1.1816
  127OSM    H7T13507   3.301   1.041   3.686  0.5378  0.0260  0.1129
  127OSM    C8S13508   3.387   0.891   3.815  0.3327 -0.4644  0.9045
  127OSM    H8S13509   3.490   0.851   3.828  0.4984 -0.7769 -1.1348
  127OSM    H8T13510   3.319   0.803   3.820  0.7428 -0.7652  1.3094
  127OSM    C9S13511   3.357   0.986   3.929 -0.4271  0.5268 -0.5677
  127OSM    H9S13512   3.276   1.058   3.906 -1.7618 -0.3971  1.0430
  127OSM    H9T13513   3.447   1.051   3.939  0.1616 -0.1455 -1.2859
  127OSM   C10S13514   3.331   0.909   4.057 -0.4982  0.7848 -0.3795
  127OSM   H10S13515   3.239   0.850   4.042 -0.5587  1.1955 -1.7450
  127OSM   H10T13516   3.320   0.991   4.132 -0.1575  0.8326 -0.3802
  127OSM   C11S13517   3.441   0.810   4.098 -0.4806  0.4595  0.6865
  127OSM   H11S13518   3.546   0.842   4.087 -0.2550  0.1153  1.7198
  127OSM   H11T13519   3.430   0.716   4.039  0.1104  1.4244 -1.0277
  127OSM   C12S13520   3.420   0.779   4.243 -0.2073  0.3475 -0.6968
  127OSM   H12S13521   3.488   0.695   4.269 -0.9584 -0.0854 -0.0923
  127OSM   H12T13522   3.319   0.738   4.264  1.5600 -4.3744 -0.0500
  127OSM   C13S13523   3.459   0.890   4.341 -0.4821 -0.1249  0.4043
  127OSM   H13S13524   3.370   0.956   4.334 -0.9024 -0.7640 -0.5164
  127OSM   H13T13525   3.548   0.947   4.308 -1.5375  1.0061 -0.5861
  127OSM   C14S13526   3.487   0.852   4.484  0.1747 -1.0672 -0.3891
  127OSM   H14S13527   3.589   0.809   4.491  1.0475  0.9483  0.0897
  127OSM   H14T13528   3.413   0.784   4.532 -0.0912  0.3959  1.4068
  127OSM   C15S13529   3.480   0.974   4.583 -0.1937  0.2397  0.4859
  127OSM   H15S13530   3.374   1.008   4.575 -1.1560 -2.6412 -0.3103
  127OSM   H15T13531   3.533   1.056   4.530  0.4433 -0.7177 -0.3998
  127OSM   C16S13532   3.542   0.945   4.714  0.2335 -0.6272 -0.5827
  127OSM   H16S13533   3.646   0.905   4.710  0.6287  0.1770  0.9463
  127OSM   H16T13534   3.483   0.868   4.769 -0.5554  0.4473  0.1091
  127OSM   C17S13535   3.550   1.071   4.803  0.4780  0.2237  0.0423
  127OSM   H17S13536   3.448   1.100   4.837  0.7516 -0.1005  1.1818
  127OSM   H17T13537   3.591   1.150   4.738 -2.9067  0.8817 -1.5382
  127OSM   C18S13538   3.619   1.058   4.940  0.0551 -0.4922  0.0292
  127OSM   H18S13539   3.572   0.985   5.009  2.9766 -0.8410  1.8194
  127OSM   H18T13540   3.620   1.158   4.988  1.3705  0.2334 -1.4012
  127OSM   H18U13541   3.724   1.031   4.917 -0.6781 -1.5466 -2.5004
  127OSM    C1F13542   3.274   0.857   3.061 -0.3597 -0.1080  0.0444
  127OSM     OF13543   3.373   0.787   3.035 -0.4244 -0.1296  0.1888
  127OSM    C2F13544   3.141   0.823   3.001  0.1008 -0.3226 -0.1922
  127OSM    H2F13545   3.146   0.847   2.893  0.6136 -1.0227 -0.3333
  127OSM    H2G13546   3.058   0.884   3.043 -1.1154 -1.2846 -1.0998
  127OSM    C3F13547   3.109   0.664   3.003  0.1383 -0.9944 -0.0875
  127OSM    H3F13548   3.194   0.603   2.965  0.3377 -2.6546  2.7198
  127OSM    H3G13549   3.021   0.632   2.943 -1.2376 -1.7319  2.2062
  127OSM    C4F13550   3.082   0.607   3.144 -0.6136 -0.3584  0.4133
  127OSM    H4F13551   3.170   0.616   3.210  0.6702 -1.1032 -1.1388
  127OSM    H4G13552   3.085   0.498   3.122  0.0128 -0.0898 -0.8806
  127OSM    C5F13553   2.962   0.652   3.226  0.0359  0.1748  0.3460
  127OSM    H5F13554   2.875   0.647   3.157 -0.8472 -1.1544  1.4921
  127OSM    H5G13555   2.967   0.758   3.258 -3.1016 -0.0740  2.1157
  127OSM    C6F13556   2.912   0.566   3.346  0.4317 -0.4821  0.5856
  127OSM    H6F13557   2.877   0.470   3.302  2.3761 -1.2362  0.5860
  127OSM    H6G13558   2.830   0.627   3.389  0.5959  0.0700  0.1319
  127OSM    C7F13559   3.022   0.543   3.448  0.0238  0.6819 -0.3291
  127OSM    H7F13560   3.084   0.456   3.417  0.9508  0.6027  1.5838
  127OSM    H7G13561   2.964   0.510   3.536  1.5259  0.0338  0.4641
  127OSM    C8F13562   3.105   0.665   3.493  0.6002  0.1668  0.8148
  127OSM    H8F13563   3.151   0.713   3.405 -1.4990  2.5770  0.8979
  127OSM    H8G13564   3.189   0.627   3.556  1.5529 -0.1088 -0.5933
  127OSM    C9F13565   3.032   0.772   3.569  0.2121 -0.9452 -0.3693
  127OSM    H9F13566   3.000   0.858   3.507 -1.4592 -1.4662 -0.2913
  127OSM   C10F13567   3.015   0.789   3.704 -0.3433  0.4775  0.3912
  127OSM   H10F13568   2.976   0.888   3.733 -0.0720  0.3431  1.2374
  127OSM   C11F13569   3.069   0.689   3.802 -0.5262  0.0267 -0.1554
  127OSM   H11F13570   3.082   0.742   3.899  1.0204  3.2920 -1.9905
  127OSM   H11G13571   3.165   0.643   3.770 -0.2269 -0.5731  1.5102
  127OSM   C12F13572   2.959   0.584   3.850  0.5206 -0.0033  1.0269
  127OSM   H12F13573   2.916   0.531   3.763 -0.5258  3.0424 -0.4615
  127OSM   H12G13574   2.876   0.649   3.888  2.1984  0.6469  3.9450
  127OSM   C13F13575   3.004   0.477   3.950 -0.3314 -0.1932  0.3491
  127OSM   H13F13576   3.086   0.421   3.901 -0.5136 -2.3979  2.3460
  127OSM   H13G13577   2.922   0.404   3.968  1.3768 -2.2911 -0.1275
  127OSM   C14F13578   3.046   0.524   4.086 -0.3905  0.2775 -0.3759
  127OSM   H14F13579   3.133   0.594   4.081  0.2192 -0.2640  1.6133
  127OSM   H14G13580   3.083   0.437   4.145  1.9787  0.0875 -2.0116
  127OSM   C15F13581   2.923   0.574   4.168 -0.1299 -0.3413  0.2694
  127OSM   H15F13582   2.891   0.477   4.212 -2.3790 -0.1780 -0.8190
  127OSM   H15G13583   2.836   0.624   4.118 -0.2624  0.3146  1.1244
  127OSM   C16F13584   2.970   0.671   4.279  0.0175 -0.6041  0.0993
  127OSM   H16F13585   3.004   0.766   4.234  0.0874  1.6742  4.3997
  127OSM   H16G13586   3.058   0.633   4.336 -1.4432 -1.8535  1.6248
  127OSM   C17F13587   2.855   0.698   4.376 -0.2333 -0.2379 -0.9230
  127OSM   H17F13588   2.758   0.671   4.331 -0.9531  1.0600 -0.2070
  127OSM   H17G13589   2.848   0.806   4.403 -1.0701  0.2839 -2.9967
  127OSM   C18F13590   2.863   0.619   4.508 -0.1341  0.1099 -0.1927
  127OSM   H18F13591   2.765   0.617   4.561  0.1739  0.6769  0.4167
  127OSM   H18G13592   2.931   0.679   4.573 -1.7102  1.8038 -0.0132
  127OSM   H18H13593   2.893   0.515   4.484 -0.0216  0.1732 -0.3246
  128OSM      N13594   4.202   5.122   2.393  0.2476  0.0745  0.4497
  128OSM    C1513595   4.257   4.987   2.410  0.4523  0.8797  0.1791
  128OSM   H15A13596   4.197   4.929   2.478 -1.2769 -0.7893 -2.5703
  128OSM   H15B13597   4.358   4.986   2.450  1.1957 -0.4506 -1.5931
  128OSM   H15C13598   4.258   4.929   2.319  0.7114 -0.5431  1.0724
  128OSM    C1413599   4.234   5.197   2.521 -0.1036  0.4529  0.1186
  128OSM   H14A13600   4.339   5.219   2.533  0.4381 -1.1449 -1.3151
  128OSM   H14B13601   4.195   5.136   2.601  0.8938  0.6796  0.7922
  128OSM   H14C13602   4.192   5.296   2.531 -0.1902  0.4993 -0.6010
  128OSM    C1313603   4.273   5.184   2.275  0.5909 -0.5846 -0.1880
  128OSM   H13A13604   4.380   5.199   2.278  0.4319  0.6746  0.0265
  128OSM   H13B13605   4.241   5.287   2.266 -1.2532 -1.1603 -0.4919
  128OSM   H13C13606   4.245   5.141   2.180  1.6128 -2.1389  0.1662
  128OSM    C1213607   4.052   5.112   2.369 -0.2566  0.3456 -0.0401
  128OSM   H12A13608   4.026   5.067   2.274 -0.8453  0.3555  0.1100
  128OSM   H12B13609   4.018   5.215   2.375 -2.2533 -0.3297  1.0316
  128OSM    C1113610   3.962   5.064   2.487  0.2280 -0.4786 -0.1941
  128OSM   H11A13611   4.015   5.061   2.585 -1.7325  1.8886  1.0408
  128OSM   H11B13612   3.933   4.964   2.448  1.6507 -1.7659  1.7954
  128OSM      P13613   3.772   5.151   2.628  0.3252  0.5244  0.0947
  128OSM    O1313614   3.630   5.196   2.604 -0.6362  0.3870 -0.8460
  128OSM    O1413615   3.786   5.010   2.673  0.1298 -0.0173  0.2800
  128OSM    O1113616   3.845   5.243   2.734  0.3690  0.3071 -0.4548
  128OSM    O1213617   3.857   5.162   2.497 -0.1762 -0.0822  0.2989
  128OSM    C1S13618   3.784   5.275   2.855 -0.5167 -0.6093 -0.1118
  128OSM    H1S13619   3.675   5.294   2.849 -0.4465  0.9373  2.1573
  128OSM    H1T13620   3.822   5.372   2.893 -3.1051 -0.5317  2.7367
  128OSM     NF13621   3.729   5.199   3.087  0.2494  0.2843 -0.1778
  128OSM    HNF13622   3.772   5.265   3.149 -0.9533  0.6599  0.2881
  128OSM    C2S13623   3.813   5.167   2.972  0.0960  0.2620  0.3417
  128OSM    H2S13624   3.775   5.072   2.931 -2.2505  0.6736  1.4269
  128OSM    C3S13625   3.962   5.153   2.995  0.1967  0.2529 -0.5638
  128OSM    H3S13626   4.002   5.248   3.035 -1.6859  1.0384 -0.4643
  128OSM     O313627   4.052   5.118   2.889 -0.6897 -0.5870  0.5462
  128OSM    HO313628   3.996   5.141   2.814  0.5237  1.1219  0.0717
  128OSM    C4S13629   3.975   5.057   3.109 -0.6321  0.1129 -1.5771
  128OSM    H4S13630   3.993   5.107   3.205  2.3093  0.1155 -2.0483
  128OSM    C5S13631   3.968   4.922   3.102  0.2318  0.3827 -0.6601
  128OSM    H5S13632   3.959   4.878   3.001 -2.3705  0.5012 -0.5519
  128OSM    C6S13633   3.988   4.834   3.223 -0.3673  0.4870 -0.2174
  128OSM    H6S13634   4.073   4.766   3.206  0.3946  1.6988 -1.5033
  128OSM    H6T13635   3.896   4.775   3.242  0.0302 -0.5987 -1.5433
  128OSM    C7S13636   4.007   4.892   3.360 -0.3994  0.6140 -0.1634
  128OSM    H7S13637   3.917   4.940   3.404  0.4624  0.4475  1.9016
  128OSM    H7T13638   4.079   4.977   3.365  0.4679 -0.0405 -1.0582
  128OSM    C8S13639   4.044   4.794   3.469 -0.6325  1.0596  0.0363
  128OSM    H8S13640   4.079   4.865   3.547 -0.5219 -1.9160  2.9138
  128OSM    H8T13641   4.138   4.745   3.435 -0.0084  0.6988  2.1034
  128OSM    C9S13642   3.944   4.697   3.531  0.0456  0.7869  0.0178
  128OSM    H9S13643   3.886   4.635   3.459  2.2130  1.4925 -2.4991
  128OSM    H9T13644   3.871   4.761   3.586  0.1449  1.6758 -0.8650
  128OSM   C10S13645   3.998   4.620   3.654 -0.1422  0.2627  0.3402
  128OSM   H10S13646   4.053   4.532   3.614 -1.4696 -0.8620  0.8850
  128OSM   H10T13647   3.925   4.578   3.727  0.3343 -1.4357 -0.1025
  128OSM   C11S13648   4.092   4.701   3.744  0.7515 -0.1679  1.2896
  128OSM   H11S13649   4.042   4.793   3.781 -1.6770 -1.0756  0.4730
  128OSM   H11T13650   4.170   4.749   3.682 -0.8851  0.8715 -0.0618
  128OSM   C12S13651   4.149   4.614   3.857 -0.3607 -0.7832 -0.2865
  128OSM   H12S13652   4.237   4.673   3.890  0.7871 -1.5417 -1.8405
  128OSM   H12T13653   4.180   4.519   3.808  1.2242  0.3016 -1.5449
  128OSM   C13S13654   4.049   4.585   3.974 -0.4098 -0.4165 -0.0967
  128OSM   H13S13655   3.970   4.517   3.936 -0.6979 -0.4701  0.5792
  128OSM   H13T13656   4.011   4.678   4.020  2.1353  0.2151  0.9148
  128OSM   C14S13657   4.128   4.522   4.087  0.4681  0.0791 -0.6633
  128OSM   H14S13658   4.205   4.593   4.124  1.4786 -0.9362 -0.7610
  128OSM   H14T13659   4.182   4.432   4.049  0.7196 -0.4511  0.8348
  128OSM   C15S13660   4.033   4.477   4.200  0.1106  0.0557  0.2725
  128OSM   H15S13661   3.949   4.421   4.154  0.7676  0.0417 -0.9423
  128OSM   H15T13662   4.001   4.571   4.250  2.3494  0.4790  1.0144
  128OSM   C16S13663   4.099   4.393   4.311  0.4543  0.2442  0.2094
  128OSM   H16S13664   4.190   4.453   4.336  0.6199  0.2222 -0.3192
  128OSM   H16T13665   4.127   4.298   4.261  1.0001  1.0479 -1.0909
  128OSM   C17S13666   4.023   4.369   4.436  0.3960 -0.5900 -0.1571
  128OSM   H17S13667   3.926   4.320   4.412  0.5341 -2.5071  2.6799
  128OSM   H17T13668   4.001   4.468   4.481  0.0981  0.5359 -2.6188
  128OSM   C18S13669   4.102   4.288   4.535 -0.3311 -0.7037  0.0184
  128OSM   H18S13670   4.031   4.247   4.609 -0.6011 -2.0359 -0.9421
  128OSM   H18T13671   4.183   4.341   4.590  0.0300 -1.9685  0.7410
  128OSM   H18U13672   4.163   4.212   4.481 -0.8796 -1.1840  0.0618
  128OSM    C1F13673   3.597   5.188   3.083  0.5814 -1.0109 -0.4495
  128OSM     OF13674   3.542   5.136   2.991  0.1786  0.4253  0.8762
  128OSM    C2F13675   3.526   5.248   3.201  0.3883  0.2151 -0.9745
  128OSM    H2F13676   3.415   5.240   3.193  0.2852 -0.8076  0.9696
  128OSM    H2G13677   3.562   5.352   3.217  1.2161 -0.4971  2.7293
  128OSM    C3F13678   3.573   5.166   3.320  0.2711 -0.3513 -0.4003
  128OSM    H3F13679   3.684   5.162   3.324  0.3917 -0.2994 -2.4602
  128OSM    H3G13680   3.549   5.058   3.305  0.6559 -0.0358 -4.3520
  128OSM    C4F13681   3.507   5.219   3.451 -0.5126  0.0551  0.5020
  128OSM    H4F13682   3.398   5.201   3.432 -0.2673 -3.8827  1.9526
  128OSM    H4G13683   3.521   5.329   3.461 -0.8055  0.1269  0.1604
  128OSM    C5F13684   3.548   5.145   3.571 -0.7370  0.2506 -0.1823
  128OSM    H5F13685   3.653   5.171   3.597  0.0413 -2.9599  0.2828
  128OSM    H5G13686   3.555   5.036   3.554 -1.3470  0.1780  0.0214
  128OSM    C6F13687   3.457   5.179   3.692 -0.0083 -0.0518 -0.0324
  128OSM    H6F13688   3.357   5.139   3.667  1.2123 -3.0056 -0.6000
  128OSM    H6G13689   3.443   5.289   3.700 -0.3573 -0.1369  0.6310
  128OSM    C7F13690   3.522   5.131   3.821  1.1127 -0.0982  0.1340
  128OSM    H7F13691   3.604   5.194   3.861  0.0107  1.4527  0.0323
  128OSM    H7G13692   3.560   5.030   3.795  2.9562  0.9060 -1.3255
  128OSM    C8F13693   3.412   5.106   3.924 -0.6785  0.1584  0.2976
  128OSM    H8F13694   3.462   5.064   4.015  1.3685  1.1294 -0.3104
  128OSM    H8G13695   3.360   5.015   3.886  0.0300  0.0409 -0.4374
  128OSM    C9F13696   3.317   5.223   3.947 -0.2344 -0.1966 -0.7054
  128OSM    H9F13697   3.236   5.235   3.874 -0.4556 -0.9801 -0.5995
  128OSM   C10F13698   3.325   5.301   4.058 -0.4150 -0.2694  0.1123
  128OSM   H10F13699   3.235   5.359   4.085  0.1288  0.2344  0.8881
  128OSM   C11F13700   3.431   5.295   4.165  0.0486 -0.5447 -0.1235
  128OSM   H11F13701   3.481   5.394   4.169 -2.0780  0.6794 -2.0339
  128OSM   H11G13702   3.513   5.225   4.137  1.6896  1.3448 -0.2446
  128OSM   C12F13703   3.372   5.259   4.305  0.3305 -0.3780  0.0622
  128OSM   H12F13704   3.407   5.154   4.310  1.2048 -0.0419  2.0192
  128OSM   H12G13705   3.261   5.256   4.302  0.2878  1.2022 -1.6766
  128OSM   C13F13706   3.423   5.352   4.410 -0.2138  0.7689  0.2305
  128OSM   H13F13707   3.368   5.448   4.414 -2.5780 -0.5270  2.0796
  128OSM   H13G13708   3.531   5.371   4.398 -0.2256 -0.4405 -2.6680
  128OSM   C14F13709   3.400   5.290   4.552 -0.1670 -1.7348  0.1149
  128OSM   H14F13710   3.483   5.218   4.567  0.8125 -0.4377  1.1670
  128OSM   H14G13711   3.304   5.234   4.547 -1.4951  0.0829  2.7973
  128OSM   C15F13712   3.376   5.381   4.674  0.5749 -0.3348 -0.1259
  128OSM   H15F13713   3.286   5.445   4.656 -0.0446 -0.9456  0.7097
  128OSM   H15G13714   3.462   5.452   4.670 -0.5280  1.1092  0.6120
  128OSM   C16F13715   3.376   5.307   4.803 -0.1252  0.3796 -0.2741
  128OSM   H16F13716   3.452   5.226   4.799 -0.2563  0.3114 -1.7721
  128OSM   H16G13717   3.284   5.256   4.838  0.2442  0.9780  1.6949
  128OSM   C17F13718   3.417   5.403   4.917 -0.0218  0.0003  0.4743
  128OSM   H17F13719   3.373   5.505   4.914  0.3909  0.1736  0.1108
  128OSM   H17G13720   3.527   5.421   4.919 -0.1155  1.0648 -1.5866
  128OSM   C18F13721   3.382   5.344   5.047  1.0252  0.9553 -0.3341
  128OSM   H18F13722   3.416   5.239   5.044  0.4211  0.7703 -0.8556
  128OSM   H18G13723   3.272   5.354   5.058  1.0513  2.9601 -1.2919
  128OSM   H18H13724   3.434   5.388   5.134  1.5778 -2.0758  0.9824
  129OSM      N13725   4.944   3.999   2.116 -0.2297  0.4610 -0.0497
  129OSM    C1513726   4.887   4.138   2.121  0.0330  0.2946 -1.0469
  129OSM   H15A13727   4.937   4.196   2.198  1.9112 -0.5900 -1.5442
  129OSM   H15B13728   4.780   4.132   2.135  0.3476 -2.0688  1.0839
  129OSM   H15C13729   4.906   4.187   2.026  2.3964  0.8608 -0.3567
  129OSM    C1413730   4.840   3.916   2.048 -0.0646 -0.4399 -1.0770
  129OSM   H14A13731   4.882   3.818   2.032  1.9744 -0.3348  2.6030
  129OSM   H14B13732   4.822   3.960   1.951 -2.9634  1.2916  0.1157
  129OSM   H14C13733   4.750   3.918   2.108  0.1660 -1.5191 -0.6762
  129OSM    C1313734   5.071   4.006   2.033  0.3860 -0.1937 -0.0480
  129OSM   H13A13735   5.058   4.055   1.938  0.8827  0.7893  0.3739
  129OSM   H13B13736   5.130   3.917   2.016  1.1225  0.6534 -2.1950
  129OSM   H13C13737   5.125   4.083   2.087 -0.2389  1.6713 -1.9388
  129OSM    C1213738   4.971   3.936   2.255  0.3415 -0.5780  0.6452
  129OSM   H12A13739   5.004   3.836   2.233  3.4446  0.3844  0.4307
  129OSM   H12B13740   4.882   3.919   2.314  0.0737  0.4034  0.5353
  129OSM    C1113741   5.075   3.998   2.354 -0.2391  0.3240 -0.0068
  129OSM   H11A13742   5.066   3.934   2.444  2.1633  0.6690  0.5626
  129OSM   H11B13743   5.048   4.101   2.387  1.8500  0.4939  1.3682
  129OSM      P13744   5.292   3.862   2.318  0.1025  0.5623  0.1249
  129OSM    O1313745   5.197   3.744   2.324 -0.2367 -0.3105  0.0922
  129OSM    O1413746   5.396   3.860   2.213  0.2374  0.0150  0.2416
  129OSM    O1113747   5.360   3.868   2.459 -0.7385  0.5217 -0.0537
  129OSM    O1213748   5.211   4.000   2.306  0.5505  0.0114  1.2174
  129OSM    C1S13749   5.407   3.978   2.529 -0.2060 -0.1696  0.6245
  129OSM    H1S13750   5.326   4.052   2.510 -1.3037 -1.3755  0.4696
  129OSM    H1T13751   5.508   4.011   2.495 -0.9488  2.3436  0.6235
  129OSM     NF13752   5.433   4.069   2.758 -0.4898  0.4395  0.0863
  129OSM    HNF13753   5.524   4.095   2.788 -0.5343  1.3780 -0.5477
  129OSM    C2S13754   5.419   3.947   2.683 -0.0645  0.7849  0.0064
  129OSM    H2S13755   5.318   3.903   2.699  0.8728 -2.6235 -2.3039
  129OSM    C3S13756   5.525   3.835   2.703  0.1739 -0.4647 -0.0742
  129OSM    H3S13757   5.627   3.875   2.686 -0.5139  0.7892 -1.5303
  129OSM     O313758   5.505   3.714   2.620 -0.1726  0.1470  0.0376
  129OSM    HO313759   5.443   3.739   2.551  0.8761  2.8507 -0.0380
  129OSM    C4S13760   5.518   3.788   2.842 -0.6151  0.3705  0.1393
  129OSM    H4S13761   5.429   3.742   2.888  1.5165 -0.6354  3.6420
  129OSM    C5S13762   5.617   3.817   2.933  0.4083 -0.4797 -0.3283
  129OSM    H5S13763   5.704   3.872   2.896 -0.6699  0.8543 -0.9709
  129OSM    C6S13764   5.604   3.799   3.085 -0.3327 -0.4752 -0.0169
  129OSM    H6S13765   5.694   3.749   3.126 -0.5880 -1.0944 -0.2059
  129OSM    H6T13766   5.519   3.731   3.103 -1.5718  1.4948  2.2139
  129OSM    C7S13767   5.572   3.931   3.167 -0.1449  0.4027 -0.3127
  129OSM    H7S13768   5.468   3.958   3.139 -0.5190  0.2871  0.9147
  129OSM    H7T13769   5.646   4.006   3.132  2.3259 -2.0658 -0.7238
  129OSM    C8S13770   5.569   3.904   3.321 -0.9494  0.0800 -0.0805
  129OSM    H8S13771   5.668   3.912   3.369 -1.1741 -0.5082  0.4977
  129OSM    H8T13772   5.539   3.799   3.345 -1.4180  0.4990  1.2775
  129OSM    C9S13773   5.459   3.991   3.393 -0.2088  0.2410 -0.1107
  129OSM    H9S13774   5.370   3.978   3.328 -0.2951  0.8006 -0.1101
  129OSM    H9T13775   5.482   4.099   3.376 -0.4887 -0.0042 -2.2971
  129OSM   C10S13776   5.422   3.939   3.531  0.4796  0.0161 -0.8446
  129OSM   H10S13777   5.425   3.829   3.537 -3.1369 -0.2565 -1.8449
  129OSM   H10T13778   5.313   3.962   3.537 -0.1424 -2.6613 -0.5131
  129OSM   C11S13779   5.490   4.017   3.643 -1.1240  0.5119  0.3495
  129OSM   H11S13780   5.453   4.122   3.643  0.2269  1.0415 -1.6264
  129OSM   H11T13781   5.601   4.015   3.631 -1.3122  0.1000 -1.6827
  129OSM   C12S13782   5.455   3.969   3.789  0.3251 -0.4895  0.4934
  129OSM   H12S13783   5.484   3.862   3.799 -0.6505 -1.0782 -2.2415
  129OSM   H12T13784   5.345   3.979   3.788  0.0683 -2.6835 -1.1498
  129OSM   C13S13785   5.503   4.063   3.899 -0.1448 -0.9173 -0.4180
  129OSM   H13S13786   5.477   4.170   3.883 -0.9455 -0.9552  0.5175
  129OSM   H13T13787   5.613   4.075   3.904 -0.3948  1.5164  0.8603
  129OSM   C14S13788   5.446   4.031   4.043 -0.3057 -0.1526  0.2238
  129OSM   H14S13789   5.480   3.928   4.069 -0.8755 -0.6804 -1.0186
  129OSM   H14T13790   5.336   4.036   4.031  0.0026  2.1200 -3.1967
  129OSM   C15S13791   5.501   4.128   4.149 -0.2380  0.4131  0.3866
  129OSM   H15S13792   5.479   4.235   4.129  1.2144  0.3687 -1.7945
  129OSM   H15T13793   5.612   4.128   4.145 -0.2517  1.1232 -0.3690
  129OSM   C16S13794   5.441   4.088   4.282  0.1720  0.4624 -0.0407
  129OSM   H16S13795   5.452   3.979   4.298 -0.5246 -0.0482 -2.5956
  129OSM   H16T13796   5.331   4.102   4.275 -0.1919 -1.4966  1.0049
  129OSM   C17S13797   5.495   4.156   4.406 -0.5057 -0.1882  0.0109
  129OSM   H17S13798   5.475   4.265   4.409  1.5642  0.2209  0.5063
  129OSM   H17T13799   5.604   4.155   4.388  0.0473 -0.1506  2.7980
  129OSM   C18S13800   5.469   4.089   4.541  0.2775 -0.3817  0.6988
  129OSM   H18S13801   5.476   3.979   4.525  0.6812 -0.2079 -0.4265
  129OSM   H18T13802   5.365   4.109   4.576 -0.0556  0.1757 -0.5497
  129OSM   H18U13803   5.542   4.129   4.613  1.3861  1.6005 -1.3896
  129OSM    C1F13804   5.334   4.160   2.775  0.2926  0.0086 -0.9777
  129OSM     OF13805   5.222   4.128   2.725  0.2426 -0.4149  0.0006
  129OSM    C2F13806   5.355   4.288   2.852  0.6940  0.2892 -0.8869
  129OSM    H2F13807   5.370   4.367   2.776 -2.5871  1.0806 -0.8742
  129OSM    H2G13808   5.440   4.282   2.923  0.9806  1.3187 -1.1309
  129OSM    C3F13809   5.233   4.322   2.939  0.3907  0.1657 -0.2443
  129OSM    H3F13810   5.150   4.333   2.866 -0.0767  1.5213  0.4554
  129OSM    H3G13811   5.245   4.416   2.998  3.8262  0.7423 -1.6184
  129OSM    C4F13812   5.214   4.211   3.048  0.4280  0.7733 -0.5233
  129OSM    H4F13813   5.307   4.198   3.109  1.3648  1.4241 -1.7655
  129OSM    H4G13814   5.194   4.111   3.005  0.0856  1.3114 -1.6333
  129OSM    C5F13815   5.114   4.260   3.153  0.1214  0.1954 -0.9021
  129OSM    H5F13816   5.026   4.290   3.092 -1.3998 -0.5829  0.7938
  129OSM    H5G13817   5.164   4.342   3.208  0.6704  0.0333 -1.1597
  129OSM    C6F13818   5.058   4.140   3.243  0.6593  0.1362  0.1113
  129OSM    H6F13819   5.138   4.093   3.304  1.8374 -0.1300 -1.5526
  129OSM    H6G13820   5.027   4.054   3.180  1.2189 -0.4415  0.6181
  129OSM    C7F13821   4.949   4.195   3.332  0.3921  0.0031 -0.3168
  129OSM    H7F13822   4.882   4.254   3.266  0.1937  0.7507  0.5378
  129OSM    H7G13823   4.976   4.270   3.409  0.5648 -1.0070  0.6183
  129OSM    C8F13824   4.873   4.073   3.389  0.2809  0.5323 -0.2372
  129OSM    H8F13825   4.857   4.009   3.300  2.9805  1.5142 -1.5410
  129OSM    H8G13826   4.774   4.108   3.424  0.9161  2.3889 -0.1834
  129OSM    C9F13827   4.964   4.012   3.499  0.8732 -0.6515  0.8526
  129OSM    H9F13828   5.051   3.950   3.471  1.7117  1.0304 -0.5105
  129OSM   C10F13829   4.958   4.062   3.625 -0.5669  0.7861  0.5257
  129OSM   H10F13830   5.041   4.035   3.691  0.8531 -1.2986 -1.9092
  129OSM   C11F13831   4.859   4.165   3.682  0.1379  0.1488 -0.3635
  129OSM   H11F13832   4.793   4.114   3.756  0.8468  0.5391  0.5550
  129OSM   H11G13833   4.782   4.205   3.613 -0.9256  0.7322  1.1138
  129OSM   C12F13834   4.921   4.288   3.753  0.9205  0.3116  0.6001
  129OSM   H12F13835   4.840   4.361   3.774 -0.1778 -0.1340 -1.7810
  129OSM   H12G13836   4.981   4.339   3.675  0.3990 -2.2934 -1.6507
  129OSM   C13F13837   5.005   4.260   3.873  0.1362 -0.6000  0.2992
  129OSM   H13F13838   5.064   4.351   3.898  2.7032 -1.7273 -1.2280
  129OSM   H13G13839   5.074   4.174   3.856 -0.5031 -1.2044  0.7190
  129OSM   C14F13840   4.908   4.219   3.984 -0.0607 -0.5852  0.0566
  129OSM   H14F13841   4.850   4.130   3.951  0.1667 -0.7067 -0.0178
  129OSM   H14G13842   4.830   4.297   4.001 -0.4992 -1.2735  1.3539
  129OSM   C15F13843   4.977   4.157   4.109 -0.6519 -0.1611  0.1931
  129OSM   H15F13844   5.035   4.249   4.133  1.1214 -0.5416 -2.2366
  129OSM   H15G13845   5.041   4.076   4.068  1.5918 -0.2612  3.5600
  129OSM   C16F13846   4.889   4.106   4.225  0.2614  0.0426 -1.0956
  129OSM   H16F13847   4.840   4.014   4.186  0.9197 -0.9591  0.3243
  129OSM   H16G13848   4.808   4.178   4.251 -0.9398 -0.9218 -2.0607
  129OSM   C17F13849   4.967   4.070   4.353  0.1949 -0.2637 -0.0974
  129OSM   H17F13850   4.992   4.153   4.422  1.1872  0.4884 -1.3180
  129OSM   H17G13851   5.065   4.027   4.325  0.2271 -0.7757  0.7647
  129OSM   C18F13852   4.890   3.961   4.436 -0.4064  0.2545  0.5352
  129OSM   H18F13853   4.785   3.995   4.452 -0.6182 -0.4950  0.7454
  129OSM   H18G13854   4.944   3.952   4.532  0.1134  2.1767  0.4796
  129OSM   H18H13855   4.881   3.866   4.379  2.6409 -0.7213  1.4812
  130OSM      N13856   3.717   6.765   2.476  0.1399 -0.3335 -1.1239
  130OSM    C1513857   3.677   6.620   2.482 -0.3563  0.4077 -0.2505
  130OSM   H15A13858   3.664   6.588   2.584  0.4710  0.2323 -0.1977
  130OSM   H15B13859   3.758   6.565   2.437  0.8790  1.3690  0.7114
  130OSM   H15C13860   3.583   6.606   2.430 -0.3648 -0.0865 -0.1038
  130OSM    C1413861   3.848   6.794   2.552  0.1950 -0.4627  0.3261
  130OSM   H14A13862   3.891   6.892   2.536 -0.1949 -0.2208  0.7309
  130OSM   H14B13863   3.923   6.724   2.519  1.6024  0.3922  1.6277
  130OSM   H14C13864   3.834   6.786   2.659 -1.7665 -1.2316  0.0632
  130OSM    C1313865   3.731   6.805   2.331  0.6424  0.0531 -0.2895
  130OSM   H13A13866   3.645   6.773   2.274  1.1487  2.8189 -2.8257
  130OSM   H13B13867   3.822   6.769   2.284  1.8486  2.2252  0.2754
  130OSM   H13C13868   3.734   6.912   2.322  3.5939 -0.0468 -1.5609
  130OSM    C1213869   3.598   6.843   2.530 -0.2846  1.0456  0.1354
  130OSM   H12A13870   3.511   6.831   2.468  0.3009 -1.0965 -0.3461
  130OSM   H12B13871   3.623   6.947   2.517  0.9877  1.0359  2.0824
  130OSM    C1113872   3.572   6.829   2.679 -0.1348  0.8829  0.1157
  130OSM   H11A13873   3.591   6.723   2.709 -1.7946  0.8834  1.3630
  130OSM   H11B13874   3.466   6.849   2.706 -0.0872 -0.7512  1.7712
  130OSM      P13875   3.681   7.054   2.765 -0.0958 -0.3007  0.3749
  130OSM    O1313876   3.797   7.085   2.851 -0.6717 -0.8754  0.4996
  130OSM    O1413877   3.678   7.118   2.628  0.5045 -0.2755  0.4533
  130OSM    O1113878   3.547   7.108   2.839 -0.5370 -0.4971  0.2184
  130OSM    O1213879   3.666   6.899   2.758 -0.1427  0.1199 -0.1755
  130OSM    C1S13880   3.505   7.068   2.964 -0.2850 -0.2306  0.0698
  130OSM    H1S13881   3.539   6.965   2.985  2.9940  1.0652  2.0638
  130OSM    H1T13882   3.395   7.075   2.969 -0.2733 -0.7799  1.7108
  130OSM     NF13883   3.460   7.116   3.207 -0.4185  0.8062 -0.2989
  130OSM    HNF13884   3.399   7.185   3.246 -0.6909  1.4195 -1.7664
  130OSM    C2S13885   3.544   7.153   3.092 -0.3149 -0.3827 -0.3054
  130OSM    H2S13886   3.648   7.121   3.115 -0.6638 -0.9661  0.5031
  130OSM    C3S13887   3.564   7.305   3.077  0.6858 -0.2058  0.0069
  130OSM    H3S13888   3.477   7.345   3.021 -0.4243  0.3885  2.0698
  130OSM     O313889   3.675   7.342   2.995  0.5336  0.5516  0.5153
  130OSM    HO313890   3.701   7.263   2.947 -2.6812 -0.9497  0.9909
  130OSM    C4S13891   3.586   7.371   3.210  0.1472  0.0656  0.0899
  130OSM    H4S13892   3.642   7.313   3.285 -2.2069 -0.3933  1.5922
  130OSM    C5S13893   3.503   7.467   3.263  0.1687  0.2742 -0.1458
  130OSM    H5S13894   3.419   7.517   3.211 -0.6964  1.2161  2.0422
  130OSM    C6S13895   3.509   7.508   3.416 -0.3951  0.3196  0.6530
  130OSM    H6S13896   3.409   7.490   3.461  0.1311 -2.2785  0.9519
  130OSM    H6T13897   3.532   7.616   3.423  1.2989 -0.0826  1.8257
  130OSM    C7S13898   3.622   7.439   3.497 -0.8193  0.2070 -0.6392
  130OSM    H7S13899   3.715   7.477   3.450 -0.5626  0.3428 -0.0337
  130OSM    H7T13900   3.615   7.330   3.477 -0.1128  0.6085 -3.5087
  130OSM    C8S13901   3.621   7.479   3.644  0.2589  0.4279  0.4194
  130OSM    H8S13902   3.513   7.459   3.662  0.5174  0.8284  2.7355
  130OSM    H8T13903   3.634   7.589   3.646 -1.0346  0.6084 -0.0738
  130OSM    C9S13904   3.720   7.412   3.736 -0.9861 -0.0389 -0.7367
  130OSM    H9S13905   3.825   7.428   3.706 -0.8993  0.9816  0.0460
  130OSM    H9T13906   3.688   7.306   3.735 -2.7037  0.4334 -0.5556
  130OSM   C10S13907   3.698   7.456   3.885  0.1064  0.1691 -0.2639
  130OSM   H10S13908   3.596   7.417   3.907 -0.2506  0.5046 -1.2966
  130OSM   H10T13909   3.705   7.565   3.907 -2.7718  0.0625  1.8889
  130OSM   C11S13910   3.801   7.387   3.970 -0.2088 -0.0032 -0.5307
  130OSM   H11S13911   3.905   7.415   3.943  0.5228 -1.2221  0.9182
  130OSM   H11T13912   3.789   7.278   3.954 -0.8698 -0.0922  0.4809
  130OSM   C12S13913   3.776   7.424   4.118 -0.3207  0.2834 -0.2997
  130OSM   H12S13914   3.789   7.331   4.179 -0.1033 -0.5363 -1.5640
  130OSM   H12T13915   3.673   7.462   4.134 -1.2398 -1.7011 -1.0950
  130OSM   C13S13916   3.877   7.526   4.171  0.2315  0.0747 -0.3759
  130OSM   H13S13917   3.859   7.627   4.128  0.4374  0.3456  0.1771
  130OSM   H13T13918   3.973   7.479   4.140 -0.3788 -2.5394  1.3763
  130OSM   C14S13919   3.881   7.536   4.326  0.0224 -0.0544  0.2251
  130OSM   H14S13920   3.906   7.437   4.368  0.9657  0.1006  0.0454
  130OSM   H14T13921   3.783   7.578   4.358  0.5595  1.8907 -0.5504
  130OSM   C15S13922   4.001   7.618   4.380 -0.4480 -1.0942  0.0347
  130OSM   H15S13923   4.010   7.721   4.338 -0.4784 -0.7304  0.8755
  130OSM   H15T13924   4.094   7.568   4.347 -0.4862  0.1063 -2.0944
  130OSM   C16S13925   4.015   7.620   4.534 -0.0450  0.4149 -0.3686
  130OSM   H16S13926   4.106   7.680   4.556 -1.1741  1.9130  0.4531
  130OSM   H16T13927   4.049   7.518   4.562 -0.1880 -0.6965 -3.8624
  130OSM   C17S13928   3.898   7.686   4.599  0.5871  0.1516 -0.7337
  130OSM   H17S13929   3.922   7.686   4.707 -3.5945  1.3074  0.3704
  130OSM   H17T13930   3.802   7.633   4.580 -0.9467  2.6103 -0.1516
  130OSM   C18S13931   3.877   7.822   4.549  0.2771 -0.6802 -0.3951
  130OSM   H18S13932   3.968   7.885   4.551 -1.3286  1.8100 -0.6648
  130OSM   H18T13933   3.794   7.875   4.601 -0.4687 -0.3752 -1.8287
  130OSM   H18U13934   3.844   7.817   4.443 -2.5754  0.2903  0.3275
  130OSM    C1F13935   3.457   6.998   3.257 -0.1014 -0.3950 -0.7882
  130OSM     OF13936   3.538   6.917   3.227 -1.0573 -0.2676 -0.2250
  130OSM    C2F13937   3.339   6.959   3.346 -0.0656  0.3910 -0.3111
  130OSM    H2F13938   3.339   6.848   3.349 -0.6738  0.3514 -1.3387
  130OSM    H2G13939   3.239   6.983   3.304 -0.4569  0.9157  0.8893
  130OSM    C3F13940   3.347   6.999   3.496  0.2183 -0.2514 -0.2669
  130OSM    H3F13941   3.422   6.944   3.557 -0.5615 -0.0682  0.8906
  130OSM    H3G13942   3.244   6.967   3.524  0.2727  0.5433  0.8746
  130OSM    C4F13943   3.355   7.142   3.515 -0.0679 -0.6926 -0.4806
  130OSM    H4F13944   3.301   7.210   3.447  1.0306  0.0473 -0.6457
  130OSM    H4G13945   3.466   7.153   3.508 -0.1294 -0.7381 -1.6439
  130OSM    C5F13946   3.316   7.190   3.659  0.1961 -0.4795 -0.2202
  130OSM    H5F13947   3.210   7.159   3.675  0.0028 -0.3615 -1.1900
  130OSM    H5G13948   3.321   7.299   3.677 -0.7588  0.0730 -2.8126
  130OSM    C6F13949   3.404   7.120   3.769  0.9532 -0.0837  0.3526
  130OSM    H6F13950   3.502   7.171   3.773  0.6321  0.6273 -0.5155
  130OSM    H6G13951   3.416   7.011   3.752 -1.4674 -0.1501 -1.4779
  130OSM    C7F13952   3.336   7.151   3.899  0.2517  0.1163  0.0152
  130OSM    H7F13953   3.227   7.129   3.895  0.6149 -1.7049 -0.9393
  130OSM    H7G13954   3.344   7.260   3.919  1.6378  0.8581 -3.8021
  130OSM    C8F13955   3.391   7.072   4.015  0.3747 -0.1746 -0.5762
  130OSM    H8F13956   3.490   7.116   4.042  0.3127 -0.7558  0.6839
  130OSM    H8G13957   3.412   6.967   3.987  1.0637 -0.0915 -0.3856
  130OSM    C9F13958   3.306   7.079   4.137  0.4713 -0.8447  0.1322
  130OSM    H9F13959   3.211   7.028   4.114 -0.8266  1.0356  1.0805
  130OSM   C10F13960   3.325   7.139   4.255 -0.0143 -0.6258 -0.0380
  130OSM   H10F13961   3.255   7.138   4.340 -0.6523 -0.4659 -0.5504
  130OSM   C11F13962   3.453   7.214   4.288  0.4951  0.1733  0.1741
  130OSM   H11F13963   3.428   7.322   4.298 -1.6511 -0.1276 -1.2878
  130OSM   H11G13964   3.528   7.211   4.206  0.2955 -0.1049  0.0002
  130OSM   C12F13965   3.521   7.177   4.425  0.1692 -0.2792  0.1058
  130OSM   H12F13966   3.573   7.080   4.414  0.8494 -0.1506  1.8662
  130OSM   H12G13967   3.437   7.164   4.496 -2.2343  2.6665 -1.9011
  130OSM   C13F13968   3.603   7.292   4.485  0.2449  0.3077  0.5307
  130OSM   H13F13969   3.552   7.390   4.471 -0.8213 -0.1391  1.2083
  130OSM   H13G13970   3.704   7.305   4.441  0.6394 -0.2622  1.2347
  130OSM   C14F13971   3.625   7.268   4.635  0.4886  0.2061  0.0267
  130OSM   H14F13972   3.665   7.165   4.645 -1.3921 -0.3782  2.3576
  130OSM   H14G13973   3.531   7.266   4.694  1.1177  2.5294  1.2328
  130OSM   C15F13974   3.720   7.357   4.710 -0.0839  0.2724 -0.3948
  130OSM   H15F13975   3.687   7.459   4.682 -3.0509 -0.6981 -0.9002
  130OSM   H15G13976   3.824   7.338   4.678  0.2910  1.1142  0.2749
  130OSM   C16F13977   3.707   7.344   4.861  0.2271  0.0836  0.0742
  130OSM   H16F13978   3.604   7.377   4.888  0.9823  2.2201  0.5172
  130OSM   H16G13979   3.782   7.409   4.911 -1.5301 -0.3092  3.4799
  130OSM   C17F13980   3.743   7.202   4.913  0.5506 -0.6730  0.5143
  130OSM   H17F13981   3.829   7.158   4.858  1.1990  1.5183 -0.3683
  130OSM   H17G13982   3.662   7.127   4.900 -2.0218  1.6726  1.8542
  130OSM   C18F13983   3.761   7.198   5.060 -0.7533 -0.1192 -0.8382
  130OSM   H18F13984   3.662   7.227   5.103 -0.9410 -1.3505 -0.3884
  130OSM   H18G13985   3.847   7.259   5.096 -0.4800  0.5829 -2.6025
  130OSM   H18H13986   3.775   7.092   5.091 -0.5095  0.4655  1.2382
  131OSM      N13987   3.472   4.505   2.653 -0.5522 -1.4764  0.0624
  131OSM    C1513988   3.420   4.651   2.639 -0.3275  0.3132  0.3286
  131OSM   H15A13989   3.484   4.691   2.562  0.7691  2.4305  2.2385
  131OSM   H15B13990   3.431   4.713   2.726  1.0063 -1.2909  1.3575
  131OSM   H15C13991   3.321   4.653   2.595 -0.3016 -0.8254  0.1716
  131OSM    C1413992   3.617   4.522   2.640  0.0815 -0.6060  0.0399
  131OSM   H14A13993   3.657   4.422   2.643 -2.4770 -1.7060  0.0876
  131OSM   H14B13994   3.655   4.591   2.713  1.4445  0.8680 -1.9575
  131OSM   H14C13995   3.645   4.563   2.544 -0.1396 -0.5168  0.0111
  131OSM    C1313996   3.435   4.464   2.794 -0.2615 -0.2292 -0.2160
  131OSM   H13A13997   3.471   4.364   2.813  0.7641  0.0495 -0.6098
  131OSM   H13B13998   3.329   4.463   2.813 -0.1154 -1.1645  0.6541
  131OSM   H13C13999   3.488   4.530   2.861  0.9680 -2.1516  0.7889
  131OSM    C1214000   3.405   4.410   2.554 -0.4076 -0.6979 -0.2981
  131OSM   H12A14001   3.415   4.452   2.455 -0.6842 -3.1173 -1.4066
  131OSM   H12B14002   3.299   4.404   2.573  0.0649 -0.6258  3.1604
  131OSM    C1114003   3.451   4.265   2.554 -0.5613 -0.6269  0.1942
  131OSM   H11A14004   3.399   4.213   2.471  1.9238 -2.3186 -0.4212
  131OSM   H11B14005   3.412   4.217   2.647  0.9583  0.3520  1.4004
  131OSM      P14006   3.669   4.119   2.586  0.5583 -0.3303 -0.2009
  131OSM    O1314007   3.611   3.999   2.525  0.7332 -0.1786  0.5114
  131OSM    O1414008   3.810   4.140   2.553  0.0124  0.0806  0.3136
  131OSM    O1114009   3.656   4.121   2.738  0.1215 -0.0370  0.3251
  131OSM    O1214010   3.594   4.253   2.532  0.1021  0.1664  0.4629
  131OSM    C1S14011   3.744   4.181   2.829  0.0505  0.0522  0.3412
  131OSM    H1S14012   3.744   4.291   2.818 -1.4451 -0.0865 -1.4727
  131OSM    H1T14013   3.845   4.133   2.829  0.7881  1.5545  0.7527
  131OSM     NF14014   3.792   4.203   3.061 -0.4839  0.0187 -0.1546
  131OSM    HNF14015   3.854   4.132   3.095  0.4981  0.6611 -0.5726
  131OSM    C2S14016   3.692   4.156   2.972 -0.1143 -0.4568 -0.1210
  131OSM    H2S14017   3.601   4.218   2.990  0.1466  0.1558 -0.8560
  131OSM    C3S14018   3.652   4.003   2.992 -0.2382  0.1766  0.6100
  131OSM    H3S14019   3.746   3.955   2.959 -0.5626  0.1290 -0.2660
  131OSM     O314020   3.560   3.942   2.903 -0.0838  0.4457 -0.0713
  131OSM    HO314021   3.552   3.998   2.826 -0.6700  0.8495  0.2714
  131OSM    C4S14022   3.622   3.978   3.139  0.9601  0.2729 -0.0117
  131OSM    H4S14023   3.712   3.935   3.186  1.0577 -0.0833 -0.5144
  131OSM    C5S14024   3.504   3.980   3.202  0.2966 -0.3054  0.4561
  131OSM    H5S14025   3.418   3.990   3.134  1.4992 -2.2134 -1.4934
  131OSM    C6S14026   3.468   3.953   3.339 -0.2468  0.2988  0.0521
  131OSM    H6S14027   3.409   3.859   3.339 -0.1867  0.2554 -0.4938
  131OSM    H6T14028   3.403   4.033   3.380  0.0971 -1.1102  3.7309
  131OSM    C7S14029   3.590   3.941   3.438  0.2838 -0.5866  0.5271
  131OSM    H7S14030   3.652   4.032   3.426 -0.4105  0.0620  1.7272
  131OSM    H7T14031   3.653   3.859   3.396  0.2420  0.7925 -2.5260
  131OSM    C8S14032   3.538   3.916   3.581 -0.7510 -0.2618  1.4496
  131OSM    H8S14033   3.432   3.890   3.561 -0.3342 -0.1447 -1.2495
  131OSM    H8T14034   3.536   4.012   3.636 -1.7347  0.2740  0.5168
  131OSM    C9S14035   3.618   3.805   3.660  0.6763 -0.2677  1.9792
  131OSM    H9S14036   3.699   3.864   3.708  1.5214 -0.5239  0.9200
  131OSM    H9T14037   3.667   3.726   3.599 -1.3277 -0.2922  0.3349
  131OSM   C10S14038   3.533   3.724   3.766 -0.6667 -0.1839  0.0236
  131OSM   H10S14039   3.575   3.625   3.794 -0.8365  0.0409  1.0858
  131OSM   H10T14040   3.437   3.695   3.719 -0.7283 -1.0610  0.6710
  131OSM   C11S14041   3.519   3.796   3.895  0.6794  0.2056 -0.4656
  131OSM   H11S14042   3.454   3.739   3.964  0.8865 -0.6248 -0.9329
  131OSM   H11T14043   3.493   3.902   3.875 -1.5287 -0.0157  0.8936
  131OSM   C12S14044   3.653   3.785   3.963 -0.3350  0.0681 -0.4212
  131OSM   H12S14045   3.734   3.825   3.899 -0.8270 -0.0969 -1.1680
  131OSM   H12T14046   3.676   3.677   3.976  1.3215  0.3989 -0.4027
  131OSM   C13S14047   3.653   3.866   4.099  0.0691  0.5782 -0.3736
  131OSM   H13S14048   3.579   3.816   4.164  0.6577  1.0766  0.7095
  131OSM   H13T14049   3.621   3.967   4.063 -1.3281 -0.0151 -0.8499
  131OSM   C14S14050   3.783   3.867   4.182 -0.0164 -1.0480  1.3259
  131OSM   H14S14051   3.869   3.906   4.124 -0.0962 -1.3691  0.9901
  131OSM   H14T14052   3.804   3.760   4.199 -1.9425 -1.2925  2.6099
  131OSM   C15S14053   3.762   3.948   4.307 -0.1513  0.0282 -0.4801
  131OSM   H15S14054   3.710   3.879   4.377 -0.7917 -0.5036 -1.4454
  131OSM   H15T14055   3.696   4.036   4.291 -1.5112 -1.1825 -1.9478
  131OSM   C16S14056   3.889   3.982   4.385  0.0025  0.0478  0.1986
  131OSM   H16S14057   3.863   4.034   4.480  1.4017 -0.4724  0.8853
  131OSM   H16T14058   3.930   4.060   4.318 -3.0860  0.4319 -1.4446
  131OSM   C17S14059   3.978   3.859   4.409 -0.5999  0.1244 -0.2329
  131OSM   H17S14060   4.022   3.825   4.313  1.8961 -0.6777  1.0954
  131OSM   H17T14061   3.909   3.780   4.446 -0.6924  0.8766  1.2568
  131OSM   C18S14062   4.074   3.886   4.526  0.1832  0.0591 -0.1475
  131OSM   H18S14063   4.137   3.796   4.544  1.0153  0.5673 -0.4555
  131OSM   H18T14064   4.025   3.924   4.619 -0.5664  1.2073 -0.9888
  131OSM   H18U14065   4.137   3.976   4.509 -0.1290  0.2723 -0.1821
  131OSM    C1F14066   3.839   4.328   3.077 -0.0203  0.3009 -0.4613
  131OSM     OF14067   3.782   4.418   3.021 -0.0837  0.0996 -0.0517
  131OSM    C2F14068   3.962   4.348   3.159  0.2215  0.1347 -0.6216
  131OSM    H2F14069   4.015   4.439   3.123  2.1067 -0.2091  1.1279
  131OSM    H2G14070   4.032   4.266   3.134 -1.5763 -1.4611 -0.6508
  131OSM    C3F14071   3.939   4.378   3.311 -0.1163  0.7394 -0.0903
  131OSM    H3F14072   3.849   4.442   3.320 -0.9981 -0.4250 -0.3639
  131OSM    H3G14073   4.027   4.429   3.356 -1.3650  1.2566  1.8628
  131OSM    C4F14074   3.921   4.254   3.393  0.7968 -0.6253 -0.3230
  131OSM    H4F14075   3.991   4.176   3.357 -0.4097 -1.4854 -0.9020
  131OSM    H4G14076   3.824   4.207   3.364 -0.2485  0.7715  0.7824
  131OSM    C5F14077   3.940   4.274   3.545  0.0224 -0.6706  0.1759
  131OSM    H5F14078   3.862   4.336   3.594 -0.9822 -0.0081 -2.1348
  131OSM    H5G14079   4.043   4.313   3.565 -0.1917  0.1953 -0.3559
  131OSM    C6F14080   3.961   4.135   3.614 -0.1769 -0.0223  0.7965
  131OSM    H6F14081   4.024   4.071   3.548 -0.6042 -0.3546  0.7048
  131OSM    H6G14082   3.861   4.088   3.620 -1.1060  1.1219 -2.9674
  131OSM    C7F14083   4.004   4.151   3.755  0.2821  0.3271  0.1178
  131OSM    H7F14084   3.980   4.054   3.804  2.0339  0.1536  0.7075
  131OSM    H7G14085   3.932   4.222   3.802 -0.2359 -0.7913  1.1007
  131OSM    C8F14086   4.151   4.186   3.787  0.0472 -0.6715 -0.0202
  131OSM    H8F14087   4.165   4.193   3.897 -0.0321  1.7354 -0.1149
  131OSM    H8G14088   4.181   4.288   3.758  2.1497 -1.4823 -0.9008
  131OSM    C9F14089   4.240   4.086   3.724  0.0084  0.7433  0.0704
  131OSM    H9F14090   4.221   4.068   3.617  0.6881  0.7339 -0.0588
  131OSM   C10F14091   4.332   4.008   3.784  0.2745  0.1390 -1.0205
  131OSM   H10F14092   4.374   3.924   3.726  0.8698 -0.2383 -0.0726
  131OSM   C11F14093   4.382   4.008   3.932 -0.2429  0.8911  0.1355
  131OSM   H11F14094   4.407   3.901   3.948 -3.0158 -0.0180 -0.9533
  131OSM   H11G14095   4.297   4.011   4.004  1.4351 -1.8506  2.4499
  131OSM   C12F14096   4.497   4.096   3.970 -0.6103  0.0832  0.3896
  131OSM   H12F14097   4.477   4.204   3.958  0.9559  0.2454 -1.0673
  131OSM   H12G14098   4.577   4.081   3.894 -1.0195 -1.1595  0.1692
  131OSM   C13F14099   4.557   4.069   4.109 -0.1536  0.2457 -0.4971
  131OSM   H13F14100   4.652   4.127   4.113 -1.5892  2.6932 -0.0327
  131OSM   H13G14101   4.579   3.960   4.110  2.8653  0.7359  1.3901
  131OSM   C14F14102   4.467   4.119   4.222  0.4710 -0.1199  0.5139
  131OSM   H14F14103   4.370   4.065   4.216  0.1340  0.5815 -0.5481
  131OSM   H14G14104   4.434   4.224   4.209 -2.0789 -0.5472  2.6643
  131OSM   C15F14105   4.535   4.112   4.355  0.2170 -0.1057 -0.6356
  131OSM   H15F14106   4.625   4.174   4.334  0.6145 -0.6668 -0.5985
  131OSM   H15G14107   4.563   4.005   4.367 -1.0629 -0.5952 -1.7192
  131OSM   C16F14108   4.449   4.167   4.471 -0.0121  0.2250  0.0709
  131OSM   H16F14109   4.356   4.106   4.468 -0.3955  0.7335  1.0672
  131OSM   H16G14110   4.433   4.273   4.445 -0.8268 -0.4662 -2.4783
  131OSM   C17F14111   4.535   4.169   4.596  0.6887  0.5908 -0.3282
  131OSM   H17F14112   4.612   4.249   4.587  1.9964 -0.4889  0.8110
  131OSM   H17G14113   4.602   4.081   4.606  0.2049  0.2243 -0.2499
  131OSM   C18F14114   4.459   4.182   4.728  0.0735  0.3569 -0.3411
  131OSM   H18F14115   4.498   4.271   4.782  3.7918 -1.5109  0.4673
  131OSM   H18G14116   4.473   4.091   4.790  0.9505  1.4359  1.1072
  131OSM   H18H14117   4.351   4.202   4.715 -0.5898 -2.0435  0.8885
  132OSM      N14118   2.310   4.672   2.439 -0.3206  0.2861  0.2426
  132OSM    C1514119   2.260   4.674   2.300 -0.1641  0.7919  0.1014
  132OSM   H15A14120   2.248   4.774   2.260 -1.9699  0.7484  0.4401
  132OSM   H15B14121   2.163   4.628   2.298 -0.9750  2.3880  0.7197
  132OSM   H15C14122   2.310   4.605   2.234  1.0012  1.0150  0.7258
  132OSM    C1414123   2.210   4.747   2.519 -0.4537 -0.2039 -0.3730
  132OSM   H14A14124   2.110   4.706   2.516 -0.4651 -0.9363  3.7604
  132OSM   H14B14125   2.203   4.850   2.488 -3.2495 -0.2030  0.0466
  132OSM   H14C14126   2.242   4.741   2.622  2.3666  0.9332 -1.0928
  132OSM    C1314127   2.311   4.535   2.501  0.5736 -0.6697  0.5966
  132OSM   H13A14128   2.221   4.479   2.478  0.7193 -0.3557 -0.7706
  132OSM   H13B14129   2.315   4.551   2.608 -1.6780 -0.7305  0.7287
  132OSM   H13C14130   2.399   4.478   2.476  0.2220  0.3987 -3.7396
  132OSM    C1214131   2.444   4.740   2.456 -0.2829  0.0368  0.0149
  132OSM   H12A14132   2.454   4.763   2.561 -1.2354  0.2076  0.0786
  132OSM   H12B14133   2.437   4.838   2.410 -0.4527  0.0178 -0.0009
  132OSM    C1114134   2.567   4.669   2.400  0.1535  0.1186  0.1697
  132OSM   H11A14135   2.655   4.734   2.384 -1.7355  2.7710  0.0494
  132OSM   H11B14136   2.538   4.651   2.294 -0.2892  0.6107  0.2044
  132OSM      P14137   2.726   4.510   2.539 -0.1300  0.1276 -0.3067
  132OSM    O1314138   2.708   4.379   2.605 -0.4249  0.0471  0.5672
  132OSM    O1414139   2.846   4.543   2.466  0.4586 -0.2337  0.1088
  132OSM    O1114140   2.693   4.614   2.656  0.1373 -0.2222 -0.5094
  132OSM    O1214141   2.602   4.540   2.451 -0.5049  0.2290 -0.1987
  132OSM    C1S14142   2.783   4.625   2.761 -0.6740  0.2767 -0.0592
  132OSM    H1S14143   2.873   4.683   2.731  0.6861 -1.2595  0.8676
  132OSM    H1T14144   2.819   4.525   2.794  4.1211  1.6507 -0.4929
  132OSM     NF14145   2.811   4.703   2.990 -0.3059  0.5105  0.8733
  132OSM    HNF14146   2.825   4.636   3.062 -0.4523 -2.0077 -1.2912
  132OSM    C2S14147   2.712   4.678   2.884  0.4206  0.6535 -0.1804
  132OSM    H2S14148   2.676   4.782   2.864  2.7278  1.1920 -1.9798
  132OSM    C3S14149   2.597   4.583   2.922  0.9459 -0.0537 -0.4032
  132OSM    H3S14150   2.642   4.483   2.941  1.2909  0.0839 -0.4854
  132OSM     O314151   2.499   4.566   2.820 -0.6467 -0.4820 -0.1529
  132OSM    HO314152   2.543   4.597   2.741  1.1765  0.8208  1.2971
  132OSM    C4S14153   2.537   4.626   3.049 -0.2673  0.9959 -0.5128
  132OSM    H4S14154   2.515   4.733   3.057 -0.4712  0.9760 -0.7942
  132OSM    C5S14155   2.493   4.542   3.144  0.5993 -0.4843 -0.1899
  132OSM    H5S14156   2.505   4.433   3.135  0.9919 -0.8010  3.1534
  132OSM    C6S14157   2.411   4.585   3.260 -0.6234  0.5894 -0.1667
  132OSM    H6S14158   2.301   4.574   3.243 -0.4664 -1.1685 -0.2685
  132OSM    H6T14159   2.427   4.694   3.277  1.5692  0.4716 -1.1789
  132OSM    C7S14160   2.445   4.518   3.393  0.7226 -0.9656 -0.1313
  132OSM    H7S14161   2.554   4.528   3.412  0.7406  0.2125 -0.8097
  132OSM    H7T14162   2.418   4.410   3.388 -0.3394 -0.7549  0.6038
  132OSM    C8S14163   2.373   4.579   3.518  0.1244 -0.7707  0.2446
  132OSM    H8S14164   2.265   4.587   3.495 -0.1154 -0.4163  1.4011
  132OSM    H8T14165   2.404   4.684   3.537 -1.2583 -0.0821 -1.0869
  132OSM    C9S14166   2.395   4.503   3.646 -0.5055  0.2987  0.1091
  132OSM    H9S14167   2.502   4.512   3.677 -1.2478  0.4457  2.8903
  132OSM    H9T14168   2.379   4.394   3.629 -2.0298  0.5084  0.0718
  132OSM   C10S14169   2.310   4.548   3.770 -0.3934 -0.1292 -0.1565
  132OSM   H10S14170   2.204   4.524   3.750  0.1482 -1.9626 -1.0220
  132OSM   H10T14171   2.316   4.658   3.789  0.5823 -0.1082 -0.5246
  132OSM   C11S14172   2.346   4.484   3.901 -0.5589  0.2088 -0.0968
  132OSM   H11S14173   2.453   4.486   3.931 -0.7384 -0.1339  0.5932
  132OSM   H11T14174   2.331   4.374   3.897  2.2348 -0.1973 -1.4979
  132OSM   C12S14175   2.259   4.532   4.021 -0.0367  0.1064 -0.0341
  132OSM   H12S14176   2.193   4.457   4.069  1.6140  0.0130  2.2772
  132OSM   H12T14177   2.194   4.607   3.971  0.1826 -1.7448 -3.3531
  132OSM   C13S14178   2.342   4.610   4.128  0.7442  0.3826 -0.0315
  132OSM   H13S14179   2.266   4.678   4.175 -0.6166 -1.8305  1.1395
  132OSM   H13T14180   2.409   4.672   4.065 -0.7025  2.2871  0.1855
  132OSM   C14S14181   2.402   4.521   4.235  0.0700 -0.3083 -0.1423
  132OSM   H14S14182   2.474   4.444   4.199  0.4433 -0.0823  0.1198
  132OSM   H14T14183   2.324   4.470   4.295  0.3854 -1.5365 -0.7500
  132OSM   C15S14184   2.486   4.611   4.320 -0.1461  0.0700 -0.3704
  132OSM   H15S14185   2.414   4.685   4.359  1.8406  2.4835 -1.0495
  132OSM   H15T14186   2.562   4.665   4.259 -1.3113 -1.4622 -3.3853
  132OSM   C16S14187   2.566   4.542   4.435  0.0190 -0.3190  0.2536
  132OSM   H16S14188   2.644   4.477   4.391  0.3335 -0.7375  1.3843
  132OSM   H16T14189   2.505   4.465   4.486 -0.1204 -0.6320 -0.3788
  132OSM   C17S14190   2.648   4.639   4.526  0.6819  0.1451 -0.0205
  132OSM   H17S14191   2.570   4.701   4.574  0.4570 -2.0629  2.7087
  132OSM   H17T14192   2.721   4.695   4.464  0.5625  1.1463  0.7280
  132OSM   C18S14193   2.737   4.581   4.633  0.2419  0.4708 -0.4285
  132OSM   H18S14194   2.752   4.662   4.708 -0.1319 -2.0446  2.5946
  132OSM   H18T14195   2.828   4.530   4.595 -0.5334 -1.2977 -0.0018
  132OSM   H18U14196   2.686   4.504   4.695  1.9593  1.1136  1.9388
  132OSM    C1F14197   2.908   4.807   2.978 -0.0350  1.4555 -0.4410
  132OSM     OF14198   2.908   4.881   2.880 -0.4243  0.1628  0.0250
  132OSM    C2F14199   3.006   4.826   3.090  0.5940  0.7529 -0.2118
  132OSM    H2F14200   3.103   4.855   3.044 -0.6702  1.0096 -2.8971
  132OSM    H2G14201   3.026   4.724   3.129  1.5059  0.5201 -1.2492
  132OSM    C3F14202   2.952   4.928   3.192 -0.3712 -0.0473  0.3469
  132OSM    H3F14203   2.853   4.895   3.231 -0.9122  0.7285 -0.3241
  132OSM    H3G14204   2.934   5.024   3.139 -0.9568 -0.9623 -1.1953
  132OSM    C4F14205   3.050   4.964   3.306  0.1731  0.5023  0.6846
  132OSM    H4F14206   3.126   5.036   3.269 -0.4884  0.4439 -0.8657
  132OSM    H4G14207   3.107   4.869   3.319 -0.1973  0.3571  1.2603
  132OSM    C5F14208   2.987   4.999   3.441 -0.0967  0.1264  0.9285
  132OSM    H5F14209   2.915   4.923   3.478 -1.0096  0.5773  0.1464
  132OSM    H5G14210   2.924   5.088   3.415 -0.6510 -0.2860  0.8346
  132OSM    C6F14211   3.080   5.034   3.547 -0.8010 -0.0762 -0.1507
  132OSM    H6F14212   3.141   5.120   3.511 -0.5265 -1.2827 -2.7681
  132OSM    H6G14213   3.150   4.949   3.564 -1.5753 -0.8960 -0.9702
  132OSM    C7F14214   3.015   5.057   3.686  0.6884 -0.2997  0.4311
  132OSM    H7F14215   2.936   5.134   3.678 -1.1429 -2.0362  1.0407
  132OSM    H7G14216   3.101   5.083   3.752 -1.1557  0.3350  2.7097
  132OSM    C8F14217   2.956   4.933   3.756 -0.0692 -0.4938  0.1551
  132OSM    H8F14218   3.041   4.864   3.773 -0.0624 -0.4218  0.4178
  132OSM    H8G14219   2.880   4.886   3.689 -0.2592 -0.1867  0.1527
  132OSM    C9F14220   2.890   4.946   3.887 -1.0555  0.0572 -0.4257
  132OSM    H9F14221   2.786   4.981   3.892 -1.2309 -0.4100 -0.7159
  132OSM   C10F14222   2.948   4.903   4.003  0.1137 -0.4336 -0.5933
  132OSM   H10F14223   2.882   4.922   4.090 -0.9741 -0.2584 -1.4400
  132OSM   C11F14224   3.090   4.864   4.035  0.1882  0.2927  0.6892
  132OSM   H11F14225   3.163   4.929   3.982  0.0515  0.0783  0.2315
  132OSM   H11G14226   3.104   4.765   3.986  1.5764  0.2375  1.1485
  132OSM   C12F14227   3.118   4.878   4.183 -0.3547  0.0765  0.0395
  132OSM   H12F14228   3.062   4.803   4.242 -0.7925 -2.2189 -3.0622
  132OSM   H12G14229   3.076   4.979   4.204 -0.4507  0.6556 -2.5751
  132OSM   C13F14230   3.269   4.870   4.217 -0.3011 -0.3231 -0.4328
  132OSM   H13F14231   3.313   4.952   4.157  1.7975 -0.7215  0.4948
  132OSM   H13G14232   3.323   4.776   4.193 -0.5287 -0.4247 -0.5567
  132OSM   C14F14233   3.303   4.896   4.361  0.7615 -0.2242 -0.9335
  132OSM   H14F14234   3.263   4.999   4.377 -3.9929 -1.6609 -2.0339
  132OSM   H14G14235   3.411   4.912   4.384  0.4409  2.4100 -0.8590
  132OSM   C15F14236   3.239   4.801   4.461 -0.2075 -0.2198 -0.5038
  132OSM   H15F14237   3.282   4.700   4.442  1.0541  0.4646 -1.3474
  132OSM   H15G14238   3.129   4.802   4.446  0.0022  3.0829 -2.6941
  132OSM   C16F14239   3.249   4.842   4.608 -0.6685  0.6442  0.0255
  132OSM   H16F14240   3.233   4.951   4.617 -2.4537  0.3931  0.3491
  132OSM   H16G14241   3.351   4.808   4.635 -0.7049  0.5953  0.1026
  132OSM   C17F14242   3.154   4.776   4.705  0.3750 -0.3884 -0.6355
  132OSM   H17F14243   3.050   4.776   4.665 -0.1683 -2.6625  0.6174
  132OSM   H17G14244   3.158   4.831   4.801 -1.0989 -0.4934 -0.4844
  132OSM   C18F14245   3.193   4.631   4.734  0.0831  0.5017  0.0339
  132OSM   H18F14246   3.111   4.566   4.772 -0.3263 -2.1528 -4.6223
  132OSM   H18G14247   3.282   4.614   4.798  0.3344  0.9260 -0.1977
  132OSM   H18H14248   3.212   4.574   4.641  0.7395 -0.6865  0.8716
  133OSM      N14249   0.634   5.759   2.157 -0.8695  0.3125  0.2039
  133OSM    C1514250   0.643   5.806   2.008 -0.4557 -0.6043  0.1095
  133OSM   H15A14251   0.638   5.720   1.944 -2.6268  0.6420 -1.5373
  133OSM   H15B14252   0.726   5.871   1.986 -1.4346  0.5630 -0.2092
  133OSM   H15C14253   0.554   5.864   1.987 -0.5190 -1.0964 -1.0038
  133OSM    C1414254   0.745   5.656   2.191 -0.3452  0.3693  0.3570
  133OSM   H14A14255   0.841   5.696   2.163  0.6216 -1.5551  0.7857
  133OSM   H14B14256   0.746   5.561   2.141  2.6526  0.2164  0.5277
  133OSM   H14C14257   0.737   5.638   2.297 -0.1288 -0.9107  0.1629
  133OSM    C1314258   0.661   5.876   2.239 -0.3720 -0.5069 -0.1920
  133OSM   H13A14259   0.577   5.944   2.229  0.3592  0.6068  0.9461
  133OSM   H13B14260   0.746   5.931   2.201  0.0132  0.8255  2.3648
  133OSM   H13C14261   0.697   5.854   2.338  0.3610  1.2335 -0.0274
  133OSM    C1214262   0.504   5.703   2.194  0.6765  0.2746  0.4041
  133OSM   H12A14263   0.466   5.620   2.136 -1.3913 -0.6090  2.8253
  133OSM   H12B14264   0.438   5.785   2.170 -0.6512 -0.8651 -0.0237
  133OSM    C1114265   0.457   5.661   2.337  0.1751  0.0544 -0.3558
  133OSM   H11A14266   0.355   5.619   2.342  1.3234 -2.7960  0.8706
  133OSM   H11B14267   0.452   5.757   2.392  1.1253 -0.1949  0.1817
  133OSM      P14268   0.500   5.421   2.436 -0.2164 -0.4481 -0.4544
  133OSM    O1314269   0.434   5.355   2.318  0.0366  0.0284 -0.0910
  133OSM    O1414270   0.608   5.342   2.503  0.4556  0.1844  0.2582
  133OSM    O1114271   0.384   5.466   2.526  0.4853 -0.9364  0.3091
  133OSM    O1214272   0.551   5.569   2.400 -0.3537  0.2387  0.1310
  133OSM    C1S14273   0.393   5.482   2.665  0.6509 -0.0177 -0.5813
  133OSM    H1S14274   0.497   5.504   2.698 -0.0845  0.5324  1.4788
  133OSM    H1T14275   0.360   5.390   2.717 -1.2308  1.8172  1.6679
  133OSM     NF14276   0.338   5.611   2.871  0.4706 -0.0699  0.0818
  133OSM    HNF14277   0.260   5.587   2.928  0.8402 -0.3716  0.4627
  133OSM    C2S14278   0.318   5.601   2.724 -0.0280 -0.1437  0.4837
  133OSM    H2S14279   0.357   5.692   2.673  1.0134 -1.8274 -1.8586
  133OSM    C3S14280   0.167   5.611   2.680 -1.1514  0.0635  0.2382
  133OSM    H3S14281   0.111   5.524   2.721 -1.6219  0.7377  1.0461
  133OSM     O314282   0.151   5.594   2.541  0.2652 -0.0933 -0.1723
  133OSM    HO314283   0.228   5.550   2.505 -0.9337 -0.0139 -3.0998
  133OSM    C4S14284   0.091   5.728   2.729  0.1515  0.0960  0.2206
  133OSM    H4S14285   0.047   5.713   2.828  2.0722  2.0398  1.4639
  133OSM    C5S14286   0.117   5.852   2.693 -0.7454  0.4840  0.4042
  133OSM    H5S14287   0.186   5.863   2.608  0.4158 -3.0497  0.7535
  133OSM    C6S14288   0.063   5.971   2.761 -0.3331 -0.2005 -0.5472
  133OSM    H6S14289  -0.029   6.002   2.707 -1.0270 -0.0036  0.7060
  133OSM    H6T14290   0.139   6.052   2.753 -0.8610  0.5027  1.1618
  133OSM    C7S14291   0.020   5.959   2.911  0.8908 -0.2222 -0.0874
  133OSM    H7S14292  -0.070   5.899   2.935  1.0731  0.3421  2.2268
  133OSM    H7T14293  -0.024   6.058   2.935  1.0805 -0.4692  1.4016
  133OSM    C8S14294   0.135   5.952   3.006 -0.7350  0.7371 -0.3482
  133OSM    H8S14295   0.224   6.010   2.972 -2.3048  2.1418 -2.2933
  133OSM    H8T14296   0.159   5.844   3.013 -0.1299  0.9539  1.2158
  133OSM    C9S14297   0.101   5.993   3.149 -0.1499 -0.2091 -0.0845
  133OSM    H9S14298   0.012   5.933   3.179  0.1076 -0.9988 -0.8555
  133OSM    H9T14299   0.058   6.094   3.164 -0.1725 -0.1603 -0.4786
  133OSM   C10S14300   0.220   5.977   3.248 -0.7142  0.1614 -1.0801
  133OSM   H10S14301   0.308   6.020   3.195 -1.4371 -0.1004 -2.5490
  133OSM   H10T14302   0.244   5.870   3.264  2.4198  0.9039 -0.0446
  133OSM   C11S14303   0.185   6.028   3.384 -0.0139 -0.5641 -0.0315
  133OSM   H11S14304   0.100   5.966   3.420  2.3007 -1.5124  4.5063
  133OSM   H11T14305   0.154   6.134   3.392 -0.1675 -0.6291  0.2365
  133OSM   C12S14306   0.298   6.012   3.478  0.4841  0.1284  0.6127
  133OSM   H12S14307   0.385   6.068   3.437  0.8282 -0.1941  0.8981
  133OSM   H12T14308   0.312   5.903   3.489 -1.4949  0.0875  4.3846
  133OSM   C13S14309   0.264   6.071   3.614 -0.1305  0.5659 -0.7528
  133OSM   H13S14310   0.153   6.068   3.623 -0.1678 -0.9252 -1.3036
  133OSM   H13T14311   0.292   6.178   3.622 -1.9373  0.9671  0.7349
  133OSM   C14S14312   0.338   5.991   3.724  0.8866 -0.2606 -0.4249
  133OSM   H14S14313   0.447   6.010   3.725  0.8472 -0.0296  0.0888
  133OSM   H14T14314   0.318   5.883   3.708  1.0645 -0.3791  0.1236
  133OSM   C15S14315   0.264   6.026   3.858 -0.2177  0.9089  0.0253
  133OSM   H15S14316   0.278   6.136   3.862 -1.9564  1.1788 -0.3020
  133OSM   H15T14317   0.313   5.978   3.945  1.3248  0.9609 -0.7872
  133OSM   C16S14318   0.117   5.989   3.873  0.7040  0.0692  0.1761
  133OSM   H16S14319   0.054   6.023   3.787 -0.4904 -1.8008  0.2557
  133OSM   H16T14320   0.078   6.036   3.965 -0.2664 -1.9318  0.8492
  133OSM   C17S14321   0.094   5.841   3.910  0.4336  0.6879  0.0661
  133OSM   H17S14322   0.151   5.811   4.001  0.4182  2.4706  0.6992
  133OSM   H17T14323   0.139   5.781   3.828 -2.0739 -0.9189 -0.2830
  133OSM   C18S14324  -0.048   5.802   3.933  0.3300 -0.1852  0.4140
  133OSM   H18S14325  -0.094   5.887   3.987 -1.2924 -1.1131  0.5614
  133OSM   H18T14326  -0.066   5.708   3.990 -0.1204 -0.0499  0.4988
  133OSM   H18U14327  -0.117   5.795   3.846  1.5927 -0.0081 -0.6296
  133OSM    C1F14328   0.453   5.634   2.932  0.6786 -0.5647  0.1327
  133OSM     OF14329   0.550   5.674   2.874  0.0499 -0.0033  0.0210
  133OSM    C2F14330   0.456   5.623   3.085 -0.3220  0.5071  0.5003
  133OSM    H2F14331   0.366   5.574   3.127  0.8124 -1.0539  1.2122
  133OSM    H2G14332   0.459   5.729   3.117 -1.0500  0.7138 -0.0759
  133OSM    C3F14333   0.580   5.540   3.133  0.1280 -0.1053 -0.0038
  133OSM    H3F14334   0.675   5.578   3.088 -0.8708 -0.9051 -2.9852
  133OSM    H3G14335   0.563   5.432   3.117 -0.3493  0.0828 -0.8102
  133OSM    C4F14336   0.601   5.527   3.283 -0.0971  0.2339 -0.9214
  133OSM    H4F14337   0.700   5.482   3.306 -0.6988  0.7360  3.6842
  133OSM    H4G14338   0.528   5.459   3.332  2.1024 -0.9667  0.9175
  133OSM    C5F14339   0.594   5.659   3.359 -0.2492 -0.5014  0.7270
  133OSM    H5F14340   0.488   5.691   3.352 -0.7767 -2.4277 -1.1869
  133OSM    H5G14341   0.652   5.737   3.306 -1.5884 -0.0579 -0.1302
  133OSM    C6F14342   0.631   5.649   3.511 -0.2450  0.4428  0.0786
  133OSM    H6F14343   0.739   5.626   3.523 -0.4566 -0.9034 -0.4457
  133OSM    H6G14344   0.591   5.559   3.561 -0.0583  0.6770  0.6649
  133OSM    C7F14345   0.605   5.769   3.602  0.3000 -0.6498  0.1582
  133OSM    H7F14346   0.497   5.790   3.589  0.6317  0.9168 -0.2000
  133OSM    H7G14347   0.666   5.854   3.565  1.3008 -1.7761 -0.8831
  133OSM    C8F14348   0.626   5.742   3.753 -0.5103  0.1483 -1.1480
  133OSM    H8F14349   0.531   5.697   3.788  0.2334 -0.9946 -0.5535
  133OSM    H8G14350   0.633   5.844   3.799 -0.2668 -0.3471 -0.0526
  133OSM    C9F14351   0.745   5.663   3.795 -0.5100  0.1842  0.1908
  133OSM    H9F14352   0.808   5.608   3.724 -0.4757 -0.9547  1.0746
  133OSM   C10F14353   0.754   5.639   3.926  0.1100 -0.5363  0.5664
  133OSM   H10F14354   0.841   5.583   3.964  1.1731  0.3340 -0.4801
  133OSM   C11F14355   0.666   5.696   4.036 -0.8107  0.2493 -0.2250
  133OSM   H11F14356   0.592   5.771   4.001  1.1857  1.5256 -1.9060
  133OSM   H11G14357   0.739   5.747   4.101 -2.1343  0.5091  1.1195
  133OSM   C12F14358   0.589   5.582   4.106  0.0741 -0.0732  0.4498
  133OSM   H12F14359   0.658   5.507   4.150 -0.3845  0.8081  2.8830
  133OSM   H12G14360   0.521   5.536   4.032  2.7284 -1.2431 -1.4280
  133OSM   C13F14361   0.502   5.636   4.225 -0.0254 -0.2281 -0.3949
  133OSM   H13F14362   0.564   5.669   4.311 -3.3460  0.6878  1.8374
  133OSM   H13G14363   0.436   5.555   4.264 -0.4081  0.5446  0.6055
  133OSM   C14F14364   0.408   5.753   4.201  0.2819 -0.7398 -1.1614
  133OSM   H14F14365   0.340   5.733   4.115 -2.0385 -4.2968  1.2126
  133OSM   H14G14366   0.463   5.845   4.172  1.6422 -1.2507 -0.3116
  133OSM   C15F14367   0.333   5.785   4.332  0.1270 -0.1136  0.0177
  133OSM   H15F14368   0.404   5.778   4.417  1.0674  0.6358 -0.6905
  133OSM   H15G14369   0.250   5.712   4.346 -0.3264  0.3004 -0.4500
  133OSM   C16F14370   0.261   5.922   4.333 -0.4732 -0.4046 -0.1989
  133OSM   H16F14371   0.206   5.934   4.429  0.5896  1.8607  0.1908
  133OSM   H16G14372   0.192   5.935   4.248 -0.4713  3.4078  0.2126
  133OSM   C17F14373   0.358   6.038   4.342  0.1863  0.4757 -0.6040
  133OSM   H17F14374   0.424   6.034   4.253  1.8161 -1.2633  0.5957
  133OSM   H17G14375   0.416   6.029   4.436 -0.6258 -0.0173 -0.1435
  133OSM   C18F14376   0.284   6.178   4.347 -0.1944 -0.6493  0.0934
  133OSM   H18F14377   0.200   6.178   4.420 -0.6441  2.1193 -0.2996
  133OSM   H18G14378   0.230   6.191   4.251 -0.3074 -1.4092  0.0507
  133OSM   H18H14379   0.350   6.266   4.364  0.2993 -1.2622  1.5087
  134OSM      N14380   5.238   6.222   2.265  0.2727  0.0454  0.1597
  134OSM    C1514381   5.358   6.155   2.316 -0.0424  1.3129 -0.2545
  134OSM   H15A14382   5.332   6.077   2.385  1.5795  2.1557  1.4028
  134OSM   H15B14383   5.419   6.226   2.371 -2.5134  1.7185  2.1854
  134OSM   H15C14384   5.418   6.112   2.238  0.3270 -1.0715  1.2597
  134OSM    C1414385   5.140   6.109   2.242 -0.3651 -0.7866 -0.1622
  134OSM   H14A14386   5.176   6.032   2.175 -0.1217  0.2802 -1.3027
  134OSM   H14B14387   5.043   6.140   2.207  0.7333 -0.4366 -3.2093
  134OSM   H14C14388   5.108   6.072   2.338 -2.0237  2.8410  0.8543
  134OSM    C1314389   5.195   6.300   2.383 -0.9341  0.1427 -0.2110
  134OSM   H13A14390   5.270   6.370   2.415 -0.4608 -1.6578  3.0648
  134OSM   H13B14391   5.172   6.243   2.471  0.1766 -2.3707 -1.4501
  134OSM   H13C14392   5.103   6.348   2.352 -0.5563  1.6294  0.9084
  134OSM    C1214393   5.257   6.315   2.140  0.7894  0.4860 -0.5303
  134OSM   H12A14394   5.166   6.370   2.120 -0.0282  0.4087  2.5724
  134OSM   H12B14395   5.277   6.256   2.051 -0.1851 -2.1687  0.8962
  134OSM    C1114396   5.362   6.430   2.144  0.2884 -0.3405 -0.2443
  134OSM   H11A14397   5.364   6.486   2.048  2.5334  1.2744  0.6432
  134OSM   H11B14398   5.463   6.384   2.153  0.5802  0.5911  1.9692
  134OSM      P14399   5.434   6.628   2.305  0.3538 -0.1361 -0.3022
  134OSM    O1314400   5.577   6.584   2.287 -0.0678 -0.3734  0.5026
  134OSM    O1414401   5.402   6.762   2.247  0.0053  0.6258 -0.2209
  134OSM    O1114402   5.404   6.629   2.460  0.2364  0.1335 -0.4906
  134OSM    O1214403   5.335   6.520   2.255  0.4096 -0.8155  0.7917
  134OSM    C1S14404   5.450   6.522   2.547  0.2774 -0.0605 -0.3242
  134OSM    H1S14405   5.523   6.454   2.499  0.3462 -0.0969 -0.1661
  134OSM    H1T14406   5.362   6.477   2.596 -1.8311  2.3788 -1.6054
  134OSM     NF14407   5.554   6.483   2.772 -0.4216  0.0104 -0.0515
  134OSM    HNF14408   5.500   6.497   2.854  2.2022  0.2320  1.7469
  134OSM    C2S14409   5.533   6.582   2.669  0.3817 -0.9962  0.4681
  134OSM    H2S14410   5.632   6.609   2.626 -0.2501 -0.8464 -0.9500
  134OSM    C3S14411   5.480   6.722   2.730  0.2302  0.0328  0.4439
  134OSM    H3S14412   5.388   6.714   2.792 -0.9918  1.8292 -1.0011
  134OSM     O314413   5.452   6.831   2.638 -0.2151 -0.2162 -0.1640
  134OSM    HO314414   5.439   6.785   2.555  0.1101  0.8488 -0.8140
  134OSM    C4S14415   5.589   6.773   2.826  0.3688 -0.0853  0.2233
  134OSM    H4S14416   5.686   6.760   2.775 -0.6365 -1.0720 -1.5288
  134OSM    C5S14417   5.582   6.823   2.948  0.4259  0.2415 -0.0689
  134OSM    H5S14418   5.485   6.826   2.999 -0.1493  0.2640 -1.1320
  134OSM    C6S14419   5.700   6.847   3.034  0.2955 -1.1231 -0.0515
  134OSM    H6S14420   5.702   6.957   3.050  0.0073 -0.8739 -1.5471
  134OSM    H6T14421   5.793   6.805   2.989 -0.0223 -2.5245  0.5334
  134OSM    C7S14422   5.676   6.795   3.177  0.0921  0.3637 -0.3184
  134OSM    H7S14423   5.577   6.835   3.209  0.3976  0.7551  0.1492
  134OSM    H7T14424   5.754   6.838   3.243  1.2606  0.6512 -1.8465
  134OSM    C8S14425   5.679   6.645   3.182 -0.0223 -0.0599  0.2597
  134OSM    H8S14426   5.777   6.610   3.141  0.9178  3.1224 -0.4852
  134OSM    H8T14427   5.588   6.613   3.127 -0.7435  3.2256 -0.6534
  134OSM    C9S14428   5.691   6.593   3.324 -0.1363 -0.4950 -0.5832
  134OSM    H9S14429   5.610   6.627   3.391  0.8555  2.3684 -0.7033
  134OSM    H9T14430   5.789   6.628   3.364 -0.6857  1.6391 -0.9987
  134OSM   C10S14431   5.693   6.439   3.326 -0.6478  0.2413  0.4082
  134OSM   H10S14432   5.756   6.388   3.250  0.8162  2.5612 -0.0153
  134OSM   H10T14433   5.587   6.416   3.303 -0.4603  0.0121 -0.2380
  134OSM   C11S14434   5.729   6.389   3.462 -0.0937  0.5474 -0.7798
  134OSM   H11S14435   5.791   6.466   3.513 -1.8545  1.4085  0.1782
  134OSM   H11T14436   5.797   6.301   3.462 -1.2399 -0.5203  2.9476
  134OSM   C12S14437   5.613   6.347   3.549  0.3710  0.2460  0.0556
  134OSM   H12S14438   5.538   6.293   3.486  2.8044 -1.3143 -1.6722
  134OSM   H12T14439   5.565   6.432   3.602 -0.3429  0.1974 -0.4863
  134OSM   C13S14440   5.646   6.232   3.651 -0.6758  0.0551 -0.3357
  134OSM   H13S14441   5.694   6.288   3.734  1.7890 -0.7368 -1.1349
  134OSM   H13T14442   5.715   6.160   3.602 -2.5802 -3.3265  1.5894
  134OSM   C14S14443   5.524   6.150   3.688  0.2881  0.3751  0.2102
  134OSM   H14S14444   5.463   6.150   3.595  0.1056  1.6936  0.3109
  134OSM   H14T14445   5.465   6.208   3.762 -1.2175 -0.6733 -0.1116
  134OSM   C15S14446   5.553   6.014   3.762  0.0551  0.7492  0.0780
  134OSM   H15S14447   5.616   5.959   3.689 -2.1298 -2.3223  0.2910
  134OSM   H15T14448   5.460   5.957   3.784  1.3463 -1.6374 -0.4328
  134OSM   C16S14449   5.627   6.014   3.895  0.3514  0.3342 -0.1723
  134OSM   H16S14450   5.723   6.066   3.876  1.4849 -0.9307  1.8263
  134OSM   H16T14451   5.665   5.912   3.917  0.3458 -0.0099 -1.6519
  134OSM   C17S14452   5.542   6.064   4.011 -0.1344  0.1005  0.3992
  134OSM   H17S14453   5.440   6.022   3.999 -0.2575  0.6694 -0.6983
  134OSM   H17T14454   5.535   6.175   4.006  0.6712  0.2635  2.0309
  134OSM   C18S14455   5.591   6.027   4.149 -0.2351 -0.2557 -0.2396
  134OSM   H18S14456   5.621   5.920   4.152  2.3312  0.4125  0.9911
  134OSM   H18T14457   5.510   6.052   4.221 -0.7145 -2.3978  0.0287
  134OSM   H18U14458   5.681   6.085   4.178 -0.2167  0.2480 -1.2490
  134OSM    C1F14459   5.628   6.371   2.763 -0.4774 -0.1227  0.4698
  134OSM     OF14460   5.705   6.367   2.665  0.0789  0.1563 -0.0961
  134OSM    C2F14461   5.601   6.259   2.867  0.3159  0.7914 -0.3124
  134OSM    H2F14462   5.498   6.222   2.846  0.7534 -1.5893  1.2751
  134OSM    H2G14463   5.597   6.303   2.969  0.4279 -0.9441  0.4807
  134OSM    C3F14464   5.704   6.146   2.858  0.2019 -0.2512  0.1251
  134OSM    H3F14465   5.808   6.177   2.882  1.2548 -2.2398 -1.4547
  134OSM    H3G14466   5.705   6.108   2.753  1.1317 -0.4634  0.1971
  134OSM    C4F14467   5.673   6.024   2.949 -0.2251  0.6533  0.4072
  134OSM    H4F14468   5.752   5.947   2.932 -2.1393 -1.1463 -0.7903
  134OSM    H4G14469   5.572   5.985   2.924  0.0329  0.0912  0.2087
  134OSM    C5F14470   5.664   6.057   3.100 -0.1662 -0.6759 -0.1018
  134OSM    H5F14471   5.574   6.120   3.116 -0.4293 -0.7002 -1.3534
  134OSM    H5G14472   5.747   6.116   3.145 -1.9380 -0.4062  3.0308
  134OSM    C6F14473   5.653   5.932   3.179  0.2354  0.0823  0.2670
  134OSM    H6F14474   5.746   5.872   3.181  0.6428  0.6434 -0.9550
  134OSM    H6G14475   5.571   5.868   3.139 -0.8017  1.4629  0.1058
  134OSM    C7F14476   5.607   5.965   3.318  0.1214  0.3824 -0.6082
  134OSM    H7F14477   5.527   6.041   3.313 -1.3534 -1.1733 -1.6083
  134OSM    H7G14478   5.696   5.991   3.379  1.6051  0.5040 -2.7271
  134OSM    C8F14479   5.529   5.851   3.393 -0.2845 -0.9802 -0.0777
  134OSM    H8F14480   5.439   5.821   3.334 -0.7281 -1.5276  0.8560
  134OSM    H8G14481   5.489   5.895   3.486 -2.1127  0.8610 -1.6312
  134OSM    C9F14482   5.610   5.725   3.406  0.4246  0.6039 -0.3314
  134OSM    H9F14483   5.668   5.693   3.318  1.9088  1.3474  0.3394
  134OSM   C10F14484   5.628   5.659   3.521 -0.2399  0.2269 -0.1929
  134OSM   H10F14485   5.689   5.567   3.522  0.9600  0.9420 -2.0749
  134OSM   C11F14486   5.555   5.684   3.649 -0.0858  0.2540  0.2014
  134OSM   H11F14487   5.477   5.762   3.639  0.5759  0.8212 -0.7004
  134OSM   H11G14488   5.620   5.724   3.729 -0.3335  0.9924  0.0354
  134OSM   C12F14489   5.494   5.552   3.718 -0.5831 -1.4157 -0.3775
  134OSM   H12F14490   5.579   5.488   3.749  0.5515 -0.3921 -1.2964
  134OSM   H12G14491   5.442   5.494   3.639 -1.0343 -1.4950 -0.0278
  134OSM   C13F14492   5.394   5.567   3.838 -0.6800  0.3124  0.3573
  134OSM   H13F14493   5.314   5.490   3.848 -0.2092 -0.1481  0.6726
  134OSM   H13G14494   5.338   5.657   3.806 -0.2772  1.0791  1.7227
  134OSM   C14F14495   5.461   5.601   3.970  0.6178 -0.6364  0.2020
  134OSM   H14F14496   5.525   5.691   3.958  1.1351 -0.9522  0.5455
  134OSM   H14G14497   5.536   5.526   4.002 -0.2188 -1.5478  0.0451
  134OSM   C15F14498   5.377   5.609   4.107  0.4733  0.4430 -0.2444
  134OSM   H15F14499   5.328   5.511   4.125 -0.6666  0.9559 -0.4088
  134OSM   H15G14500   5.295   5.683   4.091 -0.2810 -0.1183  0.9013
  134OSM   C16F14501   5.455   5.651   4.226 -0.5314  0.1767 -0.1308
  134OSM   H16F14502   5.485   5.756   4.203  1.1255 -0.2798 -0.1731
  134OSM   H16G14503   5.547   5.589   4.233 -0.1052  0.6801 -1.1044
  134OSM   C17F14504   5.371   5.649   4.354  0.7713 -0.1656  0.0269
  134OSM   H17F14505   5.346   5.541   4.364  2.4523 -0.3910  2.6918
  134OSM   H17G14506   5.278   5.708   4.335  0.1598 -0.6620  1.3393
  134OSM   C18F14507   5.432   5.708   4.481  0.2420  0.0114 -0.0272
  134OSM   H18F14508   5.352   5.745   4.548 -2.2063  0.7567 -3.1152
  134OSM   H18G14509   5.500   5.794   4.461  0.8559  0.3789  3.1981
  134OSM   H18H14510   5.493   5.627   4.525  1.0426 -0.4698 -1.9168
  135OSM      N14511   2.780   1.577   2.363 -0.0016  0.0726  0.2304
  135OSM    C1514512   2.864   1.692   2.313  0.4777  0.6059  0.5207
  135OSM   H15A14513   2.898   1.747   2.400  0.0381  1.7657 -0.0190
  135OSM   H15B14514   2.817   1.759   2.243 -1.3699  0.1999  1.2937
  135OSM   H15C14515   2.958   1.650   2.282  0.3193  0.8982 -0.3796
  135OSM    C1414516   2.754   1.495   2.240 -0.2262  0.5969 -0.1864
  135OSM   H14A14517   2.691   1.411   2.265 -0.5646  0.9597  0.1979
  135OSM   H14B14518   2.843   1.456   2.192 -0.8222  1.0728 -1.7362
  135OSM   H14C14519   2.687   1.546   2.173 -2.1699  2.8692  3.2085
  135OSM    C1314520   2.858   1.500   2.463 -0.7126 -0.0050 -0.6768
  135OSM   H13A14521   2.880   1.565   2.546 -1.7233 -0.1163 -0.3146
  135OSM   H13B14522   2.959   1.483   2.428  0.0586  2.0982  0.3759
  135OSM   H13C14523   2.809   1.418   2.512  0.6837 -0.3524  0.1884
  135OSM    C1214524   2.654   1.625   2.425  0.6894 -0.2173 -0.5084
  135OSM   H12A14525   2.680   1.690   2.507  0.4940  0.0411 -0.6495
  135OSM   H12B14526   2.604   1.540   2.471  2.2870 -0.7929  0.2319
  135OSM    C1114527   2.554   1.707   2.326 -0.6282  0.2919  0.3714
  135OSM   H11A14528   2.615   1.784   2.274  0.2314 -1.7489 -1.8164
  135OSM   H11B14529   2.481   1.762   2.390  0.8133  0.7244  1.6795
  135OSM      P14530   2.395   1.503   2.277 -0.0134 -0.6328 -0.2888
  135OSM    O1314531   2.273   1.486   2.196  0.1450  0.0490 -0.4672
  135OSM    O1414532   2.483   1.381   2.302  0.2493  0.3456 -0.1544
  135OSM    O1114533   2.354   1.563   2.421  0.1913 -0.7764  0.1010
  135OSM    O1214534   2.485   1.627   2.224 -0.0205 -0.1378 -0.0939
  135OSM    C1S14535   2.296   1.480   2.519  0.6299  0.3308 -0.2533
  135OSM    H1S14536   2.336   1.376   2.521  1.1679  0.5499  1.1281
  135OSM    H1T14537   2.186   1.478   2.506  0.1063 -0.6738  3.3245
  135OSM     NF14538   2.311   1.423   2.757 -0.2580 -0.2076 -0.0830
  135OSM    HNF14539   2.223   1.419   2.803 -0.1637 -0.9750  0.0401
  135OSM    C2S14540   2.326   1.535   2.658 -0.0537  0.0689 -0.0813
  135OSM    H2S14541   2.432   1.566   2.664  0.5716 -1.9945  0.8750
  135OSM    C3S14542   2.239   1.664   2.681  0.2849  0.7170  1.1066
  135OSM    H3S14543   2.137   1.620   2.676  0.1272  1.2112 -1.0218
  135OSM     O314544   2.261   1.764   2.583 -0.1995 -0.8056 -0.8760
  135OSM    HO314545   2.304   1.720   2.510  1.8186  0.4852 -0.5589
  135OSM    C4S14546   2.267   1.712   2.818  0.0483  0.2616 -0.1376
  135OSM    H4S14547   2.364   1.762   2.835  0.4650  0.3120 -2.3537
  135OSM    C5S14548   2.184   1.706   2.926  0.3816 -0.1395  0.7376
  135OSM    H5S14549   2.085   1.660   2.914  0.3906 -0.7081  2.4787
  135OSM    C6S14550   2.218   1.756   3.060  0.4253  0.0686 -0.6795
  135OSM    H6S14551   2.171   1.693   3.139  0.8832  1.2860  0.6254
  135OSM    H6T14552   2.190   1.863   3.073 -2.4060 -0.6984  0.1831
  135OSM    C7S14553   2.371   1.758   3.103  0.3683  0.5779  0.1870
  135OSM    H7S14554   2.417   1.826   3.027  0.3982 -0.9644 -1.2298
  135OSM    H7T14555   2.419   1.659   3.092  0.4126  0.4982  1.0571
  135OSM    C8S14556   2.379   1.814   3.240  0.5936 -0.4713  0.0332
  135OSM    H8S14557   2.333   1.745   3.314 -0.5724 -0.2812 -0.4815
  135OSM    H8T14558   2.326   1.911   3.246  1.8617  0.2073  0.6485
  135OSM    C9S14559   2.520   1.846   3.289 -0.4522  0.4866 -0.0088
  135OSM    H9S14560   2.569   1.895   3.202  1.0120 -0.6233  0.1501
  135OSM    H9T14561   2.578   1.754   3.310  1.7096  1.7569 -0.1522
  135OSM   C10S14562   2.518   1.946   3.405 -0.1156  0.3539  0.3389
  135OSM   H10S14563   2.477   1.888   3.491  0.9851 -2.2555 -0.7770
  135OSM   H10T14564   2.440   2.021   3.382 -0.8449 -0.2572  0.7789
  135OSM   C11S14565   2.655   2.022   3.423 -0.4183 -0.5146  0.2616
  135OSM   H11S14566   2.668   2.105   3.350  0.6534  0.7776  1.8395
  135OSM   H11T14567   2.735   1.948   3.404 -0.4302 -0.4005 -0.2475
  135OSM   C12S14568   2.676   2.078   3.564  0.1074  0.0749  0.2626
  135OSM   H12S14569   2.677   1.988   3.629  0.3372 -0.6368 -0.7086
  135OSM   H12T14570   2.589   2.144   3.585 -0.6968 -1.0623  0.6214
  135OSM   C13S14571   2.809   2.154   3.578  1.1033  0.2527 -0.0910
  135OSM   H13S14572   2.786   2.240   3.512 -4.0576 -0.3097  0.5755
  135OSM   H13T14573   2.886   2.094   3.525  2.0492 -0.5870  2.1099
  135OSM   C14S14574   2.840   2.183   3.726 -0.1565  0.0437 -0.1697
  135OSM   H14S14575   2.941   2.227   3.742 -0.8958  1.4840  0.6802
  135OSM   H14T14576   2.834   2.086   3.781 -1.2130 -1.0458 -2.1020
  135OSM   C15S14577   2.752   2.284   3.798  0.5251 -0.2309 -0.1746
  135OSM   H15S14578   2.645   2.268   3.772  0.2678 -1.1409  1.3413
  135OSM   H15T14579   2.783   2.383   3.759 -0.8252 -0.6358 -2.4334
  135OSM   C16S14580   2.773   2.296   3.953 -0.3200 -0.1823  0.0471
  135OSM   H16S14581   2.863   2.360   3.967  1.0169 -2.0209  0.3633
  135OSM   H16T14582   2.805   2.194   3.985  2.8073  0.0632 -1.7781
  135OSM   C17S14583   2.649   2.359   4.023  0.4995 -0.1337  0.1440
  135OSM   H17S14584   2.559   2.297   4.004 -1.0660  1.8844  0.5659
  135OSM   H17T14585   2.622   2.457   3.978 -2.1037 -1.3627 -1.1698
  135OSM   C18S14586   2.657   2.399   4.177 -0.2793  0.4901 -0.5806
  135OSM   H18S14587   2.673   2.306   4.236  0.2247  0.5757 -0.5743
  135OSM   H18T14588   2.568   2.449   4.220  0.6032  0.6848  1.0937
  135OSM   H18U14589   2.746   2.464   4.189  0.0449 -0.0050 -0.2394
  135OSM    C1F14590   2.408   1.342   2.778  0.0054 -0.6540  0.1307
  135OSM     OF14591   2.516   1.357   2.727 -0.1894  0.1961 -0.1580
  135OSM    C2F14592   2.378   1.216   2.867  0.1788 -0.1353  0.0765
  135OSM    H2F14593   2.414   1.124   2.816 -2.0446 -2.3486  2.2256
  135OSM    H2G14594   2.268   1.205   2.879 -0.0463  3.3957  3.3939
  135OSM    C3F14595   2.434   1.226   3.008 -0.8761  0.3669  0.3766
  135OSM    H3F14596   2.545   1.214   3.003 -0.8422  1.0532 -3.1859
  135OSM    H3G14597   2.400   1.142   3.071  3.1228  0.7170  3.4060
  135OSM    C4F14598   2.407   1.368   3.073  0.0559 -1.0889 -0.8840
  135OSM    H4F14599   2.298   1.384   3.054  0.5695 -0.7633 -3.9234
  135OSM    H4G14600   2.462   1.441   3.011  1.6965 -0.8711  0.7202
  135OSM    C5F14601   2.442   1.383   3.222  0.3693  0.5150 -0.2433
  135OSM    H5F14602   2.395   1.297   3.272 -0.2483  0.4243 -0.9585
  135OSM    H5G14603   2.391   1.476   3.257 -1.1024  0.0922 -1.1638
  135OSM    C6F14604   2.586   1.398   3.244 -0.0460  0.2922 -0.5262
  135OSM    H6F14605   2.618   1.487   3.185  1.9527  0.9215  1.3719
  135OSM    H6G14606   2.641   1.312   3.200 -1.1701 -1.5445  1.4716
  135OSM    C7F14607   2.641   1.424   3.386  0.2386  0.4216  0.7143
  135OSM    H7F14608   2.624   1.331   3.445  2.0610 -0.2464  0.2508
  135OSM    H7G14609   2.592   1.509   3.438  0.0224  0.0734  1.0890
  135OSM    C8F14610   2.792   1.453   3.391  0.2345 -0.1520 -0.0639
  135OSM    H8F14611   2.842   1.375   3.329 -0.7673 -0.6552 -0.2655
  135OSM    H8G14612   2.832   1.435   3.493 -1.5244  0.5446  0.7906
  135OSM    C9F14613   2.834   1.592   3.351 -0.2905 -0.0107  0.3916
  135OSM    H9F14614   2.796   1.621   3.252 -1.3709 -2.4796  0.0186
  135OSM   C10F14615   2.903   1.687   3.424 -0.1218  0.4643  0.1160
  135OSM   H10F14616   2.929   1.783   3.379  1.7607 -0.9658 -2.0839
  135OSM   C11F14617   2.955   1.669   3.568 -0.0933 -0.6030  0.2643
  135OSM   H11F14618   3.063   1.691   3.553 -0.4515  0.5990 -0.7690
  135OSM   H11G14619   2.944   1.562   3.594  2.0976 -0.7478  0.7974
  135OSM   C12F14620   2.891   1.772   3.666  0.2556  0.0811 -0.3551
  135OSM   H12F14621   2.782   1.749   3.660  0.4430 -0.9771  0.0109
  135OSM   H12G14622   2.909   1.879   3.643  1.9086 -0.4106 -1.5317
  135OSM   C13F14623   2.944   1.742   3.804 -0.3137  0.3284  0.1013
  135OSM   H13F14624   3.050   1.773   3.808  0.1933 -1.1477 -1.2365
  135OSM   H13G14625   2.936   1.634   3.828 -0.0391 -0.1214 -1.6859
  135OSM   C14F14626   2.880   1.817   3.920  0.0128  0.1475  0.1654
  135OSM   H14F14627   2.769   1.810   3.921 -0.0764  0.8489  3.0348
  135OSM   H14G14628   2.904   1.926   3.917  0.6328 -0.0049 -1.2820
  135OSM   C15F14629   2.931   1.765   4.050 -0.2198 -0.1367  0.2280
  135OSM   H15F14630   2.886   1.823   4.133 -0.4944  1.5651 -1.0473
  135OSM   H15G14631   3.037   1.797   4.055 -0.2062 -0.2108  0.4405
  135OSM   C16F14632   2.911   1.621   4.093 -0.5147  0.2684 -0.5522
  135OSM   H16F14633   2.954   1.554   4.015 -2.6192  1.2714 -2.7037
  135OSM   H16G14634   2.805   1.591   4.103  0.0693 -2.0658 -0.8297
  135OSM   C17F14635   2.971   1.596   4.227  0.4313 -0.1559  0.0114
  135OSM   H17F14636   2.952   1.685   4.290  2.0456  0.5847 -0.4941
  135OSM   H17G14637   3.081   1.604   4.212  0.4429 -2.0650 -1.3972
  135OSM   C18F14638   2.929   1.471   4.302  0.2013  1.3298  0.2815
  135OSM   H18F14639   2.989   1.383   4.272 -1.5437  0.4337 -0.7171
  135OSM   H18G14640   2.822   1.447   4.287 -0.1636  3.6735 -1.4594
  135OSM   H18H14641   2.942   1.490   4.411  1.0201 -1.2047  0.6786
  136OSM      N14642   5.784   3.654   2.326 -0.0039 -0.1949  0.0771
  136OSM    C1514643   5.682   3.740   2.251  0.1598 -0.0711 -0.0802
  136OSM   H15A14644   5.651   3.693   2.159  0.1207  0.8310 -0.5385
  136OSM   H15B14645   5.723   3.838   2.231  0.1243 -0.4453 -2.2453
  136OSM   H15C14646   5.597   3.737   2.316  1.1638 -1.4215  1.2390
  136OSM    C1414647   5.903   3.643   2.239  0.0384  0.3162 -0.2876
  136OSM   H14A14648   5.900   3.565   2.164 -0.3707  1.2272 -1.2462
  136OSM   H14B14649   5.992   3.609   2.290  0.7948 -0.3144 -1.9658
  136OSM   H14C14650   5.933   3.713   2.162  4.1173 -3.3225 -2.5016
  136OSM    C1314651   5.813   3.724   2.453  0.0037 -0.2709 -0.3379
  136OSM   H13A14652   5.841   3.826   2.433 -0.6496 -0.5336 -2.9227
  136OSM   H13B14653   5.888   3.685   2.521  1.3624  2.6561 -0.0301
  136OSM   H13C14654   5.725   3.737   2.514  0.0948 -1.5292  0.0845
  136OSM    C1214655   5.731   3.517   2.356 -0.1434  0.0669  0.7713
  136OSM   H12A14656   5.713   3.457   2.267  0.2681 -0.1075  0.8005
  136OSM   H12B14657   5.641   3.528   2.415 -1.1325  0.7447 -0.7982
  136OSM    C1114658   5.826   3.434   2.442  0.6310 -0.1859 -0.1610
  136OSM   H11A14659   5.768   3.341   2.460 -0.6594  0.2660 -1.7965
  136OSM   H11B14660   5.830   3.488   2.539 -0.9848  2.6121 -1.5167
  136OSM      P14661   5.983   3.271   2.322 -0.0401  0.0783  0.1423
  136OSM    O1314662   5.873   3.234   2.232  0.5891  0.0664  0.6767
  136OSM    O1414663   6.117   3.263   2.256 -0.9475 -0.3726 -0.2196
  136OSM    O1114664   5.974   3.176   2.445 -0.4675 -0.3537 -0.2868
  136OSM    O1214665   5.962   3.414   2.385  0.1873 -0.1251  0.6669
  136OSM    C1S14666   6.091   3.131   2.512  0.9338  0.4812 -0.1070
  136OSM    H1S14667   6.098   3.188   2.607  0.6926 -0.2829  0.3726
  136OSM    H1T14668   6.188   3.143   2.459  0.9647 -2.2200 -0.7836
  136OSM     NF14669   6.175   2.941   2.649  0.0842 -0.7657  0.0762
  136OSM    HNF14670   6.251   2.887   2.616 -1.2840 -1.5330 -1.9844
  136OSM    C2S14671   6.084   2.977   2.541 -0.1218 -0.2875 -0.7832
  136OSM    H2S14672   5.985   2.961   2.588  0.6061  0.2181  1.0173
  136OSM    C3S14673   6.090   2.885   2.420 -0.4077 -0.2289  0.5476
  136OSM    H3S14674   6.196   2.898   2.389  0.9095  0.0033  4.5623
  136OSM     O314675   6.017   2.927   2.303  0.3145 -0.0590 -0.5512
  136OSM    HO314676   5.990   3.017   2.326 -1.6270 -0.6351 -0.3603
  136OSM    C4S14677   6.049   2.751   2.462  0.0150  0.5700  0.5264
  136OSM    H4S14678   5.957   2.753   2.521  1.4740  1.1966  2.9130
  136OSM    C5S14679   6.111   2.637   2.435 -0.7792 -0.1382  0.9370
  136OSM    H5S14680   6.193   2.644   2.362 -0.9921 -1.5552  0.5372
  136OSM    C6S14681   6.078   2.508   2.502 -0.0939 -0.2652  0.2793
  136OSM    H6S14682   6.171   2.450   2.484  0.5315  1.0914 -1.1152
  136OSM    H6T14683   6.009   2.441   2.447  1.4727 -1.3487 -0.4375
  136OSM    C7S14684   6.046   2.515   2.651  0.3123 -0.1620  0.4007
  136OSM    H7S14685   5.997   2.418   2.674  0.5286 -0.0412  1.4335
  136OSM    H7T14686   5.960   2.579   2.678 -0.7170 -1.3697  0.0485
  136OSM    C8S14687   6.165   2.530   2.752 -0.7418 -0.1734  0.5066
  136OSM    H8S14688   6.215   2.628   2.734  0.7466 -1.1454 -0.9908
  136OSM    H8T14689   6.251   2.464   2.731 -1.0586  0.0149 -1.6899
  136OSM    C9S14690   6.114   2.502   2.884 -0.1078  0.3335  0.9516
  136OSM    H9S14691   6.089   2.394   2.886 -1.6929  0.5822 -1.5315
  136OSM    H9T14692   6.012   2.545   2.882 -0.4534 -0.4809 -0.0394
  136OSM   C10S14693   6.203   2.559   2.990  0.4757  0.3968  0.0503
  136OSM   H10S14694   6.195   2.669   2.983 -0.4778  0.3029 -0.4591
  136OSM   H10T14695   6.305   2.519   2.971 -0.4093 -1.2797 -1.4649
  136OSM   C11S14696   6.168   2.512   3.132  0.2165  0.4091  0.7565
  136OSM   H11S14697   6.193   2.404   3.136  0.0178  0.0989 -3.0093
  136OSM   H11T14698   6.062   2.531   3.162  0.8333 -0.2769  3.7465
  136OSM   C12S14699   6.242   2.584   3.236 -0.1732 -0.0307  0.2111
  136OSM   H12S14700   6.225   2.694   3.233  2.1419  0.3591 -1.1919
  136OSM   H12T14701   6.351   2.569   3.221 -0.3615 -0.8713 -0.3761
  136OSM   C13S14702   6.217   2.522   3.378  0.0054 -0.2334  0.5555
  136OSM   H13S14703   6.247   2.416   3.366 -1.2729 -0.2815 -3.6477
  136OSM   H13T14704   6.107   2.518   3.393 -0.1340 -0.2578 -0.4406
  136OSM   C14S14705   6.272   2.606   3.496 -0.1246  0.1668 -0.3676
  136OSM   H14S14706   6.231   2.709   3.490 -1.3188 -0.3272 -1.1788
  136OSM   H14T14707   6.383   2.597   3.496 -0.2255 -2.5791 -2.2346
  136OSM   C15S14708   6.222   2.547   3.627  0.0930 -0.1546  0.0972
  136OSM   H15S14709   6.215   2.436   3.620  1.1523 -0.1303 -2.8168
  136OSM   H15T14710   6.118   2.586   3.633 -0.1415 -0.9652  3.1985
  136OSM   C16S14711   6.279   2.597   3.751 -0.5282 -0.6158  0.0964
  136OSM   H16S14712   6.315   2.702   3.745 -0.6676 -0.6401 -1.4441
  136OSM   H16T14713   6.378   2.548   3.762 -0.0229  0.8740  3.7658
  136OSM   C17S14714   6.186   2.568   3.873  0.4137 -0.1332 -0.5108
  136OSM   H17S14715   6.086   2.591   3.831  0.2141  0.8018  0.4124
  136OSM   H17T14716   6.199   2.644   3.953 -0.5048 -0.2533 -0.2322
  136OSM   C18S14717   6.181   2.414   3.920 -0.4109 -0.7369 -0.5290
  136OSM   H18S14718   6.282   2.395   3.962 -0.7541  0.3399  0.8659
  136OSM   H18T14719   6.172   2.344   3.834  1.3980  0.0027 -1.3689
  136OSM   H18U14720   6.102   2.400   3.997 -0.9717  3.3056 -0.1506
  136OSM    C1F14721   6.155   2.983   2.772 -0.3256 -0.5779  0.8546
  136OSM     OF14722   6.057   3.052   2.813 -0.2829 -0.0726 -0.3627
  136OSM    C2F14723   6.265   2.947   2.870 -0.0500  0.4826  0.3686
  136OSM    H2F14724   6.294   2.840   2.864  0.7848  0.7200  0.0500
  136OSM    H2G14725   6.235   2.974   2.974 -0.3058 -2.8129  1.2797
  136OSM    C3F14726   6.393   3.024   2.840  0.2079  0.5254  0.1941
  136OSM    H3F14727   6.373   3.133   2.843 -0.9313  0.3958 -1.4423
  136OSM    H3G14728   6.405   2.989   2.736  1.7198  0.5113  0.3488
  136OSM    C4F14729   6.523   2.984   2.910 -0.4186  0.2205  1.0506
  136OSM    H4F14730   6.608   3.034   2.859 -0.2646  1.0457  2.0713
  136OSM    H4G14731   6.547   2.876   2.910 -0.1677  0.2491 -1.0531
  136OSM    C5F14732   6.517   3.014   3.055  0.0676  0.5495 -0.3370
  136OSM    H5F14733   6.425   2.975   3.105 -0.5489  3.3409  0.8838
  136OSM    H5G14734   6.507   3.124   3.063  1.8086  0.7315 -0.4137
  136OSM    C6F14735   6.648   2.992   3.124 -0.3591 -0.1862  0.3766
  136OSM    H6F14736   6.706   3.068   3.068 -1.8517 -0.3295 -1.5038
  136OSM    H6G14737   6.698   2.896   3.097  0.4560  0.8144 -1.8873
  136OSM    C7F14738   6.651   2.992   3.280  0.8184 -0.0818  0.0405
  136OSM    H7F14739   6.756   2.986   3.314  0.6978  0.6621  0.5837
  136OSM    H7G14740   6.590   2.904   3.311  0.9050  0.2399  1.1825
  136OSM    C8F14741   6.578   3.108   3.351 -0.1769  0.3947  0.1031
  136OSM    H8F14742   6.580   3.096   3.461  2.6055 -1.3320 -0.0418
  136OSM    H8G14743   6.476   3.103   3.308  0.0557 -0.3678 -0.3811
  136OSM    C9F14744   6.627   3.237   3.306 -0.4001 -0.5045  0.2289
  136OSM    H9F14745   6.617   3.257   3.198  2.8904  2.3283  0.2755
  136OSM   C10F14746   6.664   3.339   3.382 -0.0018  0.1948  0.0307
  136OSM   H10F14747   6.699   3.434   3.340 -1.0523  0.4564 -0.2780
  136OSM   C11F14748   6.690   3.343   3.529  0.2361 -0.1527  0.5551
  136OSM   H11F14749   6.798   3.357   3.548 -0.0430  1.6014  1.0318
  136OSM   H11G14750   6.669   3.248   3.584  2.0633  0.6668  2.8014
  136OSM   C12F14751   6.624   3.468   3.598  0.1010 -0.1651 -0.9438
  136OSM   H12F14752   6.513   3.468   3.587  0.1487  1.4252 -1.8894
  136OSM   H12G14753   6.673   3.556   3.551  2.2613 -1.0851 -0.5296
  136OSM   C13F14754   6.651   3.468   3.757 -0.0517 -0.8145 -0.3414
  136OSM   H13F14755   6.758   3.440   3.769  0.8614  3.0871  2.6115
  136OSM   H13G14756   6.584   3.400   3.813 -1.6652  0.6877 -0.3698
  136OSM   C14F14757   6.629   3.603   3.833  1.1288 -0.5270  0.2388
  136OSM   H14F14758   6.520   3.616   3.814  1.1758 -0.7707 -0.2131
  136OSM   H14G14759   6.676   3.692   3.786 -0.0229  0.6606  1.2595
  136OSM   C15F14760   6.659   3.600   3.982 -0.0505 -0.0369 -0.0868
  136OSM   H15F14761   6.721   3.687   4.011  3.4636 -2.6294  0.8340
  136OSM   H15G14762   6.727   3.515   4.006 -0.2729 -0.5294 -1.1186
  136OSM   C16F14763   6.546   3.592   4.083  0.1698  1.0229 -0.4591
  136OSM   H16F14764   6.511   3.487   4.091  0.4422  1.0837  3.2122
  136OSM   H16G14765   6.458   3.657   4.066 -0.4985 -0.2866 -2.5068
  136OSM   C17F14766   6.603   3.621   4.223  0.0357 -0.2229 -0.0576
  136OSM   H17F14767   6.666   3.712   4.225  3.8017 -2.6355  0.5700
  136OSM   H17G14768   6.661   3.532   4.253  1.1028 -0.4869 -2.6401
  136OSM   C18F14769   6.484   3.626   4.322 -0.0990 -0.3709 -0.9763
  136OSM   H18F14770   6.445   3.524   4.342  1.2633 -0.7261 -0.0599
  136OSM   H18G14771   6.402   3.691   4.283 -1.2304 -0.9935  0.3095
  136OSM   H18H14772   6.534   3.663   4.414  1.0682 -0.2895 -1.6339
  137OSM      N14773   3.255   1.234   2.528 -0.7354 -0.4062 -0.0359
  137OSM    C1514774   3.187   1.173   2.409  0.2150 -0.3375  0.7552
  137OSM   H15A14775   3.113   1.233   2.359 -0.6712 -0.5092  1.8203
  137OSM   H15B14776   3.136   1.081   2.433  1.3687 -1.3381 -0.4571
  137OSM   H15C14777   3.264   1.154   2.335  0.2499 -0.1720  0.7486
  137OSM    C1414778   3.354   1.130   2.578 -0.7287 -0.0844 -0.3074
  137OSM   H14A14779   3.301   1.042   2.612 -1.6688  0.4919 -0.2260
  137OSM   H14B14780   3.412   1.171   2.659 -1.2310  0.4131 -0.1965
  137OSM   H14C14781   3.429   1.122   2.500  0.7671  1.1926  0.9377
  137OSM    C1314782   3.319   1.357   2.477 -0.1640 -0.0842 -0.0280
  137OSM   H13A14783   3.382   1.408   2.548  0.0286 -1.5592  0.8996
  137OSM   H13B14784   3.241   1.424   2.442  0.6974  1.4606  0.9205
  137OSM   H13C14785   3.389   1.339   2.397 -0.5692  3.1506 -1.2874
  137OSM    C1214786   3.158   1.258   2.646  1.1841 -0.1803  0.3350
  137OSM   H12A14787   3.115   1.162   2.670 -0.2795  0.3809  0.0693
  137OSM   H12B14788   3.079   1.324   2.614 -0.0692 -1.2427  1.1720
  137OSM    C1114789   3.206   1.307   2.781 -0.3270  0.2612  0.8184
  137OSM   H11A14790   3.298   1.260   2.822  0.7831  3.3618  2.2391
  137OSM   H11B14791   3.116   1.289   2.844 -0.8826  0.1529  0.0047
  137OSM      P14792   3.141   1.558   2.764  0.1344  0.2722  0.0998
  137OSM    O1314793   3.206   1.677   2.700 -0.2626  0.2064  0.0604
  137OSM    O1414794   3.022   1.504   2.697 -0.4110  0.4329  0.1185
  137OSM    O1114795   3.115   1.590   2.915 -0.4430  0.6243  0.2389
  137OSM    O1214796   3.246   1.443   2.772 -0.0805 -1.2061 -0.1034
  137OSM    C1S14797   3.211   1.667   2.990  0.4502  0.0849  0.5380
  137OSM    H1S14798   3.203   1.775   2.965  0.5783 -0.4305 -1.9759
  137OSM    H1T14799   3.316   1.634   2.971  0.9955  1.6422  0.6316
  137OSM     NF14800   3.256   1.758   3.207 -0.4872  0.2886 -0.2071
  137OSM    HNF14801   3.353   1.745   3.222 -0.7450 -0.4061  0.9836
  137OSM    C2S14802   3.180   1.656   3.141 -0.1342  0.9826 -0.5706
  137OSM    H2S14803   3.071   1.670   3.157  0.1027  0.9461  1.1847
  137OSM    C3S14804   3.218   1.510   3.187 -0.1507 -0.4632  0.3367
  137OSM    H3S14805   3.319   1.481   3.150  1.9912  5.0759  0.9564
  137OSM     O314806   3.126   1.403   3.157 -0.4503  0.0817  0.0726
  137OSM    HO314807   3.073   1.429   3.081  0.0379 -0.3457 -0.4229
  137OSM    C4S14808   3.214   1.507   3.341 -0.6646  0.0380 -0.1918
  137OSM    H4S14809   3.125   1.560   3.378 -0.2189 -0.9621  2.4911
  137OSM    C5S14810   3.299   1.447   3.430  0.2846  0.1564  0.0658
  137OSM    H5S14811   3.378   1.375   3.404 -0.9179 -1.3445  0.4796
  137OSM    C6S14812   3.287   1.451   3.580 -0.1817  0.4447  0.6105
  137OSM    H6S14813   3.293   1.347   3.619 -0.7406  0.1855  0.0311
  137OSM    H6T14814   3.183   1.488   3.597  0.6643  2.6649  1.3719
  137OSM    C7S14815   3.383   1.554   3.647 -0.1138 -0.4147 -0.1133
  137OSM    H7S14816   3.373   1.653   3.597 -0.7198  0.2228  1.2137
  137OSM    H7T14817   3.490   1.524   3.643 -0.0479 -0.4679  1.3496
  137OSM    C8S14818   3.353   1.576   3.797  0.7401  0.1820 -0.0031
  137OSM    H8S14819   3.243   1.591   3.806  0.7573 -0.5104  1.7436
  137OSM    H8T14820   3.389   1.675   3.833 -1.8563  0.7583  1.2710
  137OSM    C9S14821   3.391   1.450   3.878 -0.1457 -0.8916  0.0643
  137OSM    H9S14822   3.502   1.440   3.873 -0.0740  0.3991 -1.6793
  137OSM    H9T14823   3.346   1.363   3.826 -1.1931 -1.5865  2.0218
  137OSM   C10S14824   3.336   1.460   4.022 -0.4877  0.0207  0.6272
  137OSM   H10S14825   3.226   1.453   4.021 -0.4386 -1.2815  1.7585
  137OSM   H10T14826   3.373   1.543   4.086 -1.4483  0.7134  0.2975
  137OSM   C11S14827   3.371   1.331   4.113  0.2772  0.0297  0.5183
  137OSM   H11S14828   3.318   1.241   4.075 -2.5854  1.8942 -0.2178
  137OSM   H11T14829   3.317   1.355   4.207 -0.3795  0.7067 -0.0128
  137OSM   C12S14830   3.513   1.294   4.153 -0.2731 -0.2860  0.3498
  137OSM   H12S14831   3.558   1.270   4.055 -0.4206  1.4622 -0.1770
  137OSM   H12T14832   3.494   1.203   4.214  0.1519 -0.5167  0.1404
  137OSM   C13S14833   3.590   1.395   4.230 -0.0806  0.3276  0.0648
  137OSM   H13S14834   3.621   1.479   4.163  0.3660 -1.1495 -1.6779
  137OSM   H13T14835   3.690   1.352   4.254  0.2495  0.6003 -0.7529
  137OSM   C14S14836   3.529   1.454   4.356 -0.1182  0.8087  0.4754
  137OSM   H14S14837   3.421   1.477   4.346  0.2979  2.4244 -0.7587
  137OSM   H14T14838   3.575   1.539   4.413 -0.6045  2.1994 -1.1311
  137OSM   C15S14839   3.514   1.343   4.464  0.0886  0.2339 -0.2127
  137OSM   H15S14840   3.620   1.317   4.484 -0.1653 -0.8046 -0.1496
  137OSM   H15T14841   3.456   1.257   4.424 -2.2316 -0.5228  4.1574
  137OSM   C16S14842   3.442   1.379   4.594 -0.4619 -0.6942  0.5720
  137OSM   H16S14843   3.391   1.285   4.624 -2.1356 -0.2133 -0.5984
  137OSM   H16T14844   3.367   1.458   4.574  0.4412  0.1868  0.5834
  137OSM   C17S14845   3.544   1.436   4.689  0.4747  0.1943 -0.6901
  137OSM   H17S14846   3.595   1.529   4.654 -0.6852  0.9119 -0.5273
  137OSM   H17T14847   3.624   1.359   4.696  0.0313 -0.3606 -1.5869
  137OSM   C18S14848   3.481   1.454   4.833  0.1401 -0.4115  0.0458
  137OSM   H18S14849   3.550   1.520   4.889 -0.6743 -0.3466  1.0025
  137OSM   H18T14850   3.452   1.361   4.886 -0.6564  0.8715  1.9707
  137OSM   H18U14851   3.387   1.509   4.813  0.4672 -0.6890 -2.7192
  137OSM    C1F14852   3.203   1.875   3.224 -0.2501 -0.2848 -0.6405
  137OSM     OF14853   3.086   1.892   3.180  0.2505  0.2102  0.5809
  137OSM    C2F14854   3.281   1.987   3.284 -0.7170  0.1492 -0.3356
  137OSM    H2F14855   3.226   2.084   3.281 -2.0094 -0.5088  0.6465
  137OSM    H2G14856   3.371   2.012   3.225 -1.5371 -0.8444 -2.0622
  137OSM    C3F14857   3.300   1.964   3.437  0.1131  0.4968 -0.5434
  137OSM    H3F14858   3.383   2.027   3.476 -1.6482  2.1158  0.8743
  137OSM    H3G14859   3.329   1.858   3.451 -0.2608  0.1680 -2.0786
  137OSM    C4F14860   3.176   1.985   3.530  0.6822 -0.3397  0.2093
  137OSM    H4F14861   3.102   1.914   3.488  0.5480  0.2767 -0.6176
  137OSM    H4G14862   3.143   2.089   3.511  0.1727 -0.5174  0.1018
  137OSM    C5F14863   3.212   1.966   3.679  0.5020  0.3425  0.1450
  137OSM    H5F14864   3.244   1.862   3.700 -0.1297 -0.6373 -3.2105
  137OSM    H5G14865   3.113   1.987   3.725  0.2602  0.1781 -0.2995
  137OSM    C6F14866   3.318   2.055   3.742 -0.1776 -0.6100  0.1639
  137OSM    H6F14867   3.313   2.155   3.695 -1.1959 -0.2770  0.9365
  137OSM    H6G14868   3.422   2.016   3.731 -0.0944 -0.9348  1.7858
  137OSM    C7F14869   3.315   2.071   3.897 -0.0959 -0.2077  0.0135
  137OSM    H7F14870   3.395   2.145   3.918  0.5839 -1.6209  2.9156
  137OSM    H7G14871   3.346   1.971   3.934 -0.3807 -0.2520  0.1396
  137OSM    C8F14872   3.188   2.119   3.965  0.2316 -0.2364  0.8056
  137OSM    H8F14873   3.114   2.039   3.983  0.1100 -0.4445 -0.5366
  137OSM    H8G14874   3.136   2.202   3.913 -0.3634 -0.3994  1.1348
  137OSM    C9F14875   3.230   2.176   4.096  0.9181  0.4477 -0.1818
  137OSM    H9F14876   3.314   2.245   4.082  0.3788  0.8808 -1.3893
  137OSM   C10F14877   3.190   2.139   4.220 -0.2647 -0.6171  0.0498
  137OSM   H10F14878   3.223   2.190   4.312  0.0708  2.4109 -1.6130
  137OSM   C11F14879   3.101   2.020   4.257  0.5254  0.0155 -0.4093
  137OSM   H11F14880   3.049   1.987   4.164  1.4266  1.5354 -1.4872
  137OSM   H11G14881   3.028   2.059   4.331  0.1893 -0.2694 -0.5819
  137OSM   C12F14882   3.188   1.910   4.325  0.2898  0.1464 -0.5177
  137OSM   H12F14883   3.286   1.898   4.274  2.0724  0.4880  2.5678
  137OSM   H12G14884   3.139   1.813   4.305  1.8478 -0.3266 -2.2531
  137OSM   C13F14885   3.209   1.935   4.474  0.2835  0.3524  0.3230
  137OSM   H13F14886   3.117   1.982   4.515  1.0232  1.0488  1.2336
  137OSM   H13G14887   3.284   2.017   4.470 -0.4112  1.1450  2.3337
  137OSM   C14F14888   3.258   1.815   4.554  0.6149  0.4256 -0.1240
  137OSM   H14F14889   3.358   1.794   4.511  0.5655 -1.7973  0.7150
  137OSM   H14G14890   3.195   1.725   4.536 -0.4912  1.1347  0.0794
  137OSM   C15F14891   3.256   1.836   4.710  0.1281  0.0757  0.1049
  137OSM   H15F14892   3.315   1.930   4.721  0.6854 -0.2089 -0.3939
  137OSM   H15G14893   3.309   1.752   4.760  0.4641 -0.8009 -1.6491
  137OSM   C16F14894   3.121   1.839   4.775  0.1876 -0.0706 -0.3475
  137OSM   H16F14895   3.050   1.899   4.713  0.4410  0.4952 -0.0972
  137OSM   H16G14896   3.128   1.878   4.879  1.3742  1.7328 -1.0446
  137OSM   C17F14897   3.058   1.700   4.798  0.4993 -0.3773 -0.0901
  137OSM   H17F14898   3.116   1.656   4.882  0.8634 -3.3097 -1.7348
  137OSM   H17G14899   3.090   1.637   4.712  0.5055 -0.1255 -0.2722
  137OSM   C18F14900   2.905   1.699   4.829 -0.2807 -0.0491  0.2812
  137OSM   H18F14901   2.878   1.781   4.899  0.3005  1.0678 -0.7698
  137OSM   H18G14902   2.869   1.606   4.879  1.5815 -0.0483  1.7623
  137OSM   H18H14903   2.856   1.728   4.735 -1.8933 -1.5955  0.5900
  138OSM      N14904   0.791   2.363   2.144  0.1182 -0.3150 -0.1903
  138OSM    C1514905   0.804   2.514   2.142  0.4209 -0.9222 -0.0081
  138OSM   H15A14906   0.906   2.544   2.159 -0.4679  1.0704  2.6035
  138OSM   H15B14907   0.745   2.559   2.221 -0.0084  0.7456 -1.2128
  138OSM   H15C14908   0.774   2.546   2.043 -0.8014 -2.0054 -0.0179
  138OSM    C1414909   0.645   2.325   2.150 -0.3434  0.0872 -0.8182
  138OSM   H14A14910   0.591   2.361   2.063 -1.0701 -1.4745 -1.0333
  138OSM   H14B14911   0.596   2.363   2.238 -1.0383  0.1680 -1.2301
  138OSM   H14C14912   0.630   2.219   2.154 -1.6054  0.2782  0.1708
  138OSM    C1314913   0.845   2.321   2.017  0.1743  0.5286  0.1235
  138OSM   H13A14914   0.952   2.338   2.015  0.0015  1.7215  0.2920
  138OSM   H13B14915   0.790   2.361   1.934 -0.4846 -0.0711  0.2643
  138OSM   H13C14916   0.835   2.214   2.016  0.2990  0.4128  3.0173
  138OSM    C1214917   0.863   2.301   2.265 -0.7526  0.0925 -1.0402
  138OSM   H12A14918   0.842   2.196   2.279  0.8087  0.1321  3.7993
  138OSM   H12B14919   0.837   2.352   2.357  1.7690 -2.0388  1.0447
  138OSM    C1114920   1.013   2.292   2.274 -0.0258  0.2385  0.0840
  138OSM   H11A14921   1.045   2.246   2.369  1.3827 -0.7583 -0.8364
  138OSM   H11B14922   1.050   2.395   2.293  1.0904 -0.0487 -0.4978
  138OSM      P14923   1.072   2.077   2.141 -0.1615 -0.2778 -0.3949
  138OSM    O1314924   0.973   2.054   2.035  0.6789  0.9186  0.4605
  138OSM    O1414925   1.205   2.022   2.106 -0.2447 -0.1350 -0.6779
  138OSM    O1114926   1.025   2.025   2.282 -0.1900 -0.8746 -0.2805
  138OSM    O1214927   1.083   2.239   2.158 -0.0436 -0.2004  0.1370
  138OSM    C1S14928   1.109   1.980   2.387  0.7265 -0.4723  1.0204
  138OSM    H1S14929   1.192   2.051   2.411 -1.9141  3.6270 -0.7596
  138OSM    H1T14930   1.157   1.887   2.350  2.8323  0.4135  1.3404
  138OSM     NF14931   1.114   1.885   2.611  0.2924  0.0072 -0.4891
  138OSM    HNF14932   1.085   1.796   2.646 -1.5585  0.5903 -0.4149
  138OSM    C2S14933   1.026   1.946   2.509  0.5869  0.6624  0.4948
  138OSM    H2S14934   0.996   2.043   2.555  3.5210  1.0941  1.7224
  138OSM    C3S14935   0.901   1.856   2.478  0.7052  0.0397  0.1787
  138OSM    H3S14936   0.940   1.757   2.448 -1.8939 -1.0727  0.2393
  138OSM     O314937   0.819   1.898   2.365 -0.3327  0.1643  0.0795
  138OSM    HO314938   0.887   1.914   2.300 -0.2821 -0.0048  0.0896
  138OSM    C4S14939   0.806   1.839   2.600 -0.2478  0.3174  0.2986
  138OSM    H4S14940   0.788   1.735   2.628 -2.0736  0.2947 -0.7907
  138OSM    C5S14941   0.721   1.936   2.651  0.1421 -0.1433  0.5401
  138OSM    H5S14942   0.741   2.039   2.618 -0.5188 -0.3281 -0.4860
  138OSM    C6S14943   0.614   1.928   2.764 -0.2155  0.0279  0.5889
  138OSM    H6S14944   0.516   1.973   2.738  0.1423  0.5375  0.1057
  138OSM    H6T14945   0.647   1.997   2.845 -1.1438  1.0662  0.1099
  138OSM    C7S14946   0.585   1.789   2.827  0.0663  0.4487 -0.0842
  138OSM    H7S14947   0.687   1.753   2.852 -0.4623 -0.7367  0.4529
  138OSM    H7T14948   0.514   1.731   2.764 -0.4900  1.0470 -0.0189
  138OSM    C8S14949   0.508   1.799   2.960  0.4296 -0.2185 -0.3828
  138OSM    H8S14950   0.491   1.693   2.986  0.2700 -0.2633 -0.6651
  138OSM    H8T14951   0.409   1.850   2.955  0.1716 -0.7246 -0.5067
  138OSM    C9S14952   0.584   1.872   3.068  0.3749  0.1021 -0.4392
  138OSM    H9S14953   0.570   1.982   3.059  1.2303  0.1349 -1.5979
  138OSM    H9T14954   0.692   1.865   3.042  0.9424  1.5701  1.2975
  138OSM   C10S14955   0.547   1.813   3.205 -0.0421 -0.2521  0.0095
  138OSM   H10S14956   0.563   1.703   3.217 -2.1846 -0.4252  2.0348
  138OSM   H10T14957   0.440   1.818   3.236 -0.1733  1.1455 -0.6178
  138OSM   C11S14958   0.612   1.893   3.306  0.0569 -0.3879  0.2375
  138OSM   H11S14959   0.574   1.997   3.300 -1.4197 -0.9749 -2.9406
  138OSM   H11T14960   0.722   1.897   3.289  0.2460 -1.2756  1.1491
  138OSM   C12S14961   0.570   1.842   3.449 -0.4542 -0.3278 -0.0599
  138OSM   H12S14962   0.464   1.813   3.432 -1.0794  1.9649 -0.4656
  138OSM   H12T14963   0.575   1.923   3.525  2.4549  0.1667 -0.6595
  138OSM   C13S14964   0.658   1.722   3.486  0.5732  0.0171 -0.7415
  138OSM   H13S14965   0.750   1.780   3.509  0.9630 -0.4189 -1.1870
  138OSM   H13T14966   0.679   1.658   3.398 -0.2725 -3.9851  1.6745
  138OSM   C14S14967   0.611   1.632   3.606  0.4997 -0.0757  0.0800
  138OSM   H14S14968   0.672   1.539   3.604  0.1906 -0.2755 -0.9455
  138OSM   H14T14969   0.505   1.605   3.592  0.4112  0.7061 -0.8605
  138OSM   C15S14970   0.636   1.699   3.740  0.4597 -0.2455  0.6872
  138OSM   H15S14971   0.567   1.785   3.742 -0.2776 -0.7520 -1.0514
  138OSM   H15T14972   0.742   1.732   3.750  1.4207 -3.0925  0.9460
  138OSM   C16S14973   0.590   1.598   3.848 -0.6708  0.3645  0.5100
  138OSM   H16S14974   0.665   1.518   3.836  0.0294  1.0268  0.4093
  138OSM   H16T14975   0.489   1.557   3.827 -0.4136 -2.3360  3.7029
  138OSM   C17S14976   0.591   1.657   3.983  0.6526 -0.8197  0.7146
  138OSM   H17S14977   0.510   1.733   3.979  0.5254 -0.9624 -2.9030
  138OSM   H17T14978   0.690   1.705   4.001  0.7705 -0.4534 -0.8059
  138OSM   C18S14979   0.555   1.553   4.081 -0.0089  0.8929  0.1763
  138OSM   H18S14980   0.577   1.593   4.182 -1.1622  3.7483 -0.5950
  138OSM   H18T14981   0.617   1.462   4.072  0.4460  0.9915  1.9885
  138OSM   H18U14982   0.447   1.529   4.079 -0.1048  1.3149  0.2216
  138OSM    C1F14983   1.216   1.950   2.667 -0.1139 -0.6733 -0.7631
  138OSM     OF14984   1.225   2.070   2.651 -0.4327  0.6901 -0.2260
  138OSM    C2F14985   1.310   1.868   2.755  0.6511 -0.7337  0.5376
  138OSM    H2F14986   1.382   1.830   2.680  1.5759 -1.9244  1.9786
  138OSM    H2G14987   1.250   1.780   2.785 -1.2398 -1.2531 -3.9722
  138OSM    C3F14988   1.372   1.951   2.870  0.4897  0.5140 -0.2797
  138OSM    H3F14989   1.303   1.988   2.948 -1.1607  0.2862 -1.5819
  138OSM    H3G14990   1.419   2.041   2.824  0.8508 -0.6536 -2.3285
  138OSM    C4F14991   1.491   1.881   2.921 -0.4728 -0.3250  0.7270
  138OSM    H4F14992   1.532   1.940   3.005 -2.0200 -0.1948  1.4208
  138OSM    H4G14993   1.563   1.876   2.837 -1.5739  0.8181 -0.3327
  138OSM    C5F14994   1.465   1.737   2.971  0.3234  0.0341 -0.0987
  138OSM    H5F14995   1.451   1.669   2.885  1.4154  1.5253 -1.5246
  138OSM    H5G14996   1.370   1.730   3.028 -0.6460  2.2209 -1.3159
  138OSM    C6F14997   1.573   1.673   3.074 -0.2563 -0.6229  0.0443
  138OSM    H6F14998   1.678   1.687   3.041  0.0938 -1.9258  0.5243
  138OSM    H6G14999   1.548   1.565   3.079 -1.4762 -0.3500  0.1345
  138OSM    C7F15000   1.558   1.733   3.212  0.0172  0.0994 -0.4719
  138OSM    H7F15001   1.452   1.731   3.247 -0.3136  0.4736 -1.4379
  138OSM    H7G15002   1.585   1.840   3.204  0.8469 -0.1503 -1.1619
  138OSM    C8F15003   1.627   1.670   3.329 -0.1931  0.0196 -0.0124
  138OSM    H8F15004   1.619   1.733   3.420  1.8108 -0.0565  0.2669
  138OSM    H8G15005   1.737   1.678   3.319 -0.0639 -0.5632  0.8118
  138OSM    C9F15006   1.595   1.526   3.365  0.3997 -0.0180  0.6525
  138OSM    H9F15007   1.573   1.456   3.283  0.2159  0.1789  0.5357
  138OSM   C10F15008   1.544   1.499   3.486  0.0765  0.8367  0.2552
  138OSM   H10F15009   1.507   1.397   3.505  3.5187 -0.7378 -0.6171
  138OSM   C11F15010   1.528   1.582   3.611  0.4547  0.4700 -0.2622
  138OSM   H11F15011   1.510   1.689   3.584 -1.7951  0.2100  0.0256
  138OSM   H11G15012   1.626   1.582   3.663 -0.4628  3.6440  1.7875
  138OSM   C12F15013   1.408   1.556   3.702  0.3758  0.1584 -0.5969
  138OSM   H12F15014   1.320   1.584   3.641  1.3138 -1.2280 -2.7499
  138OSM   H12G15015   1.409   1.629   3.785 -1.8354  1.2614 -1.4572
  138OSM   C13F15016   1.389   1.413   3.768 -0.2825  0.0273 -0.3504
  138OSM   H13F15017   1.364   1.346   3.682 -3.9798  0.1543  0.4521
  138OSM   H13G15018   1.303   1.420   3.838  0.3568 -3.2561  0.9610
  138OSM   C14F15019   1.512   1.347   3.849 -0.1881 -0.1290 -0.1505
  138OSM   H14F15020   1.542   1.416   3.931 -1.5831 -0.6816  0.8698
  138OSM   H14G15021   1.592   1.343   3.772 -1.2296  1.4161 -1.3940
  138OSM   C15F15022   1.467   1.220   3.912 -0.2180 -0.2379 -0.0082
  138OSM   H15F15023   1.548   1.144   3.913  1.4429  1.4742  0.6712
  138OSM   H15G15024   1.385   1.172   3.853 -2.5159 -2.3128  4.3745
  138OSM   C16F15025   1.406   1.241   4.056  0.5915  0.5170 -0.2562
  138OSM   H16F15026   1.308   1.293   4.058  0.8607  1.0651  1.9481
  138OSM   H16G15027   1.477   1.292   4.125  0.2785 -2.5548  2.6260
  138OSM   C17F15028   1.408   1.111   4.142 -0.6125 -0.8942  0.1835
  138OSM   H17F15029   1.338   1.041   4.090 -1.5031  1.7997 -2.5575
  138OSM   H17G15030   1.353   1.136   4.235 -0.9446 -0.7329 -0.0548
  138OSM   C18F15031   1.550   1.058   4.171  0.1237 -0.0430 -0.1902
  138OSM   H18F15032   1.551   0.979   4.248 -0.4435 -0.7795 -0.9228
  138OSM   H18G15033   1.617   1.142   4.202 -1.4455  0.0214  3.5841
  138OSM   H18H15034   1.601   1.009   4.085  0.8979 -0.2912  0.3942
  139OSM      N15035   2.548   1.070   2.073  0.6325  0.0655  0.5300
  139OSM    C1515036   2.394   1.059   2.079  0.0148 -0.1200 -0.1619
  139OSM   H15A15037   2.334   1.131   2.133  0.5489 -0.9645  1.6250
  139OSM   H15B15038   2.380   0.965   2.131  1.2733 -0.4134 -0.3123
  139OSM   H15C15039   2.355   1.058   1.978 -1.3835  1.6887  0.3190
  139OSM    C1415040   2.604   0.941   2.008  0.5399  0.9188  0.2371
  139OSM   H14A15041   2.704   0.928   2.046  0.6498  0.7430 -0.1045
  139OSM   H14B15042   2.617   0.949   1.901  0.4925  0.4683  0.1969
  139OSM   H14C15043   2.545   0.857   2.040  1.0356  0.6732  0.5262
  139OSM    C1315044   2.585   1.186   1.987 -0.5126  0.2353 -0.5461
  139OSM   H13A15045   2.528   1.184   1.895 -2.5771  1.6484  0.6319
  139OSM   H13B15046   2.690   1.182   1.962  0.1850  0.8010  2.0112
  139OSM   H13C15047   2.551   1.284   2.019  0.0531 -0.9711  4.6711
  139OSM    C1215048   2.597   1.099   2.209  0.1001 -0.3785  0.0158
  139OSM   H12A15049   2.554   1.189   2.250 -4.4383 -2.2544  0.0017
  139OSM   H12B15050   2.704   1.110   2.203  0.2322 -1.7264 -0.5360
  139OSM    C1115051   2.588   0.989   2.317 -0.1960  0.1146  0.4322
  139OSM   H11A15052   2.480   0.973   2.336 -0.5761  1.3564 -0.5701
  139OSM   H11B15053   2.622   1.023   2.418  2.9868  0.1240 -0.5261
  139OSM      P15054   2.811   0.862   2.330  0.6139 -0.2376  0.4290
  139OSM    O1315055   2.880   0.742   2.274  0.6379 -0.4109  0.1577
  139OSM    O1415056   2.868   0.994   2.304 -0.8074  0.1724  0.8487
  139OSM    O1115057   2.807   0.830   2.490 -0.0598  0.5448 -0.5022
  139OSM    O1215058   2.657   0.868   2.277  0.0969 -0.1090 -0.4034
  139OSM    C1S15059   2.798   0.694   2.529 -0.0057 -0.0919 -0.2908
  139OSM    H1S15060   2.892   0.641   2.505  0.7137  2.0521 -2.6088
  139OSM    H1T15061   2.713   0.644   2.478 -0.4522  0.7708 -0.4185
  139OSM     NF15062   2.786   0.548   2.726 -0.7401 -0.0712  0.1700
  139OSM    HNF15063   2.699   0.500   2.730  1.0049 -3.6336 -0.9571
  139OSM    C2S15064   2.775   0.686   2.685 -0.5541  0.3343  0.1119
  139OSM    H2S15065   2.858   0.733   2.742 -0.8261 -1.4016  2.0601
  139OSM    C3S15066   2.637   0.750   2.714 -0.0119 -0.2905  0.0149
  139OSM    H3S15067   2.552   0.688   2.678  0.5364 -0.1694 -1.5894
  139OSM     O315068   2.602   0.873   2.660 -0.6182  0.0319  0.5747
  139OSM    HO315069   2.683   0.898   2.613  0.5019  0.4787  2.6481
  139OSM    C4S15070   2.636   0.756   2.871 -0.1540 -0.5693  0.4829
  139OSM    H4S15071   2.590   0.671   2.923 -0.6128 -1.4295 -1.2614
  139OSM    C5S15072   2.677   0.857   2.951  0.0919 -0.8239 -0.0018
  139OSM    H5S15073   2.713   0.954   2.914 -1.9029  0.5122  1.3824
  139OSM    C6S15074   2.664   0.850   3.096 -0.5208 -0.2790 -0.5408
  139OSM    H6S15075   2.683   0.746   3.132  0.7494 -0.3017 -1.2352
  139OSM    H6T15076   2.561   0.880   3.124  0.4948  2.1065  0.8742
  139OSM    C7S15077   2.747   0.946   3.168 -0.6667 -0.3091  0.0877
  139OSM    H7S15078   2.731   1.054   3.146  1.4838 -0.1931 -1.2804
  139OSM    H7T15079   2.849   0.929   3.127 -0.1979 -1.1337  1.5323
  139OSM    C8S15080   2.749   0.946   3.329 -0.0822 -0.4967 -0.9520
  139OSM    H8S15081   2.779   0.848   3.370  2.7652  1.0493  1.0241
  139OSM    H8T15082   2.648   0.968   3.368  1.0386 -0.8722  2.4876
  139OSM    C9S15083   2.841   1.051   3.390 -0.0445  0.6899  1.1889
  139OSM    H9S15084   2.826   1.143   3.330 -1.3308 -0.7520 -0.8239
  139OSM    H9T15085   2.946   1.017   3.380 -0.2541  0.5337 -0.9070
  139OSM   C10S15086   2.813   1.083   3.534 -0.3067  1.5132 -0.3002
  139OSM   H10S15087   2.812   0.988   3.590  2.0498 -0.4332 -3.2206
  139OSM   H10T15088   2.709   1.121   3.544 -0.4849  1.5514 -1.9259
  139OSM   C11S15089   2.918   1.173   3.604 -0.3863  0.3030  0.3988
  139OSM   H11S15090   2.939   1.261   3.539  0.2652  0.3002  0.6033
  139OSM   H11T15091   3.015   1.120   3.615 -0.5027 -0.5186 -1.9445
  139OSM   C12S15092   2.868   1.241   3.733 -0.2051 -0.7615 -0.1107
  139OSM   H12S15093   2.786   1.173   3.766 -0.8450 -0.8892 -1.8829
  139OSM   H12T15094   2.831   1.344   3.714  1.4886  0.4262  2.4657
  139OSM   C13S15095   2.968   1.240   3.844  0.2179  0.1411 -0.0001
  139OSM   H13S15096   3.010   1.341   3.864  0.9948 -0.0886 -0.4451
  139OSM   H13T15097   3.043   1.165   3.811 -0.9917 -1.0745 -0.0495
  139OSM   C14S15098   2.900   1.188   3.977 -0.3692 -0.2832 -0.0021
  139OSM   H14S15099   2.849   1.097   3.939  0.0300  0.4605 -2.5061
  139OSM   H14T15100   2.835   1.271   4.012  1.2460  0.0943  2.3872
  139OSM   C15S15101   3.007   1.161   4.075 -0.5211  0.6776  0.2013
  139OSM   H15S15102   3.044   1.262   4.105  0.9816  0.5724 -1.1196
  139OSM   H15T15103   3.096   1.105   4.038 -0.3458  2.3895 -2.2270
  139OSM   C16S15104   2.959   1.118   4.219 -0.4036  0.7281  0.1216
  139OSM   H16S15105   2.910   1.018   4.213  0.3245  0.4485 -1.4181
  139OSM   H16T15106   2.886   1.193   4.258  0.1569  1.3382  0.0160
  139OSM   C17S15107   3.076   1.114   4.322  0.1707  0.5160  0.1091
  139OSM   H17S15108   3.134   1.208   4.313  0.0780  0.5962  0.3440
  139OSM   H17T15109   3.143   1.032   4.289 -1.1363 -0.4489 -0.2445
  139OSM   C18S15110   3.027   1.078   4.464 -0.3154 -0.8263 -0.8443
  139OSM   H18S15111   3.102   1.115   4.537  0.1871  2.2267 -2.7167
  139OSM   H18T15112   3.014   0.968   4.461 -0.4261 -0.9397  1.6868
  139OSM   H18U15113   2.928   1.111   4.500  0.6424 -1.4668  2.7978
  139OSM    C1F15114   2.894   0.480   2.736  0.5721  0.2295 -0.2874
  139OSM     OF15115   3.000   0.532   2.719  0.3742 -0.5753 -0.1431
  139OSM    C2F15116   2.873   0.332   2.755 -0.2248  0.1784 -0.0945
  139OSM    H2F15117   2.946   0.282   2.688  1.4669  1.7583  0.4803
  139OSM    H2G15118   2.766   0.305   2.740 -2.1188  4.1495  3.9765
  139OSM    C3F15119   2.905   0.302   2.907  0.2544  0.1973 -0.4434
  139OSM    H3F15120   2.837   0.359   2.974  0.4000 -0.3726  0.1940
  139OSM    H3G15121   3.011   0.327   2.925  0.6763 -0.3207 -2.0112
  139OSM    C4F15122   2.885   0.151   2.950  0.2653  0.1257  0.1370
  139OSM    H4F15123   2.952   0.081   2.896  1.4994  1.3984 -0.0224
  139OSM    H4G15124   2.782   0.120   2.922  0.5684  0.0550 -0.9287
  139OSM    C5F15125   2.923   0.129   3.098 -0.2516  0.6148  0.3952
  139OSM    H5F15126   2.878   0.216   3.151  0.1992  2.3974 -1.9896
  139OSM    H5G15127   3.034   0.134   3.105 -0.3419  1.6265  1.3431
  139OSM    C6F15128   2.861  -0.001   3.158 -0.0781  0.8934  0.4201
  139OSM    H6F15129   2.906  -0.084   3.099  2.4102  1.2525  1.6796
  139OSM    H6G15130   2.750  -0.004   3.152 -0.1427 -1.2068  1.7386
  139OSM    C7F15131   2.899  -0.032   3.303 -0.6140  0.5743 -0.4804
  139OSM    H7F15132   3.009  -0.039   3.320 -0.8047 -1.4809  0.1547
  139OSM    H7G15133   2.870  -0.134   3.337  0.0043  0.8038  0.8163
  139OSM    C8F15134   2.854   0.082   3.397  0.5964 -0.0373 -0.0877
  139OSM    H8F15135   2.919   0.170   3.375  2.0965 -1.0050  0.3383
  139OSM    H8G15136   2.887   0.048   3.497  0.1413  0.7120  0.3300
  139OSM    C9F15137   2.703   0.114   3.391 -0.8334 -0.2085  0.1481
  139OSM    H9F15138   2.674   0.150   3.291  0.2339 -1.5532 -0.6921
  139OSM   C10F15139   2.614   0.103   3.488 -0.2343 -0.3810  0.5805
  139OSM   H10F15140   2.508   0.131   3.476 -0.2591 -1.3218 -1.9174
  139OSM   C11F15141   2.640   0.075   3.634 -0.1516  0.3382  0.7710
  139OSM   H11F15142   2.698   0.163   3.671  0.7066  1.0346 -1.9698
  139OSM   H11G15143   2.704  -0.015   3.642 -0.2092  0.4694  3.9841
  139OSM   C12F15144   2.512   0.049   3.720 -0.1436  0.7391 -0.3713
  139OSM   H12F15145   2.456  -0.038   3.680  1.0909 -0.0462 -0.4614
  139OSM   H12G15146   2.446   0.138   3.719  1.0808  1.6786 -1.9421
  139OSM   C13F15147   2.551   0.020   3.867  0.7850  0.3693  0.7052
  139OSM   H13F15148   2.623  -0.064   3.866 -2.3467 -2.5311  0.5005
  139OSM   H13G15149   2.458  -0.028   3.905  0.2023  0.8633 -0.0591
  139OSM   C14F15150   2.590   0.151   3.933 -0.3998 -0.8566 -0.4106
  139OSM   H14F15151   2.504   0.219   3.912 -4.1465 -3.5734  4.0517
  139OSM   H14G15152   2.684   0.194   3.892 -0.5469 -1.6094 -1.5859
  139OSM   C15F15153   2.591   0.135   4.083  0.7589  0.3675 -0.7262
  139OSM   H15F15154   2.664   0.055   4.106  1.7079  0.7455 -2.2741
  139OSM   H15G15155   2.490   0.109   4.121  1.0532  0.0196 -0.1778
  139OSM   C16F15156   2.629   0.263   4.152  0.0129  0.1890 -0.1032
  139OSM   H16F15157   2.728   0.298   4.117  0.4057 -2.1951 -1.5660
  139OSM   H16G15158   2.648   0.241   4.259  0.4313 -0.6762 -0.3448
  139OSM   C17F15159   2.511   0.362   4.162 -0.0339 -0.0676 -0.2666
  139OSM   H17F15160   2.421   0.303   4.189 -0.1483  0.1527 -0.1683
  139OSM   H17G15161   2.487   0.391   4.057  1.0182  2.2007  0.0703
  139OSM   C18F15162   2.535   0.483   4.249 -0.4428  0.9667 -0.0252
  139OSM   H18F15163   2.452   0.495   4.321 -0.9434  4.6139 -1.0040
  139OSM   H18G15164   2.553   0.579   4.196  0.6327  0.8552  0.0971
  139OSM   H18H15165   2.632   0.471   4.303 -0.3370 -1.4728 -0.6482
  140OSM      N15166   6.743   1.176   2.186  0.2654 -0.1112  0.3617
  140OSM    C1515167   6.647   1.072   2.160  0.8231  0.1686  0.0910
  140OSM   H15A15168   6.593   1.084   2.067  3.2059  0.6105 -1.3284
  140OSM   H15B15169   6.579   1.057   2.242 -1.1288  0.6374 -1.3415
  140OSM   H15C15170   6.693   0.974   2.158  0.2330 -0.1308  0.6845
  140OSM    C1415171   6.843   1.184   2.077 -0.4893 -0.1394  0.0291
  140OSM   H14A15172   6.921   1.246   2.118  0.0538 -0.6654 -0.1945
  140OSM   H14B15173   6.798   1.219   1.985  0.3360  1.0353  0.0386
  140OSM   H14C15174   6.889   1.088   2.057 -0.0536  0.2296 -0.7933
  140OSM    C1315175   6.669   1.300   2.192  0.0606  0.1554  0.5327
  140OSM   H13A15176   6.723   1.381   2.241  1.5055 -0.6718  0.3620
  140OSM   H13B15177   6.579   1.294   2.251 -1.9922  0.1442 -2.4358
  140OSM   H13C15178   6.643   1.336   2.094  0.9663 -0.3208  0.1017
  140OSM    C1215179   6.811   1.145   2.313 -0.4214 -0.1368  0.6491
  140OSM   H12A15180   6.847   1.043   2.305  0.1399  0.0315  0.9680
  140OSM   H12B15181   6.736   1.145   2.391 -1.1533 -1.3575 -0.0335
  140OSM    C1115182   6.938   1.229   2.342 -0.6830  0.8590 -0.1965
  140OSM   H11A15183   6.976   1.217   2.445 -2.3359  0.8418  0.4500
  140OSM   H11B15184   6.919   1.338   2.338 -1.2169  0.8302  1.0378
  140OSM      P15185   7.119   1.043   2.281 -0.1784  0.4080  0.4904
  140OSM    O1315186   7.084   0.952   2.165 -0.4210  0.5492  0.1360
  140OSM    O1415187   7.265   1.057   2.307 -0.4665  0.2485  0.6053
  140OSM    O1115188   7.046   0.978   2.412  0.8045  0.2466 -0.0617
  140OSM    O1215189   7.055   1.189   2.259  0.1943 -0.4325 -0.1361
  140OSM    C1S15190   7.117   0.898   2.508  0.1967  0.4212  0.6490
  140OSM    H1S15191   7.225   0.924   2.515  0.1913  0.9087 -0.7484
  140OSM    H1T15192   7.111   0.792   2.478 -1.8256  0.9206 -0.9420
  140OSM     NF15193   7.147   0.872   2.749 -0.0033 -0.4290  0.1740
  140OSM    HNF15194   7.117   0.791   2.798  0.0604  0.0118  0.9665
  140OSM    C2S15195   7.056   0.920   2.648  0.0492  0.2221 -0.4206
  140OSM    H2S15196   7.052   1.030   2.652  2.7650  0.4545 -1.5700
  140OSM    C3S15197   6.912   0.859   2.652  0.2907 -0.1682  0.1861
  140OSM    H3S15198   6.923   0.748   2.649 -2.4985 -0.5828  1.7472
  140OSM     O315199   6.833   0.893   2.539 -0.1751  0.5271 -0.3592
  140OSM    HO315200   6.895   0.932   2.477 -0.7471 -0.1540 -1.3928
  140OSM    C4S15201   6.839   0.900   2.774  0.1556 -1.5432 -0.4988
  140OSM    H4S15202   6.830   1.009   2.780  3.2788 -1.2504  1.3215
  140OSM    C5S15203   6.793   0.825   2.880 -0.2320  0.3193  0.2032
  140OSM    H5S15204   6.808   0.716   2.882  1.7714  0.5349  2.9496
  140OSM    C6S15205   6.721   0.873   3.000 -0.5130 -0.6396 -0.1219
  140OSM    H6S15206   6.628   0.818   3.023 -1.4237  1.3795  1.3575
  140OSM    H6T15207   6.674   0.973   2.992 -0.5876 -0.7776 -1.5993
  140OSM    C7S15208   6.808   0.860   3.121 -0.3355  0.2416 -0.2235
  140OSM    H7S15209   6.769   0.923   3.204  1.5830  1.2715 -0.0589
  140OSM    H7T15210   6.913   0.893   3.104  0.4209 -1.5747  0.6302
  140OSM    C8S15211   6.802   0.713   3.173 -0.0148 -0.6299 -0.4484
  140OSM    H8S15212   6.813   0.642   3.088 -2.1702  0.6916 -1.9293
  140OSM    H8T15213   6.704   0.702   3.224  0.7756 -1.5428  0.9509
  140OSM    C9S15214   6.895   0.684   3.291 -0.1859  0.4828  0.5590
  140OSM    H9S15215   6.997   0.713   3.257 -0.6979  1.0960 -0.4823
  140OSM    H9T15216   6.897   0.574   3.311  2.4157  0.2456 -0.4917
  140OSM   C10S15217   6.848   0.754   3.418  0.3384 -0.3140 -0.0769
  140OSM   H10S15218   6.738   0.741   3.427  0.3565  0.6981  2.4321
  140OSM   H10T15219   6.862   0.864   3.415 -0.8709 -0.0728  1.5448
  140OSM   C11S15220   6.932   0.704   3.536 -0.1476  0.3029  0.4050
  140OSM   H11S15221   7.039   0.725   3.518 -0.2434  2.2642  1.8228
  140OSM   H11T15222   6.906   0.596   3.534 -0.8099  0.4252 -2.3823
  140OSM   C12S15223   6.874   0.766   3.663 -0.1567  0.0088  0.3136
  140OSM   H12S15224   6.765   0.750   3.666 -0.2853  0.9170  0.9994
  140OSM   H12T15225   6.896   0.875   3.651  1.0530 -0.3970 -1.6509
  140OSM   C13S15226   6.937   0.704   3.784 -0.9471 -0.1450  0.2162
  140OSM   H13S15227   7.047   0.698   3.780 -0.7580  1.5177  1.6122
  140OSM   H13T15228   6.906   0.597   3.787  0.6488 -0.6705 -0.8327
  140OSM   C14S15229   6.900   0.769   3.917 -0.7720 -0.5766 -0.0292
  140OSM   H14S15230   6.789   0.762   3.928 -1.0729  2.5700 -0.3609
  140OSM   H14T15231   6.917   0.878   3.915  1.1296 -0.7291  2.4676
  140OSM   C15S15232   6.985   0.729   4.045  0.7851  0.8233  0.1407
  140OSM   H15S15233   6.941   0.785   4.130 -1.2077 -3.1090  1.9556
  140OSM   H15T15234   7.096   0.731   4.036  0.7210 -1.4050 -2.4952
  140OSM   C16S15235   6.953   0.578   4.075 -0.6163 -0.1761 -1.1515
  140OSM   H16S15236   7.004   0.521   3.995  0.6450  1.5837 -1.6584
  140OSM   H16T15237   6.843   0.564   4.068 -0.7395  0.9656 -1.8214
  140OSM   C17S15238   6.999   0.536   4.217  0.3361  1.1520  0.3227
  140OSM   H17S15239   7.081   0.603   4.249  0.0120  1.6627  0.0983
  140OSM   H17T15240   7.022   0.427   4.214 -2.9601  0.3458 -1.8391
  140OSM   C18S15241   6.883   0.564   4.322 -0.2015  0.2062 -0.2829
  140OSM   H18S15242   6.788   0.517   4.288  0.8648 -2.7149  0.5351
  140OSM   H18T15243   6.869   0.673   4.342  0.4345  0.0976  0.8204
  140OSM   H18U15244   6.910   0.512   4.416 -1.6289  1.5156  0.9146
  140OSM    C1F15245   7.265   0.922   2.787  0.0056 -0.0146 -0.1158
  140OSM     OF15246   7.325   1.017   2.730  0.1336  0.0017 -0.8815
  140OSM    C2F15247   7.323   0.846   2.910  0.5936 -0.3388 -0.4416
  140OSM    H2F15248   7.327   0.736   2.897 -0.1506 -0.2966 -1.1137
  140OSM    H2G15249   7.253   0.867   2.994  0.5654 -2.1836  0.0340
  140OSM    C3F15250   7.453   0.899   2.960 -0.5855  0.4956 -0.6399
  140OSM    H3F15251   7.432   1.002   2.996 -3.8564 -1.3213  3.5144
  140OSM    H3G15252   7.532   0.894   2.882 -0.3747  1.6442 -0.5068
  140OSM    C4F15253   7.489   0.818   3.084 -0.3750  0.6191  0.1561
  140OSM    H4F15254   7.492   0.711   3.056 -3.9606  0.0786  1.2566
  140OSM    H4G15255   7.411   0.823   3.163  0.8483  0.8140  1.3724
  140OSM    C5F15256   7.627   0.871   3.129  1.3802  0.0242 -0.6062
  140OSM    H5F15257   7.634   0.978   3.159  0.7092  0.2956 -1.3849
  140OSM    H5G15258   7.691   0.872   3.038  2.0808  0.2669 -0.1227
  140OSM    C6F15259   7.679   0.792   3.251 -0.8483  0.1103 -0.0284
  140OSM    H6F15260   7.687   0.685   3.220 -0.7243  0.8301 -2.6691
  140OSM    H6G15261   7.606   0.802   3.334  0.4626  0.8810  1.0799
  140OSM    C7F15262   7.824   0.827   3.304 -0.1388 -0.9280  0.1914
  140OSM    H7F15263   7.894   0.853   3.222  0.6912  0.0642  1.1804
  140OSM    H7G15264   7.864   0.738   3.356 -0.2743 -1.6923 -0.9740
  140OSM    C8F15265   7.830   0.943   3.411 -0.6108 -0.5141 -0.2408
  140OSM    H8F15266   7.772   0.901   3.497 -1.2261  1.3978  0.3417
  140OSM    H8G15267   7.772   1.027   3.368 -0.1647 -0.2112 -0.2550
  140OSM    C9F15268   7.968   0.979   3.447 -0.6786 -0.2547 -0.6451
  140OSM    H9F15269   8.026   1.032   3.370 -0.0996  0.6874  0.4074
  140OSM   C10F15270   8.029   0.987   3.565  0.6648 -0.8408  0.5056
  140OSM   H10F15271   8.133   1.022   3.569  0.2852  0.3115  0.7986
  140OSM   C11F15272   7.986   0.942   3.702  0.5947  0.3341  0.2522
  140OSM   H11F15273   8.066   0.890   3.758  0.3521  0.3096  0.5802
  140OSM   H11G15274   7.902   0.869   3.693  1.5766 -0.7340 -0.5979
  140OSM   C12F15275   7.936   1.061   3.793  0.7075  0.0559 -0.4375
  140OSM   H12F15276   7.882   1.134   3.728 -0.6393 -1.8256 -1.5238
  140OSM   H12G15277   8.013   1.119   3.847 -0.2193  2.5448 -1.6303
  140OSM   C13F15278   7.836   0.997   3.898 -0.1662  0.1989 -0.2410
  140OSM   H13F15279   7.753   0.933   3.862  1.3791 -2.5639  0.7758
  140OSM   H13G15280   7.792   1.085   3.950  1.4173  0.9261 -0.0656
  140OSM   C14F15281   7.903   0.913   3.998  0.1831  0.1268  0.1884
  140OSM   H14F15282   7.971   0.971   4.064  1.5156 -1.8196  0.6319
  140OSM   H14G15283   7.955   0.833   3.941 -0.4001 -0.1949  0.1011
  140OSM   C15F15284   7.821   0.832   4.094 -0.0827  0.5713 -1.0015
  140OSM   H15F15285   7.760   0.753   4.045 -3.0924  0.5044  2.4400
  140OSM   H15G15286   7.758   0.898   4.157  1.0010  1.2495 -0.6026
  140OSM   C16F15287   7.922   0.766   4.195  0.4391 -0.2293  0.3913
  140OSM   H16F15288   7.980   0.852   4.234 -1.2318  0.7015  0.9396
  140OSM   H16G15289   7.976   0.689   4.137  0.6203 -0.0066  0.2621
  140OSM   C17F15290   7.853   0.691   4.310  0.0880  0.3431 -0.4068
  140OSM   H17F15291   7.776   0.752   4.362  0.6942  0.1661  0.7360
  140OSM   H17G15292   7.924   0.669   4.392 -2.4303 -0.6211  1.6341
  140OSM   C18F15293   7.787   0.556   4.274 -0.1452  0.8614  0.0659
  140OSM   H18F15294   7.846   0.491   4.206  0.7269  0.4464  1.1936
  140OSM   H18G15295   7.687   0.583   4.235 -0.9908  0.7464  2.0373
  140OSM   H18H15296   7.761   0.492   4.361 -0.1308  1.3113  0.4033
  141OSM      N15297   5.026   3.007   2.585  0.2410 -0.1796 -0.5515
  141OSM    C1515298   5.088   3.093   2.697 -0.3684 -0.9622 -0.4075
  141OSM   H15A15299   5.134   3.041   2.780  1.3206  1.8785  0.5936
  141OSM   H15B15300   5.022   3.162   2.747  0.8270 -0.5674  0.7000
  141OSM   H15C15301   5.164   3.155   2.653 -1.2994 -0.3778 -1.2068
  141OSM    C1415302   4.912   2.930   2.625  0.2257  0.1625  0.2086
  141OSM   H14A15303   4.861   2.866   2.555  1.0076 -0.3333  0.0753
  141OSM   H14B15304   4.839   2.991   2.677 -0.6576 -0.2569 -0.5241
  141OSM   H14C15305   4.939   2.860   2.703 -1.0080  1.0421  1.4727
  141OSM    C1315306   4.986   3.099   2.473  0.1237 -0.5722 -0.0825
  141OSM   H13A15307   4.974   3.043   2.382 -0.4438 -0.4261 -0.1027
  141OSM   H13B15308   5.060   3.171   2.443  1.1754 -1.7369 -0.3686
  141OSM   H13C15309   4.893   3.147   2.501  0.5830 -0.6188  1.6545
  141OSM    C1215310   5.142   2.919   2.534 -0.2406 -0.3776 -0.0723
  141OSM   H12A15311   5.223   2.988   2.511 -2.0647  1.8696 -0.1803
  141OSM   H12B15312   5.110   2.880   2.439 -1.8251 -0.1089  0.3300
  141OSM    C1115313   5.209   2.818   2.624 -0.4235 -0.5446  0.4062
  141OSM   H11A15314   5.260   2.851   2.717  1.7948 -2.5109 -0.0095
  141OSM   H11B15315   5.298   2.779   2.570 -0.0726 -1.6654  1.7108
  141OSM      P15316   5.111   2.596   2.551  0.2066 -0.1590 -0.5567
  141OSM    O1315317   5.060   2.659   2.424  0.0807  0.5816  0.0044
  141OSM    O1415318   5.238   2.517   2.550  0.4996  0.3735 -0.7049
  141OSM    O1115319   5.003   2.489   2.611 -0.6956  0.7054  0.6548
  141OSM    O1215320   5.122   2.707   2.664  0.0499 -0.0343  0.8516
  141OSM    C1S15321   5.046   2.399   2.713 -0.3082  0.8155 -0.5002
  141OSM    H1S15322   5.133   2.444   2.765 -0.4276 -1.4390  1.8068
  141OSM    H1T15323   5.072   2.298   2.676  0.4726  0.2585  1.5010
  141OSM     NF15324   4.982   2.300   2.936  0.7145 -0.9004  0.6641
  141OSM    HNF15325   4.965   2.201   2.934 -0.9500 -0.6863 -2.4823
  141OSM    C2S15326   4.930   2.370   2.819 -0.5242  0.8860  0.1234
  141OSM    H2S15327   4.885   2.462   2.861 -0.6590 -0.2006  2.5824
  141OSM    C3S15328   4.807   2.307   2.746  0.6306  0.5435 -0.2865
  141OSM    H3S15329   4.841   2.211   2.702 -1.6245 -0.3926 -0.1342
  141OSM     O315330   4.771   2.380   2.634  0.6612 -0.6192  0.0908
  141OSM    HO315331   4.855   2.426   2.624  0.8441 -0.9505  0.0804
  141OSM    C4S15332   4.688   2.291   2.830  0.5383 -0.2897  0.4346
  141OSM    H4S15333   4.657   2.385   2.878  1.2316 -0.6925  1.7024
  141OSM    C5S15334   4.601   2.189   2.850 -0.3484  0.1213 -0.7868
  141OSM    H5S15335   4.620   2.100   2.787 -0.3562 -0.9936  0.7445
  141OSM    C6S15336   4.473   2.180   2.934  0.0956  0.0949 -0.2270
  141OSM    H6S15337   4.382   2.156   2.875 -1.5569 -1.4244  2.6952
  141OSM    H6T15338   4.450   2.283   2.971  0.5169  0.2500 -0.3943
  141OSM    C7S15339   4.472   2.074   3.051 -0.6326  0.4927  0.0151
  141OSM    H7S15340   4.492   1.969   3.021  0.1762  0.2680  1.2785
  141OSM    H7T15341   4.373   2.080   3.102 -1.0471 -1.0476 -0.5431
  141OSM    C8S15342   4.585   2.110   3.145 -0.4875 -0.4810  0.7524
  141OSM    H8S15343   4.588   2.220   3.163  0.8550 -0.3132 -0.2579
  141OSM    H8T15344   4.685   2.081   3.105  1.0520  1.9878  2.5187
  141OSM    C9S15345   4.584   2.029   3.275  0.4516  0.1704 -0.7413
  141OSM    H9S15346   4.579   1.920   3.255  0.4488  0.1528 -0.6475
  141OSM    H9T15347   4.490   2.055   3.327  1.3941  0.4079  0.9158
  141OSM   C10S15348   4.698   2.068   3.372  0.1056 -0.0156 -0.0079
  141OSM   H10S15349   4.802   2.058   3.333  0.9255  2.6452  1.1951
  141OSM   H10T15350   4.682   2.002   3.460 -0.6529  1.2657  0.8651
  141OSM   C11S15351   4.680   2.218   3.423  0.4221 -0.1047  0.6772
  141OSM   H11S15352   4.591   2.222   3.490  0.9205  3.2625  1.3279
  141OSM   H11T15353   4.667   2.289   3.338  2.9894  1.1822  1.2544
  141OSM   C12S15354   4.798   2.272   3.501 -0.2587 -0.1347 -0.3212
  141OSM   H12S15355   4.772   2.378   3.523  0.7909  0.4125 -1.5416
  141OSM   H12T15356   4.895   2.252   3.450  0.0066  0.1452  0.0700
  141OSM   C13S15357   4.827   2.218   3.643 -0.2064 -0.0705 -0.2335
  141OSM   H13S15358   4.932   2.250   3.664 -0.1734 -0.6000  0.4669
  141OSM   H13T15359   4.835   2.107   3.648  2.0927  0.0800  1.1373
  141OSM   C14S15360   4.743   2.276   3.762  0.3221 -0.1944 -0.3978
  141OSM   H14S15361   4.647   2.322   3.732 -0.0747  0.6837  2.0261
  141OSM   H14T15362   4.808   2.345   3.821  0.9749  0.1463 -1.4935
  141OSM   C15S15363   4.685   2.165   3.850 -0.1362  0.0626 -0.0706
  141OSM   H15S15364   4.763   2.107   3.904  0.8924  0.0803 -1.4765
  141OSM   H15T15365   4.636   2.089   3.786  2.8288 -0.0925 -2.4159
  141OSM   C16S15366   4.587   2.213   3.955  0.1271 -0.0583  0.3833
  141OSM   H16S15367   4.548   2.120   4.000  1.9192 -1.0236  0.0091
  141OSM   H16T15368   4.501   2.271   3.913 -0.9992 -2.2698 -0.5395
  141OSM   C17S15369   4.655   2.293   4.065 -0.2713  0.1570 -0.4441
  141OSM   H17S15370   4.703   2.382   4.021 -0.4691  1.2101  1.3661
  141OSM   H17T15371   4.728   2.218   4.104 -0.8184 -0.2284 -0.1430
  141OSM   C18S15372   4.569   2.344   4.180 -0.3017  0.5544  0.1077
  141OSM   H18S15373   4.648   2.385   4.246  1.4446 -0.8895 -0.9868
  141OSM   H18T15374   4.510   2.261   4.224 -0.0156  0.8685  1.1204
  141OSM   H18U15375   4.494   2.418   4.144 -0.5021  0.1465 -0.3099
  141OSM    C1F15376   5.073   2.361   3.011  0.1051 -0.2696  0.3442
  141OSM     OF15377   5.095   2.480   2.994 -0.4669  0.5342 -0.0236
  141OSM    C2F15378   5.147   2.281   3.111 -0.5081 -0.2875 -0.2301
  141OSM    H2F15379   5.258   2.281   3.101 -0.5058 -2.9398 -1.0858
  141OSM    H2G15380   5.110   2.176   3.100  0.3680 -0.6720  0.3798
  141OSM    C3F15381   5.119   2.349   3.243 -0.4084  0.4227 -0.1408
  141OSM    H3F15382   5.009   2.350   3.260 -0.8933  1.3138 -2.8258
  141OSM    H3G15383   5.150   2.456   3.249  0.4317  0.1591  0.2995
  141OSM    C4F15384   5.193   2.281   3.362 -0.6150  0.1919 -0.0088
  141OSM    H4F15385   5.299   2.266   3.331 -1.0440  0.0473 -1.4978
  141OSM    H4G15386   5.146   2.182   3.383  0.9297 -1.1496 -2.3867
  141OSM    C5F15387   5.182   2.380   3.490 -0.3403 -0.4948 -0.4393
  141OSM    H5F15388   5.080   2.419   3.508 -0.3292 -0.1828 -1.0014
  141OSM    H5G15389   5.248   2.468   3.479 -1.9360  1.1232  2.1093
  141OSM    C6F15390   5.221   2.308   3.623 -0.0247  0.3265  0.2373
  141OSM    H6F15391   5.326   2.276   3.611 -0.0038  0.2909  0.5024
  141OSM    H6G15392   5.153   2.221   3.639  2.0354 -1.2763  0.7295
  141OSM    C7F15393   5.217   2.400   3.749  0.4178  0.2711  1.0315
  141OSM    H7F15394   5.110   2.419   3.772  0.5493  0.5705  1.4022
  141OSM    H7G15395   5.260   2.499   3.723  0.6719 -0.7407 -3.0650
  141OSM    C8F15396   5.272   2.336   3.872 -0.2183  0.1775 -0.7076
  141OSM    H8F15397   5.270   2.412   3.953  1.9858 -0.6540  0.2231
  141OSM    H8G15398   5.380   2.315   3.860 -0.3923 -0.2625 -1.5966
  141OSM    C9F15399   5.192   2.217   3.904 -0.7841  0.1669  0.4935
  141OSM    H9F15400   5.218   2.133   3.839  0.4394  1.3058 -0.5506
  141OSM   C10F15401   5.092   2.219   3.999 -0.0497  0.1054 -0.4696
  141OSM   H10F15402   5.036   2.125   4.012 -0.5703  0.5351  0.4919
  141OSM   C11F15403   5.038   2.328   4.091  0.4529  0.0126  0.7021
  141OSM   H11F15404   4.927   2.328   4.091  0.4501  0.4977  0.2349
  141OSM   H11G15405   5.066   2.428   4.052  3.9135 -1.6993 -1.7621
  141OSM   C12F15406   5.087   2.324   4.233  0.2522  0.1631  0.2934
  141OSM   H12F15407   5.197   2.311   4.240  0.3933  1.0900  0.0183
  141OSM   H12G15408   5.042   2.238   4.286 -1.3132 -0.7166 -2.2818
  141OSM   C13F15409   5.032   2.448   4.308  0.4800 -0.1565  0.4549
  141OSM   H13F15410   4.921   2.445   4.313  0.2935  2.8010  0.2296
  141OSM   H13G15411   5.041   2.544   4.253 -0.3356 -0.4667 -0.2351
  141OSM   C14F15412   5.100   2.461   4.447 -0.3163 -0.1412 -0.0743
  141OSM   H14F15413   5.137   2.360   4.473  2.0037  1.2627  2.7552
  141OSM   H14G15414   5.032   2.493   4.529  0.3206  1.7184 -0.2055
  141OSM   C15F15415   5.225   2.553   4.452 -0.6229 -0.0159  0.4724
  141OSM   H15F15416   5.287   2.529   4.363  3.1703  1.4114  2.4978
  141OSM   H15G15417   5.275   2.535   4.549 -1.3985  0.0890  0.8970
  141OSM   C16F15418   5.203   2.701   4.435 -0.0057 -0.5271  0.1771
  141OSM   H16F15419   5.140   2.732   4.521  0.0629 -0.1521  0.0919
  141OSM   H16G15420   5.140   2.725   4.346 -2.2392 -2.2140  1.1861
  141OSM   C17F15421   5.326   2.793   4.455 -0.3356  0.8331 -0.1306
  141OSM   H17F15422   5.293   2.899   4.445 -1.2945  0.4600 -1.1484
  141OSM   H17G15423   5.383   2.772   4.362  1.2498  2.6269  0.3693
  141OSM   C18F15424   5.421   2.769   4.577  0.1687 -0.2943  0.5247
  141OSM   H18F15425   5.503   2.844   4.576 -1.1901  1.2616 -0.5180
  141OSM   H18G15426   5.469   2.670   4.561  1.8844  0.7672 -1.4865
  141OSM   H18H15427   5.373   2.770   4.677 -1.2326  0.9434 -0.1131
  142OSM      N15428   5.586   2.705   2.047  0.4323 -0.4878 -0.2107
  142OSM    C1515429   5.509   2.822   1.990 -0.3670 -0.0557 -0.4835
  142OSM   H15A15430   5.405   2.804   2.015 -0.4414 -3.0498 -2.3895
  142OSM   H15B15431   5.516   2.818   1.882 -0.9072 -0.3381 -0.5143
  142OSM   H15C15432   5.548   2.915   2.029 -1.4610  0.5919 -0.8871
  142OSM    C1415433   5.519   2.582   1.989 -0.5816 -0.2854  0.0152
  142OSM   H14A15434   5.417   2.563   2.020 -0.8819 -0.6630 -1.1635
  142OSM   H14B15435   5.569   2.489   2.014 -0.1854 -0.3888 -1.1062
  142OSM   H14C15436   5.527   2.585   1.882  1.5621 -1.5236  0.0676
  142OSM    C1315437   5.722   2.717   2.001 -0.0247  0.1097  0.4975
  142OSM   H13A15438   5.763   2.816   2.012  1.0358 -0.3603  0.9944
  142OSM   H13B15439   5.732   2.699   1.895  0.2128 -0.8513  0.6679
  142OSM   H13C15440   5.787   2.658   2.065 -0.1678  1.7749  2.2695
  142OSM    C1215441   5.589   2.699   2.196  0.6574 -0.7428 -0.6141
  142OSM   H12A15442   5.621   2.606   2.241  2.8747  0.4335  0.3984
  142OSM   H12B15443   5.488   2.719   2.229  0.3731  1.3007 -2.5296
  142OSM    C1115444   5.668   2.806   2.272  0.6049  0.5674 -0.2673
  142OSM   H11A15445   5.775   2.809   2.242  0.4642  1.3292 -0.7304
  142OSM   H11B15446   5.666   2.766   2.376 -0.6099 -0.6295 -0.7240
  142OSM      P15447   5.487   2.980   2.350  0.4327  0.4804  0.4383
  142OSM    O1315448   5.456   3.122   2.328  0.6307  0.1830  0.5335
  142OSM    O1415449   5.376   2.889   2.328 -0.0124 -0.1317  0.4065
  142OSM    O1115450   5.543   2.958   2.493  0.0631 -0.4615 -0.7060
  142OSM    O1215451   5.613   2.942   2.259  0.2918 -0.4649 -0.0820
  142OSM    C1S15452   5.645   3.040   2.542  0.3756 -0.6752 -0.6663
  142OSM    H1S15453   5.605   3.142   2.528  0.4688 -0.0407  2.8488
  142OSM    H1T15454   5.743   3.033   2.491 -0.5636  0.9746 -2.8782
  142OSM     NF15455   5.762   3.122   2.751  0.1704  0.0076 -0.0917
  142OSM    HNF15456   5.848   3.084   2.783  1.0865 -1.7449 -3.9748
  142OSM    C2S15457   5.667   3.021   2.692 -0.2970 -0.6923  0.7345
  142OSM    H2S15458   5.574   3.028   2.753  1.3119 -0.6546  3.3604
  142OSM    C3S15459   5.712   2.872   2.705 -1.0265  0.2168  0.3269
  142OSM    H3S15460   5.800   2.850   2.640 -2.6706 -0.7552 -1.7022
  142OSM     O315461   5.621   2.781   2.653 -0.1814  0.3910 -0.1476
  142OSM    HO315462   5.554   2.840   2.618 -1.6564 -1.1365 -0.0167
  142OSM    C4S15463   5.730   2.839   2.848 -0.9134 -0.5545  0.1439
  142OSM    H4S15464   5.637   2.861   2.903 -0.8386 -1.9457  0.8718
  142OSM    C5S15465   5.844   2.814   2.905 -0.2841  0.2705  0.0948
  142OSM    H5S15466   5.940   2.816   2.850 -0.1586  1.8325  0.3243
  142OSM    C6S15467   5.861   2.802   3.056 -0.1219 -0.3566  0.1302
  142OSM    H6S15468   5.918   2.709   3.076  0.0461  0.1713  2.3457
  142OSM    H6T15469   5.769   2.785   3.116 -0.3593 -0.7830 -0.3505
  142OSM    C7S15470   5.929   2.923   3.114  0.8137 -0.0653 -0.4243
  142OSM    H7S15471   5.870   3.017   3.105  3.2216  1.7957  1.5097
  142OSM    H7T15472   6.016   2.946   3.049  0.5935  1.3329 -0.2638
  142OSM    C8S15473   5.979   2.911   3.259  0.2136 -0.2449  0.2574
  142OSM    H8S15474   6.045   3.000   3.269  0.3370 -0.0609 -1.8363
  142OSM    H8T15475   6.036   2.817   3.272 -1.8688 -1.4378  1.1714
  142OSM    C9S15476   5.879   2.902   3.370 -0.3398 -0.3375 -0.6428
  142OSM    H9S15477   5.794   2.834   3.349 -1.3454  0.6535  0.0919
  142OSM    H9T15478   5.842   3.004   3.394 -1.6885 -0.6330 -1.3873
  142OSM   C10S15479   5.947   2.859   3.506  0.5361  0.2914 -0.3505
  142OSM   H10S15480   6.041   2.916   3.524  0.5033 -0.1222  1.2324
  142OSM   H10T15481   5.995   2.759   3.496  1.0266  0.5464 -0.6131
  142OSM   C11S15482   5.858   2.873   3.636 -0.0456 -0.6188 -0.6711
  142OSM   H11S15483   5.767   2.809   3.629  0.0905 -0.7661 -1.1486
  142OSM   H11T15484   5.817   2.974   3.653 -1.5122 -1.6400  2.7176
  142OSM   C12S15485   5.922   2.815   3.758  0.5734 -0.6056 -0.3469
  142OSM   H12S15486   6.025   2.855   3.772  0.1964 -0.3540  2.1648
  142OSM   H12T15487   5.942   2.706   3.746 -0.8074 -0.8409 -0.6670
  142OSM   C13S15488   5.842   2.826   3.890  0.2754 -0.1312 -0.0500
  142OSM   H13S15489   5.786   2.731   3.901  0.2458 -0.3823 -2.0599
  142OSM   H13T15490   5.777   2.914   3.905 -1.9342 -1.6158 -0.4329
  142OSM   C14S15491   5.925   2.833   4.021 -0.1158  0.2463  0.0723
  142OSM   H14S15492   6.002   2.753   4.018 -1.7305 -1.3544 -0.4931
  142OSM   H14T15493   5.858   2.808   4.106 -1.5987 -1.3720 -1.4891
  142OSM   C15S15494   5.991   2.968   4.054  0.4161 -0.0661 -0.2960
  142OSM   H15S15495   5.912   3.043   4.032  2.4122  2.8323  1.6337
  142OSM   H15T15496   6.077   3.004   3.994  0.6832  2.0414  1.2160
  142OSM   C16S15497   6.026   2.986   4.208 -0.1281  0.2351  0.8517
  142OSM   H16S15498   5.936   2.963   4.269 -1.2592  0.2191 -0.7580
  142OSM   H16T15499   6.063   3.089   4.229  0.2922  0.2728 -0.0226
  142OSM   C17S15500   6.129   2.882   4.249 -0.1373 -0.0608  0.4157
  142OSM   H17S15501   6.217   2.895   4.182 -0.9669 -2.8401 -1.4270
  142OSM   H17T15502   6.088   2.778   4.252 -1.7764  0.4697 -1.3389
  142OSM   C18S15503   6.181   2.899   4.396  0.0350  0.2488 -0.5657
  142OSM   H18S15504   6.219   3.003   4.406 -0.8322  0.6275 -1.1168
  142OSM   H18T15505   6.255   2.825   4.432 -0.1478 -0.1714 -1.0363
  142OSM   H18U15506   6.090   2.905   4.460  0.5198  0.0553  0.1470
  142OSM    C1F15507   5.748   3.256   2.751  0.1681 -0.2894  0.4980
  142OSM     OF15508   5.637   3.313   2.740  0.3032  0.1716 -0.0982
  142OSM    C2F15509   5.869   3.346   2.783  0.7327  0.5890  0.8042
  142OSM    H2F15510   5.922   3.350   2.685  2.1047 -0.3930  1.4753
  142OSM    H2G15511   5.940   3.295   2.851 -0.0223 -1.2962  0.2357
  142OSM    C3F15512   5.813   3.484   2.842 -0.3549  0.4339  0.9668
  142OSM    H3F15513   5.741   3.529   2.770  0.5697 -0.5382 -0.6302
  142OSM    H3G15514   5.903   3.547   2.852 -0.4480  0.8857 -0.6750
  142OSM    C4F15515   5.744   3.470   2.972 -0.6212 -0.0518 -0.3700
  142OSM    H4F15516   5.650   3.413   2.954  1.1029 -2.6427 -1.9016
  142OSM    H4G15517   5.715   3.571   3.009  1.4893 -0.4305  2.6619
  142OSM    C5F15518   5.830   3.407   3.087 -0.4378 -0.6613  0.3102
  142OSM    H5F15519   5.918   3.474   3.097 -1.4376  0.8482 -0.6061
  142OSM    H5G15520   5.858   3.306   3.052  1.2459 -0.1491  0.0655
  142OSM    C6F15521   5.755   3.401   3.220  0.5197 -0.4458  0.3244
  142OSM    H6F15522   5.657   3.349   3.211 -0.5627  0.9942  2.7748
  142OSM    H6G15523   5.728   3.502   3.257  2.6533  0.5142 -0.5457
  142OSM    C7F15524   5.842   3.340   3.330 -0.2616  0.5965  0.4114
  142OSM    H7F15525   5.919   3.412   3.364 -1.1692  1.3650  0.8643
  142OSM    H7G15526   5.885   3.245   3.291 -5.1047 -2.0093  0.6425
  142OSM    C8F15527   5.752   3.290   3.447 -0.0881  0.4888 -0.4093
  142OSM    H8F15528   5.795   3.206   3.506 -0.2066  0.1950 -0.7362
  142OSM    H8G15529   5.654   3.264   3.402 -0.4835 -0.0122  0.6891
  142OSM    C9F15530   5.738   3.409   3.536 -0.2313 -0.5738 -0.0196
  142OSM    H9F15531   5.692   3.501   3.498 -0.5647 -0.1908  1.2516
  142OSM   C10F15532   5.787   3.424   3.661  0.7598  0.2909 -0.8263
  142OSM   H10F15533   5.759   3.514   3.717 -0.3421  0.2196 -1.2399
  142OSM   C11F15534   5.866   3.317   3.737  0.8506  0.2561 -0.0222
  142OSM   H11F15535   5.965   3.293   3.691  0.0452  3.2101 -3.7659
  142OSM   H11G15536   5.805   3.225   3.726 -2.3648  2.5349 -3.3541
  142OSM   C12F15537   5.885   3.359   3.876 -0.0311  0.3021  0.0409
  142OSM   H12F15538   5.919   3.270   3.933 -1.8431 -0.4892 -0.0282
  142OSM   H12G15539   5.788   3.388   3.921 -0.5944 -0.7167 -0.4600
  142OSM   C13F15540   6.001   3.462   3.884  0.0437 -0.6432  0.2606
  142OSM   H13F15541   5.973   3.551   3.823 -1.1802  1.1673  3.2189
  142OSM   H13G15542   6.095   3.413   3.850  1.6630  2.4308 -0.0395
  142OSM   C14F15543   6.036   3.516   4.032 -0.0339 -0.0952 -1.0137
  142OSM   H14F15544   5.954   3.578   4.074  1.9763  0.1339  3.0271
  142OSM   H14G15545   6.122   3.586   4.021  0.2521 -0.3713 -0.5443
  142OSM   C15F15546   6.065   3.394   4.129 -0.0500 -0.7392  0.5631
  142OSM   H15F15547   6.141   3.331   4.078  0.6785  0.2502  0.4036
  142OSM   H15G15548   5.979   3.327   4.147 -1.8571  0.4747 -2.6926
  142OSM   C16F15549   6.125   3.434   4.260 -0.2695 -0.0072  0.0329
  142OSM   H16F15550   6.054   3.506   4.306 -1.9067 -1.0751 -0.7266
  142OSM   H16G15551   6.221   3.486   4.238  0.0230 -0.9264 -0.9231
  142OSM   C17F15552   6.154   3.317   4.360 -0.8667 -0.3511  0.6798
  142OSM   H17F15553   6.249   3.269   4.327 -0.9733 -1.0159  1.3435
  142OSM   H17G15554   6.062   3.257   4.348 -0.3482 -1.3806  1.7073
  142OSM   C18F15555   6.175   3.369   4.503  0.0291  0.5699 -0.6057
  142OSM   H18F15556   6.247   3.453   4.508  2.0895 -0.9984 -2.0539
  142OSM   H18G15557   6.210   3.289   4.572 -0.5078  0.4731 -0.4365
  142OSM   H18H15558   6.075   3.399   4.542  0.1373  0.8205 -0.5167
  143OSM      N15559   2.451   2.542   2.318  0.4968 -0.3889  0.3852
  143OSM    C1515560   2.490   2.546   2.460  0.1931  0.2230  0.4326
  143OSM   H15A15561   2.410   2.522   2.528  0.7982  1.7804  1.7863
  143OSM   H15B15562   2.516   2.648   2.486  2.3363 -0.5603  1.6535
  143OSM   H15C15563   2.578   2.486   2.480 -0.8269 -1.9070 -1.1288
  143OSM    C1415564   2.458   2.407   2.260  0.4069  0.8802  0.5915
  143OSM   H14A15565   2.430   2.416   2.156  0.1440  0.4555  0.6235
  143OSM   H14B15566   2.397   2.339   2.318  2.6305  1.5530  4.0480
  143OSM   H14C15567   2.560   2.372   2.266  0.0958 -0.5498 -1.2978
  143OSM    C1315568   2.306   2.577   2.318  0.2535 -1.0428 -0.4662
  143OSM   H13A15569   2.245   2.497   2.356 -2.0490  1.7555  2.3004
  143OSM   H13B15570   2.267   2.591   2.218  0.0589 -0.8286 -0.3613
  143OSM   H13C15571   2.279   2.668   2.370 -2.2204 -1.7081 -0.4810
  143OSM    C1215572   2.546   2.633   2.237  0.4447 -0.0594 -0.1126
  143OSM   H12A15573   2.511   2.648   2.136 -0.8488  3.7812  0.7204
  143OSM   H12B15574   2.645   2.591   2.247 -0.0423 -1.2978 -0.2945
  143OSM    C1115575   2.552   2.778   2.286 -0.0996  0.3466 -0.3058
  143OSM   H11A15576   2.460   2.814   2.336 -0.1574 -0.5133  0.2414
  143OSM   H11B15577   2.578   2.840   2.197 -0.8491  0.4065 -0.4844
  143OSM      P15578   2.713   2.904   2.454  0.0709 -0.2409  0.4168
  143OSM    O1315579   2.861   2.905   2.437  0.1098 -0.0318 -0.5787
  143OSM    O1415580   2.644   3.026   2.407  0.3985 -0.4572  0.4838
  143OSM    O1115581   2.677   2.863   2.600  0.1176 -0.1322 -0.0914
  143OSM    O1215582   2.667   2.780   2.371  0.4941  0.3905  0.3609
  143OSM    C1S15583   2.762   2.830   2.707  0.1394  0.0068  0.0054
  143OSM    H1S15584   2.847   2.901   2.704 -0.4969  0.8109  0.7684
  143OSM    H1T15585   2.799   2.725   2.699 -0.8432 -0.2360 -2.6685
  143OSM     NF15586   2.782   2.840   2.962 -0.5519  0.2644  0.4853
  143OSM    HNF15587   2.786   2.747   2.998  3.1634  0.2958  0.5598
  143OSM    C2S15588   2.693   2.860   2.848 -0.2932  0.2359 -0.8207
  143OSM    H2S15589   2.655   2.964   2.840 -0.7874  0.1602  0.4406
  143OSM    C3S15590   2.565   2.775   2.874  0.9307 -0.1317  0.0695
  143OSM    H3S15591   2.604   2.673   2.891  2.3881  0.6505  1.8325
  143OSM     O315592   2.469   2.770   2.771 -0.2561  0.3668  0.4453
  143OSM    HO315593   2.519   2.804   2.696  0.8858 -0.7085  0.6864
  143OSM    C4S15594   2.501   2.813   3.007 -0.0356  0.1842 -0.3584
  143OSM    H4S15595   2.545   2.752   3.087  0.5080 -0.0011 -0.7857
  143OSM    C5S15596   2.403   2.901   3.037 -0.7011 -0.5988 -0.0889
  143OSM    H5S15597   2.368   2.947   2.943  1.8309 -2.4303 -2.0394
  143OSM    C6S15598   2.349   2.944   3.167  0.0580 -0.2650 -0.3450
  143OSM    H6S15599   2.238   2.937   3.173 -0.0759  0.3272 -1.7512
  143OSM    H6T15600   2.375   3.051   3.182 -0.7519 -0.2738  1.3583
  143OSM    C7S15601   2.402   2.868   3.284 -0.2888  0.6020 -0.6381
  143OSM    H7S15602   2.509   2.889   3.307 -0.5844  1.8809 -0.3726
  143OSM    H7T15603   2.390   2.758   3.270 -1.1564  0.1821  2.6564
  143OSM    C8S15604   2.316   2.906   3.408 -0.0870  0.9506  0.4036
  143OSM    H8S15605   2.215   2.860   3.405  0.9249 -1.3712 -1.4908
  143OSM    H8T15606   2.311   3.016   3.422  1.8503  1.6030 -3.0125
  143OSM    C9S15607   2.385   2.835   3.529 -0.1146 -0.5796  0.0048
  143OSM    H9S15608   2.472   2.887   3.575  0.2615 -2.2562  1.2726
  143OSM    H9T15609   2.407   2.734   3.487 -2.4476 -0.7080 -1.0299
  143OSM   C10S15610   2.290   2.794   3.645 -0.3806  0.6561 -0.3708
  143OSM   H10S15611   2.198   2.750   3.600 -0.2996 -0.2503  0.3190
  143OSM   H10T15612   2.253   2.885   3.697 -1.2277 -0.0894  0.3734
  143OSM   C11S15613   2.358   2.702   3.749  1.0229  0.8260  0.4601
  143OSM   H11S15614   2.421   2.766   3.814  0.9672  1.8358 -0.4522
  143OSM   H11T15615   2.416   2.619   3.703  1.8870  0.8826  1.3963
  143OSM   C12S15616   2.254   2.638   3.840 -0.0250  0.2618  0.5129
  143OSM   H12S15617   2.173   2.578   3.792  0.3286 -0.7841  1.1914
  143OSM   H12T15618   2.212   2.719   3.903 -0.8271  1.0549 -0.9930
  143OSM   C13S15619   2.318   2.532   3.940 -0.1574  0.0566  0.4352
  143OSM   H13S15620   2.410   2.569   3.990 -0.0669  0.1035  0.2367
  143OSM   H13T15621   2.323   2.441   3.876  0.8286  1.4992 -1.6344
  143OSM   C14S15622   2.215   2.504   4.057 -0.7991  0.4384 -0.0002
  143OSM   H14S15623   2.122   2.463   4.013  0.7989 -0.4004 -2.8497
  143OSM   H14T15624   2.188   2.597   4.111  0.8206  1.1183 -0.2864
  143OSM   C15S15625   2.275   2.401   4.157  0.0819  0.7692  0.3046
  143OSM   H15S15626   2.371   2.447   4.190 -0.1252  1.1843  0.3276
  143OSM   H15T15627   2.306   2.312   4.098  0.9104  1.5852 -0.5353
  143OSM   C16S15628   2.183   2.354   4.258  0.1563 -0.4614  0.4244
  143OSM   H16S15629   2.096   2.308   4.206 -2.9301  3.4937  1.5860
  143OSM   H16T15630   2.145   2.439   4.319 -0.2527 -1.3734  1.4809
  143OSM   C17S15631   2.245   2.250   4.347 -0.7497 -0.4251  0.0271
  143OSM   H17S15632   2.283   2.166   4.285  1.5078  0.0137  0.7117
  143OSM   H17T15633   2.161   2.215   4.410  0.0555 -0.4382  1.1292
  143OSM   C18S15634   2.342   2.303   4.447 -0.0132 -0.1414 -0.3673
  143OSM   H18S15635   2.386   2.232   4.521  0.6893  0.0580 -0.5891
  143OSM   H18T15636   2.285   2.385   4.495 -0.0474  0.2979 -1.1492
  143OSM   H18U15637   2.429   2.350   4.398  1.3851 -1.9058  0.3160
  143OSM    C1F15638   2.884   2.927   2.979  0.7680  0.1105  0.5914
  143OSM     OF15639   2.885   3.037   2.917  0.0719  0.8102 -0.4330
  143OSM    C2F15640   2.986   2.888   3.086  0.0631  0.6426 -1.1715
  143OSM    H2F15641   3.072   2.832   3.043  0.0081 -0.6462  0.3259
  143OSM    H2G15642   2.926   2.820   3.150 -0.6978  0.5349 -1.9747
  143OSM    C3F15643   3.045   3.017   3.158 -0.0953  0.5276  0.0906
  143OSM    H3F15644   2.957   3.065   3.206  0.6943 -0.1548  2.3137
  143OSM    H3G15645   3.088   3.078   3.076  0.0710 -1.1124 -1.0882
  143OSM    C4F15646   3.149   2.981   3.260 -0.0701 -0.2692 -0.2431
  143OSM    H4F15647   3.238   2.953   3.199 -0.1653 -0.1677 -0.4308
  143OSM    H4G15648   3.114   2.891   3.315 -2.5761  0.8855  0.1833
  143OSM    C5F15649   3.183   3.094   3.359 -0.5128  0.3426 -0.6830
  143OSM    H5F15650   3.107   3.169   3.330 -1.0275 -0.1574 -0.6502
  143OSM    H5G15651   3.278   3.147   3.336  0.4465 -1.8178 -1.9548
  143OSM    C6F15652   3.159   3.074   3.514 -0.1444  0.2814 -0.4605
  143OSM    H6F15653   3.162   3.179   3.551 -0.1155  0.1237 -0.0075
  143OSM    H6G15654   3.237   3.016   3.567  0.6432  1.6541 -0.0420
  143OSM    C7F15655   3.019   3.010   3.543 -0.1720 -0.5722 -0.5516
  143OSM    H7F15656   3.011   2.899   3.536 -0.0096 -0.6442  0.3310
  143OSM    H7G15657   2.943   3.049   3.472  0.3698 -1.0938 -1.4338
  143OSM    C8F15658   2.967   3.049   3.680  0.0296  0.2017 -0.1909
  143OSM    H8F15659   2.864   3.007   3.689  0.0231 -0.1971 -1.7551
  143OSM    H8G15660   2.953   3.159   3.684  0.0748  0.2884 -1.7410
  143OSM    C9F15661   3.063   2.997   3.779  0.6345  0.5544 -0.7816
  143OSM    H9F15662   3.127   2.915   3.742 -0.5462  0.2669 -2.2619
  143OSM   C10F15663   3.077   3.044   3.905  0.6788  0.3481 -0.4402
  143OSM   H10F15664   3.144   2.986   3.970  0.0598 -0.2018 -0.2827
  143OSM   C11F15665   2.991   3.150   3.965  0.5979  0.0109 -0.1793
  143OSM   H11F15666   2.887   3.112   3.960  1.1124 -1.3205 -1.3877
  143OSM   H11G15667   3.002   3.249   3.914  2.0582  2.4093  4.1937
  143OSM   C12F15668   3.033   3.170   4.107 -0.1130  0.6247 -0.8515
  143OSM   H12F15669   3.129   3.224   4.099  0.6518 -0.7404 -1.0421
  143OSM   H12G15670   3.053   3.078   4.165  1.9763  2.4594  1.6063
  143OSM   C13F15671   2.918   3.257   4.184  0.1182 -0.1574  0.1731
  143OSM   H13F15672   2.817   3.210   4.180  0.8081 -1.6335 -0.7404
  143OSM   H13G15673   2.913   3.351   4.125  0.6043  0.8718  1.7125
  143OSM   C14F15674   2.954   3.284   4.332 -0.7458  0.1520  0.6440
  143OSM   H14F15675   2.883   3.361   4.368  0.1018  0.4261  1.7840
  143OSM   H14G15676   3.057   3.325   4.339 -1.1398  0.9914  1.7347
  143OSM   C15F15677   2.948   3.154   4.415  0.5903 -0.0678 -0.0681
  143OSM   H15F15678   3.010   3.065   4.392 -0.6887 -1.0993  0.3152
  143OSM   H15G15679   2.843   3.117   4.420  0.2416  1.0490  1.6920
  143OSM   C16F15680   2.985   3.176   4.559  0.0284  1.0384  0.0967
  143OSM   H16F15681   2.940   3.268   4.601 -0.9382  0.9557 -0.7174
  143OSM   H16G15682   3.094   3.199   4.560 -0.1945  2.2010 -0.5246
  143OSM   C17F15683   2.974   3.051   4.647  0.2943  0.3695 -0.4769
  143OSM   H17F15684   3.012   3.072   4.749 -0.2695 -1.4450  0.1430
  143OSM   H17G15685   3.027   2.960   4.612  1.1615 -0.7676  3.3851
  143OSM   C18F15686   2.835   2.997   4.652  0.0434  0.4842  0.0937
  143OSM   H18F15687   2.772   3.081   4.687  0.0527  0.5767 -0.1157
  143OSM   H18G15688   2.830   2.907   4.718  1.3545 -0.5536 -1.1350
  143OSM   H18H15689   2.812   2.962   4.549  0.2363  1.1382 -0.1727
  144OSM      N15690   1.451   2.594   2.325  0.2503 -0.4408  0.3413
  144OSM    C1515691   1.485   2.729   2.275 -0.7042 -0.1747 -0.5330
  144OSM   H15A15692   1.539   2.720   2.182  2.5273  0.1908  1.1485
  144OSM   H15B15693   1.549   2.780   2.345  1.3976 -2.5683 -0.5635
  144OSM   H15C15694   1.399   2.790   2.254  1.1117  2.3302 -1.2037
  144OSM    C1415695   1.350   2.626   2.434  0.5340  0.5010 -0.2120
  144OSM   H14A15696   1.338   2.543   2.501  1.8145  1.4650  1.2872
  144OSM   H14B15697   1.252   2.643   2.393  0.5329 -0.1847 -0.5078
  144OSM   H14C15698   1.381   2.710   2.494 -0.8651  0.3519  0.7441
  144OSM    C1315699   1.393   2.518   2.209  0.6747  0.6249 -0.1679
  144OSM   H13A15700   1.296   2.547   2.171 -0.2562 -2.0183 -0.0240
  144OSM   H13B15701   1.374   2.416   2.241  2.3802  0.1365 -0.6072
  144OSM   H13C15702   1.462   2.510   2.126  1.0158  0.6404  0.1156
  144OSM    C1215703   1.566   2.524   2.379 -0.2087 -0.7319 -0.0928
  144OSM   H12A15704   1.626   2.491   2.296 -1.2429  1.4782 -1.8364
  144OSM   H12B15705   1.520   2.440   2.429 -3.1125  1.3544  1.0168
  144OSM    C1115706   1.650   2.604   2.490  0.0103 -0.2669 -0.2534
  144OSM   H11A15707   1.718   2.530   2.537  0.8135  0.6080 -0.0131
  144OSM   H11B15708   1.576   2.649   2.560 -1.7708  0.4213 -2.4490
  144OSM      P15709   1.878   2.694   2.384 -0.2030 -0.5119 -0.2024
  144OSM    O1315710   1.895   2.622   2.256  0.5937 -0.2079 -1.3407
  144OSM    O1415711   1.933   2.833   2.375  0.2319  0.4163 -0.4480
  144OSM    O1115712   1.935   2.604   2.500 -0.6902 -0.1574  0.4923
  144OSM    O1215713   1.731   2.700   2.421  0.1910 -1.2095  0.0324
  144OSM    C1S15714   1.988   2.662   2.624  0.8418  0.2204  0.0436
  144OSM    H1S15715   1.934   2.758   2.637 -2.2065 -1.2334 -0.8149
  144OSM    H1T15716   2.098   2.673   2.622  1.2301 -2.0992  2.6320
  144OSM     NF15717   1.998   2.646   2.867 -1.0942  0.3931  0.6785
  144OSM    HNF15718   2.091   2.622   2.895 -1.3103 -1.6520 -0.1761
  144OSM    C2S15719   1.962   2.565   2.745  0.4926  0.2338 -0.0468
  144OSM    H2S15720   1.853   2.548   2.749  0.2064  2.1185  2.0448
  144OSM    C3S15721   2.026   2.424   2.722 -0.1373 -0.1980  0.0124
  144OSM    H3S15722   2.133   2.450   2.710 -0.3271  0.7691  0.3441
  144OSM     O315723   1.990   2.352   2.602 -0.3258 -0.5136  0.0454
  144OSM    HO315724   1.932   2.411   2.552  1.4801  0.2225 -1.2881
  144OSM    C4S15725   2.008   2.335   2.841  0.3499  0.1596  0.0830
  144OSM    H4S15726   1.901   2.320   2.863  0.2917  0.7093  0.1926
  144OSM    C5S15727   2.097   2.252   2.895  0.5752  0.2605  0.2661
  144OSM    H5S15728   2.200   2.269   2.861  1.4566 -0.1881  2.5685
  144OSM    C6S15729   2.069   2.147   2.997  0.5588 -0.1904 -0.3870
  144OSM    H6S15730   2.127   2.172   3.089  0.7930  1.1710 -0.8709
  144OSM    H6T15731   2.106   2.047   2.969  0.5468 -1.0386  2.2956
  144OSM    C7S15732   1.919   2.130   3.035 -0.7024 -0.5124  0.1777
  144OSM    H7S15733   1.858   2.119   2.942 -0.9650 -1.3115  0.4339
  144OSM    H7T15734   1.891   2.219   3.095 -1.2401 -0.9160  0.5510
  144OSM    C8S15735   1.894   2.008   3.123  0.5495 -0.1859  0.1915
  144OSM    H8S15736   1.929   1.917   3.070  0.0533 -1.0648  1.3217
  144OSM    H8T15737   1.783   1.999   3.123  0.3468  1.6447 -1.1917
  144OSM    C9S15738   1.947   2.016   3.270  1.0493 -0.2500  0.0760
  144OSM    H9S15739   1.942   2.124   3.294  0.1558  0.7280 -3.7781
  144OSM    H9T15740   2.056   1.997   3.270  1.0948 -0.0779 -1.0246
  144OSM   C10S15741   1.884   1.912   3.360 -0.1542 -0.1048  0.3435
  144OSM   H10S15742   1.911   1.811   3.324 -0.5458  0.6013 -2.1229
  144OSM   H10T15743   1.773   1.920   3.357 -0.1010  0.3953 -0.6001
  144OSM   C11S15744   1.939   1.927   3.504  0.1380  0.5274  0.3654
  144OSM   H11S15745   1.900   2.022   3.545  1.1122  1.6885 -1.2666
  144OSM   H11T15746   2.050   1.933   3.499  0.2467  0.7665  2.3513
  144OSM   C12S15747   1.884   1.811   3.586  0.4203  0.3496  0.4517
  144OSM   H12S15748   1.922   1.721   3.534  0.2423  0.9704 -0.7992
  144OSM   H12T15749   1.773   1.805   3.576  0.5149  0.8067 -1.1747
  144OSM   C13S15750   1.920   1.808   3.736 -0.5107  0.6370 -0.4083
  144OSM   H13S15751   1.880   1.898   3.788  1.4620  0.6951  1.1607
  144OSM   H13T15752   2.031   1.819   3.736 -0.5173  0.9357 -2.2765
  144OSM   C14S15753   1.891   1.679   3.805  0.5766 -0.4416 -0.6193
  144OSM   H14S15754   1.927   1.590   3.748  0.7244  0.6116 -2.2342
  144OSM   H14T15755   1.785   1.663   3.835  0.7698  0.0037  0.3300
  144OSM   C15S15756   1.971   1.688   3.943 -0.6463  0.1004  0.8594
  144OSM   H15S15757   1.943   1.777   4.004 -0.8527  1.6502 -1.3706
  144OSM   H15T15758   2.078   1.676   3.916  0.1732  1.4072  3.1711
  144OSM   C16S15759   1.947   1.571   4.030 -0.1827 -0.0640 -0.7310
  144OSM   H16S15760   1.933   1.483   3.964  0.4414 -1.1734  0.5609
  144OSM   H16T15761   1.856   1.581   4.093 -0.4266 -0.6999 -0.9734
  144OSM   C17S15762   2.066   1.538   4.125 -0.2228 -0.3058  0.6515
  144OSM   H17S15763   2.094   1.630   4.179 -0.0238  0.2748 -0.4102
  144OSM   H17T15764   2.155   1.506   4.066 -0.1731  1.5273 -0.3397
  144OSM   C18S15765   2.024   1.431   4.219  0.5946 -0.4330 -0.0415
  144OSM   H18S15766   2.109   1.408   4.286 -1.0560  0.6542  2.5509
  144OSM   H18T15767   1.999   1.335   4.168  0.6868 -1.0582  1.0735
  144OSM   H18U15768   1.941   1.470   4.281  2.8429  0.1969  2.7806
  144OSM    C1F15769   1.933   2.747   2.922  0.3464  0.4358 -0.7484
  144OSM     OF15770   1.815   2.778   2.882 -0.4212  0.2832 -0.0363
  144OSM    C2F15771   1.997   2.830   3.030 -0.2328  1.0934 -0.0256
  144OSM    H2F15772   1.961   2.935   3.022 -1.8906  0.5039 -0.6823
  144OSM    H2G15773   2.108   2.825   3.023 -0.1366  1.6201  0.9228
  144OSM    C3F15774   1.969   2.790   3.183  0.3432 -0.1637 -0.4706
  144OSM    H3F15775   1.862   2.805   3.206  0.7748  1.0153  0.9393
  144OSM    H3G15776   2.026   2.855   3.253 -0.8069 -0.5158  0.8208
  144OSM    C4F15777   2.010   2.647   3.217  0.2035 -0.7654 -0.2375
  144OSM    H4F15778   2.118   2.629   3.198 -0.0329 -0.0239 -2.4955
  144OSM    H4G15779   1.946   2.584   3.151 -1.6634  0.3005  0.4708
  144OSM    C5F15780   1.979   2.615   3.365 -0.0446  0.9080  0.1059
  144OSM    H5F15781   1.869   2.616   3.380 -0.4590 -2.0363 -1.9254
  144OSM    H5G15782   2.036   2.690   3.425  2.9258 -1.3477  0.3710
  144OSM    C6F15783   2.032   2.470   3.388 -0.0178 -0.6697  0.0881
  144OSM    H6F15784   2.139   2.476   3.357  0.2200  1.2004  1.1420
  144OSM    H6G15785   1.971   2.399   3.328 -3.2792  1.8865  0.1421
  144OSM    C7F15786   2.022   2.422   3.536  0.2318  0.4241  0.3887
  144OSM    H7F15787   1.918   2.435   3.575 -0.4148  0.4479 -1.2790
  144OSM    H7G15788   2.093   2.478   3.601 -0.5520 -0.2107  1.8653
  144OSM    C8F15789   2.059   2.276   3.559 -0.1609  0.5229  0.7010
  144OSM    H8F15790   2.009   2.217   3.479 -1.0735  2.6914 -0.4259
  144OSM    H8G15791   2.023   2.240   3.657  2.7234  1.3934  2.2044
  144OSM    C9F15792   2.209   2.265   3.543  0.1988 -0.6882 -0.0041
  144OSM    H9F15793   2.243   2.327   3.460  2.7125 -0.2758  1.2078
  144OSM   C10F15794   2.295   2.204   3.634  0.7216  0.8716 -0.3165
  144OSM   H10F15795   2.402   2.219   3.614  1.0175 -3.4042 -3.2645
  144OSM   C11F15796   2.259   2.132   3.761 -0.9225  0.2754 -0.7215
  144OSM   H11F15797   2.186   2.054   3.732 -2.7647  2.2674 -1.7121
  144OSM   H11G15798   2.207   2.207   3.825 -0.0298  1.6843 -1.5850
  144OSM   C12F15799   2.390   2.084   3.826 -0.0469  0.1844 -0.0346
  144OSM   H12F15800   2.463   2.166   3.845 -1.4273  1.6802 -0.9403
  144OSM   H12G15801   2.425   2.007   3.753 -1.6152 -1.1478  0.5544
  144OSM   C13F15802   2.366   2.009   3.956 -0.1421 -0.4514 -0.0996
  144OSM   H13F15803   2.322   1.910   3.931 -0.5036 -0.4219  0.3945
  144OSM   H13G15804   2.293   2.072   4.012 -3.0968 -2.8283 -0.9710
  144OSM   C14F15805   2.500   1.997   4.039 -0.1928  0.0666 -0.5019
  144OSM   H14F15806   2.546   2.097   4.055 -0.1301 -0.2895  1.9338
  144OSM   H14G15807   2.574   1.937   3.982 -1.6058  0.4086 -2.8142
  144OSM   C15F15808   2.470   1.927   4.178  0.2191  0.0736  1.1506
  144OSM   H15F15809   2.408   1.835   4.165 -1.2424  1.2691 -0.9256
  144OSM   H15G15810   2.425   2.002   4.247  0.7003  2.3028 -0.8341
  144OSM   C16F15811   2.598   1.885   4.249 -0.7965  0.0939 -0.1309
  144OSM   H16F15812   2.668   1.966   4.276 -2.1950  1.2049  0.2575
  144OSM   H16G15813   2.651   1.821   4.175 -0.0267  0.9396 -0.3276
  144OSM   C17F15814   2.562   1.815   4.386 -0.4050 -0.0950 -0.0056
  144OSM   H17F15815   2.487   1.738   4.355  0.1911 -1.5897  2.0402
  144OSM   H17G15816   2.519   1.890   4.456 -0.0549  0.1291 -0.0309
  144OSM   C18F15817   2.685   1.745   4.455  0.2200 -0.3295 -0.2699
  144OSM   H18F15818   2.657   1.716   4.558 -1.1242 -1.4080 -0.9100
  144OSM   H18G15819   2.771   1.815   4.459 -0.0644 -0.0285  2.3098
  144OSM   H18H15820   2.713   1.656   4.395 -1.9003 -1.5443  0.4251
  145SAPE     N15821   0.825   2.590   7.131  0.0713  0.4320 -0.5724
  145SAPE   HN115822   0.791   2.584   7.230 -0.7239 -2.1234 -0.9437
  145SAPE   HN215823   0.915   2.641   7.123 -0.2226  0.9204 -0.8468
  145SAPE   HN315824   0.753   2.642   7.077 -0.4458  1.2250  0.8003
  145SAPE   C1215825   0.829   2.453   7.076 -0.3806 -0.8523  0.4714
  145SAPE  H12A15826   0.735   2.398   7.097 -1.2251  0.4987  0.3588
  145SAPE  H12B15827   0.912   2.398   7.126 -0.4353 -2.5041 -1.1132
  145SAPE   C1115828   0.847   2.461   6.922  0.1679 -0.4039 -0.1924
  145SAPE  H11A15829   0.752   2.497   6.878 -1.9404 -3.0710  1.8388
  145SAPE  H11B15830   0.858   2.356   6.885 -1.4086 -1.5981  2.4787
  145SAPE     P15831   1.073   2.520   6.785 -0.0207 -0.2037 -0.2380
  145SAPE   O1315832   1.195   2.535   6.868  0.0560  0.0804  0.2722
  145SAPE   O1415833   1.057   2.384   6.724  0.7140  0.1255 -0.9211
  145SAPE   O1215834   0.953   2.550   6.889  0.8963 -0.0532  0.2130
  145SAPE   O1115835   1.056   2.637   6.680  0.2376  0.5842  0.8707
  145SAPE    C115836   0.940   2.668   6.613 -0.2006 -0.9796 -0.1372
  145SAPE    HA15837   0.860   2.698   6.684 -1.6108 -0.3628 -1.8987
  145SAPE    HB15838   0.967   2.749   6.542  0.2531 -2.4746 -1.7340
  145SAPE    C215839   0.876   2.552   6.525 -0.1124  0.4163 -0.6576
  145SAPE    HS15840   0.845   2.472   6.596 -1.3394 -0.3031 -1.9461
  145SAPE   O2115841   0.974   2.491   6.430 -0.4200 -0.2938 -0.7383
  145SAPE   C2115842   0.946   2.372   6.383 -0.0110  0.7613  0.2162
  145SAPE   O2215843   0.858   2.292   6.423 -0.5458 -0.3783 -0.3238
  145SAPE   C2215844   1.040   2.344   6.260  1.0378 -0.2765 -0.6586
  145SAPE   H2R15845   1.142   2.351   6.302  0.4611 -1.0218  0.9469
  145SAPE   H2S15846   1.022   2.240   6.226 -0.1133 -0.2770 -0.1315
  145SAPE    C315847   0.749   2.613   6.461  0.2093  0.3264  1.2097
  145SAPE    HX15848   0.679   2.639   6.543  1.2336  1.8020  1.6474
  145SAPE    HY15849   0.721   2.523   6.401  3.0123  0.1184  0.0641
  145SAPE   O3115850   0.781   2.726   6.366 -0.2432 -1.2414  0.2690
  145SAPE   C3115851   0.683   2.749   6.275  0.0934 -0.4664 -0.1519
  145SAPE   O3215852   0.584   2.677   6.271 -0.6690  0.7326  0.3280
  145SAPE   C3215853   0.702   2.883   6.201 -1.0614  0.7523 -0.2701
  145SAPE   H2X15854   0.807   2.881   6.164 -0.5338  0.1420  1.1608
  145SAPE   H2Y15855   0.686   2.965   6.275  0.0093  1.0917 -0.3973
  145SAPE   C2315856   1.018   2.445   6.142  0.2848 -0.1845 -0.2327
  145SAPE   H3R15857   0.911   2.471   6.129  0.3881  2.0054  2.4412
  145SAPE   H3S15858   1.044   2.395   6.046 -1.2928  1.0475 -1.3552
  145SAPE   C2415859   1.115   2.571   6.147 -0.2771  0.1491 -0.2439
  145SAPE   H4R15860   1.220   2.550   6.117  0.0908  0.0603  1.0609
  145SAPE   H4S15861   1.121   2.596   6.255 -3.4571 -2.0148  0.5906
  145SAPE   C2515862   1.044   2.690   6.083 -0.1135 -0.7666 -0.4302
  145SAPE   H5R15863   0.980   2.745   6.153 -0.8217 -2.8407  0.6185
  145SAPE   C2615864   1.075   2.741   5.957  0.0139 -0.1881 -0.4924
  145SAPE   H6R15865   1.022   2.833   5.928  0.3200  0.4180  0.8332
  145SAPE   C2715866   1.173   2.680   5.849  0.2273  0.1303  0.0327
  145SAPE   H7R15867   1.120   2.641   5.759 -1.5387 -1.2130  1.5778
  145SAPE   H7S15868   1.226   2.585   5.873 -0.0952  0.4984  2.3454
  145SAPE   C2815869   1.291   2.779   5.822 -0.5288 -0.7740 -0.2071
  145SAPE   H8R15870   1.366   2.792   5.902 -0.5204  1.1703 -0.4893
  145SAPE   C2915871   1.307   2.843   5.708 -0.2873  0.1002 -0.1570
  145SAPE   H9R15872   1.398   2.901   5.687  0.5954 -2.4534 -5.0178
  145SAPE  C21015873   1.223   2.829   5.578 -0.0286 -0.0134 -0.1728
  145SAPE  H10R15874   1.205   2.934   5.545 -0.3980 -0.1418 -0.3880
  145SAPE  H10S15875   1.121   2.790   5.600  0.0595  0.0083  0.2847
  145SAPE  C21115876   1.272   2.740   5.466 -0.2310  0.3890 -0.1967
  145SAPE  H11R15877   1.257   2.632   5.484  0.1595  0.3665  0.0128
  145SAPE  C21215878   1.335   2.783   5.356  0.6357  0.3133  0.1279
  145SAPE  H12R15879   1.360   2.706   5.282  1.4569  1.3956 -0.7518
  145SAPE  C21315880   1.383   2.915   5.309 -0.7749  0.0506  0.1634
  145SAPE  H13R15881   1.371   2.994   5.386  0.2591  0.4573 -0.0809
  145SAPE  H13S15882   1.320   2.951   5.225  0.0833 -0.4967 -0.7286
  145SAPE  C21415883   1.536   2.900   5.275 -0.1505 -0.1654  0.1689
  145SAPE  H14R15884   1.604   2.896   5.362 -1.5633  0.9679  1.3912
  145SAPE  C21515885   1.593   2.881   5.152 -0.6711  0.1877 -0.6245
  145SAPE  H15R15886   1.701   2.864   5.155 -0.7015 -0.3424  3.7630
  145SAPE  C21615887   1.518   2.871   5.014  0.7197  0.4639  0.1987
  145SAPE  H16R15888   1.410   2.874   5.040  1.2833 -2.5016  3.5289
  145SAPE  H16S15889   1.529   2.767   4.977 -2.0414 -0.7028  2.3268
  145SAPE  C21715890   1.557   2.982   4.916 -0.2458 -0.0525 -0.2803
  145SAPE  H17R15891   1.668   2.988   4.919 -0.0230 -2.7973 -1.0658
  145SAPE  H17S15892   1.526   3.086   4.940 -2.2951 -0.8496  0.7892
  145SAPE  C21815893   1.512   2.946   4.781 -0.7779 -0.8039 -0.3681
  145SAPE  H18R15894   1.403   2.935   4.760 -1.2630 -0.0018  1.4850
  145SAPE  H18S15895   1.570   2.858   4.746 -0.1241  0.2861 -2.1281
  145SAPE  C21915896   1.560   3.057   4.681  0.1718  0.6897  0.3833
  145SAPE  H19R15897   1.543   3.162   4.713  0.3469  0.1863  2.2078
  145SAPE  H19S15898   1.494   3.040   4.593 -1.3364 -0.3246  1.6532
  145SAPE  C22015899   1.711   3.052   4.638  0.2719 -1.0947  0.8385
  145SAPE  H20R15900   1.746   2.955   4.595 -1.0855 -0.7833 -1.0798
  145SAPE  H20S15901   1.776   3.073   4.726 -1.6123 -3.0334  2.8255
  145SAPE  H20T15902   1.712   3.133   4.562 -5.8876 -0.5402  0.8433
  145SAPE   C3315903   0.609   2.898   6.075 -0.3567  0.0514 -0.1097
  145SAPE   H3X15904   0.504   2.885   6.108 -0.0774  0.9186  1.2068
  145SAPE   H3Y15905   0.645   2.824   6.000 -1.4692 -1.0338  0.3894
  145SAPE   C3415906   0.637   3.029   6.005  0.1377  0.2259 -0.1598
  145SAPE   H4X15907   0.738   3.032   5.959 -0.7606 -2.9737 -2.6862
  145SAPE   H4Y15908   0.629   3.116   6.074  0.6147  0.3815 -0.2909
  145SAPE   C3515909   0.529   3.061   5.903  0.0855  0.0211  0.2184
  145SAPE   H5X15910   0.440   3.100   5.957 -0.8141  0.7293 -1.6913
  145SAPE   H5Y15911   0.503   2.967   5.849 -1.6736  0.1063  0.8375
  145SAPE   C3615912   0.572   3.157   5.791  0.6792 -0.2906  0.0958
  145SAPE   H6X15913   0.666   3.114   5.749  0.2107  1.0932 -2.6093
  145SAPE   H6Y15914   0.601   3.256   5.832 -0.1121  0.6371 -1.4880
  145SAPE   C3715915   0.475   3.170   5.671 -0.2712 -0.4120 -0.6560
  145SAPE   H7X15916   0.377   3.215   5.699 -0.6398 -2.3955  1.5594
  145SAPE   H7Y15917   0.453   3.069   5.632 -0.6353  0.1995 -2.1052
  145SAPE   C3815918   0.549   3.259   5.565  0.4589  0.3861  0.5123
  145SAPE   H8X15919   0.638   3.311   5.605  0.3279  1.5237 -0.6131
  145SAPE   H8Y15920   0.474   3.332   5.529 -3.2681 -3.4906 -0.4671
  145SAPE   C3915921   0.580   3.175   5.438 -0.1594 -1.2645 -0.2263
  145SAPE   H9X15922   0.503   3.098   5.415  0.2795 -2.0576  0.8466
  145SAPE   H9Y15923   0.677   3.124   5.453  0.4069  0.0097  0.6088
  145SAPE  C31015924   0.607   3.280   5.328 -0.4783  0.0287  0.1470
  145SAPE  H10X15925   0.681   3.354   5.364 -0.4294  0.3791 -0.6399
  145SAPE  H10Y15926   0.514   3.331   5.294  0.2218 -0.7320 -3.2800
  145SAPE  C31115927   0.641   3.213   5.195  0.0832  0.3975 -0.4333
  145SAPE  H11X15928   0.575   3.124   5.193 -0.2520  0.6267  0.1574
  145SAPE  H11Y15929   0.742   3.167   5.196  0.4004  1.0774 -0.6952
  145SAPE  C31215930   0.632   3.313   5.079 -0.1691 -0.0201  0.2097
  145SAPE  H12X15931   0.705   3.393   5.105  0.9234 -1.4730  1.8543
  145SAPE  H12Y15932   0.528   3.351   5.076 -0.1944 -0.1235 -0.2902
  145SAPE  C31315933   0.659   3.247   4.943 -0.5649 -0.4887  0.7789
  145SAPE  H13X15934   0.566   3.192   4.920 -0.7506  0.5470 -1.1413
  145SAPE  H13Y15935   0.751   3.184   4.940  0.2653  0.7260 -0.6732
  145SAPE  C31415936   0.664   3.356   4.837 -0.2781  1.0877 -1.1048
  145SAPE  H14X15937   0.755   3.420   4.846 -0.5461  1.4196 -0.7223
  145SAPE  H14Y15938   0.573   3.420   4.837 -1.2520 -0.2555 -1.2822
  145SAPE  C31515939   0.673   3.294   4.700  0.2878  0.5784  0.5309
  145SAPE  H15X15940   0.573   3.255   4.676 -0.0806  1.1038  1.1615
  145SAPE  H15Y15941   0.757   3.221   4.697 -1.6619 -1.7541 -0.1610
  145SAPE  C31615942   0.707   3.391   4.590  0.1825 -0.1657 -0.6395
  145SAPE  H16X15943   0.813   3.414   4.613  0.6454  0.3946 -3.0441
  145SAPE  H16Y15944   0.647   3.485   4.591  1.1967  0.4936 -0.4942
  145SAPE  C31715945   0.693   3.326   4.459 -0.5622  0.0655  0.6235
  145SAPE  H17X15946   0.588   3.299   4.434 -0.2228 -0.4849 -0.2288
  145SAPE  H17Y15947   0.756   3.235   4.444 -1.4304 -0.3962 -0.3179
  145SAPE  C31815948   0.743   3.428   4.350 -0.4995  0.1545 -0.2989
  145SAPE  H18X15949   0.837   3.481   4.378 -1.4420  2.0245 -0.5630
  145SAPE  H18Y15950   0.664   3.506   4.346 -0.0721  0.5516 -1.3339
  145SAPE  H18Z15951   0.740   3.389   4.246  1.4075  1.9770 -1.1280
  146SAPE     N15952   4.450   3.798   7.191  0.2461  0.0274  0.1027
  146SAPE   HN115953   4.376   3.773   7.260 -0.3406  1.9746  0.2457
  146SAPE   HN215954   4.520   3.864   7.230  0.2840 -0.6191  1.1731
  146SAPE   HN315955   4.397   3.826   7.106 -2.9349 -0.4322  1.7689
  146SAPE   C1215956   4.510   3.675   7.169  0.3647  0.6149  0.3546
  146SAPE  H12A15957   4.589   3.684   7.091 -0.0498 -1.2187 -0.3324
  146SAPE  H12B15958   4.441   3.602   7.123  2.1323 -1.2605  0.5191
  146SAPE   C1115959   4.564   3.618   7.297 -0.4807 -0.7490 -0.3047
  146SAPE  H11A15960   4.479   3.575   7.355 -1.8203  1.7880 -0.2630
  146SAPE  H11B15961   4.597   3.702   7.361 -1.8709  0.0823 -0.6308
  146SAPE     P15962   4.641   3.379   7.242 -0.1403 -0.2086  0.1206
  146SAPE   O1315963   4.757   3.311   7.177 -0.5340  0.4066 -0.3838
  146SAPE   O1415964   4.600   3.326   7.372 -0.1300 -0.3954  0.5388
  146SAPE   O1215965   4.670   3.527   7.272  0.3899 -0.2284  0.2034
  146SAPE   O1115966   4.519   3.374   7.141  0.0244 -0.5154  0.4645
  146SAPE    C115967   4.379   3.346   7.177  0.3006 -0.4390  0.2355
  146SAPE    HA15968   4.362   3.293   7.273 -1.9706  1.1181  0.7742
  146SAPE    HB15969   4.334   3.445   7.202  1.0530 -0.3045  1.1494
  146SAPE    C215970   4.298   3.289   7.062 -0.0163 -0.3295  0.2225
  146SAPE    HS15971   4.349   3.194   7.032  1.9687 -0.0418  2.4048
  146SAPE   O2115972   4.302   3.387   6.955  1.0325 -0.5618 -0.2767
  146SAPE   C2115973   4.302   3.337   6.834 -0.3253  0.1608  0.6558
  146SAPE   O2215974   4.308   3.219   6.805 -0.6568  0.6268  0.5162
  146SAPE   C2215975   4.305   3.450   6.736 -1.1510 -0.0038 -0.0943
  146SAPE   H2R15976   4.263   3.545   6.776 -1.1504  0.4909 -1.2132
  146SAPE   H2S15977   4.410   3.462   6.702 -0.4638 -1.3926  1.4006
  146SAPE    C315978   4.147   3.264   7.099  0.0346 -0.8323 -0.4295
  146SAPE    HX15979   4.118   3.370   7.116  0.5575 -0.8742  0.7948
  146SAPE    HY15980   4.131   3.208   7.193 -2.2748 -1.8718 -1.3581
  146SAPE   O3115981   4.075   3.210   6.995  0.1254 -0.4076  0.1032
  146SAPE   C3115982   4.085   3.077   6.987 -0.2064  0.0906 -0.5689
  146SAPE   O3215983   4.168   3.017   7.046 -0.0055  0.2319  0.6379
  146SAPE   C3215984   3.978   3.026   6.890  0.5816  0.0362 -0.4636
  146SAPE   H2X15985   3.955   3.106   6.817 -1.4865 -1.6294 -1.7527
  146SAPE   H2Y15986   3.890   3.012   6.956  0.7017 -2.1899 -0.6961
  146SAPE   C2315987   4.231   3.418   6.603 -0.1799  0.5811 -0.6537
  146SAPE   H3R15988   4.186   3.515   6.574 -0.6604 -0.0223 -1.9609
  146SAPE   H3S15989   4.152   3.342   6.622 -0.1555 -0.5437 -4.2869
  146SAPE   C2415990   4.314   3.381   6.473 -0.0368 -0.2883 -0.1341
  146SAPE   H4R15991   4.398   3.450   6.450 -0.8458  0.7346 -0.0864
  146SAPE   H4S15992   4.252   3.410   6.385  1.1025  0.7566 -0.6208
  146SAPE   C2515993   4.370   3.237   6.471  0.2795 -0.3270 -0.5178
  146SAPE   H5R15994   4.360   3.178   6.563  1.9103  0.9857  0.5639
  146SAPE   C2615995   4.404   3.181   6.360 -0.0330  0.1802 -1.0932
  146SAPE   H6R15996   4.452   3.084   6.382 -1.0007  0.5508  3.9634
  146SAPE   C2715997   4.413   3.236   6.224  0.7608  0.1339  0.2088
  146SAPE   H7R15998   4.508   3.197   6.181 -1.1207 -2.7912 -1.7237
  146SAPE   H7S15999   4.432   3.344   6.236  0.0045  0.1477  1.3666
  146SAPE   C2816000   4.299   3.203   6.123 -0.0245  0.4576 -0.2367
  146SAPE   H8R16001   4.196   3.197   6.160 -0.8312 -1.2047 -2.5301
  146SAPE   C2916002   4.315   3.212   5.990  0.2130  0.0512 -0.3035
  146SAPE   H9R16003   4.232   3.178   5.926 -0.2396 -2.0154  1.2631
  146SAPE  C21016004   4.424   3.252   5.908 -0.8122  0.3259  0.4849
  146SAPE  H10R16005   4.517   3.284   5.960  0.4804  0.4295 -1.7560
  146SAPE  H10S16006   4.386   3.342   5.855 -2.0086  1.1291  2.5493
  146SAPE  C21116007   4.463   3.146   5.804 -0.4188 -0.6371 -0.5250
  146SAPE  H11R16008   4.480   3.046   5.847  1.1945  0.1289  0.7307
  146SAPE  C21216009   4.502   3.172   5.675  0.1162 -0.8928 -0.6416
  146SAPE  H12R16010   4.529   3.085   5.613  1.6774 -0.1236 -1.0769
  146SAPE  C21316011   4.516   3.309   5.614  0.6962 -0.1405 -0.1612
  146SAPE  H13R16012   4.521   3.388   5.692  0.4862 -0.1394 -0.1500
  146SAPE  H13S16013   4.427   3.329   5.551  0.8060 -1.1754 -0.6685
  146SAPE  C21416014   4.628   3.329   5.526  0.1963 -0.1316 -0.1978
  146SAPE  H14R16015   4.699   3.401   5.570 -2.1362  0.2964  3.2176
  146SAPE  C21516016   4.636   3.287   5.402  0.0525 -0.2572 -0.1910
  146SAPE  H15R16017   4.712   3.326   5.333  0.4195 -1.0749 -0.2640
  146SAPE  C21616018   4.528   3.205   5.331 -0.0981  0.3248  0.3541
  146SAPE  H16R16019   4.473   3.135   5.398 -0.7013  0.4537  0.0054
  146SAPE  H16S16020   4.574   3.139   5.255  1.4480 -0.4168  1.8582
  146SAPE  C21716021   4.419   3.286   5.254  0.1045 -0.8714  0.4124
  146SAPE  H17R16022   4.407   3.388   5.296  1.4223 -0.7266  0.4687
  146SAPE  H17S16023   4.315   3.247   5.258  0.3137 -1.3187  2.4851
  146SAPE  C21816024   4.443   3.288   5.107 -0.8403  0.0864  1.4172
  146SAPE  H18R16025   4.443   3.186   5.064  1.2631  0.9417 -0.8442
  146SAPE  H18S16026   4.543   3.332   5.087 -0.3531 -0.8371  1.7966
  146SAPE  C21916027   4.336   3.379   5.034 -0.9739  0.4095 -0.3255
  146SAPE  H19R16028   4.331   3.473   5.092  1.9110 -0.9895  2.4434
  146SAPE  H19S16029   4.232   3.339   5.039 -0.6031 -0.5172  0.3506
  146SAPE  C22016030   4.365   3.417   4.888  0.0570 -0.2991  0.0112
  146SAPE  H20R16031   4.469   3.453   4.876  0.5651 -2.0261 -1.2429
  146SAPE  H20S16032   4.295   3.489   4.841 -1.7401 -0.5786  2.0955
  146SAPE  H20T16033   4.363   3.326   4.824 -0.5192  0.2558 -0.7771
  146SAPE   C3316034   4.025   2.894   6.819 -0.9275 -0.4791 -0.2677
  146SAPE   H3X16035   3.936   2.848   6.772 -1.9184 -0.1855  1.2194
  146SAPE   H3Y16036   4.048   2.820   6.898  0.5188 -1.8965 -1.9482
  146SAPE   C3416037   4.139   2.911   6.720  0.0343  0.4170 -0.5419
  146SAPE   H4X16038   4.196   2.819   6.696  1.3936  0.8779  0.7366
  146SAPE   H4Y16039   4.206   2.979   6.778 -1.5034  1.0628  0.5389
  146SAPE   C3516040   4.090   2.984   6.598 -1.0157 -0.1652  0.0112
  146SAPE   H5X16041   4.132   3.087   6.594 -2.0064  0.2817  0.6795
  146SAPE   H5Y16042   3.980   2.993   6.593 -0.9151  0.6613 -1.4187
  146SAPE   C3616043   4.137   2.906   6.472 -0.1650  0.4283 -0.2237
  146SAPE   H6X16044   4.248   2.904   6.484 -0.0699  2.7793 -0.2073
  146SAPE   H6Y16045   4.119   2.968   6.382 -0.5671 -0.5353 -0.8204
  146SAPE   C3716046   4.077   2.762   6.450 -0.3629 -0.6535  0.0002
  146SAPE   H7X16047   3.967   2.746   6.446 -0.3806 -1.0512  1.3974
  146SAPE   H7Y16048   4.100   2.713   6.548 -0.6252 -0.4958  0.1419
  146SAPE   C3816049   4.147   2.689   6.333  0.1459 -0.4953  0.2777
  146SAPE   H8X16050   4.118   2.582   6.329  1.9732 -0.9876 -2.3403
  146SAPE   H8Y16051   4.257   2.685   6.344  0.0088  0.3977  2.5440
  146SAPE   C3916052   4.112   2.740   6.192  0.3223 -0.5301  0.3280
  146SAPE   H9X16053   4.178   2.829   6.183  2.8417 -2.1390  1.6836
  146SAPE   H9Y16054   4.006   2.772   6.180  1.2025  1.7043 -2.5797
  146SAPE  C31016055   4.164   2.633   6.093 -0.1050 -0.3072  0.5058
  146SAPE  H10X16056   4.096   2.546   6.109 -2.3178  0.6565 -2.7526
  146SAPE  H10Y16057   4.263   2.601   6.132 -0.7753 -2.7835  0.3580
  146SAPE  C31116058   4.153   2.682   5.949  0.2614  0.3366  0.2032
  146SAPE  H11X16059   4.211   2.777   5.940  2.0067 -0.7961 -1.3995
  146SAPE  H11Y16060   4.043   2.686   5.936  0.2775 -2.7873 -1.9181
  146SAPE  C31216061   4.210   2.583   5.845  0.1759 -0.1434 -0.0363
  146SAPE  H12X16062   4.289   2.517   5.887  0.8195 -0.6421 -1.9212
  146SAPE  H12Y16063   4.266   2.632   5.762 -0.1207 -0.4524 -0.4259
  146SAPE  C31316064   4.091   2.501   5.789 -0.1391  0.0528  0.4922
  146SAPE  H13X16065   4.018   2.575   5.749  0.1987  2.5693  4.0538
  146SAPE  H13Y16066   4.037   2.448   5.871 -2.1055 -0.8110 -1.2699
  146SAPE  C31416067   4.138   2.398   5.683  0.6295 -0.1775 -0.5943
  146SAPE  H14X16068   4.044   2.365   5.633  0.0440  1.2803 -0.4907
  146SAPE  H14Y16069   4.191   2.310   5.726 -0.2458 -1.4556 -2.0084
  146SAPE  C31516070   4.217   2.465   5.569  0.2062 -0.0889  0.8404
  146SAPE  H15X16071   4.313   2.509   5.604  0.8746 -0.6786 -0.1855
  146SAPE  H15Y16072   4.156   2.540   5.515  0.4598 -1.5064 -1.5909
  146SAPE  C31616073   4.250   2.376   5.450  0.1058 -0.3281 -0.6494
  146SAPE  H16X16074   4.159   2.337   5.401 -0.9569  2.3533 -0.9712
  146SAPE  H16Y16075   4.313   2.287   5.475 -1.2562 -0.9806  0.6386
  146SAPE  C31716076   4.346   2.447   5.343 -0.2751 -0.2035 -0.2692
  146SAPE  H17X16077   4.441   2.471   5.395 -0.8308  3.0959 -0.5273
  146SAPE  H17Y16078   4.298   2.542   5.311  1.3405  0.1486 -1.7997
  146SAPE  C31816079   4.388   2.373   5.214 -0.2452 -0.1187 -0.7265
  146SAPE  H18X16080   4.438   2.441   5.142 -1.1800  0.0230 -1.2571
  146SAPE  H18Y16081   4.304   2.326   5.159 -1.1842  0.3731  0.2529
  146SAPE  H18Z16082   4.456   2.291   5.247 -1.8110 -0.4675  1.9303
  147SAPE     N16083   2.620   6.636   6.904 -0.1663 -0.1470  0.2145
  147SAPE   HN116084   2.616   6.577   6.990  0.1746 -3.2419 -1.7474
  147SAPE   HN216085   2.673   6.579   6.835  1.3830  2.4184 -0.8255
  147SAPE   HN316086   2.668   6.721   6.941 -1.5535  0.3274  0.9900
  147SAPE   C1216087   2.482   6.656   6.856  1.0252 -0.1414 -0.5314
  147SAPE  H12A16088   2.481   6.718   6.764  0.7985  1.0067  0.2138
  147SAPE  H12B16089   2.416   6.710   6.928 -1.7065 -1.0220 -2.2472
  147SAPE   C1116090   2.417   6.527   6.816 -0.6588 -0.0685 -0.0027
  147SAPE  H11A16091   2.498   6.484   6.754 -0.4649  0.0858  0.1437
  147SAPE  H11B16092   2.327   6.554   6.756 -0.6596  0.0980  0.0727
  147SAPE     P16093   2.373   6.279   6.888 -0.4449 -0.1278 -0.1234
  147SAPE   O1316094   2.503   6.227   6.836 -0.0583 -0.4496 -0.0317
  147SAPE   O1416095   2.323   6.222   7.011  0.5870 -0.1578 -0.7592
  147SAPE   O1216096   2.393   6.431   6.922  0.4764 -0.4184  0.0080
  147SAPE   O1116097   2.264   6.277   6.771 -0.6030  0.1152  0.3868
  147SAPE    C116098   2.137   6.331   6.808 -0.0352  0.5651  0.3828
  147SAPE    HA16099   2.072   6.286   6.886 -1.8118  3.6706  0.8988
  147SAPE    HB16100   2.143   6.435   6.848  0.7085  1.3301 -1.5886
  147SAPE    C216101   2.039   6.325   6.688 -0.0782  0.2645 -0.1559
  147SAPE    HS16102   1.934   6.340   6.723  0.7803 -0.0342  2.8075
  147SAPE   O2116103   2.044   6.206   6.605 -0.5166  0.1275 -0.3858
  147SAPE   C2116104   2.008   6.096   6.672  0.9386  0.0790 -0.1715
  147SAPE   O2216105   1.964   6.083   6.786  0.1186  0.1181 -0.0114
  147SAPE   C2216106   2.030   5.979   6.574 -0.1738 -0.5128  0.1633
  147SAPE   H2R16107   2.115   6.007   6.508 -1.6541  3.5433 -0.3045
  147SAPE   H2S16108   2.059   5.890   6.633 -1.9329 -1.0939  0.2020
  147SAPE    C316109   2.067   6.443   6.595 -0.3565  0.1201  0.4144
  147SAPE    HX16110   2.174   6.444   6.563 -0.4101  1.2860  0.2267
  147SAPE    HY16111   2.068   6.541   6.647 -1.0932 -0.1212  0.8925
  147SAPE   O3116112   1.981   6.440   6.479  0.4993 -0.8817  0.1431
  147SAPE   C3116113   1.852   6.481   6.516 -0.7935 -0.5917  0.1634
  147SAPE   O3216114   1.822   6.540   6.619 -0.3575 -0.0145 -0.3565
  147SAPE   C3216115   1.757   6.464   6.398  0.0719 -0.8399  0.1590
  147SAPE   H2X16116   1.724   6.360   6.417 -2.5967  0.0951  1.0809
  147SAPE   H2Y16117   1.811   6.474   6.301  1.3389 -0.1751  0.9149
  147SAPE   C2316118   1.917   5.963   6.471  0.6854  0.6613  0.5047
  147SAPE   H3R16119   1.882   6.055   6.420 -1.2060 -0.7061 -0.8106
  147SAPE   H3S16120   1.826   5.931   6.525 -1.6755  2.1139 -2.2857
  147SAPE   C2416121   1.941   5.853   6.363  0.3230  0.3959  0.3563
  147SAPE   H4R16122   1.982   5.760   6.407  0.0852 -0.2768 -0.7995
  147SAPE   H4S16123   2.026   5.877   6.295  1.6102 -2.3111  0.8656
  147SAPE   C2516124   1.825   5.793   6.278 -0.0033  0.0039 -0.3508
  147SAPE   H5R16125   1.762   5.736   6.348  0.5323  2.1638  2.0499
  147SAPE   C2616126   1.817   5.771   6.146 -0.1445  0.2027  0.5344
  147SAPE   H6R16127   1.724   5.738   6.098 -0.1162  1.9626 -0.8367
  147SAPE   C2716128   1.915   5.831   6.045  0.4261  0.2336 -0.4001
  147SAPE   H7R16129   2.004   5.765   6.036  0.7232  0.8534 -2.5706
  147SAPE   H7S16130   1.952   5.928   6.085 -0.2912 -0.2500  1.5882
  147SAPE   C2816131   1.847   5.841   5.913  0.4511  0.7781 -0.0262
  147SAPE   H8R16132   1.738   5.850   5.915  0.1609 -1.8196 -0.6535
  147SAPE   C2916133   1.911   5.808   5.795  0.2107 -1.4303 -0.0415
  147SAPE   H9R16134   1.868   5.843   5.700  0.6588 -0.7745 -0.0119
  147SAPE  C21016135   2.056   5.787   5.775 -0.1445 -0.0405 -0.1635
  147SAPE  H10R16136   2.079   5.679   5.763 -0.5749 -0.0784 -0.6792
  147SAPE  H10S16137   2.109   5.828   5.864  0.7164  1.0317 -1.1407
  147SAPE  C21116138   2.128   5.851   5.659  0.1808 -0.1442  0.5273
  147SAPE  H11R16139   2.148   5.794   5.568  0.0361 -0.7388  0.8666
  147SAPE  C21216140   2.175   5.981   5.670 -0.3896  0.7825  0.3325
  147SAPE  H12R16141   2.222   6.020   5.579  2.0176 -1.1224  0.6741
  147SAPE  C21316142   2.135   6.076   5.782  0.0913 -0.6795  0.2763
  147SAPE  H13R16143   2.040   6.044   5.830 -0.6762  0.0276 -0.7268
  147SAPE  H13S16144   2.104   6.175   5.741  2.7832 -0.2670 -1.0457
  147SAPE  C21416145   2.264   6.078   5.863 -0.2939 -0.3696  0.5804
  147SAPE  H14R16146   2.357   6.050   5.811 -0.0840  1.2710  0.0182
  147SAPE  C21516147   2.267   6.098   5.997 -0.1843  0.2184 -0.5173
  147SAPE  H15R16148   2.360   6.101   6.056 -2.5411  3.2568  3.5845
  147SAPE  C21616149   2.147   6.135   6.085 -0.1944  0.7797 -0.2119
  147SAPE  H16R16150   2.151   6.075   6.179  1.4626 -0.1405 -0.8314
  147SAPE  H16S16151   2.051   6.115   6.032  0.2802 -1.8536 -0.2506
  147SAPE  C21716152   2.138   6.280   6.133 -0.1647 -0.7871  0.2262
  147SAPE  H17R16153   2.056   6.298   6.205 -1.4263  0.4689 -1.4362
  147SAPE  H17S16154   2.097   6.344   6.051  2.5937  1.1364  0.1953
  147SAPE  C21816155   2.271   6.344   6.193 -0.7907 -0.7220 -0.4991
  147SAPE  H18R16156   2.349   6.346   6.114  0.0782  0.9409  0.3564
  147SAPE  H18S16157   2.307   6.293   6.285 -4.3052  0.5733  1.7867
  147SAPE  C21916158   2.253   6.491   6.239  0.0517 -1.0700  0.0442
  147SAPE  H19R16159   2.173   6.498   6.317 -1.7486  0.5429 -1.8183
  147SAPE  H19S16160   2.224   6.568   6.164  2.0298 -0.3191 -0.0096
  147SAPE  C22016161   2.385   6.546   6.301 -0.1292  0.0211 -0.6808
  147SAPE  H20R16162   2.475   6.540   6.236  2.5781  2.0936  2.5282
  147SAPE  H20S16163   2.409   6.486   6.391  0.3860  1.9051  0.5010
  147SAPE  H20T16164   2.381   6.654   6.327  0.3650  0.0867 -0.8742
  147SAPE   C3316165   1.636   6.564   6.411 -0.5433 -0.2689 -0.4003
  147SAPE   H3X16166   1.676   6.668   6.415  0.3294 -0.4727 -2.3868
  147SAPE   H3Y16167   1.590   6.557   6.511  0.2089  1.8046  0.1340
  147SAPE   C3416168   1.527   6.540   6.313 -0.4315 -0.1424 -0.3750
  147SAPE   H4X16169   1.439   6.597   6.349  0.5237 -0.0495  1.9881
  147SAPE   H4Y16170   1.495   6.433   6.307  0.7206 -0.4336 -3.7014
  147SAPE   C3516171   1.563   6.574   6.172 -0.9113 -0.0272  0.3645
  147SAPE   H5X16172   1.639   6.501   6.137  1.2756  1.7318  1.2210
  147SAPE   H5Y16173   1.597   6.680   6.169  0.9621 -0.6069  0.4110
  147SAPE   C3616174   1.436   6.569   6.083 -0.1723  0.3185  0.2397
  147SAPE   H6X16175   1.368   6.654   6.105 -0.3028  0.4332 -0.5540
  147SAPE   H6Y16176   1.376   6.476   6.093  0.1186  0.0306 -0.6071
  147SAPE   C3716177   1.462   6.581   5.930 -0.1086  0.0286  0.8978
  147SAPE   H7X16178   1.531   6.496   5.913 -0.4075 -0.1318  0.4870
  147SAPE   H7Y16179   1.503   6.681   5.905  0.3916 -0.4338 -0.1550
  147SAPE   C3816180   1.332   6.562   5.847 -0.2696  0.3897 -0.1000
  147SAPE   H8X16181   1.266   6.645   5.882 -0.9589 -0.4035  0.5175
  147SAPE   H8Y16182   1.296   6.460   5.870 -1.2742  0.8214  0.3384
  147SAPE   C3916183   1.359   6.558   5.697  1.1259 -0.2043 -0.0615
  147SAPE   H9X16184   1.398   6.653   5.655  0.7461  0.0248  0.0967
  147SAPE   H9Y16185   1.265   6.549   5.638  1.0544  0.9366 -0.1425
  147SAPE  C31016186   1.462   6.454   5.647  0.9217  0.3266  0.1069
  147SAPE  H10X16187   1.442   6.358   5.699  0.7211  0.2815 -0.0489
  147SAPE  H10Y16188   1.563   6.489   5.674  0.1283  1.7848  1.3114
  147SAPE  C31116189   1.470   6.456   5.492 -0.1977  0.2942 -0.6310
  147SAPE  H11X16190   1.558   6.403   5.450  0.0122  1.4670 -1.7395
  147SAPE  H11Y16191   1.466   6.561   5.456 -1.9844  1.2760  2.0737
  147SAPE  C31216192   1.350   6.385   5.424 -0.0061  0.6476  0.1337
  147SAPE  H12X16193   1.255   6.441   5.439  1.2713  2.5329  1.7107
  147SAPE  H12Y16194   1.331   6.289   5.476  1.1550  1.0914  1.4171
  147SAPE  C31316195   1.367   6.361   5.279 -0.2193 -0.1871  0.2107
  147SAPE  H13X16196   1.282   6.294   5.255 -1.3694  1.2259  0.1878
  147SAPE  H13Y16197   1.467   6.316   5.265 -0.5609 -1.0008  0.3367
  147SAPE  C31416198   1.373   6.492   5.193  0.1475 -0.0783 -0.1929
  147SAPE  H14X16199   1.454   6.558   5.230  2.0859 -1.1914 -2.2296
  147SAPE  H14Y16200   1.278   6.548   5.211 -0.4322 -0.5737 -1.5695
  147SAPE  C31516201   1.393   6.467   5.041 -0.0773 -0.2631 -0.2472
  147SAPE  H15X16202   1.397   6.567   4.992  1.6589 -0.3599 -0.3594
  147SAPE  H15Y16203   1.312   6.408   4.993  1.0801 -1.1869 -1.1197
  147SAPE  C31616204   1.527   6.393   5.010 -0.3224 -0.8363 -0.0578
  147SAPE  H16X16205   1.508   6.284   5.020  0.8656 -1.0083  0.5179
  147SAPE  H16Y16206   1.616   6.417   5.072  0.8117  1.3031 -2.3409
  147SAPE  C31716207   1.587   6.422   4.871 -0.3758 -0.2628  0.2413
  147SAPE  H17X16208   1.684   6.370   4.865 -0.5973 -0.6547  0.0487
  147SAPE  H17Y16209   1.601   6.532   4.860  1.1241 -0.6606 -2.4708
  147SAPE  C31816210   1.499   6.369   4.760  0.5562 -0.1446  0.8282
  147SAPE  H18X16211   1.461   6.266   4.782  1.6386 -0.6980  0.1826
  147SAPE  H18Y16212   1.551   6.374   4.662 -0.5592 -2.5464  0.0265
  147SAPE  H18Z16213   1.403   6.425   4.764  0.7000  0.0109  3.3718
  148SAPE     N16214   2.680   4.465   7.045  0.4186  0.1026  0.3888
  148SAPE   HN116215   2.648   4.510   7.134  1.2514  0.4866  0.5017
  148SAPE   HN216216   2.618   4.476   6.962  2.4498 -1.5524 -1.4619
  148SAPE   HN316217   2.694   4.364   7.062 -2.0215 -0.8824 -2.5387
  148SAPE   C1216218   2.808   4.518   7.005  0.0652  0.3179  0.5219
  148SAPE  H12A16219   2.803   4.629   7.010 -0.7995  0.2491  1.4516
  148SAPE  H12B16220   2.819   4.501   6.896  0.7031  1.2833  0.4216
  148SAPE   C1116221   2.928   4.478   7.096  0.4256 -1.0566  0.7026
  148SAPE  H11A16222   2.896   4.513   7.196  1.5409 -1.1380  1.1020
  148SAPE  H11B16223   3.026   4.525   7.070 -0.1668 -0.5798 -0.7856
  148SAPE     P16224   3.008   4.247   6.984  0.0311 -0.0781 -0.3612
  148SAPE   O1316225   3.153   4.275   6.992 -0.4679 -0.2730 -0.1368
  148SAPE   O1416226   2.970   4.108   7.003  0.1961 -0.6548  0.3753
  148SAPE   O1216227   2.927   4.335   7.090 -0.0795 -0.2617  0.0749
  148SAPE   O1116228   2.954   4.294   6.847  0.3023 -0.5541  0.1417
  148SAPE    C116229   2.845   4.229   6.779  0.6677  0.5456  0.5802
  148SAPE    HA16230   2.756   4.201   6.840  0.3996  3.2368  1.5672
  148SAPE    HB16231   2.816   4.288   6.690 -2.5239 -0.2742  0.9619
  148SAPE    C216232   2.889   4.087   6.713  0.0109 -0.6957 -0.2966
  148SAPE    HS16233   2.943   4.029   6.790  0.0500  1.2595  1.2231
  148SAPE   O2116234   2.979   4.116   6.605 -0.1690  0.2953 -0.2895
  148SAPE   C2116235   3.045   4.011   6.558 -0.0173  0.6048 -0.6060
  148SAPE   O2216236   3.032   3.898   6.606 -0.2580  0.3434 -0.5061
  148SAPE   C2216237   3.122   4.052   6.436  0.4336  0.6132  0.0435
  148SAPE   H2R16238   3.046   4.097   6.368 -0.6803 -0.1586  0.7337
  148SAPE   H2S16239   3.192   4.136   6.456  1.4237 -0.2057  0.1049
  148SAPE    C316240   2.768   3.995   6.675 -0.5265 -0.5901  0.0830
  148SAPE    HX16241   2.710   3.981   6.769 -2.1960  0.5793 -0.7434
  148SAPE    HY16242   2.799   3.889   6.659  0.4180  0.0477 -2.7768
  148SAPE   O3116243   2.699   4.049   6.565 -0.5024 -0.2150  0.4183
  148SAPE   C3116244   2.588   4.109   6.574 -0.3840 -0.4798 -0.8354
  148SAPE   O3216245   2.510   4.103   6.673 -0.3830  0.5512 -0.5253
  148SAPE   C3216246   2.563   4.198   6.448  0.0505 -0.1258  0.9058
  148SAPE   H2X16247   2.554   4.305   6.474  1.7612 -0.3179  2.5353
  148SAPE   H2Y16248   2.460   4.181   6.409  0.5924 -0.3855 -0.4760
  148SAPE   C2316249   3.205   3.936   6.367  0.3970 -0.4968 -0.7570
  148SAPE   H3R16250   3.135   3.851   6.350  1.1185 -1.3148  0.2744
  148SAPE   H3S16251   3.272   3.912   6.452  1.0209  1.3141 -0.7093
  148SAPE   C2416252   3.282   3.989   6.246 -0.3081  0.3719 -0.5298
  148SAPE   H4R16253   3.346   3.899   6.230 -2.2917 -0.7525 -2.6191
  148SAPE   H4S16254   3.345   4.076   6.276 -0.1127 -0.7312  2.6895
  148SAPE   C2516255   3.211   4.023   6.118  0.2997  0.0107  0.1896
  148SAPE   H5R16256   3.167   4.124   6.117 -0.2786 -0.2396  0.4270
  148SAPE   C2616257   3.216   3.953   6.002  0.6140  0.5182 -0.0265
  148SAPE   H6R16258   3.154   3.982   5.916 -1.0969 -1.9956  0.2419
  148SAPE   C2716259   3.289   3.826   5.975 -0.6706  0.2193 -0.5243
  148SAPE   H7R16260   3.221   3.758   5.919  1.4053 -1.4340 -1.1538
  148SAPE   H7S16261   3.309   3.772   6.070  2.2696 -0.2534 -1.3262
  148SAPE   C2816262   3.429   3.823   5.908 -0.0433 -0.4858 -1.0081
  148SAPE   H8R16263   3.507   3.779   5.971 -0.5018 -1.0901 -0.8528
  148SAPE   C2916264   3.447   3.849   5.776  0.2691  0.6578 -0.1561
  148SAPE   H9R16265   3.550   3.836   5.739  0.7044 -2.2918  1.7256
  148SAPE  C21016266   3.351   3.921   5.687  0.0821 -0.6017  0.9281
  148SAPE  H10R16267   3.376   4.029   5.701  0.3531 -0.4438 -0.5629
  148SAPE  H10S16268   3.249   3.918   5.731  0.0482  0.4376  0.9460
  148SAPE  C21116269   3.364   3.902   5.536 -0.5669  0.6469  0.0166
  148SAPE  H11R16270   3.294   3.828   5.494 -0.1739 -0.3596  1.0795
  148SAPE  C21216271   3.463   3.953   5.452  1.0049  0.0715  0.0731
  148SAPE  H12R16272   3.464   3.915   5.349  2.4995 -0.4024  0.2456
  148SAPE  C21316273   3.564   4.052   5.488  0.5595  0.1423 -0.2183
  148SAPE  H13R16274   3.567   4.062   5.599 -1.1633  1.5947 -0.2510
  148SAPE  H13S16275   3.528   4.154   5.462 -2.7915 -0.7979  0.2617
  148SAPE  C21416276   3.698   4.014   5.429 -0.0935  0.3883  0.2856
  148SAPE  H14R16277   3.734   3.917   5.466  2.4685  1.3516  0.5402
  148SAPE  C21516278   3.781   4.060   5.329  0.0931 -0.6374  0.2096
  148SAPE  H15R16279   3.874   4.010   5.299 -0.8021 -1.6408 -0.9826
  148SAPE  C21616280   3.765   4.186   5.252  0.2679  0.1826  0.0103
  148SAPE  H16R16281   3.845   4.257   5.282 -0.7551  1.1969  0.3987
  148SAPE  H16S16282   3.668   4.235   5.276  1.1051  1.7858  0.3262
  148SAPE  C21716283   3.769   4.175   5.092  0.4413 -0.0257  0.5379
  148SAPE  H17R16284   3.780   4.275   5.044 -0.7538 -0.5858 -0.9949
  148SAPE  H17S16285   3.675   4.142   5.042  0.1003  1.9340 -0.2263
  148SAPE  C21816286   3.882   4.090   5.034  0.0350  0.1192  0.3718
  148SAPE  H18R16287   3.859   4.066   4.928 -2.0251  0.0025  0.8003
  148SAPE  H18S16288   3.881   3.999   5.098 -0.4117 -0.4721 -0.4560
  148SAPE  C21916289   4.022   4.153   5.046  0.1189 -0.4131  0.8251
  148SAPE  H19R16290   4.048   4.194   5.147  1.1810  1.9371 -0.3071
  148SAPE  H19S16291   4.032   4.237   4.974  2.7643 -0.1936  1.3451
  148SAPE  C22016292   4.139   4.059   5.011 -0.0023  0.2665 -0.6750
  148SAPE  H20R16293   4.139   3.980   5.089  1.0150  1.3440  0.4657
  148SAPE  H20S16294   4.236   4.112   5.016 -0.0067  0.2948 -0.8917
  148SAPE  H20T16295   4.120   4.003   4.917  0.6534 -0.4798 -0.3813
  148SAPE   C3316296   2.662   4.173   6.333 -0.3450 -0.3564 -0.6657
  148SAPE   H3X16297   2.764   4.205   6.364 -1.3829  2.5205  0.0908
  148SAPE   H3Y16298   2.635   4.248   6.256 -0.9132  1.6997  1.4200
  148SAPE   C3416299   2.644   4.034   6.276  0.0132 -0.0974  0.5489
  148SAPE   H4X16300   2.541   4.011   6.242  0.4140 -2.0365  0.5267
  148SAPE   H4Y16301   2.652   3.958   6.356 -0.3776 -2.7271 -1.7318
  148SAPE   C3516302   2.752   3.986   6.174  0.0039 -0.5167  0.4237
  148SAPE   H5X16303   2.741   3.876   6.162 -1.0072 -0.2453 -1.4779
  148SAPE   H5Y16304   2.853   4.010   6.215  0.1550  1.4988 -0.9593
  148SAPE   C3616305   2.728   4.051   6.036  0.1680 -0.8182 -0.3792
  148SAPE   H6X16306   2.681   4.151   6.048 -0.1173 -1.0987  0.9652
  148SAPE   H6Y16307   2.659   3.991   5.974 -1.0125 -0.3711  0.4765
  148SAPE   C3716308   2.851   4.064   5.942 -0.1936 -0.2277  0.2281
  148SAPE   H7X16309   2.908   3.968   5.941 -0.9018 -0.6586 -1.1226
  148SAPE   H7Y16310   2.922   4.128   5.998 -1.8723 -0.3138  2.5446
  148SAPE   C3816311   2.812   4.093   5.792 -0.1818 -0.1672 -0.1446
  148SAPE   H8X16312   2.800   4.202   5.777  1.8925  0.1435  0.2511
  148SAPE   H8Y16313   2.733   4.018   5.768  1.7376 -1.6886 -2.0946
  148SAPE   C3916314   2.929   4.055   5.698 -0.1845 -0.5520 -0.6708
  148SAPE   H9X16315   2.946   3.946   5.684 -2.3659 -0.9209 -0.7954
  148SAPE   H9Y16316   3.025   4.104   5.727 -1.7436  1.7378  0.9205
  148SAPE  C31016317   2.912   4.120   5.565 -0.6076 -0.1804  0.5158
  148SAPE  H10X16318   2.909   4.229   5.587 -2.4322 -0.0482 -0.1621
  148SAPE  H10Y16319   2.811   4.096   5.524 -2.2622  1.5227  3.2547
  148SAPE  C31116320   3.029   4.081   5.477  0.1580  0.0404 -0.2554
  148SAPE  H11X16321   3.048   3.972   5.470  2.5535  0.2053  1.9015
  148SAPE  H11Y16322   3.125   4.114   5.522  0.7205  0.6868 -1.8515
  148SAPE  C31216323   3.022   4.126   5.336 -0.1708 -0.3620 -0.1690
  148SAPE  H12X16324   2.939   4.084   5.276 -0.3689 -2.0564  1.2043
  148SAPE  H12Y16325   3.110   4.076   5.289  0.8190  1.8983 -0.8369
  148SAPE  C31316326   3.032   4.274   5.307  0.3664 -0.2547  0.1557
  148SAPE  H13X16327   3.115   4.320   5.365 -0.2860  1.7667 -0.4518
  148SAPE  H13Y16328   2.946   4.330   5.349  0.1247  1.2566 -2.1550
  148SAPE  C31416329   3.060   4.301   5.162  0.0650 -0.7077  0.1997
  148SAPE  H14X16330   2.992   4.238   5.101  0.2261 -0.3070 -0.4021
  148SAPE  H14Y16331   3.167   4.285   5.136 -0.0113 -0.2812 -0.3913
  148SAPE  C31516332   3.040   4.448   5.108 -0.0663 -0.3547  0.4748
  148SAPE  H15X16333   3.071   4.465   5.002 -0.4701  1.9040  0.6598
  148SAPE  H15Y16334   3.090   4.517   5.180 -2.5418 -1.2003  3.1732
  148SAPE  C31616335   2.890   4.488   5.097 -0.3719 -0.2106 -0.0853
  148SAPE  H16X16336   2.850   4.496   5.200 -2.0849  0.6876 -0.7911
  148SAPE  H16Y16337   2.832   4.408   5.046  0.7316 -0.7467 -0.5368
  148SAPE  C31716338   2.876   4.617   5.022 -0.8306 -0.6663  0.2822
  148SAPE  H17X16339   2.906   4.604   4.915 -0.7523  0.5499  0.1518
  148SAPE  H17Y16340   2.954   4.685   5.063 -1.2474  1.0295 -1.5877
  148SAPE  C31816341   2.741   4.685   5.042 -0.3021 -0.6849 -0.1953
  148SAPE  H18X16342   2.730   4.784   4.994  0.9288  0.2864  1.4408
  148SAPE  H18Y16343   2.714   4.703   5.148 -1.0280 -0.2031 -0.4587
  148SAPE  H18Z16344   2.659   4.621   5.003  0.5628 -1.4789 -0.7726
  149SAPE     N16345   6.759   4.209   6.696  0.3734  0.0440  0.0066
  149SAPE   HN116346   6.704   4.123   6.682  0.4972 -0.1486  0.6890
  149SAPE   HN216347   6.755   4.235   6.797  0.4943 -2.3494  0.6827
  149SAPE   HN316348   6.721   4.297   6.655 -0.0078 -0.3961 -0.5889
  149SAPE   C1216349   6.902   4.189   6.658  0.1570  0.9299  0.7411
  149SAPE  H12A16350   6.906   4.119   6.573 -0.3259  0.4016  1.1425
  149SAPE  H12B16351   6.956   4.140   6.742  3.6629  0.7204 -1.4341
  149SAPE   C1116352   6.966   4.324   6.630  0.7705  0.4378 -0.5241
  149SAPE  H11A16353   6.925   4.369   6.538  0.8216  0.4064 -0.5622
  149SAPE  H11B16354   7.076   4.318   6.612  0.4688  0.4350 -2.5333
  149SAPE     P16355   7.057   4.423   6.859 -0.5664 -0.5972  0.1111
  149SAPE   O1316356   7.022   4.540   6.944  0.7763 -0.2180  0.0988
  149SAPE   O1416357   7.069   4.290   6.924 -0.4826  0.2051  0.0928
  149SAPE   O1216358   6.952   4.411   6.743 -0.1718  0.4343  0.3040
  149SAPE   O1116359   7.200   4.454   6.790  0.4209  0.1061 -0.2705
  149SAPE    C116360   7.217   4.548   6.688 -0.5032  0.1039  0.0178
  149SAPE    HA16361   7.289   4.498   6.620 -0.7854 -2.6955  1.6364
  149SAPE    HB16362   7.124   4.576   6.634 -0.7072  0.7001  0.6560
  149SAPE    C216363   7.264   4.683   6.738  0.2979 -0.0424  0.0998
  149SAPE    HS16364   7.183   4.718   6.806 -1.1167 -0.1873 -1.4384
  149SAPE   O2116365   7.285   4.773   6.631  0.3298  0.0864 -0.3149
  149SAPE   C2116366   7.169   4.829   6.582 -0.7580  0.5606 -0.0452
  149SAPE   O2216367   7.061   4.811   6.632  0.0521 -0.5528 -0.0032
  149SAPE   C2216368   7.189   4.894   6.451 -0.4009 -0.7289 -0.5912
  149SAPE   H2R16369   7.087   4.925   6.418 -0.5362 -1.4686 -0.8874
  149SAPE   H2S16370   7.255   4.981   6.471 -1.2126 -0.5636  1.5458
  149SAPE    C316371   7.387   4.672   6.829 -1.1698  0.2588 -0.1659
  149SAPE    HX16372   7.374   4.588   6.900  0.0387  0.9812  0.9554
  149SAPE    HY16373   7.386   4.753   6.904  0.7321 -1.9525  2.4456
  149SAPE   O3116374   7.507   4.653   6.746 -0.6226 -0.7078  0.2068
  149SAPE   C3116375   7.584   4.763   6.724 -0.1073  0.2318 -0.1107
  149SAPE   O3216376   7.564   4.874   6.762  0.4184  0.0826  0.0793
  149SAPE   C3216377   7.710   4.724   6.652  0.1881 -0.5080  0.6930
  149SAPE   H2X16378   7.741   4.619   6.673  1.0317 -0.0151  2.0032
  149SAPE   H2Y16379   7.787   4.799   6.680  1.0843 -0.8214 -0.7653
  149SAPE   C2316380   7.264   4.806   6.346  0.1766 -0.8339  0.1563
  149SAPE   H3R16381   7.191   4.723   6.334 -2.7821  1.6789 -0.6656
  149SAPE   H3S16382   7.361   4.770   6.387  0.3501  1.1005  1.6012
  149SAPE   C2416383   7.271   4.883   6.209  0.1344 -0.2669  0.0982
  149SAPE   H4R16384   7.167   4.917   6.191 -0.5542 -2.0589  0.4943
  149SAPE   H4S16385   7.286   4.798   6.138  0.2189 -0.0713 -0.1206
  149SAPE   C2516386   7.374   4.993   6.186 -0.0867  0.6183  0.3254
  149SAPE   H5R16387   7.454   4.993   6.261  0.5988  0.2645 -0.3939
  149SAPE   C2616388   7.375   5.074   6.072 -0.5058  0.0129  0.1242
  149SAPE   H6R16389   7.451   5.151   6.056  0.8449 -1.2774  0.1389
  149SAPE   C2716390   7.261   5.080   5.972 -0.3060  0.2784 -0.2025
  149SAPE   H7R16391   7.169   5.049   6.026  1.3575 -1.7170  1.7320
  149SAPE   H7S16392   7.272   5.003   5.893 -3.9456 -1.0440  0.3778
  149SAPE   C2816393   7.233   5.211   5.913  0.7934 -0.0044  0.3476
  149SAPE   H8R16394   7.166   5.278   5.969 -0.0936  1.6921 -2.5071
  149SAPE   C2916395   7.276   5.250   5.796  0.7415  0.6823  0.7023
  149SAPE   H9R16396   7.255   5.353   5.764  0.2746  0.0605 -1.1425
  149SAPE  C21016397   7.392   5.188   5.719 -0.4322 -0.2775 -0.2303
  149SAPE  H10R16398   7.431   5.098   5.770 -2.1556 -0.1337  1.4491
  149SAPE  H10S16399   7.476   5.260   5.710 -1.1315  1.0949  2.8216
  149SAPE  C21116400   7.337   5.131   5.594  0.0454 -0.4271  0.3513
  149SAPE  H11R16401   7.267   5.048   5.609  0.3850 -0.6884  0.5201
  149SAPE  C21216402   7.371   5.169   5.469  0.6628 -0.3587  0.7829
  149SAPE  H12R16403   7.312   5.125   5.388 -0.1354 -0.6937  1.5222
  149SAPE  C21316404   7.464   5.285   5.434 -0.2668 -0.2567 -0.0546
  149SAPE  H13R16405   7.534   5.226   5.371 -1.4179 -0.0630 -1.5986
  149SAPE  H13S16406   7.523   5.315   5.523 -1.0511  0.0498  0.3753
  149SAPE  C21416407   7.414   5.409   5.364  0.3957  0.6282 -0.2611
  149SAPE  H14R16408   7.406   5.394   5.256 -0.7959 -2.0353  0.0968
  149SAPE  C21516409   7.411   5.535   5.417 -0.5239  0.3180 -0.0645
  149SAPE  H15R16410   7.384   5.618   5.350 -2.4980 -0.6438 -0.5161
  149SAPE  C21616411   7.434   5.575   5.559 -0.3782  0.2371 -0.1814
  149SAPE  H16R16412   7.533   5.625   5.562  0.0079 -0.5438  0.6331
  149SAPE  H16S16413   7.438   5.490   5.630  0.4781 -0.3368 -0.9023
  149SAPE  C21716414   7.330   5.678   5.611 -0.2671 -0.5906  0.0572
  149SAPE  H17R16415   7.226   5.640   5.604 -0.9442  1.0643  0.6132
  149SAPE  H17S16416   7.332   5.758   5.533 -0.6811 -0.5753  0.0607
  149SAPE  C21816417   7.360   5.753   5.745 -0.3303 -0.0056 -0.5033
  149SAPE  H18R16418   7.296   5.843   5.743 -0.3323  0.0890  1.4796
  149SAPE  H18S16419   7.465   5.787   5.751 -0.7064  0.9181  3.0455
  149SAPE  C21916420   7.350   5.670   5.874 -1.3920  0.3549  0.2182
  149SAPE  H19R16421   7.414   5.579   5.868 -2.3202 -0.2511 -0.7957
  149SAPE  H19S16422   7.248   5.628   5.865 -0.7676 -1.1197 -0.2764
  149SAPE  C22016423   7.375   5.734   6.014  0.3629  0.0680 -0.2025
  149SAPE  H20R16424   7.371   5.651   6.088 -0.7324 -0.9995 -1.4133
  149SAPE  H20S16425   7.290   5.803   6.034  1.4116  1.8359 -1.5928
  149SAPE  H20T16426   7.470   5.790   6.013  1.2274 -1.0655  3.3518
  149SAPE   C3316427   7.678   4.732   6.502  0.1417  0.2072 -0.6354
  149SAPE   H3X16428   7.622   4.826   6.479 -0.4479  0.2039  0.6889
  149SAPE   H3Y16429   7.621   4.640   6.475  0.3019  0.4870 -1.9973
  149SAPE   C3416430   7.805   4.736   6.412 -0.5985 -0.4432 -0.7052
  149SAPE   H4X16431   7.874   4.656   6.446 -1.6091 -1.6391 -1.3743
  149SAPE   H4Y16432   7.852   4.835   6.429  0.6263 -1.0046 -0.7128
  149SAPE   C3516433   7.769   4.724   6.265 -0.2916 -0.2271 -0.2839
  149SAPE   H5X16434   7.697   4.804   6.236 -0.4785 -0.2924 -0.0062
  149SAPE   H5Y16435   7.719   4.625   6.260  1.4731 -1.1236 -0.8064
  149SAPE   C3616436   7.894   4.721   6.177  0.1169 -0.6819  0.8912
  149SAPE   H6X16437   7.967   4.640   6.198  0.6653 -0.4196  0.0464
  149SAPE   H6Y16438   7.941   4.818   6.204  1.0732 -0.8209 -0.1721
  149SAPE   C3716439   7.862   4.740   6.025  0.4893 -0.1967  0.5906
  149SAPE   H7X16440   7.809   4.837   6.007 -0.7644 -1.3931 -3.1440
  149SAPE   H7Y16441   7.793   4.658   5.996  0.1134 -0.5553  2.3812
  149SAPE   C3816442   7.987   4.745   5.938 -0.2932 -0.7671  0.2830
  149SAPE   H8X16443   8.048   4.654   5.953  0.7199 -0.4945 -1.8542
  149SAPE   H8Y16444   8.042   4.839   5.961 -0.2700 -0.3953 -1.1809
  149SAPE   C3916445   7.967   4.732   5.780  0.5985 -1.2637  0.6733
  149SAPE   H9X16446   7.904   4.641   5.777  0.3622 -1.0752 -2.1953
  149SAPE   H9Y16447   8.062   4.701   5.731  1.4075  2.2197 -0.2411
  149SAPE  C31016448   7.887   4.849   5.715 -0.4690 -0.1769  0.9975
  149SAPE  H10X16449   7.945   4.943   5.723  0.4815 -0.6931  0.5076
  149SAPE  H10Y16450   7.790   4.866   5.765 -0.3929 -0.9489  1.4261
  149SAPE  C31116451   7.871   4.826   5.563 -0.0374 -0.0650 -0.5445
  149SAPE  H11X16452   7.822   4.726   5.563  0.5238 -0.3495  0.0978
  149SAPE  H11Y16453   7.969   4.820   5.510  0.3797 -0.5941  0.2531
  149SAPE  C31216454   7.780   4.928   5.495  0.4211  0.8661  1.1421
  149SAPE  H12X16455   7.810   5.034   5.514  0.9564  1.4844 -2.3713
  149SAPE  H12Y16456   7.680   4.919   5.542  0.9845  0.3622  2.2789
  149SAPE  C31316457   7.778   4.909   5.344  0.0778  0.6996  0.8244
  149SAPE  H13X16458   7.751   4.806   5.312 -1.2783  1.7584 -1.7124
  149SAPE  H13Y16459   7.885   4.922   5.317 -0.0869  0.9098  0.2463
  149SAPE  C31416460   7.678   5.001   5.268 -0.0634  0.3959  0.3491
  149SAPE  H14X16461   7.685   5.107   5.301 -0.1287  1.0445 -1.5770
  149SAPE  H14Y16462   7.573   4.968   5.285  0.1248 -0.9222 -0.9057
  149SAPE  C31516463   7.717   4.989   5.113 -0.0297 -0.8599  0.6552
  149SAPE  H15X16464   7.717   4.883   5.078  0.1130 -0.6763  0.0997
  149SAPE  H15Y16465   7.823   5.021   5.105  0.7356 -3.1588  0.8474
  149SAPE  C31616466   7.623   5.068   5.021 -0.0026 -0.2879 -0.8721
  149SAPE  H16X16467   7.643   5.023   4.921 -1.0016 -1.9248 -0.3791
  149SAPE  H16Y16468   7.649   5.176   5.020 -2.4754  0.3765 -0.3131
  149SAPE  C31716469   7.468   5.061   5.036  0.3042  0.5335 -0.0129
  149SAPE  H17X16470   7.428   5.120   5.122 -0.7154 -0.0637 -0.0558
  149SAPE  H17Y16471   7.450   4.956   5.069  1.5624 -0.5302 -2.4878
  149SAPE  C31816472   7.395   5.102   4.907  0.2641 -0.4148  0.1203
  149SAPE  H18X16473   7.286   5.086   4.922 -0.0386 -2.7136 -3.4289
  149SAPE  H18Y16474   7.425   5.034   4.825  1.9581 -0.0685  0.4192
  149SAPE  H18Z16475   7.403   5.209   4.882 -2.3895 -0.5288 -1.6761
  150SAPE     N16476   6.443   2.178   6.922 -0.0461 -0.1622 -0.1293
  150SAPE   HN116477   6.467   2.262   6.979 -0.5106  0.0658 -0.2658
  150SAPE   HN216478   6.344   2.172   6.892 -0.1054 -1.8164  0.2797
  150SAPE   HN316479   6.470   2.096   6.981  1.9959 -0.3761 -1.2839
  150SAPE   C1216480   6.533   2.179   6.801 -0.6534  0.3690 -0.9381
  150SAPE  H12A16481   6.637   2.160   6.833  0.0317  0.7862 -2.8088
  150SAPE  H12B16482   6.516   2.276   6.749 -0.3045  0.0896 -1.5877
  150SAPE   C1116483   6.479   2.068   6.702 -0.7187 -0.2332  0.2362
  150SAPE  H11A16484   6.540   2.078   6.610 -0.5314 -1.6320  0.1727
  150SAPE  H11B16485   6.373   2.087   6.676 -0.4044  2.3520  0.5862
  150SAPE     P16486   6.439   1.803   6.684 -0.3347 -0.2710  0.1088
  150SAPE   O1316487   6.531   1.690   6.718  0.2330 -0.2445 -0.3456
  150SAPE   O1416488   6.295   1.777   6.729 -0.5245 -0.1226 -0.8481
  150SAPE   O1216489   6.503   1.932   6.742  0.2309 -0.3542 -0.0378
  150SAPE   O1116490   6.426   1.820   6.526 -0.1598 -0.0800  0.0506
  150SAPE    C116491   6.314   1.872   6.452 -0.0579  0.3860 -0.4411
  150SAPE    HA16492   6.244   1.932   6.515  0.6380  1.6930 -0.8597
  150SAPE    HB16493   6.352   1.949   6.381 -2.3656  1.6505 -0.4101
  150SAPE    C216494   6.238   1.774   6.358 -0.3366 -0.6659 -0.8244
  150SAPE    HS16495   6.176   1.719   6.432  1.8545 -1.0437  0.8341
  150SAPE   O2116496   6.337   1.692   6.292  0.8187 -0.8011 -0.2241
  150SAPE   C2116497   6.309   1.566   6.253 -1.0055  0.2132 -0.4914
  150SAPE   O2216498   6.204   1.510   6.285  0.3603 -0.1739  0.1501
  150SAPE   C2216499   6.422   1.510   6.164  0.0523  0.0421 -0.9088
  150SAPE   H2R16500   6.483   1.593   6.124 -0.4708 -0.0758 -1.9999
  150SAPE   H2S16501   6.484   1.450   6.234 -1.7663 -0.4947  0.3125
  150SAPE    C316502   6.147   1.832   6.245  0.3741  0.0968  1.3569
  150SAPE    HX16503   6.211   1.896   6.181 -1.1888  0.4449  0.0852
  150SAPE    HY16504   6.059   1.890   6.278  0.2099 -0.1136  1.2899
  150SAPE   O3116505   6.103   1.727   6.150  0.8285  0.0196  0.8044
  150SAPE   C3116506   5.978   1.691   6.163 -0.0669  0.0917  0.0096
  150SAPE   O3216507   5.904   1.727   6.253 -0.6922  0.0675  0.0032
  150SAPE   C3216508   5.937   1.615   6.031  0.3825 -0.3003  0.1540
  150SAPE   H2X16509   5.851   1.550   6.057  1.2587 -1.7378 -0.4200
  150SAPE   H2Y16510   6.021   1.547   6.007 -1.9292 -2.9255 -0.9906
  150SAPE   C2316511   6.372   1.438   6.043  0.2792  0.2719 -0.2745
  150SAPE   H3R16512   6.298   1.503   5.992 -1.4375 -0.3152  1.3956
  150SAPE   H3S16513   6.315   1.353   6.086 -1.0352  1.4934  0.4726
  150SAPE   C2416514   6.474   1.410   5.934 -0.2941 -0.0604  0.4576
  150SAPE   H4R16515   6.566   1.361   5.971  1.0358  2.9014  1.3898
  150SAPE   H4S16516   6.502   1.509   5.893 -1.8471  1.1597  2.1615
  150SAPE   C2516517   6.416   1.321   5.820 -0.2807  0.1328  0.4692
  150SAPE   H5R16518   6.411   1.214   5.842 -1.2005 -0.3442 -1.8099
  150SAPE   C2616519   6.380   1.366   5.697 -0.4119 -0.0578  0.3482
  150SAPE   H6R16520   6.320   1.306   5.627  0.1644  1.0044 -1.1185
  150SAPE   C2716521   6.398   1.509   5.650  0.4989 -0.4829  0.4350
  150SAPE   H7R16522   6.503   1.542   5.660  0.4885 -0.4759  0.5179
  150SAPE   H7S16523   6.345   1.575   5.721  2.8155  0.5269  1.3000
  150SAPE   C2816524   6.344   1.523   5.510  0.3248  0.4562  0.3102
  150SAPE   H8R16525   6.291   1.440   5.461 -0.1799  0.9480  0.0098
  150SAPE   C2916526   6.355   1.632   5.432 -0.6071  0.2775 -0.0860
  150SAPE   H9R16527   6.319   1.638   5.328 -0.1707 -0.6557 -0.3051
  150SAPE  C21016528   6.423   1.764   5.485  0.1399  0.1414 -0.7889
  150SAPE  H10R16529   6.478   1.749   5.580  0.1579 -1.4266 -1.0242
  150SAPE  H10S16530   6.339   1.834   5.506  2.0349  2.0658  0.8506
  150SAPE  C21116531   6.517   1.823   5.386 -0.4474 -0.1617  0.2064
  150SAPE  H11R16532   6.599   1.757   5.353  2.2448  1.5842  2.8726
  150SAPE  C21216533   6.505   1.938   5.318  0.2679 -0.5335 -0.6566
  150SAPE  H12R16534   6.569   1.967   5.233  0.2470  1.5116 -0.0059
  150SAPE  C21316535   6.412   2.051   5.353  0.3648  0.0937  0.8489
  150SAPE  H13R16536   6.461   2.151   5.363  0.8376 -0.0549  0.0887
  150SAPE  H13S16537   6.370   2.031   5.454  0.2677 -1.1861  0.5666
  150SAPE  C21416538   6.296   2.041   5.253 -0.5572 -0.8805 -0.3907
  150SAPE  H14R16539   6.258   1.938   5.247  1.6127 -1.6589 -2.5986
  150SAPE  C21516540   6.253   2.141   5.170  0.1541  0.0528  0.1654
  150SAPE  H15R16541   6.165   2.118   5.108  0.6717 -1.5970 -0.0277
  150SAPE  C21616542   6.296   2.279   5.163  0.4250 -0.4065  0.0360
  150SAPE  H16R16543   6.406   2.278   5.177  0.5940 -0.0176 -1.1393
  150SAPE  H16S16544   6.250   2.344   5.240 -1.4454  0.0403 -1.3839
  150SAPE  C21716545   6.272   2.326   5.015 -0.2730  0.3374 -0.3589
  150SAPE  H17R16546   6.282   2.436   5.027 -0.9365  0.2383  1.5064
  150SAPE  H17S16547   6.162   2.314   5.001 -0.5204  0.8893  0.9417
  150SAPE  C21816548   6.366   2.259   4.912 -0.0717 -0.5077  0.0995
  150SAPE  H18R16549   6.348   2.150   4.907 -2.8081 -0.2618  2.1928
  150SAPE  H18S16550   6.474   2.277   4.930 -0.6091  2.7847  0.7143
  150SAPE  C21916551   6.342   2.324   4.777 -0.5256 -0.2297  0.0300
  150SAPE  H19R16552   6.233   2.348   4.781 -0.6158 -0.8031  1.4345
  150SAPE  H19S16553   6.379   2.259   4.694  0.0365 -1.4091  1.1668
  150SAPE  C22016554   6.425   2.448   4.738 -0.5368 -0.2133  0.4176
  150SAPE  H20R16555   6.534   2.438   4.757 -0.3796  0.1460 -0.2647
  150SAPE  H20S16556   6.398   2.540   4.794  1.2579  1.4392 -1.2656
  150SAPE  H20T16557   6.413   2.472   4.630 -1.4575  0.9352  0.7606
  150SAPE   C3316558   5.914   1.699   5.901 -0.2283  0.6763 -0.4582
  150SAPE   H3X16559   5.866   1.796   5.926 -1.2068  0.7632 -2.4692
  150SAPE   H3Y16560   5.853   1.638   5.832  0.4503  1.0229 -1.3828
  150SAPE   C3416561   6.049   1.722   5.831  0.2057 -0.5272 -0.4563
  150SAPE   H4X16562   6.114   1.632   5.826  0.9982 -0.0371  0.5828
  150SAPE   H4Y16563   6.094   1.804   5.891 -2.5518  0.9884 -0.2768
  150SAPE   C3516564   6.015   1.781   5.688 -0.0342 -0.4836 -0.3654
  150SAPE   H5X16565   6.108   1.835   5.660  0.4700  0.3622  2.6581
  150SAPE   H5Y16566   5.943   1.865   5.691 -0.2880 -0.7112 -0.0397
  150SAPE   C3616567   5.997   1.682   5.564 -0.5936 -0.9239  0.0513
  150SAPE   H6X16568   5.906   1.622   5.583 -1.4976  0.8184  1.5403
  150SAPE   H6Y16569   6.087   1.616   5.557 -1.5459 -2.6189  2.4864
  150SAPE   C3716570   5.972   1.775   5.436 -0.1152  0.0374  0.1788
  150SAPE   H7X16571   6.047   1.857   5.439  0.9340 -0.9047  0.3651
  150SAPE   H7Y16572   5.866   1.803   5.447 -0.8002 -1.2368 -2.3886
  150SAPE   C3816573   6.004   1.690   5.316 -0.2025  0.0666  0.0311
  150SAPE   H8X16574   5.925   1.614   5.300  0.1293 -0.0044 -1.3819
  150SAPE   H8Y16575   6.097   1.639   5.346  0.8821  1.0068 -1.5848
  150SAPE   C3916576   6.020   1.769   5.183 -0.3963 -0.1729 -0.5288
  150SAPE   H9X16577   6.082   1.860   5.189 -2.0095  0.9412  0.1327
  150SAPE   H9Y16578   5.921   1.818   5.169 -0.0536  0.3146 -1.2663
  150SAPE  C31016579   6.041   1.671   5.067  0.2089  0.8297  0.5269
  150SAPE  H10X16580   6.109   1.588   5.096 -2.1607 -1.7029 -0.5977
  150SAPE  H10Y16581   6.081   1.726   4.979  1.3777  0.4899  0.8289
  150SAPE  C31116582   5.909   1.618   5.009  0.5866 -0.1667  0.0967
  150SAPE  H11X16583   5.844   1.708   4.998  2.6764  1.1405 -2.9593
  150SAPE  H11Y16584   5.856   1.545   5.073 -1.6285  0.8614 -0.4783
  150SAPE  C31216585   5.939   1.552   4.872 -0.2791  0.3316 -0.7752
  150SAPE  H12X16586   6.036   1.499   4.888 -0.3379  0.5330  0.3705
  150SAPE  H12Y16587   5.941   1.612   4.779  1.1327 -0.7707 -1.4902
  150SAPE  C31316588   5.831   1.437   4.844 -1.2488 -1.2020 -0.7410
  150SAPE  H13X16589   5.728   1.477   4.850 -0.9501 -0.1381 -2.1411
  150SAPE  H13Y16590   5.843   1.359   4.922 -0.7929  0.3327  0.7980
  150SAPE  C31416591   5.848   1.381   4.705 -0.5541 -0.1149 -0.0586
  150SAPE  H14X16592   5.829   1.464   4.634 -0.7264 -0.4209 -0.3707
  150SAPE  H14Y16593   5.773   1.300   4.698  2.1717 -2.9515  1.1482
  150SAPE  C31516594   5.989   1.321   4.673  0.0503 -0.1283 -0.0637
  150SAPE  H15X16595   6.054   1.409   4.657 -1.8174  1.2369 -0.4805
  150SAPE  H15Y16596   5.971   1.266   4.578  2.5570  1.7991 -1.7962
  150SAPE  C31616597   6.035   1.212   4.775  0.1692 -0.3545  0.1986
  150SAPE  H16X16598   5.958   1.132   4.782 -1.0811  0.9790  3.1543
  150SAPE  H16Y16599   6.045   1.252   4.878  0.3523 -1.4410  0.6163
  150SAPE  C31716600   6.170   1.162   4.741 -0.0109  0.1781  0.1130
  150SAPE  H17X16601   6.241   1.244   4.764 -2.4090  1.5845  3.3832
  150SAPE  H17Y16602   6.174   1.126   4.636  0.5379 -0.8250  0.4643
  150SAPE  C31816603   6.219   1.041   4.827  0.0574  0.0798 -0.1789
  150SAPE  H18X16604   6.329   1.055   4.837 -0.1501  1.8985 -0.1509
  150SAPE  H18Y16605   6.198   0.940   4.786  1.7779  0.0704 -1.0877
  150SAPE  H18Z16606   6.169   1.049   4.926 -0.6681 -1.1488 -0.4254
  151SAPE     N16607   4.194   1.254   7.287 -0.0112 -0.0581 -0.3301
  151SAPE   HN116608   4.261   1.331   7.268 -0.1224  0.1783  0.1949
  151SAPE   HN216609   4.110   1.299   7.329  0.2025 -0.0925  0.1453
  151SAPE   HN316610   4.233   1.185   7.355 -0.1320  1.0238  0.8651
  151SAPE   C1216611   4.174   1.180   7.158  0.0311 -0.7502 -0.0942
  151SAPE  H12A16612   4.270   1.135   7.124 -0.2518 -1.4657  0.0385
  151SAPE  H12B16613   4.136   1.256   7.086  0.9460 -1.4910 -1.4169
  151SAPE   C1116614   4.071   1.071   7.154 -0.4576  0.2061 -0.5199
  151SAPE  H11A16615   4.099   1.003   7.237  1.3221  0.0679 -1.1889
  151SAPE  H11B16616   4.076   1.023   7.054 -1.4314  0.7937 -0.8601
  151SAPE     P16617   3.829   1.056   7.252  0.1211 -0.1457  0.3003
  151SAPE   O1316618   3.870   0.927   7.321 -0.4611 -0.8121 -0.1089
  151SAPE   O1416619   3.761   1.152   7.346  0.0681 -0.0390 -0.2760
  151SAPE   O1216620   3.950   1.138   7.189  0.1799 -0.5247  0.4951
  151SAPE   O1116621   3.738   1.028   7.124 -0.4466 -0.3729 -0.0147
  151SAPE    C116622   3.775   1.088   6.993  0.1084 -0.0623 -0.2270
  151SAPE    HA16623   3.807   1.194   6.998 -2.0979  0.6053  1.4439
  151SAPE    HB16624   3.860   1.026   6.955 -0.4278 -0.9245 -0.0574
  151SAPE    C216625   3.649   1.085   6.899  0.2701 -0.7345 -0.3334
  151SAPE    HS16626   3.627   0.981   6.867 -0.3911 -0.3799 -1.0613
  151SAPE   O2116627   3.659   1.166   6.782 -0.1568 -0.1627 -0.2289
  151SAPE   C2116628   3.740   1.109   6.691  0.2827 -0.2731  0.1184
  151SAPE   O2216629   3.821   1.019   6.711  0.0231  0.1095  0.2705
  151SAPE   C2216630   3.717   1.166   6.550  0.4437 -0.0160  0.1456
  151SAPE   H2R16631   3.608   1.155   6.534  0.4548  0.5045 -0.3277
  151SAPE   H2S16632   3.734   1.275   6.558  2.2812 -0.1426 -1.5449
  151SAPE    C316633   3.515   1.128   6.979  0.2027 -0.5794  0.0665
  151SAPE    HX16634   3.540   1.224   7.029  0.4866  0.1348 -1.3868
  151SAPE    HY16635   3.483   1.064   7.064 -0.1850  0.8989  1.0840
  151SAPE   O3116636   3.409   1.154   6.887 -0.1253  0.2898  0.0259
  151SAPE   C3116637   3.345   1.049   6.848  0.3154  0.4561 -0.2349
  151SAPE   O3216638   3.360   0.933   6.899 -0.3916 -0.6272 -0.1250
  151SAPE   C3216639   3.245   1.080   6.748 -0.1061 -0.0706 -0.5222
  151SAPE   H2X16640   3.212   1.186   6.751  2.4582  0.9020  4.1151
  151SAPE   H2Y16641   3.159   1.016   6.776  0.5295 -0.3935  0.7428
  151SAPE   C2316642   3.802   1.124   6.428  0.5157  0.5790 -0.1941
  151SAPE   H3R16643   3.819   1.015   6.415  4.9592  1.1017 -0.1943
  151SAPE   H3S16644   3.896   1.182   6.426  0.2718  0.9574 -1.3068
  151SAPE   C2416645   3.726   1.168   6.303  0.1194 -0.3868  0.2613
  151SAPE   H4R16646   3.623   1.126   6.297  1.5808 -4.7461  2.1785
  151SAPE   H4S16647   3.778   1.122   6.216 -0.9527 -3.3070  1.0554
  151SAPE   C2516648   3.715   1.323   6.293 -0.2441  0.3761  0.5229
  151SAPE   H5R16649   3.771   1.366   6.377  2.4805  2.0379 -1.9314
  151SAPE   C2616650   3.644   1.395   6.209  1.0317 -0.1705  0.9150
  151SAPE   H6R16651   3.659   1.504   6.205 -0.7598  0.0786 -1.1812
  151SAPE   C2716652   3.566   1.356   6.085 -0.4321 -0.0773 -0.1013
  151SAPE   H7R16653   3.499   1.436   6.046  0.1482 -0.3362 -1.7282
  151SAPE   H7S16654   3.503   1.267   6.104  2.3025 -2.2546 -0.6455
  151SAPE   C2816655   3.660   1.324   5.969  0.1068  0.1295  0.4758
  151SAPE   H8R16656   3.764   1.305   5.997  0.8718  2.6085 -0.5183
  151SAPE   C2916657   3.631   1.331   5.841 -0.5570 -0.0332 -0.3065
  151SAPE   H9R16658   3.704   1.298   5.766 -0.1423  0.9274 -0.3402
  151SAPE  C21016659   3.496   1.367   5.777  0.3942  0.6887 -0.6182
  151SAPE  H10R16660   3.414   1.316   5.832  1.0205 -1.0865 -1.2303
  151SAPE  H10S16661   3.499   1.311   5.681 -0.7945  1.7027 -1.2724
  151SAPE  C21116662   3.464   1.515   5.765  0.0226 -0.4341  0.5641
  151SAPE  H11R16663   3.442   1.567   5.859  1.5459 -0.6945  1.0865
  151SAPE  C21216664   3.485   1.592   5.658 -0.3396  0.2177 -0.4039
  151SAPE  H12R16665   3.451   1.697   5.660  2.2918  1.1401  0.6747
  151SAPE  C21316666   3.541   1.553   5.521  0.1487 -0.3086 -0.4493
  151SAPE  H13R16667   3.643   1.518   5.547  1.0830  2.0879 -0.5941
  151SAPE  H13S16668   3.570   1.645   5.466  1.5679  1.5437  3.0220
  151SAPE  C21416669   3.455   1.460   5.449  0.2420 -0.4163  0.1918
  151SAPE  H14R16670   3.347   1.458   5.472  0.3105 -0.2844  0.5242
  151SAPE  C21516671   3.496   1.375   5.350 -0.0088 -0.5662  0.5556
  151SAPE  H15R16672   3.421   1.311   5.302  1.6639 -1.9157 -0.3411
  151SAPE  C21616673   3.630   1.374   5.287  0.0093 -0.2810 -0.2210
  151SAPE  H16R16674   3.637   1.289   5.215  1.7365 -0.3642  0.0060
  151SAPE  H16S16675   3.714   1.367   5.359 -0.8787  1.7495  1.0985
  151SAPE  C21716676   3.654   1.495   5.193  0.4514 -0.2718 -0.0908
  151SAPE  H17R16677   3.669   1.588   5.251  0.0910 -0.0164 -0.3941
  151SAPE  H17S16678   3.567   1.506   5.124  1.7469 -1.8050 -2.0905
  151SAPE  C21816679   3.787   1.478   5.113 -0.4386  0.1552 -0.4093
  151SAPE  H18R16680   3.775   1.406   5.029  1.3142  1.4797 -1.8957
  151SAPE  H18S16681   3.857   1.445   5.193 -0.9822  1.6748  0.7340
  151SAPE  C21916682   3.815   1.609   5.035 -0.0157 -0.5739  0.0949
  151SAPE  H19R16683   3.722   1.627   4.977 -0.9618  1.2781  2.0082
  151SAPE  H19S16684   3.896   1.596   4.961 -1.2387 -1.6765 -1.0977
  151SAPE  C22016685   3.843   1.736   5.119 -0.2078 -0.4192  0.6708
  151SAPE  H20R16686   3.884   1.820   5.059 -2.4569 -0.6991 -1.3893
  151SAPE  H20S16687   3.904   1.715   5.210  0.4278 -0.3925  0.2616
  151SAPE  H20T16688   3.751   1.771   5.169 -0.7038  1.2016 -1.2577
  151SAPE   C3316689   3.292   1.031   6.612  0.3021  0.5256  0.4554
  151SAPE   H3X16690   3.302   0.920   6.621 -1.0665  0.4001  0.6641
  151SAPE   H3Y16691   3.389   1.082   6.595  1.0182 -0.8909  0.0792
  151SAPE   C3416692   3.203   1.068   6.495 -0.3035  0.2610  0.7165
  151SAPE   H4X16693   3.166   1.172   6.501 -1.4187 -0.1822  1.8782
  151SAPE   H4Y16694   3.115   1.000   6.496 -0.6143  0.6104 -0.8078
  151SAPE   C3516695   3.270   1.046   6.360 -0.8188  0.6977 -0.8541
  151SAPE   H5X16696   3.318   0.946   6.357  0.0010  1.0842 -0.6783
  151SAPE   H5Y16697   3.353   1.118   6.347  2.4781 -2.8161 -0.9892
  151SAPE   C3616698   3.171   1.071   6.241  0.3222  0.1927  0.7900
  151SAPE   H6X16699   3.128   1.173   6.237  0.3976  0.2037 -2.7836
  151SAPE   H6Y16700   3.078   1.011   6.253 -0.1267  0.9999  1.4806
  151SAPE   C3716701   3.243   1.061   6.107  0.2512 -0.3400 -0.1503
  151SAPE   H7X16702   3.284   0.959   6.092  0.4541 -0.8658  3.2089
  151SAPE   H7Y16703   3.332   1.127   6.093 -0.9450  0.7197 -3.8909
  151SAPE   C3816704   3.146   1.094   5.996 -0.3090  0.2112 -0.1465
  151SAPE   H8X16705   3.102   1.196   5.997  0.3042  0.4858  1.3495
  151SAPE   H8Y16706   3.055   1.030   5.997 -0.3824  0.2570  2.2668
  151SAPE   C3916707   3.217   1.072   5.863  0.7550 -0.0812  0.4056
  151SAPE   H9X16708   3.270   0.975   5.864  0.7264 -0.0960  0.5886
  151SAPE   H9Y16709   3.297   1.149   5.853  0.2932  0.4126  0.4403
  151SAPE  C31016710   3.123   1.102   5.739 -0.7854  0.4346  0.0947
  151SAPE  H10X16711   3.063   1.194   5.754 -0.3802  0.9836 -1.4821
  151SAPE  H10Y16712   3.054   1.016   5.727  2.6990 -2.4462 -1.1518
  151SAPE  C31116713   3.190   1.132   5.601 -0.2221  0.4773 -1.0292
  151SAPE  H11X16714   3.238   1.038   5.566 -0.2434 -0.3147  0.9540
  151SAPE  H11Y16715   3.268   1.210   5.618 -0.6104  0.9268 -1.2826
  151SAPE  C31216716   3.090   1.157   5.492  0.0974  0.5223 -0.5423
  151SAPE  H12X16717   3.026   1.245   5.512 -1.4918 -0.3544 -1.5101
  151SAPE  H12Y16718   3.028   1.065   5.479  0.4068  0.3728 -1.0068
  151SAPE  C31316719   3.155   1.193   5.361  0.5835 -0.6410 -0.2402
  151SAPE  H13X16720   3.265   1.180   5.369  1.0413  2.8065  1.0134
  151SAPE  H13Y16721   3.124   1.299   5.346  0.6399 -0.3367  1.5683
  151SAPE  C31416722   3.105   1.125   5.235  0.5839  0.1603  0.7059
  151SAPE  H14X16723   2.996   1.105   5.251  0.6545 -1.7093 -0.7851
  151SAPE  H14Y16724   3.155   1.029   5.209  0.6791  0.0251  1.3624
  151SAPE  C31516725   3.124   1.203   5.101  0.3464  0.1704 -0.0981
  151SAPE  H15X16726   3.231   1.224   5.077  0.3589 -2.8754 -3.6577
  151SAPE  H15Y16727   3.069   1.299   5.102 -1.0869 -0.6228  0.2466
  151SAPE  C31616728   3.056   1.127   4.984 -0.2561  0.2742  0.2919
  151SAPE  H16X16729   2.946   1.141   4.987 -0.2272  0.5042  0.2749
  151SAPE  H16Y16730   3.080   1.019   4.993  2.1436  0.5501 -1.7723
  151SAPE  C31716731   3.096   1.158   4.843  0.2643  0.9006  0.6233
  151SAPE  H17X16732   3.054   1.082   4.773  0.0252  2.7233 -1.2836
  151SAPE  H17Y16733   3.207   1.152   4.843  0.2988  1.5112  1.1749
  151SAPE  C31816734   3.058   1.302   4.799  0.8114 -0.5979  0.2448
  151SAPE  H18X16735   2.947   1.302   4.787  0.9597 -1.3985 -1.3796
  151SAPE  H18Y16736   3.113   1.313   4.703  1.0160 -2.7913  0.0648
  151SAPE  H18Z16737   3.091   1.382   4.868  1.4691  1.0329 -1.8404
  152SAPE     N16738   4.751   3.116   7.011 -0.4428 -0.3434 -0.0039
  152SAPE   HN116739   4.809   3.127   6.925 -0.2502  0.6628  0.2355
  152SAPE   HN216740   4.771   3.197   7.073  2.6864 -0.1434 -1.0862
  152SAPE   HN316741   4.789   3.030   7.055  2.4466 -0.6200 -2.6680
  152SAPE   C1216742   4.607   3.082   6.989 -0.3196 -0.0296  0.0245
  152SAPE  H12A16743   4.568   3.157   6.917  1.6389  0.7469 -0.2586
  152SAPE  H12B16744   4.551   3.081   7.085 -0.6441 -0.2091 -0.1634
  152SAPE   C1116745   4.605   2.945   6.925 -0.8208  0.5842 -0.6052
  152SAPE  H11A16746   4.668   2.936   6.834  0.2139  0.1908  0.1359
  152SAPE  H11B16747   4.502   2.914   6.894  0.4534 -1.0914 -3.6406
  152SAPE     P16748   4.609   2.749   7.107  0.2511  0.1790 -0.3000
  152SAPE   O1316749   4.705   2.653   7.173  0.8171  0.3278  0.7532
  152SAPE   O1416750   4.516   2.814   7.207 -0.9158  0.6867  0.0163
  152SAPE   O1216751   4.676   2.854   7.012  0.3227 -0.0672 -0.4284
  152SAPE   O1116752   4.520   2.666   7.011 -0.3633 -0.4997 -0.1280
  152SAPE    C116753   4.487   2.530   7.034 -0.3491  0.2462  0.1744
  152SAPE    HA16754   4.493   2.501   7.141 -2.3568  0.1401  0.2998
  152SAPE    HB16755   4.378   2.514   7.019 -0.8796  1.3219  2.3940
  152SAPE    C216756   4.564   2.436   6.945 -0.7653  0.1849 -0.2166
  152SAPE    HS16757   4.667   2.441   6.986  0.0748 -0.4572 -2.1446
  152SAPE   O2116758   4.564   2.493   6.813  0.1186  0.4772 -0.6374
  152SAPE   C2116759   4.682   2.491   6.749  0.4309 -0.3243 -0.2983
  152SAPE   O2216760   4.785   2.446   6.785 -0.0856 -0.3473  0.3118
  152SAPE   C2216761   4.666   2.570   6.620  0.2565  0.3447 -0.3636
  152SAPE   H2R16762   4.730   2.521   6.543  0.0815  0.7227 -0.7520
  152SAPE   H2S16763   4.560   2.570   6.588  0.0416  2.5851  0.1858
  152SAPE    C316764   4.531   2.287   6.946  0.1093 -0.6372  0.7113
  152SAPE    HX16765   4.430   2.281   6.899  1.1572 -0.1490 -1.8099
  152SAPE    HY16766   4.533   2.245   7.048  1.1483  1.5375  1.6538
  152SAPE   O3116767   4.625   2.214   6.867  0.9971  0.6102  0.2375
  152SAPE   C3116768   4.725   2.150   6.933 -0.3030 -0.1481  0.3436
  152SAPE   O3216769   4.748   2.162   7.051 -0.2119 -0.0086 -0.5129
  152SAPE   C3216770   4.798   2.058   6.829 -0.8146 -0.2249  1.0889
  152SAPE   H2X16771   4.733   1.973   6.799  1.4804 -0.6220 -3.6588
  152SAPE   H2Y16772   4.885   2.012   6.880 -0.4523 -3.4426 -2.0864
  152SAPE   C2316773   4.718   2.712   6.642 -0.0164 -0.1336 -0.1645
  152SAPE   H3R16774   4.815   2.701   6.696 -0.2273  1.2982  0.5460
  152SAPE   H3S16775   4.658   2.770   6.715  0.7394  2.2109 -1.2990
  152SAPE   C2416776   4.727   2.804   6.517 -0.7643  0.5813 -0.7276
  152SAPE   H4R16777   4.795   2.766   6.436 -0.6195 -1.5692  0.3245
  152SAPE   H4S16778   4.778   2.899   6.542 -1.1194 -0.0484  2.7926
  152SAPE   C2516779   4.589   2.840   6.464  0.0647 -0.2093  0.4611
  152SAPE   H5R16780   4.537   2.896   6.543  1.3617 -1.8930  2.6183
  152SAPE   C2616781   4.544   2.801   6.340  0.6230  0.1351  0.2771
  152SAPE   H6R16782   4.446   2.838   6.307  0.4165  0.1946  0.9537
  152SAPE   C2716783   4.610   2.733   6.230  0.4592  0.2419  0.1814
  152SAPE   H7R16784   4.531   2.673   6.182 -0.1313 -0.1891  1.6319
  152SAPE   H7S16785   4.692   2.665   6.263  0.1660  0.4893  1.5016
  152SAPE   C2816786   4.658   2.831   6.118  0.3225  0.8606  0.0270
  152SAPE   H8R16787   4.745   2.892   6.143  1.3891 -0.8154  0.5898
  152SAPE   C2916788   4.622   2.838   5.988  0.3357  0.0955 -0.0896
  152SAPE   H9R16789   4.658   2.927   5.935 -2.5987  1.3477 -0.1527
  152SAPE  C21016790   4.528   2.752   5.912 -0.0304  0.0884 -0.5264
  152SAPE  H10R16791   4.440   2.816   5.892  1.1457  0.8211 -4.0166
  152SAPE  H10S16792   4.482   2.673   5.976 -0.5273  0.0162 -0.9622
  152SAPE  C21116793   4.592   2.676   5.797  0.3256  0.7742  0.0715
  152SAPE  H11R16794   4.636   2.580   5.826 -0.3215  0.4301 -0.0586
  152SAPE  C21216795   4.612   2.693   5.667  0.1859 -0.2898  0.0498
  152SAPE  H12R16796   4.644   2.607   5.607  0.1137  0.6931 -1.4582
  152SAPE  C21316797   4.571   2.812   5.582 -0.1148  0.2438  0.2824
  152SAPE  H13R16798   4.518   2.893   5.638  2.1747  2.4854 -0.6020
  152SAPE  H13S16799   4.510   2.769   5.500 -1.3282  0.9859  0.7611
  152SAPE  C21416800   4.697   2.891   5.543  0.4111  0.6593  0.1145
  152SAPE  H14R16801   4.730   2.950   5.630 -1.4828 -0.5720  1.7766
  152SAPE  C21516802   4.776   2.872   5.438 -0.2273  0.0233  0.7910
  152SAPE  H15R16803   4.860   2.942   5.430  0.4360 -0.9192 -0.9521
  152SAPE  C21616804   4.745   2.786   5.325  0.0064 -0.1471 -0.1420
  152SAPE  H16R16805   4.646   2.737   5.339  0.0552 -0.8830 -2.0147
  152SAPE  H16S16806   4.826   2.711   5.316  1.7771  1.5354  1.1579
  152SAPE  C21716807   4.742   2.874   5.201 -0.4928 -0.4335  1.1199
  152SAPE  H17R16808   4.846   2.905   5.178  0.1517 -1.8459  1.9819
  152SAPE  H17S16809   4.689   2.971   5.215 -1.4242 -0.8822  0.7845
  152SAPE  C21816810   4.696   2.806   5.068 -0.2299  0.6687  0.8527
  152SAPE  H18R16811   4.757   2.713   5.067 -0.4055  0.5539  0.0881
  152SAPE  H18S16812   4.726   2.856   4.974 -1.1838 -1.6611 -0.7854
  152SAPE  C21916813   4.549   2.756   5.054 -0.3908  0.2028 -0.3238
  152SAPE  H19R16814   4.475   2.835   5.076  0.1592  0.9449 -1.0841
  152SAPE  H19S16815   4.540   2.671   5.126 -0.4550 -0.6509 -1.3155
  152SAPE  C22016816   4.519   2.691   4.918  0.2507  0.3311 -0.5269
  152SAPE  H20R16817   4.409   2.678   4.924  0.2557  0.9395  2.0701
  152SAPE  H20S16818   4.568   2.592   4.903  0.1289 -0.1117  1.6546
  152SAPE  H20T16819   4.530   2.753   4.827 -0.1394  0.4864 -0.4691
  152SAPE   C3316820   4.859   2.132   6.700 -0.2004  0.5151 -0.0105
  152SAPE   H3X16821   4.929   2.214   6.723 -0.6864  2.1305 -3.5843
  152SAPE   H3Y16822   4.785   2.189   6.640  1.7740  0.0574 -3.1111
  152SAPE   C3416823   4.924   2.038   6.600 -0.2475  0.6818  0.5995
  152SAPE   H4X16824   4.861   1.947   6.594  1.8928 -0.8676  0.6276
  152SAPE   H4Y16825   5.021   2.006   6.641 -0.0256 -1.0460 -1.1461
  152SAPE   C3516826   4.945   2.098   6.461 -0.3180 -0.0635  0.5934
  152SAPE   H5X16827   5.015   2.183   6.475  1.5928 -1.1011 -1.9361
  152SAPE   H5Y16828   4.857   2.143   6.410  0.5568  1.4699  0.3575
  152SAPE   C3616829   5.009   2.004   6.362 -0.8116 -0.1911  0.1704
  152SAPE   H6X16830   4.928   1.932   6.336 -1.2840 -0.3347  1.9115
  152SAPE   H6Y16831   5.082   1.939   6.416 -0.3457  1.6405  1.8448
  152SAPE   C3716832   5.061   2.073   6.236  0.7597 -0.7119 -0.6659
  152SAPE   H7X16833   5.100   1.989   6.174 -1.7650 -0.5709 -2.6392
  152SAPE   H7Y16834   5.142   2.142   6.266  0.0152 -1.3541  3.3002
  152SAPE   C3816835   4.956   2.144   6.153 -0.8997 -0.3594 -0.0332
  152SAPE   H8X16836   5.009   2.222   6.094 -2.4791 -0.2303 -1.3753
  152SAPE   H8Y16837   4.889   2.208   6.214 -2.5047  1.7889 -3.6905
  152SAPE   C3916838   4.886   2.053   6.062 -0.7511 -0.5520  0.0330
  152SAPE   H9X16839   4.793   2.098   6.022 -1.4974 -0.8855  1.3275
  152SAPE   H9Y16840   4.845   1.968   6.120 -0.1886 -0.5078  0.5066
  152SAPE  C31016841   4.959   2.020   5.939 -0.0101 -0.7968 -0.7394
  152SAPE  H10X16842   5.056   1.969   5.959  0.9700  1.8716  2.1158
  152SAPE  H10Y16843   4.986   2.114   5.885 -1.3866  0.0505 -0.0146
  152SAPE  C31116844   4.863   1.965   5.833 -0.1824  0.4383  0.3856
  152SAPE  H11X16845   4.774   2.030   5.820  0.4873  1.4709  0.8555
  152SAPE  H11Y16846   4.831   1.863   5.865 -0.6089  0.2066 -0.6995
  152SAPE  C31216847   4.933   1.942   5.695  0.4222 -0.1715 -0.5122
  152SAPE  H12X16848   5.036   1.899   5.698  1.4472  2.1730  0.1643
  152SAPE  H12Y16849   4.957   2.041   5.651 -2.7925  0.5494 -0.8892
  152SAPE  C31316850   4.852   1.863   5.588  0.6248  0.1891 -0.5231
  152SAPE  H13X16851   4.742   1.864   5.606 -0.1376  1.8743 -4.3040
  152SAPE  H13Y16852   4.878   1.756   5.601  1.5674  0.1022 -2.6392
  152SAPE  C31416853   4.882   1.904   5.449  0.0228 -0.4834 -0.0123
  152SAPE  H14X16854   4.991   1.912   5.427 -0.3564  1.1043 -1.4906
  152SAPE  H14Y16855   4.836   2.003   5.429 -1.4732 -1.1222  0.1192
  152SAPE  C31516856   4.818   1.811   5.344  0.4543 -0.2116  0.2533
  152SAPE  H15X16857   4.707   1.813   5.355  0.4238  0.4110 -0.0748
  152SAPE  H15Y16858   4.854   1.709   5.367  0.8031  0.2862  2.0611
  152SAPE  C31616859   4.851   1.843   5.197 -0.6014  0.1568 -0.0972
  152SAPE  H16X16860   4.951   1.797   5.180 -1.3644 -2.5519  2.0012
  152SAPE  H16Y16861   4.862   1.951   5.175  1.5801  0.0374  0.2048
  152SAPE  C31716862   4.757   1.784   5.101  0.0460  0.4725 -0.4180
  152SAPE  H17X16863   4.740   1.678   5.126  2.2662  0.7003  2.4849
  152SAPE  H17Y16864   4.810   1.769   5.004 -2.1077 -0.3204 -1.5459
  152SAPE  C31816865   4.618   1.855   5.083 -0.2743  0.4909  0.1188
  152SAPE  H18X16866   4.575   1.873   5.183 -0.4348 -1.7520  0.5152
  152SAPE  H18Y16867   4.557   1.780   5.028 -0.4169  2.0679 -1.9899
  152SAPE  H18Z16868   4.639   1.954   5.036 -1.6595  0.6476 -0.2074
  153SAPE     N16869   6.428   1.424   6.708 -0.4576  0.0052 -0.2596
  153SAPE   HN116870   6.496   1.364   6.759 -2.4855 -0.8487  1.6272
  153SAPE   HN216871   6.471   1.516   6.686  0.9325 -0.7730 -0.8801
  153SAPE   HN316872   6.345   1.443   6.768 -0.7133 -1.2719 -0.1856
  153SAPE   C1216873   6.368   1.360   6.593  0.7557 -0.0002  0.4888
  153SAPE  H12A16874   6.373   1.250   6.602  0.6900 -0.3173 -2.4435
  153SAPE  H12B16875   6.420   1.402   6.505 -0.0304 -2.6079 -1.3317
  153SAPE   C1116876   6.215   1.397   6.590 -0.3963  0.5259  0.1154
  153SAPE  H11A16877   6.171   1.329   6.514 -0.5109  1.3055 -0.5276
  153SAPE  H11B16878   6.216   1.501   6.551  2.2960 -0.2669 -2.3095
  153SAPE     P16879   5.998   1.397   6.708  0.0543 -0.1576 -0.2472
  153SAPE   O1316880   5.928   1.410   6.839  0.5317  0.6890 -0.7451
  153SAPE   O1416881   5.967   1.504   6.609  0.0773  0.1893  0.0726
  153SAPE   O1216882   6.152   1.387   6.718 -0.1040 -0.1171 -0.0739
  153SAPE   O1116883   5.963   1.267   6.633 -0.0234  0.3471  0.1122
  153SAPE    C116884   5.989   1.137   6.691  0.0103 -0.0735  0.2277
  153SAPE    HA16885   6.093   1.110   6.662 -0.6172 -0.5284 -1.7429
  153SAPE    HB16886   5.975   1.140   6.801 -2.0574 -0.2598  0.0001
  153SAPE    C216887   5.895   1.021   6.640 -0.7356  0.0562 -0.8807
  153SAPE    HS16888   5.946   0.923   6.644 -0.7206  0.0935  0.2013
  153SAPE   O2116889   5.827   1.050   6.514  0.2295 -0.0195  0.2135
  153SAPE   C2116890   5.916   1.060   6.419  0.2434 -0.5036 -0.9394
  153SAPE   O2216891   6.035   1.034   6.430 -0.4330  0.9579  0.0092
  153SAPE   C2216892   5.843   1.094   6.292  0.3254  0.4781  0.4561
  153SAPE   H2R16893   5.834   1.204   6.279  0.9083  0.4178 -0.5753
  153SAPE   H2S16894   5.888   1.030   6.213  0.0602 -0.3554  0.9678
  153SAPE    C316895   5.786   0.984   6.739  0.5024  0.0712 -0.1517
  153SAPE    HX16896   5.737   1.079   6.769 -0.2761  0.2502 -1.8488
  153SAPE    HY16897   5.824   0.947   6.836 -0.4228  0.4275  0.3532
  153SAPE   O3116898   5.696   0.886   6.688 -0.1317  0.2619 -0.3196
  153SAPE   C3116899   5.576   0.928   6.637  0.0044  0.4358  0.1406
  153SAPE   O3216900   5.548   1.047   6.636  0.5463 -0.4542 -0.8134
  153SAPE   C3216901   5.509   0.811   6.563  0.5998 -0.9345 -0.1331
  153SAPE   H2X16902   5.450   0.753   6.637 -1.0968  1.4084  0.4853
  153SAPE   H2Y16903   5.589   0.752   6.513  4.2111  1.3537  2.3563
  153SAPE   C2316904   5.700   1.054   6.299  0.8227  0.0240  0.9824
  153SAPE   H3R16905   5.652   1.130   6.363 -2.0629  1.1356 -2.1894
  153SAPE   H3S16906   5.670   0.953   6.335  1.0440 -0.7062 -0.7551
  153SAPE   C2416907   5.642   1.071   6.160 -0.7628 -0.2208 -0.0179
  153SAPE   H4R16908   5.652   1.181   6.144  1.9007  0.0815  2.8968
  153SAPE   H4S16909   5.532   1.055   6.168 -0.7214  0.4541  3.0925
  153SAPE   C2516910   5.706   1.002   6.044  0.5496 -0.0131  0.1481
  153SAPE   H5R16911   5.710   0.893   6.057 -0.9375 -0.2087 -0.7947
  153SAPE   C2616912   5.770   1.053   5.940 -0.3914 -0.2950 -0.1692
  153SAPE   H6R16913   5.824   0.981   5.876  1.7716  1.2402 -0.1851
  153SAPE   C2716914   5.798   1.201   5.912  0.8659 -0.1764 -0.5365
  153SAPE   H7R16915   5.714   1.256   5.958  1.5105  1.7932 -1.5851
  153SAPE   H7S16916   5.790   1.225   5.804 -0.0665  0.9084 -0.2413
  153SAPE   C2816917   5.933   1.250   5.953  0.5840 -0.2083 -0.1723
  153SAPE   H8R16918   5.940   1.278   6.060  4.1259  0.0085 -0.3402
  153SAPE   C2916919   6.038   1.269   5.871 -0.2897  0.0745 -0.4391
  153SAPE   H9R16920   6.127   1.301   5.927 -0.0189  1.6823 -1.7422
  153SAPE  C21016921   6.035   1.226   5.719 -0.1830 -0.0245 -0.0566
  153SAPE  H10R16922   5.964   1.146   5.690 -0.1456  0.8047 -2.7069
  153SAPE  H10S16923   6.133   1.184   5.689  0.4559  2.5424 -1.8986
  153SAPE  C21116924   5.985   1.339   5.633 -0.0094  0.5086 -0.3108
  153SAPE  H11R16925   5.950   1.431   5.683  1.5163  0.3433  1.1322
  153SAPE  C21216926   5.976   1.335   5.505  1.0539  0.0529  0.0686
  153SAPE  H12R16927   5.935   1.421   5.451 -1.5799 -0.8200  0.4890
  153SAPE  C21316928   6.026   1.226   5.412  0.0258  0.3550  0.1217
  153SAPE  H13R16929   5.960   1.137   5.426  0.7955  0.0749  2.3965
  153SAPE  H13S16930   6.126   1.191   5.445 -0.5777 -1.1503  0.4488
  153SAPE  C21416931   6.015   1.273   5.273  0.7581 -0.0354  0.9746
  153SAPE  H14R16932   5.936   1.346   5.250  1.2398 -0.0901 -1.0748
  153SAPE  C21516933   6.100   1.260   5.175 -0.4198 -0.7201 -0.0083
  153SAPE  H15R16934   6.078   1.295   5.073 -2.5624 -1.8224  0.0193
  153SAPE  C21616935   6.234   1.196   5.188 -0.0591  0.0501 -0.1723
  153SAPE  H16R16936   6.222   1.089   5.158  1.3587 -0.1731 -0.0149
  153SAPE  H16S16937   6.287   1.196   5.286 -0.8524 -0.4029  0.2666
  153SAPE  C21716938   6.335   1.268   5.093 -0.2494  0.1908 -0.5310
  153SAPE  H17R16939   6.328   1.222   4.992 -1.8803  0.1692 -0.4224
  153SAPE  H17S16940   6.433   1.226   5.123  0.1995 -0.1994 -2.4096
  153SAPE  C21816941   6.336   1.423   5.067 -0.4177  0.3047  0.2791
  153SAPE  H18R16942   6.325   1.479   5.162  1.8177  0.7558  0.3296
  153SAPE  H18S16943   6.260   1.455   4.994 -0.2070 -2.3837 -1.2582
  153SAPE  C21916944   6.464   1.464   5.004  0.1342 -0.7498  0.1073
  153SAPE  H19R16945   6.551   1.412   5.050 -0.6154 -0.4663  1.9338
  153SAPE  H19S16946   6.475   1.574   5.018 -0.8786 -0.1643 -2.9187
  153SAPE  C22016947   6.467   1.429   4.853  0.3976 -0.0551 -0.1205
  153SAPE  H20R16948   6.402   1.495   4.791  1.5173 -0.5454 -1.8784
  153SAPE  H20S16949   6.437   1.325   4.828 -0.9408  0.0400  0.9503
  153SAPE  H20T16950   6.568   1.437   4.808 -0.8131 -0.6944 -3.1462
  153SAPE   C3316951   5.400   0.865   6.459  0.4335  0.1831 -0.9738
  153SAPE   H3X16952   5.425   0.966   6.418 -0.5771  1.3589  1.1403
  153SAPE   H3Y16953   5.308   0.891   6.516 -1.3455 -1.4664 -2.9061
  153SAPE   C3416954   5.349   0.771   6.352 -0.4625 -0.0073 -0.3079
  153SAPE   H4X16955   5.434   0.757   6.281  0.6366 -1.3300  1.1747
  153SAPE   H4Y16956   5.260   0.813   6.302  0.0273 -0.4288 -1.5624
  153SAPE   C3516957   5.315   0.630   6.414 -0.4846 -0.0142  0.7769
  153SAPE   H5X16958   5.225   0.650   6.476 -0.4429 -2.8705  1.8750
  153SAPE   H5Y16959   5.393   0.587   6.479  0.0324  0.6577  0.6132
  153SAPE   C3616960   5.276   0.531   6.306 -0.7595 -0.4961  0.1361
  153SAPE   H6X16961   5.364   0.530   6.238 -0.0398  2.2542  0.8745
  153SAPE   H6Y16962   5.188   0.572   6.253 -0.4107 -0.8547 -0.7402
  153SAPE   C3716963   5.240   0.393   6.356  0.6952  0.2177 -0.0917
  153SAPE   H7X16964   5.151   0.406   6.422 -0.2249 -1.5098 -0.9456
  153SAPE   H7Y16965   5.330   0.352   6.407 -0.1487 -1.7160 -0.0985
  153SAPE   C3816966   5.195   0.291   6.248  0.2628 -0.1511 -0.0561
  153SAPE   H8X16967   5.213   0.184   6.269 -2.1732 -0.4891  0.6046
  153SAPE   H8Y16968   5.252   0.306   6.153  1.0075 -1.2609  0.1966
  153SAPE   C3916969   5.041   0.291   6.205  0.3701 -0.5506 -0.1592
  153SAPE   H9X16970   5.006   0.393   6.179 -1.6326 -0.8884  1.0092
  153SAPE   H9Y16971   4.993   0.273   6.303  1.3263 -1.4452  0.1632
  153SAPE  C31016972   5.015   0.182   6.101 -0.0580 -0.2056 -0.9869
  153SAPE  H10X16973   4.904   0.181   6.095 -0.2259 -0.5850  1.3477
  153SAPE  H10Y16974   5.039   0.083   6.145 -2.3420 -0.6337 -0.5663
  153SAPE  C31116975   5.083   0.214   5.969 -0.1729  0.2819  1.0188
  153SAPE  H11X16976   5.192   0.194   5.982  0.2985  0.1955 -2.2191
  153SAPE  H11Y16977   5.062   0.316   5.931  0.0453  0.1039  0.4138
  153SAPE  C31216978   5.021   0.116   5.859 -0.0672 -0.4131  0.3674
  153SAPE  H12X16979   4.915   0.143   5.846  0.0430  0.2208  0.7170
  153SAPE  H12Y16980   5.032   0.012   5.897 -0.6862 -0.6860 -0.1968
  153SAPE  C31316981   5.084   0.138   5.722  0.1335  0.0455  0.4190
  153SAPE  H13X16982   5.190   0.109   5.737 -0.1126 -0.2937  1.6535
  153SAPE  H13Y16983   5.081   0.245   5.694  0.1374  0.0450  0.4162
  153SAPE  C31416984   5.022   0.051   5.611 -0.2246 -0.8546  0.1946
  153SAPE  H14X16985   4.917   0.086   5.593  0.1177 -0.4960 -1.2673
  153SAPE  H14Y16986   5.029  -0.055   5.642 -0.5659 -1.1666 -0.7467
  153SAPE  C31516987   5.079   0.076   5.465 -0.2059 -0.0792  0.0691
  153SAPE  H15X16988   5.189   0.062   5.460 -0.2122 -0.7076  1.1935
  153SAPE  H15Y16989   5.062   0.185   5.452  0.4842 -0.1071 -1.1822
  153SAPE  C31616990   5.000  -0.001   5.354  0.1240  0.1746 -0.2568
  153SAPE  H16X16991   4.895   0.035   5.347  0.3246  1.4276  2.0848
  153SAPE  H16Y16992   4.980  -0.109   5.375 -2.4270  0.4411 -1.0008
  153SAPE  C31716993   5.069   0.004   5.217 -0.6453 -0.3772  0.2034
  153SAPE  H17X16994   5.003  -0.035   5.137 -0.9963  0.0995  0.2530
  153SAPE  H17Y16995   5.156  -0.065   5.211 -0.4612 -0.2540  1.1828
  153SAPE  C31816996   5.109   0.146   5.166  0.1042  0.7396  0.8850
  153SAPE  H18X16997   5.201   0.178   5.220  0.5229 -0.5380  0.9514
  153SAPE  H18Y16998   5.030   0.218   5.198  0.4396  1.6855 -0.3291
  153SAPE  H18Z16999   5.119   0.152   5.056  1.4863  0.6831  0.9929
  154SAPE     N17000   2.962   0.030   6.583  0.2626 -0.2212 -0.7103
  154SAPE   HN117001   2.978   0.022   6.685 -0.2942 -0.6140 -0.6530
  154SAPE   HN217002   2.928  -0.064   6.554 -0.9623  0.4058 -1.4218
  154SAPE   HN317003   3.053   0.032   6.533 -0.7594 -1.2941 -2.7367
  154SAPE   C1217004   2.864   0.136   6.538 -0.2773  0.3465  0.3877
  154SAPE  H12A17005   2.775   0.121   6.602  0.5772 -1.8039  1.1753
  154SAPE  H12B17006   2.835   0.095   6.439  2.4945 -3.3311  0.8686
  154SAPE   C1117007   2.919   0.278   6.527 -0.0828  0.0269  0.2989
  154SAPE  H11A17008   2.843   0.340   6.476 -1.2314 -1.6270 -0.0559
  154SAPE  H11B17009   3.012   0.271   6.466  0.4190  0.6042  0.9848
  154SAPE     P17010   2.827   0.389   6.740  0.2124 -0.4458  0.2516
  154SAPE   O1317011   2.743   0.279   6.794 -0.3859  0.5185 -0.2634
  154SAPE   O1417012   2.879   0.487   6.833  0.1893 -0.3374 -0.1176
  154SAPE   O1217013   2.944   0.325   6.655 -0.3837 -0.5686 -1.0937
  154SAPE   O1117014   2.748   0.468   6.628 -0.7430  0.0487 -0.2039
  154SAPE    C117015   2.655   0.572   6.668 -0.1732  0.7461  1.0198
  154SAPE    HA17016   2.567   0.542   6.729 -0.4713  0.0489  0.2631
  154SAPE    HB17017   2.704   0.657   6.721 -0.2087  1.4811 -0.0902
  154SAPE    C217018   2.592   0.643   6.541  0.1843 -0.0608  0.1426
  154SAPE    HS17019   2.484   0.663   6.560 -0.3362 -0.9559 -1.6435
  154SAPE   O2117020   2.604   0.562   6.418 -0.6499 -0.6602 -0.3451
  154SAPE   C2117021   2.524   0.466   6.396  0.0998  0.1073 -0.0411
  154SAPE   O2217022   2.426   0.445   6.468  0.6577  0.1467  0.1916
  154SAPE   C2217023   2.560   0.400   6.265  0.7107  0.6773 -0.6078
  154SAPE   H2R17024   2.620   0.466   6.199 -1.8131  1.7205 -1.9991
  154SAPE   H2S17025   2.624   0.313   6.291 -1.0805 -0.2403  0.9260
  154SAPE    C317026   2.675   0.773   6.522  0.6638  0.5783 -0.4605
  154SAPE    HX17027   2.783   0.748   6.512  0.8098  0.5639  0.9457
  154SAPE    HY17028   2.662   0.839   6.610 -0.9766  0.2586 -0.4344
  154SAPE   O3117029   2.627   0.837   6.402 -0.2028 -0.4311 -0.4185
  154SAPE   C3117030   2.652   0.964   6.373 -0.0765 -0.6434  0.0618
  154SAPE   O3217031   2.692   1.047   6.451 -0.2099  0.0943 -0.1362
  154SAPE   C3217032   2.606   1.004   6.231  0.5194  0.1953  0.0579
  154SAPE   H2X17033   2.509   0.950   6.221  1.0338 -0.7579  0.0615
  154SAPE   H2Y17034   2.675   0.963   6.155 -1.5778  0.0733 -1.8631
  154SAPE   C2317035   2.439   0.324   6.201  0.3570 -0.7033 -0.2809
  154SAPE   H3R17036   2.370   0.406   6.172  2.2917  1.4084  0.7027
  154SAPE   H3S17037   2.385   0.261   6.274 -0.6493 -0.8773 -1.1570
  154SAPE   C2417038   2.469   0.240   6.080  0.5809 -0.0172  0.4387
  154SAPE   H4R17039   2.527   0.301   6.008  0.4438  1.1421  1.2662
  154SAPE   H4S17040   2.365   0.216   6.047 -0.3596  0.3340  2.8515
  154SAPE   C2517041   2.528   0.115   6.123  0.0621 -0.0547  0.0942
  154SAPE   H5R17042   2.600   0.136   6.204  2.2508  1.1994 -2.0710
  154SAPE   C2617043   2.505  -0.010   6.091  0.1142  0.6510  0.1893
  154SAPE   H6R17044   2.559  -0.092   6.142 -2.4998 -0.3930  1.4895
  154SAPE   C2717045   2.409  -0.059   5.982  0.4222  0.4699 -0.7261
  154SAPE   H7R17046   2.330   0.018   5.964 -0.1596 -0.1145 -0.7025
  154SAPE   H7S17047   2.357  -0.148   6.024 -0.0790  1.9034  1.8920
  154SAPE   C2817048   2.478  -0.102   5.857 -0.0099 -0.1104  0.0692
  154SAPE   H8R17049   2.578  -0.060   5.839 -0.4633  0.2263 -1.8489
  154SAPE   C2917050   2.433  -0.176   5.757 -0.2980 -0.2221 -0.6974
  154SAPE   H9R17051   2.501  -0.177   5.671  4.8311  1.8256  2.8480
  154SAPE  C21017052   2.303  -0.252   5.738 -0.0297  0.1733  0.0909
  154SAPE  H10R17053   2.266  -0.194   5.651  0.1126 -0.1921 -0.2161
  154SAPE  H10S17054   2.238  -0.231   5.825  0.6235  0.3659  0.5374
  154SAPE  C21117055   2.307  -0.403   5.714  0.5549  0.2651  0.8256
  154SAPE  H11R17056   2.299  -0.456   5.811  0.9794 -0.0451  0.6922
  154SAPE  C21217057   2.335  -0.476   5.600 -0.1265 -0.4110 -0.4923
  154SAPE  H12R17058   2.336  -0.586   5.598  0.0253 -0.4042 -2.7135
  154SAPE  C21317059   2.349  -0.400   5.468  0.5217 -0.5127 -0.0785
  154SAPE  H13R17060   2.414  -0.459   5.400 -0.1858 -0.1785 -1.0686
  154SAPE  H13S17061   2.398  -0.303   5.488 -1.5952  0.8222 -1.0579
  154SAPE  C21417062   2.219  -0.381   5.398  0.2653 -0.0406  0.4547
  154SAPE  H14R17063   2.160  -0.295   5.432 -1.7536 -1.5453  0.9354
  154SAPE  C21517064   2.159  -0.475   5.319 -0.2553 -0.1659  0.2318
  154SAPE  H15R17065   2.060  -0.452   5.278  0.8811  2.2126 -1.4654
  154SAPE  C21617066   2.226  -0.601   5.275 -0.6876  0.1539  0.0057
  154SAPE  H16R17067   2.146  -0.677   5.261  0.4880 -0.6624 -3.2880
  154SAPE  H16S17068   2.296  -0.649   5.347 -1.1354  1.8365  1.6332
  154SAPE  C21717069   2.304  -0.596   5.139 -0.2025 -0.3558 -0.1801
  154SAPE  H17R17070   2.350  -0.694   5.112  2.2837  0.4808  0.6886
  154SAPE  H17S17071   2.395  -0.532   5.145 -1.1124  0.9425 -0.1125
  154SAPE  C21817072   2.212  -0.563   5.016  0.2151 -0.0131 -0.5104
  154SAPE  H18R17073   2.141  -0.480   5.034  0.5296  1.1431 -3.9201
  154SAPE  H18S17074   2.153  -0.656   5.001  0.0481 -0.2236  1.1986
  154SAPE  C21917075   2.288  -0.543   4.892  0.1715  0.5993  0.3776
  154SAPE  H19R17076   2.346  -0.634   4.867 -0.2155  0.0344  1.5050
  154SAPE  H19S17077   2.354  -0.454   4.894  1.6668 -0.4945  2.6736
  154SAPE  C22017078   2.198  -0.539   4.771 -0.6015  0.2178 -0.2316
  154SAPE  H20R17079   2.094  -0.571   4.794 -0.1960 -0.4406  0.7539
  154SAPE  H20S17080   2.246  -0.598   4.690  0.9938  0.5326  0.4309
  154SAPE  H20T17081   2.190  -0.437   4.730 -1.5041 -0.5627 -2.0870
  154SAPE   C3317082   2.568   1.155   6.217 -0.9278  0.0192 -0.1947
  154SAPE   H3X17083   2.494   1.174   6.298 -1.0360 -2.7186  0.4490
  154SAPE   H3Y17084   2.515   1.157   6.119 -1.7817  0.8916  0.2726
  154SAPE   C3417085   2.674   1.269   6.222  0.1975 -0.0391 -0.1473
  154SAPE   H4X17086   2.709   1.282   6.327  1.0872  0.9149 -0.5452
  154SAPE   H4Y17087   2.619   1.361   6.191  0.0930 -0.0075  0.1226
  154SAPE   C3517088   2.799   1.254   6.135  0.3836  0.7570 -0.2262
  154SAPE   H5X17089   2.858   1.173   6.183 -0.4097  0.9714  1.1812
  154SAPE   H5Y17090   2.861   1.345   6.131  0.3066  0.7687 -2.2093
  154SAPE   C3617091   2.774   1.201   5.987 -0.2574 -0.2200  0.0493
  154SAPE   H6X17092   2.757   1.092   5.998  0.0398 -0.2481  0.2536
  154SAPE   H6Y17093   2.869   1.225   5.935 -0.6424 -0.4419 -0.7650
  154SAPE   C3717094   2.689   1.297   5.899 -0.4618 -0.3896 -0.6575
  154SAPE   H7X17095   2.702   1.403   5.929 -0.3520 -0.8685  1.1082
  154SAPE   H7Y17096   2.583   1.278   5.929 -0.1513 -0.6774  0.3125
  154SAPE   C3817097   2.716   1.257   5.753  0.0456  0.2403  0.1352
  154SAPE   H8X17098   2.695   1.151   5.728 -4.2501  0.9231  0.1074
  154SAPE   H8Y17099   2.827   1.259   5.742  0.1260 -1.1807  0.4645
  154SAPE   C3917100   2.632   1.336   5.644  0.0633  0.4644 -0.2664
  154SAPE   H9X17101   2.661   1.442   5.657  1.2422  0.0859  0.3859
  154SAPE   H9Y17102   2.530   1.305   5.674  0.4269  0.2287  0.8032
  154SAPE  C31017103   2.656   1.301   5.495 -0.6279  0.2370 -0.2076
  154SAPE  H10X17104   2.639   1.193   5.476  0.1718  0.1564 -0.5017
  154SAPE  H10Y17105   2.764   1.326   5.485 -0.7933  0.5701 -1.2365
  154SAPE  C31117106   2.572   1.374   5.393  0.2871  0.1573 -0.2020
  154SAPE  H11X17107   2.555   1.479   5.426 -0.2537  0.0974 -0.2755
  154SAPE  H11Y17108   2.466   1.341   5.390 -0.7946  3.3315 -1.7746
  154SAPE  C31217109   2.622   1.384   5.244 -0.4835  0.3431 -0.1206
  154SAPE  H12X17110   2.663   1.287   5.209 -0.3737  0.3503 -0.0152
  154SAPE  H12Y17111   2.714   1.446   5.251  0.7249 -1.3086 -0.8868
  154SAPE  C31317112   2.531   1.461   5.152 -0.1838 -0.0868 -0.6000
  154SAPE  H13X17113   2.539   1.568   5.181 -1.1217 -0.6151  1.9040
  154SAPE  H13Y17114   2.428   1.421   5.166  0.3421 -0.6798  2.2583
  154SAPE  C31417115   2.555   1.439   5.003  0.1390  0.0224  0.0829
  154SAPE  H14X17116   2.560   1.330   4.985 -0.6975  0.0821 -0.6287
  154SAPE  H14Y17117   2.655   1.483   4.983 -0.0857  0.7564  0.5189
  154SAPE  C31517118   2.457   1.508   4.905  0.3319  0.9657  0.0499
  154SAPE  H15X17119   2.483   1.616   4.892 -2.1953  1.6173 -0.1207
  154SAPE  H15Y17120   2.351   1.505   4.938 -0.3689 -0.9345 -2.1279
  154SAPE  C31617121   2.468   1.455   4.758 -0.2268 -0.5997 -0.2993
  154SAPE  H16X17122   2.429   1.351   4.756 -1.3484 -0.2474  1.2516
  154SAPE  H16Y17123   2.571   1.463   4.717  0.3555  0.6745  1.2796
  154SAPE  C31717124   2.372   1.526   4.662  0.1833 -0.5335 -0.1943
  154SAPE  H17X17125   2.415   1.627   4.642 -0.6875  0.0854  0.9309
  154SAPE  H17Y17126   2.272   1.535   4.710  0.2819  1.7880 -0.2840
  154SAPE  C31817127   2.348   1.457   4.521  0.7807 -0.5499 -0.4226
  154SAPE  H18X17128   2.347   1.346   4.526 -0.1382 -0.5131  0.7074
  154SAPE  H18Y17129   2.427   1.475   4.446 -0.1932 -2.2784 -1.9568
  154SAPE  H18Z17130   2.248   1.478   4.478  1.2150 -1.9073 -2.2211
  155SAPE     N17131   4.786   0.327   7.049 -0.6032  0.3830 -0.3896
  155SAPE   HN117132   4.735   0.260   6.989 -0.4995 -1.0981  1.1052
  155SAPE   HN217133   4.835   0.263   7.115 -1.8404 -0.6038 -0.3912
  155SAPE   HN317134   4.712   0.378   7.102 -0.0505  1.7980 -0.9292
  155SAPE   C1217135   4.889   0.427   6.998 -0.0780 -0.1204 -0.4141
  155SAPE  H12A17136   4.972   0.367   6.955  2.1046  0.4129  2.6626
  155SAPE  H12B17137   4.940   0.465   7.089  0.7569 -2.8833  0.4015
  155SAPE   C1117138   4.820   0.527   6.909  0.0337 -0.5743 -0.8022
  155SAPE  H11A17139   4.779   0.476   6.819 -2.7978  0.9687 -0.5000
  155SAPE  H11B17140   4.896   0.598   6.871  0.8112 -1.8574 -1.7373
  155SAPE     P17141   4.738   0.722   7.071  0.4636  0.1945 -0.2509
  155SAPE   O1317142   4.611   0.780   7.107  0.3150  0.4526 -0.3559
  155SAPE   O1417143   4.823   0.685   7.187 -0.0256  0.1247 -0.0046
  155SAPE   O1217144   4.715   0.596   6.980 -0.6470  0.2241  0.1496
  155SAPE   O1117145   4.816   0.818   6.979 -0.0754  0.7563  0.7774
  155SAPE    C117146   4.736   0.896   6.884 -0.2171  0.4498  0.1879
  155SAPE    HA17147   4.644   0.938   6.930 -0.4070 -0.5257  0.7190
  155SAPE    HB17148   4.793   0.985   6.849 -0.1041  0.1435 -0.4294
  155SAPE    C217149   4.686   0.815   6.759  0.6046  0.0009 -0.1650
  155SAPE    HS17150   4.622   0.735   6.802  0.0436  1.8245  2.6847
  155SAPE   O2117151   4.803   0.773   6.687  0.1588 -0.1801 -0.1917
  155SAPE   C2117152   4.772   0.675   6.596 -0.5413  0.2974 -0.8852
  155SAPE   O2217153   4.666   0.626   6.590  1.3669  0.0731 -0.0338
  155SAPE   C2217154   4.890   0.650   6.500 -0.6709  0.4673  0.7067
  155SAPE   H2R17155   4.987   0.637   6.553 -0.6901 -2.9121  0.1370
  155SAPE   H2S17156   4.860   0.558   6.446 -0.1065  1.0461 -0.6419
  155SAPE    C317157   4.594   0.908   6.675  0.0575 -0.1909  0.3670
  155SAPE    HX17158   4.517   0.955   6.739  0.2721  0.3093  0.2677
  155SAPE    HY17159   4.546   0.853   6.591 -1.4655  0.2575  0.9072
  155SAPE   O3117160   4.669   1.006   6.609  0.4293 -0.1998  0.3748
  155SAPE   C3117161   4.611   1.127   6.588  0.2616 -0.5335 -0.6731
  155SAPE   O3217162   4.498   1.157   6.623 -0.3633 -0.3563 -0.0559
  155SAPE   C3217163   4.696   1.205   6.493  0.5171 -0.0712 -0.9754
  155SAPE   H2X17164   4.794   1.209   6.545 -0.2486 -2.1314  0.7408
  155SAPE   H2Y17165   4.670   1.313   6.487 -1.3326 -0.4696 -0.7534
  155SAPE   C2317166   4.904   0.755   6.387  0.0082  0.8734 -0.0707
  155SAPE   H3R17167   5.006   0.756   6.343 -0.2249  0.6501 -0.6185
  155SAPE   H3S17168   4.895   0.863   6.412 -0.4322  0.4419  1.8226
  155SAPE   C2417169   4.800   0.727   6.275 -0.2255 -0.7959  0.3800
  155SAPE   H4R17170   4.695   0.728   6.311 -0.2898  1.4418  0.2583
  155SAPE   H4S17171   4.830   0.635   6.221  2.4262  0.2884 -0.1796
  155SAPE   C2517172   4.800   0.826   6.158  0.0398  0.4013  0.4201
  155SAPE   H5R17173   4.710   0.889   6.151  1.2388  1.9912 -2.2846
  155SAPE   C2617174   4.874   0.817   6.045  0.7914 -0.6123 -0.6835
  155SAPE   H6R17175   4.854   0.890   5.965  2.1300 -0.3943 -0.8555
  155SAPE   C2717176   4.998   0.738   6.033 -0.1456 -0.2787 -0.6473
  155SAPE   H7R17177   5.007   0.658   6.110 -0.5939 -1.1552 -1.4946
  155SAPE   H7S17178   5.082   0.806   6.058  0.0040 -0.4887 -0.5733
  155SAPE   C2817179   5.009   0.688   5.886  0.3093  0.0367  0.5602
  155SAPE   H8R17180   4.915   0.680   5.829  1.1479 -1.4081 -0.7205
  155SAPE   C2917181   5.121   0.636   5.828  0.0239 -0.0644 -0.4234
  155SAPE   H9R17182   5.114   0.603   5.723  0.2735  2.1609 -1.2030
  155SAPE  C21017183   5.255   0.629   5.893 -0.0764  0.3625  0.1710
  155SAPE  H10R17184   5.308   0.536   5.862  1.7593  0.8582  1.6619
  155SAPE  H10S17185   5.255   0.614   6.003  1.9588 -1.1642  0.0335
  155SAPE  C21117186   5.346   0.743   5.871 -0.3787 -0.3974  0.0468
  155SAPE  H11R17187   5.303   0.839   5.837  0.9904 -0.4657 -2.0767
  155SAPE  C21217188   5.482   0.742   5.894  0.5678  0.1490 -0.0885
  155SAPE  H12R17189   5.544   0.823   5.853 -0.2714  0.0601 -1.6030
  155SAPE  C21317190   5.555   0.617   5.943 -0.7226 -0.8660 -0.1861
  155SAPE  H13R17191   5.519   0.532   5.882 -1.4553 -1.1438  0.6193
  155SAPE  H13S17192   5.520   0.599   6.047  0.8436 -0.8335  0.3700
  155SAPE  C21417193   5.705   0.620   5.947 -0.5023 -0.3734 -0.7272
  155SAPE  H14R17194   5.753   0.647   6.042 -0.7300 -0.3293 -0.6252
  155SAPE  C21517195   5.785   0.597   5.840  0.3823  0.8936 -0.2335
  155SAPE  H15R17196   5.894   0.608   5.856  0.2717 -1.1874  2.9550
  155SAPE  C21617197   5.741   0.561   5.695 -0.6883 -0.4910  0.6706
  155SAPE  H16R17198   5.633   0.585   5.685 -1.1120 -1.7810  1.9025
  155SAPE  H16S17199   5.744   0.453   5.671  1.0777 -0.3718  0.2209
  155SAPE  C21717200   5.805   0.627   5.570  0.6067 -0.1856 -0.1396
  155SAPE  H17R17201   5.755   0.588   5.479  1.4692  0.3780 -0.8764
  155SAPE  H17S17202   5.915   0.614   5.581  0.5405  0.6988  2.2133
  155SAPE  C21817203   5.784   0.783   5.574 -0.3545  0.1792  0.2701
  155SAPE  H18R17204   5.853   0.805   5.658  0.0003 -2.8718  0.8873
  155SAPE  H18S17205   5.682   0.825   5.589 -1.2136 -1.2977 -1.0690
  155SAPE  C21917206   5.830   0.849   5.446 -0.1745  0.0613 -0.6948
  155SAPE  H19R17207   5.934   0.818   5.423 -0.4273  1.0462 -3.4414
  155SAPE  H19S17208   5.832   0.958   5.467 -0.2613  0.4042 -2.3898
  155SAPE  C22017209   5.739   0.814   5.329  0.0599  0.7860 -0.1074
  155SAPE  H20R17210   5.634   0.847   5.348  0.4999  2.1990 -0.0391
  155SAPE  H20S17211   5.730   0.706   5.303 -0.8055 -0.1650  3.5771
  155SAPE  H20T17212   5.762   0.868   5.234 -1.2934  1.8068  0.1057
  155SAPE   C3317213   4.703   1.133   6.361  0.3499 -0.7159 -0.5813
  155SAPE   H3X17214   4.623   1.058   6.344 -2.8720  2.2289  0.4748
  155SAPE   H3Y17215   4.799   1.076   6.362 -0.2727 -1.7802 -0.3101
  155SAPE   C3417216   4.698   1.231   6.237 -0.1849 -0.0764 -0.6494
  155SAPE   H4X17217   4.781   1.303   6.247 -0.1295 -0.3776  1.5942
  155SAPE   H4Y17218   4.599   1.283   6.239 -0.4274 -0.5371 -0.2416
  155SAPE   C3517219   4.700   1.150   6.110 -0.2248 -0.6243 -0.1085
  155SAPE   H5X17220   4.611   1.084   6.102 -0.5171 -0.2868  0.3378
  155SAPE   H5Y17221   4.803   1.108   6.109  0.4463  0.9627 -0.0137
  155SAPE   C3617222   4.699   1.240   5.990 -0.5333 -0.2520  0.1595
  155SAPE   H6X17223   4.782   1.312   6.003  0.0841 -1.2316  2.1104
  155SAPE   H6Y17224   4.602   1.291   5.973 -0.1627  0.2991 -0.3051
  155SAPE   C3717225   4.741   1.163   5.869 -0.0750  0.5233  0.2671
  155SAPE   H7X17226   4.826   1.093   5.887  1.4651  2.3350  0.3878
  155SAPE   H7Y17227   4.758   1.231   5.782  1.2160 -1.0154 -0.7606
  155SAPE   C3817228   4.619   1.078   5.821  0.4852 -0.1534  1.1235
  155SAPE   H8X17229   4.534   1.144   5.796  0.0622 -1.6527 -1.8095
  155SAPE   H8Y17230   4.571   1.019   5.901  0.7186  0.3756  1.6634
  155SAPE   C3917231   4.640   1.005   5.682  0.4757 -0.5551 -0.0873
  155SAPE   H9X17232   4.667   1.080   5.604 -1.4628  0.3968  0.1055
  155SAPE   H9Y17233   4.547   0.949   5.659 -0.7853  2.0659 -1.8978
  155SAPE  C31017234   4.751   0.900   5.689  0.4321  0.0630 -0.6380
  155SAPE  H10X17235   4.726   0.823   5.765  1.1462 -0.7145 -1.1579
  155SAPE  H10Y17236   4.843   0.947   5.730 -0.1077 -1.4284  2.5723
  155SAPE  C31117237   4.775   0.845   5.554 -0.0908  0.0196 -0.1391
  155SAPE  H11X17238   4.792   0.935   5.491 -1.4825  0.1999 -0.2833
  155SAPE  H11Y17239   4.680   0.800   5.517 -2.0997  1.4393  2.9395
  155SAPE  C31217240   4.891   0.748   5.539 -0.1848  0.0279 -0.2533
  155SAPE  H12X17241   4.879   0.657   5.602  0.0457  0.2046  0.0470
  155SAPE  H12Y17242   4.984   0.801   5.568 -0.8858  1.8611 -1.1870
  155SAPE  C31317243   4.909   0.694   5.402 -0.6104 -0.1570 -0.0497
  155SAPE  H13X17244   4.956   0.776   5.344  1.8550 -0.8365  0.8617
  155SAPE  H13Y17245   4.808   0.668   5.366 -0.8900 -0.5592  0.9937
  155SAPE  C31417246   5.018   0.593   5.394 -0.5817  0.8157  0.2731
  155SAPE  H14X17247   5.014   0.526   5.482  0.1822  1.0611  0.5019
  155SAPE  H14Y17248   5.116   0.646   5.402 -0.5496  1.1932 -1.8640
  155SAPE  C31517249   5.014   0.501   5.273 -0.2327  0.1975 -0.3199
  155SAPE  H15X17250   4.927   0.437   5.300  0.1964  0.3558  1.5461
  155SAPE  H15Y17251   5.100   0.430   5.277 -2.6274 -3.0200 -1.1027
  155SAPE  C31617252   5.007   0.567   5.136  0.6704 -0.4266 -0.8479
  155SAPE  H16X17253   5.078   0.652   5.129  0.8101 -0.3966  0.5564
  155SAPE  H16Y17254   4.905   0.609   5.131  0.8523 -0.0223 -1.1975
  155SAPE  C31717255   5.035   0.470   5.029 -0.2824  0.1021  0.4229
  155SAPE  H17X17256   4.981   0.379   5.064  0.1764  0.5667  2.5118
  155SAPE  H17Y17257   5.139   0.439   5.005  0.1900  1.9952 -0.1139
  155SAPE  C31817258   4.987   0.506   4.890  1.0602 -0.1133  0.2925
  155SAPE  H18X17259   4.876   0.516   4.898  0.9068 -1.5984  0.3772
  155SAPE  H18Y17260   4.997   0.431   4.808 -0.5094 -0.6549  0.5493
  155SAPE  H18Z17261   5.039   0.597   4.854  2.3502 -0.8173  0.3368
  156SAPE     N17262   0.248   1.540   6.535 -0.2112 -0.7808 -0.4671
  156SAPE   HN117263   0.300   1.503   6.617  1.8583 -1.0999 -1.8284
  156SAPE   HN217264   0.157   1.582   6.561  1.0342  3.0502 -1.6073
  156SAPE   HN317265   0.233   1.470   6.460  2.8291 -0.5258 -1.4736
  156SAPE   C1217266   0.333   1.653   6.472  0.1774 -0.1686 -0.2857
  156SAPE  H12A17267   0.400   1.604   6.399 -2.0591 -1.7583 -1.3957
  156SAPE  H12B17268   0.396   1.699   6.551 -3.1485  3.4063  0.6355
  156SAPE   C1117269   0.249   1.761   6.406 -0.3105 -0.1477  0.2759
  156SAPE  H11A17270   0.171   1.718   6.339 -0.5477  1.6991 -0.7048
  156SAPE  H11B17271   0.317   1.812   6.334  0.6491 -2.3281 -0.4309
  156SAPE     P17272   0.034   1.858   6.524  0.1692  0.3925  0.2571
  156SAPE   O1317273  -0.001   1.712   6.541  0.3874  0.6347  0.2227
  156SAPE   O1417274   0.000   1.949   6.632  0.3599  0.0886 -0.2207
  156SAPE   O1217275   0.194   1.856   6.498  0.0580 -0.6327 -0.1223
  156SAPE   O1117276  -0.022   1.922   6.384  0.4468 -0.2438 -0.2552
  156SAPE    C117277  -0.018   1.865   6.255  0.5544  0.2730 -0.0847
  156SAPE    HA17278   0.083   1.871   6.209  1.2658  0.8193  1.4597
  156SAPE    HB17279  -0.056   1.761   6.251  0.9040  0.0533  1.4432
  156SAPE    C217280  -0.101   1.952   6.160  0.3950  0.5972  0.2787
  156SAPE    HS17281  -0.093   1.909   6.057 -1.4935  1.1738 -0.1618
  156SAPE   O2117282  -0.072   2.094   6.164  0.7370  0.1625 -0.3249
  156SAPE   C2117283   0.049   2.121   6.114 -0.3219  1.0479 -0.2688
  156SAPE   O2217284   0.110   2.030   6.048 -0.2647 -0.3485 -0.2867
  156SAPE   C2217285   0.092   2.263   6.152  0.8896 -0.0481 -0.3961
  156SAPE   H2R17286   0.001   2.327   6.154  1.6934  1.1450 -1.0122
  156SAPE   H2S17287   0.129   2.261   6.256  0.3732  1.9144 -0.1278
  156SAPE    C317288  -0.247   1.930   6.195  0.0503 -0.5862 -0.4388
  156SAPE    HX17289  -0.277   2.013   6.262  0.1080  0.9323 -2.2242
  156SAPE    HY17290  -0.256   1.834   6.251 -1.9547 -0.5871 -0.6943
  156SAPE   O3117291  -0.328   1.929   6.073 -0.0661 -0.3061 -0.6959
  156SAPE   C3117292  -0.397   2.046   6.042 -0.4455 -0.5631  0.4231
  156SAPE   O3217293  -0.420   2.139   6.119 -0.5506  0.2364 -0.8653
  156SAPE   C3217294  -0.455   2.040   5.899  0.4553  0.1520  0.2464
  156SAPE   H2X17295  -0.566   2.046   5.898  0.2403 -2.2368  1.5075
  156SAPE   H2Y17296  -0.437   1.943   5.848 -2.2890 -0.1080 -0.3904
  156SAPE   C2317297   0.189   2.334   6.052  0.0053 -0.3401 -0.1730
  156SAPE   H3R17298   0.259   2.258   6.012 -0.2622 -0.9814  0.5441
  156SAPE   H3S17299   0.248   2.414   6.103 -0.5263 -1.3343  2.1642
  156SAPE   C2417300   0.111   2.402   5.941  0.3316  0.3182  0.3609
  156SAPE   H4R17301   0.039   2.468   5.994 -1.2005 -3.2313  3.0513
  156SAPE   H4S17302   0.033   2.334   5.902 -1.0741  1.8617  0.3445
  156SAPE   C2517303   0.201   2.488   5.849  0.4416  0.6875 -0.9660
  156SAPE   H5R17304   0.218   2.590   5.886  0.6144  0.1451  0.5485
  156SAPE   C2617305   0.246   2.454   5.728 -0.1426  0.6649  0.5008
  156SAPE   H6R17306   0.312   2.527   5.680 -1.1038  1.0635 -0.2493
  156SAPE   C2717307   0.236   2.315   5.667 -0.1789  0.0836 -0.6732
  156SAPE   H7R17308   0.136   2.300   5.620 -0.6556 -1.2475  0.6971
  156SAPE   H7S17309   0.230   2.237   5.745 -1.1459 -0.9099 -1.6994
  156SAPE   C2817310   0.351   2.282   5.576 -0.1750 -0.2278  0.2881
  156SAPE   H8R17311   0.438   2.241   5.628  0.6922  1.3276  0.1202
  156SAPE   C2917312   0.370   2.306   5.444  0.5541 -0.4431  0.1062
  156SAPE   H9R17313   0.468   2.286   5.400  0.1597  1.1841 -1.6807
  156SAPE  C21017314   0.276   2.375   5.349 -1.0599 -0.0112 -0.2984
  156SAPE  H10R17315   0.258   2.477   5.389 -0.7141  0.2138 -0.7003
  156SAPE  H10S17316   0.176   2.327   5.352 -1.9090  1.6570 -0.3240
  156SAPE  C21117317   0.336   2.390   5.214  0.2125  0.1517 -0.0597
  156SAPE  H11R17318   0.340   2.294   5.160  1.0311 -1.6771  3.0312
  156SAPE  C21217319   0.398   2.507   5.173  0.8538  0.9827  0.4199
  156SAPE  H12R17320   0.439   2.520   5.072 -0.9028 -0.4507 -0.5493
  156SAPE  C21317321   0.420   2.626   5.262 -0.0204 -0.2128  0.1856
  156SAPE  H13R17322   0.475   2.597   5.353 -0.9512 -2.5684  0.0647
  156SAPE  H13S17323   0.320   2.658   5.298 -0.6078  0.5759 -1.9730
  156SAPE  C21417324   0.477   2.758   5.201 -0.4807 -0.5667 -0.2969
  156SAPE  H14R17325   0.587   2.763   5.203 -0.4632  3.6251  3.8402
  156SAPE  C21517326   0.418   2.863   5.143  0.1031  0.2260 -0.1846
  156SAPE  H15R17327   0.481   2.948   5.111 -1.7069  1.5595 -0.3805
  156SAPE  C21617328   0.272   2.877   5.115  0.2667 -0.2994  0.4654
  156SAPE  H16R17329   0.217   2.788   5.151  1.6599 -0.7236  1.6265
  156SAPE  H16S17330   0.246   2.876   5.007 -2.0330 -3.3619  0.8908
  156SAPE  C21717331   0.204   3.006   5.182 -0.3097 -0.6718 -0.2470
  156SAPE  H17R17332   0.221   2.994   5.291 -3.3991  1.7185  0.6463
  156SAPE  H17S17333   0.093   3.004   5.179 -0.3147 -0.2866 -0.4355
  156SAPE  C21817334   0.262   3.138   5.132 -0.4167 -0.5614  0.8767
  156SAPE  H18R17335   0.246   3.140   5.023 -0.5953  3.3473  0.8381
  156SAPE  H18S17336   0.371   3.162   5.139 -0.6215  1.6689 -1.9855
  156SAPE  C21917337   0.208   3.259   5.216 -0.2396  0.5864 -0.8088
  156SAPE  H19R17338   0.269   3.285   5.305  0.1664  2.3188 -1.5584
  156SAPE  H19S17339   0.114   3.219   5.260 -0.1021  0.4951 -0.5969
  156SAPE  C22017340   0.194   3.382   5.129  0.7034 -0.3798 -0.5767
  156SAPE  H20R17341   0.139   3.448   5.199 -1.0041 -0.6976 -1.5665
  156SAPE  H20S17342   0.132   3.369   5.038  0.2043 -1.7105 -0.0652
  156SAPE  H20T17343   0.291   3.432   5.109  0.5773  1.4781  2.8136
  156SAPE   C3317344  -0.423   2.158   5.811 -1.0307 -0.3137 -0.1599
  156SAPE   H3X17345  -0.469   2.247   5.858 -3.2271 -1.5538  0.2234
  156SAPE   H3Y17346  -0.456   2.138   5.707  0.2382 -1.0125 -0.4498
  156SAPE   C3417347  -0.272   2.176   5.783  0.0613  0.6716 -0.6281
  156SAPE   H4X17348  -0.215   2.197   5.876 -0.3335  3.2572 -0.9141
  156SAPE   H4Y17349  -0.261   2.258   5.710 -0.4490 -0.0065 -1.4857
  156SAPE   C3517350  -0.218   2.057   5.703 -0.0387  0.2186  0.5667
  156SAPE   H5X17351  -0.265   2.066   5.603  0.3447 -0.0419  0.3641
  156SAPE   H5Y17352  -0.246   1.958   5.747 -1.6742  0.9696  1.3223
  156SAPE   C3617353  -0.064   2.062   5.698 -0.9066  0.1518  0.1486
  156SAPE   H6X17354  -0.015   2.030   5.792  1.1472  0.2155 -0.8283
  156SAPE   H6Y17355  -0.042   2.170   5.687 -0.2097 -0.0724 -0.9041
  156SAPE   C3717356   0.020   1.984   5.597 -0.2860 -0.0521  0.3708
  156SAPE   H7X17357  -0.008   1.877   5.581  0.4458  0.0983 -2.6950
  156SAPE   H7Y17358   0.128   1.986   5.621 -0.1979 -0.5445  0.0409
  156SAPE   C3817359  -0.005   2.050   5.462  0.3610 -0.2346  0.4969
  156SAPE   H8X17360   0.001   2.161   5.473 -2.2188  0.0707 -0.4937
  156SAPE   H8Y17361  -0.110   2.039   5.426  0.5637  0.0941 -0.2401
  156SAPE   C3917362   0.083   2.009   5.347 -0.3076  1.1219 -0.2097
  156SAPE   H9X17363   0.058   1.903   5.326  1.3104  0.5657  0.4467
  156SAPE   H9Y17364   0.191   2.006   5.376 -0.0867 -0.4533 -1.0738
  156SAPE  C31017365   0.069   2.091   5.222 -0.2720 -0.2446  0.0100
  156SAPE  H10X17366   0.073   2.200   5.242  0.6396  0.2701 -2.6050
  156SAPE  H10Y17367  -0.034   2.075   5.186  0.0742 -1.0630 -0.6397
  156SAPE  C31117368   0.152   2.062   5.097 -0.1053 -0.6487 -0.0984
  156SAPE  H11X17369   0.127   1.960   5.061  1.4353 -1.1295  0.1317
  156SAPE  H11Y17370   0.258   2.061   5.130 -0.2823 -1.5873  0.4588
  156SAPE  C31217371   0.146   2.160   4.976 -0.3480  0.4164  0.1487
  156SAPE  H12X17372   0.133   2.265   5.011 -1.5626  0.4664 -0.3957
  156SAPE  H12Y17373   0.050   2.132   4.927  0.7713 -0.7102 -1.4893
  156SAPE  C31317374   0.267   2.134   4.879 -0.3880 -0.6589  0.8444
  156SAPE  H13X17375   0.268   2.025   4.856  2.0812 -0.7375  1.0158
  156SAPE  H13Y17376   0.367   2.155   4.925  0.6173 -1.4396 -0.9025
  156SAPE  C31417377   0.266   2.214   4.748 -0.2342  0.4701  0.4828
  156SAPE  H14X17378   0.367   2.217   4.702  0.4616 -0.3745  1.8895
  156SAPE  H14Y17379   0.241   2.319   4.775  0.5770  0.5721  0.8657
  156SAPE  C31517380   0.173   2.147   4.651  1.2764  0.1386  0.3461
  156SAPE  H15X17381   0.073   2.146   4.699  1.0916 -1.0477 -0.0322
  156SAPE  H15Y17382   0.199   2.040   4.640  0.0482 -0.1373 -0.0304
  156SAPE  C31617383   0.168   2.222   4.517 -0.3215 -0.2132 -0.3214
  156SAPE  H16X17384   0.264   2.196   4.469  0.0537 -1.4687  1.0580
  156SAPE  H16Y17385   0.174   2.333   4.524  3.9737 -0.3147  0.4389
  156SAPE  C31717386   0.049   2.176   4.429 -0.8126  0.3969 -0.5138
  156SAPE  H17X17387   0.055   2.066   4.429  3.2628  0.4738 -1.1327
  156SAPE  H17Y17388   0.063   2.210   4.324  1.8912  0.4201 -0.2340
  156SAPE  C31817389  -0.083   2.233   4.487 -0.6278  0.2387  0.0422
  156SAPE  H18X17390  -0.106   2.213   4.594  2.6482  1.6512  1.1586
  156SAPE  H18Y17391  -0.169   2.204   4.423  0.5442 -0.5285 -1.2607
  156SAPE  H18Z17392  -0.076   2.342   4.471  1.2749  0.1205 -0.1911
  157SAPE     N17393   6.822   4.743   6.975 -0.1215  0.4975  0.4931
  157SAPE   HN117394   6.895   4.669   6.985  0.4672  0.8396 -1.0291
  157SAPE   HN217395   6.827   4.808   7.056  0.1596  0.9118  0.1476
  157SAPE   HN317396   6.729   4.698   6.966  0.5542 -1.3308  1.9952
  157SAPE   C1217397   6.864   4.823   6.859 -0.6495  0.6694  0.0600
  157SAPE  H12A17398   6.873   4.754   6.772  1.1874  0.7040  0.1748
  157SAPE  H12B17399   6.969   4.858   6.875  0.3205 -0.6647 -2.7026
  157SAPE   C1117400   6.757   4.923   6.828  0.2469  0.0342  0.3924
  157SAPE  H11A17401   6.657   4.874   6.826  0.9319 -1.4981  1.5040
  157SAPE  H11B17402   6.790   4.962   6.729  1.9364  1.3851  1.4220
  157SAPE     P17403   6.793   5.181   6.903  0.0161 -0.0815 -0.0214
  157SAPE   O1317404   6.675   5.252   6.958  0.0988  0.2717  0.1150
  157SAPE   O1417405   6.926   5.217   6.954  0.1691  0.6769 -0.1289
  157SAPE   O1217406   6.770   5.030   6.931  0.1678  0.0538  0.4405
  157SAPE   O1117407   6.784   5.190   6.746 -0.4298  0.2624  0.0932
  157SAPE    C117408   6.812   5.310   6.671 -0.1758 -0.3424 -0.3231
  157SAPE    HA17409   6.721   5.371   6.654 -1.3352 -0.9479  3.0789
  157SAPE    HB17410   6.878   5.381   6.726 -1.0733  3.4989 -3.6437
  157SAPE    C217411   6.878   5.276   6.527  0.3797 -0.6829 -0.3041
  157SAPE    HS17412   6.920   5.374   6.494 -2.3448  0.0498 -1.9482
  157SAPE   O2117413   6.768   5.224   6.440  0.3067  0.4065 -0.6636
  157SAPE   C2117414   6.713   5.323   6.364 -0.3255 -0.0739 -0.4246
  157SAPE   O2217415   6.757   5.442   6.363 -0.0157  0.2483  0.5102
  157SAPE   C2217416   6.597   5.262   6.285  0.0016  0.3035 -0.3992
  157SAPE   H2R17417   6.638   5.174   6.230 -0.5323 -1.7097  2.2545
  157SAPE   H2S17418   6.519   5.220   6.351 -1.0277  0.5858 -1.4116
  157SAPE    C317419   6.988   5.173   6.551 -0.5603  0.3499 -0.7091
  157SAPE    HX17420   6.935   5.076   6.546  1.5158 -0.7846 -1.8195
  157SAPE    HY17421   7.020   5.180   6.658 -0.9820  0.1716 -0.5717
  157SAPE   O3117422   7.095   5.183   6.449 -0.4183  0.0894 -0.6991
  157SAPE   C3117423   7.192   5.266   6.492  0.0650 -0.8650  0.4007
  157SAPE   O3217424   7.205   5.312   6.603 -0.3056 -0.3358 -0.3422
  157SAPE   C3217425   7.287   5.299   6.373 -0.5294 -0.2513 -0.4371
  157SAPE   H2X17426   7.235   5.266   6.281 -0.7760 -0.0552 -0.3701
  157SAPE   H2Y17427   7.376   5.234   6.388 -0.3165  0.4369  1.6079
  157SAPE   C2317428   6.527   5.373   6.195 -0.2724  0.0495 -0.5351
  157SAPE   H3R17429   6.595   5.391   6.109 -1.3234  1.2155 -1.1526
  157SAPE   H3S17430   6.520   5.463   6.260  2.9960  1.2273 -1.5724
  157SAPE   C2417431   6.388   5.341   6.147 -0.4289 -0.3089 -0.3951
  157SAPE   H4R17432   6.359   5.432   6.091  0.2929  1.3270  1.7487
  157SAPE   H4S17433   6.320   5.345   6.235  0.0808  0.9102 -0.0381
  157SAPE   C2517434   6.380   5.209   6.073  0.0815 -0.4304 -0.1713
  157SAPE   H5R17435   6.391   5.124   6.143  3.2053  1.1791  1.4964
  157SAPE   C2617436   6.383   5.187   5.938  0.1843 -0.2193 -0.1386
  157SAPE   H6R17437   6.373   5.083   5.906 -2.4151 -0.4257  1.0815
  157SAPE   C2717438   6.379   5.302   5.838 -0.7747  0.3981  0.0190
  157SAPE   H7R17439   6.413   5.263   5.740 -1.2355  1.1800 -0.4665
  157SAPE   H7S17440   6.467   5.366   5.862  0.5030 -1.5187  0.7095
  157SAPE   C2817441   6.250   5.384   5.821 -0.4573  0.0650  0.0652
  157SAPE   H8R17442   6.208   5.413   5.919  2.8760  1.4239  1.2450
  157SAPE   C2917443   6.200   5.434   5.709  0.2307  0.4713  0.0615
  157SAPE   H9R17444   6.114   5.502   5.717  0.1454  0.3504  0.1830
  157SAPE  C21017445   6.264   5.395   5.573  0.8558 -0.3308  0.6098
  157SAPE  H10R17446   6.208   5.307   5.534 -1.9491  2.2600 -1.7856
  157SAPE  H10S17447   6.370   5.362   5.578 -0.0515 -3.7483 -0.1645
  157SAPE  C21117448   6.247   5.496   5.468  0.1473 -0.1309 -0.5560
  157SAPE  H11R17449   6.214   5.597   5.496  0.7789  1.0431 -3.6091
  157SAPE  C21217450   6.281   5.483   5.337 -0.1429 -0.7712 -0.4786
  157SAPE  H12R17451   6.271   5.571   5.271 -0.9257 -0.2762  0.2731
  157SAPE  C21317452   6.321   5.359   5.262 -0.2397 -0.7986 -0.1088
  157SAPE  H13R17453   6.376   5.291   5.330  0.9601 -0.2924 -0.5570
  157SAPE  H13S17454   6.396   5.380   5.183  1.1711 -1.4780  0.9947
  157SAPE  C21417455   6.214   5.283   5.193 -0.3204 -0.2998  0.0531
  157SAPE  H14R17456   6.168   5.201   5.250 -0.7547  0.1897  0.4174
  157SAPE  C21517457   6.165   5.320   5.079  0.2345  0.2527 -1.0971
  157SAPE  H15R17458   6.089   5.253   5.035 -1.3544  0.7676  0.7438
  157SAPE  C21617459   6.194   5.436   4.993  0.2891 -0.7018  0.0665
  157SAPE  H16R17460   6.261   5.509   5.043 -0.1221 -0.3869  0.1696
  157SAPE  H16S17461   6.094   5.485   4.984  0.1913 -0.6021  1.4252
  157SAPE  C21717462   6.243   5.401   4.851  0.5039  0.0267  0.3737
  157SAPE  H17R17463   6.166   5.335   4.807 -0.0671  1.3911 -0.7353
  157SAPE  H17S17464   6.345   5.356   4.857  0.9468  1.2209  3.7526
  157SAPE  C21817465   6.255   5.525   4.762 -0.1788 -0.2164  0.6396
  157SAPE  H18R17466   6.334   5.586   4.811 -0.6029  2.0592 -1.2925
  157SAPE  H18S17467   6.157   5.574   4.747 -0.5567 -0.8179  1.0827
  157SAPE  C21917468   6.318   5.486   4.624 -0.0506 -0.7776  0.1730
  157SAPE  H19R17469   6.253   5.399   4.599 -2.9236  1.5424 -1.0540
  157SAPE  H19S17470   6.421   5.456   4.653 -0.3933 -3.2450 -0.8433
  157SAPE  C22017471   6.332   5.583   4.509  0.0773 -0.1993  0.0677
  157SAPE  H20R17472   6.235   5.595   4.455  0.6051 -2.1664 -1.4414
  157SAPE  H20S17473   6.405   5.526   4.448  0.2925 -1.4788  1.4496
  157SAPE  H20T17474   6.387   5.671   4.547 -1.8726  0.6332  1.1153
  157SAPE   C3317475   7.330   5.445   6.370 -0.3125 -0.2154 -0.2427
  157SAPE   H3X17476   7.408   5.449   6.291 -0.7263  1.6550 -0.6068
  157SAPE   H3Y17477   7.376   5.475   6.467 -2.9497  0.8748  0.7749
  157SAPE   C3417478   7.214   5.534   6.336  0.2278  0.5123 -0.1876
  157SAPE   H4X17479   7.248   5.639   6.325  1.1344  0.1045 -1.5912
  157SAPE   H4Y17480   7.147   5.534   6.424  0.5683 -3.2394  0.2555
  157SAPE   C3517481   7.142   5.492   6.203  1.0719 -0.0262  0.5118
  157SAPE   H5X17482   7.078   5.406   6.230 -0.4625  1.1305  0.6932
  157SAPE   H5Y17483   7.212   5.463   6.122 -0.0331 -1.4221  0.0202
  157SAPE   C3617484   7.036   5.597   6.152 -0.0020  0.0385 -0.1903
  157SAPE   H6X17485   7.074   5.701   6.147  1.8582 -0.5370  0.8441
  157SAPE   H6Y17486   6.951   5.600   6.225 -1.3210  1.3017 -1.7125
  157SAPE   C3717487   6.974   5.564   6.013 -0.2415 -0.2575  0.4597
  157SAPE   H7X17488   7.055   5.567   5.937  0.4639  0.8172  1.2154
  157SAPE   H7Y17489   6.912   5.652   5.983 -0.3857 -0.9122 -1.3034
  157SAPE   C3817490   6.890   5.437   6.010  0.0712  0.0005 -0.9255
  157SAPE   H8X17491   6.824   5.448   6.098 -1.8408  1.8260 -2.4776
  157SAPE   H8Y17492   6.944   5.340   6.021  0.5603  0.3328 -0.3369
  157SAPE   C3917493   6.795   5.429   5.893  0.1827 -0.3278 -0.7712
  157SAPE   H9X17494   6.751   5.529   5.872 -0.7372 -0.5312  0.1045
  157SAPE   H9Y17495   6.718   5.354   5.922  0.6572 -0.6613 -0.3601
  157SAPE  C31017496   6.847   5.363   5.766 -0.1095  0.0311 -0.4493
  157SAPE  H10X17497   6.865   5.257   5.791 -1.1152 -0.0854 -0.1451
  157SAPE  H10Y17498   6.944   5.406   5.734  0.5591  1.1112  2.6861
  157SAPE  C31117499   6.747   5.368   5.644  0.1036 -0.2236  0.0578
  157SAPE  H11X17500   6.657   5.306   5.666  0.1698 -0.3970 -0.1526
  157SAPE  H11Y17501   6.809   5.327   5.561  0.8115  0.6434  0.1482
  157SAPE  C31217502   6.711   5.507   5.599  0.4706  0.3537  0.4663
  157SAPE  H12X17503   6.789   5.578   5.633  0.8855  0.2640 -0.2756
  157SAPE  H12Y17504   6.617   5.541   5.647  1.3161  2.6902  0.6000
  157SAPE  C31317505   6.707   5.521   5.440 -0.1324 -0.4774  0.2504
  157SAPE  H13X17506   6.655   5.618   5.426  3.0256  1.2751 -0.5063
  157SAPE  H13Y17507   6.644   5.438   5.404 -1.9020  0.2259  1.5547
  157SAPE  C31417508   6.851   5.528   5.385  0.0009 -0.4243  0.6427
  157SAPE  H14X17509   6.910   5.439   5.417  3.0798  1.2318  0.0215
  157SAPE  H14Y17510   6.901   5.617   5.430 -0.4013 -0.8928  2.0861
  157SAPE  C31517511   6.848   5.535   5.229  0.0929  1.3838  0.1436
  157SAPE  H15X17512   6.777   5.610   5.189  0.3231  1.3461 -0.3446
  157SAPE  H15Y17513   6.819   5.437   5.186 -0.8286  1.0639  1.4260
  157SAPE  C31617514   6.991   5.556   5.183 -0.8027  0.9216  0.2750
  157SAPE  H16X17515   7.037   5.638   5.241  2.0451 -0.7503  0.5377
  157SAPE  H16Y17516   6.992   5.589   5.077  0.3198  3.0234  0.8835
  157SAPE  C31717517   7.091   5.431   5.187 -0.3859 -0.1055  0.2690
  157SAPE  H17X17518   7.080   5.394   5.292 -2.3074 -1.6839 -0.4183
  157SAPE  H17Y17519   7.191   5.476   5.178 -0.7082  0.7377  0.7968
  157SAPE  C31817520   7.059   5.318   5.086  0.2895 -0.2984  0.1784
  157SAPE  H18X17521   7.047   5.363   4.985 -0.3084 -3.1475 -1.1204
  157SAPE  H18Y17522   6.967   5.265   5.118 -1.3932  1.7861 -0.8900
  157SAPE  H18Z17523   7.138   5.245   5.058  0.7503  0.4056 -0.4266
  158SAPE     N17524   1.983   0.504   6.608 -0.6214  0.3290 -0.1416
  158SAPE   HN117525   1.972   0.448   6.520  0.0934 -1.1260  0.6566
  158SAPE   HN217526   1.901   0.566   6.618 -0.2609  0.6062  1.2123
  158SAPE   HN317527   2.074   0.555   6.604 -0.0081 -0.7657 -0.7709
  158SAPE   C1217528   1.981   0.410   6.723  0.2493  0.3529 -0.2708
  158SAPE  H12A17529   2.016   0.459   6.817  2.5487 -1.9455  0.1895
  158SAPE  H12B17530   2.048   0.323   6.706  0.0945  0.2561 -0.3787
  158SAPE   C1117531   1.850   0.343   6.750  0.4890  0.1319 -0.3014
  158SAPE  H11A17532   1.847   0.323   6.859  0.3729  1.6217 -0.0055
  158SAPE  H11B17533   1.846   0.250   6.690 -2.0403 -0.1971  0.2625
  158SAPE     P17534   1.590   0.347   6.707  0.0133  0.0630  0.0903
  158SAPE   O1317535   1.572   0.265   6.829  0.0458  0.6582  0.0345
  158SAPE   O1417536   1.488   0.451   6.687  0.0305 -0.1924 -0.0886
  158SAPE   O1217537   1.736   0.417   6.716 -0.1070 -0.8440  0.1350
  158SAPE   O1117538   1.593   0.251   6.579  0.4659 -1.0154 -1.0351
  158SAPE    C117539   1.596   0.306   6.448  0.4878 -0.2323 -0.4744
  158SAPE    HA17540   1.497   0.284   6.402  1.5275 -0.1573 -2.9083
  158SAPE    HB17541   1.602   0.416   6.439 -1.1681 -0.1741 -1.4185
  158SAPE    C217542   1.717   0.251   6.371  0.2782  0.1200  0.4467
  158SAPE    HS17543   1.806   0.263   6.437  0.7282 -1.3268  0.1343
  158SAPE   O2117544   1.734   0.325   6.254 -0.3791  0.5797 -0.2975
  158SAPE   C2117545   1.813   0.436   6.263  0.8872  0.1191 -0.6479
  158SAPE   O2217546   1.853   0.483   6.368  0.1793 -0.0640  0.0628
  158SAPE   C2217547   1.842   0.491   6.124  0.5612  0.3280  0.0405
  158SAPE   H2R17548   1.753   0.471   6.060 -1.0931  1.8482  1.7596
  158SAPE   H2S17549   1.851   0.600   6.141 -0.0920  0.4216 -0.1862
  158SAPE    C317550   1.707   0.101   6.325  0.2635 -0.6355 -0.2178
  158SAPE    HX17551   1.634   0.094   6.241  0.2869 -2.6061 -0.1253
  158SAPE    HY17552   1.678   0.030   6.406  2.0237 -1.9392 -0.6600
  158SAPE   O3117553   1.824   0.058   6.266 -0.5645  0.1375  0.0805
  158SAPE   C3117554   1.922   0.005   6.335 -0.4653 -1.0044  0.2773
  158SAPE   O3217555   1.926  -0.029   6.448 -0.3584  0.4399 -0.7896
  158SAPE   C3217556   2.045  -0.020   6.246 -0.3789  0.6867 -0.0759
  158SAPE   H2X17557   2.116  -0.082   6.304 -0.0441  0.9937 -0.1493
  158SAPE   H2Y17558   2.093   0.080   6.235  1.9919 -0.2148  1.3381
  158SAPE   C2317559   1.975   0.435   6.070 -0.2777  0.5394 -0.2947
  158SAPE   H3R17560   2.044   0.441   6.157 -2.7974 -0.2666  1.9045
  158SAPE   H3S17561   2.004   0.506   5.989 -3.4130  2.6434  0.2368
  158SAPE   C2417562   1.976   0.289   6.021  0.4826 -0.2374 -0.2433
  158SAPE   H4R17563   1.929   0.221   6.096 -1.6595 -0.7636 -1.9507
  158SAPE   H4S17564   2.079   0.248   6.012  0.3101 -0.6620 -0.3141
  158SAPE   C2517565   1.900   0.278   5.888  0.2753 -0.1856  0.5599
  158SAPE   H5R17566   1.797   0.318   5.892  0.2101 -0.3542  0.5626
  158SAPE   C2617567   1.945   0.244   5.763 -0.2728 -0.0972  0.4315
  158SAPE   H6R17568   1.873   0.255   5.680  0.4768  1.4787 -0.0510
  158SAPE   C2717569   2.082   0.215   5.719  0.0097  0.6559 -0.7205
  158SAPE   H7R17570   2.146   0.225   5.809 -1.3237 -0.7750  0.4368
  158SAPE   H7S17571   2.110   0.282   5.635 -1.4316 -2.1486 -3.6947
  158SAPE   C2817572   2.099   0.071   5.680 -0.3663  0.4268 -0.1576
  158SAPE   H8R17573   2.099  -0.001   5.764  0.7880  0.1067 -0.4225
  158SAPE   C2917574   2.128   0.018   5.559 -0.0612  0.1882  0.3415
  158SAPE   H9R17575   2.140  -0.091   5.544 -0.9898  0.1356 -0.0657
  158SAPE  C21017576   2.120   0.090   5.431  0.6789  0.2310 -0.3843
  158SAPE  H10R17577   2.149   0.197   5.441 -1.0194  0.4968  3.3080
  158SAPE  H10S17578   2.013   0.091   5.403  0.6381 -0.5190 -0.2734
  158SAPE  C21117579   2.202   0.015   5.331  0.1628 -0.2453 -0.0906
  158SAPE  H11R17580   2.310   0.024   5.349  0.0662 -0.1512  0.4627
  158SAPE  C21217581   2.173  -0.020   5.209  0.5581  0.4811 -0.2330
  158SAPE  H12R17582   2.249  -0.060   5.141  0.8324  0.1437  0.2659
  158SAPE  C21317583   2.039  -0.013   5.143 -0.4615  0.2697  0.3998
  158SAPE  H13R17584   1.965   0.040   5.207 -1.3691 -0.8342  0.3032
  158SAPE  H13S17585   1.996  -0.115   5.142  0.4192 -0.1056 -0.1299
  158SAPE  C21417586   2.023   0.039   5.006 -0.8262 -0.4967  0.0820
  158SAPE  H14R17587   1.996   0.145   4.999 -1.3580 -0.7488 -3.1162
  158SAPE  C21517588   2.007  -0.031   4.887  0.2957  0.2471 -0.7667
  158SAPE  H15R17589   1.991   0.025   4.794 -1.2458 -2.4110 -2.2187
  158SAPE  C21617590   2.002  -0.182   4.867  0.1472  0.5599 -0.8322
  158SAPE  H16R17591   1.978  -0.234   4.963  1.1473 -1.3466 -1.5664
  158SAPE  H16S17592   2.106  -0.214   4.846  1.0447  2.1718  0.8490
  158SAPE  C21717593   1.901  -0.217   4.759  0.5181  0.3247 -0.5438
  158SAPE  H17R17594   1.794  -0.200   4.784 -0.1020 -0.9720 -2.1781
  158SAPE  H17S17595   1.899  -0.328   4.755 -2.6797  0.2279  0.8598
  158SAPE  C21817596   1.926  -0.152   4.624  0.6302 -0.0187  1.0009
  158SAPE  H18R17597   2.022  -0.181   4.576 -1.2776 -0.2071 -3.1779
  158SAPE  H18S17598   1.919  -0.042   4.639 -1.2015 -0.1050  0.9632
  158SAPE  C21917599   1.821  -0.198   4.523  0.3115 -0.2440 -0.3410
  158SAPE  H19R17600   1.723  -0.183   4.574 -0.0493 -2.4679 -0.2468
  158SAPE  H19S17601   1.833  -0.307   4.506  1.4373 -0.2510  0.4383
  158SAPE  C22017602   1.827  -0.118   4.389 -0.0655  0.0164 -0.3662
  158SAPE  H20R17603   1.933  -0.101   4.360  0.4320 -0.0429  1.2973
  158SAPE  H20S17604   1.784  -0.016   4.402 -1.6425 -0.5450 -0.9493
  158SAPE  H20T17605   1.758  -0.159   4.313  0.0854  2.1057 -1.7224
  158SAPE   C3317606   2.014  -0.084   6.108  0.3366 -0.0595  0.3858
  158SAPE   H3X17607   2.105  -0.098   6.045  1.4534  0.3737  1.8371
  158SAPE   H3Y17608   1.945  -0.016   6.052  0.1852 -0.9967 -0.5984
  158SAPE   C3417609   1.941  -0.220   6.105  0.0263  0.2496  0.5585
  158SAPE   H4X17610   1.840  -0.201   6.148 -1.8967 -3.8754 -1.5684
  158SAPE   H4Y17611   1.989  -0.286   6.181  1.1177 -0.0774 -0.3860
  158SAPE   C3517612   1.942  -0.296   5.972  0.3161  0.2802 -0.8271
  158SAPE   H5X17613   1.904  -0.397   5.999  1.5344 -0.6722 -2.4868
  158SAPE   H5Y17614   2.043  -0.304   5.927  0.2839 -2.4233 -0.6057
  158SAPE   C3617615   1.848  -0.235   5.872 -0.3186 -0.0963 -0.2905
  158SAPE   H6X17616   1.890  -0.133   5.859 -2.8728  1.1891  0.7264
  158SAPE   H6Y17617   1.750  -0.215   5.922  1.1043  0.9014  2.2952
  158SAPE   C3717618   1.858  -0.302   5.732  0.4895  0.1363 -0.7473
  158SAPE   H7X17619   1.953  -0.274   5.681  0.4732 -1.1003 -1.4919
  158SAPE   H7Y17620   1.777  -0.259   5.668  0.0316  2.7980  1.4238
  158SAPE   C3817621   1.841  -0.458   5.739  0.1656  0.4011 -0.0468
  158SAPE   H8X17622   1.756  -0.496   5.800 -0.7191  1.6735 -0.4234
  158SAPE   H8Y17623   1.927  -0.496   5.797 -0.4119  0.7059  1.0385
  158SAPE   C3917624   1.856  -0.522   5.600  0.5975  0.4239 -0.3684
  158SAPE   H9X17625   1.958  -0.506   5.561 -0.0815 -2.5346 -3.9047
  158SAPE   H9Y17626   1.784  -0.480   5.526 -0.4519 -1.0788 -0.2341
  158SAPE  C31017627   1.828  -0.673   5.603 -0.7108 -0.0578  0.7528
  158SAPE  H10X17628   1.722  -0.690   5.635 -1.2333 -1.2136 -1.3546
  158SAPE  H10Y17629   1.883  -0.728   5.682 -0.9674 -1.8452 -0.2297
  158SAPE  C31117630   1.833  -0.763   5.480 -0.6085  0.0207 -0.4012
  158SAPE  H11X17631   1.787  -0.861   5.505 -1.0785 -0.2820 -2.2974
  158SAPE  H11Y17632   1.938  -0.765   5.442  0.3289 -3.4827  1.9088
  158SAPE  C31217633   1.755  -0.703   5.363  0.7267 -0.1608 -0.0765
  158SAPE  H12X17634   1.803  -0.613   5.320 -1.4147  0.3992 -1.4839
  158SAPE  H12Y17635   1.653  -0.671   5.394  0.3310 -0.7529 -0.7125
  158SAPE  C31317636   1.748  -0.793   5.237  0.1276 -0.3686  0.6404
  158SAPE  H13X17637   1.670  -0.755   5.166 -0.1490  1.0722  1.6657
  158SAPE  H13Y17638   1.719  -0.897   5.262  0.0609  0.2907  3.6149
  158SAPE  C31417639   1.888  -0.794   5.161 -0.2323  0.4250 -0.1730
  158SAPE  H14X17640   1.963  -0.830   5.236  0.2214 -0.3212 -0.9712
  158SAPE  H14Y17641   1.920  -0.693   5.129  0.7386 -0.1591 -1.1127
  158SAPE  C31517642   1.888  -0.893   5.039  0.1298  0.4356  0.0266
  158SAPE  H15X17643   1.840  -0.989   5.070  0.1106  0.2944 -0.4193
  158SAPE  H15Y17644   1.994  -0.922   5.023 -0.1156 -2.1280  2.3626
  158SAPE  C31617645   1.812  -0.838   4.925  0.1059 -0.2827 -0.5553
  158SAPE  H16X17646   1.849  -0.735   4.911 -0.0314 -0.3719 -1.6761
  158SAPE  H16Y17647   1.703  -0.832   4.949 -0.0988 -0.8762 -1.2644
  158SAPE  C31717648   1.830  -0.913   4.788  0.7066  0.1198  0.8558
  158SAPE  H17X17649   1.938  -0.935   4.775  0.2005 -1.6831 -0.8551
  158SAPE  H17Y17650   1.807  -0.839   4.709  0.4029 -0.6045  0.2577
  158SAPE  C31817651   1.741  -1.036   4.764 -0.0216  0.5988 -0.3241
  158SAPE  H18X17652   1.772  -1.089   4.672  1.3264 -0.1303  0.5151
  158SAPE  H18Y17653   1.638  -0.995   4.756  0.0552  0.7341 -0.6286
  158SAPE  H18Z17654   1.743  -1.103   4.852 -2.4774 -2.0579 -2.1341
  159SAPE     N17655   2.607   5.608   2.373 -0.1644 -0.0009 -0.3283
  159SAPE   HN117656   2.592   5.588   2.272 -1.6111  1.3848 -0.4218
  159SAPE   HN217657   2.550   5.691   2.396  0.8575  0.2967  1.3315
  159SAPE   HN317658   2.706   5.640   2.384  0.2775 -0.5963 -2.2433
  159SAPE   C1217659   2.582   5.485   2.456  0.5383 -1.1336  0.7939
  159SAPE  H12A17660   2.662   5.411   2.436  1.6194  0.6183 -1.9401
  159SAPE  H12B17661   2.492   5.435   2.414  1.7773 -2.2277 -0.6791
  159SAPE   C1117662   2.578   5.518   2.602  0.1997  0.3863 -0.2938
  159SAPE  H11A17663   2.574   5.425   2.663  0.3661  0.1522 -0.6362
  159SAPE  H11B17664   2.477   5.563   2.614 -1.0002 -1.4825 -2.6127
  159SAPE     P17665   2.683   5.693   2.774  0.1203 -0.0685  0.2878
  159SAPE   O1317666   2.816   5.699   2.840 -0.1064  0.7413 -0.1406
  159SAPE   O1417667   2.627   5.819   2.723 -0.1208 -0.1217  0.1179
  159SAPE   O1217668   2.689   5.597   2.647 -0.2363  0.4043 -0.0830
  159SAPE   O1117669   2.574   5.630   2.868 -0.3564  0.9761 -0.9619
  159SAPE    C117670   2.442   5.653   2.863  0.4493 -0.3809 -0.1930
  159SAPE    HA17671   2.408   5.676   2.759 -1.2439  0.5007  0.5121
  159SAPE    HB17672   2.393   5.556   2.884  2.6711 -1.9821 -1.9297
  159SAPE    C217673   2.402   5.765   2.966  0.2995 -0.1721  0.3092
  159SAPE    HS17674   2.451   5.855   2.923 -1.0758  0.2480 -0.4143
  159SAPE   O2117675   2.451   5.738   3.095  0.0359 -0.0433  0.7267
  159SAPE   C2117676   2.449   5.839   3.177  0.2905 -0.9939  0.2547
  159SAPE   O2217677   2.417   5.955   3.147  0.2629  0.0660  0.2632
  159SAPE   C2217678   2.473   5.794   3.318  0.3273 -0.0947  0.2831
  159SAPE   H2R17679   2.372   5.782   3.362  0.9593  0.7556  2.0633
  159SAPE   H2S17680   2.520   5.693   3.319  1.1249  0.2612 -0.0654
  159SAPE    C317681   2.254   5.808   2.955 -0.2410 -0.2823 -0.0186
  159SAPE    HX17682   2.239   5.823   2.846 -2.3298  0.1994  0.2832
  159SAPE    HY17683   2.242   5.901   3.014  1.3729  0.9419 -1.5426
  159SAPE   O3117684   2.161   5.709   3.004  0.5173 -0.1477 -0.0752
  159SAPE   C3117685   2.045   5.692   2.938 -0.2173 -0.1219  0.9485
  159SAPE   O3217686   2.007   5.756   2.839 -0.2414  0.2774  0.4224
  159SAPE   C3217687   1.975   5.567   2.998 -0.6453  0.4385  0.1803
  159SAPE   H2X17688   1.981   5.594   3.105  0.4603  0.9463  0.0071
  159SAPE   H2Y17689   2.023   5.474   2.961 -1.0352 -0.7465  2.4841
  159SAPE   C2317690   2.539   5.904   3.396  0.1257  0.4294 -0.4000
  159SAPE   H3R17691   2.472   5.987   3.425  1.0097  0.6333  1.1567
  159SAPE   H3S17692   2.612   5.961   3.334 -1.5217  1.2377 -1.6965
  159SAPE   C2417693   2.622   5.863   3.515 -0.5815  0.5073 -0.2857
  159SAPE   H4R17694   2.678   5.953   3.548 -1.4490  2.7927 -4.3541
  159SAPE   H4S17695   2.695   5.790   3.475  0.5575  1.0793  0.6794
  159SAPE   C2517696   2.532   5.803   3.623 -0.0078 -0.2646 -0.1536
  159SAPE   H5R17697   2.465   5.874   3.673  1.3608  1.8399 -1.1628
  159SAPE   C2617698   2.532   5.678   3.669  0.4196 -0.5663  0.1079
  159SAPE   H6R17699   2.461   5.653   3.749  0.4177 -1.8939 -0.2801
  159SAPE   C2717700   2.617   5.559   3.632  0.3589  0.1017 -0.0401
  159SAPE   H7R17701   2.704   5.567   3.700  1.5364  2.8940 -1.7217
  159SAPE   H7S17702   2.659   5.553   3.529 -1.8446  4.0093 -1.3806
  159SAPE   C2817703   2.546   5.431   3.661  0.0477  0.1630 -0.0876
  159SAPE   H8R17704   2.496   5.388   3.574  1.1722 -1.3726 -0.0099
  159SAPE   C2917705   2.554   5.359   3.777 -0.4029  0.5639 -0.6302
  159SAPE   H9R17706   2.498   5.265   3.788  1.4017 -0.2867  2.5518
  159SAPE  C21017707   2.640   5.377   3.897  0.4143  0.2986 -1.0241
  159SAPE  H10R17708   2.600   5.322   3.985  0.4400 -0.4879 -1.4976
  159SAPE  H10S17709   2.628   5.484   3.925 -0.5639  0.8849 -3.4161
  159SAPE  C21117710   2.782   5.328   3.889 -0.2255 -0.5760  0.0748
  159SAPE  H11R17711   2.817   5.308   3.786 -1.3771 -2.9185  0.0594
  159SAPE  C21217712   2.852   5.303   4.002 -0.4848  0.1473 -0.1090
  159SAPE  H12R17713   2.941   5.240   3.986 -0.3152  0.4334 -0.3165
  159SAPE  C21317714   2.822   5.339   4.145  0.8653  0.1173 -0.0486
  159SAPE  H13R17715   2.903   5.287   4.201 -2.7591 -2.2338  3.6008
  159SAPE  H13S17716   2.731   5.282   4.175  0.5841 -0.1050 -1.2843
  159SAPE  C21417717   2.808   5.482   4.188 -0.0371  0.4391  0.7873
  159SAPE  H14R17718   2.894   5.543   4.156  0.6033 -1.0683 -0.4892
  159SAPE  C21517719   2.698   5.540   4.244 -0.1924  0.1107  0.1592
  159SAPE  H15R17720   2.703   5.649   4.257  0.4041 -0.0615  1.5111
  159SAPE  C21617721   2.572   5.476   4.288 -0.7060  0.2742 -0.0979
  159SAPE  H16R17722   2.588   5.368   4.311  3.0662  0.8442  0.7165
  159SAPE  H16S17723   2.493   5.484   4.211 -1.4433  0.8580  0.6989
  159SAPE  C21717724   2.536   5.533   4.423  0.3388  0.6258  0.1183
  159SAPE  H17R17725   2.497   5.635   4.407 -0.9885  0.1129 -0.0697
  159SAPE  H17S17726   2.624   5.531   4.491 -0.4411  1.0808  1.1732
  159SAPE  C21817727   2.420   5.448   4.482  0.3380 -0.1869  1.1454
  159SAPE  H18R17728   2.445   5.340   4.485 -2.0522 -0.9716 -1.7446
  159SAPE  H18S17729   2.344   5.431   4.402  0.9402  0.6695  0.3624
  159SAPE  C21917730   2.352   5.492   4.606  0.8772 -0.1138  0.7448
  159SAPE  H19R17731   2.266   5.424   4.616  1.1356 -0.6429 -0.4317
  159SAPE  H19S17732   2.306   5.593   4.600  1.8227  0.2672 -0.9315
  159SAPE  C22017733   2.439   5.482   4.728 -0.7004 -0.5180  0.0388
  159SAPE  H20R17734   2.534   5.534   4.703 -1.8328  1.9047  0.4854
  159SAPE  H20S17735   2.466   5.376   4.748  1.1920 -0.4421 -1.7484
  159SAPE  H20T17736   2.394   5.533   4.816 -0.7350 -2.0003  0.8965
  159SAPE   C3317737   1.831   5.545   2.956  0.1072 -0.5796 -0.3394
  159SAPE   H3X17738   1.830   5.515   2.849 -1.8893 -0.4913 -0.3870
  159SAPE   H3Y17739   1.762   5.630   2.974  0.2229 -0.7655  1.1263
  159SAPE   C3417740   1.764   5.430   3.037 -0.1336  0.1038 -0.7838
  159SAPE   H4X17741   1.760   5.472   3.140  3.7201 -1.5737  0.2354
  159SAPE   H4Y17742   1.823   5.337   3.052 -0.5654 -0.0527  0.0021
  159SAPE   C3517743   1.626   5.386   2.994 -0.5032 -0.1009 -0.4797
  159SAPE   H5X17744   1.645   5.324   2.904  2.0547 -0.4518  0.2066
  159SAPE   H5Y17745   1.579   5.479   2.957 -0.6025  0.1107  0.1580
  159SAPE   C3617746   1.550   5.317   3.109 -0.3226  0.2712  0.7345
  159SAPE   H6X17747   1.446   5.299   3.072  0.0182 -0.0564 -0.0999
  159SAPE   H6Y17748   1.544   5.390   3.193  0.9545  1.7562 -0.3909
  159SAPE   C3717749   1.609   5.182   3.155  0.1521 -0.0183  0.5114
  159SAPE   H7X17750   1.720   5.177   3.154  0.2452  0.8430 -2.3323
  159SAPE   H7Y17751   1.569   5.114   3.077 -0.5691  1.6691 -0.6410
  159SAPE   C3817752   1.554   5.140   3.293  0.1812  0.6067  0.0461
  159SAPE   H8X17753   1.557   5.030   3.305  0.1324  0.8136  2.5524
  159SAPE   H8Y17754   1.446   5.165   3.289  0.0492  0.1187  0.4960
  159SAPE   C3917755   1.641   5.187   3.408  0.9276 -0.9403 -0.1499
  159SAPE   H9X17756   1.635   5.298   3.408  1.0634 -0.9253  1.0206
  159SAPE   H9Y17757   1.747   5.164   3.384  1.4131  0.4362  0.6244
  159SAPE  C31017758   1.599   5.145   3.545 -0.9070 -0.2008  0.0565
  159SAPE  H10X17759   1.622   5.037   3.555 -1.3538 -0.3904 -0.8438
  159SAPE  H10Y17760   1.491   5.157   3.570 -1.3188 -2.5423 -0.4233
  159SAPE  C31117761   1.667   5.219   3.665 -0.4805  0.4583  0.5206
  159SAPE  H11X17762   1.656   5.329   3.657 -0.5001  0.5459  1.5931
  159SAPE  H11Y17763   1.776   5.196   3.671 -1.0527 -2.4730  1.0631
  159SAPE  C31217764   1.605   5.163   3.797  0.0443  0.0139 -0.0406
  159SAPE  H12X17765   1.663   5.072   3.823 -0.4001  0.1353  1.4602
  159SAPE  H12Y17766   1.496   5.151   3.784 -0.0984  1.6780 -0.6937
  159SAPE  C31317767   1.627   5.262   3.916  0.7280 -0.2825 -0.7121
  159SAPE  H13X17768   1.585   5.363   3.900  2.7749  1.7518  4.5855
  159SAPE  H13Y17769   1.734   5.285   3.935  0.1057  0.8373  1.8987
  159SAPE  C31417770   1.557   5.215   4.043  0.4086  0.3680 -0.2314
  159SAPE  H14X17771   1.591   5.110   4.056 -2.0268 -0.1269  3.5975
  159SAPE  H14Y17772   1.447   5.210   4.032  0.5023 -1.2795 -0.8168
  159SAPE  C31517773   1.591   5.299   4.165  0.5699  0.2393  0.7959
  159SAPE  H15X17774   1.580   5.406   4.134  1.8353  0.0173 -0.5503
  159SAPE  H15Y17775   1.699   5.281   4.183  1.3913  0.7397 -2.8675
  159SAPE  C31617776   1.510   5.277   4.280  0.8266 -0.3198  0.3133
  159SAPE  H16X17777   1.404   5.302   4.261  1.0267  3.4481  3.0369
  159SAPE  H16Y17778   1.533   5.362   4.348  1.1285 -1.0158  1.0891
  159SAPE  C31717779   1.517   5.144   4.357 -0.2374 -0.2461 -0.2967
  159SAPE  H17X17780   1.521   5.062   4.283  0.7369 -0.4237 -0.0731
  159SAPE  H17Y17781   1.424   5.127   4.415 -1.5136  0.3155 -2.0989
  159SAPE  C31817782   1.632   5.127   4.459  0.6528  0.0792 -0.3280
  159SAPE  H18X17783   1.622   5.186   4.553  1.8130  0.2621 -0.3009
  159SAPE  H18Y17784   1.735   5.150   4.424  1.4014 -0.6716  1.2802
  159SAPE  H18Z17785   1.625   5.022   4.496 -0.8957  0.4564  0.5105
  160SAPE     N17786   0.576   4.460   2.642 -0.5911 -0.0251 -0.4186
  160SAPE   HN117787   0.669   4.463   2.596 -0.0339 -1.1714  0.5585
  160SAPE   HN217788   0.587   4.504   2.735 -0.4564  0.1789 -0.5312
  160SAPE   HN317789   0.553   4.358   2.649  0.0444 -0.1064  0.8858
  160SAPE   C1217790   0.470   4.533   2.577 -0.1042  0.1368  0.0797
  160SAPE  H12A17791   0.451   4.488   2.477 -1.0228  2.7408 -1.0046
  160SAPE  H12B17792   0.502   4.633   2.542 -2.5766 -0.1677 -3.6401
  160SAPE   C1117793   0.339   4.560   2.667 -0.8122 -0.6005  0.8503
  160SAPE  H11A17794   0.293   4.460   2.681  0.1376 -1.4644 -1.5820
  160SAPE  H11B17795   0.255   4.617   2.620 -0.6098 -0.1520  1.0260
  160SAPE     P17796   0.349   4.769   2.837  0.2727  0.2561 -0.6848
  160SAPE   O1317797   0.433   4.816   2.951  0.5474  0.3933 -0.0791
  160SAPE   O1417798   0.334   4.859   2.722  0.6698  0.0267 -0.0213
  160SAPE   O1217799   0.370   4.623   2.792 -0.4127 -0.0613  0.1750
  160SAPE   O1117800   0.200   4.756   2.906 -1.0650 -0.6680 -0.4723
  160SAPE    C117801   0.180   4.689   3.029  0.1468  0.1769 -0.5693
  160SAPE    HA17802   0.100   4.613   3.026 -0.8440  1.1880 -0.5265
  160SAPE    HB17803   0.270   4.633   3.064 -0.0958  0.5062  0.6483
  160SAPE    C217804   0.131   4.797   3.131  0.9704 -0.1002 -0.0291
  160SAPE    HS17805   0.218   4.865   3.146  1.2835 -0.6687  0.7760
  160SAPE   O2117806   0.081   4.737   3.253 -0.3184  0.4640 -0.6883
  160SAPE   C2117807   0.184   4.684   3.321 -0.5580  0.0582  0.3857
  160SAPE   O2217808   0.302   4.688   3.292  0.2608  0.5532  0.0366
  160SAPE   C2217809   0.138   4.612   3.442  0.4031  0.0102  0.6682
  160SAPE   H2R17810   0.034   4.574   3.448  0.5178 -0.4709 -0.1339
  160SAPE   H2S17811   0.210   4.528   3.431 -0.0121 -0.0492 -3.1137
  160SAPE    C317812   0.013   4.897   3.070 -0.7184 -0.8769 -0.1788
  160SAPE    HX17813  -0.074   4.833   3.046 -1.1105 -0.4538  0.1181
  160SAPE    HY17814   0.038   4.945   2.972 -1.1928  0.9520  0.5527
  160SAPE   O3117815  -0.004   5.000   3.169 -0.5064  0.0535 -0.3812
  160SAPE   C3117816  -0.124   4.991   3.234 -0.1936  0.5014  0.1917
  160SAPE   O3217817  -0.214   4.915   3.199  0.0588 -0.3871 -0.3882
  160SAPE   C3217818  -0.125   5.096   3.349  0.1871 -0.5474  0.0232
  160SAPE   H2X17819  -0.199   5.055   3.421  0.2706  2.2902  1.8775
  160SAPE   H2Y17820  -0.149   5.194   3.303 -2.3343 -0.5849  1.1083
  160SAPE   C2317821   0.174   4.674   3.582 -0.3068 -0.0210 -0.0656
  160SAPE   H3R17822   0.089   4.731   3.625  2.3649  1.0739  4.3388
  160SAPE   H3S17823   0.259   4.744   3.567 -1.9373  1.6494 -2.0671
  160SAPE   C2417824   0.197   4.559   3.676 -0.5523  0.0415 -0.1922
  160SAPE   H4R17825   0.275   4.495   3.629 -2.3110 -1.4225 -1.2763
  160SAPE   H4S17826   0.110   4.488   3.679  0.1121 -0.8032 -0.5327
  160SAPE   C2517827   0.244   4.607   3.811 -0.0524  0.0439  0.0197
  160SAPE   H5R17828   0.342   4.656   3.812 -0.5044  1.0474  2.3062
  160SAPE   C2617829   0.171   4.618   3.930 -0.3230  0.3040  0.5843
  160SAPE   H6R17830   0.232   4.653   4.016 -0.3402  1.2932  0.2072
  160SAPE   C2717831   0.022   4.579   3.950 -0.8213  0.6273 -0.1486
  160SAPE   H7R17832   0.013   4.468   3.945  0.7346  0.4882 -0.2050
  160SAPE   H7S17833  -0.034   4.609   3.859  0.0808  1.7158 -0.3680
  160SAPE   C2817834  -0.053   4.628   4.067  0.3156  0.5200  0.1570
  160SAPE   H8R17835  -0.120   4.711   4.043  1.9254  1.9735  0.5318
  160SAPE   C2917836  -0.023   4.590   4.196 -0.4306 -0.9859 -0.2917
  160SAPE   H9R17837  -0.076   4.633   4.283  0.1502  1.4090 -1.0651
  160SAPE  C21017838   0.077   4.482   4.237  0.0328 -0.2044 -0.2963
  160SAPE  H10R17839   0.158   4.518   4.304  1.5199  1.8741 -2.9687
  160SAPE  H10S17840   0.120   4.428   4.150 -0.3744 -3.0527  1.1510
  160SAPE  C21117841  -0.011   4.374   4.302  0.2393 -0.4319 -0.3229
  160SAPE  H11R17842  -0.115   4.364   4.267  0.2563 -0.1543 -0.4557
  160SAPE  C21217843   0.034   4.291   4.396  0.2124  0.8040  0.2684
  160SAPE  H12R17844  -0.041   4.224   4.440  1.7071 -1.1881 -0.0235
  160SAPE  C21317845   0.176   4.285   4.460  0.0020  0.4806 -0.0744
  160SAPE  H13R17846   0.246   4.350   4.402 -1.2257  0.4421 -1.6794
  160SAPE  H13S17847   0.223   4.186   4.440  0.8064  0.9239 -0.4447
  160SAPE  C21417848   0.174   4.322   4.604  0.1674 -0.4504  0.1296
  160SAPE  H14R17849   0.080   4.373   4.630 -1.6690 -3.5205  0.0854
  160SAPE  C21517850   0.259   4.278   4.708 -0.0168 -0.2011  0.5343
  160SAPE  H15R17851   0.251   4.313   4.811  3.0117  1.8535  0.2092
  160SAPE  C21617852   0.385   4.200   4.679 -0.0297  0.0470 -0.8863
  160SAPE  H16R17853   0.402   4.195   4.569 -0.2493  0.8271 -0.9610
  160SAPE  H16S17854   0.363   4.093   4.695 -0.2969 -0.0991 -2.1745
  160SAPE  C21717855   0.510   4.245   4.757  0.0157  0.2294  0.2115
  160SAPE  H17R17856   0.493   4.232   4.866  1.8921 -0.4833  0.4646
  160SAPE  H17S17857   0.537   4.351   4.738  1.6486 -0.1522  0.2405
  160SAPE  C21817858   0.629   4.147   4.735 -0.3527  0.7957  0.1871
  160SAPE  H18R17859   0.597   4.044   4.761  0.0427  0.0711 -2.0282
  160SAPE  H18S17860   0.708   4.164   4.812  0.8575  0.7821 -1.0151
  160SAPE  C21917861   0.690   4.156   4.596  0.0847 -0.2414 -0.5595
  160SAPE  H19R17862   0.729   4.257   4.573  1.8645 -0.6764  0.4115
  160SAPE  H19S17863   0.615   4.139   4.516 -1.1728  0.5573  0.4052
  160SAPE  C22017864   0.799   4.058   4.573  0.1721 -0.0559  0.3636
  160SAPE  H20R17865   0.843   4.074   4.473 -2.2922 -1.2402 -0.9997
  160SAPE  H20S17866   0.739   3.964   4.573 -0.8850  0.6067 -0.2760
  160SAPE  H20T17867   0.887   4.057   4.642  1.1621  1.9136 -0.7799
  160SAPE   C3317868   0.009   5.123   3.424  0.2018  0.2374  0.8018
  160SAPE   H3X17869   0.067   5.179   3.347  0.0190 -0.9493 -0.2394
  160SAPE   H3Y17870   0.069   5.034   3.453 -1.2486 -0.2484  2.4690
  160SAPE   C3417871  -0.022   5.208   3.544  0.1518 -0.4169  0.0599
  160SAPE   H4X17872  -0.094   5.289   3.523 -1.6408 -1.0054  3.2514
  160SAPE   H4Y17873   0.064   5.265   3.584  0.1379  0.4898 -1.1486
  160SAPE   C3517874  -0.083   5.129   3.663 -0.3115  0.8628  0.0723
  160SAPE   H5X17875  -0.168   5.068   3.625 -1.6676  1.7827  1.5050
  160SAPE   H5Y17876  -0.123   5.201   3.738 -1.1538  0.1969  0.2894
  160SAPE   C3617877   0.019   5.033   3.730 -0.1350  0.1183 -0.0174
  160SAPE   H6X17878   0.104   5.103   3.746 -0.8455  1.6761 -2.3836
  160SAPE   H6Y17879   0.045   4.956   3.654  0.0246  0.6325 -0.5007
  160SAPE   C3717880  -0.030   4.972   3.861 -0.6387 -0.3483 -0.4387
  160SAPE   H7X17881   0.035   4.885   3.885  0.0579  0.0467 -0.8507
  160SAPE   H7Y17882  -0.137   4.942   3.863 -1.5377  2.5730  1.0405
  160SAPE   C3817883  -0.023   5.059   3.992  0.1854 -0.2825  0.7857
  160SAPE   H8X17884  -0.077   5.154   3.972 -0.3776 -0.8988 -0.8147
  160SAPE   H8Y17885   0.086   5.066   4.010  0.6396 -0.3207 -1.6589
  160SAPE   C3917886  -0.092   4.992   4.120  0.6736  0.1962  0.3264
  160SAPE   H9X17887  -0.031   4.903   4.148 -0.9853 -1.3301 -0.7174
  160SAPE   H9Y17888  -0.193   4.955   4.095  1.0428 -0.5587 -0.0753
  160SAPE  C31017889  -0.111   5.085   4.238  0.1655  0.0750 -0.4551
  160SAPE  H10X17890  -0.184   5.166   4.218 -0.0987 -0.2522 -0.8363
  160SAPE  H10Y17891  -0.009   5.127   4.254  0.5748 -1.6568  1.9957
  160SAPE  C31117892  -0.161   5.003   4.360 -0.2063  0.7817  0.0857
  160SAPE  H11X17893  -0.090   4.919   4.371  1.0309  2.0519  2.5849
  160SAPE  H11Y17894  -0.261   4.966   4.327  0.7419  0.0448 -2.1165
  160SAPE  C31217895  -0.180   5.080   4.493  0.0654 -0.7594  0.5137
  160SAPE  H12X17896  -0.222   5.179   4.467  0.9573 -0.1163  1.4314
  160SAPE  H12Y17897  -0.077   5.100   4.530  0.6417  2.4758 -2.3421
  160SAPE  C31317898  -0.279   5.006   4.587  0.1333  0.6595  0.2689
  160SAPE  H13X17899  -0.245   4.907   4.623 -1.0534  0.5919  1.2725
  160SAPE  H13Y17900  -0.365   4.976   4.524 -0.1105  0.5175  0.6633
  160SAPE  C31417901  -0.337   5.086   4.709 -0.2698 -0.4236  0.7923
  160SAPE  H14X17902  -0.427   5.034   4.747  0.4580 -2.2860  0.1152
  160SAPE  H14Y17903  -0.362   5.187   4.670 -0.1780 -0.9740 -0.8070
  160SAPE  C31517904  -0.228   5.084   4.820  0.5304  0.1752  0.1953
  160SAPE  H15X17905  -0.131   5.126   4.785  0.7580 -0.1340  0.4437
  160SAPE  H15Y17906  -0.201   4.978   4.840  0.5345  0.1466  0.0449
  160SAPE  C31617907  -0.275   5.152   4.948 -0.4247  0.0633 -0.0312
  160SAPE  H16X17908  -0.360   5.093   4.987  0.4845  0.8447  3.4455
  160SAPE  H16Y17909  -0.305   5.254   4.916  1.2799  0.2705 -1.1256
  160SAPE  C31717910  -0.166   5.158   5.050 -0.0694 -0.5690 -0.4153
  160SAPE  H17X17911  -0.080   5.216   5.010 -0.9078  0.3497 -0.9181
  160SAPE  H17Y17912  -0.134   5.053   5.070 -1.1375 -0.6691  0.9099
  160SAPE  C31817913  -0.212   5.208   5.191  0.1087 -0.0864 -0.4326
  160SAPE  H18X17914  -0.126   5.231   5.257 -1.6986  3.6043  0.9210
  160SAPE  H18Y17915  -0.290   5.141   5.232 -1.2060  0.8017 -1.3989
  160SAPE  H18Z17916  -0.258   5.307   5.171  1.6183  0.4721 -1.2625
  161SAPE     N17917   4.404   1.193   2.362 -0.8815 -0.2132 -0.4220
  161SAPE   HN117918   4.369   1.288   2.390 -3.0516 -0.4975 -1.9103
  161SAPE   HN217919   4.499   1.177   2.401 -1.9526 -0.4336  2.3716
  161SAPE   HN317920   4.420   1.200   2.260 -0.8985 -0.5067 -0.4433
  161SAPE   C1217921   4.309   1.076   2.379 -0.0505  0.0819 -0.5388
  161SAPE  H12A17922   4.210   1.108   2.340 -0.0552  1.3346  0.4243
  161SAPE  H12B17923   4.295   1.064   2.489  2.8540  3.3614  0.3704
  161SAPE   C1117924   4.369   0.941   2.323 -0.3645  0.5464 -0.0527
  161SAPE  H11A17925   4.423   0.962   2.228 -0.6723  0.8836 -0.1511
  161SAPE  H11B17926   4.289   0.867   2.299 -1.2080  1.5505 -0.3922
  161SAPE     P17927   4.518   0.756   2.429  0.3914  0.4048 -0.1779
  161SAPE   O1317928   4.432   0.664   2.349 -0.1495 -0.1621  0.4507
  161SAPE   O1417929   4.660   0.777   2.389 -0.3867  0.1731 -0.3088
  161SAPE   O1217930   4.451   0.892   2.427 -0.0225 -0.1565 -0.3102
  161SAPE   O1117931   4.506   0.723   2.582  0.4061  0.6508 -0.0721
  161SAPE    C117932   4.419   0.791   2.666  0.0007 -0.1321 -0.3968
  161SAPE    HA17933   4.454   0.895   2.682  2.0081 -1.1212  2.7430
  161SAPE    HB17934   4.317   0.790   2.624 -0.2370 -2.8371  0.0436
  161SAPE    C217935   4.424   0.728   2.810  0.8454 -0.3282  0.5482
  161SAPE    HS17936   4.531   0.736   2.838  0.7821  1.6479  0.3936
  161SAPE   O2117937   4.374   0.595   2.799  0.3384 -0.3315  0.1303
  161SAPE   C2117938   4.438   0.517   2.878 -0.4979  0.0589  0.1509
  161SAPE   O2217939   4.510   0.549   2.972  0.2531 -0.3022 -0.2183
  161SAPE   C2217940   4.401   0.370   2.859 -0.4351  0.5639 -0.2318
  161SAPE   H2R17941   4.291   0.357   2.862 -0.1941 -1.4958  1.0431
  161SAPE   H2S17942   4.432   0.339   2.756 -2.4903  0.8646 -0.9833
  161SAPE    C317943   4.343   0.815   2.916  0.1723  0.0107  0.2102
  161SAPE    HX17944   4.239   0.833   2.882  0.4443  0.8405 -0.2078
  161SAPE    HY17945   4.391   0.916   2.912 -0.9719  0.5393 -1.0206
  161SAPE   O3117946   4.363   0.770   3.047  0.0147 -0.2120 -0.0771
  161SAPE   C3117947   4.262   0.695   3.086 -0.8318 -0.5344 -0.5304
  161SAPE   O3217948   4.171   0.654   3.019 -0.3052 -0.2853 -0.1963
  161SAPE   C3217949   4.280   0.671   3.237  0.3733  0.4636  0.3397
  161SAPE   H2X17950   4.295   0.764   3.295 -1.9926  1.7589 -1.0031
  161SAPE   H2Y17951   4.369   0.606   3.253 -0.5200 -0.4340  1.9399
  161SAPE   C2317952   4.468   0.283   2.964 -0.2608 -0.1733 -0.7313
  161SAPE   H3R17953   4.578   0.301   2.956 -0.0654 -0.6259  0.6485
  161SAPE   H3S17954   4.442   0.179   2.938 -2.1038  0.5569 -2.0084
  161SAPE   C2417955   4.422   0.309   3.104 -0.6078  0.3115 -0.3081
  161SAPE   H4R17956   4.447   0.406   3.151  0.4704 -0.1887  0.1789
  161SAPE   H4S17957   4.488   0.234   3.152 -0.0399  0.2583 -1.1431
  161SAPE   C2517958   4.277   0.272   3.113  0.2091 -0.4779 -0.1985
  161SAPE   H5R17959   4.204   0.350   3.087  1.0957  0.1112 -0.9855
  161SAPE   C2617960   4.225   0.154   3.152  0.1495  0.4668 -0.3649
  161SAPE   H6R17961   4.115   0.156   3.156  0.0940 -0.4372 -1.0511
  161SAPE   C2717962   4.297   0.022   3.187  0.1040  0.5812 -0.5273
  161SAPE   H7R17963   4.407   0.040   3.187  0.3190 -0.5616 -1.9150
  161SAPE   H7S17964   4.287  -0.051   3.104  1.9016 -0.3180 -0.0076
  161SAPE   C2817965   4.245  -0.059   3.309 -0.1882  0.5065 -0.5258
  161SAPE   H8R17966   4.162  -0.128   3.288  0.5344  0.2739 -3.0681
  161SAPE   C2917967   4.281  -0.042   3.438  0.1460 -0.7268 -0.1581
  161SAPE   H9R17968   4.219  -0.098   3.509 -0.8784  1.8975  1.1170
  161SAPE  C21017969   4.380   0.051   3.505 -0.1153 -0.4293  1.0822
  161SAPE  H10R17970   4.415   0.118   3.424 -0.5876 -1.9061 -0.3734
  161SAPE  H10S17971   4.471   0.003   3.546 -0.3993 -2.5957 -0.7050
  161SAPE  C21117972   4.311   0.150   3.603  0.2321 -0.1595  0.3744
  161SAPE  H11R17973   4.218   0.199   3.569 -0.0384  0.6085  2.0812
  161SAPE  C21217974   4.374   0.193   3.716  0.4246 -0.2937  1.3567
  161SAPE  H12R17975   4.318   0.256   3.787  1.6973  0.1198  2.0150
  161SAPE  C21317976   4.500   0.143   3.775  0.1859  0.4719 -0.4679
  161SAPE  H13R17977   4.529   0.212   3.857 -0.2504  3.1988 -2.4616
  161SAPE  H13S17978   4.585   0.132   3.705  0.9539 -0.8357  0.6099
  161SAPE  C21417979   4.469   0.007   3.842  0.3536 -0.6068 -1.0914
  161SAPE  H14R17980   4.463  -0.075   3.769  0.6006 -1.8394  0.2377
  161SAPE  C21517981   4.459  -0.020   3.976 -0.1883  1.2704  0.5530
  161SAPE  H15R17982   4.428  -0.120   4.008  0.9595  0.7665  0.1445
  161SAPE  C21617983   4.451   0.074   4.095  0.0980 -0.1719 -0.3985
  161SAPE  H16R17984   4.383   0.024   4.167 -0.0156  1.6957  0.8386
  161SAPE  H16S17985   4.421   0.174   4.059  2.2714  1.3368  1.7085
  161SAPE  C21717986   4.579   0.102   4.171 -0.4624  0.3717 -0.0127
  161SAPE  H17R17987   4.653   0.138   4.096 -0.3662 -0.0217 -0.1131
  161SAPE  H17S17988   4.632   0.014   4.215 -1.0243  1.2384  2.5837
  161SAPE  C21817989   4.569   0.205   4.284 -0.1163  0.9458 -0.0861
  161SAPE  H18R17990   4.483   0.182   4.351  0.8802 -1.1679  0.5735
  161SAPE  H18S17991   4.546   0.307   4.246 -0.1555  1.2815  0.8103
  161SAPE  C21917992   4.690   0.216   4.382 -0.0348 -0.3393  0.4107
  161SAPE  H19R17993   4.775   0.252   4.321 -0.7299 -1.5043 -1.3155
  161SAPE  H19S17994   4.731   0.119   4.418 -1.3088 -0.8544  0.5108
  161SAPE  C22017995   4.672   0.318   4.499 -0.3027 -0.0795 -0.1271
  161SAPE  H20R17996   4.751   0.310   4.577  0.4164  1.0521 -0.7123
  161SAPE  H20S17997   4.581   0.296   4.558 -0.4745  0.0862 -0.3280
  161SAPE  H20T17998   4.666   0.420   4.457  1.5623 -0.0346 -0.3853
  161SAPE   C3317999   4.160   0.597   3.301  0.6631 -0.0536 -0.0274
  161SAPE   H3X18000   4.121   0.513   3.240  1.5154 -1.1766  0.9271
  161SAPE   H3Y18001   4.073   0.665   3.311  0.5395 -0.1574 -0.3944
  161SAPE   C3418002   4.198   0.531   3.427 -0.3191 -0.0010 -0.8162
  161SAPE   H4X18003   4.277   0.454   3.410 -0.1083 -0.0062  0.1353
  161SAPE   H4Y18004   4.101   0.484   3.458  0.0655  0.8337  1.9508
  161SAPE   C3518005   4.238   0.619   3.539 -0.3007 -0.0518  0.5224
  161SAPE   H5X18006   4.162   0.699   3.556  0.4931  0.2534  2.9442
  161SAPE   H5Y18007   4.341   0.658   3.526  0.1752 -1.6122 -0.6190
  161SAPE   C3618008   4.252   0.535   3.668  0.3240  0.1848  0.0714
  161SAPE   H6X18009   4.346   0.478   3.653  0.1026 -0.1645 -0.0259
  161SAPE   H6Y18010   4.167   0.463   3.675  1.2178 -0.8345  0.8481
  161SAPE   C3718011   4.270   0.613   3.790  0.3958  0.3003 -0.1672
  161SAPE   H7X18012   4.187   0.687   3.788 -1.3612 -1.5988 -2.0133
  161SAPE   H7Y18013   4.366   0.668   3.792  0.4344  0.3018 -1.4474
  161SAPE   C3818014   4.250   0.533   3.919  0.6615  0.4004 -0.1794
  161SAPE   H8X18015   4.300   0.435   3.932 -2.2142 -1.2646 -0.6225
  161SAPE   H8Y18016   4.143   0.505   3.933  0.6382 -0.3553 -1.6217
  161SAPE   C3918017   4.297   0.619   4.039 -0.5102 -0.2866  0.4656
  161SAPE   H9X18018   4.223   0.702   4.042  0.3267  0.5082 -0.3014
  161SAPE   H9Y18019   4.401   0.653   4.022 -0.1198 -1.6862 -0.0818
  161SAPE  C31018020   4.292   0.537   4.163  0.7389  0.1046 -0.8855
  161SAPE  H10X18021   4.331   0.435   4.140  3.2803  1.0495 -1.0838
  161SAPE  H10Y18022   4.185   0.520   4.187  0.7271  0.7933 -0.4068
  161SAPE  C31118023   4.360   0.592   4.290  0.0587 -0.0821  0.4740
  161SAPE  H11X18024   4.325   0.695   4.310  1.3709  0.2629  1.1313
  161SAPE  H11Y18025   4.469   0.601   4.271 -0.0101 -0.0329  0.1003
  161SAPE  C31218026   4.338   0.512   4.422 -0.0223  0.3510 -0.2405
  161SAPE  H12X18027   4.375   0.408   4.430 -1.4912 -0.2213 -0.5502
  161SAPE  H12Y18028   4.228   0.498   4.431 -0.0612  0.7159 -0.1225
  161SAPE  C31318029   4.389   0.587   4.550 -1.1191  0.3208 -0.6062
  161SAPE  H13X18030   4.360   0.694   4.549 -0.4132  0.5322  0.4031
  161SAPE  H13Y18031   4.500   0.581   4.542 -1.2216 -0.6363 -1.7203
  161SAPE  C31418032   4.355   0.523   4.683 -0.6016  0.2222  0.4277
  161SAPE  H14X18033   4.355   0.414   4.664  2.4609  0.1392  0.3946
  161SAPE  H14Y18034   4.251   0.557   4.705 -0.5477  0.0039  1.0360
  161SAPE  C31518035   4.444   0.548   4.802 -0.4680 -0.2329 -0.5158
  161SAPE  H15X18036   4.551   0.534   4.777 -0.7907 -0.6340 -1.8046
  161SAPE  H15Y18037   4.410   0.492   4.891  0.0049 -1.8599 -1.3255
  161SAPE  C31618038   4.444   0.693   4.845 -0.0853 -0.2548  0.8434
  161SAPE  H16X18039   4.338   0.725   4.852 -0.6142 -0.7890 -2.6449
  161SAPE  H16Y18040   4.481   0.749   4.756 -0.8649 -1.7383 -0.4578
  161SAPE  C31718041   4.529   0.723   4.966 -0.8846 -0.3386  0.4509
  161SAPE  H17X18042   4.541   0.833   4.970  1.3364 -0.4910 -0.7467
  161SAPE  H17Y18043   4.632   0.683   4.963 -0.2543  0.9802  2.5687
  161SAPE  C31818044   4.468   0.673   5.102 -0.2419 -0.6612  0.2154
  161SAPE  H18X18045   4.426   0.570   5.095 -0.0297 -0.7009 -0.5834
  161SAPE  H18Y18046   4.377   0.729   5.133 -0.4370 -0.3921 -0.8157
  161SAPE  H18Z18047   4.540   0.665   5.186 -0.2824 -0.5639  0.2597
  162SAPE     N18048   6.311   2.718   1.943 -0.0473 -0.5875  0.1870
  162SAPE   HN118049   6.216   2.727   1.986  0.3342  0.1359  0.8940
  162SAPE   HN218050   6.324   2.804   1.887  1.4613 -0.3615  0.8494
  162SAPE   HN318051   6.303   2.641   1.873 -2.7767 -0.2386  0.0046
  162SAPE   C1218052   6.426   2.709   2.041  0.5862 -0.1468  1.1502
  162SAPE  H12A18053   6.433   2.802   2.101  2.2706 -0.1957  1.0886
  162SAPE  H12B18054   6.518   2.691   1.980  0.0261  2.9734 -0.8562
  162SAPE   C1118055   6.409   2.590   2.143 -0.2508  0.3499 -0.8640
  162SAPE  H11A18056   6.329   2.615   2.216 -1.2794  2.1491 -2.5222
  162SAPE  H11B18057   6.500   2.587   2.206 -1.0097  1.2417  0.3161
  162SAPE     P18058   6.505   2.366   2.031 -0.1574  0.3392 -0.1719
  162SAPE   O1318059   6.443   2.255   1.952  0.6513 -0.0332  0.0760
  162SAPE   O1418060   6.613   2.440   1.970 -0.1399 -0.4620 -0.5436
  162SAPE   O1218061   6.389   2.464   2.081 -0.1645 -0.1567  0.2582
  162SAPE   O1118062   6.548   2.310   2.173 -0.7188  0.6672 -0.3026
  162SAPE    C118063   6.461   2.224   2.254 -0.2092 -0.1018 -0.3294
  162SAPE    HA18064   6.364   2.212   2.202 -0.6244  3.1076 -0.5237
  162SAPE    HB18065   6.505   2.124   2.274 -1.6709 -0.6374  0.3120
  162SAPE    C218066   6.418   2.304   2.382  0.4742  0.0087 -0.1209
  162SAPE    HS18067   6.349   2.385   2.348  0.3974 -0.0530 -0.1127
  162SAPE   O2118068   6.538   2.348   2.446  0.4150  0.3442  0.2771
  162SAPE   C2118069   6.519   2.470   2.506 -0.6843 -0.1325  0.0650
  162SAPE   O2218070   6.425   2.543   2.486  0.5032  0.2729  0.6046
  162SAPE   C2218071   6.647   2.510   2.577 -0.8798 -0.1284  0.1784
  162SAPE   H2R18072   6.717   2.425   2.585 -1.1532 -0.3866 -0.1754
  162SAPE   H2S18073   6.691   2.593   2.517 -0.3986 -1.9818 -2.1718
  162SAPE    C318074   6.332   2.198   2.468 -0.0567  0.0048 -0.3417
  162SAPE    HX18075   6.377   2.097   2.463  0.5672 -0.0844  3.5177
  162SAPE    HY18076   6.230   2.205   2.424 -0.1738  1.5273  0.0949
  162SAPE   O3118077   6.314   2.239   2.607  0.2255 -0.4953  0.1862
  162SAPE   C3118078   6.253   2.152   2.680 -0.0056  0.0396 -0.5316
  162SAPE   O3218079   6.202   2.050   2.638 -0.2433 -0.1247 -0.4149
  162SAPE   C3218080   6.282   2.165   2.826  0.2114 -1.2718  0.8454
  162SAPE   H2X18081   6.286   2.268   2.867  0.4656 -0.9699  0.0916
  162SAPE   H2Y18082   6.391   2.145   2.837  1.1431  1.0422 -2.3475
  162SAPE   C2318083   6.614   2.572   2.721  0.2130  0.5879 -0.1946
  162SAPE   H3R18084   6.546   2.660   2.723  0.2295  0.6187  1.8138
  162SAPE   H3S18085   6.704   2.617   2.769 -0.5876  0.0013  2.0074
  162SAPE   C2418086   6.558   2.459   2.814 -0.9425  0.0067  0.8789
  162SAPE   H4R18087   6.463   2.429   2.766 -0.1843  1.3897 -1.6998
  162SAPE   H4S18088   6.532   2.514   2.908  3.1340  1.0561  1.6165
  162SAPE   C2518089   6.637   2.340   2.829  0.5248  0.3268 -0.4689
  162SAPE   H5R18090   6.658   2.281   2.738 -1.1495 -0.8802 -0.1239
  162SAPE   C2618091   6.685   2.293   2.947  0.3457 -0.3923  0.3277
  162SAPE   H6R18092   6.747   2.203   2.941  1.2685  0.1603  1.1596
  162SAPE   C2718093   6.667   2.357   3.083  0.9403 -0.0269 -0.3601
  162SAPE   H7R18094   6.651   2.467   3.074 -0.2600 -0.2250 -0.7392
  162SAPE   H7S18095   6.758   2.343   3.145  0.4014  0.3236  0.5342
  162SAPE   C2818096   6.542   2.311   3.146  0.0988  0.0720 -0.7024
  162SAPE   H8R18097   6.461   2.285   3.077  0.6409 -0.9879 -0.9575
  162SAPE   C2918098   6.527   2.287   3.284 -0.5542  0.4250 -0.3097
  162SAPE   H9R18099   6.434   2.240   3.318 -0.3521  0.0563 -0.2673
  162SAPE  C21018100   6.625   2.306   3.400 -0.2301  0.2482 -0.0155
  162SAPE  H10R18101   6.702   2.380   3.370 -0.8724  1.7141  1.7483
  162SAPE  H10S18102   6.677   2.211   3.426 -0.6015  0.0532  0.0236
  162SAPE  C21118103   6.558   2.347   3.527  0.1091  0.1885 -0.2401
  162SAPE  H11R18104   6.537   2.455   3.533 -0.8432  0.1211 -1.7860
  162SAPE  C21218105   6.538   2.273   3.636 -0.0507 -0.2530 -0.7030
  162SAPE  H12R18106   6.476   2.304   3.721 -1.6748 -0.5211 -1.7286
  162SAPE  C21318107   6.579   2.133   3.664  0.0122  0.2644  1.3536
  162SAPE  H13R18108   6.635   2.083   3.582 -4.0367 -0.3307 -1.3222
  162SAPE  H13S18109   6.476   2.092   3.659  0.5374 -0.8739 -1.8133
  162SAPE  C21418110   6.663   2.108   3.788 -0.0048 -0.1843  0.0713
  162SAPE  H14R18111   6.763   2.078   3.754 -1.6180 -2.9997 -2.7321
  162SAPE  C21518112   6.631   2.118   3.916 -0.5170  0.0815 -0.3780
  162SAPE  H15R18113   6.701   2.091   3.997  0.5905  1.1346 -0.9522
  162SAPE  C21618114   6.494   2.164   3.964 -0.2850 -0.3542 -0.0980
  162SAPE  H16R18115   6.411   2.127   3.901 -1.1971 -2.0128  1.9421
  162SAPE  H16S18116   6.487   2.274   3.975 -1.7960 -0.2255 -1.9327
  162SAPE  C21718117   6.451   2.102   4.098 -0.6168  0.5046 -0.6103
  162SAPE  H17R18118   6.536   2.111   4.168 -0.2910  0.2729 -0.9656
  162SAPE  H17S18119   6.438   1.991   4.091  1.1307  0.2190  0.2989
  162SAPE  C21818120   6.333   2.169   4.167 -0.3539 -0.5196  0.2416
  162SAPE  H18R18121   6.239   2.172   4.108  0.7335 -0.2674 -1.5619
  162SAPE  H18S18122   6.363   2.276   4.175  0.8917 -0.8729  0.5603
  162SAPE  C21918123   6.307   2.121   4.308 -0.3234  0.1346  0.6433
  162SAPE  H19R18124   6.405   2.121   4.362  0.2599  0.0979 -0.3908
  162SAPE  H19S18125   6.282   2.013   4.310  2.0644 -0.4716  1.2252
  162SAPE  C22018126   6.201   2.196   4.376 -0.3466 -0.0066 -0.2386
  162SAPE  H20R18127   6.104   2.176   4.324 -1.2957  1.0826  1.0455
  162SAPE  H20S18128   6.206   2.306   4.368 -2.3419  0.1766  0.3409
  162SAPE  H20T18129   6.186   2.170   4.483  0.4175 -1.5331 -0.4819
  162SAPE   C3318130   6.197   2.075   2.917 -0.2024 -0.2432 -0.9992
  162SAPE   H3X18131   6.228   1.972   2.893  1.0973 -0.4891  1.3794
  162SAPE   H3Y18132   6.089   2.094   2.900 -0.4742 -1.5181 -0.8066
  162SAPE   C3418133   6.242   2.101   3.065  0.1568 -0.1607 -0.1882
  162SAPE   H4X18134   6.246   2.210   3.082  1.5282 -0.1833 -0.2350
  162SAPE   H4Y18135   6.346   2.064   3.077  0.4797  0.6072 -0.5823
  162SAPE   C3518136   6.163   2.028   3.171  0.0810  0.5446  0.5055
  162SAPE   H5X18137   6.191   1.921   3.165  1.6725  0.9987 -1.2757
  162SAPE   H5Y18138   6.055   2.044   3.152 -0.0053 -1.2270 -0.6972
  162SAPE   C3618139   6.193   2.081   3.314 -0.4736  0.6721 -0.1630
  162SAPE   H6X18140   6.161   2.185   3.333 -1.0847  0.3686  0.5217
  162SAPE   H6Y18141   6.302   2.075   3.335 -0.7419 -0.3830  1.0763
  162SAPE   C3718142   6.138   2.000   3.424 -0.1741 -0.1227 -0.2002
  162SAPE   H7X18143   6.186   1.900   3.434 -0.7036 -0.6185 -2.2005
  162SAPE   H7Y18144   6.031   1.975   3.406 -0.4213  1.9312 -2.0670
  162SAPE   C3818145   6.162   2.054   3.568  0.2570 -0.3931 -0.1676
  162SAPE   H8X18146   6.136   2.161   3.577 -0.7901 -0.7810  2.1877
  162SAPE   H8Y18147   6.272   2.050   3.588  0.6423  0.5158 -1.8691
  162SAPE   C3918148   6.087   1.971   3.674 -0.5951 -0.4127  0.8304
  162SAPE   H9X18149   6.123   1.865   3.674  0.6691 -0.0400 -1.0954
  162SAPE   H9Y18150   5.978   1.964   3.658 -0.7052  0.2323  1.2778
  162SAPE  C31018151   6.107   2.018   3.819 -0.0344 -0.2547 -0.3586
  162SAPE  H10X18152   6.068   2.122   3.826  0.2472 -0.2078  0.7794
  162SAPE  H10Y18153   6.215   2.022   3.843 -0.5130  3.5018  1.9719
  162SAPE  C31118154   6.019   1.932   3.910  0.0895  0.0112  0.2962
  162SAPE  H11X18155   6.042   1.823   3.908  2.3216  0.4068  1.5494
  162SAPE  H11Y18156   5.913   1.947   3.882  0.0946  0.0186  0.2807
  162SAPE  C31218157   6.025   1.975   4.054 -0.2605  1.1940 -0.1068
  162SAPE  H12X18158   6.023   2.084   4.074  1.5109  1.8146 -2.7607
  162SAPE  H12Y18159   6.123   1.934   4.088 -0.3454 -0.1612 -1.3716
  162SAPE  C31318160   5.934   1.888   4.143  0.0493 -0.2682 -0.1503
  162SAPE  H13X18161   5.969   1.783   4.144 -2.2238 -1.0598  0.4861
  162SAPE  H13Y18162   5.830   1.892   4.103 -0.1196 -0.2180  0.2909
  162SAPE  C31418163   5.917   1.940   4.284  0.7859 -0.6966 -0.5406
  162SAPE  H14X18164   5.888   2.047   4.292 -0.4122 -1.0133 -0.4884
  162SAPE  H14Y18165   6.019   1.932   4.328 -0.3581 -1.3585  2.1998
  162SAPE  C31518166   5.827   1.856   4.374 -0.1049  0.1519 -0.0264
  162SAPE  H15X18167   5.852   1.748   4.366  0.5346  0.3431 -0.7726
  162SAPE  H15Y18168   5.726   1.877   4.332 -0.3793  2.3806  1.5573
  162SAPE  C31618169   5.837   1.912   4.519 -0.2334 -0.0278  0.5638
  162SAPE  H16X18170   5.859   2.021   4.530  1.9905 -0.3334 -0.3302
  162SAPE  H16Y18171   5.934   1.868   4.549  1.2637  1.9394 -1.0654
  162SAPE  C31718172   5.733   1.863   4.621 -0.6512  0.2839  0.3182
  162SAPE  H17X18173   5.719   1.753   4.621 -0.8570  0.2323  3.0227
  162SAPE  H17Y18174   5.637   1.912   4.594  0.5485  0.7892 -3.5955
  162SAPE  C31818175   5.767   1.894   4.764 -0.0001 -1.0121  0.0047
  162SAPE  H18X18176   5.867   1.855   4.793  0.8531  1.2950  0.4258
  162SAPE  H18Y18177   5.684   1.867   4.832 -1.2285 -0.8912 -1.4055
  162SAPE  H18Z18178   5.788   2.003   4.777 -1.2255 -0.5144 -1.8437
  163SAPE     N18179   5.351   0.448   2.569  0.4962  0.4073  0.0930
  163SAPE   HN118180   5.296   0.472   2.484  1.1198  2.5139  0.2183
  163SAPE   HN218181   5.452   0.431   2.552  0.3185  0.4217 -1.0048
  163SAPE   HN318182   5.314   0.357   2.603  0.6768  0.1265 -0.4519
  163SAPE   C1218183   5.358   0.565   2.670 -0.7608  0.0740  0.4051
  163SAPE  H12A18184   5.300   0.532   2.758 -0.8427  1.1068  0.7593
  163SAPE  H12B18185   5.304   0.652   2.626 -0.2220 -0.5921 -1.7084
  163SAPE   C1118186   5.502   0.614   2.691 -1.1669  0.6307 -0.0378
  163SAPE  H11A18187   5.557   0.529   2.736 -0.7261  0.5342 -0.7494
  163SAPE  H11B18188   5.497   0.697   2.765  1.8789  1.2424 -0.4003
  163SAPE     P18189   5.575   0.805   2.549  0.0784 -0.5000 -0.4592
  163SAPE   O1318190   5.643   0.824   2.415 -0.6459  0.2757 -0.1813
  163SAPE   O1418191   5.443   0.863   2.577 -0.4223 -0.5109  0.2801
  163SAPE   O1218192   5.566   0.654   2.575 -0.2890  0.0780  0.6894
  163SAPE   O1118193   5.671   0.849   2.668  0.0456 -0.0130 -0.3893
  163SAPE    C118194   5.806   0.810   2.677 -0.6309 -0.0872  0.4142
  163SAPE    HA18195   5.827   0.780   2.782  1.0879  1.3675  0.5303
  163SAPE    HB18196   5.843   0.731   2.608  1.0718  1.2881 -0.3305
  163SAPE    C218197   5.907   0.932   2.662  0.1246  0.3611  0.0165
  163SAPE    HS18198   6.002   0.875   2.665 -2.1382 -3.8560  0.7017
  163SAPE   O2118199   5.885   1.017   2.772  0.3526 -0.2059  0.2108
  163SAPE   C2118200   5.949   0.984   2.886  0.0406 -0.7526 -0.0654
  163SAPE   O2218201   6.016   0.890   2.906 -0.4896  0.6295 -0.4460
  163SAPE   C2218202   5.923   1.081   2.994  0.3037  0.1551  0.5224
  163SAPE   H2R18203   5.983   1.174   2.980 -1.2722  1.1821  0.3291
  163SAPE   H2S18204   5.817   1.116   2.996  1.2827  3.5527 -0.3481
  163SAPE    C318205   5.892   1.019   2.535 -0.4171  0.1497  0.2233
  163SAPE    HX18206   5.902   0.947   2.451 -0.2606 -1.9323  1.9333
  163SAPE    HY18207   5.982   1.084   2.537  2.6248 -3.6678 -0.3612
  163SAPE   O3118208   5.762   1.082   2.531 -0.0377 -0.3488  0.2808
  163SAPE   C3118209   5.758   1.206   2.586 -0.2170 -0.1579  0.1248
  163SAPE   O3218210   5.851   1.276   2.627  0.3371  0.8434  0.0140
  163SAPE   C3218211   5.609   1.247   2.581  0.0771 -0.0573 -0.7219
  163SAPE   H2X18212   5.538   1.163   2.598 -0.5520  0.2869 -1.5613
  163SAPE   H2Y18213   5.586   1.295   2.483  0.7737 -2.1512 -1.9812
  163SAPE   C2318214   5.970   1.032   3.131  0.1256  0.2754 -0.7498
  163SAPE   H3R18215   6.080   1.022   3.127  0.0423 -2.0147  0.6246
  163SAPE   H3S18216   5.939   0.926   3.147  1.2066 -0.2836 -2.2431
  163SAPE   C2418217   5.910   1.110   3.259  0.0677  0.5444  0.7811
  163SAPE   H4R18218   5.927   1.218   3.239  2.2583 -0.2133 -2.2383
  163SAPE   H4S18219   5.972   1.070   3.342  2.5804 -2.2611 -2.1497
  163SAPE   C2518220   5.762   1.074   3.279  0.6047  1.0429 -0.4360
  163SAPE   H5R18221   5.697   1.069   3.191  0.2018 -0.8423 -0.0700
  163SAPE   C2618222   5.705   1.049   3.395  0.5601  0.0090 -0.4460
  163SAPE   H6R18223   5.601   1.013   3.393  0.6595 -0.3201  0.0785
  163SAPE   C2718224   5.756   1.068   3.536  0.0614  0.2664 -0.2942
  163SAPE   H7R18225   5.676   1.080   3.612 -0.2472 -0.4676 -0.5000
  163SAPE   H7S18226   5.811   1.165   3.532 -0.6327  0.6272 -1.6542
  163SAPE   C2818227   5.845   0.947   3.575  0.1405 -0.4155 -0.8516
  163SAPE   H8R18228   5.842   0.856   3.513  0.3623 -2.0717  1.4282
  163SAPE   C2918229   5.921   0.942   3.685  0.4279  0.0025 -0.4614
  163SAPE   H9R18230   5.980   0.854   3.713  0.4070  0.2755  0.4742
  163SAPE  C21018231   5.937   1.043   3.793 -0.0646  0.2364 -0.2891
  163SAPE  H10R18232   5.938   1.148   3.759  0.7881  0.3474  0.0402
  163SAPE  H10S18233   6.037   1.028   3.841  0.2689  2.9538  0.0202
  163SAPE  C21118234   5.837   1.034   3.905  0.1984 -0.2013  0.7470
  163SAPE  H11R18235   5.761   1.113   3.900 -1.3913 -1.4329  3.3210
  163SAPE  C21218236   5.835   0.958   4.011 -0.5208  0.1267  0.0105
  163SAPE  H12R18237   5.759   0.974   4.090 -0.3217  0.4015  0.1460
  163SAPE  C21318238   5.925   0.838   4.031 -0.1869  0.2731  0.4945
  163SAPE  H13R18239   6.026   0.872   3.999 -1.1968  1.7222 -1.3590
  163SAPE  H13S18240   5.903   0.744   3.977  2.2200 -0.9768  1.5702
  163SAPE  C21418241   5.921   0.809   4.179 -0.6015 -0.3960  0.1412
  163SAPE  H14R18242   5.822   0.803   4.226 -1.4869  1.0780 -1.4141
  163SAPE  C21518243   6.021   0.789   4.262  0.0359  0.3152 -0.1687
  163SAPE  H15R18244   5.993   0.766   4.366 -1.2994  3.5879  0.3049
  163SAPE  C21618245   6.166   0.801   4.240 -0.6728  0.0087 -0.2597
  163SAPE  H16R18246   6.190   0.831   4.136  3.6014  0.2587  0.5995
  163SAPE  H16S18247   6.223   0.707   4.253 -0.1043  0.2545 -0.9244
  163SAPE  C21718248   6.231   0.897   4.340 -0.2324 -0.7412 -0.4278
  163SAPE  H17R18249   6.187   0.999   4.331 -1.1197 -1.2234 -1.7784
  163SAPE  H17S18250   6.338   0.925   4.325 -0.5150  0.9619  0.5241
  163SAPE  C21818251   6.231   0.850   4.490 -0.8538 -0.2948  0.6294
  163SAPE  H18R18252   6.123   0.852   4.519 -0.9041 -0.5170  0.4637
  163SAPE  H18S18253   6.290   0.921   4.551  0.0750 -0.0963 -0.4738
  163SAPE  C21918254   6.273   0.705   4.494 -0.7094  0.0764  0.1223
  163SAPE  H19R18255   6.361   0.687   4.428 -0.1561  0.1756  0.8146
  163SAPE  H19S18256   6.192   0.641   4.453 -0.1686 -1.0531  0.7539
  163SAPE  C22018257   6.317   0.658   4.641 -0.7408  0.1458  0.4288
  163SAPE  H20R18258   6.372   0.735   4.699  1.4751 -1.7897  1.0635
  163SAPE  H20S18259   6.385   0.570   4.635  0.6891  1.2864 -0.6145
  163SAPE  H20T18260   6.231   0.622   4.702 -0.1612  2.0849  2.4826
  163SAPE   C3318261   5.576   1.352   2.693  0.8194  0.0897 -0.2492
  163SAPE   H3X18262   5.473   1.388   2.673  1.2921  0.1312 -2.9540
  163SAPE   H3Y18263   5.640   1.442   2.690  1.0012  0.0618  1.5972
  163SAPE   C3418264   5.583   1.295   2.835 -0.1485 -0.6288  0.2350
  163SAPE   H4X18265   5.690   1.287   2.866  0.3125  2.4297 -0.2752
  163SAPE   H4Y18266   5.538   1.193   2.838 -0.9777 -0.2570  2.9235
  163SAPE   C3518267   5.509   1.388   2.937 -0.2823  0.0461 -0.0825
  163SAPE   H5X18268   5.401   1.395   2.911 -0.6207 -0.3399  1.1867
  163SAPE   H5Y18269   5.555   1.489   2.929  0.0349  0.1451  2.3931
  163SAPE   C3618270   5.528   1.343   3.084  0.3904  0.6328  0.2113
  163SAPE   H6X18271   5.638   1.350   3.100  0.6252 -0.1219 -0.9411
  163SAPE   H6Y18272   5.505   1.235   3.098 -0.4301  0.7934  0.1498
  163SAPE   C3718273   5.447   1.432   3.179 -1.0180 -1.0420  0.1265
  163SAPE   H7X18274   5.343   1.430   3.139 -1.2739  0.7262  0.6010
  163SAPE   H7Y18275   5.483   1.536   3.188  0.2400 -1.5951  2.0264
  163SAPE   C3818276   5.447   1.376   3.321 -0.0105  0.1796 -0.0704
  163SAPE   H8X18277   5.555   1.367   3.346 -0.5383 -0.0013  2.3143
  163SAPE   H8Y18278   5.416   1.271   3.300  0.5321  0.5603 -3.4677
  163SAPE   C3918279   5.371   1.465   3.423  0.2688 -0.5162  0.1272
  163SAPE   H9X18280   5.271   1.482   3.378 -0.1764  1.2469  1.6453
  163SAPE   H9Y18281   5.423   1.562   3.437 -1.1818  0.3621 -0.2882
  163SAPE  C31018282   5.349   1.390   3.553 -0.9130  0.3678 -0.2192
  163SAPE  H10X18283   5.288   1.298   3.543  1.4509 -1.4243  0.7159
  163SAPE  H10Y18284   5.297   1.463   3.618 -0.6475  0.6303 -0.3018
  163SAPE  C31118285   5.481   1.346   3.618 -0.4088 -0.1338  0.3912
  163SAPE  H11X18286   5.545   1.437   3.623 -2.3458  1.2865  0.7026
  163SAPE  H11Y18287   5.528   1.264   3.560 -1.2327  0.2388 -0.8455
  163SAPE  C31218288   5.475   1.290   3.753 -0.7225 -0.5174 -0.2843
  163SAPE  H12X18289   5.579   1.267   3.781  0.6463  2.0437 -2.7373
  163SAPE  H12Y18290   5.412   1.199   3.753 -0.8874 -0.4041 -0.2779
  163SAPE  C31318291   5.416   1.393   3.847  0.4079  0.3238  0.2391
  163SAPE  H13X18292   5.309   1.407   3.821  0.3880 -0.8065 -0.3007
  163SAPE  H13Y18293   5.452   1.497   3.828  0.2908  0.4737  0.8186
  163SAPE  C31418294   5.414   1.353   3.997 -0.0958  0.3958  0.0246
  163SAPE  H14X18295   5.513   1.309   4.019 -0.2253  0.2974  0.4157
  163SAPE  H14Y18296   5.339   1.271   4.008  0.5189 -0.4236 -1.6397
  163SAPE  C31518297   5.397   1.466   4.096  0.0569 -0.6199 -0.5461
  163SAPE  H15X18298   5.363   1.431   4.195  2.9762  0.2876  0.8967
  163SAPE  H15Y18299   5.317   1.537   4.066  2.1287  1.5620 -1.2220
  163SAPE  C31618300   5.536   1.540   4.109 -0.0536 -0.6237 -0.1789
  163SAPE  H16X18301   5.561   1.591   4.013 -0.0664  1.2836  0.7873
  163SAPE  H16Y18302   5.620   1.470   4.125  1.6143  1.1909 -0.6494
  163SAPE  C31718303   5.537   1.642   4.225 -0.2700 -1.0469  0.4264
  163SAPE  H17X18304   5.473   1.725   4.186  1.9559 -0.8874 -3.3654
  163SAPE  H17Y18305   5.634   1.695   4.224 -0.6070 -0.4076  0.7123
  163SAPE  C31818306   5.490   1.612   4.363  0.7415  0.0583 -0.1701
  163SAPE  H18X18307   5.385   1.577   4.356  1.5682 -2.6184 -0.6716
  163SAPE  H18Y18308   5.487   1.708   4.417  0.0972  0.9075 -1.6530
  163SAPE  H18Z18309   5.549   1.534   4.415 -0.2480  0.1632  1.1542
  164SAPE     N18310   2.579   6.426   2.506 -0.3326 -0.2847 -0.1720
  164SAPE   HN118311   2.570   6.483   2.593  0.3126  2.3804 -1.7199
  164SAPE   HN218312   2.680   6.436   2.484 -0.1285 -0.6755  0.5361
  164SAPE   HN318313   2.526   6.478   2.433  0.4495  0.9210  0.0852
  164SAPE   C1218314   2.534   6.282   2.510  0.1100 -0.7535  0.3944
  164SAPE  H12A18315   2.606   6.230   2.576 -1.0540 -2.0445  0.7077
  164SAPE  H12B18316   2.543   6.250   2.404 -0.3525  3.5813 -1.1435
  164SAPE   C1118317   2.390   6.270   2.569  0.9289 -1.6001  0.2143
  164SAPE  H11A18318   2.348   6.172   2.538  0.6412 -1.3857 -0.0740
  164SAPE  H11B18319   2.328   6.345   2.515  0.7928 -2.1460 -0.4013
  164SAPE     P18320   2.408   6.214   2.820  0.0984  0.1672  0.2817
  164SAPE   O1318321   2.544   6.156   2.830  1.1454  0.2130 -0.7992
  164SAPE   O1418322   2.365   6.286   2.942  0.0448 -0.4933  0.2678
  164SAPE   O1218323   2.382   6.306   2.701  0.4137 -0.0787 -0.8306
  164SAPE   O1118324   2.305   6.097   2.802  0.4441 -0.2224  0.1517
  164SAPE    C118325   2.172   6.114   2.763 -0.0933 -0.0156 -0.5211
  164SAPE    HA18326   2.161   6.171   2.668 -0.3180  0.8146 -0.0095
  164SAPE    HB18327   2.128   6.014   2.742  1.1810 -0.7280  0.1222
  164SAPE    C218328   2.082   6.182   2.872  0.1817 -0.3697 -0.3790
  164SAPE    HS18329   2.106   6.289   2.887  0.2664 -0.5971  1.4468
  164SAPE   O2118330   2.088   6.091   2.993  0.5194  0.8901 -0.4690
  164SAPE   C2118331   2.069   6.160   3.108 -0.0579  0.4125  0.0856
  164SAPE   O2218332   2.061   6.281   3.114 -0.8934 -0.8098  0.5383
  164SAPE   C2218333   2.042   6.064   3.224 -0.2017 -0.3101  0.5041
  164SAPE   H2R18334   1.968   5.992   3.184  0.9317 -0.8449 -0.6804
  164SAPE   H2S18335   2.141   6.026   3.256 -0.4712 -1.3098  0.1848
  164SAPE    C318336   1.937   6.174   2.815 -0.2460  0.1151  0.2365
  164SAPE    HX18337   1.936   6.067   2.786  2.0993 -1.3095  4.5690
  164SAPE    HY18338   1.932   6.216   2.712  1.4305 -0.1179  0.0289
  164SAPE   O3118339   1.830   6.224   2.896  0.4868 -0.4179  0.1552
  164SAPE   C3118340   1.796   6.353   2.882 -0.0770  0.6328  0.0874
  164SAPE   O3218341   1.850   6.436   2.806  0.7197 -0.3629 -0.2593
  164SAPE   C3218342   1.679   6.376   2.986  0.8105 -0.2193 -0.5528
  164SAPE   H2X18343   1.714   6.364   3.091  0.7700  1.2196 -0.3581
  164SAPE   H2Y18344   1.602   6.300   2.961  3.0266 -1.9500 -2.5677
  164SAPE   C2318345   1.953   6.124   3.329 -0.0605 -0.3301  0.1043
  164SAPE   H3R18346   1.920   6.038   3.391 -1.5694  0.1474  0.0118
  164SAPE   H3S18347   1.859   6.168   3.289  0.3027 -0.8071 -1.3199
  164SAPE   C2418348   2.017   6.219   3.439  0.2189 -0.0897  0.6957
  164SAPE   H4R18349   1.946   6.230   3.524  0.3829  0.7372  0.7289
  164SAPE   H4S18350   2.016   6.323   3.400 -2.2482 -0.6299 -0.9527
  164SAPE   C2518351   2.150   6.177   3.479  0.3396  0.1910  0.4593
  164SAPE   H5R18352   2.220   6.207   3.400 -1.4294  1.6183 -0.6447
  164SAPE   C2618353   2.195   6.109   3.589  0.0695  0.2907  0.6531
  164SAPE   H6R18354   2.303   6.100   3.604 -0.1078 -2.4459  0.9560
  164SAPE   C2718355   2.118   6.049   3.710  0.1548 -0.0605  0.1835
  164SAPE   H7R18356   2.009   6.063   3.699 -0.1304 -3.1977 -2.3544
  164SAPE   H7S18357   2.154   6.097   3.803  1.7642 -1.0762  0.1274
  164SAPE   C2818358   2.142   5.903   3.737  0.1204  0.5450 -0.2393
  164SAPE   H8R18359   2.118   5.839   3.651 -2.9025 -0.1555  1.0134
  164SAPE   C2918360   2.201   5.843   3.840  0.0621  0.0747 -0.1015
  164SAPE   H9R18361   2.196   5.734   3.847 -4.1384  0.2174  2.8461
  164SAPE  C21018362   2.255   5.918   3.967 -0.4067 -0.3284  0.0274
  164SAPE  H10R18363   2.173   5.981   4.009  1.3266  1.4274  0.9474
  164SAPE  H10S18364   2.314   6.004   3.929 -1.3900  0.0163 -0.7616
  164SAPE  C21118365   2.336   5.833   4.063  0.7770  0.8530 -0.5801
  164SAPE  H11R18366   2.279   5.748   4.104 -0.8538  0.9763 -2.4446
  164SAPE  C21218367   2.469   5.828   4.085 -0.1517 -0.7794 -0.2393
  164SAPE  H12R18368   2.501   5.760   4.165 -0.2089  1.2930  1.6391
  164SAPE  C21318369   2.569   5.922   4.017  0.5356  0.7542  0.2266
  164SAPE  H13R18370   2.543   6.027   4.042 -1.3894  0.6697 -1.1858
  164SAPE  H13S18371   2.565   5.912   3.906  2.2287 -0.1267  0.2065
  164SAPE  C21418372   2.717   5.897   4.055  0.8012 -0.4770 -0.1638
  164SAPE  H14R18373   2.789   5.878   3.974  2.9795  1.8863  1.0610
  164SAPE  C21518374   2.770   5.894   4.179 -0.7429  0.3642 -0.5100
  164SAPE  H15R18375   2.876   5.877   4.202 -1.2836 -0.2360  1.7638
  164SAPE  C21618376   2.696   5.913   4.308  0.0609  0.5888  0.0762
  164SAPE  H16R18377   2.698   5.832   4.383  0.7333  3.2347  3.1406
  164SAPE  H16S18378   2.590   5.928   4.278  0.0090  0.5467  0.2372
  164SAPE  C21718379   2.757   6.029   4.393  0.2765 -0.2484 -0.1484
  164SAPE  H17R18380   2.745   6.118   4.327  2.4813  0.1758 -0.0633
  164SAPE  H17S18381   2.862   6.011   4.425 -0.3682 -0.6079  1.8784
  164SAPE  C21818382   2.671   6.049   4.523 -0.3542 -0.1629  0.0815
  164SAPE  H18R18383   2.690   5.961   4.588  0.3769 -0.7920 -0.9685
  164SAPE  H18S18384   2.565   6.047   4.490 -0.0224 -1.7656 -0.9630
  164SAPE  C21918385   2.697   6.183   4.576  0.1133  0.1339  0.0248
  164SAPE  H19R18386   2.668   6.260   4.501  2.7960 -1.2224 -2.5837
  164SAPE  H19S18387   2.806   6.191   4.594  0.0532  1.3743 -0.0657
  164SAPE  C22018388   2.638   6.201   4.719  0.2817  0.1836  1.4375
  164SAPE  H20R18389   2.689   6.125   4.781  0.6918 -0.9125 -0.1574
  164SAPE  H20S18390   2.528   6.185   4.707  0.6603 -1.3403 -0.6030
  164SAPE  H20T18391   2.658   6.307   4.746  0.5432  1.3243 -2.5597
  164SAPE   C3318392   1.618   6.517   2.978  0.1561 -0.2862  0.1756
  164SAPE   H3X18393   1.523   6.517   3.035  0.4299  1.1585  0.6760
  164SAPE   H3Y18394   1.591   6.539   2.872 -0.1415  0.0114  0.3104
  164SAPE   C3418395   1.709   6.635   3.024 -0.3874  0.1259 -0.5855
  164SAPE   H4X18396   1.653   6.730   3.017  0.6018  0.6626 -1.3881
  164SAPE   H4Y18397   1.793   6.645   2.951  0.0914 -0.3861 -0.1143
  164SAPE   C3518398   1.758   6.626   3.171 -0.3332 -0.1269 -1.0799
  164SAPE   H5X18399   1.820   6.713   3.200 -0.7827 -0.1978  0.1589
  164SAPE   H5Y18400   1.817   6.532   3.179 -0.5106 -0.1619 -0.0473
  164SAPE   C3618401   1.642   6.618   3.279  0.7226 -0.1316  0.3620
  164SAPE   H6X18402   1.557   6.556   3.244 -0.2111  0.7945  0.9307
  164SAPE   H6Y18403   1.599   6.720   3.285  3.3909  1.1308 -0.4998
  164SAPE   C3718404   1.700   6.578   3.412 -0.1762  1.0891 -0.4417
  164SAPE   H7X18405   1.776   6.651   3.446 -0.5050  0.9972  0.5224
  164SAPE   H7Y18406   1.754   6.485   3.385  0.3079  0.8532  1.1941
  164SAPE   C3818407   1.589   6.561   3.519  0.1393  0.0349  0.7450
  164SAPE   H8X18408   1.514   6.485   3.490  0.4316  0.1097 -0.2463
  164SAPE   H8Y18409   1.527   6.654   3.518 -1.4201 -0.9817  0.3821
  164SAPE   C3918410   1.639   6.539   3.661  0.1343  0.0518 -1.0898
  164SAPE   H9X18411   1.554   6.537   3.732  1.1930 -0.0947  0.2190
  164SAPE   H9Y18412   1.707   6.625   3.679  0.7334 -0.4550 -0.8750
  164SAPE  C31018413   1.728   6.414   3.674  0.1824  0.6297 -0.2870
  164SAPE  H10X18414   1.821   6.430   3.615  0.9270  1.9737  1.1566
  164SAPE  H10Y18415   1.680   6.330   3.619  1.1048  1.0796 -1.8386
  164SAPE  C31118416   1.775   6.389   3.822  0.2334 -0.1483  0.4631
  164SAPE  H11X18417   1.693   6.379   3.896  0.4437  1.6698  0.9886
  164SAPE  H11Y18418   1.829   6.476   3.864 -0.2776 -0.5715  2.0365
  164SAPE  C31218419   1.876   6.272   3.824 -0.3376 -0.6663 -0.2231
  164SAPE  H12X18420   1.953   6.298   3.748 -1.9625  1.9082 -1.0958
  164SAPE  H12Y18421   1.808   6.188   3.799 -1.3877  0.8508 -2.8311
  164SAPE  C31318422   1.945   6.258   3.959 -0.4046 -0.1727  0.1674
  164SAPE  H13X18423   2.002   6.352   3.973  0.4272 -0.7554  0.8010
  164SAPE  H13Y18424   2.006   6.165   3.957  0.7518  0.5332  1.2600
  164SAPE  C31418425   1.842   6.245   4.073 -0.1401  0.0501  0.2351
  164SAPE  H14X18426   1.765   6.165   4.066 -1.7714  1.6469 -0.8767
  164SAPE  H14Y18427   1.790   6.341   4.094 -1.0569 -0.2727 -0.4810
  164SAPE  C31518428   1.917   6.216   4.202  0.4794 -0.0740 -0.1138
  164SAPE  H15X18429   2.013   6.272   4.209  0.2921  0.2355  0.0004
  164SAPE  H15Y18430   1.937   6.107   4.190  0.8781 -0.1720  1.3058
  164SAPE  C31618431   1.833   6.239   4.326  0.4963  0.6187  0.8506
  164SAPE  H16X18432   1.798   6.344   4.332  0.3554  0.5928  0.5062
  164SAPE  H16Y18433   1.890   6.207   4.416 -0.5382 -2.8992  0.4160
  164SAPE  C31718434   1.701   6.153   4.321 -0.1475  0.2736  0.2548
  164SAPE  H17X18435   1.722   6.045   4.307 -2.8408 -0.2472 -0.1875
  164SAPE  H17Y18436   1.637   6.188   4.237 -0.7528 -0.3805  0.4419
  164SAPE  C31818437   1.611   6.184   4.443  0.0163 -0.5284  1.0627
  164SAPE  H18X18438   1.513   6.133   4.440  0.0885 -0.6823 -2.2020
  164SAPE  H18Y18439   1.600   6.294   4.437  1.8041 -0.3653 -0.4842
  164SAPE  H18Z18440   1.660   6.145   4.535  1.5817 -0.8682  0.1203
  165SAPE     N18441   0.197   6.750   1.941  0.2770 -0.5244 -0.2940
  165SAPE   HN118442   0.131   6.683   1.897  0.7604  0.0959 -2.0477
  165SAPE   HN218443   0.265   6.783   1.869  1.8759  0.2435  1.4786
  165SAPE   HN318444   0.253   6.699   2.011 -0.4030  0.3319  0.9168
  165SAPE   C1218445   0.116   6.855   2.018  0.3040 -0.4920  0.1894
  165SAPE  H12A18446   0.013   6.862   1.978 -0.4334 -0.0230  2.0786
  165SAPE  H12B18447   0.167   6.952   2.000 -2.0434  0.4455 -2.0936
  165SAPE   C1118448   0.115   6.835   2.172  0.1623 -0.1385 -0.0077
  165SAPE  H11A18449   0.032   6.764   2.197 -2.4554  1.7431 -2.6489
  165SAPE  H11B18450   0.085   6.926   2.228  0.6122 -0.5019  0.8569
  165SAPE     P18451   0.279   6.657   2.265  0.1173 -0.0425 -0.4628
  165SAPE   O1318452   0.263   6.570   2.149 -0.3285  0.4358  0.6825
  165SAPE   O1418453   0.410   6.650   2.337  0.5459  0.2862  0.7737
  165SAPE   O1218454   0.244   6.807   2.224 -0.2468  0.1290  0.5961
  165SAPE   O1118455   0.168   6.615   2.362  0.5039 -0.1992 -0.1700
  165SAPE    C118456   0.134   6.687   2.476 -0.7356  0.0591 -0.9013
  165SAPE    HA18457   0.220   6.749   2.509  1.3498 -2.6340 -0.8702
  165SAPE    HB18458   0.041   6.746   2.463 -0.6946 -0.2614 -2.8660
  165SAPE    C218459   0.110   6.583   2.597 -1.2188 -0.3122 -0.1205
  165SAPE    HS18460   0.183   6.500   2.586 -0.3289  0.1169  2.0203
  165SAPE   O2118461  -0.021   6.534   2.593 -0.1479 -0.4183  0.3307
  165SAPE   C2118462  -0.046   6.431   2.523 -0.2197  0.0977  0.2708
  165SAPE   O2218463   0.029   6.370   2.447  0.2388 -0.1674  0.2536
  165SAPE   C2218464  -0.194   6.393   2.543 -0.4756 -0.4220 -0.1157
  165SAPE   H2R18465  -0.268   6.468   2.578 -0.2900 -0.9176  1.4192
  165SAPE   H2S18466  -0.223   6.360   2.441  2.4566 -2.0722 -0.5294
  165SAPE    C318467   0.132   6.661   2.737 -0.1432 -0.4173 -0.6353
  165SAPE    HX18468   0.049   6.735   2.737  0.4672  0.2835 -0.3649
  165SAPE    HY18469   0.228   6.716   2.747  0.0696 -0.8193 -0.4413
  165SAPE   O3118470   0.113   6.572   2.852 -0.0234  0.1714 -0.6132
  165SAPE   C3118471   0.210   6.504   2.894  0.4449  0.3958  0.1382
  165SAPE   O3218472   0.325   6.514   2.851  0.2505  0.2451 -0.1217
  165SAPE   C3218473   0.171   6.391   2.984 -0.1684  0.2361  0.2060
  165SAPE   H2X18474   0.149   6.303   2.920  1.9150 -0.0618 -0.1688
  165SAPE   H2Y18475   0.075   6.421   3.030 -0.0315  0.0837  0.6043
  165SAPE   C2318476  -0.198   6.268   2.622  0.1813 -0.9370  0.9827
  165SAPE   H3R18477  -0.133   6.186   2.584 -0.6873 -0.8442 -0.8014
  165SAPE   H3S18478  -0.297   6.225   2.597  0.2529  0.8352 -3.2776
  165SAPE   C2418479  -0.152   6.287   2.766  0.4920 -0.0013 -0.2399
  165SAPE   H4R18480  -0.058   6.347   2.774  0.1346  0.7191 -1.1386
  165SAPE   H4S18481  -0.120   6.186   2.797 -0.9286 -0.7499 -1.1219
  165SAPE   C2518482  -0.258   6.343   2.850  0.2017  0.8286  0.1513
  165SAPE   H5R18483  -0.299   6.437   2.813  1.7874  1.0227 -1.2472
  165SAPE   C2618484  -0.310   6.287   2.959  0.3365  0.4071 -0.2827
  165SAPE   H6R18485  -0.400   6.324   3.010  1.0862 -0.8329  2.1137
  165SAPE   C2718486  -0.276   6.151   3.010 -0.1995  0.6549  0.1144
  165SAPE   H7R18487  -0.175   6.161   3.056 -0.7078 -1.3092  1.7962
  165SAPE   H7S18488  -0.263   6.073   2.931 -1.5556  0.3728  0.1477
  165SAPE   C2818489  -0.374   6.105   3.113 -0.0923 -0.2192  0.2591
  165SAPE   H8R18490  -0.459   6.053   3.067 -1.4971  0.9786  1.3797
  165SAPE   C2918491  -0.366   6.098   3.247  0.6800 -0.1412  0.0392
  165SAPE   H9R18492  -0.456   6.056   3.294 -0.8205  0.9269 -1.7737
  165SAPE  C21018493  -0.258   6.150   3.339  0.5537 -0.9757  0.7082
  165SAPE  H10R18494  -0.318   6.211   3.409  0.6622 -1.9810  1.7237
  165SAPE  H10S18495  -0.195   6.209   3.270  0.7306 -0.1475  1.5632
  165SAPE  C21118496  -0.170   6.046   3.397  0.4149  0.8889  0.3019
  165SAPE  H11R18497  -0.070   6.036   3.353 -0.3404 -0.0406 -1.2655
  165SAPE  C21218498  -0.201   5.970   3.508  0.1796  0.4139  0.6480
  165SAPE  H12R18499  -0.125   5.900   3.546  0.0772 -0.9054 -1.4624
  165SAPE  C21318500  -0.324   6.000   3.590  0.5191 -0.0149 -0.0030
  165SAPE  H13R18501  -0.405   6.013   3.515 -1.5738  0.4515  2.1856
  165SAPE  H13S18502  -0.316   6.100   3.638  1.2429 -1.0184  2.1031
  165SAPE  C21418503  -0.353   5.885   3.686 -0.5857  0.3216 -0.5058
  165SAPE  H14R18504  -0.320   5.784   3.658 -0.5300  0.5130 -1.1441
  165SAPE  C21518505  -0.401   5.900   3.812  0.5389 -0.2046  0.5057
  165SAPE  H15R18506  -0.438   5.812   3.867 -0.2641 -1.1925 -1.5315
  165SAPE  C21618507  -0.462   6.024   3.872  0.7162  0.1786  0.2912
  165SAPE  H16R18508  -0.545   5.991   3.939 -0.0509  0.9867 -0.2303
  165SAPE  H16S18509  -0.516   6.080   3.793  0.5215 -1.8471 -1.0989
  165SAPE  C21718510  -0.357   6.114   3.928 -0.0706  1.4913  0.1811
  165SAPE  H17R18511  -0.302   6.159   3.842 -1.3267  2.5998 -0.0636
  165SAPE  H17S18512  -0.296   6.050   3.996 -1.4734  1.2174  1.2119
  165SAPE  C21818513  -0.416   6.228   4.010  0.4646 -0.1210 -0.9926
  165SAPE  H18R18514  -0.478   6.176   4.086 -1.8921  0.2225 -2.5738
  165SAPE  H18S18515  -0.487   6.292   3.953  0.1702  1.7473  1.3192
  165SAPE  C21918516  -0.307   6.322   4.067 -0.9239  0.9688 -0.0421
  165SAPE  H19R18517  -0.249   6.367   3.983  1.3832  0.3582  1.1482
  165SAPE  H19S18518  -0.237   6.259   4.126 -2.6654  0.4355  1.5525
  165SAPE  C22018519  -0.364   6.435   4.159  0.4976  0.2105 -0.2570
  165SAPE  H20R18520  -0.397   6.389   4.255 -0.3757  0.6411 -0.3450
  165SAPE  H20S18521  -0.459   6.474   4.118  0.5168  0.5551  0.0208
  165SAPE  H20T18522  -0.287   6.514   4.173  0.1620  0.3398  1.0481
  165SAPE   C3318523   0.279   6.350   3.087 -0.3405 -0.0688 -0.2869
  165SAPE   H3X18524   0.384   6.368   3.055 -0.6874  2.2172 -0.3074
  165SAPE   H3Y18525   0.261   6.244   3.112 -0.4915 -0.4532 -1.8988
  165SAPE   C3418526   0.265   6.431   3.218  0.4940 -0.6410 -0.1546
  165SAPE   H4X18527   0.160   6.419   3.253  0.3922 -2.8886 -1.0651
  165SAPE   H4Y18528   0.277   6.536   3.183 -1.7245 -0.5179 -0.7135
  165SAPE   C3518529   0.369   6.385   3.328  0.6156  0.3558  0.4352
  165SAPE   H5X18530   0.464   6.378   3.271 -1.5246  1.1496 -3.6761
  165SAPE   H5Y18531   0.342   6.281   3.356 -1.4220  0.6457 -0.2383
  165SAPE   C3618532   0.377   6.476   3.445 -0.2562 -0.1615 -0.0735
  165SAPE   H6X18533   0.278   6.495   3.493 -0.0097  0.6470  0.1310
  165SAPE   H6Y18534   0.422   6.571   3.410 -0.1102  1.0239  2.9697
  165SAPE   C3718535   0.475   6.430   3.542 -0.1829  0.0747 -1.0260
  165SAPE   H7X18536   0.579   6.436   3.503 -0.4165  1.5790 -1.4709
  165SAPE   H7Y18537   0.452   6.330   3.585  1.2489 -0.2928 -1.0848
  165SAPE   C3818538   0.505   6.533   3.661  0.6221 -0.5595  0.9663
  165SAPE   H8X18539   0.418   6.557   3.725  0.8963 -1.2984  1.6241
  165SAPE   H8Y18540   0.540   6.630   3.618  1.1404 -1.3961 -0.5895
  165SAPE   C3918541   0.623   6.489   3.746 -0.2905  0.3416  0.1015
  165SAPE   H9X18542   0.706   6.451   3.683 -1.1365  1.0424 -1.4985
  165SAPE   H9Y18543   0.594   6.419   3.826 -1.1088  2.2098  1.5306
  165SAPE  C31018544   0.672   6.611   3.808  0.5257  0.1171 -0.1444
  165SAPE  H10X18545   0.590   6.683   3.828  0.5124  0.8045 -2.4059
  165SAPE  H10Y18546   0.734   6.671   3.738  0.3841  0.9538  0.4264
  165SAPE  C31118547   0.754   6.579   3.936 -0.2859 -0.1144 -0.2465
  165SAPE  H11X18548   0.823   6.497   3.905  2.3032  1.8700 -0.1257
  165SAPE  H11Y18549   0.689   6.546   4.020  1.7359 -0.0476  1.4381
  165SAPE  C31218550   0.842   6.698   3.976  0.0393  0.4290 -0.0616
  165SAPE  H12X18551   0.762   6.768   4.009 -0.5035 -0.3204  0.2412
  165SAPE  H12Y18552   0.900   6.744   3.892  1.4368  1.6417  1.4967
  165SAPE  C31318553   0.933   6.655   4.091 -0.0892 -0.2302 -0.6260
  165SAPE  H13X18554   0.875   6.599   4.167  1.5260 -1.2230 -0.0543
  165SAPE  H13Y18555   0.964   6.750   4.140  0.8163 -0.7916 -0.0833
  165SAPE  C31418556   1.058   6.582   4.042 -0.3236 -0.4901 -0.2432
  165SAPE  H14X18557   1.084   6.601   3.936 -0.2737 -0.7969 -0.2878
  165SAPE  H14Y18558   1.039   6.473   4.044 -0.3883 -0.4882 -0.6644
  165SAPE  C31518559   1.189   6.612   4.125 -0.3841 -0.3616  0.8002
  165SAPE  H15X18560   1.184   6.607   4.235  1.1651 -2.2252  0.8259
  165SAPE  H15Y18561   1.213   6.717   4.100  2.9294 -0.9575  1.0628
  165SAPE  C31618562   1.310   6.532   4.077 -0.0727 -0.0294  0.1341
  165SAPE  H16X18563   1.347   6.558   3.975 -1.3980  1.2639 -0.0645
  165SAPE  H16Y18564   1.288   6.424   4.075 -0.4530  0.0312  0.9881
  165SAPE  C31718565   1.430   6.551   4.172 -0.3621 -0.4259  0.0058
  165SAPE  H17X18566   1.465   6.654   4.193  1.1565 -0.8165 -0.4683
  165SAPE  H17Y18567   1.517   6.504   4.122 -0.1577 -1.3464  1.2009
  165SAPE  C31818568   1.408   6.475   4.309 -0.0271 -0.5349 -0.1183
  165SAPE  H18X18569   1.313   6.512   4.353  0.6823  1.8376 -0.4447
  165SAPE  H18Y18570   1.480   6.501   4.388  1.6155  1.6929 -2.2061
  165SAPE  H18Z18571   1.412   6.365   4.288  0.3353 -0.6961  0.7580
  166SAPE     N18572   0.320   0.434   2.067  0.5748 -0.0714 -0.2288
  166SAPE   HN118573   0.408   0.422   2.012  0.6196  1.1497 -0.4520
  166SAPE   HN218574   0.237   0.405   2.013 -1.3488 -1.0432  2.9452
  166SAPE   HN318575   0.318   0.528   2.112 -1.6091 -0.1067 -0.1837
  166SAPE   C1218576   0.323   0.320   2.167  0.1032 -0.1243  0.9393
  166SAPE  H12A18577   0.417   0.323   2.226  0.7345  0.6377 -0.0749
  166SAPE  H12B18578   0.324   0.237   2.094 -3.0979  0.7122 -0.2316
  166SAPE   C1118579   0.205   0.333   2.257  0.0605 -0.5367  0.4499
  166SAPE  H11A18580   0.216   0.429   2.312 -0.6027  0.1527 -0.5998
  166SAPE  H11B18581   0.204   0.254   2.335 -2.1815  0.7483  1.8534
  166SAPE     P18582  -0.061   0.380   2.239  0.1769 -0.1241 -0.3216
  166SAPE   O1318583  -0.071   0.527   2.239 -0.2725 -0.3042 -0.1580
  166SAPE   O1418584  -0.161   0.295   2.178 -0.4044 -0.3511  0.1746
  166SAPE   O1218585   0.082   0.341   2.184  0.6664 -0.4399 -0.1620
  166SAPE   O1118586  -0.036   0.330   2.385 -0.9981 -0.0729  0.4587
  166SAPE    C118587  -0.078   0.220   2.461  0.2059 -0.2943  0.7865
  166SAPE    HA18588  -0.095   0.127   2.401 -0.8461 -0.2338  0.9696
  166SAPE    HB18589  -0.003   0.208   2.541  0.5695 -1.5011  0.2895
  166SAPE    C218590  -0.211   0.251   2.535  0.6489  0.5642  0.3193
  166SAPE    HS18591  -0.275   0.299   2.458  0.1843 -0.3620  0.1120
  166SAPE   O2118592  -0.183   0.341   2.642  0.5933  0.5038 -0.1358
  166SAPE   C2118593  -0.286   0.398   2.701  0.0328 -0.2436  0.5413
  166SAPE   O2218594  -0.398   0.373   2.670  0.0195 -0.2835 -0.5398
  166SAPE   C2218595  -0.239   0.503   2.793 -0.2237 -0.0462  0.0735
  166SAPE   H2R18596  -0.129   0.512   2.788 -0.1925 -0.7879 -0.8284
  166SAPE   H2S18597  -0.277   0.605   2.771 -1.6407 -0.5721 -0.0327
  166SAPE    C318598  -0.277   0.119   2.582  0.2018 -0.5400  0.6518
  166SAPE    HX18599  -0.288   0.050   2.495 -1.4873  0.6926 -0.1873
  166SAPE    HY18600  -0.377   0.146   2.622 -0.0974  1.3063 -1.1670
  166SAPE   O3118601  -0.204   0.051   2.685 -0.1741  0.3492  0.0269
  166SAPE   C3118602  -0.271  -0.058   2.729 -0.1937 -0.5954  0.2496
  166SAPE   O3218603  -0.374  -0.101   2.689  0.1083 -0.9734 -0.0134
  166SAPE   C3218604  -0.195  -0.110   2.850  0.2889 -0.2160  0.1810
  166SAPE   H2X18605  -0.107  -0.047   2.873  0.0614  0.6783 -1.2564
  166SAPE   H2Y18606  -0.139  -0.202   2.822  1.6810 -0.1360  2.4779
  166SAPE   C2318607  -0.295   0.460   2.939 -0.3076 -0.5122  0.8984
  166SAPE   H3R18608  -0.405   0.463   2.927 -0.0665 -0.1975 -1.6526
  166SAPE   H3S18609  -0.282   0.536   3.020 -0.2551 -1.0216  1.3762
  166SAPE   C2418610  -0.256   0.324   2.997 -0.5490  0.2543 -0.3067
  166SAPE   H4R18611  -0.281   0.242   2.925  2.3090 -0.5817 -0.4895
  166SAPE   H4S18612  -0.320   0.323   3.087 -1.3838 -2.3405 -0.8333
  166SAPE   C2518613  -0.115   0.295   3.027 -0.3552  0.2183 -0.5466
  166SAPE   H5R18614  -0.043   0.285   2.944 -0.8655  1.5071 -1.1677
  166SAPE   C2618615  -0.062   0.256   3.152 -0.2361 -0.5180  0.4238
  166SAPE   H6R18616   0.041   0.218   3.160 -0.8203 -1.7328  3.5583
  166SAPE   C2718617  -0.131   0.231   3.282  0.5621  0.8479  0.4386
  166SAPE   H7R18618  -0.119   0.125   3.312  1.3018  0.9022  0.3654
  166SAPE   H7S18619  -0.240   0.237   3.262  0.7755  2.2249 -0.5473
  166SAPE   C2818620  -0.090   0.319   3.394  0.3290 -0.4890 -0.0564
  166SAPE   H8R18621  -0.064   0.423   3.372 -0.2709  0.1105  1.8313
  166SAPE   C2918622  -0.106   0.282   3.526 -0.0385 -0.2410  0.1111
  166SAPE   H9R18623  -0.091   0.363   3.599 -0.3548 -0.7555  0.7558
  166SAPE  C21018624  -0.158   0.146   3.584  0.4790 -1.2394  0.3899
  166SAPE  H10R18625  -0.131   0.139   3.692 -0.6565 -0.4714  0.7434
  166SAPE  H10S18626  -0.093   0.069   3.536  0.7553 -0.5361 -0.3947
  166SAPE  C21118627  -0.311   0.112   3.570 -0.1562  0.2871 -0.4506
  166SAPE  H11R18628  -0.362   0.157   3.484 -0.8137  2.6530  1.0487
  166SAPE  C21218629  -0.379   0.024   3.648  0.0350  0.0261  0.5011
  166SAPE  H12R18630  -0.485   0.000   3.628  0.6380 -4.4736  1.5212
  166SAPE  C21318631  -0.329  -0.053   3.769 -0.2985 -0.6069 -0.3435
  166SAPE  H13R18632  -0.346   0.013   3.857  0.7411  0.6237 -1.0311
  166SAPE  H13S18633  -0.220  -0.075   3.774 -0.1970 -0.2657 -0.8585
  166SAPE  C21418634  -0.406  -0.178   3.785 -0.6423  1.0393  0.1723
  166SAPE  H14R18635  -0.345  -0.257   3.739  0.0130  0.3592  2.0916
  166SAPE  C21518636  -0.529  -0.196   3.831 -0.2687  0.0607  0.0152
  166SAPE  H15R18637  -0.572  -0.297   3.833 -0.9009  0.2363 -2.2223
  166SAPE  C21618638  -0.620  -0.088   3.881  0.0534  0.5142 -0.3559
  166SAPE  H16R18639  -0.715  -0.095   3.824  1.1971 -1.2927 -2.1527
  166SAPE  H16S18640  -0.590   0.017   3.861 -2.0067  1.1964 -0.0953
  166SAPE  C21718641  -0.660  -0.105   4.031  0.3120  0.5260  0.2761
  166SAPE  H17R18642  -0.586  -0.068   4.105 -0.1553  2.4369 -0.1510
  166SAPE  H17S18643  -0.663  -0.215   4.049 -1.0666  0.4478 -0.3349
  166SAPE  C21818644  -0.804  -0.056   4.045 -0.4883  0.3485  0.3289
  166SAPE  H18R18645  -0.866  -0.123   3.982 -0.4205  1.4141 -0.9075
  166SAPE  H18S18646  -0.807   0.050   4.011 -1.6903  2.2099  5.2700
  166SAPE  C21918647  -0.846  -0.053   4.195 -0.2004  0.4632 -0.7823
  166SAPE  H19R18648  -0.774   0.017   4.242 -0.0186 -0.0679 -0.2588
  166SAPE  H19S18649  -0.820  -0.153   4.237 -0.4500  1.1222  1.0259
  166SAPE  C22018650  -0.991  -0.028   4.217  0.1435 -0.1092  0.1775
  166SAPE  H20R18651  -1.017   0.079   4.203 -0.0455 -0.3853 -1.8804
  166SAPE  H20S18652  -1.024  -0.064   4.317  0.5158  1.4182  0.8874
  166SAPE  H20T18653  -1.061  -0.083   4.151 -3.2407  2.7617  1.0058
  166SAPE   C3318654  -0.285  -0.135   2.972  0.2018  0.1543 -0.5499
  166SAPE   H3X18655  -0.368  -0.195   2.930 -0.0521  0.4834 -0.5211
  166SAPE   H3Y18656  -0.323  -0.039   3.013  1.5154 -0.0057  1.1643
  166SAPE   C3418657  -0.200  -0.201   3.091  0.0029  0.0406  1.1044
  166SAPE   H4X18658  -0.108  -0.140   3.101  0.1016 -0.0459  0.7375
  166SAPE   H4Y18659  -0.170  -0.300   3.051  3.2631  1.8560 -1.5139
  166SAPE   C3518660  -0.299  -0.209   3.210 -0.1212 -0.9161 -0.2697
  166SAPE   H5X18661  -0.385  -0.273   3.180  0.3883 -1.6894 -0.1111
  166SAPE   H5Y18662  -0.326  -0.108   3.248 -0.1589 -1.3046  0.7671
  166SAPE   C3618663  -0.232  -0.275   3.328  0.0353 -0.5012 -0.3196
  166SAPE   H6X18664  -0.199  -0.373   3.289  1.0646 -0.7222  1.0265
  166SAPE   H6Y18665  -0.310  -0.276   3.407 -0.3266  1.4038 -0.5996
  166SAPE   C3718666  -0.111  -0.208   3.399  0.0374  0.5836 -0.7164
  166SAPE   H7X18667  -0.124  -0.098   3.407 -3.8351  0.3156 -1.5383
  166SAPE   H7Y18668  -0.020  -0.208   3.334  0.3076  0.1205 -0.3444
  166SAPE   C3818669  -0.088  -0.264   3.543  0.5107  0.1226 -0.2119
  166SAPE   H8X18670  -0.184  -0.243   3.595 -0.1253 -1.7201 -0.5919
  166SAPE   H8Y18671  -0.001  -0.215   3.593  1.7386 -2.2251  0.0757
  166SAPE   C3918672  -0.048  -0.418   3.547  0.4896  1.0107  0.5314
  166SAPE   H9X18673   0.043  -0.434   3.486  0.7974  1.6020  0.8278
  166SAPE   H9Y18674  -0.128  -0.474   3.495  1.4333  0.1458 -0.0191
  166SAPE  C31018675  -0.034  -0.480   3.691 -0.3331 -0.4734  0.0059
  166SAPE  H10X18676  -0.047  -0.590   3.681  1.5322 -0.5947 -1.9214
  166SAPE  H10Y18677  -0.125  -0.452   3.749 -0.1566  1.3818 -0.5545
  166SAPE  C31118678   0.085  -0.441   3.765 -0.0496 -0.3457  0.0986
  166SAPE  H11X18679   0.098  -0.330   3.762 -0.9285 -0.2555 -0.9906
  166SAPE  H11Y18680   0.169  -0.493   3.714 -0.8687 -0.6831 -0.9421
  166SAPE  C31218681   0.076  -0.493   3.911  0.7848 -0.6313  0.5795
  166SAPE  H12X18682   0.054  -0.601   3.901 -1.8026 -0.0144 -1.6937
  166SAPE  H12Y18683  -0.023  -0.467   3.953  0.1823 -2.6458  0.4928
  166SAPE  C31318684   0.200  -0.473   3.998 -0.6863  0.3048  0.4030
  166SAPE  H13X18685   0.298  -0.520   3.977 -0.5434  0.0258  1.6034
  166SAPE  H13Y18686   0.170  -0.517   4.095  0.1162  1.0027  0.9902
  166SAPE  C31418687   0.214  -0.329   4.036 -0.3539 -0.7991 -0.3837
  166SAPE  H14X18688   0.118  -0.290   4.076 -0.1473 -1.2306  0.5712
  166SAPE  H14Y18689   0.238  -0.252   3.961 -0.3511  0.4628  0.8687
  166SAPE  C31518690   0.330  -0.313   4.137 -0.4345 -0.3557  0.0916
  166SAPE  H15X18691   0.430  -0.345   4.104 -0.0778 -2.4138  2.7489
  166SAPE  H15Y18692   0.303  -0.381   4.221 -1.6191 -0.5642 -0.4326
  166SAPE  C31618693   0.342  -0.170   4.189  0.4249  0.4706 -0.2850
  166SAPE  H16X18694   0.261  -0.159   4.265  2.2375 -2.0750  2.2239
  166SAPE  H16Y18695   0.321  -0.092   4.113 -0.9134  1.6415  1.1973
  166SAPE  C31718696   0.482  -0.139   4.254 -0.1521  0.1608  0.2398
  166SAPE  H17X18697   0.479  -0.037   4.297 -2.6490 -0.0650  0.7235
  166SAPE  H17Y18698   0.566  -0.133   4.182  2.0297  3.6048  2.7582
  166SAPE  C31818699   0.517  -0.227   4.375  0.1809 -0.5667  0.2510
  166SAPE  H18X18700   0.526  -0.332   4.340 -0.1293  0.4859 -3.3725
  166SAPE  H18Y18701   0.440  -0.236   4.454  0.4049  0.0992  0.5510
  166SAPE  H18Z18702   0.616  -0.192   4.413  0.1638 -1.3741  1.0793
  167SAPE     N18703   1.751   1.469   2.293  0.1475  0.9767 -0.4447
  167SAPE   HN118704   1.762   1.429   2.388  0.9226  0.5264 -0.7131
  167SAPE   HN218705   1.689   1.402   2.243  1.6173 -0.4200 -0.4640
  167SAPE   HN318706   1.840   1.466   2.238 -0.6562  0.7251 -1.7699
  167SAPE   C1218707   1.691   1.602   2.314  0.2840  0.0211  0.0483
  167SAPE  H12A18708   1.639   1.639   2.223 -0.3936  0.5026  0.6223
  167SAPE  H12B18709   1.773   1.671   2.341  1.7776 -0.3458 -3.1532
  167SAPE   C1118710   1.589   1.589   2.435 -0.0682 -0.7482  0.6239
  167SAPE  H11A18711   1.536   1.687   2.445  1.4329  0.0133  1.3625
  167SAPE  H11B18712   1.632   1.569   2.535  0.8176  2.1606  0.9168
  167SAPE     P18713   1.334   1.506   2.397 -0.2047  0.1330  0.2086
  167SAPE   O1318714   1.307   1.623   2.307  0.3065  0.2978 -0.4359
  167SAPE   O1418715   1.272   1.377   2.356  0.4396  0.1861 -0.3463
  167SAPE   O1218716   1.491   1.489   2.399  0.5102  0.1013  0.4085
  167SAPE   O1118717   1.304   1.551   2.537  0.0049  0.0655 -0.4685
  167SAPE    C118718   1.362   1.505   2.655 -0.0115  0.5208 -0.7783
  167SAPE    HA18719   1.468   1.539   2.663  0.6345 -1.5541  0.2421
  167SAPE    HB18720   1.309   1.554   2.740 -1.0634 -1.1820 -0.4082
  167SAPE    C218721   1.360   1.345   2.682  0.1010 -0.5411 -0.1119
  167SAPE    HS18722   1.418   1.302   2.598 -1.9700 -0.3220 -1.7316
  167SAPE   O2118723   1.226   1.300   2.667 -0.1472 -0.2811 -0.3068
  167SAPE   C2118724   1.200   1.161   2.667  0.2572  0.3155  0.3403
  167SAPE   O2218725   1.285   1.075   2.652  0.2370  0.3364  0.2908
  167SAPE   C2218726   1.044   1.141   2.672  0.1563 -0.7053  0.2891
  167SAPE   H2R18727   1.007   1.194   2.581  1.1192 -0.3813  0.0831
  167SAPE   H2S18728   1.012   1.037   2.646 -2.8594  0.9689 -3.9114
  167SAPE    C318729   1.418   1.300   2.817  0.2997 -1.1400  0.0873
  167SAPE    HX18730   1.402   1.190   2.817 -2.6823 -0.7981  1.1411
  167SAPE    HY18731   1.345   1.347   2.887 -0.9721 -1.8613 -0.6988
  167SAPE   O3118732   1.556   1.352   2.827 -0.2550  0.4737 -0.5567
  167SAPE   C3118733   1.611   1.322   2.945 -1.0295  0.3807  0.5559
  167SAPE   O3218734   1.548   1.279   3.038 -0.1995  0.1669 -0.2350
  167SAPE   C3218735   1.761   1.356   2.949  0.1783  0.0095  0.4673
  167SAPE   H2X18736   1.761   1.466   2.931 -2.6095 -0.3127 -2.1661
  167SAPE   H2Y18737   1.820   1.308   2.868  0.3005 -1.9578  1.6504
  167SAPE   C2318738   0.982   1.177   2.811  0.0846  0.6441 -0.0472
  167SAPE   H3R18739   0.876   1.175   2.779 -0.3322 -0.3523  1.3309
  167SAPE   H3S18740   1.006   1.281   2.842  0.9815  0.8078 -1.2027
  167SAPE   C2418741   0.983   1.072   2.924  0.4562 -0.7437 -0.3086
  167SAPE   H4R18742   0.935   0.982   2.880  1.7075 -2.4736  1.6602
  167SAPE   H4S18743   0.916   1.113   3.002  1.6102  0.5787  0.0273
  167SAPE   C2518744   1.123   1.050   2.979 -0.2465  0.3078 -0.6069
  167SAPE   H5R18745   1.170   0.953   2.954  0.6614  0.8744 -1.1515
  167SAPE   C2618746   1.176   1.130   3.075  0.1299  0.4907 -0.7693
  167SAPE   H6R18747   1.273   1.100   3.119  0.9710  1.7979 -1.6658
  167SAPE   C2718748   1.119   1.262   3.117 -0.0909  0.1210  0.9690
  167SAPE   H7R18749   1.040   1.244   3.193 -0.6175 -0.1257  0.3681
  167SAPE   H7S18750   1.068   1.317   3.034  2.5670  3.0414  1.0593
  167SAPE   C2818751   1.223   1.355   3.185 -0.2880 -0.0367  0.1816
  167SAPE   H8R18752   1.307   1.382   3.118 -0.4772  1.2103  0.4183
  167SAPE   C2918753   1.224   1.405   3.306 -0.0229 -0.6877 -0.5597
  167SAPE   H9R18754   1.308   1.472   3.329  0.7264 -1.1302 -1.9010
  167SAPE  C21018755   1.124   1.384   3.422 -0.2003 -0.3014 -0.0791
  167SAPE  H10R18756   1.181   1.396   3.516  0.9389  3.2738 -1.0580
  167SAPE  H10S18757   1.101   1.275   3.423  2.7806 -1.0126  0.8434
  167SAPE  C21118758   0.990   1.459   3.413 -0.0598 -0.1272 -0.1404
  167SAPE  H11R18759   0.947   1.463   3.312 -0.2928 -0.1593 -0.0438
  167SAPE  C21218760   0.941   1.530   3.513  0.3110  0.1133 -0.4717
  167SAPE  H12R18761   0.840   1.574   3.503  0.2587  0.1491  0.2165
  167SAPE  C21318762   1.001   1.555   3.651 -0.4169  0.2405  0.1701
  167SAPE  H13R18763   0.977   1.658   3.687  1.3263  0.4595  0.8244
  167SAPE  H13S18764   1.111   1.555   3.641 -0.5283 -1.9329 -1.5868
  167SAPE  C21418765   0.962   1.445   3.754 -0.1071  0.4617  0.0274
  167SAPE  H14R18766   0.895   1.366   3.718  0.9492 -0.2889 -0.3768
  167SAPE  C21518767   0.985   1.456   3.887  0.2759 -0.4547 -0.0500
  167SAPE  H15R18768   0.952   1.377   3.955  1.0953 -0.7783 -0.0177
  167SAPE  C21618769   1.062   1.563   3.961 -0.0658  0.1562 -0.2538
  167SAPE  H16R18770   1.077   1.652   3.896  1.5049 -0.1354 -0.3214
  167SAPE  H16S18771   1.169   1.543   3.982 -0.4970  0.6151  2.7492
  167SAPE  C21718772   0.984   1.590   4.096  0.2931 -0.4530  0.3802
  167SAPE  H17R18773   0.873   1.585   4.092  0.2994 -0.3907  0.0614
  167SAPE  H17S18774   1.010   1.697   4.114  2.1880 -0.7329 -0.4580
  167SAPE  C21818775   1.037   1.515   4.213 -0.4826 -0.4405  0.0798
  167SAPE  H18R18776   1.133   1.556   4.250 -2.6176  4.1090  1.4069
  167SAPE  H18S18777   1.043   1.409   4.180 -0.8559 -0.3350 -0.3396
  167SAPE  C21918778   0.943   1.518   4.338 -0.1446 -0.0172  0.3031
  167SAPE  H19R18779   0.997   1.450   4.407  1.9576  1.5377  0.3031
  167SAPE  H19S18780   0.842   1.479   4.311  0.5630 -1.1079 -0.9092
  167SAPE  C22018781   0.937   1.657   4.397 -1.1406 -0.3366 -0.1936
  167SAPE  H20R18782   0.883   1.661   4.495  2.7557  3.3824  2.1617
  167SAPE  H20S18783   0.891   1.726   4.323 -0.6011  3.1661  2.4456
  167SAPE  H20T18784   1.042   1.693   4.399  0.3373 -4.2172  0.9709
  167SAPE   C3318785   1.826   1.326   3.084 -0.1724  0.1333  0.1731
  167SAPE   H3X18786   1.887   1.232   3.084  1.0347  0.8949  0.5296
  167SAPE   H3Y18787   1.752   1.327   3.167 -2.5747  2.5415 -1.8026
  167SAPE   C3418788   1.929   1.439   3.128 -0.4323 -0.2493 -0.7621
  167SAPE   H4X18789   1.883   1.539   3.131 -1.5029 -0.6999 -1.5374
  167SAPE   H4Y18790   2.018   1.450   3.062  1.2313  0.4513  1.4960
  167SAPE   C3518791   1.969   1.431   3.275 -0.7075  0.1922 -0.2384
  167SAPE   H5X18792   2.014   1.330   3.286  0.6770  0.6235 -1.5944
  167SAPE   H5Y18793   1.877   1.446   3.336 -1.4489  0.6551 -1.4268
  167SAPE   C3618794   2.078   1.527   3.324 -0.1973  0.4727 -0.7490
  167SAPE   H6X18795   2.039   1.631   3.325  0.1618  0.7519  3.3593
  167SAPE   H6Y18796   2.165   1.500   3.261 -0.8893 -1.0133 -1.1000
  167SAPE   C3718797   2.118   1.494   3.471  0.5688 -0.1880 -0.1162
  167SAPE   H7X18798   2.158   1.391   3.481 -1.2588 -0.9835 -0.4619
  167SAPE   H7Y18799   2.029   1.502   3.537  1.1055 -2.1665  0.9458
  167SAPE   C3818800   2.231   1.592   3.508  0.8921  0.3253 -0.5670
  167SAPE   H8X18801   2.203   1.699   3.506 -1.2386 -0.1800 -0.5123
  167SAPE   H8Y18802   2.317   1.573   3.440  0.3077 -0.6389 -1.0582
  167SAPE   C3918803   2.285   1.576   3.650  0.0733 -0.0250  0.2474
  167SAPE   H9X18804   2.322   1.472   3.659  0.3219  0.2384  4.0370
  167SAPE   H9Y18805   2.201   1.585   3.722  0.0410 -0.3103  0.2443
  167SAPE  C31018806   2.401   1.674   3.674 -0.3397 -0.1790  0.6704
  167SAPE  H10X18807   2.359   1.775   3.690  0.4218 -0.0994  2.2815
  167SAPE  H10Y18808   2.449   1.677   3.573  2.3536 -3.8577  1.6189
  167SAPE  C31118809   2.507   1.631   3.775 -0.2856  0.0463 -0.4461
  167SAPE  H11X18810   2.583   1.711   3.787  0.5069 -0.8297  0.5646
  167SAPE  H11Y18811   2.557   1.538   3.743  1.3572  0.1653  1.5844
  167SAPE  C31218812   2.442   1.607   3.918  0.0336  1.0510  0.3989
  167SAPE  H12X18813   2.347   1.552   3.898  1.7830 -1.5616 -1.3236
  167SAPE  H12Y18814   2.432   1.709   3.961  0.4165  2.8775 -3.3535
  167SAPE  C31318815   2.523   1.508   4.000  0.3845 -0.8704  0.0326
  167SAPE  H13X18816   2.486   1.532   4.102 -0.3966 -0.7559 -0.2706
  167SAPE  H13Y18817   2.632   1.523   3.990  0.4996 -1.6709  0.0932
  167SAPE  C31418818   2.478   1.367   3.975 -0.3255 -0.1039  0.0862
  167SAPE  H14X18819   2.543   1.327   3.894  0.0574 -1.4527  1.0153
  167SAPE  H14Y18820   2.373   1.349   3.942 -0.4883  0.1317  0.4753
  167SAPE  C31518821   2.505   1.285   4.094 -0.6587  0.2146 -0.2253
  167SAPE  H15X18822   2.423   1.290   4.168 -0.3887 -1.2140  0.2137
  167SAPE  H15Y18823   2.599   1.305   4.150  0.4075 -1.3000 -1.3842
  167SAPE  C31618824   2.523   1.132   4.060 -0.0350 -1.0425 -0.7872
  167SAPE  H16X18825   2.610   1.119   3.992  0.7684  3.1159 -0.8491
  167SAPE  H16Y18826   2.432   1.102   4.005 -1.7121  0.4514  0.9875
  167SAPE  C31718827   2.532   1.045   4.180 -0.6968  0.1975 -0.0956
  167SAPE  H17X18828   2.457   1.070   4.258  0.2481 -2.0123  1.6420
  167SAPE  H17Y18829   2.623   1.072   4.236  0.5608 -0.6372 -1.6544
  167SAPE  C31818830   2.533   0.893   4.148 -0.0509  0.7147 -0.3184
  167SAPE  H18X18831   2.626   0.858   4.098 -1.6990 -3.2951 -0.9039
  167SAPE  H18Y18832   2.445   0.869   4.085 -0.0324 -0.8459  0.2245
  167SAPE  H18Z18833   2.528   0.835   4.243  1.9335 -1.0722 -1.2328
  168SAPE     N18834   6.665   1.922   1.848  0.5434 -0.3568  0.1186
  168SAPE   HN118835   6.710   1.828   1.853  1.7353  0.2244  0.7198
  168SAPE   HN218836   6.563   1.914   1.833  0.0708  2.3393  1.4386
  168SAPE   HN318837   6.689   1.965   1.756 -0.2640 -0.7738 -0.2993
  168SAPE   C1218838   6.702   1.996   1.970  0.7556 -0.0291 -0.6267
  168SAPE  H12A18839   6.658   2.098   1.972 -0.0155 -0.2790 -2.6927
  168SAPE  H12B18840   6.812   2.007   1.973  0.9626 -2.0016  0.6577
  168SAPE   C1118841   6.672   1.909   2.092 -0.2498 -0.2124 -0.3627
  168SAPE  H11A18842   6.677   1.982   2.177  2.1383  1.1119 -1.5342
  168SAPE  H11B18843   6.754   1.838   2.115  0.4618  0.8463  0.4957
  168SAPE     P18844   6.526   1.700   2.153 -0.0663 -0.2934 -0.1437
  168SAPE   O1318845   6.392   1.656   2.101 -0.7385 -0.3350 -0.3398
  168SAPE   O1418846   6.644   1.620   2.112 -0.1625 -0.0782 -0.0077
  168SAPE   O1218847   6.539   1.848   2.096  0.2077 -0.1073  0.3253
  168SAPE   O1118848   6.517   1.720   2.306  0.0524 -0.0267  0.2580
  168SAPE    C118849   6.471   1.842   2.368  0.1891 -0.1079 -0.3777
  168SAPE    HA18850   6.499   1.929   2.306 -0.3337 -1.0892 -2.0787
  168SAPE    HB18851   6.360   1.845   2.375  0.2083 -1.0953  0.6296
  168SAPE    C218852   6.509   1.849   2.520  0.1635  0.3306 -0.2266
  168SAPE    HS18853   6.499   1.956   2.547  1.6480  0.1611  1.1839
  168SAPE   O2118854   6.648   1.808   2.546  0.5305 -0.1808 -0.7166
  168SAPE   C2118855   6.744   1.903   2.515 -0.7544  0.2927 -0.0653
  168SAPE   O2218856   6.731   1.999   2.440  0.0010  0.1799 -0.5425
  168SAPE   C2218857   6.883   1.877   2.585  0.3049  0.2341  0.3269
  168SAPE   H2R18858   6.942   1.806   2.523 -1.2072  1.0767 -2.2134
  168SAPE   H2S18859   6.935   1.974   2.593 -0.4749  0.6054  1.0327
  168SAPE    C318860   6.424   1.758   2.607 -0.0567 -0.1921  0.2557
  168SAPE    HX18861   6.448   1.650   2.595  1.3115  0.1896 -0.7661
  168SAPE    HY18862   6.322   1.781   2.571 -0.9206 -1.7448  1.5769
  168SAPE   O3118863   6.433   1.799   2.744  0.4003  0.6281  0.1527
  168SAPE   C3118864   6.508   1.728   2.829 -1.3939  0.7847 -0.4463
  168SAPE   O3218865   6.562   1.621   2.800  0.3468 -0.0254 -0.8095
  168SAPE   C3218866   6.529   1.797   2.967 -0.1721  0.6120  0.2180
  168SAPE   H2X18867   6.523   1.907   2.950 -0.9470  0.2722 -2.0887
  168SAPE   H2Y18868   6.633   1.772   2.998 -0.0739  1.4632  0.6221
  168SAPE   C2318869   6.885   1.816   2.729  0.1852  0.1307  0.6599
  168SAPE   H3R18870   6.977   1.753   2.730 -1.4987 -2.6741 -2.5351
  168SAPE   H3S18871   6.812   1.733   2.726  0.0233  0.2162  1.7668
  168SAPE   C2418872   6.858   1.908   2.847  0.1143 -0.0970 -0.0588
  168SAPE   H4R18873   6.831   1.846   2.935 -1.2178 -0.0986 -0.4544
  168SAPE   H4S18874   6.770   1.971   2.825 -0.6014 -0.9886  0.1987
  168SAPE   C2518875   6.979   1.998   2.883 -0.0828 -0.3583  0.1072
  168SAPE   H5R18876   7.025   2.050   2.798  0.8378  0.7982  1.2813
  168SAPE   C2618877   7.039   2.018   3.002 -0.4244 -0.2708  0.3310
  168SAPE   H6R18878   7.122   2.089   3.011  0.3851 -0.7911 -2.1384
  168SAPE   C2718879   6.996   1.966   3.141  0.3747 -0.2754  0.0828
  168SAPE   H7R18880   7.080   1.909   3.185  0.6457 -0.7878 -1.0505
  168SAPE   H7S18881   6.908   1.899   3.143 -0.1928  0.4597  0.4804
  168SAPE   C2818882   6.952   2.069   3.240 -0.7680 -0.5572  1.0694
  168SAPE   H8R18883   6.890   2.150   3.198  1.4734  0.7483  0.1189
  168SAPE   C2918884   6.985   2.088   3.369  0.1709  0.2443 -1.3955
  168SAPE   H9R18885   6.943   2.167   3.432  0.9773 -1.7511  1.8824
  168SAPE  C21018886   7.090   2.005   3.443  0.1461 -0.0677 -0.4405
  168SAPE  H10R18887   7.174   2.074   3.464 -0.8913  0.8810  0.7593
  168SAPE  H10S18888   7.135   1.925   3.380  0.2446 -0.0210 -0.4289
  168SAPE  C21118889   7.042   1.961   3.583 -0.3922 -0.6994  0.0770
  168SAPE  H11R18890   6.976   1.873   3.578 -1.5954  0.1527  0.3290
  168SAPE  C21218891   7.084   2.012   3.707 -0.1810 -0.4013  1.2216
  168SAPE  H12R18892   7.046   1.959   3.795 -1.5208  1.6162  1.9273
  168SAPE  C21318893   7.175   2.132   3.733  0.5704 -0.0150 -0.6952
  168SAPE  H13R18894   7.165   2.200   3.647 -0.7261 -0.0528 -0.5875
  168SAPE  H13S18895   7.281   2.099   3.728  0.3520 -0.8310 -0.2104
  168SAPE  C21418896   7.139   2.186   3.866  0.0144 -1.3286 -0.4330
  168SAPE  H14R18897   7.066   2.268   3.869  1.6461  0.1626  0.1339
  168SAPE  C21518898   7.217   2.171   3.974  0.2529 -0.2219  0.8693
  168SAPE  H15R18899   7.203   2.243   4.056  0.8127  0.3245  0.4935
  168SAPE  C21618900   7.333   2.082   4.000  0.0196  0.5758 -0.2064
  168SAPE  H16R18901   7.429   2.136   3.993 -0.0973  0.7334 -0.6081
  168SAPE  H16S18902   7.329   1.987   3.942 -1.2060  0.4126  0.1034
  168SAPE  C21718903   7.319   2.049   4.156 -0.2110  0.4816  0.5826
  168SAPE  H17R18904   7.222   1.996   4.169 -0.7743  1.6062  1.0474
  168SAPE  H17S18905   7.304   2.147   4.206  1.3851  1.9406 -1.6205
  168SAPE  C21818906   7.447   1.976   4.205  0.2347  0.2171 -0.5982
  168SAPE  H18R18907   7.529   2.051   4.206  0.8783 -0.4296 -2.2680
  168SAPE  H18S18908   7.470   1.896   4.132  1.3571 -1.6595  1.6548
  168SAPE  C21918909   7.418   1.919   4.346  0.2355 -0.2957  0.1720
  168SAPE  H19R18910   7.516   1.874   4.373 -0.0117 -0.8723  0.1297
  168SAPE  H19S18911   7.327   1.856   4.338 -0.2408  0.4717 -0.5702
  168SAPE  C22018912   7.389   2.020   4.462  0.0362  0.2248 -0.0540
  168SAPE  H20R18913   7.397   1.962   4.556 -0.6070  1.5163  0.8276
  168SAPE  H20S18914   7.283   2.053   4.457 -0.4355 -1.0158  1.2414
  168SAPE  H20T18915   7.456   2.109   4.455  1.3216 -0.7801 -0.9291
  168SAPE   C3318916   6.439   1.761   3.089 -0.5386  0.5203  0.0801
  168SAPE   H3X18917   6.426   1.652   3.099 -1.0674  0.5300 -0.5019
  168SAPE   H3Y18918   6.338   1.803   3.073  0.4095  2.1256 -2.4213
  168SAPE   C3418919   6.507   1.817   3.215  0.1319  0.1734 -0.1096
  168SAPE   H4X18920   6.485   1.926   3.207  2.4118  0.8952  2.1380
  168SAPE   H4Y18921   6.617   1.808   3.209  0.2071  0.6529  0.4608
  168SAPE   C3518922   6.434   1.750   3.335  0.5659  0.2020  0.4416
  168SAPE   H5X18923   6.461   1.644   3.320 -1.4645 -0.5564  1.6766
  168SAPE   H5Y18924   6.323   1.749   3.342  0.6402 -0.4549  1.8323
  168SAPE   C3618925   6.485   1.797   3.477 -0.2405  0.1759 -0.5798
  168SAPE   H6X18926   6.445   1.898   3.499 -4.9840 -1.3663 -0.9303
  168SAPE   H6Y18927   6.594   1.814   3.470 -0.1698  0.0386  0.0757
  168SAPE   C3718928   6.441   1.704   3.593 -0.0001  0.4778 -0.3351
  168SAPE   H7X18929   6.479   1.599   3.593  3.7627  1.6552  1.2909
  168SAPE   H7Y18930   6.332   1.698   3.575 -0.4539  1.9565  1.5896
  168SAPE   C3818931   6.459   1.765   3.731  0.0860 -0.0023 -0.1373
  168SAPE   H8X18932   6.412   1.865   3.731  2.6443  1.2930 -2.0905
  168SAPE   H8Y18933   6.567   1.782   3.749 -0.0950  1.6387 -0.4764
  168SAPE   C3918934   6.402   1.670   3.846 -0.9270  0.0977 -0.2389
  168SAPE   H9X18935   6.455   1.572   3.845 -1.8740 -0.4399  0.3369
  168SAPE   H9Y18936   6.296   1.644   3.828 -1.3864  0.8559  1.2182
  168SAPE  C31018937   6.412   1.715   3.993  0.0335 -0.0909  0.5318
  168SAPE  H10X18938   6.366   1.815   4.005 -1.9109 -0.9402  0.4715
  168SAPE  H10Y18939   6.521   1.714   4.018  0.3580 -0.9846 -0.8114
  168SAPE  C31118940   6.321   1.631   4.087 -0.6844  0.1597 -0.3498
  168SAPE  H11X18941   6.329   1.521   4.087 -0.8552  0.1410  0.7439
  168SAPE  H11Y18942   6.213   1.654   4.074 -1.1306 -0.2026  2.2757
  168SAPE  C31218943   6.342   1.673   4.234 -0.3852  0.5322  0.5010
  168SAPE  H12X18944   6.331   1.783   4.250  1.2922  0.6194  1.2479
  168SAPE  H12Y18945   6.450   1.656   4.253 -0.3585  0.9307  0.7291
  168SAPE  C31318946   6.266   1.585   4.333  0.4025 -0.0846  0.1636
  168SAPE  H13X18947   6.265   1.483   4.289 -1.4656 -0.3757  0.7826
  168SAPE  H13Y18948   6.167   1.635   4.332  0.3116 -0.2135  1.5861
  168SAPE  C31418949   6.331   1.579   4.471  0.1519 -0.1095 -0.2851
  168SAPE  H14X18950   6.424   1.520   4.461  1.4574  1.2776  2.4926
  168SAPE  H14Y18951   6.268   1.513   4.535 -1.2661  1.5095  0.0810
  168SAPE  C31518952   6.354   1.711   4.546 -0.1105  0.1563  0.2965
  168SAPE  H15X18953   6.384   1.800   4.488 -0.1174 -0.2596 -0.3635
  168SAPE  H15Y18954   6.435   1.684   4.617  0.4248  1.0485  0.0314
  168SAPE  C31618955   6.234   1.767   4.626  1.2772  0.4089  0.3796
  168SAPE  H16X18956   6.203   1.704   4.713  1.5848  1.5358  1.3350
  168SAPE  H16Y18957   6.145   1.759   4.560 -0.1689  1.4447  2.1040
  168SAPE  C31718958   6.257   1.910   4.678  0.3176  0.2087  0.2827
  168SAPE  H17X18959   6.290   1.987   4.605  0.9341  0.1391  0.4871
  168SAPE  H17Y18960   6.341   1.885   4.746  0.4315 -3.7788 -1.0861
  168SAPE  C31818961   6.147   1.968   4.761  0.1269  0.7886  0.1443
  168SAPE  H18X18962   6.113   1.907   4.848 -0.1370 -0.1952 -0.6199
  168SAPE  H18Y18963   6.060   1.993   4.696  0.2885  2.2111  0.4478
  168SAPE  H18Z18964   6.189   2.057   4.811  2.1335  0.0452 -0.1206
  169SAPE     N18965   2.568   6.450   3.112 -0.1808  0.5699  0.4274
  169SAPE   HN118966   2.573   6.400   3.203  0.1962  0.7892  0.5311
  169SAPE   HN218967   2.527   6.543   3.137 -1.2994  1.2383 -3.3062
  169SAPE   HN318968   2.499   6.405   3.049  0.9852  0.2479 -0.6680
  169SAPE   C1218969   2.703   6.454   3.035  0.2600 -0.3913  0.2445
  169SAPE  H12A18970   2.736   6.349   3.024 -0.7726 -0.5236 -2.2593
  169SAPE  H12B18971   2.760   6.517   3.107 -0.8577  3.0805 -1.6502
  169SAPE   C1118972   2.693   6.514   2.895  0.1385  0.4227 -0.0906
  169SAPE  H11A18973   2.655   6.443   2.818 -0.4502  2.4170 -1.7250
  169SAPE  H11B18974   2.796   6.530   2.858 -0.1381 -0.2070 -1.1902
  169SAPE     P18975   2.598   6.724   2.758  0.1529 -0.3805  0.1732
  169SAPE   O1318976   2.707   6.801   2.700 -0.2293 -0.4401  0.6187
  169SAPE   O1418977   2.539   6.629   2.663 -0.3023 -0.9270 -0.8830
  169SAPE   O1218978   2.629   6.643   2.895  0.1540 -0.4700  0.3072
  169SAPE   O1118979   2.480   6.822   2.802  0.0974  0.2001  0.4361
  169SAPE    C118980   2.394   6.796   2.911 -0.2897  0.5882  0.4950
  169SAPE    HA18981   2.294   6.842   2.896  0.6561  2.5514 -0.1442
  169SAPE    HB18982   2.391   6.688   2.938 -0.0015  0.3481 -0.3917
  169SAPE    C218983   2.452   6.871   3.041  0.3539  0.0097  0.7259
  169SAPE    HS18984   2.548   6.825   3.073  0.7327  1.0274  1.1046
  169SAPE   O2118985   2.358   6.872   3.145 -0.0224 -0.0077 -0.4155
  169SAPE   C2118986   2.361   6.763   3.221  0.1734  0.5897  0.4564
  169SAPE   O2218987   2.436   6.662   3.203  0.3507  0.5417 -0.6459
  169SAPE   C2218988   2.253   6.783   3.333 -1.3455  0.4436 -0.8988
  169SAPE   H2R18989   2.320   6.836   3.404  1.7518 -1.4832 -2.1535
  169SAPE   H2S18990   2.171   6.843   3.290 -3.7365 -1.3706  0.8663
  169SAPE    C318991   2.484   7.026   3.011  0.4495  0.1649 -0.8685
  169SAPE    HX18992   2.391   7.074   2.972  0.7598  2.3123  0.8300
  169SAPE    HY18993   2.562   7.027   2.933  0.9355  2.7426 -0.4376
  169SAPE   O3118994   2.527   7.100   3.134 -0.0489 -0.0171 -0.3352
  169SAPE   C3118995   2.530   7.227   3.109 -0.6958  0.2910 -0.6922
  169SAPE   O3218996   2.493   7.285   3.010 -0.8532 -0.0640 -0.2637
  169SAPE   C3218997   2.606   7.296   3.226  0.3268  0.5052  0.2542
  169SAPE   H2X18998   2.695   7.343   3.178  2.2373 -2.6528  0.3874
  169SAPE   H2Y18999   2.634   7.217   3.299  0.6899 -1.6045 -2.0295
  169SAPE   C2319000   2.207   6.655   3.405  0.0433  0.1638  0.0401
  169SAPE   H3R19001   2.295   6.591   3.428  1.2037  0.8385 -2.2700
  169SAPE   H3S19002   2.133   6.590   3.353 -0.6208 -0.6742  1.9235
  169SAPE   C2419003   2.136   6.696   3.536 -0.5029 -0.2261 -0.1635
  169SAPE   H4R19004   2.055   6.766   3.507  2.3577  3.4981  0.1366
  169SAPE   H4S19005   2.207   6.763   3.589 -0.7410 -0.6133  0.6746
  169SAPE   C2519006   2.100   6.577   3.623  0.3394  0.2733 -0.3542
  169SAPE   H5R19007   2.073   6.497   3.552 -1.2082  1.0714 -0.7127
  169SAPE   C2619008   2.111   6.573   3.760 -0.6845 -0.2283  0.1625
  169SAPE   H6R19009   2.080   6.482   3.814  1.2163 -1.1383 -0.1986
  169SAPE   C2719010   2.172   6.681   3.846  0.2304  0.1035  0.0289
  169SAPE   H7R19011   2.137   6.772   3.794 -0.1176 -1.9878 -3.7430
  169SAPE   H7S19012   2.283   6.680   3.840  0.2212 -1.6641 -0.5700
  169SAPE   C2819013   2.118   6.684   3.987  1.2055  0.6182 -0.6115
  169SAPE   H8R19014   2.064   6.597   4.027 -2.5026  1.0318 -4.1125
  169SAPE   C2919015   2.129   6.789   4.066  0.7804 -0.5781 -0.4947
  169SAPE   H9R19016   2.085   6.776   4.166  1.7286  0.6846  0.1184
  169SAPE  C21019017   2.184   6.926   4.035  0.5534  0.7728 -0.2893
  169SAPE  H10R19018   2.260   6.912   3.956  0.2108 -1.2623 -0.2930
  169SAPE  H10S19019   2.235   6.957   4.129  1.1087 -2.5877  0.6541
  169SAPE  C21119020   2.076   7.030   3.991 -0.7960 -0.6865  0.2489
  169SAPE  H11R19021   2.073   7.046   3.882  0.5892 -0.7843  0.1791
  169SAPE  C21219022   1.969   7.063   4.060 -0.0062 -0.6483 -0.5158
  169SAPE  H12R19023   1.892   7.124   4.010  0.4336 -0.1879 -0.6375
  169SAPE  C21319024   1.936   7.016   4.203  0.4953  0.4860  0.4391
  169SAPE  H13R19025   2.020   7.032   4.275  0.0930  1.1576  0.7666
  169SAPE  H13S19026   1.924   6.906   4.195 -0.0715  0.6167 -0.5730
  169SAPE  C21419027   1.807   7.079   4.256  0.8081 -0.4724  0.4450
  169SAPE  H14R19028   1.720   7.070   4.190  0.6224  1.1659  0.4256
  169SAPE  C21519029   1.783   7.139   4.376 -0.4603 -0.0105  0.3145
  169SAPE  H15R19030   1.683   7.176   4.403 -0.6895 -0.8232  0.6050
  169SAPE  C21619031   1.888   7.170   4.479  0.2759 -0.1399  0.3591
  169SAPE  H16R19032   1.915   7.278   4.472 -1.7210  0.3739  0.0786
  169SAPE  H16S19033   1.981   7.112   4.463  0.3403  0.0081  0.1851
  169SAPE  C21719034   1.841   7.143   4.620 -0.1299 -0.2123  0.2781
  169SAPE  H17R19035   1.810   7.037   4.632 -2.8438  0.3718 -0.7027
  169SAPE  H17S19036   1.748   7.203   4.633  1.4585  2.2717  0.6580
  169SAPE  C21819037   1.934   7.179   4.733  0.1461  0.8170  0.0659
  169SAPE  H18R19038   2.021   7.110   4.736  0.0653  0.4836 -2.8155
  169SAPE  H18S19039   1.892   7.157   4.833  1.2206 -2.4533 -0.0808
  169SAPE  C21919040   1.985   7.319   4.720  0.2056 -0.1827 -0.2211
  169SAPE  H19R19041   1.899   7.384   4.694  1.2093  0.7316 -1.4072
  169SAPE  H19S19042   2.067   7.322   4.645  0.0757 -0.2534 -0.3654
  169SAPE  C22019043   2.050   7.366   4.856  0.8100  0.0954  0.7379
  169SAPE  H20R19044   2.127   7.289   4.878  0.6461 -1.0198 -2.1160
  169SAPE  H20S19045   1.963   7.350   4.922 -1.3667  3.4044 -0.9939
  169SAPE  H20T19046   2.089   7.471   4.858  2.1321 -0.2169 -2.1973
  169SAPE   C3319047   2.524   7.393   3.310 -0.3932 -0.2098 -0.2263
  169SAPE   H3X19048   2.502   7.484   3.250  1.1935  0.1982 -0.2296
  169SAPE   H3Y19049   2.575   7.432   3.401  0.5314 -0.9411 -0.4277
  169SAPE   C3419050   2.386   7.339   3.367  0.0100  0.0221 -0.6354
  169SAPE   H4X19051   2.313   7.326   3.284 -0.1987  1.8886 -0.7856
  169SAPE   H4Y19052   2.346   7.417   3.436  0.3924 -1.5204  1.4109
  169SAPE   C3519053   2.383   7.209   3.456 -0.3865 -0.3257  0.1031
  169SAPE   H5X19054   2.478   7.205   3.514 -1.2781 -2.4965  1.5770
  169SAPE   H5Y19055   2.392   7.126   3.382 -0.8035 -0.7097  0.4748
  169SAPE   C3619056   2.253   7.189   3.543  0.7732  0.1858 -0.0202
  169SAPE   H6X19057   2.233   7.282   3.600 -0.2895  0.6183 -1.0596
  169SAPE   H6Y19058   2.286   7.111   3.615 -2.4422  1.8035  3.5745
  169SAPE   C3719059   2.134   7.144   3.460 -0.6609  0.4084  0.6592
  169SAPE   H7X19060   2.160   7.064   3.388 -0.8258  1.0405 -0.1251
  169SAPE   H7Y19061   2.091   7.225   3.397 -1.5135  0.6188  1.4763
  169SAPE   C3819062   2.011   7.080   3.533 -0.0003  0.1572  0.5132
  169SAPE   H8X19063   1.985   7.153   3.613 -2.7610  2.3697 -2.1547
  169SAPE   H8Y19064   2.044   6.980   3.569 -2.0644 -1.1437 -1.0651
  169SAPE   C3919065   1.893   7.069   3.435 -0.4489 -0.0046  0.2272
  169SAPE   H9X19066   1.930   7.020   3.343  1.0589 -1.4295  1.5239
  169SAPE   H9Y19067   1.857   7.174   3.422 -0.2623  0.1372  0.8324
  169SAPE  C31019068   1.767   7.007   3.491  0.1719  0.7542  0.2253
  169SAPE  H10X19069   1.785   6.898   3.481  1.4576  0.9538  0.2593
  169SAPE  H10Y19070   1.694   7.024   3.409 -0.3102  0.5152  0.5973
  169SAPE  C31119071   1.728   7.051   3.633 -0.1952 -0.0354  0.6434
  169SAPE  H11X19072   1.713   7.160   3.648  0.4906 -0.0093  1.1593
  169SAPE  H11Y19073   1.801   7.011   3.706  0.6270 -1.4235 -0.8680
  169SAPE  C31219074   1.594   6.986   3.661 -0.2349 -0.5488  0.7665
  169SAPE  H12X19075   1.602   6.880   3.693 -2.8362 -1.3364 -0.8793
  169SAPE  H12Y19076   1.538   6.976   3.566 -3.6914 -1.7619  2.7323
  169SAPE  C31319077   1.497   7.067   3.744 -0.2658  0.1830  0.0692
  169SAPE  H13X19078   1.471   7.170   3.712  0.5324  0.6093  0.7584
  169SAPE  H13Y19079   1.533   7.087   3.847  0.4921 -1.2239  0.0998
  169SAPE  C31419080   1.362   6.988   3.758  0.0829 -0.2862 -0.3033
  169SAPE  H14X19081   1.377   6.882   3.787  0.0406 -0.3301 -0.4450
  169SAPE  H14Y19082   1.323   6.981   3.655  0.4872  0.9441 -0.5621
  169SAPE  C31519083   1.248   7.047   3.850 -0.5513  0.4162 -0.1415
  169SAPE  H15X19084   1.261   7.156   3.864  0.8769  0.2603 -0.1271
  169SAPE  H15Y19085   1.265   7.014   3.955  1.0691 -0.4571 -0.6511
  169SAPE  C31619086   1.111   7.012   3.808 -0.2256 -0.3505  0.4065
  169SAPE  H16X19087   1.119   6.923   3.743 -0.3271 -0.5361  0.6437
  169SAPE  H16Y19088   1.069   7.094   3.747  0.1346  0.8503  1.7013
  169SAPE  C31719089   1.006   6.987   3.927 -0.4537  0.0811 -0.5710
  169SAPE  H17X19090   1.047   6.909   3.994 -1.6980  0.9598  1.2921
  169SAPE  H17Y19091   0.909   6.963   3.879 -0.6330  1.5329 -0.9937
  169SAPE  C31819092   0.976   7.110   4.025 -0.5353  0.7231  0.3682
  169SAPE  H18X19093   1.061   7.149   4.086  1.6178 -0.9089 -1.4080
  169SAPE  H18Y19094   0.888   7.088   4.090 -0.7165  1.2524  0.3033
  169SAPE  H18Z19095   0.932   7.189   3.962 -0.6789 -1.1823 -2.0955
  170SAPE     N19096   1.495   0.970   2.421  0.1208  0.2971 -0.6207
  170SAPE   HN119097   1.438   0.884   2.412 -1.9154  1.5121  0.1050
  170SAPE   HN219098   1.428   1.049   2.410  0.9141  1.2200  0.7898
  170SAPE   HN319099   1.558   0.978   2.338  1.2515  3.1979  0.3681
  170SAPE   C1219100   1.574   0.967   2.548  0.2693 -0.7240  0.7053
  170SAPE  H12A19101   1.663   0.904   2.529  0.3700 -1.0334  2.0953
  170SAPE  H12B19102   1.512   0.928   2.632 -0.6337  0.0056  0.3917
  170SAPE   C1119103   1.636   1.108   2.580  0.0940  0.4814  0.2491
  170SAPE  H11A19104   1.680   1.094   2.682  1.6608  0.6105 -0.3770
  170SAPE  H11B19105   1.568   1.195   2.574  0.6151  0.7932 -1.9215
  170SAPE     P19106   1.864   1.219   2.516 -0.5299  0.2284 -0.2636
  170SAPE   O1319107   1.971   1.187   2.415  0.1091 -0.2402 -0.1083
  170SAPE   O1419108   1.814   1.355   2.524 -0.0800 -0.5130  0.1330
  170SAPE   O1219109   1.739   1.126   2.488  0.1690 -0.1816  0.3135
  170SAPE   O1119110   1.903   1.173   2.666  0.4504 -0.5524  0.7112
  170SAPE    C119111   1.979   1.062   2.696  0.3995  0.4583 -0.0047
  170SAPE    HA19112   2.029   1.026   2.604 -1.4329  1.4843 -1.4540
  170SAPE    HB19113   2.055   1.101   2.768  0.8260  2.0989 -1.2765
  170SAPE    C219114   1.904   0.945   2.759  0.0507 -0.0989 -0.3795
  170SAPE    HS19115   1.833   0.904   2.684 -0.1112 -3.1988  1.2810
  170SAPE   O2119116   1.824   1.000   2.864 -0.1157  0.5236 -0.2424
  170SAPE   C2119117   1.750   0.906   2.931  0.7908  0.1361  0.2934
  170SAPE   O2219118   1.712   0.798   2.877 -0.0585 -0.4370  0.2514
  170SAPE   C2219119   1.714   0.954   3.074 -0.8670 -0.0042 -0.4403
  170SAPE   H2R19120   1.768   0.899   3.154 -3.3580  0.7133  1.9029
  170SAPE   H2S19121   1.736   1.063   3.080 -1.9303  0.3712 -2.4761
  170SAPE    C319122   2.001   0.832   2.797 -0.3514  0.0660 -1.0864
  170SAPE    HX19123   2.057   0.801   2.706  0.9453  0.9148 -0.6118
  170SAPE    HY19124   1.955   0.736   2.830  1.3255 -0.6786 -0.8085
  170SAPE   O3119125   2.098   0.883   2.897  0.1756 -0.0812 -0.8535
  170SAPE   C3119126   2.094   0.825   3.018 -0.5792 -0.1858 -0.3839
  170SAPE   O3219127   2.017   0.739   3.054  0.3524 -0.1024 -0.2192
  170SAPE   C3219128   2.214   0.877   3.105 -0.1229 -0.0427 -0.3444
  170SAPE   H2X19129   2.294   0.912   3.036  0.7491  0.7368  1.0152
  170SAPE   H2Y19130   2.253   0.788   3.158 -1.6291 -1.1099 -0.9676
  170SAPE   C2319131   1.567   0.922   3.103  0.2356  0.8797  0.3441
  170SAPE   H3R19132   1.540   0.814   3.098  0.2121  0.9454 -1.3376
  170SAPE   H3S19133   1.501   0.964   3.024  0.7219 -0.7955 -1.0047
  170SAPE   C2419134   1.511   0.982   3.236 -1.1113  0.4085  0.0267
  170SAPE   H4R19135   1.406   0.946   3.231 -0.2665 -2.5704  1.2349
  170SAPE   H4S19136   1.531   1.091   3.229 -0.5855  0.3479  0.5454
  170SAPE   C2519137   1.556   0.911   3.365  0.4632 -0.2477  0.4040
  170SAPE   H5R19138   1.585   0.806   3.354  0.5275 -0.1801 -0.1231
  170SAPE   C2619139   1.602   0.971   3.474  0.3474 -0.6314 -0.1261
  170SAPE   H6R19140   1.643   0.908   3.555 -1.4884 -2.0930 -0.2809
  170SAPE   C2719141   1.593   1.114   3.504  1.0335  0.0670 -0.4121
  170SAPE   H7R19142   1.575   1.117   3.614 -0.2699 -0.6735 -0.5808
  170SAPE   H7S19143   1.493   1.146   3.469  0.9998 -1.0464 -1.3938
  170SAPE   C2819144   1.703   1.189   3.451 -0.5119 -0.0720 -0.3460
  170SAPE   H8R19145   1.673   1.257   3.370 -0.3394  1.2553  0.6629
  170SAPE   C2919146   1.825   1.194   3.505 -0.1852  0.3781  0.1483
  170SAPE   H9R19147   1.905   1.238   3.445 -0.2664  0.1699 -0.1130
  170SAPE  C21019148   1.873   1.141   3.635 -0.1354  0.2139  0.3837
  170SAPE  H10R19149   1.928   1.048   3.610  0.5567  0.0596  2.3098
  170SAPE  H10S19150   1.793   1.096   3.697  0.3761 -1.8857 -0.4003
  170SAPE  C21119151   1.965   1.244   3.710 -0.1127 -0.6797  0.1919
  170SAPE  H11R19152   1.911   1.330   3.752 -1.7105 -1.3063 -0.4982
  170SAPE  C21219153   2.084   1.222   3.759  0.5630  0.5556  0.6806
  170SAPE  H12R19154   2.126   1.302   3.822 -1.5672  1.5784  0.8909
  170SAPE  C21319155   2.171   1.103   3.735  0.4764  0.7963 -0.1543
  170SAPE  H13R19156   2.131   1.038   3.654 -2.0852  0.6940  1.0846
  170SAPE  H13S19157   2.155   1.038   3.824  1.1468 -1.7483 -1.7778
  170SAPE  C21419158   2.315   1.136   3.728 -0.0685  0.4033  0.2153
  170SAPE  H14R19159   2.347   1.223   3.788  0.3246 -0.9582  2.0821
  170SAPE  C21519160   2.416   1.061   3.676 -0.2560  0.2387  0.4693
  170SAPE  H15R19161   2.518   1.088   3.707  0.3467 -1.7112  0.3110
  170SAPE  C21619162   2.410   0.924   3.606  0.0890 -0.0600  0.6247
  170SAPE  H16R19163   2.456   0.936   3.505 -0.0114  2.2044  0.8115
  170SAPE  H16S19164   2.305   0.894   3.589  0.3762 -1.3963  1.0748
  170SAPE  C21719165   2.501   0.811   3.666  0.1419  0.2167 -0.5048
  170SAPE  H17R19166   2.599   0.853   3.697  0.1355 -0.6056  0.7145
  170SAPE  H17S19167   2.518   0.734   3.588  2.0713  0.2467 -0.1567
  170SAPE  C21819168   2.432   0.741   3.781 -0.5827 -0.1903  0.1819
  170SAPE  H18R19169   2.347   0.684   3.739 -0.4788 -0.0694 -0.1936
  170SAPE  H18S19170   2.390   0.815   3.852  1.0855 -0.6332  1.7100
  170SAPE  C21919171   2.521   0.641   3.856  0.5666 -0.0388 -0.0383
  170SAPE  H19R19172   2.454   0.582   3.923  1.2396 -0.1212  0.5693
  170SAPE  H19S19173   2.582   0.707   3.921 -0.5057  1.3601 -0.4149
  170SAPE  C22019174   2.605   0.540   3.774 -0.0300  0.8408 -0.5044
  170SAPE  H20R19175   2.627   0.453   3.839  3.0040 -0.9485 -3.5998
  170SAPE  H20S19176   2.691   0.588   3.723  1.8318 -1.7925 -0.0103
  170SAPE  H20T19177   2.551   0.503   3.684  0.9671  2.6834 -1.9443
  170SAPE   C3319178   2.166   0.992   3.204 -0.2326 -0.5719  0.5710
  170SAPE   H3X19179   2.139   1.071   3.131 -0.4142 -1.6416 -0.5333
  170SAPE   H3Y19180   2.243   1.037   3.271 -2.6669  2.6839  1.4325
  170SAPE   C3419181   2.042   0.961   3.288 -0.1030 -0.2598 -0.5740
  170SAPE   H4X19182   1.954   0.951   3.221  0.6833  2.7226 -2.2519
  170SAPE   H4Y19183   2.019   1.052   3.347  1.4082 -0.6166  0.6105
  170SAPE   C3519184   2.054   0.838   3.375  0.0937  0.3969 -0.5192
  170SAPE   H5X19185   2.117   0.841   3.466 -0.4622  0.9234 -0.1447
  170SAPE   H5Y19186   2.097   0.753   3.318  0.9496  0.1959  0.4037
  170SAPE   C3619187   1.920   0.785   3.426  0.2279  0.5237  0.4022
  170SAPE   H6X19188   1.859   0.738   3.347 -1.1304 -1.8750  2.6929
  170SAPE   H6Y19189   1.863   0.869   3.470 -1.2537 -0.3352  0.1771
  170SAPE   C3719190   1.942   0.689   3.547 -0.3541  0.0798 -0.2729
  170SAPE   H7X19191   2.023   0.613   3.534 -1.2714 -0.9073 -0.3940
  170SAPE   H7Y19192   1.850   0.627   3.548  0.1924 -0.7452  0.6700
  170SAPE   C3819193   1.960   0.753   3.685 -0.8917 -0.4162  0.8984
  170SAPE   H8X19194   1.903   0.847   3.701  3.1639  2.1987  1.5266
  170SAPE   H8Y19195   2.059   0.802   3.679 -1.0874  0.6146  4.1553
  170SAPE   C3919196   1.953   0.652   3.799 -0.2234  0.2539 -0.2500
  170SAPE   H9X19197   1.976   0.552   3.758 -0.5167  0.2310 -0.3561
  170SAPE   H9Y19198   1.851   0.659   3.843 -0.3937  4.2119 -0.8443
  170SAPE  C31019199   2.051   0.697   3.914  0.2141 -0.3576 -0.2337
  170SAPE  H10X19200   2.040   0.802   3.949  2.5773 -0.7937  2.1071
  170SAPE  H10Y19201   2.157   0.694   3.881  0.2004 -2.0812 -0.1865
  170SAPE  C31119202   2.030   0.608   4.040  0.0141  0.5980  0.0550
  170SAPE  H11X19203   1.991   0.505   4.027  1.5338 -0.3890  2.5603
  170SAPE  H11Y19204   1.955   0.664   4.100 -0.5910 -0.5334  0.3748
  170SAPE  C31219205   2.161   0.587   4.119 -0.0830 -0.2393 -0.1829
  170SAPE  H12X19206   2.226   0.526   4.054 -1.3596 -2.3247  0.3841
  170SAPE  H12Y19207   2.140   0.529   4.211 -0.8256 -1.1979 -0.9345
  170SAPE  C31319208   2.222   0.722   4.165 -0.4488  0.2708 -0.5326
  170SAPE  H13X19209   2.223   0.800   4.086  0.5511  1.9586  1.0426
  170SAPE  H13Y19210   2.328   0.701   4.193 -1.1294 -0.8662  1.3598
  170SAPE  C31419211   2.147   0.792   4.286  0.5989 -0.2344 -0.0195
  170SAPE  H14X19212   2.037   0.788   4.272  0.9337 -1.5604 -3.2691
  170SAPE  H14Y19213   2.172   0.900   4.294  0.1645 -0.1584  0.3237
  170SAPE  C31519214   2.168   0.719   4.425  0.5485 -0.2848 -0.0056
  170SAPE  H15X19215   2.147   0.610   4.418 -0.7984  0.0414 -1.4056
  170SAPE  H15Y19216   2.084   0.756   4.487  0.7045  0.3937 -0.1886
  170SAPE  C31619217   2.306   0.750   4.483 -1.1761 -0.0059  0.4764
  170SAPE  H16X19218   2.315   0.861   4.482 -2.7741  0.1675 -1.4546
  170SAPE  H16Y19219   2.388   0.713   4.418 -2.7153 -0.7579 -1.1171
  170SAPE  C31719220   2.333   0.697   4.625  0.7424 -0.1058 -0.1820
  170SAPE  H17X19221   2.264   0.622   4.669  1.5683 -0.4963  0.4879
  170SAPE  H17Y19222   2.330   0.786   4.691  0.0507  0.3851 -0.8556
  170SAPE  C31819223   2.469   0.630   4.629  0.0460  0.1414  0.0453
  170SAPE  H18X19224   2.533   0.652   4.541  0.1712 -1.2315 -0.2272
  170SAPE  H18Y19225   2.479   0.521   4.644 -0.5346  0.1754  0.7116
  170SAPE  H18Z19226   2.528   0.674   4.712  0.4518 -0.3282  0.0109
  171SAPE     N19227   3.492   2.446   2.954  0.9799 -0.1518  0.0187
  171SAPE   HN119228   3.432   2.377   2.905  0.3723  1.5200 -1.7302
  171SAPE   HN219229   3.548   2.477   2.872 -1.5026  0.6495 -1.4535
  171SAPE   HN319230   3.558   2.405   3.023 -0.3617  0.1724  1.5428
  171SAPE   C1219231   3.427   2.566   3.016 -0.5356  1.0189  0.0402
  171SAPE  H12A19232   3.491   2.653   2.991  2.2914 -0.9062  0.0779
  171SAPE  H12B19233   3.435   2.545   3.124 -2.9494 -0.7193 -0.0442
  171SAPE   C1119234   3.283   2.577   2.968 -0.3061  0.6304  0.1878
  171SAPE  H11A19235   3.220   2.646   3.027 -0.8730  0.9352 -0.7406
  171SAPE  H11B19236   3.232   2.479   2.980 -0.5802  0.7118 -0.2732
  171SAPE     P19237   3.156   2.677   2.757 -0.0481  0.3180 -0.0868
  171SAPE   O1319238   3.149   2.813   2.811 -0.3863  0.3095  0.4321
  171SAPE   O1419239   3.178   2.655   2.614  0.6431  0.1735 -0.6775
  171SAPE   O1219240   3.278   2.596   2.829 -0.6069  0.1056 -0.1773
  171SAPE   O1119241   3.027   2.605   2.817 -0.2481  0.4073  0.3349
  171SAPE    C119242   2.977   2.486   2.761  0.1529  0.1892  0.1958
  171SAPE    HA19243   2.921   2.507   2.667 -2.8087 -1.1147  1.5487
  171SAPE    HB19244   3.058   2.410   2.753 -1.7407 -2.2861  2.5754
  171SAPE    C219245   2.858   2.425   2.843 -0.2122  0.0636 -0.1099
  171SAPE    HS19246   2.772   2.494   2.839 -1.1576 -1.0283  0.7288
  171SAPE   O2119247   2.903   2.389   2.976  0.5942 -0.0439 -0.1022
  171SAPE   C2119248   2.879   2.487   3.067 -0.4923  0.9726  0.4945
  171SAPE   O2219249   2.817   2.586   3.050  0.5829 -0.6901 -0.3531
  171SAPE   C2219250   2.950   2.438   3.200  0.0796 -0.8171  0.0333
  171SAPE   H2R19251   2.871   2.389   3.262 -1.6556  3.7891  1.9214
  171SAPE   H2S19252   3.024   2.360   3.172  0.0654 -0.2088 -1.7880
  171SAPE    C319253   2.803   2.296   2.776  0.3113 -0.6829 -1.0869
  171SAPE    HX19254   2.879   2.215   2.770  2.1934  0.9660 -0.2524
  171SAPE    HY19255   2.775   2.325   2.672 -2.1956 -0.3965 -0.4017
  171SAPE   O3119256   2.686   2.257   2.844 -0.4767  0.2842 -0.1782
  171SAPE   C3119257   2.704   2.140   2.921 -0.0937 -0.1473  0.2513
  171SAPE   O3219258   2.806   2.083   2.937  0.1758  0.1908  0.3038
  171SAPE   C3219259   2.565   2.094   2.967  0.4310  0.4024  0.4003
  171SAPE   H2X19260   2.580   1.984   2.977 -0.2344  0.2675 -0.0194
  171SAPE   H2Y19261   2.495   2.098   2.881  2.3351 -1.8611 -1.4001
  171SAPE   C2319262   3.008   2.556   3.284 -0.1732  0.2074  0.2044
  171SAPE   H3R19263   2.938   2.642   3.298  0.6579  1.1238 -1.0764
  171SAPE   H3S19264   3.101   2.605   3.249 -0.2366  0.6766  0.6695
  171SAPE   C2419265   3.058   2.504   3.421  0.3415  0.4815 -0.0250
  171SAPE   H4R19266   2.966   2.473   3.474 -1.0109  0.3902 -2.3243
  171SAPE   H4S19267   3.102   2.583   3.486 -0.4999  1.1809 -0.2961
  171SAPE   C2519268   3.159   2.400   3.418 -0.6926  0.3582 -0.2575
  171SAPE   H5R19269   3.156   2.339   3.326 -1.2005  1.3136 -0.8832
  171SAPE   C2619270   3.254   2.398   3.510  0.0741  0.1629 -0.0672
  171SAPE   H6R19271   3.332   2.321   3.502  1.6740  1.6955 -0.1508
  171SAPE   C2719272   3.281   2.483   3.642  0.5681  0.2084  0.9479
  171SAPE   H7R19273   3.255   2.590   3.627  0.8754 -0.2058 -4.1880
  171SAPE   H7S19274   3.389   2.486   3.669  1.2097  0.4315 -1.4659
  171SAPE   C2819275   3.191   2.433   3.750 -0.3683  0.3367  0.2563
  171SAPE   H8R19276   3.122   2.350   3.731 -0.1677  0.0146  0.9000
  171SAPE   C2919277   3.206   2.466   3.879 -0.0457  0.2934  0.3121
  171SAPE   H9R19278   3.135   2.423   3.951 -1.1367 -0.8080 -1.3604
  171SAPE  C21019279   3.290   2.571   3.940 -0.6060 -0.6980  0.7562
  171SAPE  H10R19280   3.365   2.603   3.865 -0.4560  1.6786  1.8180
  171SAPE  H10S19281   3.343   2.531   4.029 -2.1421  0.3829  2.2316
  171SAPE  C21119282   3.198   2.692   3.975  0.0024  0.1422  0.5938
  171SAPE  H11R19283   3.188   2.762   3.892 -1.2339 -0.8526 -0.1346
  171SAPE  C21219284   3.163   2.724   4.101  0.6247 -0.0877  0.6029
  171SAPE  H12R19285   3.094   2.807   4.125  0.7249 -0.5693  2.7335
  171SAPE  C21319286   3.179   2.649   4.228 -0.3970 -0.7615  0.1551
  171SAPE  H13R19287   3.166   2.725   4.307  0.0360 -0.9660  0.4287
  171SAPE  H13S19288   3.284   2.615   4.238 -0.0200 -0.2800 -1.8475
  171SAPE  C21419289   3.082   2.533   4.243  0.3398 -0.3048  0.0280
  171SAPE  H14R19290   3.035   2.499   4.150 -0.4869  0.6290  0.0926
  171SAPE  C21519291   3.062   2.468   4.360 -0.2941 -0.4568  0.9810
  171SAPE  H15R19292   2.990   2.384   4.368 -1.0709 -0.0124 -0.7918
  171SAPE  C21619293   3.124   2.504   4.492  0.0690 -0.5428 -0.2263
  171SAPE  H16R19294   3.045   2.537   4.563 -0.8364 -1.5820 -0.7203
  171SAPE  H16S19295   3.204   2.581   4.479  0.7130 -1.0766  0.5181
  171SAPE  C21719296   3.186   2.385   4.572 -0.0252 -0.4884  0.1946
  171SAPE  H17R19297   3.246   2.330   4.496 -1.9931  1.2420 -2.8488
  171SAPE  H17S19298   3.099   2.319   4.594 -1.3555  1.0325 -0.2431
  171SAPE  C21819299   3.262   2.428   4.702  0.0942  0.3461 -0.0856
  171SAPE  H18R19300   3.195   2.493   4.763  0.8011  0.0679  1.0009
  171SAPE  H18S19301   3.354   2.483   4.674 -1.8266  2.9456 -1.9268
  171SAPE  C21919302   3.307   2.305   4.780 -1.0857 -0.2874 -0.1757
  171SAPE  H19R19303   3.396   2.264   4.729  0.9056 -0.2068  2.9687
  171SAPE  H19S19304   3.228   2.227   4.788  0.9177 -2.3629  0.1223
  171SAPE  C22019305   3.359   2.331   4.916 -0.9259 -0.3271 -0.0932
  171SAPE  H20R19306   3.275   2.381   4.968 -0.7892  1.2349 -1.2588
  171SAPE  H20S19307   3.444   2.404   4.923  1.2893 -2.7930  0.2462
  171SAPE  H20T19308   3.390   2.242   4.974  3.1679  0.3031 -0.9522
  171SAPE   C3319309   2.510   2.165   3.095 -0.9694  0.6009 -0.0613
  171SAPE   H3X19310   2.589   2.173   3.173 -0.9725 -1.0404  0.1412
  171SAPE   H3Y19311   2.433   2.100   3.142 -0.7618 -0.4372 -1.1335
  171SAPE   C3419312   2.446   2.303   3.077 -0.0775 -0.5216  0.5534
  171SAPE   H4X19313   2.361   2.294   3.006  0.3954  2.5492 -0.5677
  171SAPE   H4Y19314   2.513   2.366   3.015  1.1534 -2.3427 -0.0670
  171SAPE   C3519315   2.415   2.358   3.214 -0.0656  0.1174 -0.2486
  171SAPE   H5X19316   2.359   2.288   3.280  1.4355  1.6551  2.8658
  171SAPE   H5Y19317   2.339   2.438   3.202 -1.2492 -1.1641 -1.6793
  171SAPE   C3619318   2.538   2.407   3.290  0.6380  0.1085 -0.2338
  171SAPE   H6X19319   2.591   2.486   3.233  1.0592 -0.2783 -0.3933
  171SAPE   H6Y19320   2.602   2.317   3.301  1.2903  0.4834 -0.8546
  171SAPE   C3719321   2.500   2.464   3.431 -0.6818 -0.3062 -0.4570
  171SAPE   H7X19322   2.429   2.389   3.472  0.8917 -0.1930  2.7037
  171SAPE   H7Y19323   2.442   2.554   3.401  0.0647  0.2981 -0.1231
  171SAPE   C3819324   2.618   2.474   3.532 -0.6752 -0.6204  0.4002
  171SAPE   H8X19325   2.694   2.395   3.518  0.0739 -0.5099  3.2133
  171SAPE   H8Y19326   2.572   2.472   3.633 -2.2359 -1.6765 -0.2839
  171SAPE   C3919327   2.701   2.604   3.518 -0.0540  0.5685 -0.3480
  171SAPE   H9X19328   2.630   2.688   3.529  0.9311  1.5412 -1.1827
  171SAPE   H9Y19329   2.748   2.611   3.417  0.8212 -0.8732 -0.0771
  171SAPE  C31019330   2.801   2.635   3.637 -0.5192 -0.3879  0.9677
  171SAPE  H10X19331   2.870   2.706   3.586 -1.4404 -2.3610 -3.5168
  171SAPE  H10Y19332   2.859   2.547   3.671  0.3331 -0.1785  0.1035
  171SAPE  C31119333   2.719   2.696   3.757  0.1510  0.7158  0.0535
  171SAPE  H11X19334   2.637   2.625   3.777 -0.7092  1.6698 -0.0239
  171SAPE  H11Y19335   2.683   2.793   3.718 -1.6676 -0.0718 -0.2957
  171SAPE  C31219336   2.801   2.716   3.876  0.0354  0.0139 -0.5698
  171SAPE  H12X19337   2.874   2.794   3.847  0.9268 -0.0902  1.2747
  171SAPE  H12Y19338   2.862   2.628   3.905  0.7276 -0.3534 -2.9356
  171SAPE  C31319339   2.719   2.781   3.988  0.1616  0.5254 -0.1427
  171SAPE  H13X19340   2.634   2.717   4.022  1.6913 -0.3227  2.3842
  171SAPE  H13Y19341   2.692   2.884   3.958 -2.0552  0.0771  0.1246
  171SAPE  C31419342   2.797   2.799   4.122  0.1899 -0.2611 -0.4176
  171SAPE  H14X19343   2.862   2.888   4.105 -1.6358  1.1475 -0.2948
  171SAPE  H14Y19344   2.859   2.709   4.142  0.8363 -0.1289 -1.7050
  171SAPE  C31519345   2.715   2.814   4.254 -0.0322 -0.1849 -0.0233
  171SAPE  H15X19346   2.769   2.850   4.344 -0.8904  2.7928 -0.6060
  171SAPE  H15Y19347   2.673   2.713   4.276  1.7170 -0.7632  0.8580
  171SAPE  C31619348   2.595   2.909   4.238  0.1402  0.0492  0.2358
  171SAPE  H16X19349   2.520   2.854   4.178  0.1557 -0.2353  0.4746
  171SAPE  H16Y19350   2.632   2.993   4.175 -0.8108 -0.2387 -0.7311
  171SAPE  C31719351   2.536   2.964   4.366 -0.3706 -0.3036 -0.3446
  171SAPE  H17X19352   2.474   3.056   4.356 -2.0489 -1.5766 -2.4424
  171SAPE  H17Y19353   2.627   2.992   4.424  1.2368 -1.4080 -2.2250
  171SAPE  C31819354   2.457   2.858   4.439 -0.3556 -0.6468 -0.8567
  171SAPE  H18X19355   2.388   2.796   4.378 -0.0854 -1.3306 -0.4744
  171SAPE  H18Y19356   2.389   2.896   4.518  0.4212 -0.1373 -0.4187
  171SAPE  H18Z19357   2.514   2.769   4.471 -0.0789 -0.2399 -0.1872
  172SAPE     N19358   2.694   4.187   2.778  0.1478  0.0370  0.3743
  172SAPE   HN119359   2.733   4.206   2.873  1.7866 -0.8313 -0.0922
  172SAPE   HN219360   2.725   4.266   2.718  1.9466 -1.0750 -0.2278
  172SAPE   HN319361   2.590   4.180   2.780  0.0863  0.6096 -0.4512
  172SAPE   C1219362   2.780   4.077   2.718  0.9740 -0.2514  0.3255
  172SAPE  H12A19363   2.721   4.041   2.631  1.5967  0.4928 -0.4188
  172SAPE  H12B19364   2.790   3.996   2.793 -0.5293  0.0062  0.8389
  172SAPE   C1119365   2.913   4.127   2.660  0.0794 -0.3841  0.6800
  172SAPE  H11A19366   2.885   4.188   2.571  2.8224  0.8171  0.5433
  172SAPE  H11B19367   2.984   4.052   2.620 -0.1084  0.8389 -2.2335
  172SAPE     P19368   3.117   4.281   2.709  0.1504  0.1710 -0.1778
  172SAPE   O1319369   3.149   4.249   2.567  0.0249  0.5158  0.2280
  172SAPE   O1419370   3.114   4.422   2.737 -0.5559  0.4954  0.0682
  172SAPE   O1219371   2.978   4.219   2.757 -0.0615  0.8846 -0.4201
  172SAPE   O1119372   3.221   4.211   2.811 -0.6022  0.8372  0.1475
  172SAPE    C119373   3.229   4.067   2.798 -0.8581  0.1088  0.2995
  172SAPE    HA19374   3.221   4.033   2.692  2.3887 -0.1743  0.0339
  172SAPE    HB19375   3.337   4.046   2.818 -0.2822 -1.4150 -3.4409
  172SAPE    C219376   3.134   3.988   2.894  0.5526  0.7494 -0.5363
  172SAPE    HS19377   3.026   3.996   2.868 -0.0669 -2.3419  0.5942
  172SAPE   O2119378   3.168   4.026   3.032 -0.1085 -0.1174 -0.0651
  172SAPE   C2119379   3.063   4.037   3.112 -0.0965  0.4098 -0.7269
  172SAPE   O2219380   2.948   4.039   3.081  0.2415  0.1449  0.1090
  172SAPE   C2219381   3.117   4.046   3.259 -0.4376  0.2749 -0.1679
  172SAPE   H2R19382   3.220   4.087   3.257 -0.9758  1.6987 -1.0920
  172SAPE   H2S19383   3.059   4.129   3.307 -0.6754 -0.6335  1.1632
  172SAPE    C319384   3.162   3.843   2.860  0.4387  0.3160 -0.1895
  172SAPE    HX19385   3.268   3.808   2.863  1.2410  2.6358  1.2349
  172SAPE    HY19386   3.122   3.831   2.757  0.1055  1.8948 -0.2703
  172SAPE   O3119387   3.091   3.752   2.945  0.0363 -0.2224  0.4179
  172SAPE   C3119388   2.972   3.709   2.910  0.2731 -0.5843 -0.3574
  172SAPE   O3219389   2.904   3.759   2.821  0.3425  0.4160  0.2035
  172SAPE   C3219390   2.932   3.595   2.999  0.4287  0.2781  0.0745
  172SAPE   H2X19391   2.972   3.500   2.958 -1.2461  0.4592 -2.1343
  172SAPE   H2Y19392   2.821   3.594   2.990  0.3817  1.6435  0.1606
  172SAPE   C2319393   3.100   3.920   3.341  0.0068 -0.7617  0.3563
  172SAPE   H3R19394   3.199   3.872   3.358  0.7820  0.4133 -0.6967
  172SAPE   H3S19395   3.023   3.850   3.300 -1.3212 -0.2625  1.8934
  172SAPE   C2419396   3.040   3.946   3.475  0.0449  0.1333 -0.3493
  172SAPE   H4R19397   3.017   3.855   3.535 -2.5352  0.0659 -1.3071
  172SAPE   H4S19398   2.942   3.996   3.460 -0.4378 -1.1824 -1.9077
  172SAPE   C2519399   3.118   4.047   3.558  0.0576  0.4240 -0.0248
  172SAPE   H5R19400   3.181   4.122   3.507  1.4417 -1.8063 -1.8318
  172SAPE   C2619401   3.109   4.059   3.692  0.7885  0.1352  0.0061
  172SAPE   H6R19402   3.175   4.121   3.755  0.3577 -0.2333  0.8245
  172SAPE   C2719403   3.016   3.967   3.775  0.2318  0.1402  0.4808
  172SAPE   H7R19404   2.941   3.915   3.712  0.8510 -0.8480  0.5349
  172SAPE   H7S19405   2.950   4.015   3.850  1.3785 -0.5563  1.9763
  172SAPE   C2819406   3.097   3.852   3.827 -0.4262  0.1917  0.0004
  172SAPE   H8R19407   3.122   3.776   3.751  1.4910  0.3247  0.4517
  172SAPE   C2919408   3.148   3.847   3.952 -0.0663 -0.0153 -1.0023
  172SAPE   H9R19409   3.194   3.754   3.988  2.7163  1.7104  0.1756
  172SAPE  C21019410   3.136   3.962   4.054 -0.1465  0.1334  0.1000
  172SAPE  H10R19411   3.075   3.922   4.138 -0.5821  2.4159  0.9351
  172SAPE  H10S19412   3.075   4.046   4.014  0.5174 -0.1928 -1.7030
  172SAPE  C21119413   3.272   4.016   4.094 -0.5230  0.1378 -0.2452
  172SAPE  H11R19414   3.340   4.040   4.012  0.6409  0.1288  0.6850
  172SAPE  C21219415   3.308   4.043   4.219 -0.1917 -0.5857  0.5531
  172SAPE  H12R19416   3.407   4.089   4.236 -0.7206  2.0658 -2.4930
  172SAPE  C21319417   3.239   4.015   4.344 -0.1937 -0.2039  0.8236
  172SAPE  H13R19418   3.130   4.021   4.326 -0.4153  0.1707  2.2223
  172SAPE  H13S19419   3.267   4.096   4.415  0.5479 -1.4637  1.9934
  172SAPE  C21419420   3.273   3.879   4.397  0.5715 -0.3216 -0.4590
  172SAPE  H14R19421   3.230   3.798   4.336 -0.3231 -0.1915 -0.0118
  172SAPE  C21519422   3.346   3.848   4.502 -0.2295  0.2311 -0.0972
  172SAPE  H15R19423   3.341   3.745   4.539 -3.3153  0.7599  1.2813
  172SAPE  C21619424   3.428   3.940   4.585 -0.2745  0.2034 -0.1999
  172SAPE  H16R19425   3.357   3.991   4.655 -3.0756 -0.5351 -2.3229
  172SAPE  H16S19426   3.473   4.021   4.523  2.8663  0.5967  2.3459
  172SAPE  C21719427   3.531   3.862   4.669  0.4052 -0.0523 -0.3462
  172SAPE  H17R19428   3.610   3.925   4.716  0.1036 -0.3191  0.5425
  172SAPE  H17S19429   3.582   3.795   4.597  0.2462 -0.7623  0.1837
  172SAPE  C21819430   3.463   3.775   4.780 -0.0232 -0.5324  0.6083
  172SAPE  H18R19431   3.547   3.725   4.834  0.9756  0.5351  0.1007
  172SAPE  H18S19432   3.395   3.704   4.730 -1.2339  1.3151 -0.4949
  172SAPE  C21919433   3.369   3.843   4.886  0.0130 -0.8373  0.1678
  172SAPE  H19R19434   3.353   3.773   4.972 -0.9917  0.2552  0.8977
  172SAPE  H19S19435   3.264   3.857   4.852  0.0497  0.0491  0.3971
  172SAPE  C22019436   3.424   3.975   4.948 -0.7860 -0.8049  0.9797
  172SAPE  H20R19437   3.446   4.048   4.867  0.6918 -0.3247  1.7879
  172SAPE  H20S19438   3.526   3.962   4.990  0.8023  0.6217 -2.0894
  172SAPE  H20T19439   3.348   4.039   4.998 -1.3689 -0.3161 -0.4838
  172SAPE   C3319440   2.982   3.622   3.141 -0.2392 -0.3159  0.1012
  172SAPE   H3X19441   2.936   3.717   3.176  0.4969 -0.4712  1.5976
  172SAPE   H3Y19442   3.093   3.624   3.136 -0.1889  0.4141  1.1435
  172SAPE   C3419443   2.939   3.518   3.250 -0.5214 -0.7839 -0.5973
  172SAPE   H4X19444   2.988   3.419   3.239  1.1408 -0.2168  1.1213
  172SAPE   H4Y19445   2.832   3.490   3.241 -0.3269 -1.7708  0.0455
  172SAPE   C3519446   2.968   3.554   3.390  0.3214 -0.6378 -0.1181
  172SAPE   H5X19447   2.901   3.635   3.426  3.3002  2.0762 -0.2916
  172SAPE   H5Y19448   3.073   3.590   3.393  1.0046 -2.2315 -2.0407
  172SAPE   C3619449   2.931   3.435   3.475 -0.0952 -0.1179  0.1327
  172SAPE   H6X19450   2.987   3.347   3.438 -0.3157  0.3217 -1.3047
  172SAPE   H6Y19451   2.825   3.407   3.454 -0.6115  0.6566  1.5882
  172SAPE   C3719452   2.955   3.447   3.627  0.4395 -0.0983 -0.4442
  172SAPE   H7X19453   3.059   3.482   3.646  0.5795 -0.4961 -0.4807
  172SAPE   H7Y19454   2.940   3.351   3.681 -0.1548  2.0334  3.6144
  172SAPE   C3819455   2.868   3.555   3.689 -0.0120 -0.1534 -0.8131
  172SAPE   H8X19456   2.766   3.550   3.645 -0.9143 -0.4308  1.1916
  172SAPE   H8Y19457   2.905   3.659   3.678 -1.5340  0.4996 -0.1648
  172SAPE   C3919458   2.877   3.553   3.841  0.2526  0.0852 -0.6307
  172SAPE   H9X19459   2.984   3.550   3.869  0.3069 -1.8435 -0.8582
  172SAPE   H9Y19460   2.836   3.461   3.889 -0.3700  1.2049  1.0981
  172SAPE  C31019461   2.797   3.649   3.925  0.4676  0.3619  0.5635
  172SAPE  H10X19462   2.688   3.642   3.902  0.7310  0.8538 -0.9250
  172SAPE  H10Y19463   2.823   3.755   3.906 -0.5371  0.5746  0.3388
  172SAPE  C31119464   2.816   3.635   4.080  0.1009 -0.2793 -0.6981
  172SAPE  H11X19465   2.924   3.643   4.102  0.1034  2.0709 -1.2281
  172SAPE  H11Y19466   2.774   3.536   4.107 -2.0874  0.4145 -1.3080
  172SAPE  C31219467   2.739   3.742   4.163 -0.6428  0.7051 -0.5637
  172SAPE  H12X19468   2.630   3.727   4.151 -0.7708  0.8372  0.3699
  172SAPE  H12Y19469   2.771   3.839   4.117 -1.7120  0.9672 -0.7700
  172SAPE  C31319470   2.775   3.735   4.313  0.4829 -0.2830  0.4987
  172SAPE  H13X19471   2.783   3.631   4.352  0.2111 -0.8973 -1.0103
  172SAPE  H13Y19472   2.703   3.790   4.378 -1.0988 -2.0692  0.3429
  172SAPE  C31419473   2.914   3.789   4.349  0.5080  0.2874 -0.0865
  172SAPE  H14X19474   2.916   3.887   4.298 -0.7497 -0.7632 -2.3300
  172SAPE  H14Y19475   2.979   3.724   4.285  0.9319  1.1032 -0.5029
  172SAPE  C31519476   2.947   3.778   4.500 -0.3583  0.0479 -0.0828
  172SAPE  H15X19477   2.880   3.842   4.561  0.0680 -0.3511  0.8169
  172SAPE  H15Y19478   3.051   3.815   4.515  0.7336 -2.7053 -0.2927
  172SAPE  C31619479   2.935   3.641   4.559  0.0862 -0.3155 -0.2297
  172SAPE  H16X19480   3.010   3.582   4.502 -0.7992 -2.6528  0.8817
  172SAPE  H16Y19481   2.834   3.594   4.553  0.4182 -1.7393  3.1721
  172SAPE  C31719482   2.969   3.643   4.707  0.7274 -0.4026 -0.0259
  172SAPE  H17X19483   2.915   3.726   4.757  0.4225  0.7719 -2.1780
  172SAPE  H17Y19484   3.077   3.665   4.718  0.0130  2.9204  1.3233
  172SAPE  C31819485   2.952   3.512   4.779  0.1571  0.3143 -0.1820
  172SAPE  H18X19486   2.960   3.522   4.889 -0.9703  0.8970 -0.1411
  172SAPE  H18Y19487   3.012   3.429   4.735  0.7715 -1.5147  3.6862
  172SAPE  H18Z19488   2.847   3.484   4.755  0.8874 -0.4117 -2.7930
  173SLPC     N19489   4.368   0.479   6.877 -0.1441 -0.1511  0.1654
  173SLPC   C1319490   4.227   0.504   6.839 -0.5587  0.1313  0.1941
  173SLPC  H13A19491   4.222   0.586   6.769  2.6025  0.4911  0.2329
  173SLPC  H13B19492   4.179   0.412   6.811  1.4324 -1.2841  1.1872
  173SLPC  H13C19493   4.173   0.530   6.929 -2.3934  0.4132 -0.9430
  173SLPC   C1419494   4.369   0.354   6.963  0.3458  0.0956  1.0637
  173SLPC  H14A19495   4.304   0.370   7.049 -2.1905 -1.9427 -0.3384
  173SLPC  H14B19496   4.329   0.266   6.915 -0.5516  1.1074 -0.1135
  173SLPC  H14C19497   4.467   0.332   7.003  0.4774 -0.9185  0.2141
  173SLPC   C1519498   4.425   0.594   6.956 -0.0966  0.3240 -0.0094
  173SLPC  H15A19499   4.531   0.582   6.973  0.2147  1.3556 -1.0971
  173SLPC  H15B19500   4.413   0.681   6.893  2.0599  0.0448 -0.8922
  173SLPC  H15C19501   4.380   0.605   7.054  0.8559  0.4069  0.4346
  173SLPC   C1219502   4.455   0.449   6.759 -0.1396 -0.0037 -0.1405
  173SLPC  H12A19503   4.548   0.417   6.804 -0.5542 -0.4155  0.4287
  173SLPC  H12B19504   4.472   0.539   6.702  1.1244  1.0685  1.8049
  173SLPC   C1119505   4.413   0.335   6.666  0.5370 -0.7303 -0.1852
  173SLPC  H11A19506   4.464   0.339   6.567  0.0617  0.6160 -0.3919
  173SLPC  H11B19507   4.306   0.354   6.641  1.0791  0.2461 -1.9203
  173SLPC     P19508   4.579   0.153   6.763  0.3120  0.0420  0.3809
  173SLPC   O1319509   4.684   0.248   6.721 -0.5478 -0.2047 -0.7862
  173SLPC   O1419510   4.582   0.115   6.905  0.3351  0.3266  0.3592
  173SLPC   O1219511   4.438   0.217   6.737  0.6338  0.4184  0.4307
  173SLPC   O1119512   4.573   0.018   6.678 -0.5957 -0.1688  0.1918
  173SLPC    C119513   4.485  -0.007   6.566 -0.3728  0.0286  1.3726
  173SLPC    HA19514   4.455  -0.113   6.554 -2.9745  0.9505 -1.8622
  173SLPC    HB19515   4.391   0.052   6.568 -0.8923 -0.6898 -0.4685
  173SLPC    C219516   4.569   0.036   6.442 -0.6269  0.1901  0.4474
  173SLPC    HS19517   4.671  -0.001   6.466  0.9186  0.8327 -4.0464
  173SLPC   O2119518   4.564   0.171   6.406  0.0416  0.5181 -0.0049
  173SLPC   C2119519   4.679   0.220   6.370  0.1478 -0.5200 -0.5780
  173SLPC   O2219520   4.788   0.167   6.374  0.1760  0.2052 -0.5730
  173SLPC   C2219521   4.667   0.364   6.319  0.0071  0.3462  0.6326
  173SLPC   H2R19522   4.573   0.393   6.373  0.0695  0.6650  0.5704
  173SLPC   H2S19523   4.748   0.416   6.374  0.3652  1.3343 -0.7808
  173SLPC    C319524   4.517  -0.049   6.321  0.5721 -0.7067  0.1391
  173SLPC    HX19525   4.411  -0.020   6.303  1.2095  2.0052  0.3764
  173SLPC    HY19526   4.527  -0.154   6.356  1.2897 -0.3366  1.0813
  173SLPC   O3119527   4.589  -0.020   6.200 -0.2209 -0.6794 -0.2859
  173SLPC   C3119528   4.698  -0.095   6.183  0.3082 -1.2221 -0.6486
  173SLPC   O3219529   4.746  -0.165   6.266 -0.6390 -0.2430  0.1659
  173SLPC   C3219530   4.749  -0.077   6.043 -0.0987  0.2708 -0.7582
  173SLPC   H2X19531   4.859  -0.093   6.043 -0.2546 -1.1437  0.7942
  173SLPC   H2Y19532   4.746   0.030   6.016 -2.5217 -0.3239 -3.3550
  173SLPC   C2319533   4.679   0.398   6.174 -0.0703  0.5514  0.6442
  173SLPC   H3R19534   4.784   0.376   6.148 -0.6165 -0.2531 -1.0015
  173SLPC   H3S19535   4.657   0.507   6.165  0.7591  0.7993  1.5321
  173SLPC   C2419536   4.584   0.316   6.083 -0.4939 -0.1107  0.2826
  173SLPC   H4R19537   4.488   0.367   6.060 -0.8189 -0.9696 -0.3074
  173SLPC   H4S19538   4.565   0.222   6.138 -1.4295 -1.1180 -1.6537
  173SLPC   C2519539   4.653   0.282   5.953  0.8732  0.9134  0.2735
  173SLPC   H5R19540   4.604   0.188   5.919 -0.8758  1.6471  0.6532
  173SLPC   H5S19541   4.763   0.265   5.959  0.5336 -1.4790  0.7638
  173SLPC   C2619542   4.650   0.397   5.853 -0.4134 -0.5489 -0.6019
  173SLPC   H6R19543   4.689   0.488   5.903 -0.3724 -1.7287  1.6612
  173SLPC   H6S19544   4.542   0.407   5.830 -0.6980 -0.0722  0.8391
  173SLPC   C2719545   4.732   0.374   5.731  0.7451 -0.3096 -0.1905
  173SLPC   H7R19546   4.831   0.335   5.764  0.7914 -0.2657 -0.2745
  173SLPC   H7S19547   4.755   0.465   5.671  0.3664  0.2010  0.4352
  173SLPC   C2819548   4.670   0.268   5.643 -0.0470 -1.1231 -0.3347
  173SLPC   H8R19549   4.654   0.182   5.712  1.7089 -0.5231  0.8859
  173SLPC   H8S19550   4.747   0.234   5.569 -1.2497 -0.5307 -1.9095
  173SLPC   C2919551   4.551   0.319   5.571  0.9784 -0.1704  0.3913
  173SLPC   H9R19552   4.472   0.358   5.637 -0.1172 -0.4863 -0.6996
  173SLPC  C21019553   4.529   0.325   5.441  0.0013  0.1074 -0.0985
  173SLPC  H10R19554   4.442   0.371   5.393  0.0965 -2.3398 -2.8342
  173SLPC  C21119555   4.631   0.282   5.337 -0.4994  0.0927  0.9858
  173SLPC  H11R19556   4.603   0.179   5.309 -0.4630  0.7122 -1.5585
  173SLPC  H11S19557   4.733   0.287   5.381 -1.3654 -0.7681  3.2662
  173SLPC  C21219558   4.638   0.371   5.219  0.3309 -0.3203 -0.0006
  173SLPC  H12R19559   4.659   0.476   5.244  0.1353 -0.4436  0.7042
  173SLPC  C21319560   4.615   0.335   5.095  0.2325 -0.0200  1.1788
  173SLPC  H13R19561   4.631   0.409   5.015 -1.7192 -1.7851 -0.9683
  173SLPC  C21419562   4.590   0.193   5.045 -0.0795 -0.2039  0.2581
  173SLPC  H14R19563   4.486   0.185   5.008 -0.0318  0.4696 -0.0343
  173SLPC  H14S19564   4.608   0.114   5.120 -0.3741  0.1225  0.6750
  173SLPC  C21519565   4.666   0.154   4.913  1.0258  0.1018  0.7801
  173SLPC  H15R19566   4.637   0.224   4.832  0.2626  0.6539  1.5098
  173SLPC  H15S19567   4.620   0.060   4.876 -0.9125  0.9200  0.9663
  173SLPC  C21619568   4.818   0.141   4.920 -0.6048 -0.5881  0.8181
  173SLPC  H16R19569   4.840   0.073   5.005  0.9799 -1.2340 -0.0744
  173SLPC  H16S19570   4.862   0.239   4.949 -2.3875  0.2352  0.8609
  173SLPC  C21719571   4.870   0.093   4.781  0.7302  0.5603 -0.0575
  173SLPC  H17R19572   4.867   0.178   4.711 -0.5923 -1.5397 -2.7303
  173SLPC  H17S19573   4.804   0.012   4.743  0.2921  0.7056  0.3659
  173SLPC  C21819574   5.018   0.058   4.785 -0.0978  0.2334  0.0194
  173SLPC  H18R19575   5.040  -0.027   4.854  0.4092  1.3509  1.2720
  173SLPC  H18S19576   5.072   0.147   4.824  0.0947 -0.6353  1.8605
  173SLPC  H18T19577   5.051   0.022   4.685 -0.2848  0.2538 -0.0497
  173SLPC   C3319578   4.662  -0.158   5.951  0.2477 -0.0946  0.0886
  173SLPC   H3X19579   4.554  -0.139   5.969  0.3937 -0.0966  1.0220
  173SLPC   H3Y19580   4.682  -0.266   5.965 -1.0661 -0.1891  1.4756
  173SLPC   C3419581   4.693  -0.116   5.807  0.2011  0.6864  0.6158
  173SLPC   H4X19582   4.800  -0.129   5.780 -0.2111 -0.1694 -0.6863
  173SLPC   H4Y19583   4.670  -0.007   5.801 -0.6488  0.5196  0.6787
  173SLPC   C3519584   4.610  -0.188   5.707  0.0792  0.7705 -0.0871
  173SLPC   H5X19585   4.501  -0.186   5.727 -0.4742 -1.3259 -2.4355
  173SLPC   H5Y19586   4.644  -0.293   5.719  0.5534  0.9701  0.3847
  173SLPC   C3619587   4.640  -0.140   5.566  0.5002 -0.1018  0.4979
  173SLPC   H6X19588   4.746  -0.160   5.538  0.6669  0.6083  0.6059
  173SLPC   H6Y19589   4.626  -0.030   5.564 -0.9643 -0.2224  1.9039
  173SLPC   C3719590   4.553  -0.200   5.458  0.1012 -0.5562 -0.5110
  173SLPC   H7X19591   4.445  -0.181   5.473  0.1434  0.0314 -0.8747
  173SLPC   H7Y19592   4.579  -0.308   5.457  1.0193 -0.3490 -1.9193
  173SLPC   C3819593   4.589  -0.141   5.321  0.1719 -0.3963  0.2491
  173SLPC   H8X19594   4.700  -0.130   5.317  0.1980 -0.9156 -0.7693
  173SLPC   H8Y19595   4.539  -0.042   5.324  0.3157 -0.3187  0.1360
  173SLPC   C3919596   4.543  -0.230   5.209  0.2116  0.0767  0.0429
  173SLPC   H9X19597   4.439  -0.201   5.185  0.6856 -0.3377 -2.8691
  173SLPC   H9Y19598   4.541  -0.341   5.222 -0.7903 -0.1630 -1.9113
  173SLPC  C31019599   4.622  -0.207   5.076  0.0335 -0.6510 -0.4964
  173SLPC  H10X19600   4.613  -0.103   5.039 -0.0150 -1.1214 -1.8599
  173SLPC  H10Y19601   4.556  -0.261   5.004 -0.6687 -0.2025 -0.2002
  173SLPC  C31119602   4.761  -0.265   5.087  0.1551 -0.2442  0.0185
  173SLPC  H11X19603   4.737  -0.371   5.110 -0.3674 -0.2518 -0.5330
  173SLPC  H11Y19604   4.816  -0.216   5.170 -0.5809 -0.8118  0.8563
  173SLPC  C31219605   4.852  -0.256   4.966 -0.0713  0.5256 -0.2339
  173SLPC  H12X19606   4.943  -0.313   4.993 -1.3958 -1.9073 -0.6395
  173SLPC  H12Y19607   4.885  -0.153   4.938  0.4658  0.3972 -0.0860
  173SLPC  C31319608   4.788  -0.328   4.845 -0.1662 -0.1053  0.1307
  173SLPC  H13X19609   4.711  -0.260   4.803  0.0736  0.1014  0.0212
  173SLPC  H13Y19610   4.729  -0.415   4.882 -1.5911  0.8835  0.2716
  173SLPC  C31419611   4.893  -0.381   4.748  0.7740 -0.2853 -0.7325
  173SLPC  H14X19612   4.964  -0.433   4.815 -0.9285 -0.3939  1.1076
  173SLPC  H14Y19613   4.938  -0.293   4.699 -0.7279  0.3260 -1.0778
  173SLPC  C31519614   4.836  -0.478   4.644 -0.2931  0.2286 -0.2337
  173SLPC  H15X19615   4.749  -0.535   4.683 -0.1604 -0.1940 -0.5435
  173SLPC  H15Y19616   4.918  -0.551   4.624 -0.8289 -0.5230  0.2784
  173SLPC  C31619617   4.809  -0.412   4.512 -0.1207  0.0579  0.1375
  173SLPC  H16X19618   4.889  -0.335   4.503 -0.1605  0.0538 -0.2666
  173SLPC  H16Y19619   4.713  -0.357   4.525 -0.9377 -0.9636 -1.2912
  173SLPC  C31719620   4.803  -0.504   4.389 -0.2605  0.2573 -0.0018
  173SLPC  H17X19621   4.713  -0.569   4.387  0.6055 -1.0061  0.5815
  173SLPC  H17Y19622   4.890  -0.574   4.384  1.3723  2.2308 -0.3526
  173SLPC  C31819623   4.801  -0.423   4.266  0.4115 -0.7341  0.5169
  173SLPC  H18X19624   4.811  -0.475   4.168 -1.0213  1.6352 -1.0089
  173SLPC  H18Y19625   4.883  -0.348   4.265  0.6355 -0.8948  2.8359
  173SLPC  H18Z19626   4.708  -0.362   4.262  0.6845 -0.2618  1.2474
  174SLPC     N19627   1.365   1.978   6.604 -0.4751 -0.2658 -0.3294
  174SLPC   C1319628   1.369   1.845   6.528  0.0911  0.3113 -0.3096
  174SLPC  H13A19629   1.263   1.834   6.506  0.5015 -0.8477 -1.9130
  174SLPC  H13B19630   1.429   1.865   6.441 -1.1219  1.0425 -1.0014
  174SLPC  H13C19631   1.420   1.762   6.575  1.4081  0.4787 -1.3865
  174SLPC   C1419632   1.509   2.007   6.636  0.4495  0.6041 -0.2549
  174SLPC  H14A19633   1.519   2.087   6.707 -0.4480  0.0204  0.5469
  174SLPC  H14B19634   1.549   1.917   6.680 -1.4495 -0.9535 -1.5274
  174SLPC  H14C19635   1.566   2.038   6.549  2.5089  0.1327  0.8657
  174SLPC   C1519636   1.283   1.958   6.729 -0.2724  0.3370 -0.6093
  174SLPC  H15A19637   1.323   1.885   6.798 -0.3788  0.8608  0.0215
  174SLPC  H15B19638   1.270   2.047   6.788  2.5774 -0.7645  2.0034
  174SLPC  H15C19639   1.185   1.930   6.693 -0.8781 -0.8441  1.7103
  174SLPC   C1219640   1.286   2.084   6.521 -0.5892 -0.3142 -0.4427
  174SLPC  H12A19641   1.352   2.123   6.444 -1.2934 -1.9669 -1.9398
  174SLPC  H12B19642   1.259   2.169   6.581  0.6680 -0.6625  0.6732
  174SLPC   C1119643   1.160   2.039   6.451  0.2675  0.2341  0.3825
  174SLPC  H11A19644   1.176   1.956   6.379 -0.2203 -0.0764  0.6276
  174SLPC  H11B19645   1.126   2.126   6.390 -0.7222  0.0293  0.6198
  174SLPC     P19646   0.981   1.860   6.524  0.0787 -0.1400 -0.3665
  174SLPC   O1319647   1.088   1.758   6.546 -0.7694 -0.6353  0.2357
  174SLPC   O1419648   0.864   1.843   6.611 -0.0140  0.3848  0.0444
  174SLPC   O1219649   1.048   2.005   6.539  0.3495  0.1030  0.1667
  174SLPC   O1119650   0.934   1.856   6.368 -0.0283 -0.0180  0.1642
  174SLPC    C119651   0.836   1.942   6.311  0.4754 -0.5979  0.3223
  174SLPC    HA19652   0.792   2.008   6.390 -1.3040 -0.4094 -0.7664
  174SLPC    HB19653   0.873   2.018   6.239 -1.4037 -0.1577 -0.2454
  174SLPC    C219654   0.733   1.858   6.232 -0.1947  0.2696 -0.2160
  174SLPC    HS19655   0.686   1.790   6.306 -2.6406  1.2539 -0.7618
  174SLPC   O2119656   0.796   1.781   6.131  0.0474  0.0270 -0.0870
  174SLPC   C2119657   0.738   1.672   6.077 -0.2678 -0.9648  0.1476
  174SLPC   O2219658   0.626   1.627   6.110 -0.1186 -0.0948  0.1990
  174SLPC   C2219659   0.830   1.613   5.980 -0.0849  0.9755  1.2737
  174SLPC   H2R19660   0.851   1.685   5.898 -0.6048 -0.3452 -0.0555
  174SLPC   H2S19661   0.927   1.590   6.029  1.0724 -0.4065 -1.4560
  174SLPC    C319662   0.613   1.944   6.176  0.6365 -0.8310  0.6962
  174SLPC    HX19663   0.553   1.969   6.265  1.3669 -1.7680  1.4746
  174SLPC    HY19664   0.545   1.875   6.121 -1.9097  0.6048  1.8761
  174SLPC   O3119665   0.653   2.065   6.094  0.0037 -0.1775 -0.5433
  174SLPC   C3119666   0.591   2.171   6.124  0.1940  0.0459  0.3561
  174SLPC   O3219667   0.486   2.177   6.186  0.1269 -0.3251  0.4489
  174SLPC   C3219668   0.652   2.283   6.039 -0.3267  0.0567  0.2187
  174SLPC   H2X19669   0.641   2.267   5.929  1.9008 -1.3424  0.1244
  174SLPC   H2Y19670   0.761   2.273   6.057 -0.2735 -0.5242 -0.3970
  174SLPC   C2319671   0.785   1.483   5.912 -0.1361 -0.5994  0.3729
  174SLPC   H3R19672   0.684   1.509   5.874 -0.3049 -0.1973  1.0786
  174SLPC   H3S19673   0.777   1.395   5.980  4.3752 -0.9607  0.7468
  174SLPC   C2419674   0.870   1.439   5.794 -0.0478 -0.2125 -0.2421
  174SLPC   H4R19675   0.933   1.357   5.834 -1.6983 -0.9686  0.9150
  174SLPC   H4S19676   0.942   1.518   5.763  0.0747 -0.1916  0.0859
  174SLPC   C2519677   0.787   1.396   5.677 -0.5635 -0.1894  0.6015
  174SLPC   H5R19678   0.718   1.474   5.639 -0.6419 -0.3966  0.3102
  174SLPC   H5S19679   0.718   1.315   5.709 -0.5656 -1.3045 -1.9773
  174SLPC   C2619680   0.870   1.353   5.554  0.6034 -0.2602 -0.1929
  174SLPC   H6R19681   0.943   1.275   5.583  0.8592  0.3413  0.8228
  174SLPC   H6S19682   0.926   1.439   5.513 -0.4993 -0.6497 -2.7461
  174SLPC   C2719683   0.783   1.310   5.435 -0.1312  0.1569  0.0924
  174SLPC   H7R19684   0.727   1.398   5.396  1.8245  1.2881 -0.2794
  174SLPC   H7S19685   0.710   1.245   5.487  1.3686 -2.8712 -1.3663
  174SLPC   C2819686   0.844   1.229   5.319 -0.1289 -0.3493 -0.1287
  174SLPC   H8R19687   0.757   1.197   5.258  1.4397 -3.2101 -1.0644
  174SLPC   H8S19688   0.892   1.136   5.356  0.3911  0.0661  0.2580
  174SLPC   C2919689   0.940   1.324   5.250  1.0441  0.4714 -0.2821
  174SLPC   H9R19690   0.983   1.406   5.308  1.2766 -0.6213  1.1616
  174SLPC  C21019691   0.961   1.326   5.116 -0.7698  0.0373  0.4465
  174SLPC  H10R19692   1.033   1.399   5.076  0.7747 -2.2385 -1.1279
  174SLPC  C21119693   0.916   1.239   4.995 -0.4391 -0.3121 -0.2669
  174SLPC  H11R19694   0.924   1.136   5.037  0.1783  0.7040  2.2768
  174SLPC  H11S19695   1.000   1.235   4.922  0.5304  0.7082  0.7682
  174SLPC  C21219696   0.775   1.268   4.949 -0.2857  0.2118  0.3303
  174SLPC  H12R19697   0.709   1.290   5.034 -1.1621 -0.2041 -0.2214
  174SLPC  C21319698   0.729   1.260   4.822 -0.2193  0.2906 -0.4923
  174SLPC  H13R19699   0.621   1.280   4.812 -0.2113 -0.5072 -2.8237
  174SLPC  C21419700   0.815   1.213   4.717  0.0236 -0.2866  0.6743
  174SLPC  H14R19701   0.828   1.103   4.724 -2.1391 -0.7070 -0.9323
  174SLPC  H14S19702   0.917   1.256   4.723 -0.1786  0.4212 -0.6252
  174SLPC  C21519703   0.757   1.226   4.575 -0.1499 -0.1072 -0.2914
  174SLPC  H15R19704   0.839   1.183   4.514  2.5227  0.8863  2.3697
  174SLPC  H15S19705   0.752   1.331   4.538 -1.7973  0.0003  0.1560
  174SLPC  C21619706   0.618   1.161   4.539  0.2633 -0.0329  0.5074
  174SLPC  H16R19707   0.590   1.164   4.431 -0.8157 -0.4317  0.7593
  174SLPC  H16S19708   0.540   1.206   4.603  0.5790 -0.0460  0.8995
  174SLPC  C21719709   0.607   1.007   4.564  0.1568 -0.3047  0.2218
  174SLPC  H17R19710   0.500   0.984   4.546 -0.0582 -0.7025  1.9128
  174SLPC  H17S19711   0.623   0.991   4.672  0.6267  0.4320  0.2651
  174SLPC  C21819712   0.690   0.915   4.484 -0.3059  0.2211 -0.3015
  174SLPC  H18R19713   0.685   0.805   4.501 -1.1358 -0.3840 -3.7381
  174SLPC  H18S19714   0.797   0.945   4.480 -0.5398  1.4438  1.3614
  174SLPC  H18T19715   0.663   0.921   4.377  0.0065 -0.9132 -0.4570
  174SLPC   C3319716   0.603   2.428   6.052  0.0534  0.4935  0.7886
  174SLPC   H3X19717   0.632   2.458   6.155  0.3674  1.2228  0.4893
  174SLPC   H3Y19718   0.494   2.448   6.044  0.3359  2.3547  1.2871
  174SLPC   C3419719   0.673   2.519   5.957  0.2083  0.1826 -0.5463
  174SLPC   H4X19720   0.782   2.506   5.937  1.0188  4.5756  0.1265
  174SLPC   H4Y19721   0.668   2.622   5.999  0.4847 -0.7064  1.8321
  174SLPC   C3519722   0.600   2.524   5.822  0.1820  0.7726  0.7618
  174SLPC   H5X19723   0.492   2.524   5.848  0.5664  1.0490  2.4918
  174SLPC   H5Y19724   0.625   2.429   5.770  0.3589  0.4067  1.4989
  174SLPC   C3619725   0.633   2.652   5.751 -0.0752  0.0228  0.4975
  174SLPC   H6X19726   0.740   2.682   5.752 -0.0583  0.0266 -0.2982
  174SLPC   H6Y19727   0.580   2.737   5.799  1.2443  1.3337 -0.2777
  174SLPC   C3719728   0.596   2.652   5.598  0.0922 -0.1472 -0.3110
  174SLPC   H7X19729   0.535   2.741   5.572  0.3661  0.6863  1.7276
  174SLPC   H7Y19730   0.529   2.565   5.579 -2.1058  1.3962 -0.0383
  174SLPC   C3819731   0.726   2.651   5.512  0.3134  0.1102 -0.1364
  174SLPC   H8X19732   0.699   2.643   5.405 -2.4956 -0.5466  0.5593
  174SLPC   H8Y19733   0.786   2.560   5.536  1.9103  0.8050 -1.2766
  174SLPC   C3919734   0.816   2.771   5.521  0.5587  0.1222  0.0367
  174SLPC   H9X19735   0.868   2.767   5.620 -1.2608 -0.8858  1.0060
  174SLPC   H9Y19736   0.755   2.863   5.512 -0.4165 -0.5666 -0.5209
  174SLPC  C31019737   0.928   2.783   5.412  0.2083 -0.1945 -0.1649
  174SLPC  H10X19738   0.989   2.691   5.416  1.1731  0.3287 -1.7920
  174SLPC  H10Y19739   1.006   2.861   5.423  0.7716 -0.8907  0.8477
  174SLPC  C31119740   0.867   2.799   5.268 -0.1538  0.0794  0.1696
  174SLPC  H11X19741   0.786   2.873   5.284  0.4644  0.2685  2.8799
  174SLPC  H11Y19742   0.827   2.700   5.237  2.7218 -1.0167 -0.4500
  174SLPC  C31219743   0.948   2.841   5.149  0.4020  0.9131  0.0650
  174SLPC  H12X19744   0.995   2.751   5.103 -2.0463 -0.7375  0.6215
  174SLPC  H12Y19745   1.027   2.916   5.171  0.1711  1.5726 -1.2889
  174SLPC  C31319746   0.870   2.897   5.028  1.0107 -0.5026 -0.1193
  174SLPC  H13X19747   0.946   2.920   4.950  2.0202 -0.4118  0.8614
  174SLPC  H13Y19748   0.820   2.989   5.065 -0.1436 -0.0591 -2.5925
  174SLPC  C31419749   0.757   2.808   4.963 -0.6201  0.4083  0.1590
  174SLPC  H14X19750   0.691   2.748   5.030 -0.9940  0.7323  0.0807
  174SLPC  H14Y19751   0.813   2.722   4.920 -2.1515 -0.0528 -1.0017
  174SLPC  C31519752   0.665   2.882   4.865 -0.5721 -0.0354  0.4958
  174SLPC  H15X19753   0.716   2.974   4.829 -0.6596 -0.7222 -1.5016
  174SLPC  H15Y19754   0.569   2.913   4.912 -0.5157 -0.2708  0.7726
  174SLPC  C31619755   0.627   2.783   4.756  0.3596  0.0850 -0.1191
  174SLPC  H16X19756   0.604   2.683   4.798  2.2583 -0.4537 -0.2958
  174SLPC  H16Y19757   0.713   2.762   4.690  1.5654  0.8759  1.1262
  174SLPC  C31719758   0.515   2.814   4.666  0.2228 -0.4701 -0.2898
  174SLPC  H17X19759   0.515   2.770   4.564 -4.0598 -3.3077  0.6533
  174SLPC  H17Y19760   0.520   2.923   4.647 -0.6055 -0.0638  1.6411
  174SLPC  C31819761   0.383   2.779   4.721  0.4037 -0.2354  0.3373
  174SLPC  H18X19762   0.301   2.825   4.661  0.7813  0.9227  0.6818
  174SLPC  H18Y19763   0.378   2.839   4.814  2.7718 -0.4402  0.6397
  174SLPC  H18Z19764   0.366   2.671   4.741  1.1124 -0.4273 -0.0778
  175SLPC     N19765   5.354   5.547   7.079 -0.1607 -0.0540  0.1247
  175SLPC   C1319766   5.497   5.558   7.026 -0.5317 -0.2280  0.1898
  175SLPC  H13A19767   5.572   5.570   7.102  1.4500  0.5005 -1.7551
  175SLPC  H13B19768   5.524   5.470   6.970 -1.8678  1.9197 -4.3203
  175SLPC  H13C19769   5.518   5.630   6.948 -2.5171 -1.0870 -1.2357
  175SLPC   C1419770   5.310   5.679   7.125 -0.1272  0.2478 -0.0568
  175SLPC  H14A19771   5.381   5.731   7.187 -1.8441  1.7333  0.7900
  175SLPC  H14B19772   5.288   5.749   7.046  0.4302  0.7656  0.2390
  175SLPC  H14C19773   5.216   5.683   7.179  0.8228 -2.0016  1.8897
  175SLPC   C1519774   5.353   5.456   7.193 -0.2172 -0.2466 -0.1644
  175SLPC  H15A19775   5.401   5.501   7.278 -0.6150 -1.1501  0.5594
  175SLPC  H15B19776   5.254   5.421   7.220 -1.9974  4.6644  0.8285
  175SLPC  H15C19777   5.410   5.369   7.164 -1.6993 -1.4443  0.3916
  175SLPC   C1219778   5.271   5.492   6.962 -0.0975 -0.0048 -0.3990
  175SLPC  H12A19779   5.298   5.543   6.871 -0.8111 -1.8226 -1.7006
  175SLPC  H12B19780   5.165   5.503   6.979 -0.0514  0.2709 -0.2932
  175SLPC   C1119781   5.295   5.344   6.930  0.1793  0.2961  0.0372
  175SLPC  H11A19782   5.401   5.315   6.919 -0.3851 -1.6535 -0.7531
  175SLPC  H11B19783   5.249   5.314   6.833 -0.1491 -0.5792  0.4584
  175SLPC     P19784   5.064   5.269   7.047 -0.2154 -0.0018 -0.5137
  175SLPC   O1319785   5.032   5.163   7.150  0.1593  0.4845  0.1253
  175SLPC   O1419786   5.021   5.411   7.082 -0.2322  0.5897  1.0839
  175SLPC   O1219787   5.223   5.262   7.017  0.3191  0.0928 -0.3399
  175SLPC   O1119788   4.997   5.224   6.917 -0.2075  0.0503 -0.0633
  175SLPC    C119789   4.856   5.194   6.911  0.2972 -0.0365  0.6232
  175SLPC    HA19790   4.818   5.172   7.013 -0.0333 -1.3923  0.2348
  175SLPC    HB19791   4.811   5.293   6.889 -1.1461 -0.8713 -0.3046
  175SLPC    C219792   4.821   5.095   6.795 -0.3572 -0.2361 -0.2540
  175SLPC    HS19793   4.898   5.016   6.810 -0.1145 -0.0550 -0.5509
  175SLPC   O2119794   4.845   5.170   6.668 -0.7002  0.4446 -0.5020
  175SLPC   C2119795   4.876   5.094   6.565  0.1638  0.1278 -0.6157
  175SLPC   O2219796   4.921   4.980   6.571  0.1295 -0.0389  0.0741
  175SLPC   C2219797   4.863   5.163   6.432 -0.3171 -0.3162 -0.5960
  175SLPC   H2R19798   4.753   5.176   6.418 -0.2359  2.3984  0.7175
  175SLPC   H2S19799   4.920   5.256   6.453 -0.4651 -0.9580  3.4212
  175SLPC    C319800   4.675   5.050   6.815 -0.0536 -0.3492  0.0527
  175SLPC    HX19801   4.607   5.137   6.824 -0.5015 -0.7889  0.9392
  175SLPC    HY19802   4.673   4.992   6.909  1.0507  1.0102  0.9661
  175SLPC   O3119803   4.636   4.972   6.701  0.0131 -0.5728 -0.1586
  175SLPC   C3119804   4.651   4.843   6.701  0.0655 -0.6572  0.5850
  175SLPC   O3219805   4.716   4.777   6.775 -0.3251 -0.4975  1.0619
  175SLPC   C3219806   4.566   4.787   6.580  0.4476 -0.1751  0.0290
  175SLPC   H2X19807   4.466   4.836   6.582  0.6151  0.1448  1.7885
  175SLPC   H2Y19808   4.570   4.677   6.594 -3.0537 -0.6314 -1.4147
  175SLPC   C2319809   4.919   5.074   6.314  0.3480 -0.0355 -0.2993
  175SLPC   H3R19810   4.872   4.974   6.322  1.5500 -0.4777  2.0954
  175SLPC   H3S19811   5.029   5.060   6.321  0.3521  0.3762  0.5753
  175SLPC   C2419812   4.885   5.129   6.176 -0.0497 -0.2906 -0.1762
  175SLPC   H4R19813   4.913   5.236   6.168 -0.9776 -0.0592 -0.4487
  175SLPC   H4S19814   4.776   5.130   6.155  0.0200 -0.1847 -0.5457
  175SLPC   C2519815   4.949   5.037   6.066 -0.3702  0.0697 -0.4178
  175SLPC   H5R19816   4.948   4.928   6.086  1.5850 -0.4727 -2.7712
  175SLPC   H5S19817   5.058   5.057   6.074 -0.5240  0.7314  0.0375
  175SLPC   C2619818   4.898   5.078   5.926 -0.9783 -0.7949  0.7739
  175SLPC   H6R19819   4.787   5.072   5.930 -0.9863 -0.4155  1.1896
  175SLPC   H6S19820   4.932   4.996   5.859 -1.3752  0.9002 -1.6332
  175SLPC   C2719821   4.940   5.222   5.890  0.0049  0.1383 -1.0743
  175SLPC   H7R19822   5.050   5.231   5.902 -0.3666  2.1737  2.0091
  175SLPC   H7S19823   4.883   5.286   5.961  0.7096  0.0447 -0.3980
  175SLPC   C2819824   4.901   5.268   5.751 -0.4304  0.3070  0.0898
  175SLPC   H8R19825   4.917   5.378   5.745 -0.1711  0.3475  1.2212
  175SLPC   H8S19826   4.791   5.252   5.746 -0.3723  0.0276 -0.3254
  175SLPC   C2919827   4.978   5.192   5.644 -0.0915  0.0885 -0.2652
  175SLPC   H9R19828   5.071   5.141   5.675  0.6143  0.1942 -2.1284
  175SLPC  C21019829   4.936   5.157   5.522 -0.2338  0.5742 -0.2226
  175SLPC  H10R19830   4.998   5.082   5.471  0.2641 -0.4346  1.7502
  175SLPC  C21119831   4.808   5.190   5.458  0.7827  0.1730 -0.4637
  175SLPC  H11R19832   4.726   5.226   5.524  0.4139 -0.3457 -0.6360
  175SLPC  H11S19833   4.769   5.103   5.402  0.0318  0.2100 -0.0207
  175SLPC  C21219834   4.832   5.306   5.367 -0.4970  0.5214  0.8099
  175SLPC  H12R19835   4.863   5.397   5.420  0.5323 -0.1410  1.3846
  175SLPC  C21319836   4.795   5.320   5.240  0.2084 -0.5370  1.0241
  175SLPC  H13R19837   4.838   5.405   5.186  1.4157 -1.3588  0.6297
  175SLPC  C21419838   4.717   5.215   5.155  0.0941  0.1679  0.3097
  175SLPC  H14R19839   4.642   5.156   5.212 -2.4620  2.2220 -0.6988
  175SLPC  H14S19840   4.791   5.143   5.114  0.2842  0.3000  0.4155
  175SLPC  C21519841   4.665   5.290   5.027  0.3235  0.1837  0.1575
  175SLPC  H15R19842   4.578   5.352   5.059 -0.9067 -1.6767  0.5536
  175SLPC  H15S19843   4.631   5.207   4.963  1.9213 -0.4345  0.0595
  175SLPC  C21619844   4.773   5.358   4.937  0.1910 -0.4329  0.3342
  175SLPC  H16R19845   4.846   5.283   4.901  1.8524  1.0244  0.5817
  175SLPC  H16S19846   4.826   5.440   4.989 -2.6305  0.6870  1.6321
  175SLPC  C21719847   4.712   5.416   4.806  0.0873 -0.3116  0.4077
  175SLPC  H17R19848   4.674   5.516   4.837 -1.3711 -0.2821 -1.2631
  175SLPC  H17S19849   4.623   5.355   4.779  1.5457 -1.3651 -2.3871
  175SLPC  C21819850   4.812   5.423   4.688  0.9067  0.2680  0.1798
  175SLPC  H18R19851   4.910   5.467   4.716  1.2093  0.0150 -0.4520
  175SLPC  H18S19852   4.769   5.471   4.598 -2.3531 -1.0492  0.9194
  175SLPC  H18T19853   4.827   5.320   4.649  0.1844  0.6273 -1.1143
  175SLPC   C3319854   4.630   4.845   6.454  0.4249  0.2318 -0.2174
  175SLPC   H3X19855   4.740   4.833   6.453  0.3905 -0.4002 -2.6810
  175SLPC   H3Y19856   4.594   4.949   6.436  0.8906  0.4658  0.2027
  175SLPC   C3419857   4.582   4.770   6.329 -0.0323 -0.6566 -0.3808
  175SLPC   H4X19858   4.478   4.735   6.342 -0.2664  0.0944 -0.1543
  175SLPC   H4Y19859   4.642   4.678   6.315 -0.4176 -0.9310 -0.2366
  175SLPC   C3519860   4.596   4.853   6.198  0.1075 -0.0295  0.1137
  175SLPC   H5X19861   4.694   4.895   6.168 -0.4836  0.2424 -1.5399
  175SLPC   H5Y19862   4.533   4.944   6.200 -0.1266 -0.1332 -1.4323
  175SLPC   C3619863   4.556   4.760   6.085  0.3434 -0.4952  0.1105
  175SLPC   H6X19864   4.455   4.725   6.114  0.3217 -0.5652 -0.0492
  175SLPC   H6Y19865   4.627   4.675   6.071  0.1812 -0.3343 -2.0796
  175SLPC   C3719866   4.544   4.825   5.945  0.8758 -0.3072  0.0467
  175SLPC   H7X19867   4.646   4.853   5.913  0.1435 -0.1026 -2.2379
  175SLPC   H7Y19868   4.491   4.923   5.944  1.9544  0.3001  0.6044
  175SLPC   C3819869   4.482   4.729   5.839 -0.5669 -0.5807 -0.8264
  175SLPC   H8X19870   4.385   4.691   5.876  0.3758 -1.4257  0.9703
  175SLPC   H8Y19871   4.549   4.639   5.837  0.8662  0.4474 -0.9115
  175SLPC   C3919872   4.469   4.793   5.707 -0.6505 -0.1921 -0.1475
  175SLPC   H9X19873   4.560   4.851   5.679  0.8604 -2.4950 -0.2686
  175SLPC   H9Y19874   4.380   4.859   5.695 -1.1349 -0.8294 -0.1084
  175SLPC  C31019875   4.458   4.692   5.586 -0.0808  0.6247  0.1978
  175SLPC  H10X19876   4.359   4.646   5.605  0.0592 -0.1873 -0.9315
  175SLPC  H10Y19877   4.547   4.626   5.591  0.5062  1.2178 -1.6873
  175SLPC  C31119878   4.447   4.770   5.460 -0.0263 -0.1052  0.1095
  175SLPC  H11X19879   4.526   4.847   5.446  0.1073 -0.4367 -1.1307
  175SLPC  H11Y19880   4.348   4.820   5.466  0.3230  0.4811  1.2296
  175SLPC  C31219881   4.447   4.672   5.343 -0.7156 -0.4588 -0.3162
  175SLPC  H12X19882   4.348   4.625   5.364 -0.1917 -1.9983 -1.0773
  175SLPC  H12Y19883   4.525   4.594   5.355  0.8475  1.4426  3.3613
  175SLPC  C31319884   4.438   4.738   5.202  0.0349  0.0988 -0.1998
  175SLPC  H13X19885   4.525   4.804   5.184  0.2685 -0.3102 -0.5996
  175SLPC  H13Y19886   4.351   4.807   5.193  1.8731  2.2034 -3.6898
  175SLPC  C31419887   4.401   4.634   5.095 -0.5839  0.5360  0.7706
  175SLPC  H14X19888   4.298   4.595   5.107  0.5057 -3.5766 -1.5541
  175SLPC  H14Y19889   4.475   4.553   5.106 -1.4028 -0.0183  2.4355
  175SLPC  C31519890   4.397   4.687   4.951  0.1504 -0.4325  0.1135
  175SLPC  H15X19891   4.493   4.743   4.951 -1.1875  2.0119  1.0107
  175SLPC  H15Y19892   4.309   4.755   4.941 -1.0061 -1.5781  1.9029
  175SLPC  C31619893   4.405   4.578   4.842  0.8136  0.2152  0.2951
  175SLPC  H16X19894   4.301   4.542   4.829 -0.1082  2.6994  0.4571
  175SLPC  H16Y19895   4.477   4.501   4.880 -1.6954 -1.5379  1.8129
  175SLPC  C31719896   4.471   4.627   4.709 -0.0758 -0.0984 -0.1213
  175SLPC  H17X19897   4.578   4.654   4.724  0.3268 -1.5466 -0.2563
  175SLPC  H17Y19898   4.406   4.717   4.701 -1.9036 -0.9345  3.2405
  175SLPC  C31819899   4.447   4.532   4.593  1.0326  0.4940 -0.0959
  175SLPC  H18X19900   4.488   4.430   4.608 -1.1166 -0.8169 -2.4068
  175SLPC  H18Y19901   4.484   4.576   4.498  1.2792 -1.6890 -1.0650
  175SLPC  H18Z19902   4.336   4.531   4.586  0.8995  1.5173  1.5089
  176SLPC     N19903   5.612   1.660   6.813 -0.8667  0.3494 -0.4643
  176SLPC   C1319904   5.675   1.590   6.937  0.6501  1.2764  0.0025
  176SLPC  H13A19905   5.635   1.636   7.026 -3.7476 -0.6626 -0.7192
  176SLPC  H13B19906   5.645   1.486   6.928  2.4259  0.6625  0.6488
  176SLPC  H13C19907   5.783   1.583   6.940  0.5983  0.5047  0.3378
  176SLPC   C1419908   5.644   1.580   6.691 -0.0051 -0.6139  0.0113
  176SLPC  H14A19909   5.614   1.477   6.693 -1.5618 -0.1824  0.5690
  176SLPC  H14B19910   5.608   1.621   6.598 -1.4119 -3.2528 -0.6952
  176SLPC  H14C19911   5.751   1.589   6.676  0.4507 -0.2361  2.9413
  176SLPC   C1519912   5.677   1.795   6.800  0.3647  0.0842 -0.4610
  176SLPC  H15A19913   5.679   1.849   6.893  1.8690  0.8409 -0.9017
  176SLPC  H15B19914   5.772   1.791   6.749  0.3512  1.0965 -0.5886
  176SLPC  H15C19915   5.609   1.854   6.740  1.4931  0.7548 -1.1243
  176SLPC   C1219916   5.461   1.677   6.832 -0.0291  0.5396  0.1699
  176SLPC  H12A19917   5.442   1.753   6.758  0.6285  2.6435  2.0579
  176SLPC  H12B19918   5.444   1.731   6.924 -1.5247 -0.6681  0.6449
  176SLPC   C1119919   5.364   1.557   6.819  0.2592  0.8850  0.7339
  176SLPC  H11A19920   5.404   1.505   6.729  0.9577  1.6163  0.6096
  176SLPC  H11B19921   5.257   1.584   6.806 -0.9263 -2.9183  1.3826
  176SLPC     P19922   5.312   1.474   7.059  0.3455 -0.0038 -0.3679
  176SLPC   O1319923   5.401   1.413   7.164  0.5338  1.0231 -0.2971
  176SLPC   O1419924   5.273   1.616   7.091 -0.0785  0.3979  0.0055
  176SLPC   O1219925   5.388   1.457   6.923  0.4855 -0.3362 -0.2487
  176SLPC   O1119926   5.170   1.396   7.060 -0.5832 -0.4911 -0.2148
  176SLPC    C119927   5.169   1.248   7.040  0.0093  0.2689 -0.2497
  176SLPC    HA19928   5.267   1.204   7.011 -0.1971 -0.0795 -0.4381
  176SLPC    HB19929   5.148   1.208   7.141 -1.1425  1.6140  0.0835
  176SLPC    C219930   5.049   1.193   6.952  0.0665 -0.3211  0.4616
  176SLPC    HS19931   5.059   1.083   6.962  0.6730 -0.4385 -1.2361
  176SLPC   O2119932   5.068   1.229   6.816  0.1596  0.3350  0.1021
  176SLPC   C2119933   5.186   1.202   6.759  0.3475  0.3889 -0.0774
  176SLPC   O2219934   5.273   1.137   6.809 -0.7089 -0.3381  0.2378
  176SLPC   C2219935   5.170   1.234   6.611 -0.5670 -0.1233  0.1327
  176SLPC   H2R19936   5.094   1.160   6.577 -1.2210  0.3738  0.4961
  176SLPC   H2S19937   5.120   1.332   6.602  0.2145  0.1269 -1.8843
  176SLPC    C319938   4.906   1.225   7.004  0.1956 -0.2208  0.4297
  176SLPC    HX19939   4.919   1.220   7.115  1.5070 -0.8235  0.2617
  176SLPC    HY19940   4.827   1.149   6.984 -1.4663  1.6199 -0.3409
  176SLPC   O3119941   4.869   1.360   6.979 -0.4322  0.2166 -0.1506
  176SLPC   C3119942   4.789   1.375   6.873 -0.0626 -0.2903  0.2036
  176SLPC   O3219943   4.740   1.282   6.812 -0.2960 -0.6896 -0.3163
  176SLPC   C3219944   4.767   1.525   6.844  0.0213 -0.3928 -0.3746
  176SLPC   H2X19945   4.827   1.582   6.918 -4.0313  1.2561  2.0018
  176SLPC   H2Y19946   4.659   1.542   6.865  0.0300 -1.0172  0.1835
  176SLPC   C2319947   5.298   1.230   6.529  0.3546  0.3509  0.5935
  176SLPC   H3R19948   5.339   1.127   6.523  1.3358  0.7323  0.4347
  176SLPC   H3S19949   5.366   1.284   6.599  1.7569  0.9769 -1.1517
  176SLPC   C2419950   5.286   1.289   6.397 -0.7353  0.2188 -0.1261
  176SLPC   H4R19951   5.385   1.299   6.348 -0.1639 -2.0117  0.4429
  176SLPC   H4S19952   5.234   1.387   6.399  0.2117  0.7384 -0.4048
  176SLPC   C2519953   5.215   1.185   6.303 -0.2710  0.2658 -0.7867
  176SLPC   H5R19954   5.107   1.183   6.326 -0.0132  3.2166  1.3244
  176SLPC   H5S19955   5.258   1.086   6.331  3.6759  1.7635 -0.8399
  176SLPC   C2619956   5.244   1.199   6.153  0.0789 -0.1364  0.9108
  176SLPC   H6R19957   5.352   1.204   6.128 -0.2172 -1.1173 -0.7752
  176SLPC   H6S19958   5.205   1.298   6.120 -0.0211 -0.1431  1.0099
  176SLPC   C2719959   5.165   1.106   6.058 -0.4474  0.2901  0.1125
  176SLPC   H7R19960   5.058   1.107   6.089 -0.5017 -1.6285  0.0927
  176SLPC   H7S19961   5.196   0.999   6.064 -1.4307 -0.0438 -0.5287
  176SLPC   C2819962   5.147   1.140   5.909  0.5739 -0.6232 -0.1998
  176SLPC   H8R19963   5.107   1.244   5.917  0.6821 -0.4925 -1.1519
  176SLPC   H8S19964   5.072   1.071   5.865 -1.1558  0.0027  1.6158
  176SLPC   C2919965   5.281   1.146   5.842 -0.6914 -0.1317 -0.2499
  176SLPC   H9R19966   5.364   1.149   5.914 -0.6998  0.5712 -0.2686
  176SLPC  C21019967   5.310   1.137   5.709 -0.0581 -0.5999 -0.1851
  176SLPC  H10R19968   5.413   1.142   5.670  0.2408  1.1057  0.6997
  176SLPC  C21119969   5.220   1.127   5.586  0.7361  0.2051  0.6072
  176SLPC  H11R19970   5.256   1.196   5.507 -0.8679 -1.0780 -1.3350
  176SLPC  H11S19971   5.121   1.167   5.616  0.6522 -1.8735  3.4803
  176SLPC  C21219972   5.178   0.994   5.533 -0.3045  0.0327 -0.0861
  176SLPC  H12R19973   5.136   0.924   5.607 -0.8900 -0.6660 -1.0625
  176SLPC  C21319974   5.204   0.945   5.407 -0.3396 -0.7092  0.1992
  176SLPC  H13R19975   5.174   0.845   5.373 -0.3296 -0.1132 -1.6659
  176SLPC  C21419976   5.250   1.033   5.292 -0.0357  0.7900  0.9024
  176SLPC  H14R19977   5.359   1.024   5.274  0.0350 -0.7017  1.9333
  176SLPC  H14S19978   5.225   1.139   5.313  1.4902  1.5800 -0.9286
  176SLPC  C21519979   5.180   1.003   5.157  0.0491  0.0856  0.5254
  176SLPC  H15R19980   5.200   0.896   5.136 -0.6277  0.3318 -1.5791
  176SLPC  H15S19981   5.230   1.062   5.078 -0.2729 -0.0881  0.1903
  176SLPC  C21619982   5.029   1.021   5.149 -0.5424  0.3136 -1.1847
  176SLPC  H16R19983   4.998   1.127   5.165  2.1783  0.9705  0.3152
  176SLPC  H16S19984   4.986   0.969   5.237  0.6767 -1.5103 -1.6064
  176SLPC  C21719985   4.955   0.968   5.018 -0.3685  0.8954  0.2912
  176SLPC  H17R19986   4.967   0.859   5.030 -1.7623  0.7677  0.7287
  176SLPC  H17S19987   5.015   0.995   4.928  3.2204 -0.6419  2.0586
  176SLPC  C21819988   4.801   1.000   5.009 -0.6465 -0.5634  0.0645
  176SLPC  H18R19989   4.754   0.939   5.089 -0.3154  1.0430  1.5412
  176SLPC  H18S19990   4.769   0.971   4.907 -2.0300  1.3606 -0.1007
  176SLPC  H18T19991   4.791   1.106   5.041 -0.8665 -0.2356 -1.0601
  176SLPC   C3319992   4.789   1.573   6.695  0.1200  0.0665 -0.1721
  176SLPC   H3X19993   4.758   1.679   6.676  0.4600  0.5959  1.9868
  176SLPC   H3Y19994   4.720   1.517   6.628 -1.4117  2.2661 -0.5595
  176SLPC   C3419995   4.928   1.543   6.647 -1.1057  0.4705 -0.4507
  176SLPC   H4X19996   4.940   1.434   6.629  0.4379  0.1610  1.9587
  176SLPC   H4Y19997   5.001   1.574   6.725 -0.6579  0.5868 -0.9159
  176SLPC   C3519998   4.947   1.619   6.516 -0.2099  0.1409 -0.6800
  176SLPC   H5X19999   5.055   1.626   6.490 -0.4284 -0.4206 -1.8006
  176SLPC   H5Y20000   4.899   1.719   6.516 -0.4201  0.0919  1.2916
  176SLPC   C3620001   4.876   1.539   6.404  0.4593  0.2249 -0.1917
  176SLPC   H6X20002   4.774   1.517   6.441  0.3927  2.2020  0.8984
  176SLPC   H6Y20003   4.930   1.442   6.405  0.5610  0.2750  1.8681
  176SLPC   C3720004   4.900   1.599   6.262 -0.5494 -0.4996 -0.6257
  176SLPC   H7X20005   4.862   1.703   6.272 -0.3467 -0.5946  1.4971
  176SLPC   H7Y20006   4.836   1.546   6.188 -0.9261  1.7647 -2.0083
  176SLPC   C3820007   5.048   1.610   6.217  0.7180 -0.2883  0.1153
  176SLPC   H8X20008   5.106   1.515   6.225  2.1489  0.4314 -1.2538
  176SLPC   H8Y20009   5.094   1.690   6.279 -0.8053  1.5606 -1.0232
  176SLPC   C3920010   5.047   1.674   6.077 -0.3797  0.1375  0.1854
  176SLPC   H9X20011   5.139   1.730   6.049 -2.3489  3.6493  0.2900
  176SLPC   H9Y20012   4.963   1.746   6.068  0.7048  1.2945 -1.2615
  176SLPC  C31020013   5.055   1.564   5.971  0.0929 -0.5164 -0.4580
  176SLPC  H10X20014   4.950   1.529   5.956 -0.0592  0.2835 -1.3684
  176SLPC  H10Y20015   5.101   1.468   6.005 -2.7945 -1.6237  0.6578
  176SLPC  C31120016   5.110   1.609   5.832  0.0544  0.0339 -0.1049
  176SLPC  H11X20017   5.219   1.624   5.845  1.3041 -4.4793 -3.1440
  176SLPC  H11Y20018   5.069   1.708   5.803  1.2920  0.1193 -1.6368
  176SLPC  C31220019   5.066   1.509   5.715 -0.4760 -0.8672 -0.8804
  176SLPC  H12X20020   4.955   1.507   5.712 -0.5224  0.7911 -1.0911
  176SLPC  H12Y20021   5.100   1.407   5.746 -0.8045 -0.9853 -0.9023
  176SLPC  C31320022   5.126   1.549   5.582  0.0774  0.8287  0.2145
  176SLPC  H13X20023   5.237   1.544   5.583  0.0608  0.5010  0.7164
  176SLPC  H13Y20024   5.102   1.655   5.558  0.9051  0.8065 -0.8066
  176SLPC  C31420025   5.073   1.468   5.457  0.1446 -0.4960  0.3488
  176SLPC  H14X20026   4.963   1.469   5.471 -0.1574 -2.0534 -1.5248
  176SLPC  H14Y20027   5.116   1.367   5.476  0.1434 -0.3033  1.4451
  176SLPC  C31520028   5.107   1.526   5.324 -0.3355 -0.4868  0.0452
  176SLPC  H15X20029   5.215   1.505   5.309  0.0047 -0.4896  2.2320
  176SLPC  H15Y20030   5.075   1.632   5.333 -1.7760 -0.9740  1.1967
  176SLPC  C31620031   5.024   1.469   5.210  0.2211 -0.2267 -0.1904
  176SLPC  H16X20032   4.927   1.516   5.233  0.5014 -0.3682  1.4049
  176SLPC  H16Y20033   5.012   1.359   5.217  0.4685 -0.1319  3.6956
  176SLPC  C31720034   5.073   1.531   5.083 -0.7839 -0.8483 -0.1708
  176SLPC  H17X20035   5.178   1.498   5.081 -0.6296 -0.8857  3.2155
  176SLPC  H17Y20036   5.073   1.642   5.092 -1.0698 -0.9856  2.0372
  176SLPC  C31820037   5.009   1.460   4.964 -0.0242  0.8283  0.9495
  176SLPC  H18X20038   4.899   1.472   4.965 -0.0725  0.3888  1.0300
  176SLPC  H18Y20039   5.037   1.353   4.961  1.7834  1.2813  0.1839
  176SLPC  H18Z20040   5.046   1.508   4.870  1.5723 -2.2167 -0.1155
  177SLPC     N20041   4.988   3.794   7.272 -0.8203 -0.0615  0.4594
  177SLPC   C1320042   4.923   3.899   7.365 -0.0332  0.4488 -0.5980
  177SLPC  H13A20043   4.870   3.979   7.316  0.5634  2.5712  1.9772
  177SLPC  H13B20044   4.852   3.843   7.425  1.8900 -1.2941  0.1699
  177SLPC  H13C20045   4.990   3.946   7.436  2.0832 -2.2520 -0.6516
  177SLPC   C1420046   4.882   3.731   7.185  0.2733  0.0860 -0.3889
  177SLPC  H14A20047   4.843   3.803   7.114  0.8266  0.3557 -0.4249
  177SLPC  H14B20048   4.912   3.635   7.144 -0.2624  0.3550 -1.4552
  177SLPC  H14C20049   4.802   3.700   7.251 -1.7746 -0.4416 -2.9450
  177SLPC   C1520050   5.042   3.676   7.351  0.3498 -0.3298 -0.9859
  177SLPC  H15A20051   5.132   3.712   7.398 -0.6166  1.6973 -0.6355
  177SLPC  H15B20052   4.974   3.640   7.427 -1.8296 -0.4179 -2.8624
  177SLPC  H15C20053   5.082   3.597   7.288 -1.0263 -1.8704 -0.0332
  177SLPC   C1220054   5.094   3.856   7.178 -0.3965 -0.4069  0.0436
  177SLPC  H12A20055   5.184   3.881   7.232 -0.5601 -1.6151  0.8936
  177SLPC  H12B20056   5.059   3.949   7.135  0.2506  0.2860  0.9905
  177SLPC   C1120057   5.162   3.766   7.060  0.1128 -0.2077  0.0286
  177SLPC  H11A20058   5.212   3.839   6.993 -1.2218 -0.4350 -1.2588
  177SLPC  H11B20059   5.078   3.728   6.998  1.7864 -0.9802 -1.8773
  177SLPC     P20060   5.373   3.610   7.070  0.1302 -0.0942 -0.2114
  177SLPC   O1320061   5.459   3.728   7.043 -0.2932 -0.3119 -0.1043
  177SLPC   O1420062   5.419   3.504   7.164 -0.3466  0.3079 -0.3196
  177SLPC   O1220063   5.233   3.662   7.122 -0.0959  0.3702  0.4741
  177SLPC   O1120064   5.348   3.545   6.933  0.0730  0.0083  0.0454
  177SLPC    C120065   5.228   3.472   6.904 -0.5965 -0.5144  0.2844
  177SLPC    HA20066   5.162   3.458   6.992  0.5955  0.6183  1.3958
  177SLPC    HB20067   5.175   3.518   6.818  3.1853 -0.0869 -2.0291
  177SLPC    C220068   5.253   3.336   6.844  0.2896  0.7772  0.8394
  177SLPC    HS20069   5.311   3.279   6.919  1.3593 -3.1655 -2.6168
  177SLPC   O2120070   5.332   3.355   6.725  0.1637 -0.4742 -0.3867
  177SLPC   C2120071   5.406   3.248   6.692  0.2716 -0.2495 -0.4425
  177SLPC   O2220072   5.410   3.142   6.753  0.5746  0.0409 -0.1803
  177SLPC   C2220073   5.483   3.268   6.566  0.5448  0.4573  0.3057
  177SLPC   H2R20074   5.468   3.371   6.526  0.8179 -0.0167 -1.0897
  177SLPC   H2S20075   5.590   3.239   6.574 -0.0088 -2.2910 -0.9439
  177SLPC    C320076   5.125   3.253   6.808 -1.0485  0.0683 -1.0303
  177SLPC    HX20077   5.073   3.225   6.902 -0.0625  1.2171 -0.1227
  177SLPC    HY20078   5.155   3.155   6.764 -2.9578 -1.6855  1.2513
  177SLPC   O3120079   5.038   3.324   6.723 -0.1145 -0.6998  0.3232
  177SLPC   C3120080   4.914   3.270   6.712  0.4087  0.5638 -0.4444
  177SLPC   O3220081   4.884   3.160   6.760 -0.3119 -0.1375 -0.3111
  177SLPC   C3220082   4.812   3.349   6.638 -0.8452 -0.1336  0.0234
  177SLPC   H2X20083   4.795   3.453   6.671  0.6848  0.0078  0.4460
  177SLPC   H2Y20084   4.714   3.296   6.643 -0.3313 -1.1767 -0.5463
  177SLPC   C2320085   5.445   3.161   6.454 -0.2826  0.0613 -0.3472
  177SLPC   H3R20086   5.459   3.063   6.505  1.5729  0.8937  0.8342
  177SLPC   H3S20087   5.520   3.157   6.373 -0.4917 -0.7721 -0.5112
  177SLPC   C2420088   5.314   3.197   6.394  0.6546  0.5609 -0.1714
  177SLPC   H4R20089   5.325   3.287   6.329  0.8745 -0.1606 -1.1496
  177SLPC   H4S20090   5.232   3.211   6.468  0.2122  0.3563 -0.6167
  177SLPC   C2520091   5.260   3.088   6.303  0.2907 -0.5184  0.1397
  177SLPC   H5R20092   5.254   2.996   6.364 -0.9505 -0.6628 -0.1729
  177SLPC   H5S20093   5.334   3.078   6.221  2.1184  0.7391  1.5680
  177SLPC   C2620094   5.127   3.122   6.238 -0.3420 -0.0547 -0.0952
  177SLPC   H6R20095   5.132   3.217   6.180  0.9775  1.6137  2.5763
  177SLPC   H6S20096   5.047   3.137   6.314  1.6024  0.9648  1.8435
  177SLPC   C2720097   5.095   3.009   6.144 -0.2985  0.4728  0.5545
  177SLPC   H7R20098   5.085   2.910   6.195  0.6825 -1.2859 -2.4281
  177SLPC   H7S20099   5.184   2.995   6.080 -0.4957 -1.5234  0.6331
  177SLPC   C2820100   4.976   3.032   6.046 -0.1617  0.1409 -0.2512
  177SLPC   H8R20101   4.992   3.130   5.997 -0.6969  0.3064 -0.1049
  177SLPC   H8S20102   4.883   3.048   6.106  0.9480 -0.5499  1.7671
  177SLPC   C2920103   4.952   2.920   5.939  0.0549 -0.7000 -0.3375
  177SLPC   H9R20104   4.911   2.827   5.982  1.3678 -0.5699  1.3207
  177SLPC  C21020105   4.968   2.941   5.807  0.3767 -0.0078 -0.2644
  177SLPC  H10R20106   4.952   2.856   5.739 -0.1802  0.1695 -0.3666
  177SLPC  C21120107   5.025   3.059   5.735 -0.3923  0.4823 -0.4636
  177SLPC  H11R20108   4.985   3.144   5.793 -0.8548 -0.5712  0.8121
  177SLPC  H11S20109   4.999   3.061   5.627 -1.6377 -2.2045 -0.3004
  177SLPC  C21220110   5.173   3.054   5.746  0.0460 -0.4320  0.2062
  177SLPC  H12R20111   5.214   2.990   5.826  1.0874  0.7025  0.6147
  177SLPC  C21320112   5.268   3.127   5.677 -0.0866 -0.1170  0.2139
  177SLPC  H13R20113   5.375   3.112   5.698  0.0166  1.7543  1.2680
  177SLPC  C21420114   5.241   3.234   5.575  0.0905 -0.2661 -0.2699
  177SLPC  H14R20115   5.277   3.334   5.604  1.5749 -0.4137 -1.4519
  177SLPC  H14S20116   5.131   3.242   5.570  0.0496 -1.0138 -0.9944
  177SLPC  C21520117   5.299   3.202   5.431  0.4113 -0.1506  0.6128
  177SLPC  H15R20118   5.407   3.180   5.442  0.6960  0.8938  0.0221
  177SLPC  H15S20119   5.264   3.280   5.360 -2.0933  1.3572  3.2749
  177SLPC  C21620120   5.239   3.078   5.373 -0.7404  0.8048  0.1304
  177SLPC  H16R20121   5.135   3.068   5.410 -1.3074  1.6468 -1.1977
  177SLPC  H16S20122   5.286   2.983   5.408 -1.6935  0.6236  0.9712
  177SLPC  C21720123   5.264   3.085   5.228  0.1012  0.5227  0.9817
  177SLPC  H17R20124   5.232   3.180   5.182 -1.4401 -0.1466  0.6080
  177SLPC  H17S20125   5.198   3.004   5.190  0.1756  0.0528  1.8382
  177SLPC  C21820126   5.405   3.046   5.183  0.1835 -0.0608 -0.1385
  177SLPC  H18R20127   5.443   2.968   5.253 -0.2745 -1.6921 -1.6331
  177SLPC  H18S20128   5.470   3.132   5.211 -0.5146  0.1371  0.9401
  177SLPC  H18T20129   5.418   3.019   5.076  3.0918 -1.0841  0.3905
  177SLPC   C3320130   4.843   3.358   6.480 -0.6520 -0.5837 -0.6762
  177SLPC   H3X20131   4.858   3.255   6.442 -1.6586 -0.7837 -0.5632
  177SLPC   H3Y20132   4.935   3.419   6.473 -0.8454 -0.1924  0.1193
  177SLPC   C3420133   4.725   3.420   6.415 -0.5102 -0.1580 -0.3826
  177SLPC   H4X20134   4.637   3.397   6.479 -0.2354 -0.5553 -0.1454
  177SLPC   H4Y20135   4.715   3.368   6.317 -0.4885 -3.0456  1.0313
  177SLPC   C3520136   4.738   3.580   6.401 -0.1311  0.3681 -0.1848
  177SLPC   H5X20137   4.824   3.622   6.345  0.0171 -0.7495 -0.8067
  177SLPC   H5Y20138   4.747   3.612   6.507  1.6723 -0.7109  0.0183
  177SLPC   C3620139   4.606   3.645   6.351  0.1511 -0.6602 -0.0108
  177SLPC   H6X20140   4.597   3.754   6.366 -0.6308 -0.6947 -0.2158
  177SLPC   H6Y20141   4.517   3.603   6.402 -1.5795  0.5512 -1.9180
  177SLPC   C3720142   4.592   3.623   6.201  0.1003  0.0913 -0.1758
  177SLPC   H7X20143   4.637   3.525   6.173 -0.5331 -0.5058  0.8295
  177SLPC   H7Y20144   4.670   3.687   6.154  2.0405 -0.4863  2.0294
  177SLPC   C3820145   4.450   3.638   6.148  0.0868 -0.0367 -0.4288
  177SLPC   H8X20146   4.409   3.738   6.173  0.3327  0.7343 -2.7885
  177SLPC   H8Y20147   4.393   3.558   6.199 -0.5461  0.7947  0.2051
  177SLPC   C3920148   4.435   3.623   5.994 -0.0455 -0.1120 -0.8191
  177SLPC   H9X20149   4.329   3.619   5.963  0.4033 -1.5123 -2.3130
  177SLPC   H9Y20150   4.489   3.530   5.966 -1.4136 -1.2578  0.1657
  177SLPC  C31020151   4.480   3.755   5.927  0.5690  0.4753 -1.5266
  177SLPC  H10X20152   4.580   3.786   5.963 -0.7684  3.0625  0.2490
  177SLPC  H10Y20153   4.418   3.839   5.966 -0.5310 -0.4703 -1.1654
  177SLPC  C31120154   4.474   3.734   5.775  0.1839 -0.6452 -0.2393
  177SLPC  H11X20155   4.379   3.700   5.727  1.6136  0.9092 -4.7284
  177SLPC  H11Y20156   4.549   3.653   5.757  1.4110  0.5176 -0.5381
  177SLPC  C31220157   4.529   3.854   5.697 -0.0396 -0.3045 -0.4273
  177SLPC  H12X20158   4.628   3.882   5.740 -0.1271 -2.1997  1.1468
  177SLPC  H12Y20159   4.459   3.935   5.725  0.8878  0.5185 -0.4211
  177SLPC  C31320160   4.537   3.820   5.550 -0.9349  0.8588  0.5306
  177SLPC  H13X20161   4.447   3.771   5.508  0.4344  1.1905 -3.1419
  177SLPC  H13Y20162   4.609   3.735   5.550  1.5606  2.8490  0.7259
  177SLPC  C31420163   4.585   3.932   5.464  0.2303 -0.1944 -0.1798
  177SLPC  H14X20164   4.690   3.960   5.487  0.5461 -1.0304 -0.5637
  177SLPC  H14Y20165   4.518   4.015   5.494  0.1951 -0.0342 -0.6832
  177SLPC  C31520166   4.569   3.890   5.314  0.1612 -0.3482 -0.1741
  177SLPC  H15X20167   4.570   3.974   5.241  3.1193 -0.2339 -0.1347
  177SLPC  H15Y20168   4.470   3.841   5.310 -0.4206  0.8563 -2.0066
  177SLPC  C31620169   4.688   3.802   5.264  0.1711  0.4491  0.2159
  177SLPC  H16X20170   4.673   3.709   5.323 -1.5387  0.7430  0.2908
  177SLPC  H16Y20171   4.788   3.840   5.292  0.6658 -0.5455 -0.1546
  177SLPC  C31720172   4.683   3.785   5.112 -0.0567 -0.2475  0.3748
  177SLPC  H17X20173   4.780   3.772   5.059 -0.3768  0.2879 -0.3727
  177SLPC  H17Y20174   4.641   3.883   5.081 -0.2164 -0.2580  0.5612
  177SLPC  C31820175   4.570   3.683   5.064  0.0229  0.2553  0.2239
  177SLPC  H18X20176   4.601   3.578   5.085 -1.7915 -0.2252  0.7192
  177SLPC  H18Y20177   4.547   3.699   4.957  3.5877  0.5227 -0.6313
  177SLPC  H18Z20178   4.477   3.698   5.124  1.1812  4.1612  1.3171
  178SLPC     N20179   1.804   1.083   6.814 -0.1922 -0.5243 -0.7800
  178SLPC   C1320180   1.677   1.004   6.839 -0.3221  0.3614 -0.4334
  178SLPC  H13A20181   1.678   0.957   6.936  0.1883 -1.5480 -1.2971
  178SLPC  H13B20182   1.595   1.072   6.823  0.6076  1.6678  0.1481
  178SLPC  H13C20183   1.662   0.928   6.764 -0.5544  0.0299 -0.0543
  178SLPC   C1420184   1.923   0.989   6.834 -0.2165 -0.0746  0.2730
  178SLPC  H14A20185   1.934   0.911   6.760  3.0981 -0.0930  0.6352
  178SLPC  H14B20186   2.006   1.056   6.846 -0.4426  0.5762 -1.4822
  178SLPC  H14C20187   1.924   0.935   6.928 -1.3252  1.6099  1.3025
  178SLPC   C1520188   1.809   1.190   6.924  0.0465  0.4512 -0.5845
  178SLPC  H15A20189   1.878   1.266   6.891  1.6512 -0.2023  1.0979
  178SLPC  H15B20190   1.710   1.231   6.934  0.0022  0.1301  0.3445
  178SLPC  H15C20191   1.839   1.157   7.022 -2.8470  0.5022  0.4209
  178SLPC   C1220192   1.805   1.148   6.678 -0.0896  0.2251  0.3201
  178SLPC  H12A20193   1.731   1.227   6.685  0.8892  1.1390  0.7440
  178SLPC  H12B20194   1.781   1.073   6.605 -1.4967 -0.1515  1.1428
  178SLPC   C1120195   1.935   1.223   6.645 -0.1949  0.7294 -0.0364
  178SLPC  H11A20196   1.928   1.229   6.535 -1.7634 -1.4249 -0.1227
  178SLPC  H11B20197   2.026   1.165   6.673 -0.7174  0.9046  2.2973
  178SLPC     P20198   1.870   1.472   6.665 -0.0020 -0.3823  0.1942
  178SLPC   O1320199   1.726   1.444   6.672 -0.3726 -0.4096 -0.1712
  178SLPC   O1420200   1.912   1.587   6.743 -0.1008  0.3991  0.6398
  178SLPC   O1220201   1.950   1.352   6.715 -0.4562  0.0647 -0.2316
  178SLPC   O1120202   1.912   1.493   6.510  0.3191  0.1140  0.3249
  178SLPC    C120203   1.871   1.610   6.443  0.3450  0.1225 -0.3971
  178SLPC    HA20204   1.762   1.614   6.423  0.4553 -0.0060 -1.0331
  178SLPC    HB20205   1.902   1.696   6.507 -1.2941  1.0896 -0.8552
  178SLPC    C220206   1.960   1.641   6.313  0.5042 -0.0636 -0.2828
  178SLPC    HS20207   1.933   1.741   6.275 -0.3284  0.8534  2.4893
  178SLPC   O2120208   1.947   1.540   6.214  0.2504 -0.0650  0.1926
  178SLPC   C2120209   1.832   1.513   6.154 -0.7273  0.1900  0.3642
  178SLPC   O2220210   1.729   1.575   6.153 -0.0371  0.4157 -0.0841
  178SLPC   C2220211   1.863   1.409   6.046  0.5333  0.2363 -0.0479
  178SLPC   H2R20212   1.973   1.404   6.029  0.3087  0.6382 -1.8928
  178SLPC   H2S20213   1.823   1.310   6.076 -0.0348  0.3406 -0.4351
  178SLPC    C320214   2.112   1.644   6.357 -0.4131 -0.1146 -0.9038
  178SLPC    HX20215   2.123   1.552   6.419 -1.5643 -1.6595 -2.8921
  178SLPC    HY20216   2.124   1.739   6.414 -0.3725 -0.2538 -0.6804
  178SLPC   O3120217   2.213   1.628   6.254  0.0177 -0.0350  0.2552
  178SLPC   C3120218   2.224   1.723   6.163  0.1494 -0.9368 -0.2319
  178SLPC   O3220219   2.173   1.836   6.172 -0.0291 -0.6499  0.2208
  178SLPC   C3220220   2.313   1.672   6.046  0.2326 -0.4429  0.0538
  178SLPC   H2X20221   2.334   1.567   6.074 -0.7075 -0.6056  0.1648
  178SLPC   H2Y20222   2.403   1.735   6.062 -0.4168  0.1657  1.5686
  178SLPC   C2320223   1.797   1.449   5.917  0.2172 -0.3693  0.4978
  178SLPC   H3R20224   1.814   1.556   5.893  0.0850 -0.6840 -1.1132
  178SLPC   H3S20225   1.688   1.429   5.924 -0.4354  2.1955 -1.2384
  178SLPC   C2420226   1.837   1.356   5.796 -0.0937  0.5762 -0.7669
  178SLPC   H4R20227   1.800   1.253   5.814 -1.1475  1.0673 -0.0337
  178SLPC   H4S20228   1.947   1.356   5.787  0.0178  1.3320  0.4108
  178SLPC   C2520229   1.775   1.402   5.658 -0.1266 -0.3025 -0.3046
  178SLPC   H5R20230   1.811   1.505   5.635  0.1720 -0.5308 -0.8733
  178SLPC   H5S20231   1.669   1.429   5.680  0.7349  2.1919  1.1568
  178SLPC   C2620232   1.782   1.311   5.534  0.0274 -0.2016 -0.1339
  178SLPC   H6R20233   1.701   1.330   5.460  1.3514  3.4413 -0.8445
  178SLPC   H6S20234   1.779   1.205   5.569  0.3474 -0.1630  0.0085
  178SLPC   C2720235   1.916   1.307   5.463 -0.4267  0.1093 -0.0515
  178SLPC   H7R20236   2.000   1.298   5.535  0.6809 -0.8948 -1.4130
  178SLPC   H7S20237   1.923   1.412   5.427 -0.7603 -0.2490 -1.2140
  178SLPC   C2820238   1.915   1.206   5.345 -0.2040 -0.1204  0.7182
  178SLPC   H8R20239   1.903   1.105   5.390  1.5573  0.2322  2.0890
  178SLPC   H8S20240   2.021   1.203   5.313 -0.7325  0.6396 -1.2247
  178SLPC   C2920241   1.816   1.234   5.229  0.3518 -0.7246 -0.5286
  178SLPC   H9R20242   1.735   1.303   5.256  0.3920 -1.0938  0.5965
  178SLPC  C21020243   1.845   1.204   5.099  0.0866  1.1493 -0.4949
  178SLPC  H10R20244   1.773   1.221   5.018  2.0194 -0.5070 -2.7020
  178SLPC  C21120245   1.971   1.135   5.059  0.0052  0.3308 -0.5116
  178SLPC  H11R20246   1.950   1.093   4.959  0.6888  0.6607 -0.8020
  178SLPC  H11S20247   1.991   1.049   5.126 -0.6021  0.7456  0.2215
  178SLPC  C21220248   2.091   1.227   5.036 -0.9963  0.7856 -0.2204
  178SLPC  H12R20249   2.101   1.324   5.087  1.9938  0.4284  0.0735
  178SLPC  C21320250   2.195   1.201   4.949 -0.3058  0.0190 -0.1871
  178SLPC  H13R20251   2.272   1.278   4.933 -0.2859  0.9879  3.6944
  178SLPC  C21420252   2.235   1.072   4.877  0.2661  0.3021  0.3194
  178SLPC  H14R20253   2.174   0.993   4.926  0.4541 -0.2411 -0.3055
  178SLPC  H14S20254   2.338   1.046   4.908  0.0977 -1.3262 -0.3605
  178SLPC  C21520255   2.210   1.079   4.730 -0.1661 -0.5147  0.3234
  178SLPC  H15R20256   2.252   0.990   4.681  1.9238  1.1414 -1.0679
  178SLPC  H15S20257   2.265   1.168   4.692 -1.3861  1.3796  2.6730
  178SLPC  C21620258   2.065   1.104   4.670 -0.1935 -0.7442  0.1456
  178SLPC  H16R20259   2.044   1.200   4.723 -2.1361 -0.1474 -1.5825
  178SLPC  H16S20260   1.991   1.029   4.705 -0.9638 -0.0666  0.0204
  178SLPC  C21720261   2.075   1.118   4.523  0.2371 -0.0696 -0.5065
  178SLPC  H17R20262   2.120   1.028   4.476 -1.9643 -0.2202 -2.4732
  178SLPC  H17S20263   2.143   1.201   4.493 -0.1758 -0.3356 -2.2451
  178SLPC  C21820264   1.940   1.148   4.464  0.1836  0.1920 -0.2041
  178SLPC  H18R20265   1.882   1.226   4.517  0.2936  1.0462 -1.2939
  178SLPC  H18S20266   1.880   1.057   4.488  0.9072 -0.0384  0.8067
  178SLPC  H18T20267   1.952   1.170   4.356 -0.3716 -1.3299 -0.6006
  178SLPC   C3320268   2.237   1.690   5.915  0.4741  0.2474  0.2458
  178SLPC   H3X20269   2.210   1.797   5.901  2.0795  0.9531  2.0557
  178SLPC   H3Y20270   2.141   1.634   5.907  0.2826  0.6758 -0.5927
  178SLPC   C3420271   2.323   1.652   5.798  0.0832  0.6949 -0.2474
  178SLPC   H4X20272   2.369   1.552   5.815  0.3514  0.9510  0.6140
  178SLPC   H4Y20273   2.410   1.720   5.783  0.0147  0.9347  0.4080
  178SLPC   C3520274   2.237   1.655   5.664  0.0104  0.1816 -0.4952
  178SLPC   H5X20275   2.239   1.755   5.617 -0.3326  0.6868  0.5407
  178SLPC   H5Y20276   2.131   1.633   5.687  0.4105 -1.7696 -0.2906
  178SLPC   C3620277   2.279   1.533   5.575  0.1504  0.7019 -0.0229
  178SLPC   H6X20278   2.244   1.446   5.633 -0.4401 -0.0370 -1.4328
  178SLPC   H6Y20279   2.386   1.533   5.544  0.6135  0.6118  1.5132
  178SLPC   C3720280   2.195   1.530   5.450  0.1289  0.1945  0.0879
  178SLPC   H7X20281   2.091   1.564   5.470  0.3095  1.5973 -1.1510
  178SLPC   H7Y20282   2.194   1.434   5.394 -0.8754 -0.7964  1.7227
  178SLPC   C3820283   2.240   1.648   5.356  0.0927 -0.1695 -0.5905
  178SLPC   H8X20284   2.351   1.644   5.359  0.0905 -0.5617 -0.9916
  178SLPC   H8Y20285   2.215   1.745   5.404  0.2676  1.2315 -3.1432
  178SLPC   C3920286   2.190   1.648   5.215 -0.2017  0.0980 -0.6121
  178SLPC   H9X20287   2.079   1.645   5.220 -0.1515 -0.6368  0.4347
  178SLPC   H9Y20288   2.219   1.557   5.159  0.0690  1.0393 -2.0471
  178SLPC  C31020289   2.248   1.765   5.122 -0.7603  0.6413  0.2313
  178SLPC  H10X20290   2.352   1.738   5.096 -0.8227  0.6684 -0.0438
  178SLPC  H10Y20291   2.236   1.865   5.169  1.7680  1.1061 -0.0094
  178SLPC  C31120292   2.179   1.778   4.991  0.3181  0.4087  0.5974
  178SLPC  H11X20293   2.074   1.811   5.004  0.6957  2.0167 -0.2181
  178SLPC  H11Y20294   2.179   1.687   4.927 -0.8044  0.5195  0.4138
  178SLPC  C31220295   2.241   1.887   4.901  1.0767 -0.2131 -0.3505
  178SLPC  H12X20296   2.240   1.981   4.960 -2.5263 -0.7265  0.6299
  178SLPC  H12Y20297   2.186   1.903   4.806  2.2173 -0.0582 -1.0073
  178SLPC  C31320298   2.380   1.874   4.852  0.4534  0.0249 -0.3202
  178SLPC  H13X20299   2.392   1.778   4.799  0.1529 -0.4537  0.4697
  178SLPC  H13Y20300   2.443   1.857   4.941 -0.3786 -1.8322 -0.0473
  178SLPC  C31420301   2.430   1.981   4.758 -0.2116 -0.4159 -0.1110
  178SLPC  H14X20302   2.405   2.078   4.808 -1.5657  0.0324 -1.5747
  178SLPC  H14Y20303   2.378   1.979   4.660  0.8645 -2.0803 -0.6728
  178SLPC  C31520304   2.581   1.978   4.743 -0.2744  0.2586 -0.2182
  178SLPC  H15X20305   2.619   1.881   4.706  1.9999  1.3050 -0.7767
  178SLPC  H15Y20306   2.616   1.986   4.849 -1.8344  1.7117  0.2469
  178SLPC  C31620307   2.652   2.091   4.665 -0.1863  0.5164  0.2294
  178SLPC  H16X20308   2.584   2.177   4.680 -0.3950  0.3058  0.5099
  178SLPC  H16Y20309   2.647   2.062   4.558 -2.7608 -0.3319  0.5082
  178SLPC  C31720310   2.793   2.111   4.726  0.8430  0.0701 -0.1026
  178SLPC  H17X20311   2.842   2.195   4.672 -0.4510  0.0391 -1.3659
  178SLPC  H17Y20312   2.838   2.011   4.709 -0.8779 -1.4394  3.2503
  178SLPC  C31820313   2.804   2.158   4.876 -0.2570  0.0090  0.3612
  178SLPC  H18X20314   2.870   2.247   4.882 -1.1315  0.7270 -0.4067
  178SLPC  H18Y20315   2.838   2.076   4.943  1.2637  1.7395  1.8346
  178SLPC  H18Z20316   2.704   2.169   4.923 -0.3410 -2.0827  0.8017
  179SLPC     N20317   4.543   3.481   2.372  0.2659  0.0743  0.4077
  179SLPC   C1320318   4.619   3.354   2.388  0.1036  0.1301 -0.1009
  179SLPC  H13A20319   4.657   3.306   2.299 -1.2715  0.4087 -0.8711
  179SLPC  H13B20320   4.704   3.377   2.450  0.2583  1.5855 -0.7997
  179SLPC  H13C20321   4.555   3.283   2.437  0.6538  0.2644  0.8495
  179SLPC   C1420322   4.434   3.475   2.262  0.4576  0.2450  0.5599
  179SLPC  H14A20323   4.362   3.397   2.277  1.5120 -0.8160  0.2401
  179SLPC  H14B20324   4.372   3.563   2.251 -0.5595 -0.5832 -0.6684
  179SLPC  H14C20325   4.486   3.471   2.167  0.3242  1.6995  0.3910
  179SLPC   C1520326   4.642   3.582   2.329  0.6329 -0.1387  0.1545
  179SLPC  H15A20327   4.594   3.676   2.304 -0.8350 -0.6774  0.8032
  179SLPC  H15B20328   4.729   3.593   2.392  1.7481 -3.0716 -0.7186
  179SLPC  H15C20329   4.692   3.557   2.237  1.2418  1.6693 -0.0454
  179SLPC   C1220330   4.481   3.516   2.499  0.0059 -1.1318 -0.3942
  179SLPC  H12A20331   4.560   3.550   2.564  1.8093 -1.8714 -2.1222
  179SLPC  H12B20332   4.441   3.427   2.545  1.6064 -1.4336  0.4622
  179SLPC   C1120333   4.381   3.641   2.507 -0.3909 -0.2296 -0.6959
  179SLPC  H11A20334   4.434   3.719   2.448  0.1058 -0.9460 -1.2014
  179SLPC  H11B20335   4.363   3.671   2.613 -0.7205  1.3424 -1.1696
  179SLPC     P20336   4.131   3.549   2.500  0.4175 -0.1034  0.1122
  179SLPC   O1320337   4.004   3.620   2.466 -0.0195  0.2849  0.9953
  179SLPC   O1420338   4.138   3.412   2.440  0.2270  0.1669  0.1530
  179SLPC   O1220339   4.259   3.625   2.454 -0.4862 -0.4463  1.0795
  179SLPC   O1120340   4.143   3.533   2.663 -0.0415  0.3864  0.3696
  179SLPC    C120341   4.044   3.607   2.737 -0.6907 -0.3207 -0.4044
  179SLPC    HA20342   3.938   3.580   2.718 -0.3949 -0.7560 -1.4576
  179SLPC    HB20343   4.045   3.567   2.841 -0.1723 -1.3825 -0.8078
  179SLPC    C220344   4.074   3.759   2.744 -0.7233  0.7047  0.7814
  179SLPC    HS20345   4.054   3.812   2.648  1.9534  0.3297 -0.0701
  179SLPC   O2120346   4.219   3.777   2.773 -0.6240 -0.1401  0.5973
  179SLPC   C2120347   4.266   3.901   2.756 -0.8748  0.2250 -0.1812
  179SLPC   O2220348   4.203   3.993   2.714 -0.3476 -0.4756 -0.1633
  179SLPC   C2220349   4.407   3.898   2.810 -0.1635 -0.0018 -0.1815
  179SLPC   H2R20350   4.421   3.842   2.904  2.9163 -0.7914 -0.9871
  179SLPC   H2S20351   4.463   3.833   2.739  1.8330  0.7154  0.6469
  179SLPC    C320352   3.995   3.820   2.858  0.0193  0.0432 -0.4285
  179SLPC    HX20353   3.886   3.815   2.837  0.2192  1.9522 -2.2304
  179SLPC    HY20354   4.011   3.930   2.863  0.9776 -0.1180  0.2847
  179SLPC   O3120355   4.031   3.758   2.986 -0.1944 -0.2973 -0.2108
  179SLPC   C3120356   4.003   3.827   3.095 -0.3312 -0.4262 -0.2410
  179SLPC   O3220357   3.931   3.922   3.100  0.5785 -0.2271  0.5509
  179SLPC   C3220358   4.091   3.780   3.212 -0.5256  0.0574 -0.3926
  179SLPC   H2X20359   4.135   3.879   3.239  0.3582 -0.0357 -1.4102
  179SLPC   H2Y20360   4.165   3.711   3.167 -0.9071  1.3444 -3.2256
  179SLPC   C2320361   4.475   4.036   2.829  0.5606  0.2225  0.3834
  179SLPC   H3R20362   4.473   4.093   2.733  1.5776  0.1940  0.3250
  179SLPC   H3S20363   4.586   4.030   2.840  0.7215  1.1755 -0.5165
  179SLPC   C2420364   4.399   4.116   2.939  0.2835  1.0179  0.0869
  179SLPC   H4R20365   4.297   4.133   2.899  0.2421  0.8100  0.1036
  179SLPC   H4S20366   4.442   4.219   2.945 -0.0024  1.2027 -0.8355
  179SLPC   C2520367   4.391   4.063   3.082 -0.1795 -0.0722  0.1117
  179SLPC   H5R20368   4.340   3.965   3.077  0.2949 -0.3828  1.0919
  179SLPC   H5S20369   4.327   4.124   3.149 -1.8783 -0.1574 -1.3684
  179SLPC   C2620370   4.526   4.033   3.150  0.2779  0.2451  0.1143
  179SLPC   H6R20371   4.585   4.124   3.168  0.9727 -0.2364  0.3074
  179SLPC   H6S20372   4.587   3.982   3.072 -1.4213 -0.9912 -0.4812
  179SLPC   C2720373   4.523   3.943   3.276  0.7365  0.1892 -0.8487
  179SLPC   H7R20374   4.449   3.989   3.345  0.5229 -2.0598  0.5443
  179SLPC   H7S20375   4.622   3.940   3.325 -0.3129 -0.8246  1.3440
  179SLPC   C2820376   4.474   3.802   3.254 -0.1836  0.4900  0.5510
  179SLPC   H8R20377   4.407   3.816   3.167  0.2343 -1.0746 -0.0381
  179SLPC   H8S20378   4.421   3.775   3.348 -0.9327 -1.6618 -0.4367
  179SLPC   C2920379   4.594   3.712   3.224  0.8199 -0.2491  0.1242
  179SLPC   H9R20380   4.642   3.736   3.128  0.4571  1.1148  0.2662
  179SLPC  C21020381   4.654   3.623   3.297  0.6162 -0.0476  0.2693
  179SLPC  H10R20382   4.734   3.563   3.251  0.8753 -0.9615  1.8176
  179SLPC  C21120383   4.644   3.588   3.443  0.2275  0.4273 -0.0923
  179SLPC  H11R20384   4.694   3.493   3.469 -2.1388 -0.1569  2.8902
  179SLPC  H11S20385   4.539   3.579   3.476  0.4826 -0.9685  0.3975
  179SLPC  C21220386   4.697   3.696   3.539  0.0960  0.0614 -0.0142
  179SLPC  H12R20387   4.718   3.791   3.488  0.2855  1.1407  1.9587
  179SLPC  C21320388   4.698   3.693   3.675 -0.5802  0.3542 -0.4642
  179SLPC  H13R20389   4.746   3.774   3.732 -2.3384  1.4374 -0.4628
  179SLPC  C21420390   4.660   3.569   3.747 -0.0475 -0.2412  0.5242
  179SLPC  H14R20391   4.732   3.488   3.723 -0.1795  0.1554 -1.3856
  179SLPC  H14S20392   4.560   3.542   3.706  0.0343  2.4617 -1.6751
  179SLPC  C21520393   4.641   3.593   3.894 -0.7785 -0.2597  0.2695
  179SLPC  H15R20394   4.592   3.505   3.942 -0.4425 -0.8060 -0.3769
  179SLPC  H15S20395   4.578   3.683   3.911  0.1061  0.2925  0.7038
  179SLPC  C21620396   4.770   3.629   3.963 -0.0478  0.4429 -0.6414
  179SLPC  H16R20397   4.820   3.715   3.914 -1.5777  1.3260 -0.7243
  179SLPC  H16S20398   4.838   3.542   3.960 -1.1352 -0.4740  0.3035
  179SLPC  C21720399   4.738   3.671   4.105 -0.0611  0.2816  0.0682
  179SLPC  H17R20400   4.637   3.717   4.111  0.7156  2.0144  0.3668
  179SLPC  H17S20401   4.822   3.731   4.146 -1.1771  2.3583 -0.5558
  179SLPC  C21820402   4.735   3.555   4.203  0.5669 -0.6321 -0.1515
  179SLPC  H18R20403   4.703   3.468   4.142 -3.3338  0.9108 -0.5702
  179SLPC  H18S20404   4.661   3.588   4.279 -0.9408  1.4752 -2.3708
  179SLPC  H18T20405   4.831   3.549   4.259  0.3278  0.5991  0.4241
  179SLPC   C3320406   4.023   3.716   3.337  0.1252 -0.9258 -0.2275
  179SLPC   H3X20407   3.965   3.627   3.305 -1.1384 -1.3461  2.9402
  179SLPC   H3Y20408   3.962   3.791   3.391  1.5324 -0.1195  0.2929
  179SLPC   C3420409   4.129   3.672   3.437 -0.6340 -0.4931 -0.0835
  179SLPC   H4X20410   4.201   3.756   3.452 -1.0067 -0.0631 -0.6144
  179SLPC   H4Y20411   4.181   3.594   3.378 -1.2277  0.5100 -2.0351
  179SLPC   C3520412   4.090   3.616   3.573 -0.3453  1.0463 -0.1122
  179SLPC   H5X20413   4.045   3.514   3.568 -1.3040  1.4735 -0.4564
  179SLPC   H5Y20414   4.184   3.601   3.631 -0.7836 -1.2948  0.0928
  179SLPC   C3620415   3.986   3.701   3.643 -0.0468 -0.2824  0.2520
  179SLPC   H6X20416   3.883   3.691   3.602  0.5060 -0.8868 -1.0687
  179SLPC   H6Y20417   4.016   3.807   3.627 -0.7041  0.1873  1.8920
  179SLPC   C3720418   3.981   3.664   3.788 -0.7498 -0.1582  0.7492
  179SLPC   H7X20419   4.005   3.556   3.801 -0.1525 -0.3393 -1.5013
  179SLPC   H7Y20420   3.874   3.681   3.813 -0.2098  1.0015  2.4932
  179SLPC   C3820421   4.086   3.743   3.873  0.6115  0.2058 -0.2191
  179SLPC   H8X20422   4.068   3.852   3.884 -3.1381 -0.1679 -1.2326
  179SLPC   H8Y20423   4.184   3.729   3.822  0.2060 -0.7358 -0.7706
  179SLPC   C3920424   4.091   3.696   4.019 -1.2400 -0.6021  0.7111
  179SLPC   H9X20425   4.095   3.586   4.009 -0.1917 -0.5034 -0.2048
  179SLPC   H9Y20426   3.992   3.708   4.066 -2.6422 -1.5819 -1.8069
  179SLPC  C31020427   4.214   3.752   4.100 -0.0736 -0.1351  0.2319
  179SLPC  H10X20428   4.205   3.862   4.118  1.4111 -0.1785  1.3976
  179SLPC  H10Y20429   4.306   3.757   4.037  0.6007 -1.0362  1.1365
  179SLPC  C31120430   4.243   3.674   4.227 -0.4873  0.3809 -0.2162
  179SLPC  H11X20431   4.270   3.569   4.202  1.0121  0.5553  0.5207
  179SLPC  H11Y20432   4.146   3.668   4.281  1.1201  0.5082  2.9342
  179SLPC  C31220433   4.348   3.741   4.320 -0.0857 -0.5169  0.3282
  179SLPC  H12X20434   4.308   3.838   4.356  1.3430 -0.7338  2.7290
  179SLPC  H12Y20435   4.439   3.755   4.257 -0.1058  1.4133  0.6615
  179SLPC  C31320436   4.381   3.665   4.445 -0.7847  0.0865  0.1747
  179SLPC  H13X20437   4.416   3.567   4.406 -1.7483 -1.7854  3.6069
  179SLPC  H13Y20438   4.294   3.639   4.509  0.6084 -2.6895  1.0862
  179SLPC  C31420439   4.481   3.745   4.527 -0.1317 -0.8768  0.8803
  179SLPC  H14X20440   4.444   3.847   4.550 -0.1791 -0.0839 -2.2516
  179SLPC  H14Y20441   4.575   3.761   4.471  1.0623  0.1169  3.0343
  179SLPC  C31520442   4.518   3.674   4.658 -0.3027  0.7864  0.4893
  179SLPC  H15X20443   4.424   3.649   4.711 -0.7249 -0.8727 -0.9477
  179SLPC  H15Y20444   4.574   3.745   4.723 -0.7267  1.6507 -0.0732
  179SLPC  C31620445   4.593   3.541   4.637 -0.7906  0.2279 -0.1456
  179SLPC  H16X20446   4.618   3.521   4.531 -0.0255  0.5331 -0.0289
  179SLPC  H16Y20447   4.529   3.453   4.658 -0.6802  0.0875 -0.4002
  179SLPC  C31720448   4.734   3.534   4.703  0.4350 -0.3540 -0.3302
  179SLPC  H17X20449   4.776   3.435   4.675 -0.9765 -0.6438 -1.5224
  179SLPC  H17Y20450   4.724   3.535   4.814 -1.5816 -0.8305 -0.4754
  179SLPC  C31820451   4.846   3.634   4.664  0.2445  0.0472 -0.0827
  179SLPC  H18X20452   4.807   3.731   4.701 -3.4748 -0.8766 -1.1862
  179SLPC  H18Y20453   4.874   3.626   4.557 -1.0414 -1.2647 -0.3523
  179SLPC  H18Z20454   4.944   3.624   4.716 -0.7509 -0.6301  1.7832
  180SLPC     N20455   1.887   5.403   2.102 -0.0059  0.8810  0.4696
  180SLPC   C1320456   1.904   5.486   1.980  0.1979  0.1480  0.8524
  180SLPC  H13A20457   1.834   5.452   1.905  0.3422 -0.2509  0.8926
  180SLPC  H13B20458   1.877   5.588   2.002  0.2492  0.4024 -0.2008
  180SLPC  H13C20459   1.997   5.489   1.925 -0.6688 -0.9026 -0.7829
  180SLPC   C1420460   1.763   5.438   2.174  0.7634  0.4199  0.2194
  180SLPC  H14A20461   1.747   5.380   2.264 -1.2193 -0.8745 -0.8740
  180SLPC  H14B20462   1.768   5.541   2.205  1.2972 -0.1246  2.0793
  180SLPC  H14C20463   1.679   5.417   2.109  0.2322 -1.1371  1.3406
  180SLPC   C1520464   2.001   5.444   2.191 -0.1442  0.7090  0.2307
  180SLPC  H15A20465   2.098   5.429   2.145 -0.7134  1.9757 -1.4765
  180SLPC  H15B20466   1.994   5.550   2.209  0.8178  1.7042 -4.2425
  180SLPC  H15C20467   2.005   5.368   2.268 -0.4168  1.2784  0.8111
  180SLPC   C1220468   1.907   5.255   2.068 -0.8284 -0.1215 -0.0998
  180SLPC  H12A20469   2.004   5.245   2.021 -0.9563  2.9510 -1.2092
  180SLPC  H12B20470   1.840   5.225   1.988 -0.7103 -0.4363 -0.0841
  180SLPC   C1120471   1.896   5.151   2.180 -0.1943  0.3402  0.3021
  180SLPC  H11A20472   1.863   5.055   2.134 -0.9539  1.6744 -2.0897
  180SLPC  H11B20473   1.806   5.176   2.240 -2.5198 -1.9871 -1.9555
  180SLPC     P20474   2.065   5.037   2.342 -0.5282  0.1855  0.1493
  180SLPC   O1320475   1.976   4.923   2.324 -0.0018 -1.1118  0.2899
  180SLPC   O1420476   2.207   5.011   2.310  0.2439 -0.0670  0.3240
  180SLPC   O1220477   2.013   5.161   2.261 -0.0723  0.1231 -0.1364
  180SLPC   O1120478   2.054   5.081   2.495 -0.5408  0.7238 -0.1525
  180SLPC    C120479   2.096   5.204   2.542  0.1224 -0.3792  0.9823
  180SLPC    HA20480   2.172   5.253   2.478  0.7228 -1.4883  0.8141
  180SLPC    HB20481   2.011   5.275   2.552 -1.3277 -2.0309  0.9764
  180SLPC    C220482   2.161   5.195   2.688 -0.1544  0.7497 -0.0836
  180SLPC    HS20483   2.234   5.112   2.674 -2.1400 -0.7743 -2.0890
  180SLPC   O2120484   2.058   5.153   2.788 -0.1246 -0.0442  0.2742
  180SLPC   C2120485   2.092   5.058   2.874  0.3269 -0.6788 -0.1541
  180SLPC   O2220486   2.197   4.992   2.873  0.6238 -0.1480 -0.2260
  180SLPC   C2220487   1.985   5.064   2.990 -0.3751  0.3778  0.3092
  180SLPC   H2R20488   1.966   5.172   3.012 -2.6236 -0.0058  0.5333
  180SLPC   H2S20489   1.900   5.011   2.941  0.5726 -0.3133 -0.6251
  180SLPC    C320490   2.228   5.330   2.721 -0.5220 -0.0795  0.1359
  180SLPC    HX20491   2.152   5.411   2.713  0.4464  0.7071 -1.6385
  180SLPC    HY20492   2.299   5.352   2.639 -1.9633 -1.6162 -1.6133
  180SLPC   O3120493   2.281   5.346   2.859  0.3169  0.7054 -0.0942
  180SLPC   C3120494   2.393   5.281   2.868 -0.2639  1.1718 -0.2507
  180SLPC   O3220495   2.457   5.227   2.778  0.6808  0.3937  0.0418
  180SLPC   C3220496   2.439   5.282   3.012 -0.2143 -0.5684  0.0091
  180SLPC   H2X20497   2.371   5.343   3.076 -0.9366 -0.8349 -0.4961
  180SLPC   H2Y20498   2.529   5.347   3.006  0.0079 -0.8994 -0.2537
  180SLPC   C2320499   2.041   4.996   3.122  0.0460  0.4500  0.3346
  180SLPC   H3R20500   2.102   4.905   3.101  0.2402  0.7029 -0.2036
  180SLPC   H3S20501   1.943   4.975   3.169  0.0343  1.6459  0.8615
  180SLPC   C2420502   2.145   5.080   3.196 -0.2245 -0.4798  0.4248
  180SLPC   H4R20503   2.229   5.094   3.125 -0.6092  2.2680  0.3846
  180SLPC   H4S20504   2.182   5.032   3.288  0.0125  1.6478  1.5133
  180SLPC   C2520505   2.089   5.218   3.245  0.5617  0.4328 -0.2637
  180SLPC   H5R20506   1.991   5.209   3.297  1.1100  2.4425  1.2674
  180SLPC   H5S20507   2.080   5.288   3.160 -0.3389  0.9367  0.2346
  180SLPC   C2620508   2.185   5.292   3.347  0.4570 -0.2775  0.1924
  180SLPC   H6R20509   2.279   5.319   3.294  0.1830  0.4910  0.0879
  180SLPC   H6S20510   2.199   5.216   3.427  1.3719 -1.5464 -1.1050
  180SLPC   C2720511   2.123   5.422   3.403  0.0401 -0.1494  0.7696
  180SLPC   H7R20512   2.012   5.411   3.399  0.0497 -0.3828 -2.9408
  180SLPC   H7S20513   2.145   5.509   3.337  0.7192 -0.6420  0.3288
  180SLPC   C2820514   2.159   5.459   3.552  0.3573  0.3261 -0.0818
  180SLPC   H8R20515   2.097   5.540   3.597  0.1793 -0.8076  1.7960
  180SLPC   H8S20516   2.263   5.497   3.541  1.3701 -1.7432  1.7794
  180SLPC   C2920517   2.139   5.346   3.652 -0.0119  0.1472 -0.4479
  180SLPC   H9R20518   2.104   5.250   3.612 -0.3232  0.2076 -0.3241
  180SLPC  C21020519   2.168   5.347   3.783 -0.4416 -0.1721  0.4075
  180SLPC  H10R20520   2.149   5.250   3.832 -0.7819  0.2525  1.1270
  180SLPC  C21120521   2.211   5.466   3.859 -0.8495  0.2055 -0.6150
  180SLPC  H11R20522   2.122   5.530   3.875 -0.5583  0.2873  0.8221
  180SLPC  H11S20523   2.289   5.517   3.799 -0.1625 -0.4304 -0.2728
  180SLPC  C21220524   2.280   5.431   3.992 -0.2965  0.0084 -0.2380
  180SLPC  H12R20525   2.380   5.477   3.988 -1.5076  2.7917 -1.3397
  180SLPC  C21320526   2.230   5.367   4.102 -0.1677  0.4471 -0.1276
  180SLPC  H13R20527   2.289   5.357   4.194 -2.6102 -1.7705  1.3335
  180SLPC  C21420528   2.086   5.328   4.116  0.2621 -0.3697 -0.5167
  180SLPC  H14R20529   2.091   5.220   4.142  2.9403 -0.4665 -1.1521
  180SLPC  H14S20530   2.044   5.321   4.013 -1.6163 -0.8298  0.2290
  180SLPC  C21520531   2.003   5.423   4.203 -0.3128  0.1769  0.2301
  180SLPC  H15R20532   1.896   5.403   4.180 -0.5370 -1.0826  2.1543
  180SLPC  H15S20533   2.027   5.531   4.193 -1.1939  0.5907  2.1776
  180SLPC  C21620534   2.025   5.398   4.353  0.0287 -0.4203  0.0460
  180SLPC  H16R20535   2.108   5.462   4.389  0.4627 -0.5160 -0.7718
  180SLPC  H16S20536   2.055   5.291   4.363 -1.0589 -0.5206  3.1652
  180SLPC  C21720537   1.900   5.415   4.439 -0.9987 -0.3488 -0.3617
  180SLPC  H17R20538   1.820   5.356   4.390 -0.6759  0.5010 -1.9645
  180SLPC  H17S20539   1.870   5.522   4.434  2.8932  1.1794  2.8770
  180SLPC  C21820540   1.921   5.380   4.592  0.0751 -0.0765  0.1828
  180SLPC  H18R20541   1.998   5.449   4.632  0.6150 -1.2572  1.2808
  180SLPC  H18S20542   1.967   5.280   4.604  1.6938  0.8738  2.6727
  180SLPC  H18T20543   1.826   5.399   4.647 -0.7391 -0.7943 -0.9422
  180SLPC   C3320544   2.494   5.142   3.058  1.2320 -0.0940  0.4686
  180SLPC   H3X20545   2.570   5.100   2.989  1.4776  1.7168 -0.4307
  180SLPC   H3Y20546   2.404   5.078   3.058  0.7570  0.5584  0.4602
  180SLPC   C3420547   2.551   5.135   3.198 -0.2677 -0.2362 -0.1960
  180SLPC   H4X20548   2.486   5.170   3.281  0.3288 -1.0365  0.6356
  180SLPC   H4Y20549   2.642   5.199   3.191  0.5406 -1.5083 -4.3664
  180SLPC   C3520550   2.588   4.991   3.238  0.1433  0.3336  0.2759
  180SLPC   H5X20551   2.669   4.957   3.171 -0.4121  1.2471 -0.8807
  180SLPC   H5Y20552   2.504   4.923   3.211 -2.5910  3.1486  1.1166
  180SLPC   C3620553   2.622   4.982   3.388 -0.2778 -0.2860 -0.3992
  180SLPC   H6X20554   2.653   5.088   3.404  0.3920 -0.2244 -1.9106
  180SLPC   H6Y20555   2.708   4.914   3.406  1.4926  1.9447  0.1303
  180SLPC   C3720556   2.501   4.952   3.468  0.0251  0.1863 -0.1201
  180SLPC   H7X20557   2.450   4.857   3.443  0.1836  0.4426 -1.5100
  180SLPC   H7Y20558   2.424   5.029   3.448  0.6561  0.4452 -1.7243
  180SLPC   C3820559   2.523   4.967   3.614 -0.4944  0.0420  0.5222
  180SLPC   H8X20560   2.564   5.068   3.636 -0.3190 -0.2838  1.7999
  180SLPC   H8Y20561   2.600   4.899   3.657 -0.7129 -0.8724 -0.4901
  180SLPC   C3920562   2.396   4.951   3.697 -0.7575  0.2647 -0.3212
  180SLPC   H9X20563   2.348   4.866   3.646  0.2036 -1.3950  1.4160
  180SLPC   H9Y20564   2.326   5.038   3.695 -1.3338 -0.1134  1.2006
  180SLPC  C31020565   2.413   4.905   3.841  0.5493  0.3314 -0.9881
  180SLPC  H10X20566   2.482   4.818   3.854 -1.7961 -1.8515 -2.2473
  180SLPC  H10Y20567   2.314   4.872   3.879  1.4138 -1.2473  0.0224
  180SLPC  C31120568   2.479   5.015   3.923  0.1825  0.1936  0.5843
  180SLPC  H11X20569   2.410   5.099   3.944  0.5827  0.6586  0.1004
  180SLPC  H11Y20570   2.571   5.052   3.872 -0.5430 -1.3429 -2.0064
  180SLPC  C31220571   2.518   4.950   4.057  0.5805 -0.2937 -0.7104
  180SLPC  H12X20572   2.590   4.868   4.037 -0.7139 -1.5045 -0.5783
  180SLPC  H12Y20573   2.430   4.912   4.113  3.3987 -1.3378  3.5287
  180SLPC  C31320574   2.596   5.048   4.146  0.1307 -0.3610  0.6421
  180SLPC  H13X20575   2.519   5.125   4.169 -0.9457 -0.8526 -1.1068
  180SLPC  H13Y20576   2.671   5.095   4.079  1.5252 -2.9781  0.2201
  180SLPC  C31420577   2.652   4.974   4.267 -0.0603  0.4329 -0.7393
  180SLPC  H14X20578   2.732   4.901   4.241 -0.2293  0.3879 -1.1307
  180SLPC  H14Y20579   2.570   4.925   4.324  1.2781 -1.4029 -0.2827
  180SLPC  C31520580   2.734   5.058   4.362  0.8590  0.4385 -0.1750
  180SLPC  H15X20581   2.676   5.148   4.391  1.0876  0.9813 -1.3199
  180SLPC  H15Y20582   2.824   5.088   4.303  0.2577 -2.0502 -2.5913
  180SLPC  C31620583   2.794   4.972   4.471 -1.1344 -0.4562 -0.7894
  180SLPC  H16X20584   2.849   4.880   4.441  0.3297  1.2587 -3.7559
  180SLPC  H16Y20585   2.705   4.943   4.532 -0.1376  1.0541  1.5178
  180SLPC  C31720586   2.884   5.052   4.567 -0.1532 -0.5186 -0.0423
  180SLPC  H17X20587   2.926   5.001   4.656 -0.8347  0.0693  0.6264
  180SLPC  H17Y20588   2.824   5.143   4.589  0.9074  0.5538 -1.4051
  180SLPC  C31820589   3.006   5.118   4.498 -0.9336 -0.6522 -0.4956
  180SLPC  H18X20590   2.992   5.223   4.465 -0.3252 -0.2402  0.5062
  180SLPC  H18Y20591   3.039   5.066   4.405 -1.5454  2.1588 -2.4181
  180SLPC  H18Z20592   3.093   5.124   4.567 -2.2065  0.5699  1.0626
  181SLPC     N20593   1.796   3.179   2.505  0.5696 -0.1135 -0.3431
  181SLPC   C1320594   1.872   3.230   2.625 -0.1995  0.7607  0.2136
  181SLPC  H13A20595   1.892   3.336   2.623  1.1980  0.5074 -0.3464
  181SLPC  H13B20596   1.815   3.207   2.714  2.1485  2.0389  2.1537
  181SLPC  H13C20597   1.970   3.184   2.636 -0.8898 -1.1026 -0.9672
  181SLPC   C1420598   1.880   3.191   2.381 -0.5546 -0.5768 -0.2078
  181SLPC  H14A20599   1.824   3.171   2.291 -1.7119  0.8857  0.1386
  181SLPC  H14B20600   1.906   3.295   2.365 -1.5158 -0.1188  1.0640
  181SLPC  H14C20601   1.972   3.136   2.390 -0.5828 -0.5110  0.4873
  181SLPC   C1520602   1.677   3.266   2.484  0.2547  0.5452 -0.4821
  181SLPC  H15A20603   1.637   3.240   2.387 -0.1741 -1.0423  0.0842
  181SLPC  H15B20604   1.600   3.258   2.559  0.6346  1.0075 -0.0394
  181SLPC  H15C20605   1.708   3.368   2.500  0.2765  0.7006 -1.4314
  181SLPC   C1220606   1.758   3.031   2.529 -0.2852 -0.2040  0.3633
  181SLPC  H12A20607   1.848   2.973   2.528 -0.7571 -0.9543  0.5557
  181SLPC  H12B20608   1.694   3.011   2.445  0.0050  1.7770 -0.3733
  181SLPC   C1120609   1.686   2.999   2.662  0.1309  0.7184  0.0117
  181SLPC  H11A20610   1.750   3.025   2.748 -0.5026 -0.7357  0.9612
  181SLPC  H11B20611   1.682   2.888   2.667  1.0960  0.7113  0.8436
  181SLPC     P20612   1.435   2.984   2.606  0.3094  0.3743  0.1752
  181SLPC   O1320613   1.423   2.995   2.459 -0.0689  0.8566  0.3698
  181SLPC   O1420614   1.416   2.850   2.669  0.2737 -0.4559  0.0632
  181SLPC   O1220615   1.556   3.059   2.665 -0.4002 -0.2009 -0.0029
  181SLPC   O1120616   1.310   3.055   2.672 -0.7577 -0.0425  0.3927
  181SLPC    C120617   1.315   3.184   2.733  0.2677 -0.7278 -0.3465
  181SLPC    HA20618   1.412   3.238   2.725 -0.3666  0.8228  1.6137
  181SLPC    HB20619   1.232   3.246   2.692 -0.5899 -1.5874  0.0280
  181SLPC    C220620   1.298   3.179   2.890 -0.1706  0.2849  0.3774
  181SLPC    HS20621   1.311   3.275   2.944  1.4925 -0.8604  2.1456
  181SLPC   O2120622   1.378   3.073   2.952 -0.0213 -0.3673  0.4291
  181SLPC   C2120623   1.508   3.110   2.966  0.1096  0.9776  0.4689
  181SLPC   O2220624   1.550   3.223   2.948  0.1556  0.4091  0.1028
  181SLPC   C2220625   1.594   2.984   2.993  0.1253 -0.4151 -0.3735
  181SLPC   H2R20626   1.604   2.936   2.893 -0.3539  1.4975 -1.3930
  181SLPC   H2S20627   1.693   3.026   3.020 -0.0874  0.1211 -0.4281
  181SLPC    C320628   1.151   3.134   2.911 -0.1709  0.5212  0.8029
  181SLPC    HX20629   1.144   3.029   2.875 -0.9349  1.2017 -1.1699
  181SLPC    HY20630   1.078   3.187   2.846  0.0015 -0.0121  0.1566
  181SLPC   O3120631   1.103   3.146   3.048 -0.3601 -0.0824 -0.1421
  181SLPC   C3120632   1.075   3.268   3.086  0.9561 -0.2842 -0.1662
  181SLPC   O3220633   1.065   3.364   3.007 -0.1892  0.6784  0.0574
  181SLPC   C3220634   1.057   3.274   3.235  0.1200  0.4593 -0.3264
  181SLPC   H2X20635   1.012   3.176   3.264 -0.3758  0.4890 -0.9912
  181SLPC   H2Y20636   0.988   3.354   3.269  1.8605  0.4209  3.9344
  181SLPC   C2320637   1.554   2.892   3.105  0.2050  0.4423  0.3871
  181SLPC   H3R20638   1.613   2.798   3.106  0.0783  0.2968 -1.7520
  181SLPC   H3S20639   1.447   2.862   3.097  0.7980 -1.4129 -1.6108
  181SLPC   C2420640   1.597   2.952   3.242  0.1579 -0.2435 -0.4120
  181SLPC   H4R20641   1.558   3.055   3.248 -2.7841 -1.3228  4.4103
  181SLPC   H4S20642   1.708   2.947   3.250  0.1149 -1.5597 -0.4641
  181SLPC   C2520643   1.544   2.892   3.372 -0.2138 -0.1960 -0.2752
  181SLPC   H5R20644   1.543   2.781   3.374 -0.1842 -0.2233  2.8658
  181SLPC   H5S20645   1.435   2.914   3.366 -0.2579 -0.5179 -0.7293
  181SLPC   C2620646   1.613   2.951   3.492  0.3743  0.2885  0.4588
  181SLPC   H6R20647   1.612   3.061   3.481  1.6807  0.7884  3.9928
  181SLPC   H6S20648   1.723   2.931   3.493  0.5790  0.8634 -2.3080
  181SLPC   C2720649   1.562   2.899   3.625 -0.3057  0.0048 -0.0464
  181SLPC   H7R20650   1.456   2.932   3.622 -0.3844 -0.3302 -1.3635
  181SLPC   H7S20651   1.620   2.954   3.703 -0.7938 -1.7044  1.6065
  181SLPC   C2820652   1.582   2.744   3.637 -0.4648 -0.0667 -1.0608
  181SLPC   H8R20653   1.520   2.688   3.565 -0.5653 -1.3642  0.0039
  181SLPC   H8S20654   1.541   2.713   3.736  2.9505  0.0583  0.5536
  181SLPC   C2920655   1.727   2.702   3.629  0.0133  0.0860 -0.6995
  181SLPC   H9R20656   1.773   2.698   3.529 -1.7228 -0.5338 -1.4957
  181SLPC  C21020657   1.813   2.688   3.730 -0.0395 -0.0708 -0.1871
  181SLPC  H10R20658   1.919   2.664   3.713 -0.2303 -0.7862 -0.3871
  181SLPC  C21120659   1.768   2.722   3.870 -0.0354  0.1245 -1.1193
  181SLPC  H11R20660   1.705   2.812   3.885  0.1089  0.1122 -0.3855
  181SLPC  H11S20661   1.862   2.746   3.924 -1.5965 -0.1390  1.9523
  181SLPC  C21220662   1.703   2.605   3.940  1.0028 -0.3745  0.1278
  181SLPC  H12R20663   1.669   2.528   3.869 -0.1318 -1.3957  1.7051
  181SLPC  C21320664   1.690   2.582   4.074  0.1511  1.0753  0.4596
  181SLPC  H13R20665   1.654   2.481   4.098 -1.2706  0.9816 -1.8725
  181SLPC  C21420666   1.737   2.683   4.181 -0.1426  0.5841 -0.8581
  181SLPC  H14R20667   1.646   2.724   4.229 -2.1109 -2.1080 -2.0924
  181SLPC  H14S20668   1.792   2.773   4.145  2.5167 -0.4947  0.2649
  181SLPC  C21520669   1.840   2.613   4.272 -0.4157 -0.6050 -0.7185
  181SLPC  H15R20670   1.930   2.580   4.216 -0.4598 -0.1295 -1.0715
  181SLPC  H15S20671   1.803   2.515   4.309 -2.0763  0.5666  0.8938
  181SLPC  C21620672   1.892   2.695   4.395 -0.1034 -0.6292 -0.2082
  181SLPC  H16R20673   1.798   2.733   4.443 -0.7778 -0.5283 -1.5756
  181SLPC  H16S20674   1.934   2.792   4.360  1.6400 -1.7656 -1.3893
  181SLPC  C21720675   1.987   2.621   4.495 -0.3041 -0.1442  0.7244
  181SLPC  H17R20676   2.086   2.591   4.453 -1.0548  0.1034 -1.3718
  181SLPC  H17S20677   1.939   2.526   4.527  1.4921 -2.1725 -2.0919
  181SLPC  C21820678   2.020   2.708   4.615  0.6217 -0.3772 -0.6589
  181SLPC  H18R20679   2.057   2.653   4.704  0.8570 -1.9244 -1.6818
  181SLPC  H18S20680   1.929   2.759   4.655  2.5697  0.2849  3.5246
  181SLPC  H18T20681   2.086   2.792   4.583  0.6044 -0.2945 -0.4793
  181SLPC   C3320682   1.193   3.278   3.307 -0.8639  0.2707 -0.4257
  181SLPC   H3X20683   1.258   3.203   3.258 -0.2562  0.8858 -0.5753
  181SLPC   H3Y20684   1.187   3.253   3.415 -0.3966  1.5423 -0.0803
  181SLPC   C3420685   1.263   3.421   3.299  0.0303 -0.3364  0.6139
  181SLPC   H4X20686   1.246   3.470   3.201  0.2553 -0.5906  0.4461
  181SLPC   H4Y20687   1.372   3.418   3.321 -0.1622  1.2508  1.9324
  181SLPC   C3520688   1.219   3.514   3.416  0.7870  0.2004 -1.2966
  181SLPC   H5X20689   1.250   3.477   3.516  0.1554 -1.1757 -1.5912
  181SLPC   H5Y20690   1.109   3.506   3.412  0.8497 -0.3519 -2.3601
  181SLPC   C3620691   1.251   3.666   3.401  0.3665  0.0789  0.4523
  181SLPC   H6X20692   1.202   3.694   3.306  1.2440 -2.2663 -0.7809
  181SLPC   H6Y20693   1.361   3.680   3.395  0.6348 -2.2108 -1.3578
  181SLPC   C3720694   1.194   3.747   3.513 -0.2000 -0.7340  0.8797
  181SLPC   H7X20695   1.249   3.718   3.605  0.6151 -0.3540  0.5276
  181SLPC   H7Y20696   1.084   3.734   3.520 -0.3311 -1.4780 -1.5488
  181SLPC   C3820697   1.210   3.898   3.490  0.0785 -0.5259  0.1673
  181SLPC   H8X20698   1.195   3.921   3.382 -0.5345  0.2187  0.4000
  181SLPC   H8Y20699   1.317   3.928   3.498 -0.3120  2.3465 -2.8997
  181SLPC   C3920700   1.122   3.996   3.580 -0.2603 -0.4824  0.3878
  181SLPC   H9X20701   1.020   3.960   3.606 -0.7373  0.0383 -0.6866
  181SLPC   H9Y20702   1.102   4.092   3.529 -0.9023 -0.6018  0.4017
  181SLPC  C31020703   1.194   4.041   3.709 -0.1930  0.7862 -0.2549
  181SLPC  H10X20704   1.141   4.116   3.771 -0.6866 -1.5110  2.2698
  181SLPC  H10Y20705   1.287   4.093   3.676 -0.0381  0.6337 -0.0675
  181SLPC  C31120706   1.221   3.931   3.808 -0.6420  0.2875 -0.7608
  181SLPC  H11X20707   1.281   3.851   3.759 -0.4734  0.4508 -0.8214
  181SLPC  H11Y20708   1.129   3.887   3.853 -0.9558 -0.4085 -2.0323
  181SLPC  C31220709   1.297   3.975   3.931  0.2268  0.4899  0.7883
  181SLPC  H12X20710   1.254   4.066   3.978 -1.5979  0.9888 -1.6540
  181SLPC  H12Y20711   1.397   4.015   3.903 -0.1114  0.5119 -0.4410
  181SLPC  C31320712   1.304   3.866   4.042  0.2650  0.1280  0.5923
  181SLPC  H13X20713   1.362   3.780   4.000 -0.1522  0.0130  0.2425
  181SLPC  H13Y20714   1.205   3.817   4.055  0.6874 -1.1943 -0.8131
  181SLPC  C31420715   1.368   3.906   4.176 -0.0453  0.3256  0.1687
  181SLPC  H14X20716   1.360   3.832   4.259  0.6542  0.9657  0.8147
  181SLPC  H14Y20717   1.324   4.003   4.208  1.8312  0.9097  1.1039
  181SLPC  C31520718   1.522   3.938   4.157  0.6816  0.0952  0.9255
  181SLPC  H15X20719   1.535   3.992   4.061  0.8498  0.5833  1.2251
  181SLPC  H15Y20720   1.585   3.851   4.128  1.1054  1.2487 -2.0152
  181SLPC  C31620721   1.585   4.013   4.277  0.0860 -0.3040 -0.1777
  181SLPC  H16X20722   1.542   4.116   4.268 -0.2976 -0.2068  2.2944
  181SLPC  H16Y20723   1.694   4.024   4.258 -0.1009  1.1167 -0.5945
  181SLPC  C31720724   1.572   3.958   4.418  0.8967 -0.2805 -0.0006
  181SLPC  H17X20725   1.471   3.921   4.446  1.8255 -2.8814  0.1387
  181SLPC  H17Y20726   1.591   4.043   4.488 -2.0979 -0.5083  1.2781
  181SLPC  C31820727   1.675   3.850   4.436  0.7814  0.2048 -0.6927
  181SLPC  H18X20728   1.680   3.813   4.541 -1.7583 -3.0377 -1.5436
  181SLPC  H18Y20729   1.774   3.889   4.402  1.4807  0.3616  1.3513
  181SLPC  H18Z20730   1.669   3.763   4.368  1.3588  1.3635 -2.2816
  182SLPC     N20731   5.805   0.024   2.172 -0.5267 -0.5935 -0.7446
  182SLPC   C1320732   5.872  -0.071   2.087  0.1065  0.5561  0.1715
  182SLPC  H13A20733   5.851  -0.169   2.127  2.4913  0.0878  0.4753
  182SLPC  H13B20734   5.844  -0.074   1.982 -1.6523 -0.9383  0.6423
  182SLPC  H13C20735   5.979  -0.057   2.088 -0.0211  1.5632  0.3760
  182SLPC   C1420736   5.660   0.028   2.134  0.4367 -0.3372  0.0122
  182SLPC  H14A20737   5.607   0.101   2.192  1.2321  0.1479  0.1411
  182SLPC  H14B20738   5.643   0.061   2.033 -3.7280  0.8045  0.9032
  182SLPC  H14C20739   5.612  -0.068   2.150  0.1783 -0.3181 -0.6240
  182SLPC   C1520740   5.863   0.158   2.146  0.1425 -0.2635 -1.2063
  182SLPC  H15A20741   5.965   0.162   2.180  0.7983 -1.9952 -2.7999
  182SLPC  H15B20742   5.875   0.182   2.041  0.4062 -2.4013 -1.7179
  182SLPC  H15C20743   5.807   0.230   2.203  2.1927  1.3701 -1.1172
  182SLPC   C1220744   5.809  -0.008   2.320  0.9158 -0.0695 -0.8042
  182SLPC  H12A20745   5.913  -0.001   2.349  0.6335  0.2943  0.1459
  182SLPC  H12B20746   5.777  -0.111   2.327 -0.7375  0.4452 -0.2708
  182SLPC   C1120747   5.726   0.079   2.419 -0.2043 -0.1908 -0.9147
  182SLPC  H11A20748   5.738   0.025   2.515  3.0872  1.6062 -0.1472
  182SLPC  H11B20749   5.619   0.088   2.393 -0.0492 -0.7375 -1.7995
  182SLPC     P20750   5.711   0.334   2.497 -0.2854  0.4514  0.0747
  182SLPC   O1320751   5.807   0.445   2.476  0.2760  0.5701 -0.6735
  182SLPC   O1420752   5.576   0.359   2.450  0.1523 -0.1367  0.3948
  182SLPC   O1220753   5.786   0.209   2.438 -0.2971  0.1574  0.6628
  182SLPC   O1120754   5.703   0.298   2.654  0.2654  0.4168 -0.1235
  182SLPC    C120755   5.800   0.229   2.732 -0.8617  0.2766  0.1376
  182SLPC    HA20756   5.757   0.189   2.827  3.1128 -0.2287  1.9449
  182SLPC    HB20757   5.840   0.142   2.676 -2.9554 -1.3093  0.9906
  182SLPC    C220758   5.903   0.330   2.782 -0.5088  0.4996  0.5207
  182SLPC    HS20759   5.951   0.373   2.691 -0.5838 -0.5452 -0.0308
  182SLPC   O2120760   5.999   0.265   2.872 -0.2751  0.1194  0.1059
  182SLPC   C2120761   6.118   0.228   2.818  0.1702  0.1314  0.2748
  182SLPC   O2220762   6.142   0.244   2.702 -0.7683 -0.1578  0.4359
  182SLPC   C2220763   6.218   0.167   2.917  0.6781 -0.0520 -0.2810
  182SLPC   H2R20764   6.225   0.060   2.886  0.0470  0.1595 -1.2021
  182SLPC   H2S20765   6.324   0.195   2.899  1.5981 -2.9220  0.0423
  182SLPC    C320766   5.840   0.448   2.860 -0.0850  0.9100  0.2558
  182SLPC    HX20767   5.787   0.510   2.786 -0.8363  2.3475  1.9285
  182SLPC    HY20768   5.924   0.513   2.893 -0.0654  1.2080 -0.3698
  182SLPC   O3120769   5.741   0.411   2.962 -0.3803  0.2069 -0.2764
  182SLPC   C3120770   5.685   0.518   3.017 -0.6810  0.3680  0.0230
  182SLPC   O3220771   5.711   0.634   2.988 -0.0896  0.9818 -0.6005
  182SLPC   C3220772   5.595   0.465   3.125 -0.3420 -0.8439  0.3651
  182SLPC   H2X20773   5.649   0.433   3.217  0.0278  0.8123  0.7554
  182SLPC   H2Y20774   5.546   0.379   3.074 -0.1631 -0.3059 -0.7385
  182SLPC   C2320775   6.189   0.190   3.067  0.0036 -0.3077 -0.3366
  182SLPC   H3R20776   6.084   0.186   3.104  0.5732 -0.6281  1.3357
  182SLPC   H3S20777   6.232   0.284   3.107  1.9213 -1.9016  1.6316
  182SLPC   C2420778   6.275   0.088   3.147 -0.4227 -0.3148  0.4563
  182SLPC   H4R20779   6.345   0.121   3.226 -2.1467 -1.6805  2.6568
  182SLPC   H4S20780   6.335   0.033   3.071 -2.7023 -3.1463  0.5363
  182SLPC   C2520781   6.195  -0.026   3.213 -0.2424 -0.4717  0.0692
  182SLPC   H5R20782   6.276  -0.100   3.233  1.1745  1.0081  0.0078
  182SLPC   H5S20783   6.117  -0.073   3.148 -1.5721 -0.5596  1.6537
  182SLPC   C2620784   6.124   0.026   3.345 -0.2231 -0.3444  0.6402
  182SLPC   H6R20785   6.040   0.096   3.325  0.3511  0.3208  0.5295
  182SLPC   H6S20786   6.199   0.084   3.403  1.0991 -2.1575  0.8296
  182SLPC   C2720787   6.065  -0.090   3.430  0.2117 -1.1421 -0.5283
  182SLPC   H7R20788   6.144  -0.164   3.456 -0.0606 -0.6861  1.7457
  182SLPC   H7S20789   5.993  -0.149   3.369  1.1436 -1.1612 -1.6443
  182SLPC   C2820790   6.010  -0.040   3.565  0.4463 -0.1446  0.2846
  182SLPC   H8R20791   6.077   0.018   3.632 -1.8856  4.8172 -1.1459
  182SLPC   H8S20792   5.990  -0.137   3.615 -1.7900 -0.9599 -1.9771
  182SLPC   C2920793   5.887   0.043   3.535  0.4058 -0.1634  0.2554
  182SLPC   H9R20794   5.890   0.133   3.472 -0.1732  0.4350  1.0504
  182SLPC  C21020795   5.763   0.008   3.571 -0.8060 -0.1603 -0.4249
  182SLPC  H10R20796   5.683   0.078   3.543  0.3305  0.3036 -2.7066
  182SLPC  C21120797   5.711  -0.107   3.652 -0.0367  0.4624 -0.5227
  182SLPC  H11R20798   5.780  -0.192   3.638 -0.6244 -0.2750  0.8840
  182SLPC  H11S20799   5.616  -0.141   3.605  1.0209 -0.0198 -2.4196
  182SLPC  C21220800   5.694  -0.066   3.794  0.0354  0.2072  0.4926
  182SLPC  H12R20801   5.770   0.005   3.832  3.6187 -2.7021 -0.6384
  182SLPC  C21320802   5.594  -0.098   3.878 -0.0653 -0.6018 -0.3000
  182SLPC  H13R20803   5.588  -0.055   3.979 -1.2024  1.3543 -1.1415
  182SLPC  C21420804   5.474  -0.181   3.866 -0.2843 -0.7832  0.9118
  182SLPC  H14R20805   5.453  -0.212   3.762 -2.6649 -1.0335  1.3855
  182SLPC  H14S20806   5.390  -0.118   3.903 -0.6601 -0.8315  0.1519
  182SLPC  C21520807   5.481  -0.307   3.938  0.1522 -0.2370 -0.1867
  182SLPC  H15R20808   5.568  -0.364   3.899  0.5751  1.0046 -1.1234
  182SLPC  H15S20809   5.388  -0.364   3.914  1.4444 -1.5497 -2.4131
  182SLPC  C21620810   5.500  -0.299   4.089  0.5707  0.0594 -0.3537
  182SLPC  H16R20811   5.404  -0.334   4.134  0.3828 -1.2217 -1.6850
  182SLPC  H16S20812   5.508  -0.194   4.124  2.0043  0.5257 -1.9210
  182SLPC  C21720813   5.613  -0.387   4.147  0.6115 -0.0005  0.0304
  182SLPC  H17R20814   5.707  -0.356   4.096  0.0033  2.3921  0.2382
  182SLPC  H17S20815   5.598  -0.494   4.120  0.9623 -0.7087  2.4630
  182SLPC  C21820816   5.625  -0.380   4.301 -0.4288 -0.0424 -0.0549
  182SLPC  H18R20817   5.711  -0.446   4.327  0.5935  1.0695 -0.5076
  182SLPC  H18S20818   5.528  -0.402   4.350 -0.2081  0.2263  0.5173
  182SLPC  H18T20819   5.650  -0.280   4.341 -2.4625  0.3531  0.3503
  182SLPC   C3320820   5.497   0.571   3.175  0.7869 -0.1715 -0.3453
  182SLPC   H3X20821   5.428   0.528   3.250  1.2355  0.7096  0.5959
  182SLPC   H3Y20822   5.444   0.593   3.080  4.2157 -1.4897 -2.7844
  182SLPC   C3420823   5.560   0.699   3.241  0.3282 -0.0403 -0.4842
  182SLPC   H4X20824   5.475   0.762   3.274 -0.8382 -2.1952  0.8330
  182SLPC   H4Y20825   5.632   0.749   3.172 -1.4286  1.5439 -1.2542
  182SLPC   C3520826   5.642   0.657   3.372 -0.4292  0.1164 -0.4608
  182SLPC   H5X20827   5.681   0.750   3.418  1.1292 -1.0235  0.6451
  182SLPC   H5Y20828   5.732   0.601   3.338 -0.4175 -0.8587  1.0720
  182SLPC   C3620829   5.560   0.573   3.470 -0.1211 -0.4039  0.3344
  182SLPC   H6X20830   5.531   0.480   3.416 -0.2441 -0.8205  1.1118
  182SLPC   H6Y20831   5.466   0.628   3.492  0.0023 -0.2473  0.4717
  182SLPC   C3720832   5.635   0.543   3.595 -0.2826 -0.3541  0.4930
  182SLPC   H7X20833   5.569   0.478   3.657 -1.3778 -0.5807 -0.8724
  182SLPC   H7Y20834   5.645   0.645   3.640  1.9706 -0.5750  0.5989
  182SLPC   C3820835   5.767   0.467   3.581 -0.1161  0.2411  0.1417
  182SLPC   H8X20836   5.846   0.537   3.544 -1.8555  1.1956 -1.9890
  182SLPC   H8Y20837   5.766   0.395   3.497 -0.8672 -1.8819  1.8884
  182SLPC   C3920838   5.814   0.386   3.706 -0.5433 -0.5628  0.5145
  182SLPC   H9X20839   5.896   0.315   3.681 -1.5919 -1.6325  0.0777
  182SLPC   H9Y20840   5.720   0.337   3.738 -0.4010 -1.0991  0.1177
  182SLPC  C31020841   5.867   0.486   3.811 -0.0591  0.9268  0.2103
  182SLPC  H10X20842   5.804   0.577   3.805  0.9592  1.7952  1.8736
  182SLPC  H10Y20843   5.968   0.523   3.783 -0.3120 -0.3721 -2.8108
  182SLPC  C31120844   5.866   0.452   3.966  0.0463  0.2972  0.2041
  182SLPC  H11X20845   5.777   0.397   4.002  0.3990 -0.2941  0.1959
  182SLPC  H11Y20846   5.874   0.546   4.025  0.1162  0.9639 -0.8472
  182SLPC  C31220847   5.991   0.364   4.008 -0.8069 -0.0918  0.0727
  182SLPC  H12X20848   6.081   0.420   3.975 -1.3401  0.3611 -0.6455
  182SLPC  H12Y20849   5.990   0.267   3.953 -1.2330 -0.1454  0.1726
  182SLPC  C31320850   5.993   0.342   4.165 -0.0675  0.5173  0.3547
  182SLPC  H13X20851   5.918   0.263   4.186  3.4580 -2.2997  3.9893
  182SLPC  H13Y20852   5.962   0.433   4.221 -0.7656  0.2423  0.4203
  182SLPC  C31420853   6.134   0.299   4.208 -0.1310  0.4531 -0.8264
  182SLPC  H14X20854   6.206   0.377   4.176 -0.7088  1.2503 -0.2476
  182SLPC  H14Y20855   6.156   0.197   4.172 -1.8060 -0.3222  0.2194
  182SLPC  C31520856   6.141   0.284   4.364  0.5330  0.3033  0.5398
  182SLPC  H15X20857   6.078   0.198   4.393  2.6937 -1.5943 -0.0469
  182SLPC  H15Y20858   6.092   0.375   4.403 -1.1596  0.1010 -0.9958
  182SLPC  C31620859   6.284   0.261   4.401 -0.2524 -0.3113  0.1116
  182SLPC  H16X20860   6.325   0.360   4.371  1.8682 -0.6186  1.7904
  182SLPC  H16Y20861   6.324   0.180   4.336 -0.3196 -0.1647 -0.1138
  182SLPC  C31720862   6.309   0.227   4.547 -0.4178  0.2023 -0.3399
  182SLPC  H17X20863   6.275   0.124   4.571 -1.8765  0.6924 -0.1706
  182SLPC  H17Y20864   6.230   0.285   4.599  0.5560  1.6483 -0.4226
  182SLPC  C31820865   6.450   0.257   4.597 -0.7923  0.0269  0.4656
  182SLPC  H18X20866   6.522   0.198   4.537 -1.5156 -1.7083  1.2302
  182SLPC  H18Y20867   6.477   0.239   4.704 -2.0908 -0.4581  0.7332
  182SLPC  H18Z20868   6.467   0.365   4.577 -0.4554 -0.0625  0.2779
  183SLPC     N20869   1.209   5.466   2.160 -0.0666 -0.4924 -0.3178
  183SLPC   C1320870   1.074   5.417   2.208 -0.1107  0.0605  0.2874
  183SLPC  H13A20871   1.030   5.495   2.268  1.4742  2.2742 -1.2356
  183SLPC  H13B20872   1.010   5.401   2.123  1.7735  2.0250 -1.6446
  183SLPC  H13C20873   1.087   5.326   2.265 -1.9077  0.4856  1.4520
  183SLPC   C1420874   1.171   5.593   2.091 -0.3940 -0.2084  0.2516
  183SLPC  H14A20875   1.138   5.672   2.156  0.5810  1.1850 -0.8771
  183SLPC  H14B20876   1.267   5.637   2.070 -1.2514  1.0132 -1.3331
  183SLPC  H14C20877   1.101   5.569   2.012 -0.6113 -0.0202  0.3866
  183SLPC   C1520878   1.263   5.367   2.065 -0.5445 -0.5314  0.3833
  183SLPC  H15A20879   1.258   5.268   2.106  1.3124 -0.1225  1.6945
  183SLPC  H15B20880   1.209   5.380   1.972 -0.4695  0.9125  0.5064
  183SLPC  H15C20881   1.365   5.392   2.037 -0.5379  0.2812  1.1015
  183SLPC   C1220882   1.292   5.489   2.281  0.2651  0.5394 -0.5217
  183SLPC  H12A20883   1.286   5.402   2.345  0.5657  0.6164 -0.3883
  183SLPC  H12B20884   1.243   5.569   2.334  0.9277  0.3670  0.3572
  183SLPC   C1120885   1.439   5.529   2.263 -0.6276 -0.4063 -0.2811
  183SLPC  H11A20886   1.491   5.445   2.213  2.7890  0.1112  2.1204
  183SLPC  H11B20887   1.481   5.526   2.366 -0.7644  0.4065 -0.1935
  183SLPC     P20888   1.556   5.759   2.243 -0.0153 -0.6414  0.5073
  183SLPC   O1320889   1.697   5.730   2.199 -0.1438  0.3658  0.0864
  183SLPC   O1420890   1.502   5.885   2.195  0.3251  0.4911  0.0821
  183SLPC   O1220891   1.453   5.647   2.189 -0.4050  0.1258 -0.1601
  183SLPC   O1120892   1.546   5.757   2.402  0.5546 -0.9238  0.1205
  183SLPC    C120893   1.426   5.813   2.461 -0.0344 -0.0812 -0.9047
  183SLPC    HA20894   1.415   5.923   2.449 -0.5803  0.6010  3.8908
  183SLPC    HB20895   1.332   5.769   2.421 -0.8315  1.8854 -1.3473
  183SLPC    C220896   1.414   5.786   2.619 -0.0373 -0.6270  0.5088
  183SLPC    HS20897   1.307   5.797   2.648  0.0455  0.6429  0.4119
  183SLPC   O2120898   1.508   5.869   2.687 -0.0478  0.4703 -0.0007
  183SLPC   C2120899   1.464   5.923   2.799 -0.4037 -0.1523 -0.4623
  183SLPC   O2220900   1.353   5.919   2.845  0.1272  0.2125 -0.9287
  183SLPC   C2220901   1.572   6.011   2.852  1.0132 -0.1218  0.1613
  183SLPC   H2R20902   1.671   5.973   2.819 -0.4456 -0.4948 -4.3808
  183SLPC   H2S20903   1.559   6.109   2.803 -3.0377  0.9172  2.8022
  183SLPC    C320904   1.451   5.636   2.650  0.3952  0.2509 -0.2135
  183SLPC    HX20905   1.561   5.629   2.643  0.3103 -1.8693 -0.1499
  183SLPC    HY20906   1.393   5.580   2.573 -2.8815  0.9389  1.5397
  183SLPC   O3120907   1.412   5.607   2.788  0.0653  0.3197 -0.1949
  183SLPC   C3120908   1.279   5.602   2.813  0.0033 -0.4750  0.4191
  183SLPC   O3220909   1.193   5.606   2.726  0.0866  0.3760  0.0380
  183SLPC   C3220910   1.258   5.610   2.963  0.4944  0.5628  0.4204
  183SLPC   H2X20911   1.287   5.703   3.016 -2.1858  1.7448 -0.0443
  183SLPC   H2Y20912   1.323   5.533   3.011 -1.2108 -1.1213  0.1073
  183SLPC   C2320913   1.549   6.025   3.007  0.2138  0.5482 -0.0380
  183SLPC   H3R20914   1.449   6.052   3.047  0.0725 -2.2665  1.7985
  183SLPC   H3S20915   1.618   6.107   3.037  1.2701 -0.6288  0.8811
  183SLPC   C2420916   1.611   5.905   3.085 -0.8887 -0.2166  0.0706
  183SLPC   H4R20917   1.722   5.893   3.080 -0.9309 -0.0593 -2.7273
  183SLPC   H4S20918   1.570   5.817   3.031 -0.6359  1.8222 -3.8195
  183SLPC   C2520919   1.568   5.899   3.233 -0.3165  0.4011  0.4063
  183SLPC   H5R20920   1.458   5.901   3.243 -0.2105 -1.3510  2.6909
  183SLPC   H5S20921   1.601   5.983   3.299  0.9803 -0.7827  1.3337
  183SLPC   C2620922   1.605   5.757   3.303  0.6684 -0.4788 -0.0249
  183SLPC   H6R20923   1.715   5.752   3.318  0.7865 -2.4089 -1.2297
  183SLPC   H6S20924   1.583   5.675   3.232  0.2370 -0.4031  0.0200
  183SLPC   C2720925   1.546   5.729   3.438 -0.0183 -0.0461  0.3099
  183SLPC   H7R20926   1.577   5.626   3.468 -0.3107  0.5053  2.6716
  183SLPC   H7S20927   1.436   5.725   3.428 -0.0278  2.3790 -1.6981
  183SLPC   C2820928   1.584   5.825   3.553  0.2327 -0.1984 -0.1700
  183SLPC   H8R20929   1.529   5.805   3.648 -0.0070  0.2033 -0.2210
  183SLPC   H8S20930   1.549   5.925   3.522  2.1553  0.8097  0.7676
  183SLPC   C2920931   1.726   5.822   3.579  0.3450 -0.2096  0.2517
  183SLPC   H9R20932   1.784   5.832   3.486  1.3619 -1.7890  0.6721
  183SLPC  C21020933   1.793   5.834   3.696  0.4341 -0.0898 -0.3267
  183SLPC  H10R20934   1.903   5.829   3.699  0.4592  0.1908 -0.7023
  183SLPC  C21120935   1.732   5.862   3.828 -0.3125 -0.2999 -0.1099
  183SLPC  H11R20936   1.623   5.884   3.827 -0.2863  0.6247  3.1722
  183SLPC  H11S20937   1.768   5.947   3.890  3.4943 -1.2654 -0.7918
  183SLPC  C21220938   1.756   5.729   3.902 -0.4047  0.0131  0.2644
  183SLPC  H12R20939   1.714   5.639   3.854  0.3857  0.3461 -1.1223
  183SLPC  C21320940   1.799   5.714   4.028 -0.2114  0.2133 -0.5241
  183SLPC  H13R20941   1.822   5.613   4.064  1.0278 -0.2546 -2.5154
  183SLPC  C21420942   1.825   5.824   4.122 -0.3490 -0.4441 -0.7203
  183SLPC  H14R20943   1.763   5.915   4.107  1.9093  1.1385 -0.9193
  183SLPC  H14S20944   1.931   5.854   4.114  0.2048 -2.1241 -0.0817
  183SLPC  C21520945   1.801   5.768   4.268 -0.0250  0.4432  0.6262
  183SLPC  H15R20946   1.847   5.839   4.339 -0.2473 -0.7029  1.9571
  183SLPC  H15S20947   1.862   5.676   4.265  1.5762  1.3763 -3.9809
  183SLPC  C21620948   1.647   5.746   4.297 -0.2592  0.3372 -0.4488
  183SLPC  H16R20949   1.601   5.656   4.251 -0.3979 -0.4291  1.1226
  183SLPC  H16S20950   1.586   5.831   4.263 -2.2593 -0.0109  1.9481
  183SLPC  C21720951   1.619   5.734   4.454  0.1202  0.3512  0.1599
  183SLPC  H17R20952   1.659   5.821   4.511  0.0137 -0.7166  1.9210
  183SLPC  H17S20953   1.662   5.639   4.491  1.1509  0.8459  0.2647
  183SLPC  C21820954   1.461   5.738   4.473 -0.2104  0.4234 -0.2685
  183SLPC  H18R20955   1.427   5.636   4.445  1.0700 -0.2361  0.4603
  183SLPC  H18S20956   1.424   5.826   4.418 -2.0457 -0.3196 -0.3060
  183SLPC  H18T20957   1.440   5.751   4.581  1.2985 -1.9803  0.4110
  183SLPC   C3320958   1.115   5.578   2.998  0.2071 -0.2561 -0.5580
  183SLPC   H3X20959   1.083   5.486   2.943  0.4770 -0.3721 -0.5249
  183SLPC   H3Y20960   1.062   5.667   2.958  1.0904  0.9363  0.8413
  183SLPC   C3420961   1.075   5.573   3.148 -0.2798  0.0061  0.3503
  183SLPC   H4X20962   0.969   5.606   3.157 -0.2858  0.9971 -2.4156
  183SLPC   H4Y20963   1.135   5.647   3.204 -1.5724  1.2349  0.1815
  183SLPC   C3520964   1.072   5.436   3.225 -0.2539  0.0697  0.3347
  183SLPC   H5X20965   1.156   5.372   3.190  0.5739  2.3412 -2.1170
  183SLPC   H5Y20966   0.984   5.373   3.198 -1.3151  0.9205  1.6727
  183SLPC   C3620967   1.078   5.444   3.380  0.7604 -0.6444 -0.5415
  183SLPC   H6X20968   1.002   5.390   3.440  0.4033  2.5338  2.1675
  183SLPC   H6Y20969   1.040   5.546   3.401 -1.5014 -2.0597  3.0676
  183SLPC   C3720970   1.211   5.425   3.447 -0.1653  0.3854 -0.2067
  183SLPC   H7X20971   1.287   5.484   3.392  0.2705  1.2008  1.2010
  183SLPC   H7Y20972   1.237   5.317   3.452 -2.3814 -0.1831  0.2443
  183SLPC   C3820973   1.208   5.473   3.601 -0.3344 -0.1530 -0.8269
  183SLPC   H8X20974   1.118   5.416   3.633  0.7819 -0.2563  2.5252
  183SLPC   H8Y20975   1.192   5.581   3.617  0.6478 -0.1660  0.3990
  183SLPC   C3920976   1.326   5.424   3.692 -0.1468  0.4152  0.8904
  183SLPC   H9X20977   1.422   5.464   3.652 -0.5337  1.0583  0.5879
  183SLPC   H9Y20978   1.332   5.315   3.675 -0.5763  0.1158  2.4662
  183SLPC  C31020979   1.301   5.461   3.836 -0.0805 -0.4828 -0.1408
  183SLPC  H10X20980   1.351   5.378   3.891 -2.1981 -1.7771 -0.0675
  183SLPC  H10Y20981   1.197   5.468   3.872  0.0181 -0.3524  0.1250
  183SLPC  C31120982   1.369   5.593   3.878 -0.6942  0.4724  0.1861
  183SLPC  H11X20983   1.352   5.664   3.795  2.7150 -0.3190 -1.3452
  183SLPC  H11Y20984   1.480   5.588   3.876 -0.6762  0.9993 -1.5021
  183SLPC  C31220985   1.317   5.636   4.009  1.0932 -0.8157  0.6014
  183SLPC  H12X20986   1.396   5.699   4.055 -1.9351  2.5238  1.7205
  183SLPC  H12Y20987   1.295   5.548   4.074 -0.6147 -0.8665  0.0215
  183SLPC  C31320988   1.183   5.714   4.000  0.6650  0.3529  0.3609
  183SLPC  H13X20989   1.108   5.641   3.963  0.2620 -0.1035  2.0297
  183SLPC  H13Y20990   1.199   5.800   3.930 -2.3705  0.1757 -0.6813
  183SLPC  C31420991   1.137   5.758   4.140 -0.2087 -0.6291 -0.2789
  183SLPC  H14X20992   1.060   5.836   4.122  1.5934  0.9137 -1.6665
  183SLPC  H14Y20993   1.221   5.813   4.186 -0.6504 -1.2154  1.2810
  183SLPC  C31520994   1.088   5.646   4.231 -0.2077 -0.3495 -0.1496
  183SLPC  H15X20995   1.176   5.585   4.261 -0.8564 -0.9155  0.6419
  183SLPC  H15Y20996   1.010   5.586   4.181 -0.9968  0.3666  0.1939
  183SLPC  C31620997   1.027   5.702   4.360  0.2493 -0.5143 -0.2853
  183SLPC  H16X20998   0.936   5.756   4.325  0.4650 -0.4495 -0.7587
  183SLPC  H16Y20999   1.104   5.770   4.401 -1.7870  0.7763  1.5850
  183SLPC  C31721000   0.985   5.586   4.453  0.1983  0.1073 -0.3988
  183SLPC  H17X21001   0.951   5.625   4.552 -0.9138  1.5074 -1.3077
  183SLPC  H17Y21002   1.077   5.529   4.480 -0.2846 -0.2177  0.6156
  183SLPC  C31821003   0.877   5.496   4.399 -0.0090  0.0026  0.0163
  183SLPC  H18X21004   0.898   5.454   4.299 -2.3081 -0.1523 -0.4548
  183SLPC  H18Y21005   0.783   5.553   4.385 -0.4605 -0.4986  0.8585
  183SLPC  H18Z21006   0.850   5.412   4.468  3.1327  0.3457  1.8460
  184SLPC     N21007   6.343   4.997   2.528  0.0896  0.2033  0.5515
  184SLPC   C1321008   6.197   5.014   2.514 -0.4540 -0.0419 -0.0657
  184SLPC  H13A21009   6.165   4.937   2.446 -0.1508  1.0425 -1.5002
  184SLPC  H13B21010   6.148   4.990   2.608  0.0574  0.8276  0.4427
  184SLPC  H13C21011   6.162   5.108   2.474 -1.3745 -1.0270 -1.6690
  184SLPC   C1421012   6.358   4.859   2.584 -0.1099  0.7064  0.1900
  184SLPC  H14A21013   6.307   4.792   2.516  0.7777 -0.1408  0.3353
  184SLPC  H14B21014   6.463   4.831   2.585 -0.6030 -2.3330  5.7106
  184SLPC  H14C21015   6.307   4.849   2.678 -0.8607 -0.8580 -0.3455
  184SLPC   C1521016   6.403   5.091   2.627 -0.8613  0.1610  0.3425
  184SLPC  H15A21017   6.509   5.074   2.639 -0.1929  0.4543 -3.6786
  184SLPC  H15B21018   6.394   5.197   2.611  0.8769  0.4507  1.0559
  184SLPC  H15C21019   6.361   5.077   2.726 -1.5606  1.7075  0.2882
  184SLPC   C1221020   6.401   5.026   2.384  0.6842  0.4448 -0.0923
  184SLPC  H12A21021   6.506   5.002   2.380  0.5677  0.0809 -1.8593
  184SLPC  H12B21022   6.384   5.126   2.347 -1.2775 -0.1256 -0.9105
  184SLPC   C1121023   6.325   4.938   2.272  0.2158 -0.2249 -0.3629
  184SLPC  H11A21024   6.367   4.966   2.173  1.7441 -1.1452 -0.0150
  184SLPC  H11B21025   6.219   4.971   2.272 -0.3310 -1.9044 -0.7902
  184SLPC     P21026   6.225   4.699   2.253  0.1998  0.2107 -0.0828
  184SLPC   O1321027   6.186   4.712   2.110 -0.0738  0.3379  0.7269
  184SLPC   O1421028   6.269   4.568   2.308  0.3067 -0.7650 -0.2396
  184SLPC   O1221029   6.341   4.801   2.292  0.6314  0.2152  0.4005
  184SLPC   O1121030   6.108   4.754   2.346 -0.6999 -0.0167 -0.0439
  184SLPC    C121031   5.996   4.670   2.370 -0.1154 -0.1019  0.4716
  184SLPC    HA21032   5.916   4.683   2.294  0.7014 -0.0985 -0.4076
  184SLPC    HB21033   6.015   4.561   2.380  0.5060  0.0563  1.0966
  184SLPC    C221034   5.928   4.702   2.511  0.3224 -0.1071  0.3525
  184SLPC    HS21035   5.842   4.632   2.520 -1.5000  2.2124  1.8610
  184SLPC   O2121036   5.872   4.840   2.523 -0.1867  0.2916 -0.1804
  184SLPC   C2121037   5.759   4.867   2.461 -0.3225 -0.4287  0.0133
  184SLPC   O2221038   5.697   4.786   2.395  0.4660 -0.0027  0.0588
  184SLPC   C2221039   5.731   5.016   2.475  0.2222  0.1801 -0.1328
  184SLPC   H2R21040   5.792   5.063   2.395  0.2593 -1.3454 -1.0394
  184SLPC   H2S21041   5.624   5.028   2.449  0.4877  1.8267 -0.5539
  184SLPC    C321042   6.029   4.679   2.633  0.5860  0.2104 -0.4292
  184SLPC    HX21043   6.117   4.742   2.612 -0.1141  2.0636  1.7774
  184SLPC    HY21044   6.065   4.575   2.619 -0.0408 -0.0938  0.1415
  184SLPC   O3121045   5.977   4.703   2.770  0.4729 -0.4416 -0.3206
  184SLPC   C3121046   6.057   4.786   2.844 -0.1229  0.2076 -0.0558
  184SLPC   O3221047   6.162   4.835   2.809 -0.3243 -0.4782  0.0986
  184SLPC   C3221048   5.976   4.830   2.969  0.2564  0.4940 -0.0189
  184SLPC   H2X21049   5.870   4.827   2.937  0.1098  0.6300  0.4445
  184SLPC   H2Y21050   5.997   4.939   2.964  1.0061  0.3101 -1.2213
  184SLPC   C2321051   5.777   5.098   2.600 -1.0845  0.3107 -0.2863
  184SLPC   H3R21052   5.812   5.201   2.577  2.1540 -0.4418  0.7565
  184SLPC   H3S21053   5.873   5.058   2.638 -0.9065 -1.0929 -2.0785
  184SLPC   C2421054   5.678   5.079   2.713  0.1819  0.5864 -0.4193
  184SLPC   H4R21055   5.633   4.977   2.711  0.9578  0.2371 -1.8322
  184SLPC   H4S21056   5.586   5.136   2.688 -0.9334 -0.9596 -0.0175
  184SLPC   C2521057   5.727   5.119   2.855 -0.6175 -0.1896 -0.6079
  184SLPC   H5R21058   5.775   5.218   2.850 -0.2412 -0.3345 -0.0239
  184SLPC   H5S21059   5.818   5.056   2.869  0.0770  0.7880 -0.6702
  184SLPC   C2621060   5.620   5.117   2.963  0.1714  0.1633 -0.1186
  184SLPC   H6R21061   5.560   5.024   2.953 -0.8543  0.7170  0.6904
  184SLPC   H6S21062   5.555   5.204   2.938  1.3943  1.8129  2.1084
  184SLPC   C2721063   5.678   5.132   3.109 -1.1438  0.4256  1.1345
  184SLPC   H7R21064   5.775   5.185   3.111 -0.0277 -1.4573  0.1501
  184SLPC   H7S21065   5.693   5.028   3.145 -1.5699 -0.5506 -1.2770
  184SLPC   C2821066   5.584   5.206   3.206 -1.2341  0.1742 -0.6038
  184SLPC   H8R21067   5.565   5.304   3.158  0.9830 -0.6215 -3.3504
  184SLPC   H8S21068   5.639   5.224   3.301 -1.2235  0.9339 -0.7556
  184SLPC   C2921069   5.453   5.127   3.228 -0.2037 -0.4792  0.3788
  184SLPC   H9R21070   5.373   5.141   3.153 -0.2458  1.8723  0.7984
  184SLPC  C21021071   5.429   5.047   3.334 -0.4872 -0.0412 -0.3564
  184SLPC  H10R21072   5.329   5.002   3.348  0.6081 -3.0111 -1.2634
  184SLPC  C21121073   5.530   5.024   3.444  0.7334 -0.1657 -0.4524
  184SLPC  H11R21074   5.568   5.124   3.474 -0.4183 -0.0570  0.7522
  184SLPC  H11S21075   5.609   4.958   3.402 -0.0635 -0.4123 -1.6288
  184SLPC  C21221076   5.475   4.951   3.563  0.2342  0.0015  0.4663
  184SLPC  H12R21077   5.505   4.845   3.575 -0.7018 -0.3032  0.1939
  184SLPC  C21321078   5.411   5.010   3.666 -0.5081  0.7555  0.4307
  184SLPC  H13R21079   5.380   4.946   3.750  0.6817 -1.8217 -0.9717
  184SLPC  C21421080   5.365   5.158   3.665 -0.3485  0.1615  0.1230
  184SLPC  H14R21081   5.404   5.205   3.573 -0.3838 -2.0569 -1.0960
  184SLPC  H14S21082   5.421   5.210   3.746 -0.3111 -0.6292  0.6179
  184SLPC  C21521083   5.209   5.178   3.677 -0.3470  0.4925 -0.1125
  184SLPC  H15R21084   5.170   5.282   3.678 -0.5205  0.5208 -3.0470
  184SLPC  H15S21085   5.174   5.117   3.763 -0.7642 -0.3257 -0.8557
  184SLPC  C21621086   5.128   5.128   3.547 -0.1491 -0.5404  0.3998
  184SLPC  H16R21087   5.170   5.026   3.532  0.5792 -0.3239  0.8756
  184SLPC  H16S21088   5.152   5.197   3.463  1.9650  0.2990  1.5964
  184SLPC  C21721089   4.979   5.138   3.572 -0.1185  0.3484  0.4202
  184SLPC  H17R21090   4.944   5.244   3.571 -2.4889 -0.3560  1.3130
  184SLPC  H17S21091   4.953   5.086   3.666 -2.2706 -1.6888 -1.1648
  184SLPC  C21821092   4.896   5.066   3.462 -0.5659  0.6530  0.6254
  184SLPC  H18R21093   4.939   4.964   3.455  0.2681  0.7684  3.0341
  184SLPC  H18S21094   4.909   5.116   3.364  0.0475  1.2449  0.9987
  184SLPC  H18T21095   4.788   5.058   3.488 -0.3310  2.8259  2.5877
  184SLPC   C3321096   6.002   4.760   3.103  1.1670  0.3591  0.4357
  184SLPC   H3X21097   6.111   4.750   3.125  1.5315  2.4836 -0.2002
  184SLPC   H3Y21098   5.956   4.658   3.099 -2.0965  1.6821  1.2065
  184SLPC   C3421099   5.934   4.821   3.225 -0.1202  0.7319  0.4058
  184SLPC   H4X21100   5.833   4.848   3.189  0.1791  0.5328 -0.6146
  184SLPC   H4Y21101   5.979   4.917   3.257  2.8321 -0.8189  1.3155
  184SLPC   C3521102   5.937   4.736   3.350 -0.1239 -0.3131  0.2608
  184SLPC   H5X21103   6.040   4.706   3.381  0.4227 -0.1440 -1.3220
  184SLPC   H5Y21104   5.876   4.647   3.325 -1.9011  1.0880 -0.6247
  184SLPC   C3621105   5.867   4.806   3.470  0.1689  0.1963  0.2374
  184SLPC   H6X21106   5.763   4.824   3.436  0.8599  0.0481 -2.1675
  184SLPC   H6Y21107   5.921   4.901   3.488 -0.2915  0.5686 -0.3021
  184SLPC   C3721108   5.876   4.726   3.597  0.0161  0.8132 -0.0259
  184SLPC   H7X21109   5.985   4.711   3.612  0.4125  0.7513 -2.5310
  184SLPC   H7Y21110   5.827   4.626   3.594 -0.5600  0.9879  2.0020
  184SLPC   C3821111   5.815   4.801   3.721  0.3267 -0.6079  0.1134
  184SLPC   H8X21112   5.706   4.818   3.706 -0.3054 -3.8270  0.3950
  184SLPC   H8Y21113   5.864   4.901   3.723  0.5678 -0.7061 -0.5463
  184SLPC   C3921114   5.823   4.720   3.849 -0.5993 -1.2120 -0.1921
  184SLPC   H9X21115   5.920   4.665   3.851 -0.6498 -1.3736 -1.4897
  184SLPC   H9Y21116   5.744   4.642   3.852 -2.1404  0.3098  2.2006
  184SLPC  C31021117   5.796   4.813   3.965  0.2278  0.8020 -0.7183
  184SLPC  H10X21118   5.691   4.844   3.947 -0.1479  0.4392  0.6950
  184SLPC  H10Y21119   5.853   4.908   3.973  1.2467  0.1466  0.0784
  184SLPC  C31121120   5.797   4.743   4.109 -0.0782  0.6238  0.5162
  184SLPC  H11X21121   5.890   4.683   4.120  0.8731  1.1845 -3.0404
  184SLPC  H11Y21122   5.717   4.667   4.096  0.8271 -0.1319 -0.9913
  184SLPC  C31221123   5.768   4.837   4.229  0.5007  0.0891  0.0855
  184SLPC  H12X21124   5.682   4.902   4.200  2.3649  3.3387  1.3310
  184SLPC  H12Y21125   5.850   4.911   4.232  1.3004 -0.8081  0.7753
  184SLPC  C31321126   5.747   4.769   4.367 -0.4812  0.6130 -0.2077
  184SLPC  H13X21127   5.825   4.693   4.389 -0.3349  0.5297 -0.9703
  184SLPC  H13Y21128   5.654   4.713   4.342 -1.2394  2.3497 -1.4741
  184SLPC  C31421129   5.716   4.864   4.489 -0.1154 -0.1294 -0.7815
  184SLPC  H14X21130   5.678   4.961   4.451 -0.9499 -0.6608 -1.3214
  184SLPC  H14Y21131   5.809   4.873   4.549 -0.8141 -0.5023  0.4064
  184SLPC  C31521132   5.609   4.806   4.582  0.3994 -0.0100  0.1388
  184SLPC  H15X21133   5.627   4.703   4.619  0.6527 -0.1126 -0.2728
  184SLPC  H15Y21134   5.508   4.806   4.535  0.5115 -0.3856 -0.0968
  184SLPC  C31621135   5.586   4.903   4.705 -0.1754  0.0163 -0.3965
  184SLPC  H16X21136   5.551   5.000   4.665  0.5720 -0.1839 -1.5730
  184SLPC  H16Y21137   5.676   4.911   4.769 -0.1576 -0.8949 -0.2989
  184SLPC  C31721138   5.473   4.840   4.796 -0.3658 -0.5366 -0.4713
  184SLPC  H17X21139   5.517   4.754   4.851 -1.2944 -0.2901  0.7000
  184SLPC  H17Y21140   5.386   4.823   4.729 -0.2115  0.2217 -0.8686
  184SLPC  C31821141   5.424   4.951   4.892  0.3481  0.4792 -0.0931
  184SLPC  H18X21142   5.510   4.994   4.947  1.6613 -1.7204 -0.2894
  184SLPC  H18Y21143   5.359   4.900   4.966  1.3072 -0.1425  0.3330
  184SLPC  H18Z21144   5.368   5.025   4.831  0.7899  0.9426  0.0601
  185POPC     N21145   3.990   6.018   7.084  0.1686 -0.5911  0.1652
  185POPC   C1221146   4.013   6.080   6.945  0.2320  0.6452  0.4448
  185POPC  H12A21147   3.915   6.114   6.916 -0.2881 -1.4275 -0.4338
  185POPC  H12B21148   4.049   6.008   6.873 -0.8852  2.0073 -1.5670
  185POPC   C1321149   3.923   6.120   7.177 -0.2163 -0.2292 -0.1063
  185POPC  H13A21150   3.893   6.074   7.270 -1.6341 -2.8391 -1.7455
  185POPC  H13B21151   3.996   6.194   7.207 -0.9356  0.0405  1.0907
  185POPC  H13C21152   3.840   6.157   7.118  1.3926  0.1161 -2.2956
  185POPC   C1421153   3.892   5.908   7.069 -0.1265  0.1201 -0.3193
  185POPC  H14A21154   3.911   5.831   7.143 -1.1655 -1.8155 -1.9564
  185POPC  H14B21155   3.791   5.944   7.075  0.3786  1.7015 -0.8418
  185POPC  H14C21156   3.906   5.850   6.979 -0.4886  2.3456 -1.8733
  185POPC   C1521157   4.111   5.968   7.145  0.2640 -0.3474  0.4911
  185POPC  H15A21158   4.100   5.936   7.248  2.5752 -1.4876  0.4441
  185POPC  H15B21159   4.178   6.053   7.144 -0.8380  0.5480 -0.3889
  185POPC  H15C21160   4.155   5.892   7.082 -1.5604  0.1810 -1.5630
  185POPC   C1121161   4.108   6.199   6.937 -0.3619  0.0517 -0.1199
  185POPC  H11A21162   4.154   6.200   6.835  0.3747 -1.1663  0.1806
  185POPC  H11B21163   4.195   6.176   7.001  0.0359 -0.6054 -0.8786
  185POPC     P21164   3.941   6.387   6.905  0.0593 -0.2417 -0.0366
  185POPC   O1321165   3.894   6.511   6.965  0.5442  0.7580  0.6056
  185POPC   O1421166   3.835   6.288   6.868 -0.0835 -0.0941  0.5093
  185POPC   O1221167   4.057   6.326   6.990 -0.2562  0.2173  0.3664
  185POPC   O1121168   4.007   6.412   6.768  0.8311 -0.5563  0.4755
  185POPC    C121169   4.113   6.508   6.767  0.2282  0.0630  0.2645
  185POPC    HA21170   4.187   6.487   6.848 -0.5919  1.9748  1.5746
  185POPC    HB21171   4.066   6.606   6.789 -0.1860  0.8340 -3.4232
  185POPC    C221172   4.189   6.498   6.627 -0.6742 -0.1721  0.3387
  185POPC    HS21173   4.267   6.576   6.632 -0.8494 -0.0213  0.7592
  185POPC   O2121174   4.095   6.530   6.523 -0.2441  0.1690  0.3456
  185POPC   C2121175   4.142   6.606   6.427  0.1022 -0.1711  0.8323
  185POPC   O2221176   4.260   6.644   6.415 -0.0480 -0.6072 -0.5193
  185POPC   C2221177   4.032   6.646   6.327  0.3235 -0.3165 -0.3553
  185POPC   H2R21178   4.016   6.756   6.327 -1.3067 -0.3895  3.4334
  185POPC   H2S21179   3.935   6.605   6.362  1.9697 -2.4279  2.0442
  185POPC    C321180   4.261   6.361   6.605  0.4419  0.1412  0.0618
  185POPC    HX21181   4.192   6.274   6.606  1.6908 -0.9096 -1.0389
  185POPC    HY21182   4.332   6.342   6.688  1.3946 -1.7151 -1.0935
  185POPC   O3121183   4.332   6.352   6.472  0.1976  0.2722  0.6974
  185POPC   C3121184   4.456   6.413   6.482  0.0961 -0.3138  0.0354
  185POPC   O3221185   4.503   6.470   6.579  0.2180 -0.0058  0.3671
  185POPC   C3221186   4.526   6.393   6.347 -0.1932  0.0716  0.0982
  185POPC   H2X21187   4.549   6.284   6.346 -1.1222 -0.1461  0.7594
  185POPC   H2Y21188   4.614   6.460   6.343  0.1108 -0.3819 -0.9769
  185POPC   C2321189   4.064   6.596   6.184 -0.5976 -0.0770  0.3999
  185POPC   H3R21190   4.068   6.485   6.180  0.8030 -0.0254 -2.7338
  185POPC   H3S21191   4.165   6.634   6.158 -0.3734 -0.6337  0.4469
  185POPC   C2421192   3.956   6.646   6.087  0.3546  0.5871 -1.1517
  185POPC   H4R21193   3.992   6.644   5.982 -1.9531  1.0794 -2.0192
  185POPC   H4S21194   3.929   6.751   6.113  0.6380  0.1580  1.0869
  185POPC   C2521195   3.821   6.572   6.099 -0.2180  0.1051  0.4987
  185POPC   H5R21196   3.782   6.584   6.202  0.3721  1.5546  0.5835
  185POPC   H5S21197   3.844   6.466   6.077 -0.9889  0.0351 -0.0224
  185POPC   C2621198   3.711   6.618   6.006 -0.6865 -0.8546 -0.2349
  185POPC   H6R21199   3.707   6.728   5.988 -0.1496 -1.2868 -3.8234
  185POPC   H6S21200   3.613   6.587   6.048 -0.4281  1.4475  2.3732
  185POPC   C2721201   3.733   6.569   5.864  0.1772  0.2820  0.4134
  185POPC   H7R21202   3.774   6.466   5.854 -2.2353 -0.5445 -3.4706
  185POPC   H7S21203   3.804   6.634   5.809 -2.9438  1.0668 -3.1424
  185POPC   C2821204   3.593   6.579   5.786  0.4237  0.6181 -0.3087
  185POPC   H8R21205   3.615   6.554   5.681 -0.5321  1.0039 -0.6148
  185POPC   H8S21206   3.555   6.683   5.796 -1.0337 -0.0220  1.4847
  185POPC   C2921207   3.494   6.486   5.840  0.5765 -0.3041 -0.0035
  185POPC   H9121208   3.529   6.432   5.929  1.3887  0.5764  0.2303
  185POPC  C21021209   3.365   6.490   5.799  0.1305 -0.0552 -0.0245
  185POPC  H10121210   3.284   6.422   5.830 -2.6013  1.4469 -3.3532
  185POPC  C21121211   3.314   6.570   5.688  0.7801 -0.5605  0.1372
  185POPC  H11R21212   3.217   6.528   5.652  0.7330  1.0767 -1.8008
  185POPC  H11S21213   3.381   6.557   5.601 -0.7929 -1.2304 -1.0108
  185POPC  C21221214   3.269   6.711   5.738 -1.0739  0.3786  0.7702
  185POPC  H12R21215   3.364   6.766   5.754 -0.6907 -0.7775  3.0308
  185POPC  H12S21216   3.221   6.694   5.837 -1.8221  0.2629  0.3918
  185POPC  C21321217   3.167   6.781   5.656  0.8185 -0.5398 -0.2510
  185POPC  H13R21218   3.148   6.874   5.714 -0.3287 -1.4987  0.9756
  185POPC  H13S21219   3.071   6.726   5.646  0.7829 -0.7280  1.0414
  185POPC  C21421220   3.230   6.832   5.524  0.1630 -0.0004  0.3195
  185POPC  H14R21221   3.309   6.766   5.483  0.8613  1.9253 -1.6082
  185POPC  H14S21222   3.283   6.927   5.545  0.6686  0.4180 -2.5026
  185POPC  C21521223   3.127   6.875   5.417 -0.0988  0.2116 -0.2310
  185POPC  H15R21224   3.163   6.958   5.353 -0.3430 -0.5502 -1.3919
  185POPC  H15S21225   3.045   6.918   5.479 -0.7413  0.1518 -1.0165
  185POPC  C21621226   3.074   6.762   5.318 -0.0917  0.5732  0.4908
  185POPC  H16R21227   2.964   6.753   5.321 -0.1511  0.5990 -1.0664
  185POPC  H16S21228   3.100   6.665   5.365  1.5721  0.8958  0.2968
  185POPC  C21721229   3.134   6.774   5.178  0.2895 -0.8718  0.2238
  185POPC  H17R21230   3.242   6.749   5.185  0.8937  1.5982  0.5985
  185POPC  H17S21231   3.122   6.878   5.142  2.2524 -0.5042  0.5000
  185POPC  C21821232   3.063   6.676   5.081 -0.2222 -0.2971 -0.2655
  185POPC  H18R21233   3.119   6.663   4.986 -1.3322  1.6399 -1.2478
  185POPC  H18S21234   2.963   6.706   5.043 -0.0424  0.4625 -0.1510
  185POPC  H18T21235   3.053   6.580   5.136 -2.8472 -0.1001 -0.2529
  185POPC   C3321236   4.451   6.433   6.211  0.3784  0.5391  0.4851
  185POPC   H3X21237   4.526   6.485   6.148  1.5842 -0.5636  0.9832
  185POPC   H3Y21238   4.362   6.497   6.228 -1.0361 -1.8302  2.6484
  185POPC   C3421239   4.413   6.312   6.129 -0.4193  0.1999  0.8772
  185POPC   H4X21240   4.310   6.276   6.151  0.6059 -0.7165  5.2819
  185POPC   H4Y21241   4.490   6.234   6.144 -0.5921 -0.6011 -1.8921
  185POPC   C3521242   4.416   6.350   5.981  0.1287  0.0037  0.2985
  185POPC   H5X21243   4.499   6.418   5.953 -0.5594  0.7558  0.0593
  185POPC   H5Y21244   4.324   6.409   5.964  0.0396 -0.6225 -1.5426
  185POPC   C3621245   4.406   6.224   5.886  0.0016  0.3460  0.2230
  185POPC   H6X21246   4.299   6.194   5.884 -0.4647  1.8242  0.8252
  185POPC   H6Y21247   4.463   6.138   5.926  0.2650  0.0745 -0.7168
  185POPC   C3721248   4.452   6.256   5.745  0.2752  0.4794  0.4906
  185POPC   H7X21249   4.552   6.304   5.747 -0.5252  2.2458  0.9868
  185POPC   H7Y21250   4.386   6.340   5.712 -1.8343 -0.1670  2.7240
  185POPC   C3821251   4.445   6.138   5.646 -0.2025 -0.9819  0.2902
  185POPC   H8X21252   4.363   6.067   5.672 -0.1189 -1.1216  0.1759
  185POPC   H8Y21253   4.535   6.074   5.662  2.3132  2.3264  0.4957
  185POPC   C3921254   4.421   6.179   5.499  0.3250  0.0847 -0.4984
  185POPC   H9X21255   4.504   6.247   5.472  0.4826  0.4185  0.7439
  185POPC   H9Y21256   4.327   6.237   5.496  0.9523  1.0872 -1.4757
  185POPC  C31021257   4.413   6.057   5.407  0.5855 -0.5017 -0.0293
  185POPC  H10X21258   4.360   5.977   5.463 -0.3807  0.1313 -0.0220
  185POPC  H10Y21259   4.512   6.024   5.370  0.1290 -1.2739 -0.5923
  185POPC  C31121260   4.340   6.088   5.274 -0.2799 -0.0510 -0.5159
  185POPC  H11X21261   4.341   5.998   5.209 -0.8290 -1.6184  1.5601
  185POPC  H11Y21262   4.389   6.165   5.211  0.8950 -1.1585 -0.9867
  185POPC  C31221263   4.194   6.116   5.309  0.8837  0.0705 -0.3863
  185POPC  H12X21264   4.181   6.210   5.367  0.4784 -0.0382 -0.2964
  185POPC  H12Y21265   4.159   6.032   5.373 -1.4187  1.4053  0.2372
  185POPC  C31321266   4.093   6.114   5.189 -0.4104 -0.0995 -0.6261
  185POPC  H13X21267   3.995   6.138   5.234 -0.3910 -0.5153 -0.3530
  185POPC  H13Y21268   4.082   6.011   5.149 -2.9099  1.2307 -3.7745
  185POPC  C31421269   4.128   6.200   5.074 -0.2467 -0.4866  0.6451
  185POPC  H14X21270   4.219   6.165   5.021 -0.6669 -2.8107  1.3401
  185POPC  H14Y21271   4.149   6.307   5.097  2.1375 -0.1282 -2.4984
  185POPC  C31521272   4.023   6.203   4.968  0.2790 -0.8236 -0.4428
  185POPC  H15X21273   3.929   6.214   5.026  0.8531  0.2640  0.3115
  185POPC  H15Y21274   4.007   6.099   4.932  1.9261 -0.9282 -0.9655
  185POPC  C31621275   4.039   6.312   4.863 -0.8506 -0.1702 -0.1044
  185POPC  H16X21276   4.135   6.298   4.808 -0.5289  0.4912  0.2719
  185POPC  H16Y21277   4.041   6.413   4.909 -2.0684 -0.0818 -0.2139
  185POPC  H16Z21278   3.948   6.320   4.800  0.6587  1.2306 -2.3020
  186POPC     N21279   1.455   6.346   6.916  0.1144  0.2149 -0.3182
  186POPC   C1221280   1.370   6.478   6.907  1.0943  0.6588  0.0284
  186POPC  H12A21281   1.414   6.556   6.967 -0.8966 -0.1583  2.7662
  186POPC  H12B21282   1.282   6.467   6.969  0.8510  1.3170 -0.2010
  186POPC   C1321283   1.384   6.227   6.864  0.0668  0.4243  0.3458
  186POPC  H13A21284   1.291   6.208   6.917 -0.6354 -1.9360 -1.5581
  186POPC  H13B21285   1.360   6.246   6.761  0.8673 -3.9398 -0.8339
  186POPC  H13C21286   1.449   6.142   6.872 -0.7736 -0.0877  2.3527
  186POPC   C1421287   1.581   6.365   6.841  0.4253  0.2971 -1.2154
  186POPC  H14A21288   1.649   6.286   6.870 -0.4483  0.0160  0.1349
  186POPC  H14B21289   1.575   6.364   6.733 -0.1246  1.3048 -1.2006
  186POPC  H14C21290   1.632   6.456   6.869 -0.3667  0.5990 -0.7420
  186POPC   C1521291   1.497   6.318   7.059  0.0246 -0.0677 -0.9075
  186POPC  H15A21292   1.563   6.233   7.059  0.3051  0.1506 -1.0987
  186POPC  H15B21293   1.407   6.291   7.112 -0.1761 -0.1080 -1.2673
  186POPC  H15C21294   1.543   6.398   7.116 -0.7651  1.4161 -2.2759
  186POPC   C1121295   1.321   6.528   6.764 -0.4820 -0.4645  0.2684
  186POPC  H11A21296   1.408   6.536   6.695 -0.3243 -2.0865  0.2526
  186POPC  H11B21297   1.275   6.630   6.767  3.0109  1.2762 -0.1232
  186POPC     P21298   1.078   6.431   6.764 -0.2197 -0.0472 -0.0530
  186POPC   O1321299   1.023   6.567   6.750 -0.4403  0.5438 -0.3821
  186POPC   O1421300   1.089   6.384   6.903 -0.4822  0.3757 -0.0278
  186POPC   O1221301   1.228   6.436   6.704 -0.3572  0.4880  0.2155
  186POPC   O1121302   1.010   6.327   6.662  0.7494  0.0869 -0.4838
  186POPC    C121303   1.032   6.188   6.684  0.8706  1.3248  0.7397
  186POPC    HA21304   0.932   6.139   6.686  0.7423  1.5751  0.4944
  186POPC    HB21305   1.085   6.157   6.777  0.0964  1.3867  1.2158
  186POPC    C221306   1.108   6.144   6.556  0.5338 -0.3240  0.0778
  186POPC    HS21307   1.205   6.197   6.562  0.7918 -0.7165 -0.5549
  186POPC   O2121308   1.034   6.194   6.444 -0.2152  0.1610  0.0795
  186POPC   C2121309   1.119   6.222   6.340  0.4939 -0.5480  0.0147
  186POPC   O2221310   1.237   6.233   6.345 -0.1836  0.0980 -0.1623
  186POPC   C2221311   1.034   6.239   6.215 -0.1947  0.5249  0.4951
  186POPC   H2R21312   0.982   6.336   6.230  0.2696  0.7052  0.9730
  186POPC   H2S21313   0.963   6.154   6.213 -2.1704  2.0970  0.2912
  186POPC    C321314   1.127   5.991   6.559  0.6056 -0.0602 -0.4865
  186POPC    HX21315   1.028   5.940   6.567  1.0099 -0.7410  0.3812
  186POPC    HY21316   1.160   5.976   6.664 -2.1406 -2.5859  0.1533
  186POPC   O3121317   1.215   5.933   6.463  0.2155 -0.6599 -0.3432
  186POPC   C3121318   1.346   5.955   6.478 -0.0951 -0.7505  0.4643
  186POPC   O3221319   1.394   6.020   6.571  0.4025 -0.5028 -0.5142
  186POPC   C3221320   1.431   5.880   6.377  0.3790 -0.1635 -0.4713
  186POPC   H2X21321   1.388   5.778   6.374 -2.0161  0.7710 -0.3180
  186POPC   H2Y21322   1.532   5.866   6.422 -0.8191  0.4688  2.7115
  186POPC   C2321323   1.112   6.251   6.081  0.3018 -0.0639  0.2928
  186POPC   H3R21324   1.168   6.157   6.061 -0.2629 -0.4774  0.6005
  186POPC   H3S21325   1.175   6.342   6.083 -0.5503  0.5504 -0.0748
  186POPC   C2421326   1.004   6.260   5.960 -0.2772 -0.7765  0.6005
  186POPC   H4R21327   0.967   6.360   5.993  0.2517  0.0251 -1.1680
  186POPC   H4S21328   0.916   6.192   5.966  0.0571 -1.1366  2.0000
  186POPC   C2521329   1.068   6.264   5.815 -0.3754  0.0165 -0.2621
  186POPC   H5R21330   1.144   6.184   5.801  0.0172  0.6064 -1.6573
  186POPC   H5S21331   1.115   6.364   5.807 -0.3154 -0.0228 -0.3944
  186POPC   C2621332   0.954   6.246   5.710  0.3335 -0.5288 -0.5538
  186POPC   H6R21333   0.863   6.306   5.733 -0.3314 -1.5391 -0.4771
  186POPC   H6S21334   0.913   6.143   5.716 -0.5615 -0.0761  2.2038
  186POPC   C2721335   0.999   6.251   5.567 -1.0297  0.2770 -0.0211
  186POPC   H7R21336   1.059   6.160   5.549  2.0919  1.7154  2.0956
  186POPC   H7S21337   1.064   6.341   5.556  0.3985 -0.9413 -2.0295
  186POPC   C2821338   0.892   6.265   5.459  0.8468  0.2884  0.8425
  186POPC   H8R21339   0.836   6.359   5.481 -1.7841 -1.4095  1.8622
  186POPC   H8S21340   0.811   6.191   5.474 -0.1286  1.4953  1.6952
  186POPC   C2921341   0.970   6.259   5.329  0.6310  0.1778 -0.0933
  186POPC   H9121342   1.068   6.308   5.341 -0.3617  1.9498  1.3353
  186POPC  C21021343   0.927   6.204   5.212 -0.4363  0.0274 -0.0647
  186POPC  H10121344   1.000   6.193   5.131 -1.7392 -1.8492 -1.0547
  186POPC  C21121345   0.799   6.124   5.188  0.1314 -0.3914 -0.2615
  186POPC  H11R21346   0.753   6.177   5.103  0.5627  2.2742  1.0679
  186POPC  H11S21347   0.730   6.147   5.272 -0.0073 -1.7029  0.0118
  186POPC  C21221348   0.808   5.968   5.178  0.3768 -0.3811 -0.1014
  186POPC  H12R21349   0.863   5.940   5.270 -0.0635  1.3430  0.7392
  186POPC  H12S21350   0.866   5.935   5.090  1.6478  0.5820  0.3461
  186POPC  C21321351   0.664   5.911   5.164 -0.5962  0.0156 -0.2349
  186POPC  H13R21352   0.621   5.922   5.266 -0.5385 -1.1275 -0.0734
  186POPC  H13S21353   0.678   5.801   5.155 -0.3187 -0.1221  1.5005
  186POPC  C21421354   0.581   5.978   5.045  0.2821  0.6226 -0.2171
  186POPC  H14R21355   0.640   6.006   4.955  1.1822  0.2481  0.2388
  186POPC  H14S21356   0.548   6.078   5.080  1.6181  0.9956  0.0380
  186POPC  C21521357   0.457   5.899   5.006  0.1725 -0.0715  0.6387
  186POPC  H15R21358   0.403   5.861   5.095  0.6020  0.1775  1.0173
  186POPC  H15S21359   0.487   5.808   4.951 -0.3683  0.4441 -0.5417
  186POPC  C21621360   0.357   5.982   4.918  0.5339 -0.2634  0.1184
  186POPC  H16R21361   0.420   6.040   4.847  1.3997 -0.5727  0.6302
  186POPC  H16S21362   0.306   6.063   4.974  2.7183  1.8767 -0.7978
  186POPC  C21721363   0.263   5.887   4.844  0.4874  0.1889  0.1394
  186POPC  H17R21364   0.195   5.840   4.919 -0.3627 -3.3413 -2.5718
  186POPC  H17S21365   0.320   5.803   4.800  0.8637  0.5729 -0.1068
  186POPC  C21821366   0.171   5.942   4.730  0.1818 -0.2697 -0.0927
  186POPC  H18R21367   0.090   5.998   4.781  1.1560 -0.3221  1.6112
  186POPC  H18S21368   0.114   5.859   4.684 -1.0827  0.8277 -0.5621
  186POPC  H18T21369   0.228   5.999   4.653  0.8388  0.1946  0.7247
  186POPC   C3321370   1.436   5.938   6.238 -0.1608  0.2039  0.4821
  186POPC   H3X21371   1.331   5.940   6.201  0.3306  0.6691 -0.9468
  186POPC   H3Y21372   1.487   5.868   6.169  0.4041  1.6288 -0.5991
  186POPC   C3421373   1.513   6.079   6.229  0.1679 -0.8079 -0.3927
  186POPC   H4X21374   1.618   6.047   6.250 -0.3831 -1.4610  1.6038
  186POPC   H4Y21375   1.479   6.144   6.312 -0.7630 -2.1827  0.3479
  186POPC   C3521376   1.487   6.148   6.093 -0.7553 -0.8798  0.7541
  186POPC   H5X21377   1.546   6.242   6.087 -2.2254  0.0247 -0.2266
  186POPC   H5Y21378   1.385   6.193   6.087  0.5660  2.1341 -2.9222
  186POPC   C3621379   1.507   6.059   5.974 -0.5391  0.3326 -0.0111
  186POPC   H6X21380   1.461   5.959   5.988  3.2187 -1.5492  0.1979
  186POPC   H6Y21381   1.615   6.034   5.982 -0.2789  1.7014  1.2097
  186POPC   C3721382   1.469   6.112   5.835  0.3164 -0.3000 -0.1925
  186POPC   H7X21383   1.532   6.202   5.822 -1.4138  0.7714 -1.6303
  186POPC   H7Y21384   1.364   6.149   5.846 -0.4709 -2.8324  1.8715
  186POPC   C3821385   1.479   6.008   5.722  0.8509  0.2871  0.5256
  186POPC   H8X21386   1.448   5.907   5.756  0.4634  0.5995  1.1189
  186POPC   H8Y21387   1.583   5.984   5.689 -0.2068 -0.5044 -2.4997
  186POPC   C3921388   1.392   6.054   5.604  0.4371 -0.4814 -0.8506
  186POPC   H9X21389   1.451   6.135   5.557 -0.8506  1.5889  0.9271
  186POPC   H9Y21390   1.298   6.092   5.649  0.7209 -0.0861 -0.5833
  186POPC  C31021391   1.359   5.944   5.497  0.0638  0.3065  0.3653
  186POPC  H10X21392   1.295   5.863   5.539 -0.2426 -0.1158 -0.8444
  186POPC  H10Y21393   1.447   5.895   5.451 -0.5697  0.6787 -1.3498
  186POPC  C31121394   1.297   5.999   5.370  0.5087 -0.3030  0.5108
  186POPC  H11X21395   1.373   6.070   5.329 -0.7193  0.4834 -0.5003
  186POPC  H11Y21396   1.206   6.061   5.385  1.8871  1.9030  0.2242
  186POPC  C31221397   1.266   5.890   5.263  0.6146 -0.0722 -0.2000
  186POPC  H12X21398   1.204   5.820   5.324 -0.1881 -0.8474 -1.8392
  186POPC  H12Y21399   1.353   5.825   5.241 -0.0824 -1.6759  1.4901
  186POPC  C31321400   1.186   5.929   5.139 -0.3956  0.5598  0.1474
  186POPC  H13X21401   1.098   5.990   5.168  0.7467  2.5921 -0.4887
  186POPC  H13Y21402   1.155   5.848   5.070 -1.5006  1.0924  0.0048
  186POPC  C31421403   1.280   6.013   5.044 -0.0960  0.8265  0.5912
  186POPC  H14X21404   1.382   5.972   5.038  0.1203  1.4853 -0.5459
  186POPC  H14Y21405   1.292   6.111   5.096  4.6526  1.6356 -1.5125
  186POPC  C31521406   1.229   6.009   4.901  0.0781  0.0487  0.9410
  186POPC  H15X21407   1.251   6.105   4.849  0.6924 -0.4664  0.2280
  186POPC  H15Y21408   1.120   6.001   4.917  0.1058 -2.4823  0.1828
  186POPC  C31621409   1.281   5.890   4.814 -0.5177 -0.0250  0.1608
  186POPC  H16X21410   1.214   5.873   4.727 -1.7183 -1.7490  1.3684
  186POPC  H16Y21411   1.265   5.795   4.868  2.0691 -1.3728 -1.2970
  186POPC  H16Z21412   1.388   5.896   4.785 -0.4876  0.1172  0.3003
  187POPC     N21413   6.544   5.665   2.171 -0.3162 -0.0674 -0.6437
  187POPC   C1221414   6.488   5.575   2.275 -0.5596 -0.6827  0.2056
  187POPC  H12A21415   6.536   5.605   2.367  1.8460 -0.3988 -1.0633
  187POPC  H12B21416   6.524   5.473   2.269  1.1670 -0.0800 -0.4756
  187POPC   C1321417   6.695   5.633   2.180  0.3365 -0.0209  0.1718
  187POPC  H13A21418   6.724   5.666   2.278 -0.8315  2.0828 -0.1114
  187POPC  H13B21419   6.712   5.527   2.177  0.3420 -0.0072 -1.0545
  187POPC  H13C21420   6.755   5.687   2.107  1.5332 -1.4694  0.0514
  187POPC   C1421421   6.505   5.633   2.034 -0.3151 -0.5606  0.4856
  187POPC  H14A21422   6.546   5.703   1.962 -1.1543 -0.6435 -0.0883
  187POPC  H14B21423   6.552   5.538   2.012  1.2915  0.6589 -1.9322
  187POPC  H14C21424   6.398   5.638   2.020 -0.1063  1.9689 -0.8905
  187POPC   C1521425   6.522   5.810   2.197 -0.3453  0.4833 -0.0440
  187POPC  H15A21426   6.431   5.842   2.245  0.5873  0.6643  1.6830
  187POPC  H15B21427   6.544   5.865   2.107  2.7767  0.1913  0.4393
  187POPC  H15C21428   6.591   5.838   2.275 -0.3488  0.0561  0.1186
  187POPC   C1121429   6.333   5.571   2.286  0.4347 -0.5850 -0.1957
  187POPC  H11A21430   6.295   5.675   2.278  0.9682 -0.3382  0.3720
  187POPC  H11B21431   6.297   5.545   2.388 -0.2068 -2.0488 -0.7661
  187POPC     P21432   6.280   5.328   2.189  0.5589 -0.0410 -0.2610
  187POPC   O1321433   6.411   5.290   2.244  0.6378 -0.0602 -0.1436
  187POPC   O1421434   6.242   5.276   2.052 -0.0299 -0.1929 -0.3602
  187POPC   O1221435   6.279   5.488   2.181 -0.2648  0.0789 -0.7089
  187POPC   O1121436   6.168   5.286   2.292  0.0750 -0.2919  0.1717
  187POPC    C121437   6.028   5.313   2.270  0.5324 -0.4230 -0.2700
  187POPC    HA21438   5.970   5.222   2.298  0.8906 -0.6470 -0.2522
  187POPC    HB21439   5.996   5.333   2.166 -3.5085  0.5050  0.9420
  187POPC    C221440   5.988   5.431   2.364 -0.5332 -0.1790 -0.0001
  187POPC    HS21441   6.058   5.513   2.338 -3.3669  2.3499 -0.2632
  187POPC   O2121442   5.996   5.390   2.502  0.7252  0.1789  0.7626
  187POPC   C2121443   6.064   5.460   2.584  0.2175  0.6704  0.1847
  187POPC   O2221444   6.130   5.561   2.557  0.4984 -0.5910  0.1044
  187POPC   C2221445   6.050   5.408   2.720 -0.9088  0.3868  0.2281
  187POPC   H2R21446   6.038   5.298   2.713 -3.6880  0.6837 -0.9324
  187POPC   H2S21447   5.961   5.454   2.770 -1.2936  0.5645 -0.6032
  187POPC    C321448   5.847   5.475   2.342 -0.8332 -0.0586 -0.2826
  187POPC    HX21449   5.773   5.394   2.359 -1.3010  0.1811 -1.1129
  187POPC    HY21450   5.835   5.504   2.235 -2.6097 -1.5368 -0.5258
  187POPC   O3121451   5.823   5.583   2.428 -0.2250  0.9247 -0.2847
  187POPC   C3121452   5.701   5.631   2.431 -0.4114  0.7782  0.5981
  187POPC   O3221453   5.613   5.597   2.351 -0.1072 -0.1814 -0.1914
  187POPC   C3221454   5.689   5.748   2.533 -0.6181  0.3208 -0.2987
  187POPC   H2X21455   5.620   5.822   2.487 -1.0354  1.2120  1.6460
  187POPC   H2Y21456   5.786   5.804   2.533 -1.2287  1.4016 -0.9010
  187POPC   C2321457   6.176   5.438   2.804  0.3520 -0.1711  0.6988
  187POPC   H3R21458   6.186   5.549   2.803 -1.8939  0.1924 -3.2404
  187POPC   H3S21459   6.260   5.392   2.749 -0.6072 -1.4433  0.2607
  187POPC   C2421460   6.173   5.392   2.955  0.0869 -0.3247 -0.6611
  187POPC   H4R21461   6.092   5.433   3.018 -0.3519 -1.7900 -0.2398
  187POPC   H4S21462   6.267   5.434   2.999 -0.9760  1.2477  0.2090
  187POPC   C2521463   6.152   5.247   2.973 -0.5754 -0.0833 -0.4029
  187POPC   H5R21464   6.093   5.206   2.889  0.0524 -0.7296 -0.5406
  187POPC   H5S21465   6.088   5.218   3.059  0.1142  1.1006  0.5402
  187POPC   C2621466   6.279   5.173   2.985 -0.2993  0.0420 -0.0199
  187POPC   H6R21467   6.336   5.218   2.901 -2.4625 -1.4344 -2.4094
  187POPC   H6S21468   6.263   5.063   2.973  1.4455 -0.6460  2.9132
  187POPC   C2721469   6.350   5.204   3.114 -0.4123 -0.5522 -0.2641
  187POPC   H7R21470   6.359   5.314   3.128  2.4524 -0.8933  1.2731
  187POPC   H7S21471   6.455   5.169   3.108 -1.1142 -2.4576 -3.3106
  187POPC   C2821472   6.279   5.150   3.243 -0.9987  0.7522 -0.2137
  187POPC   H8R21473   6.173   5.183   3.248 -1.8595 -1.4123 -2.3120
  187POPC   H8S21474   6.328   5.196   3.332  0.9347  0.2992 -0.9840
  187POPC   C2921475   6.294   4.999   3.252  0.0252 -0.6001 -0.2912
  187POPC   H9121476   6.251   4.943   3.167  1.1630 -0.9103 -0.6770
  187POPC  C21021477   6.354   4.936   3.359  0.1395  0.0337  0.4152
  187POPC  H10121478   6.372   4.828   3.354 -1.0237 -0.1184 -1.6974
  187POPC  C21121479   6.403   5.008   3.487  0.4336  0.1162 -0.3269
  187POPC  H11R21480   6.428   5.115   3.467  0.5235  0.2303  0.3933
  187POPC  H11S21481   6.498   4.956   3.514  0.0783 -1.3966 -1.7856
  187POPC  C21221482   6.291   5.002   3.593  0.3196 -0.5195  0.1849
  187POPC  H12R21483   6.252   4.898   3.598  1.1792 -0.7791  2.6014
  187POPC  H12S21484   6.207   5.069   3.566  0.6912  0.0488  0.4287
  187POPC  C21321485   6.333   5.046   3.736  0.4054 -0.0206  0.6616
  187POPC  H13R21486   6.340   5.157   3.742  0.0292  0.0970 -0.6325
  187POPC  H13S21487   6.427   4.990   3.752 -0.5103 -2.8531 -2.5514
  187POPC  C21421488   6.232   4.990   3.835  0.7215 -0.3526  0.1316
  187POPC  H14R21489   6.229   4.882   3.811 -0.2585 -0.6279  1.3782
  187POPC  H14S21490   6.128   5.023   3.815  0.2805 -0.6427  1.7478
  187POPC  C21521491   6.271   5.006   3.984 -0.3570  0.4123  0.3678
  187POPC  H15R21492   6.304   5.111   3.996  1.8000 -0.1145 -0.5557
  187POPC  H15S21493   6.358   4.953   4.027 -0.6114  1.1578  1.8929
  187POPC  C21621494   6.143   5.002   4.082 -0.6920 -0.7384  0.1673
  187POPC  H16R21495   6.128   4.893   4.099  0.9947 -1.1793 -0.9324
  187POPC  H16S21496   6.049   5.042   4.038  0.0204  0.9074  0.0771
  187POPC  C21721497   6.170   5.083   4.214  0.1926  0.1847 -0.6752
  187POPC  H17R21498   6.078   5.092   4.275 -0.3188  2.2993 -1.6586
  187POPC  H17S21499   6.190   5.190   4.194  3.1108  0.1323  1.2703
  187POPC  C21821500   6.288   5.038   4.300 -0.1247 -0.8974 -0.3668
  187POPC  H18R21501   6.300   5.097   4.393  0.3045 -0.3943 -0.7290
  187POPC  H18S21502   6.386   5.043   4.247 -0.2258  1.3082 -0.4442
  187POPC  H18T21503   6.267   4.933   4.330 -0.0712 -1.2246 -1.4186
  187POPC   C3321504   5.637   5.710   2.673  0.0117  0.4181 -0.1777
  187POPC   H3X21505   5.536   5.664   2.672  0.4240 -0.5028 -1.3342
  187POPC   H3Y21506   5.613   5.801   2.731  0.6938 -1.5449  3.5090
  187POPC   C3421507   5.745   5.641   2.754  0.0335 -0.2088 -0.0167
  187POPC   H4X21508   5.835   5.707   2.749 -0.7845  0.8884 -0.8303
  187POPC   H4Y21509   5.774   5.540   2.717 -0.8833  0.0093 -1.4219
  187POPC   C3521510   5.717   5.625   2.910 -0.1973  0.1372 -0.1229
  187POPC   H5X21511   5.616   5.585   2.932  0.2695 -0.7295  0.5368
  187POPC   H5Y21512   5.715   5.730   2.946  0.2226 -0.1317  0.7149
  187POPC   C3621513   5.832   5.535   2.979 -0.0889  0.2134 -0.6106
  187POPC   H6X21514   5.934   5.572   2.956  0.2308  0.3464  0.9013
  187POPC   H6Y21515   5.835   5.429   2.948 -1.4412 -0.8477  2.5348
  187POPC   C3721516   5.819   5.542   3.132  0.4402 -0.9325 -0.3331
  187POPC   H7X21517   5.717   5.504   3.155 -0.7074  0.3732 -2.8818
  187POPC   H7Y21518   5.821   5.647   3.170 -0.8833 -1.2955  0.8388
  187POPC   C3821519   5.921   5.456   3.201  0.3493  0.0675  0.2986
  187POPC   H8X21520   6.019   5.507   3.197 -0.0637  1.4675  3.9224
  187POPC   H8Y21521   5.913   5.353   3.160  1.0190  0.0551  0.1976
  187POPC   C3921522   5.915   5.444   3.351  0.4939  0.2656  0.1575
  187POPC   H9X21523   5.812   5.423   3.386  0.0239  0.1642 -1.2395
  187POPC   H9Y21524   5.941   5.534   3.411 -0.5975  0.8200 -0.1798
  187POPC  C31021525   6.008   5.327   3.400  0.4501  0.1599  0.3626
  187POPC  H10X21526   6.115   5.354   3.385  1.1687 -2.6153 -0.1015
  187POPC  H10Y21527   5.991   5.231   3.347  0.3385  0.5521 -0.3192
  187POPC  C31121528   5.974   5.298   3.546 -0.1484 -0.4640  0.1841
  187POPC  H11X21529   5.963   5.395   3.599  0.1060 -1.9443  3.1837
  187POPC  H11Y21530   6.061   5.251   3.597 -1.3371 -1.6820  1.1606
  187POPC  C31221531   5.852   5.201   3.555  0.5065 -0.7293 -0.2457
  187POPC  H12X21532   5.885   5.095   3.544  0.0372 -0.8105 -0.9159
  187POPC  H12Y21533   5.785   5.214   3.467 -1.9204 -1.6604  1.3578
  187POPC  C31321534   5.750   5.218   3.675 -0.2303  0.7697 -0.0991
  187POPC  H13X21535   5.673   5.138   3.670  1.0452 -0.4787 -0.6770
  187POPC  H13Y21536   5.698   5.315   3.665  0.6490  1.3898  1.0583
  187POPC  C31421537   5.811   5.227   3.818 -0.1151  0.1299  0.2603
  187POPC  H14X21538   5.859   5.327   3.815 -1.9303  1.0967 -3.9102
  187POPC  H14Y21539   5.887   5.153   3.850 -0.4703 -0.7766 -0.9128
  187POPC  C31521540   5.701   5.223   3.923  0.2624  0.1481 -0.8095
  187POPC  H15X21541   5.664   5.119   3.936 -2.3464  1.3116  2.5982
  187POPC  H15Y21542   5.623   5.295   3.892  0.3437 -0.7075 -3.1640
  187POPC  C31621543   5.730   5.272   4.068  0.6699 -0.7281 -0.0405
  187POPC  H16X21544   5.653   5.256   4.146 -1.4522  1.5925 -1.5136
  187POPC  H16Y21545   5.751   5.381   4.074 -1.0714 -0.4133  0.8454
  187POPC  H16Z21546   5.825   5.224   4.100  2.0662 -0.6800 -3.5755
  188POPC     N21547   5.567   4.652   2.011  0.2137 -0.5236  0.0883
  188POPC   C1221548   5.424   4.681   2.028 -0.3269 -0.3602  0.1935
  188POPC  H12A21549   5.414   4.716   2.130  1.6412  1.8511 -0.2774
  188POPC  H12B21550   5.371   4.587   2.020 -1.5963  0.2950  0.6648
  188POPC   C1321551   5.602   4.647   1.866 -0.1632 -0.0018 -0.5136
  188POPC  H13A21552   5.602   4.742   1.815  1.5623  2.6317  3.7796
  188POPC  H13B21553   5.704   4.615   1.850  0.1557  0.7673 -0.0852
  188POPC  H13C21554   5.542   4.569   1.822  0.7475 -1.4948  0.7907
  188POPC   C1421555   5.647   4.762   2.074 -0.0983 -0.2561 -0.2566
  188POPC  H14A21556   5.751   4.749   2.050 -0.4343 -1.9511 -0.9179
  188POPC  H14B21557   5.612   4.857   2.037  2.7997  0.8767 -0.3070
  188POPC  H14C21558   5.644   4.756   2.182  0.1045  1.4991 -0.1319
  188POPC   C1521559   5.596   4.510   2.060 -0.1474 -0.4827 -0.5526
  188POPC  H15A21560   5.703   4.497   2.053 -0.3362 -1.7884 -1.4302
  188POPC  H15B21561   5.551   4.442   1.989  0.3840 -0.3957 -0.9806
  188POPC  H15C21562   5.559   4.496   2.161  1.3324 -0.4221  0.0251
  188POPC   C1121563   5.353   4.792   1.946  0.7435 -0.8933  0.2860
  188POPC  H11A21564   5.245   4.775   1.963  0.4017 -1.7914 -2.3275
  188POPC  H11B21565   5.379   4.786   1.838  0.2717  1.3304  0.0073
  188POPC     P21566   5.356   4.981   2.127 -0.2174 -0.3169  0.2924
  188POPC   O1321567   5.227   5.051   2.097  0.0304  0.1639 -0.0664
  188POPC   O1421568   5.471   5.068   2.171 -0.1983  0.0281  0.7439
  188POPC   O1221569   5.388   4.927   1.983 -0.3256  0.3388  0.2338
  188POPC   O1121570   5.335   4.854   2.220  0.7043 -0.5778 -0.7699
  188POPC    C121571   5.246   4.869   2.335  0.0031 -0.5247 -0.6711
  188POPC    HA21572   5.185   4.777   2.347 -0.7066  0.1385  0.9850
  188POPC    HB21573   5.175   4.954   2.336  0.0188 -0.4841  1.6875
  188POPC    C221574   5.320   4.882   2.474  0.2943 -0.1110  0.7357
  188POPC    HS21575   5.248   4.885   2.559 -0.0878 -0.3023  0.4210
  188POPC   O2121576   5.396   5.003   2.483  0.6040  0.1148  0.4502
  188POPC   C2121577   5.328   5.114   2.498  0.8229 -0.9017  0.5840
  188POPC   O2221578   5.206   5.115   2.523 -0.2455  0.1075  0.4408
  188POPC   C2221579   5.423   5.235   2.489  0.3108 -0.3259  0.4669
  188POPC   H2R21580   5.419   5.265   2.382 -1.8365  0.4291  0.7071
  188POPC   H2S21581   5.527   5.214   2.522  0.6637  0.2770 -0.2335
  188POPC    C321582   5.405   4.751   2.492 -0.9437  0.2996  0.1205
  188POPC    HX21583   5.464   4.751   2.397 -0.0206  1.9092  0.6494
  188POPC    HY21584   5.332   4.667   2.489  0.6329 -1.1063 -1.4710
  188POPC   O3121585   5.496   4.751   2.600  0.1096 -0.0294  0.2216
  188POPC   C3121586   5.455   4.688   2.707 -0.1238 -0.2014 -0.3623
  188POPC   O3221587   5.339   4.658   2.732  0.2261  0.4572 -0.3560
  188POPC   C3221588   5.578   4.661   2.787  0.0684 -0.2774  0.4860
  188POPC   H2X21589   5.651   4.745   2.780  1.4907 -1.3235  1.9901
  188POPC   H2Y21590   5.620   4.566   2.746  1.5730  0.0174  1.2565
  188POPC   C2321591   5.378   5.370   2.565 -0.2569  0.6329 -0.0167
  188POPC   H3R21592   5.283   5.397   2.514 -0.1891 -0.8633 -1.0025
  188POPC   H3S21593   5.442   5.459   2.546 -0.9422  1.3793  1.0614
  188POPC   C2421594   5.366   5.345   2.719  0.4294  1.3413 -0.1300
  188POPC   H4R21595   5.463   5.304   2.755 -1.3103 -3.3937 -0.1473
  188POPC   H4S21596   5.290   5.264   2.726  1.8543 -0.0530 -0.2599
  188POPC   C2521597   5.331   5.472   2.793  0.5976 -0.6852 -0.2178
  188POPC   H5R21598   5.224   5.496   2.776  0.7712  0.2382 -0.0850
  188POPC   H5S21599   5.371   5.566   2.748 -0.7702  0.1560  0.2585
  188POPC   C2621600   5.343   5.463   2.949 -0.1744  1.1759  0.4237
  188POPC   H6R21601   5.453   5.462   2.965  0.1865  1.6389 -1.7918
  188POPC   H6S21602   5.314   5.360   2.981 -0.1801  0.5102 -1.6128
  188POPC   C2721603   5.282   5.578   3.024 -0.2240 -0.3236  1.0832
  188POPC   H7R21604   5.172   5.580   3.037 -0.5551  0.2895 -1.3407
  188POPC   H7S21605   5.290   5.667   2.958  0.3463 -0.5475  0.8425
  188POPC   C2821606   5.339   5.588   3.162  0.0490  0.4467  0.3570
  188POPC   H8R21607   5.320   5.692   3.196 -0.9561  0.0700  0.9628
  188POPC   H8S21608   5.450   5.589   3.158  0.1303  2.4797  1.6584
  188POPC   C2921609   5.295   5.481   3.263  0.3619  0.2129  0.2336
  188POPC   H9121610   5.309   5.379   3.222 -0.3958  0.4280 -0.5890
  188POPC  C21021611   5.242   5.504   3.391 -0.0299  0.6443  0.5853
  188POPC  H10121612   5.227   5.414   3.452  1.4782  0.4844  0.7660
  188POPC  C21121613   5.200   5.636   3.452  0.1334  0.3212  0.5835
  188POPC  H11R21614   5.213   5.723   3.384  0.0394 -0.8264 -0.9379
  188POPC  H11S21615   5.266   5.658   3.539 -1.4564 -0.0854  1.9544
  188POPC  C21221616   5.063   5.642   3.513  0.0285  0.3222 -0.1945
  188POPC  H12R21617   4.983   5.583   3.463 -0.8387  3.1882 -2.5341
  188POPC  H12S21618   5.031   5.748   3.500  1.2742  0.8471  0.7668
  188POPC  C21321619   5.058   5.615   3.667 -0.1983 -0.1161  0.4959
  188POPC  H13R21620   5.127   5.683   3.721  0.8042  0.6324 -1.6232
  188POPC  H13S21621   5.095   5.512   3.687  0.9172  0.3233  0.7583
  188POPC  C21421622   4.919   5.617   3.724  0.0646 -0.3600  0.0148
  188POPC  H14R21623   4.849   5.539   3.687  1.0971 -1.0562 -0.5296
  188POPC  H14S21624   4.867   5.710   3.693 -0.6902  0.2866  2.9819
  188POPC  C21521625   4.928   5.628   3.874 -0.4127 -0.8739  0.7146
  188POPC  H15R21626   4.977   5.727   3.890  0.2706 -0.8504 -1.2577
  188POPC  H15S21627   4.988   5.547   3.919 -0.2158  0.2546  2.5579
  188POPC  C21621628   4.793   5.626   3.935  0.1828 -1.0629  0.6645
  188POPC  H16R21629   4.757   5.521   3.938 -3.4340 -0.1008 -1.6966
  188POPC  H16S21630   4.719   5.692   3.883 -1.9377 -0.3184  4.2717
  188POPC  C21721631   4.795   5.685   4.073 -0.6943  0.1748 -0.5863
  188POPC  H17R21632   4.816   5.794   4.075  2.3623 -0.2956  2.9090
  188POPC  H17S21633   4.882   5.636   4.120  0.6593  1.1129 -2.0325
  188POPC  C21821634   4.662   5.667   4.147 -0.3287  0.0707 -0.2813
  188POPC  H18R21635   4.622   5.564   4.140  1.5688 -1.1144  3.4763
  188POPC  H18S21636   4.585   5.728   4.095  2.0259  0.7033 -3.3076
  188POPC  H18T21637   4.666   5.701   4.253 -2.1858  0.4554 -0.3084
  188POPC   C3321638   5.537   4.633   2.942  0.1195  1.0661  0.7278
  188POPC   H3X21639   5.622   4.582   2.992 -1.4365 -0.3279  2.0704
  188POPC   H3Y21640   5.446   4.569   2.943  1.6972 -1.4001 -1.5029
  188POPC   C3421641   5.510   4.757   3.035 -0.0805  0.0402 -0.1424
  188POPC   H4X21642   5.438   4.821   2.980  2.7168  2.6908 -1.0184
  188POPC   H4Y21643   5.593   4.831   3.046 -2.2309  3.1809 -3.0883
  188POPC   C3521644   5.465   4.712   3.173 -0.2031  0.0690  0.4097
  188POPC   H5X21645   5.363   4.668   3.169 -0.2920  0.0578  2.0881
  188POPC   H5Y21646   5.447   4.803   3.234  2.6078  1.2566 -0.3930
  188POPC   C3621647   5.569   4.632   3.253  0.2647  0.0835  0.0105
  188POPC   H6X21648   5.668   4.676   3.227  0.3664  0.3377  0.8115
  188POPC   H6Y21649   5.569   4.528   3.215 -1.2419 -0.1642  0.6234
  188POPC   C3721650   5.536   4.600   3.399 -0.0896  0.0267  0.3978
  188POPC   H7X21651   5.556   4.686   3.467 -1.7843 -0.0302  1.0102
  188POPC   H7Y21652   5.604   4.517   3.428  0.1698  0.4100  0.9041
  188POPC   C3821653   5.393   4.561   3.417 -0.1959 -0.0991 -0.3726
  188POPC   H8X21654   5.362   4.487   3.340 -0.1037 -0.8163  0.2683
  188POPC   H8Y21655   5.332   4.651   3.390 -0.3929 -0.6979 -2.0885
  188POPC   C3921656   5.372   4.498   3.550  0.6808  0.9723 -0.0698
  188POPC   H9X21657   5.435   4.411   3.577 -0.7860  0.6296  2.6052
  188POPC   H9Y21658   5.267   4.467   3.567  0.7494  1.6178  1.8374
  188POPC  C31021659   5.404   4.599   3.662  0.4803  0.3752 -0.1605
  188POPC  H10X21660   5.348   4.692   3.641  2.6234  1.5857 -0.7531
  188POPC  H10Y21661   5.512   4.626   3.663  0.5012  0.4238  2.3128
  188POPC  C31121662   5.372   4.543   3.798  0.2027  0.9054 -0.0334
  188POPC  H11X21663   5.382   4.432   3.808  0.3354  0.9914  0.8615
  188POPC  H11Y21664   5.262   4.555   3.812  0.2742 -0.0202  1.5987
  188POPC  C31221665   5.439   4.595   3.921 -0.8111  0.3303 -0.3434
  188POPC  H12X21666   5.432   4.706   3.925 -1.6979  0.2443  2.3592
  188POPC  H12Y21667   5.537   4.544   3.929 -2.2096 -2.2547  2.2327
  188POPC  C31321668   5.367   4.543   4.040  0.1703  0.3372 -0.0203
  188POPC  H13X21669   5.364   4.432   4.044  0.0595  0.3509  0.2717
  188POPC  H13Y21670   5.267   4.590   4.036  1.3688  2.9599 -2.5265
  188POPC  C31421671   5.432   4.563   4.181  0.2086 -0.3853 -0.5500
  188POPC  H14X21672   5.471   4.667   4.194  1.1250 -0.7371 -0.4468
  188POPC  H14Y21673   5.530   4.511   4.173  0.1222 -0.4065 -1.7055
  188POPC  C31521674   5.342   4.515   4.297  0.8052  0.6484 -0.2433
  188POPC  H15X21675   5.421   4.495   4.373  0.6982 -2.2301 -0.7897
  188POPC  H15Y21676   5.287   4.420   4.278 -1.2608  1.2870  2.0175
  188POPC  C31621677   5.223   4.601   4.351 -0.5124  0.1445  0.4409
  188POPC  H16X21678   5.160   4.558   4.432 -2.6844  1.7009 -0.3146
  188POPC  H16Y21679   5.149   4.610   4.269  1.0111 -1.3537 -1.1858
  188POPC  H16Z21680   5.264   4.700   4.383  0.4636  0.2813 -1.1217
  189SAPI   C1221681   0.782   5.871   7.225 -0.0879 -0.0280 -0.5192
  189SAPI    H221682   0.844   5.835   7.310  0.1474  0.1630 -0.6094
  189SAPI    O221683   0.656   5.807   7.241 -0.5469  0.2416 -0.7650
  189SAPI   HO221684   0.662   5.728   7.187  0.7727  0.7619 -1.4208
  189SAPI   C1321685   0.763   6.018   7.241 -0.0975 -0.5221 -1.3079
  189SAPI    H321686   0.859   6.073   7.239  0.3837 -1.2002  0.8869
  189SAPI    O321687   0.722   6.074   7.368  0.0282  0.0003  0.4464
  189SAPI   HO321688   0.633   6.109   7.361  0.3682  1.2271  1.7901
  189SAPI   C1421689   0.669   6.069   7.137  0.0560  0.0617 -0.0828
  189SAPI    H421690   0.566   6.031   7.153  0.6873 -2.1827 -0.9749
  189SAPI    O421691   0.659   6.215   7.141  0.4957  0.2497  1.0995
  189SAPI   HO421692   0.749   6.246   7.137  0.0588  1.4391 -1.7890
  189SAPI   C1521693   0.694   6.013   6.991 -0.5425  0.2193  0.1731
  189SAPI    H521694   0.740   6.096   6.934  2.8209 -1.0975  0.7472
  189SAPI    O521695   0.573   5.971   6.923 -0.1870 -0.3195 -0.2184
  189SAPI   HO521696   0.551   6.040   6.861 -1.5107  1.3943  2.0030
  189SAPI   C1621697   0.802   5.908   6.976 -1.3629  0.8518  0.1274
  189SAPI    H621698   0.759   5.825   6.917  1.3007 -1.3775  1.1185
  189SAPI    O621699   0.897   5.942   6.878 -0.3223 -0.2609 -0.4146
  189SAPI   HO621700   0.982   5.904   6.899  0.2624  0.6733 -1.0341
  189SAPI   C1121701   0.865   5.849   7.097 -0.4615  0.1000 -0.3546
  189SAPI    H121702   0.959   5.906   7.118 -0.0949 -0.7527  0.3287
  189SAPI     P21703   1.030   5.652   7.000  0.3461  0.0942  0.3948
  189SAPI   O1321704   1.100   5.566   7.096  0.1852  0.3212  0.4795
  189SAPI   O1421705   1.108   5.756   6.937 -0.3364  0.7778  0.6087
  189SAPI   O1221706   0.893   5.708   7.071  0.8719 -0.0327  0.2643
  189SAPI   O1121707   0.972   5.556   6.885 -0.2022 -0.5107  0.0463
  189SAPI    C121708   0.929   5.602   6.758  0.3872 -0.3865 -0.4865
  189SAPI    HA21709   0.818   5.595   6.752  0.2876  0.3646  0.3540
  189SAPI    HB21710   0.947   5.711   6.747  0.1369 -0.0291  2.0924
  189SAPI    C221711   1.008   5.532   6.649  0.1884 -0.2685  0.1634
  189SAPI    HS21712   0.981   5.586   6.555 -0.3183  1.6579  1.3621
  189SAPI   O2121713   0.978   5.393   6.633  0.3523 -0.3858 -0.0656
  189SAPI   C2121714   0.851   5.376   6.600 -0.5299  0.3692 -0.5534
  189SAPI   O2221715   0.771   5.464   6.579  0.0751 -0.3419 -0.2976
  189SAPI   C2221716   0.813   5.228   6.578 -0.2850  0.3884  0.2884
  189SAPI   H2R21717   0.885   5.169   6.639  1.1508  0.3125 -1.3951
  189SAPI   H2S21718   0.712   5.206   6.617 -0.3526  1.0144  0.4834
  189SAPI    C321719   1.156   5.557   6.659  0.5612  0.4402 -0.5259
  189SAPI    HX21720   1.188   5.520   6.758 -0.2303  2.8931  0.7470
  189SAPI    HY21721   1.179   5.665   6.670 -1.1749  0.8933 -0.9282
  189SAPI   O3121722   1.235   5.511   6.551 -0.3451  0.2877  0.4702
  189SAPI   C3121723   1.285   5.387   6.563  0.0633 -0.5064 -0.0556
  189SAPI   O3221724   1.265   5.311   6.661  0.6460 -0.0213 -0.2886
  189SAPI   C3221725   1.377   5.359   6.436  0.3645 -0.6100 -0.1768
  189SAPI   H2X21726   1.315   5.306   6.361 -2.1150 -0.1394  1.4119
  189SAPI   H2Y21727   1.452   5.288   6.479 -0.0746 -2.1089 -1.8003
  189SAPI   C2321728   0.798   5.181   6.429  0.3790 -0.1892  0.5398
  189SAPI   H3R21729   0.735   5.249   6.368 -2.1583  1.6305  4.7714
  189SAPI   H3S21730   0.738   5.088   6.435 -0.8081  0.5928  1.1456
  189SAPI   C2421731   0.926   5.145   6.342 -1.0250 -0.6406  0.3056
  189SAPI   H4R21732   0.885   5.096   6.250  0.0906  1.5375 -1.4551
  189SAPI   H4S21733   0.985   5.060   6.383  0.3189  0.6974  1.2250
  189SAPI   C2521734   1.009   5.260   6.290 -0.3211  0.0932 -0.3045
  189SAPI   H5R21735   1.094   5.291   6.353 -0.6196  0.4046 -0.0561
  189SAPI   C2621736   0.989   5.314   6.170 -0.0746  0.4440 -0.9654
  189SAPI   H6R21737   1.046   5.404   6.142  0.8858  0.0885 -0.2348
  189SAPI   C2721738   0.868   5.288   6.080 -0.1102 -0.5038 -0.7763
  189SAPI   H7R21739   0.778   5.249   6.132 -0.3948 -0.6095 -1.3466
  189SAPI   H7S21740   0.887   5.214   6.000 -1.3128 -0.2634 -1.3080
  189SAPI   C2821741   0.814   5.418   6.018 -0.2826  0.5094 -0.3567
  189SAPI   H8R21742   0.759   5.478   6.091  1.1183  1.4656 -0.0502
  189SAPI   C2921743   0.828   5.469   5.895 -0.2825  0.0650 -0.0260
  189SAPI   H9R21744   0.814   5.578   5.889 -0.2037  0.0853  0.1535
  189SAPI  C21021745   0.896   5.414   5.769  0.2599 -0.3197  0.2723
  189SAPI  H10R21746   0.869   5.473   5.679  3.1247  4.2458  2.0605
  189SAPI  H10S21747   0.866   5.307   5.755 -0.5334 -0.5450  3.0605
  189SAPI  C21121748   1.049   5.418   5.768 -0.4410 -0.8089  0.4250
  189SAPI  H11R21749   1.091   5.419   5.869 -0.4719 -0.3103  0.4341
  189SAPI  C21221750   1.130   5.424   5.656  0.5472 -0.3708 -0.3655
  189SAPI  H12R21751   1.239   5.433   5.669  0.5549  0.3743 -0.8976
  189SAPI  C21321752   1.069   5.418   5.513  0.3524 -0.3057  0.2602
  189SAPI  H13R21753   1.037   5.522   5.488  0.8301 -0.2051  0.0554
  189SAPI  H13S21754   0.972   5.364   5.508 -0.2852  0.8778 -0.6221
  189SAPI  C21421755   1.153   5.353   5.408  0.4536  0.1123 -0.2767
  189SAPI  H14R21756   1.251   5.318   5.443 -0.4940 -0.6930  1.6970
  189SAPI  C21521757   1.105   5.315   5.291 -0.2926 -0.8080  0.4197
  189SAPI  H15R21758   1.173   5.267   5.220  0.5651  0.0170  0.6519
  189SAPI  C21621759   0.984   5.370   5.234  0.3659  0.4218  0.2965
  189SAPI  H16R21760   0.902   5.390   5.307 -0.4991  0.6003 -0.6875
  189SAPI  H16S21761   0.942   5.292   5.167  1.3497  0.0251  0.1354
  189SAPI  C21721762   1.009   5.499   5.151  0.0725  0.6169  0.1384
  189SAPI  H17R21763   1.090   5.490   5.075 -0.9420  1.4623 -1.0680
  189SAPI  H17S21764   1.047   5.572   5.225  0.1372  0.7192  0.0040
  189SAPI  C21821765   0.886   5.545   5.074  0.5948 -0.1985 -0.3368
  189SAPI  H18R21766   0.813   5.573   5.153 -0.8466  0.9938 -2.0272
  189SAPI  H18S21767   0.845   5.457   5.020 -0.1836  0.6070 -1.0855
  189SAPI  C21921768   0.911   5.656   4.963  0.3906  1.0636  0.0753
  189SAPI  H19R21769   0.949   5.748   5.012  1.2959  1.4042 -1.2217
  189SAPI  H19S21770   0.810   5.676   4.921  0.0668 -0.1691  0.2185
  189SAPI  C22021771   1.012   5.621   4.855 -0.0212 -0.0808  0.3080
  189SAPI  H20R21772   0.996   5.529   4.794  1.0333  1.8171 -3.0748
  189SAPI  H20S21773   1.113   5.616   4.901  0.8739  0.9553 -1.4388
  189SAPI  H20T21774   1.008   5.708   4.786 -0.2332 -0.1591  0.2206
  189SAPI   C3321775   1.457   5.478   6.379 -0.2295 -0.2529 -0.1913
  189SAPI   H3X21776   1.501   5.541   6.459 -0.8027  0.8180 -0.6861
  189SAPI   H3Y21777   1.391   5.540   6.314  0.0743 -1.4967 -1.7460
  189SAPI   C3421778   1.578   5.426   6.297 -0.4604 -0.1266  0.3837
  189SAPI   H4X21779   1.642   5.377   6.373  1.4466  0.4359 -0.7993
  189SAPI   H4Y21780   1.628   5.515   6.253 -1.0492 -0.2294 -0.5414
  189SAPI   C3521781   1.539   5.322   6.187  0.4877  0.7328  0.1196
  189SAPI   H5X21782   1.491   5.235   6.236 -0.2341  1.7777  1.3459
  189SAPI   H5Y21783   1.631   5.279   6.144  0.0501 -1.0379  0.8799
  189SAPI   C3621784   1.460   5.390   6.068 -0.2114 -0.0461 -0.1750
  189SAPI   H6X21785   1.376   5.443   6.118  0.2308 -0.1314  0.6823
  189SAPI   H6Y21786   1.416   5.313   6.001  0.7997 -1.5809  0.8462
  189SAPI   C3721787   1.536   5.494   5.985 -0.6816 -0.7531 -0.5284
  189SAPI   H7X21788   1.623   5.455   5.930  0.9289  1.0408  0.6274
  189SAPI   H7Y21789   1.579   5.569   6.055 -0.4720 -1.9250  0.6417
  189SAPI   C3821790   1.441   5.561   5.891  0.6625  0.2231 -0.0147
  189SAPI   H8X21791   1.372   5.616   5.959 -0.3283 -1.1260  0.1235
  189SAPI   H8Y21792   1.380   5.492   5.829 -0.3547  0.1352  1.0370
  189SAPI   C3921793   1.498   5.656   5.789 -0.8065 -0.4943  0.3161
  189SAPI   H9X21794   1.538   5.741   5.849 -0.6823 -0.4860  0.2229
  189SAPI   H9Y21795   1.413   5.692   5.727  0.2908  0.4048 -0.7296
  189SAPI  C31021796   1.609   5.596   5.709  0.0998  0.6980 -0.5330
  189SAPI  H10X21797   1.594   5.488   5.683  2.1629  0.7421 -2.1223
  189SAPI  H10Y21798   1.703   5.603   5.768  0.7860 -0.8202 -1.3656
  189SAPI  C31121799   1.629   5.666   5.568 -0.2761  0.2222  1.6357
  189SAPI  H11X21800   1.733   5.676   5.531 -1.0831 -1.8779 -1.6809
  189SAPI  H11Y21801   1.589   5.769   5.572  0.6489  0.7106 -0.4410
  189SAPI  C31221802   1.552   5.596   5.460 -0.4068  0.8998  0.0384
  189SAPI  H12X21803   1.443   5.593   5.481 -0.2288  0.1858  0.8868
  189SAPI  H12Y21804   1.589   5.491   5.464 -1.1703  0.6550  1.1100
  189SAPI  C31321805   1.596   5.648   5.322 -0.4174 -0.2972 -0.2865
  189SAPI  H13X21806   1.707   5.647   5.313 -0.3621 -0.7609  0.3421
  189SAPI  H13Y21807   1.569   5.755   5.318  1.9056  0.3435 -0.0700
  189SAPI  C31421808   1.534   5.577   5.203  0.6874  0.0473  0.1229
  189SAPI  H14X21809   1.430   5.615   5.190  1.0261  0.6069 -1.0634
  189SAPI  H14Y21810   1.542   5.471   5.233  5.3975 -0.8540 -3.2741
  189SAPI  C31521811   1.603   5.595   5.064  0.1384 -0.0765 -0.0008
  189SAPI  H15X21812   1.712   5.611   5.074  0.4952  0.8344 -3.7125
  189SAPI  H15Y21813   1.549   5.675   5.007 -2.1616 -0.3808  1.6106
  189SAPI  C31621814   1.565   5.481   4.973  0.7759  0.4460  1.1285
  189SAPI  H16X21815   1.460   5.451   4.994  0.0468 -1.1377 -3.4357
  189SAPI  H16Y21816   1.619   5.388   4.998 -0.3616 -1.1478 -1.7730
  189SAPI  C31721817   1.579   5.503   4.819 -0.7332  0.0276  0.7067
  189SAPI  H17X21818   1.683   5.488   4.781 -0.2370  0.9202  1.6364
  189SAPI  H17Y21819   1.559   5.611   4.802  3.5830  1.0732  0.9229
  189SAPI  C31821820   1.483   5.408   4.743  0.0372 -0.3105  0.2981
  189SAPI  H18X21821   1.473   5.416   4.633 -1.7251  1.1966  0.5135
  189SAPI  H18Y21822   1.384   5.435   4.785 -0.0605 -0.4833  0.1800
  189SAPI  H18Z21823   1.510   5.302   4.760 -1.1967 -0.7772 -0.5299
  190SAPI   C1221824   0.438   3.572   7.210 -0.1266  0.0932  0.0646
  190SAPI    H221825   0.430   3.529   7.107  1.8887  0.9130 -0.4801
  190SAPI    O221826   0.304   3.605   7.247 -0.1719 -0.2503 -0.0422
  190SAPI   HO221827   0.264   3.673   7.193 -2.9675  0.1446  2.2846
  190SAPI   C1321828   0.487   3.465   7.303 -0.3064 -0.5407 -0.3004
  190SAPI    H321829   0.594   3.454   7.275 -0.0455 -0.9662  0.8030
  190SAPI    O321830   0.424   3.335   7.289 -0.0608 -0.2131  0.3489
  190SAPI   HO321831   0.490   3.267   7.300 -0.1326 -0.1366  1.2782
  190SAPI   C1421832   0.491   3.517   7.450 -0.0115  0.2312  0.5384
  190SAPI    H421833   0.386   3.524   7.485  0.5341 -1.4830  2.7446
  190SAPI    O421834   0.550   3.421   7.545 -0.3104 -0.0233 -0.1139
  190SAPI   HO421835   0.481   3.360   7.572  0.4680 -0.6863  0.4081
  190SAPI   C1521836   0.540   3.661   7.473  0.0545 -0.1225  0.0563
  190SAPI    H521837   0.650   3.652   7.490 -0.1809  1.3481  3.0848
  190SAPI    O521838   0.500   3.716   7.602 -0.3333 -0.2589 -0.0335
  190SAPI   HO521839   0.404   3.717   7.596 -0.3092 -0.0176 -0.4252
  190SAPI   C1621840   0.538   3.756   7.351  0.0494 -0.5576  0.0926
  190SAPI    H621841   0.443   3.810   7.371 -0.4155 -1.2635 -0.1389
  190SAPI    O621842   0.637   3.855   7.345 -0.3044 -0.2378 -0.2310
  190SAPI   HO621843   0.663   3.873   7.254 -1.7713  1.5453 -0.3565
  190SAPI   C1121844   0.519   3.694   7.210  0.0581 -0.5242  0.4507
  190SAPI    H121845   0.616   3.648   7.181 -0.2612 -0.8072 -0.1884
  190SAPI     P21846   0.494   3.781   6.953 -0.1518 -0.3433 -0.1055
  190SAPI   O1321847   0.389   3.872   6.896  0.0832 -0.0338  0.1692
  190SAPI   O1421848   0.512   3.648   6.894 -0.6159  0.5679  0.6821
  190SAPI   O1221849   0.484   3.787   7.110 -0.6307  0.2760 -0.2976
  190SAPI   O1121850   0.636   3.858   6.939 -0.2746 -0.2989  0.1363
  190SAPI    C121851   0.662   3.941   6.825  0.6441  0.2289  0.0249
  190SAPI    HA21852   0.571   3.996   6.795  2.1542  4.2700  2.0869
  190SAPI    HB21853   0.723   4.030   6.854  1.1642 -0.0879 -0.0783
  190SAPI    C221854   0.720   3.863   6.698  0.6362 -0.8877 -0.0118
  190SAPI    HS21855   0.759   3.936   6.623 -0.4722 -0.0589  0.2002
  190SAPI   O2121856   0.618   3.783   6.636  0.4155 -0.3287  0.1396
  190SAPI   C2121857   0.536   3.850   6.553 -0.1971  0.3983 -0.7054
  190SAPI   O2221858   0.548   3.966   6.523  0.0152  0.3017 -0.1860
  190SAPI   C2221859   0.434   3.747   6.494 -0.3193 -0.5491 -0.4159
  190SAPI   H2R21860   0.495   3.656   6.473 -0.1989 -0.2596 -1.3836
  190SAPI   H2S21861   0.372   3.705   6.576 -0.3693 -0.6283 -0.4947
  190SAPI    C321862   0.831   3.775   6.753  0.8771 -0.6304 -0.5510
  190SAPI    HX21863   0.792   3.713   6.836  1.3250  0.5142  0.5544
  190SAPI    HY21864   0.900   3.853   6.794 -0.8113  1.9398 -2.2852
  190SAPI   O3121865   0.896   3.688   6.657  0.2763  0.3100  0.0227
  190SAPI   C3121866   1.009   3.728   6.606  0.9197 -0.5096  0.4310
  190SAPI   O3221867   1.075   3.825   6.634 -0.0165 -0.0507 -0.4904
  190SAPI   C3221868   1.052   3.631   6.489 -0.3383  0.1903  0.0511
  190SAPI   H2X21869   0.958   3.606   6.435 -0.1691  0.2633 -0.2805
  190SAPI   H2Y21870   1.102   3.544   6.536 -1.1883 -0.0793  0.4943
  190SAPI   C2321871   0.349   3.787   6.378 -0.6615  0.2022 -0.1844
  190SAPI   H3R21872   0.287   3.877   6.395 -2.4598 -0.8085 -1.1029
  190SAPI   H3S21873   0.276   3.706   6.358  1.4898 -1.7489 -0.6099
  190SAPI   C2421874   0.425   3.838   6.256 -0.9093  0.7435  0.1492
  190SAPI   H4R21875   0.436   3.947   6.272 -2.8383  1.0256 -0.2168
  190SAPI   H4S21876   0.363   3.819   6.165  1.5010  1.4653 -1.7741
  190SAPI   C2521877   0.564   3.777   6.246 -0.3698  0.2602 -0.7962
  190SAPI   H5R21878   0.646   3.839   6.285 -0.1977 -0.4054 -0.0647
  190SAPI   C2621879   0.603   3.672   6.167 -0.2187 -0.4462  0.5402
  190SAPI   H6R21880   0.707   3.639   6.158  0.2479  1.1181 -0.0227
  190SAPI   C2721881   0.513   3.590   6.083 -0.7724  0.3225  0.2423
  190SAPI   H7R21882   0.411   3.633   6.075 -0.4314  0.8495 -1.7540
  190SAPI   H7S21883   0.506   3.487   6.125 -0.9848 -0.3601 -1.3919
  190SAPI   C2821884   0.554   3.571   5.938 -0.0412  0.5561 -0.9526
  190SAPI   H8R21885   0.615   3.481   5.922 -0.9160 -0.1257 -0.5359
  190SAPI   C2921886   0.511   3.627   5.826 -0.3807  0.3928  0.0886
  190SAPI   H9R21887   0.560   3.599   5.732  1.9947  0.3380  1.2754
  190SAPI  C21021888   0.425   3.752   5.811  0.2014 -0.3374  0.0132
  190SAPI  H10R21889   0.394   3.787   5.912  0.1207  0.0977 -0.1611
  190SAPI  H10S21890   0.331   3.732   5.754  2.6350 -0.8545 -4.1597
  190SAPI  C21121891   0.508   3.860   5.742  0.2923  0.8747  0.1564
  190SAPI  H11R21892   0.550   3.937   5.807  0.9468  0.6037  0.0664
  190SAPI  C21221893   0.541   3.869   5.614  0.1531  0.7730  0.6765
  190SAPI  H12R21894   0.615   3.943   5.580  0.5611  1.1489  2.3117
  190SAPI  C21321895   0.483   3.785   5.506  0.5057  0.2167 -0.2477
  190SAPI  H13R21896   0.431   3.852   5.434  0.9859  1.0952  0.2181
  190SAPI  H13S21897   0.408   3.710   5.541  0.5092  0.1417 -0.3976
  190SAPI  C21421898   0.592   3.723   5.420 -1.0469  0.6493 -0.0181
  190SAPI  H14R21899   0.697   3.718   5.453 -0.6939  2.6904 -0.6872
  190SAPI  C21521900   0.576   3.676   5.293 -0.4634  0.6691  0.1652
  190SAPI  H15R21901   0.660   3.631   5.238  0.0287 -0.0079  1.4254
  190SAPI  C21621902   0.437   3.654   5.231 -0.3844 -0.0247 -0.4332
  190SAPI  H16R21903   0.367   3.738   5.250  1.5861  1.7522 -0.5309
  190SAPI  H16S21904   0.391   3.561   5.270 -1.2357 -0.2465 -1.8788
  190SAPI  C21721905   0.443   3.659   5.079  0.5745 -0.1022 -0.8727
  190SAPI  H17R21906   0.342   3.639   5.036  1.2109 -0.7919 -2.0844
  190SAPI  H17S21907   0.518   3.586   5.041  2.0628  1.7438 -1.6550
  190SAPI  C21821908   0.484   3.790   5.017  0.4121  0.1520 -0.6806
  190SAPI  H18R21909   0.595   3.790   5.017  0.4636 -0.4909  1.6976
  190SAPI  H18S21910   0.444   3.880   5.068  2.0450  0.4951  0.0536
  190SAPI  C21921911   0.437   3.801   4.874  0.4042  0.5154 -0.0439
  190SAPI  H19R21912   0.444   3.904   4.832  1.3663  0.6728  0.4551
  190SAPI  H19S21913   0.331   3.769   4.879  0.5013  0.1098 -0.4900
  190SAPI  C22021914   0.500   3.700   4.774  0.2468 -0.2820 -0.4710
  190SAPI  H20R21915   0.568   3.756   4.705 -1.9219  1.4571 -1.2974
  190SAPI  H20S21916   0.433   3.635   4.714  0.5841  0.4734 -1.7019
  190SAPI  H20T21917   0.570   3.635   4.831 -0.0179  0.0742  0.2730
  190SAPI   C3321918   1.153   3.700   6.394 -0.5043 -0.1554  0.3403
  190SAPI   H3X21919   1.197   3.623   6.327 -2.3043  0.8543 -2.1553
  190SAPI   H3Y21920   1.230   3.736   6.464 -0.6299  1.2752 -0.2296
  190SAPI   C3421921   1.109   3.831   6.338 -0.3550 -0.2728 -0.0564
  190SAPI   H4X21922   1.196   3.886   6.296 -1.4613  0.0707 -2.0316
  190SAPI   H4Y21923   1.066   3.909   6.405 -1.9613 -1.7660  0.7439
  190SAPI   C3521924   1.009   3.811   6.228  0.2236 -0.8818  0.1114
  190SAPI   H5X21925   0.961   3.899   6.182  0.1374 -2.8243 -3.9769
  190SAPI   H5Y21926   0.924   3.747   6.261  0.0647 -0.4857  0.4750
  190SAPI   C3621927   1.070   3.729   6.108 -0.2005 -0.3129 -0.2100
  190SAPI   H6X21928   1.101   3.628   6.141  0.2552 -0.0014  0.3139
  190SAPI   H6Y21929   1.157   3.789   6.074 -1.1968  0.8094 -0.8675
  190SAPI   C3721930   0.979   3.718   5.986  0.0409 -0.5975  0.1286
  190SAPI   H7X21931   0.931   3.818   5.983 -0.0951 -0.6096  1.3204
  190SAPI   H7Y21932   0.897   3.643   5.995 -1.3634  0.9164  0.5151
  190SAPI   C3821933   1.051   3.704   5.848 -0.1193 -0.0849  0.6355
  190SAPI   H8X21934   1.116   3.613   5.847 -1.0355 -0.7551 -0.5926
  190SAPI   H8Y21935   1.118   3.789   5.823 -0.2968 -0.4259 -1.0920
  190SAPI   C3921936   0.960   3.685   5.721 -0.4523 -0.0849  0.1961
  190SAPI   H9X21937   0.904   3.781   5.711 -1.1736 -0.4551  0.6152
  190SAPI   H9Y21938   0.896   3.599   5.749 -0.5802 -0.5284 -1.3847
  190SAPI  C31021939   1.050   3.663   5.596  0.1707  0.1108  0.6588
  190SAPI  H10X21940   1.113   3.572   5.603  0.3086 -0.1276 -2.3429
  190SAPI  H10Y21941   1.118   3.751   5.588 -0.5402  0.7252  1.1688
  190SAPI  C31121942   0.957   3.657   5.471  0.1510  0.3916 -0.1664
  190SAPI  H11X21943   0.902   3.753   5.477 -0.8586 -0.1382 -0.7471
  190SAPI  H11Y21944   0.895   3.566   5.484  2.8611 -1.4726  0.5661
  190SAPI  C31221945   1.033   3.647   5.341 -0.6036 -0.1872  0.2912
  190SAPI  H12X21946   1.089   3.553   5.326 -2.2069 -0.6041 -5.7045
  190SAPI  H12Y21947   1.111   3.725   5.330  0.0682  0.0151  4.6140
  190SAPI  C31321948   0.938   3.662   5.223  0.4834 -0.1486  0.1023
  190SAPI  H13X21949   0.868   3.744   5.247  1.4589  0.8670 -0.4395
  190SAPI  H13Y21950   0.885   3.565   5.214  0.4642 -0.2932  1.5657
  190SAPI  C31421951   1.003   3.685   5.092 -0.4254  0.1373  0.4558
  190SAPI  H14X21952   1.094   3.622   5.098  1.7479  3.1917  2.4120
  190SAPI  H14Y21953   1.043   3.788   5.104 -1.3261  0.5063  0.4038
  190SAPI  C31521954   0.906   3.676   4.979 -0.3180  0.2617  0.2555
  190SAPI  H15X21955   0.826   3.752   4.988  0.2217  0.9385 -0.4369
  190SAPI  H15Y21956   0.863   3.574   4.986 -0.9158  0.4718 -0.3096
  190SAPI  C31621957   0.968   3.696   4.839 -0.0345  0.6113 -1.0362
  190SAPI  H16X21958   1.051   3.622   4.835 -0.2020  0.3108  0.3821
  190SAPI  H16Y21959   1.018   3.794   4.844 -0.5935  0.8586  0.2973
  190SAPI  C31721960   0.875   3.686   4.721  0.6733  0.0853 -0.5016
  190SAPI  H17X21961   0.800   3.768   4.729 -0.1463 -0.4729 -2.0717
  190SAPI  H17Y21962   0.803   3.601   4.724 -0.1519  0.7446 -1.0933
  190SAPI  C31821963   0.948   3.684   4.586  0.2447 -0.3118  0.4337
  190SAPI  H18X21964   1.034   3.614   4.585  0.8336  0.3942  0.4255
  190SAPI  H18Y21965   0.970   3.782   4.538 -0.2521 -0.8991 -1.0289
  190SAPI  H18Z21966   0.877   3.647   4.509 -0.2513  0.3915  0.5382
  191SAPI   C1221967   0.372   3.081   2.503  0.1934  0.1722 -0.5365
  191SAPI    H221968   0.387   3.080   2.614  1.5190 -2.8175 -0.6528
  191SAPI    O221969   0.445   3.197   2.473 -0.3913  0.0101  0.2496
  191SAPI   HO221970   0.394   3.272   2.505 -2.7335  0.0333 -3.0186
  191SAPI   C1321971   0.435   2.957   2.446  0.2215  0.4667  0.1544
  191SAPI    H321972   0.362   2.876   2.469 -0.5005  0.9978 -0.2266
  191SAPI    O321973   0.558   2.933   2.516 -0.9017 -0.1707 -0.2542
  191SAPI   HO321974   0.609   3.007   2.484  1.2683 -1.1316  0.8100
  191SAPI   C1421975   0.454   2.962   2.299 -0.0466  0.1594 -0.1839
  191SAPI    H421976   0.528   3.044   2.295  0.1451 -0.0327 -0.6409
  191SAPI    O421977   0.514   2.841   2.255 -1.0129 -0.9175 -0.2205
  191SAPI   HO421978   0.568   2.805   2.325  0.7140 -0.8602 -1.4727
  191SAPI   C1521979   0.331   3.004   2.221 -0.1024 -0.3026  0.2290
  191SAPI    H521980   0.281   2.908   2.198  1.4695 -0.7881 -1.2982
  191SAPI    O521981   0.375   3.061   2.097  0.4192  0.0648 -0.3711
  191SAPI   HO521982   0.302   3.046   2.037  1.2385 -1.4071 -1.0640
  191SAPI   C1621983   0.232   3.098   2.298 -0.4107 -0.3562  0.2190
  191SAPI    H621984   0.262   3.202   2.272 -1.5642  0.5364  2.2116
  191SAPI    O621985   0.104   3.082   2.243 -0.0670 -0.2374 -0.0074
  191SAPI   HO621986   0.066   3.000   2.274  0.6337 -1.7241 -2.7704
  191SAPI   C1121987   0.233   3.098   2.454  1.0407 -0.4938  0.1005
  191SAPI    H121988   0.169   3.012   2.482  0.5920  0.1241  1.0177
  191SAPI     P21989   0.022   3.239   2.566  0.0830 -0.2489  0.1712
  191SAPI   O1321990  -0.074   3.146   2.502 -0.1089 -0.5921  0.4584
  191SAPI   O1421991  -0.008   3.383   2.543 -0.0463 -0.5021  0.0872
  191SAPI   O1221992   0.173   3.220   2.505 -0.3292  0.7598  0.3378
  191SAPI   O1121993   0.040   3.200   2.715 -0.1303  0.0724  0.4972
  191SAPI    C121994   0.089   3.303   2.806  0.5334  0.7502 -0.4341
  191SAPI    HA21995   0.129   3.254   2.898  0.3796  3.5733  1.2832
  191SAPI    HB21996   0.175   3.365   2.771  2.1375 -1.5315 -0.7477
  191SAPI    C221997  -0.018   3.403   2.864 -0.8632 -0.1703 -0.8093
  191SAPI    HS21998  -0.054   3.463   2.777  0.0740  1.7130  0.0619
  191SAPI   O2121999   0.050   3.476   2.963 -0.4552 -0.3327 -0.0990
  191SAPI   C2122000   0.010   3.599   2.972  0.3584  0.0429  0.7932
  191SAPI   O2222001  -0.088   3.655   2.916  0.1317 -0.0370  0.3727
  191SAPI   C2222002   0.096   3.666   3.079 -1.1223  0.7246  0.1314
  191SAPI   H2R22003   0.091   3.776   3.062  1.2381  0.6858 -1.3078
  191SAPI   H2S22004   0.056   3.645   3.180 -0.2707  1.3363  0.6094
  191SAPI    C322005  -0.134   3.324   2.925  0.3101  0.0196 -0.7255
  191SAPI    HX22006  -0.100   3.252   3.003 -0.4802  1.0096  0.5735
  191SAPI    HY22007  -0.174   3.247   2.855 -1.2580 -2.0174  2.1747
  191SAPI   O3122008  -0.239   3.398   2.981  0.1100 -0.3140 -0.6531
  191SAPI   C3122009  -0.325   3.456   2.892 -0.0601  0.1441 -0.2554
  191SAPI   O3222010  -0.327   3.432   2.776 -0.7716 -0.3845  0.6400
  191SAPI   C3222011  -0.421   3.562   2.952 -0.3148 -0.3517  0.0889
  191SAPI   H2X22012  -0.415   3.662   2.904  0.4519  0.3052  1.4949
  191SAPI   H2Y22013  -0.387   3.589   3.055  0.5963  1.9056 -0.7284
  191SAPI   C2322014   0.250   3.627   3.079 -0.0524  0.0188 -0.0191
  191SAPI   H3R22015   0.286   3.603   2.977 -1.0657 -1.0529 -0.1558
  191SAPI   H3S22016   0.257   3.526   3.126  1.5765 -0.4716 -1.2425
  191SAPI   C2422017   0.339   3.717   3.177 -0.0110  0.5763 -0.2269
  191SAPI   H4R22018   0.432   3.655   3.187 -0.6488 -0.2272  0.9554
  191SAPI   H4S22019   0.300   3.720   3.280  1.4670 -0.6532  0.4152
  191SAPI   C2522020   0.355   3.863   3.142 -0.3881  0.4178  0.7368
  191SAPI   H5R22021   0.402   3.881   3.044 -3.6138  1.4484 -0.7707
  191SAPI   C2622022   0.319   3.968   3.217  0.8977  0.0238  0.3266
  191SAPI   H6R22023   0.337   4.066   3.172 -1.1252 -0.4282 -1.7109
  191SAPI   C2722024   0.250   3.980   3.352 -0.2970  0.2575 -0.2992
  191SAPI   H7R22025   0.235   4.086   3.381 -1.9253  0.1056 -0.5119
  191SAPI   H7S22026   0.326   3.935   3.421  0.2756  2.2015  0.3921
  191SAPI   C2822027   0.122   3.894   3.362 -0.5100  0.1423  0.1345
  191SAPI   H8R22028   0.070   3.880   3.266 -0.6450 -0.2177  0.2576
  191SAPI   C2922029   0.070   3.827   3.470 -0.3913  0.4911 -0.5429
  191SAPI   H9R22030  -0.023   3.768   3.464  1.6156 -3.0507  0.1572
  191SAPI  C21022031   0.120   3.833   3.609  0.6311 -0.4681 -0.1891
  191SAPI  H10R22032   0.025   3.859   3.661 -0.0876 -0.7644 -1.3277
  191SAPI  H10S22033   0.199   3.911   3.613  1.7425 -1.6036  0.4824
  191SAPI  C21122034   0.176   3.700   3.644  0.0154  0.0289  0.6545
  191SAPI  H11R22035   0.185   3.626   3.563 -1.0189  0.7157 -0.1124
  191SAPI  C21222036   0.233   3.667   3.763  0.0079  0.6302  0.2314
  191SAPI  H12R22037   0.268   3.563   3.768  0.6678  0.7866 -0.7139
  191SAPI  C21322038   0.251   3.768   3.875  0.4758  0.2367 -0.3067
  191SAPI  H13R22039   0.242   3.871   3.837 -0.5302  1.0361  1.8964
  191SAPI  H13S22040   0.359   3.756   3.899  0.6542  3.4305  1.0028
  191SAPI  C21422041   0.153   3.748   3.993 -0.1173  0.1005 -0.0292
  191SAPI  H14R22042   0.052   3.789   3.980  0.8885  2.6981 -0.1933
  191SAPI  C21522043   0.183   3.694   4.115  0.3449  0.4493 -0.1781
  191SAPI  H15R22044   0.096   3.691   4.182 -0.6927  0.3757 -1.4783
  191SAPI  C21622045   0.314   3.633   4.157  0.7295 -0.3463  0.0995
  191SAPI  H16R22046   0.375   3.703   4.218  0.3272 -1.0592  1.3780
  191SAPI  H16S22047   0.373   3.582   4.078 -0.2970  1.2219 -1.7573
  191SAPI  C21722048   0.295   3.515   4.249  0.3064  0.2322 -0.2896
  191SAPI  H17R22049   0.397   3.482   4.276  0.5793  1.1584 -0.1353
  191SAPI  H17S22050   0.259   3.434   4.182  1.1736  2.0021 -3.0837
  191SAPI  C21822051   0.216   3.535   4.377  0.0164 -0.3803  0.1984
  191SAPI  H18R22052   0.123   3.476   4.366 -0.5165  0.8684 -4.0184
  191SAPI  H18S22053   0.189   3.643   4.384 -2.9150 -0.9629 -0.6563
  191SAPI  C21922054   0.286   3.507   4.512 -0.2986 -0.2029 -0.6043
  191SAPI  H19R22055   0.373   3.575   4.525 -1.4789  1.3558 -0.5533
  191SAPI  H19S22056   0.337   3.408   4.509  2.2624  1.0507 -3.0858
  191SAPI  C22022057   0.192   3.502   4.624  0.4120  0.3678  0.2276
  191SAPI  H20R22058   0.146   3.599   4.650 -2.2621 -0.4429 -1.1213
  191SAPI  H20S22059   0.251   3.472   4.713  2.5519  0.9824 -0.8911
  191SAPI  H20T22060   0.105   3.436   4.602  0.4765  1.0186 -2.2935
  191SAPI   C3322061  -0.568   3.518   2.943  0.1584 -0.2106  0.1478
  191SAPI   H3X22062  -0.594   3.510   2.836  1.2568  1.4695 -0.2744
  191SAPI   H3Y22063  -0.635   3.601   2.976  0.3283 -0.3397  0.8453
  191SAPI   C3422064  -0.619   3.392   3.013 -0.0541  0.1302 -0.3885
  191SAPI   H4X22065  -0.551   3.310   2.982  0.4919  0.4412 -0.0177
  191SAPI   H4Y22066  -0.720   3.361   2.978  0.0126 -1.1543  0.4862
  191SAPI   C3522067  -0.611   3.412   3.168  0.2804 -0.7181  0.0261
  191SAPI   H5X22068  -0.679   3.497   3.191 -0.3027 -1.3975  0.8813
  191SAPI   H5Y22069  -0.509   3.448   3.193  0.5523 -1.4144 -0.0486
  191SAPI   C3622070  -0.650   3.285   3.245  0.1813  0.2740  0.8251
  191SAPI   H6X22071  -0.593   3.193   3.220 -0.3304 -0.1580  1.2168
  191SAPI   H6Y22072  -0.757   3.256   3.233  0.0687  1.0182 -0.1535
  191SAPI   C3722073  -0.613   3.295   3.394  0.5229 -0.1938  0.5978
  191SAPI   H7X22074  -0.646   3.388   3.446 -0.0278  0.1796 -0.3973
  191SAPI   H7Y22075  -0.502   3.289   3.395  0.4962 -1.1016 -0.4017
  191SAPI   C3822076  -0.677   3.174   3.461  0.3487  0.6832 -0.7740
  191SAPI   H8X22077  -0.650   3.081   3.407 -2.2700 -0.3569 -0.4636
  191SAPI   H8Y22078  -0.787   3.181   3.474  0.4469  0.4558  0.2402
  191SAPI   C3922079  -0.636   3.161   3.610 -0.6951 -1.3488 -0.1408
  191SAPI   H9X22080  -0.701   3.085   3.659 -1.9256 -0.1943  0.0772
  191SAPI   H9Y22081  -0.656   3.253   3.668  0.9142 -0.3225 -1.1049
  191SAPI  C31022082  -0.488   3.137   3.627 -0.7700  0.4406 -0.3599
  191SAPI  H10X22083  -0.421   3.221   3.597 -2.4267  1.3648 -1.6316
  191SAPI  H10Y22084  -0.466   3.048   3.564 -2.8798  0.1478 -0.7581
  191SAPI  C31122085  -0.452   3.100   3.770  0.0047 -0.5344 -0.5549
  191SAPI  H11X22086  -0.344   3.087   3.791 -0.5817 -0.3142  3.3872
  191SAPI  H11Y22087  -0.507   3.015   3.815 -0.3390 -0.2007 -0.3372
  191SAPI  C31222088  -0.493   3.213   3.871  0.0263 -0.0326  0.1573
  191SAPI  H12X22089  -0.603   3.226   3.879  0.2391  1.9349  0.4943
  191SAPI  H12Y22090  -0.450   3.310   3.837  0.9926 -0.3045  0.5453
  191SAPI  C31322091  -0.455   3.177   4.019 -0.0505  0.0718  0.1993
  191SAPI  H13X22092  -0.524   3.102   4.061 -2.0622  1.1340 -1.0494
  191SAPI  H13Y22093  -0.478   3.269   4.077  0.5535 -0.6259  1.6194
  191SAPI  C31422094  -0.309   3.139   4.043  1.0991 -0.6267 -0.5423
  191SAPI  H14X22095  -0.251   3.219   3.993  0.5263  1.7522  2.3193
  191SAPI  H14Y22096  -0.287   3.036   4.008 -0.9702 -1.0288 -0.7801
  191SAPI  C31522097  -0.281   3.156   4.197  0.4755 -0.3841 -0.1983
  191SAPI  H15X22098  -0.330   3.240   4.250 -2.3067 -1.0707 -1.5221
  191SAPI  H15Y22099  -0.171   3.175   4.204  0.5909 -1.4212  1.4281
  191SAPI  C31622100  -0.298   3.029   4.279 -0.1658 -0.5888 -0.1029
  191SAPI  H16X22101  -0.231   2.949   4.240  0.5864  1.0673 -2.4814
  191SAPI  H16Y22102  -0.403   3.001   4.256  0.3858 -0.8578 -2.6214
  191SAPI  C31722103  -0.279   3.054   4.427  0.2973 -0.8080 -0.1170
  191SAPI  H17X22104  -0.346   3.126   4.477  0.4387  0.5706 -1.8205
  191SAPI  H17Y22105  -0.181   3.104   4.439 -1.4029  2.1119  3.4017
  191SAPI  C31822106  -0.282   2.919   4.509 -0.2215  0.1415 -0.5090
  191SAPI  H18X22107  -0.381   2.879   4.538  0.3813 -1.9445 -1.1754
  191SAPI  H18Y22108  -0.227   2.935   4.604 -1.7652 -0.0809  0.4635
  191SAPI  H18Z22109  -0.221   2.846   4.453  2.4573  1.4575  0.5378
  192SAPI   C1222110   1.712   5.097   2.579 -0.3727  0.6173 -0.3491
  192SAPI    H222111   1.790   5.051   2.513  0.6338 -1.0661  1.8405
  192SAPI    O222112   1.782   5.202   2.653  0.5195 -0.1231  0.5688
  192SAPI   HO222113   1.865   5.164   2.685  0.4315 -1.6708 -0.9207
  192SAPI   C1322114   1.605   5.150   2.496 -0.0898 -0.8219 -0.0268
  192SAPI    H322115   1.560   5.064   2.441 -4.3935  1.0918  0.1103
  192SAPI    O322116   1.646   5.251   2.404 -0.5968  0.1679 -0.3848
  192SAPI   HO322117   1.705   5.311   2.451 -0.8248 -1.1244  1.6724
  192SAPI   C1422118   1.495   5.226   2.583 -0.5486 -0.1011 -0.8827
  192SAPI    H422119   1.542   5.309   2.639 -0.3075 -0.7919 -0.0359
  192SAPI    O422120   1.387   5.285   2.511  0.5361  0.2174  0.0525
  192SAPI   HO422121   1.324   5.292   2.584  0.9690 -2.4731  0.8166
  192SAPI   C1522122   1.445   5.130   2.693 -0.1926  0.1253 -0.8967
  192SAPI    H522123   1.378   5.064   2.634 -0.1034 -1.5559  0.8066
  192SAPI    O522124   1.376   5.199   2.799 -0.2032  0.1785 -0.5486
  192SAPI   HO522125   1.283   5.187   2.777 -0.6976 -0.8750  1.8984
  192SAPI   C1622126   1.541   5.026   2.752  0.3919 -0.3092  0.8487
  192SAPI    H622127   1.589   5.076   2.838  1.4944 -0.6120  0.4229
  192SAPI    O622128   1.477   4.913   2.806  0.0523  0.2184 -0.3352
  192SAPI   HO622129   1.546   4.849   2.825 -0.5258 -0.7412 -1.3298
  192SAPI   C1122130   1.665   4.987   2.663  0.0469  0.2776 -0.0102
  192SAPI    H122131   1.626   4.910   2.593  1.4899  0.3235 -0.8970
  192SAPI     P22132   1.801   4.773   2.769  0.3069  0.1558 -0.2952
  192SAPI   O1322133   1.924   4.759   2.847  0.1483  0.1783 -0.5078
  192SAPI   O1422134   1.784   4.701   2.640  0.0165  0.4133 -0.1771
  192SAPI   O1222135   1.776   4.931   2.739 -0.1087 -0.9237 -0.5111
  192SAPI   O1122136   1.682   4.736   2.857  0.0671 -0.6915  0.2368
  192SAPI    C122137   1.698   4.725   2.999 -0.4841 -0.3675 -0.3485
  192SAPI    HA22138   1.778   4.793   3.037  0.2097 -1.5326  0.3478
  192SAPI    HB22139   1.601   4.750   3.047  0.6583  0.5140  1.6215
  192SAPI    C222140   1.736   4.575   3.041  0.3443 -0.2231  0.1620
  192SAPI    HS22141   1.840   4.565   3.003 -0.7468 -2.5388 -2.5602
  192SAPI   O2122142   1.647   4.489   2.972 -0.2361  0.1828  0.2819
  192SAPI   C2122143   1.702   4.385   2.912  0.2399 -0.5662  0.4118
  192SAPI   O2222144   1.822   4.361   2.902  0.0482 -0.1099 -0.4484
  192SAPI   C2222145   1.604   4.305   2.831  0.1415 -0.5748 -0.5690
  192SAPI   H2R22146   1.577   4.367   2.743 -1.1945 -1.0045 -0.4847
  192SAPI   H2S22147   1.675   4.225   2.800  1.8335  0.4263  0.5822
  192SAPI    C322148   1.747   4.548   3.192  0.1213 -0.6450  0.5690
  192SAPI    HX22149   1.748   4.438   3.209 -0.6716 -1.0569 -1.6762
  192SAPI    HY22150   1.655   4.577   3.247  0.6274 -0.0879  1.1374
  192SAPI   O3122151   1.861   4.612   3.250 -0.0180 -0.2373 -0.2633
  192SAPI   C3122152   1.857   4.723   3.319 -0.3855  0.8128  0.7191
  192SAPI   O3222153   1.765   4.800   3.329 -0.1121 -0.4617  0.0904
  192SAPI   C3222154   1.998   4.738   3.389  0.3951 -0.0479  0.5856
  192SAPI   H2X22155   2.028   4.843   3.367 -2.3018  0.5285 -0.7004
  192SAPI   H2Y22156   2.066   4.656   3.355 -0.6908 -0.6951 -0.0692
  192SAPI   C2322157   1.480   4.245   2.907 -0.2265  0.0656 -0.0768
  192SAPI   H3R22158   1.432   4.176   2.834  0.7520  0.9394 -1.6330
  192SAPI   H3S22159   1.400   4.320   2.923 -0.0169 -0.0852  1.8974
  192SAPI   C2422160   1.524   4.161   3.028  0.1303 -0.1119  0.6026
  192SAPI   H4R22161   1.567   4.238   3.095 -2.2028 -0.2199  2.3594
  192SAPI   H4S22162   1.606   4.091   3.001 -0.4611 -1.0951  1.2687
  192SAPI   C2522163   1.400   4.098   3.099 -0.6043 -0.5342  0.2089
  192SAPI   H5R22164   1.337   4.033   3.036  0.8170 -2.0078  0.2293
  192SAPI   C2622165   1.367   4.127   3.226  0.2816  0.8532 -0.5635
  192SAPI   H6R22166   1.277   4.079   3.267  0.3631 -0.6590 -2.0279
  192SAPI   C2722167   1.441   4.212   3.315  0.0516 -0.2656 -0.7461
  192SAPI   H7R22168   1.548   4.193   3.292 -0.6205 -0.5199 -4.1881
  192SAPI   H7S22169   1.418   4.171   3.416 -0.2528 -0.5225 -0.9187
  192SAPI   C2822170   1.410   4.356   3.292 -0.0730 -0.1921 -0.6349
  192SAPI   H8R22171   1.393   4.383   3.187  0.6247  1.2693 -0.3970
  192SAPI   C2922172   1.403   4.443   3.395  0.5065 -0.0142  0.2249
  192SAPI   H9R22173   1.378   4.549   3.374  0.5132  0.3212  1.7985
  192SAPI  C21022174   1.442   4.407   3.543 -0.2117  0.2291  0.5887
  192SAPI  H10R22175   1.501   4.314   3.531 -1.4079 -0.4046 -0.7775
  192SAPI  H10S22176   1.350   4.386   3.601 -0.6275  1.6507  0.4707
  192SAPI  C21122177   1.520   4.520   3.605 -0.0799  0.0212 -0.4429
  192SAPI  H11R22178   1.585   4.580   3.540  0.9572 -0.7892 -0.1749
  192SAPI  C21222179   1.503   4.558   3.737  0.2725  0.4147 -0.1869
  192SAPI  H12R22180   1.571   4.639   3.769  1.4675 -0.4489 -0.4718
  192SAPI  C21322181   1.417   4.478   3.840  0.7481 -0.2740 -0.0452
  192SAPI  H13R22182   1.323   4.437   3.798  1.0226  0.6638 -1.6658
  192SAPI  H13S22183   1.384   4.542   3.925  1.3745 -0.5977  0.4468
  192SAPI  C21422184   1.505   4.373   3.908 -0.4275  1.0037  0.2074
  192SAPI  H14R22185   1.568   4.314   3.839 -0.0734  1.4314  0.1615
  192SAPI  C21522186   1.519   4.352   4.042  0.4128 -0.5917 -0.0493
  192SAPI  H15R22187   1.598   4.283   4.073  0.8875 -0.4801 -0.9708
  192SAPI  C21622188   1.454   4.422   4.156 -0.6305 -0.3850  0.1526
  192SAPI  H16R22189   1.360   4.370   4.186 -0.1498 -2.2347 -1.3922
  192SAPI  H16S22190   1.437   4.531   4.139  0.3669 -0.1395  0.7051
  192SAPI  C21722191   1.540   4.432   4.288  0.2438  0.4111 -0.0875
  192SAPI  H17R22192   1.627   4.496   4.260 -0.3280  2.3805  2.2841
  192SAPI  H17S22193   1.573   4.331   4.321 -2.5119 -1.1469 -1.7324
  192SAPI  C21822194   1.480   4.505   4.409  0.4479 -0.2328 -0.2301
  192SAPI  H18R22195   1.550   4.520   4.494  0.0419  0.3989 -0.0064
  192SAPI  H18S22196   1.389   4.453   4.446  0.8028 -2.2058 -1.9134
  192SAPI  C21922197   1.431   4.649   4.387  0.8778 -0.0983 -0.6370
  192SAPI  H19R22198   1.340   4.649   4.324 -0.1330  0.8146  0.7483
  192SAPI  H19S22199   1.509   4.706   4.334  1.9084 -0.8072  0.0717
  192SAPI  C22022200   1.406   4.716   4.517 -0.1585 -0.1479 -0.3587
  192SAPI  H20R22201   1.339   4.641   4.566 -0.0807  1.1084  1.7939
  192SAPI  H20S22202   1.369   4.819   4.502  2.2822  0.4927 -2.6887
  192SAPI  H20T22203   1.499   4.717   4.578 -0.3057 -2.1593 -0.0189
  192SAPI   C3322204   1.978   4.729   3.542  0.2486 -0.2893  0.3878
  192SAPI   H3X22205   2.077   4.712   3.589  1.7462  2.1468 -1.6132
  192SAPI   H3Y22206   1.907   4.646   3.562  0.3658 -0.3348  0.6174
  192SAPI   C3422207   1.921   4.855   3.605 -0.4472 -1.2616 -0.1903
  192SAPI   H4X22208   1.852   4.896   3.528 -0.5332  0.7263  0.8764
  192SAPI   H4Y22209   2.005   4.927   3.600 -0.3175 -1.4222 -0.2815
  192SAPI   C3522210   1.854   4.849   3.744  0.2411 -0.0092 -0.2326
  192SAPI   H5X22211   1.765   4.783   3.746 -0.0430  0.3895  0.3448
  192SAPI   H5Y22212   1.820   4.954   3.753  0.3392  0.2579 -2.3979
  192SAPI   C3622213   1.953   4.807   3.855  0.1139 -0.5948 -0.6592
  192SAPI   H6X22214   2.026   4.891   3.849 -0.6241  0.0573 -0.6991
  192SAPI   H6Y22215   1.985   4.706   3.823 -1.7085 -1.4734  0.1415
  192SAPI   C3722216   1.901   4.811   4.001 -0.0210  0.1898 -0.1739
  192SAPI   H7X22217   1.975   4.752   4.059  0.5939  0.2542 -0.8763
  192SAPI   H7Y22218   1.805   4.756   4.015  0.1394  0.0028  0.2090
  192SAPI   C3822219   1.895   4.953   4.043  0.8344 -0.2694 -0.4667
  192SAPI   H8X22220   1.830   4.995   3.963  0.7528 -1.8683 -1.2747
  192SAPI   H8Y22221   1.993   5.003   4.030  0.0534  1.2332 -0.8661
  192SAPI   C3922222   1.851   4.979   4.192  0.0528 -0.0701 -0.0390
  192SAPI   H9X22223   1.747   4.948   4.214  0.5170 -2.0885 -0.4256
  192SAPI   H9Y22224   1.866   5.086   4.217 -0.3990  0.2271 -1.0331
  192SAPI  C31022225   1.935   4.895   4.289 -0.6214  0.1738  0.7888
  192SAPI  H10X22226   1.905   4.788   4.286  2.1924 -0.7472 -2.8514
  192SAPI  H10Y22227   1.906   4.930   4.390  0.3839  0.8305  0.8576
  192SAPI  C31122228   2.083   4.900   4.267 -0.1531  0.0854 -0.1490
  192SAPI  H11X22229   2.115   5.004   4.243 -1.3821  0.1596 -1.6297
  192SAPI  H11Y22230   2.108   4.847   4.172  0.2298 -1.4598  0.7816
  192SAPI  C31222231   2.183   4.855   4.379 -0.3791  0.0669 -0.4214
  192SAPI  H12X22232   2.282   4.865   4.329 -0.7765  1.4573 -0.9858
  192SAPI  H12Y22233   2.179   4.752   4.419  1.1502  0.8402  1.8876
  192SAPI  C31322234   2.183   4.943   4.504 -0.2744  0.0838  0.2450
  192SAPI  H13X22235   2.082   4.958   4.547 -0.8892 -1.6911 -0.4918
  192SAPI  H13Y22236   2.220   5.045   4.479  1.0545 -0.8597 -2.0064
  192SAPI  C31422237   2.278   4.877   4.610  0.4756 -0.0336 -0.5114
  192SAPI  H14X22238   2.363   4.828   4.559 -0.1109  0.2568 -1.8094
  192SAPI  H14Y22239   2.225   4.799   4.669  1.7335 -0.4879  0.0615
  192SAPI  C31522240   2.356   4.980   4.696 -0.4171 -0.2185 -0.7249
  192SAPI  H15X22241   2.296   5.046   4.764  0.4771  1.6601 -1.6729
  192SAPI  H15Y22242   2.394   5.049   4.617  0.7610 -0.0504 -0.0310
  192SAPI  C31622243   2.473   4.917   4.768  0.1420  0.0953  0.0499
  192SAPI  H16X22244   2.531   4.872   4.684  1.2939  1.1544  0.2559
  192SAPI  H16Y22245   2.443   4.844   4.846 -2.0777  0.5727 -0.3009
  192SAPI  C31722246   2.566   5.023   4.836 -0.3361 -0.6480 -0.0387
  192SAPI  H17X22247   2.583   5.095   4.754  0.7549 -0.4437  0.3520
  192SAPI  H17Y22248   2.664   4.981   4.868 -0.5481 -0.9225  0.2642
  192SAPI  C31822249   2.497   5.091   4.959  0.0589 -0.7787  0.2883
  192SAPI  H18X22250   2.390   5.115   4.942  0.6610  1.7190 -0.4211
  192SAPI  H18Y22251   2.545   5.189   4.981  2.5141 -1.7286 -0.4140
  192SAPI  H18Z22252   2.515   5.028   5.049  0.7959  2.0713  2.3003
  193SOD    SOD22253   3.371   4.422   0.067  0.0446  0.0685  0.0123
  194SOD    SOD22254   0.465   3.972   8.748 -0.1128  0.1175 -0.4832
  195SOD    SOD22255   3.806   4.490   7.911  0.1091  0.0077 -0.0130
  196SOD    SOD22256   0.896   0.864   7.752  0.7596 -0.2743  0.1343
  197SOD    SOD22257   2.975   4.248   1.582 -0.3615 -0.1686  0.2208
  198SOD    SOD22258   4.879   4.992   7.898 -0.3780 -0.2101  0.2434
  199SOD    SOD22259   0.879   4.696   7.622  0.1201 -0.2478 -0.2010
  200SOD    SOD22260   4.528   2.266   8.499 -0.7123 -0.2514 -0.0574
  201SOD    SOD22261   5.413   1.996   1.815 -0.3437 -0.1887  0.3759
  202SOD    SOD22262   2.650   0.366   2.215  0.3812  0.5721  0.2128
  203SOD    SOD22263   2.758   2.072   2.002  0.0300 -0.1293  0.0490
  204SOD    SOD22264   6.337   4.967   7.035 -0.0496  0.2256 -0.0227
  205SOD    SOD22265   3.167   2.663   7.527  0.3562  0.2317  0.4654
  206SOD    SOD22266   5.434   5.591   2.213  0.2042  0.0766 -0.1621
  207SOD    SOD22267   5.795   5.461   0.735  0.1904  0.1261  0.0980
  208SOD    SOD22268   2.181   5.142   6.878  0.7402  0.0068  0.4981
  209SOD    SOD22269   0.026   0.780   7.455 -0.2948  0.1128 -0.1907
  210SOD    SOD22270   2.681   6.094   0.040 -0.1868 -0.1173 -0.5780
  211SOD    SOD22271   1.461   1.189   1.473 -0.2809  0.4608  0.2227
  212SOD    SOD22272   3.912   2.275   1.676  0.0723 -0.4185  0.0475
  213SOD    SOD22273   5.433   0.807   7.036 -0.1272 -0.4021 -0.5881
  214SOD    SOD22274   5.641   6.482   1.817 -0.0965  0.0366 -0.2678
  215SOD    SOD22275   0.639   5.147   2.610 -0.0084  0.0715 -0.3267
  216SOD    SOD22276   5.521   4.785   7.373  0.4712  0.1182  0.3433
  217SOD    SOD22277   0.979   3.995   7.604 -0.0918  0.2745 -0.3880
  218SOD    SOD22278   6.361   5.870   1.642  0.0056  0.4084 -0.2156
  219SOD    SOD22279   2.123   0.193   0.649 -0.3311 -1.0935 -0.3161
  220SOD    SOD22280   6.282   0.407   2.524 -0.1955  0.4012 -0.0723
  221SOD    SOD22281   2.003   5.838   1.827 -0.3222 -0.3300 -0.5391
  222SOD    SOD22282   6.741   1.705   8.487  0.0449  0.0841  0.7752
  223SOD    SOD22283   0.507   1.507   2.091 -0.3196 -0.1404  0.4683
  224SOD    SOD22284   5.505   1.881   0.272  0.1659  0.3901 -0.1952
  225SOD    SOD22285   3.419   1.881   7.988  0.0592 -0.1268 -0.3209
  226SOD    SOD22286   3.886   3.112   2.197  0.1774  0.2619  0.1633
  227SOD    SOD22287   1.098   2.526   1.096  0.0935  0.6322 -0.2509
  228SOD    SOD22288   5.176   3.648   0.498 -0.3497 -0.4678  0.2537
  229SOD    SOD22289   4.437   2.755   2.431  0.8220 -0.0502 -0.0846
  230SOD    SOD22290   3.942   4.094   2.346 -0.0201 -0.2475  0.2352
  231SOD    SOD22291   6.176   1.339   7.248 -0.0227 -0.0946 -0.1155
  232SOD    SOD22292   1.529   1.465   7.884 -0.1419  0.6376  0.1190
  233SOD    SOD22293   0.789   1.286   8.206  0.7927 -0.3930 -0.4792
  234CLA    CLA22294   3.233   2.292   2.208 -0.0638  0.4552 -0.6006
  235CLA    CLA22295   4.730   3.328   7.762 -0.4549 -0.0792 -0.1805
  236CLA    CLA22296   0.487   0.805   0.795  0.0605  0.1181 -0.1860
  237CLA    CLA22297   1.095   1.753   7.677  0.2087  0.0519  0.3527
  238CLA    CLA22298   6.769   3.281   0.501 -0.1625  0.0006  0.1436
  239CLA    CLA22299   6.086   0.792   0.559  0.0155  0.5550  0.1964
  240CLA    CLA22300   5.587   5.256   7.542  0.1512 -0.0623  0.1470
  241CLA    CLA22301   2.594   3.970   8.235 -0.1859  0.1612 -0.0690
  242CLA    CLA22302   3.064   4.106   1.131  0.2501  0.4644  0.3314
  243CLA    CLA22303   5.443   5.270   8.466  0.1865 -0.1047 -0.2651
  244CLA    CLA22304   2.563   3.950   1.727 -0.1695  0.1461  0.0539
  245CLA    CLA22305   3.453   5.548   0.947 -0.0131  0.0287 -0.1508
  246CLA    CLA22306   0.955   0.532   8.040  0.0754 -0.2343 -0.2623
  247CLA    CLA22307   2.513   4.441   7.605 -0.1192  0.5259 -0.5872
  248CLA    CLA22308   4.726   5.667   0.899  0.1002 -0.2033 -0.2851
  249CLA    CLA22309   5.953   0.129   8.422  0.7182 -0.2222  0.2296
  250CLA    CLA22310   2.648   6.672   1.344  0.1374 -0.1347 -0.0371
  251TIP3   OH222311   1.449   4.757   2.338  0.4999 -0.0627  0.9111
  251TIP3    H122312   1.391   4.756   2.415  1.6458  0.3892  1.8186
  251TIP3    H222313   1.530   4.715   2.370  0.7384 -0.5221 -0.2669
  252TIP3   OH222314   1.119   5.056   0.306 -0.5444  0.4646  0.4686
  252TIP3    H122315   1.093   5.018   0.221  1.7312 -1.0153  0.3399
  252TIP3    H222316   1.086   5.146   0.303  1.5840  1.3383 -3.1127
  253TIP3   OH222317   3.866   6.225   1.726  0.2024 -0.6568  0.0865
  253TIP3    H122318   3.793   6.163   1.723  1.3943 -2.0705 -1.4689
  253TIP3    H222319   3.938   6.175   1.765  0.6175  0.4425  0.7903
  254TIP3   OH222320   3.479   5.203   0.986 -0.5473  0.1174  0.1787
  254TIP3    H122321   3.509   5.292   1.006  0.5701  0.0830 -1.1561
  254TIP3    H222322   3.539   5.146   1.034 -1.8014  0.0551  1.7371
  255TIP3   OH222323   2.895   1.138   8.018  0.5609 -0.3156  0.0184
  255TIP3    H122324   2.958   1.105   8.082  2.1125  1.0690 -0.7025
  255TIP3    H222325   2.942   1.134   7.934 -0.6606 -0.1483 -0.6899
  256TIP3   OH222326   6.271   0.616   0.142 -0.1362  0.1833  0.1015
  256TIP3    H122327   6.330   0.644   0.072  1.4579 -0.6603  1.0527
  256TIP3    H222328   6.277   0.685   0.208  0.3164 -0.2301  0.4953
  257TIP3   OH222329   3.251   6.607   0.515 -0.1286 -0.3314 -1.3064
  257TIP3    H122330   3.182   6.617   0.581 -0.7812 -1.0233 -1.8585
  257TIP3    H222331   3.321   6.665   0.544 -0.7097 -0.0552 -0.4144
  258TIP3   OH222332   6.053   4.304   0.764 -0.6048  0.5249 -0.2672
  258TIP3    H122333   6.025   4.394   0.783  1.0856  0.9182  0.5820
  258TIP3    H222334   5.972   4.256   0.749 -1.6803  1.6866  1.5374
  259TIP3   OH222335   2.386   4.212   1.660  0.2793  0.2047 -0.2774
  259TIP3    H122336   2.292   4.222   1.646  0.5568  1.9323 -1.1522
  259TIP3    H222337   2.399   4.117   1.667 -1.2330 -0.2315 -2.3297
  260TIP3   OH222338   0.655   3.192   8.183  0.0634  0.6418 -0.4529
  260TIP3    H122339   0.668   3.112   8.234  1.0135  1.6710  1.0268
  260TIP3    H222340   0.733   3.244   8.202 -0.5397  1.9105 -1.3731
  261TIP3   OH222341   3.673   1.864   2.055  0.4255 -0.4634  0.2699
  261TIP3    H122342   3.688   1.938   1.996  1.8257 -0.0585  1.0879
  261TIP3    H222343   3.758   1.820   2.062 -0.0891 -1.4141  0.7733
  262TIP3   OH222344   0.508   5.374   1.516  0.1300  0.3321  0.4249
  262TIP3    H122345   0.460   5.373   1.598 -0.3355 -1.5616  0.1679
  262TIP3    H222346   0.453   5.426   1.457 -1.9000 -2.1048  0.0183
  263TIP3   OH222347   5.255   5.993   0.470  0.5579  0.0800 -0.1310
  263TIP3    H122348   5.247   5.899   0.485  0.2187  0.0278 -0.6067
  263TIP3    H222349   5.174   6.031   0.504  1.8081  0.5618  2.6098
  264TIP3   OH222350   5.866   3.912   1.717 -0.2908 -0.4808  0.1742
  264TIP3    H122351   5.784   3.931   1.761 -0.9588 -0.6347 -0.9527
  264TIP3    H222352   5.932   3.958   1.769 -0.9855 -0.9094  1.4779
  265TIP3   OH222353   6.705   4.521   7.463 -0.1715  0.0460  0.3714
  265TIP3    H122354   6.726   4.528   7.370 -1.2814 -1.1112  0.0006
  265TIP3    H222355   6.745   4.438   7.490  0.1502  0.3792  0.9296
  266TIP3   OH222356   3.035   6.146   2.532  0.5672  0.3757 -0.0941
  266TIP3    H122357   3.017   6.134   2.625 -2.1635  1.8635 -0.3498
  266TIP3    H222358   3.068   6.236   2.525 -0.0964  0.5901 -0.6309
  267TIP3   OH222359   4.875   6.625   8.199 -0.7520  0.0952 -0.2143
  267TIP3    H122360   4.933   6.696   8.227  0.7871 -0.8358 -0.8746
  267TIP3    H222361   4.800   6.669   8.158 -0.5595  1.3413  0.7283
  268TIP3   OH222362   0.371   3.965   1.049  0.5647 -0.2122 -0.2210
  268TIP3    H122363   0.413   3.898   1.104  2.4396  1.4984  0.5667
  268TIP3    H222364   0.387   4.047   1.095  0.1953  1.0450 -2.2045
  269TIP3   OH222365   0.714   4.553   0.476  0.2154 -0.0882  0.0838
  269TIP3    H122366   0.680   4.475   0.431  2.6310 -1.3977  0.3442
  269TIP3    H222367   0.716   4.529   0.568 -1.8686  1.4800  0.6061
  270TIP3   OH222368   3.914   1.186   2.416 -0.1871 -0.6677 -0.3809
  270TIP3    H122369   3.973   1.185   2.492 -1.3294 -3.1004  0.5819
  270TIP3    H222370   3.835   1.231   2.448  0.9072  2.3778 -1.5984
  271TIP3   OH222371   3.734   6.368   8.517 -0.4212  0.0902 -0.4457
  271TIP3    H122372   3.737   6.281   8.476  1.4593  0.1840 -0.5946
  271TIP3    H222373   3.718   6.350   8.610 -0.0039 -0.4319 -0.4684
  272TIP3   OH222374   4.401   5.783   2.261 -0.1962  0.5257  0.2895
  272TIP3    H122375   4.351   5.703   2.277 -0.8307  0.8436 -0.0276
  272TIP3    H222376   4.391   5.800   2.167  1.6884 -0.1519 -0.0660
  273TIP3   OH222377   6.456   1.986   8.006  0.0417  0.0140  0.1010
  273TIP3    H122378   6.420   1.985   7.917  0.6581 -0.6915 -0.1467
  273TIP3    H222379   6.540   2.030   7.997 -0.0698  0.2919  0.4080
  274TIP3   OH222380   0.713   0.952   6.568 -0.3236 -0.0603  0.3790
  274TIP3    H122381   0.798   0.994   6.558  0.3611 -0.7916  2.5111
  274TIP3    H222382   0.716   0.876   6.510  1.5675 -1.5474  2.2448
  275TIP3   OH222383   4.327   3.756   8.572  0.4811  0.5400 -0.2149
  275TIP3    H122384   4.270   3.812   8.519 -1.7806 -2.2684 -0.9740
  275TIP3    H222385   4.316   3.790   8.661 -1.4760  0.8341 -0.5191
  276TIP3   OH222386   6.497   0.355   0.793  0.2481  0.0351 -0.3469
  276TIP3    H122387   6.474   0.356   0.886  0.7516 -1.0106 -0.1934
  276TIP3    H222388   6.531   0.267   0.778 -0.1155  0.0855 -1.5958
  277TIP3   OH222389   6.433   4.953   6.335 -0.3542 -0.4488  0.2741
  277TIP3    H122390   6.460   4.990   6.419 -0.2545  1.9737 -0.7266
  277TIP3    H222391   6.396   4.867   6.357 -0.2978  0.0804  2.7689
  278TIP3   OH222392   1.860   2.423   1.872 -0.2050 -0.0798  0.1348
  278TIP3    H122393   1.946   2.381   1.878  0.2072  0.6252 -0.6083
  278TIP3    H222394   1.866   2.478   1.794 -1.7809 -1.0293 -0.6931
  279TIP3   OH222395   5.790   3.615   1.643  0.1155  0.4128 -0.1132
  279TIP3    H122396   5.750   3.545   1.694  0.1574 -1.0507 -1.9510
  279TIP3    H222397   5.743   3.694   1.668 -0.1454 -0.3034  1.8076
  280TIP3   OH222398   6.351   3.104   8.248  0.1578  0.1844  0.0283
  280TIP3    H122399   6.375   3.122   8.339 -0.1736 -1.1207  0.3967
  280TIP3    H222400   6.264   3.064   8.254  0.7980 -1.4012 -0.7100
  281TIP3   OH222401   0.061   4.073   8.069 -0.1009 -0.4148  0.0171
  281TIP3    H122402  -0.007   4.016   8.107  0.7734 -0.9195  0.8708
  281TIP3    H222403   0.132   4.071   8.133 -0.6669  3.0212  0.9913
  282TIP3   OH222404   4.163   4.708   8.424  0.3113 -0.0317  0.2284
  282TIP3    H122405   4.144   4.797   8.396  0.5394 -0.0611 -0.0292
  282TIP3    H222406   4.150   4.708   8.519  0.0272  0.2001  0.1886
  283TIP3   OH222407   3.614   3.030   1.868  0.5833 -0.6322  0.0034
  283TIP3    H122408   3.534   3.033   1.921  0.4731 -0.6309 -0.1615
  283TIP3    H222409   3.634   3.122   1.849  0.5294 -0.6410 -0.0960
  284TIP3   OH222410   5.162   0.751   2.886  0.1110  0.0844  0.1379
  284TIP3    H122411   5.086   0.802   2.913 -0.2800 -0.0752 -0.6235
  284TIP3    H222412   5.226   0.817   2.857 -0.1694  0.1767 -0.2844
  285TIP3   OH222413   1.590   2.613   1.990  0.2150 -0.2480  0.0266
  285TIP3    H122414   1.524   2.641   1.928  0.4515  1.3357  0.4439
  285TIP3    H222415   1.673   2.642   1.952  0.5318 -0.8642  0.2323
  286TIP3   OH222416   4.356   4.589   1.856 -0.2715 -0.3023 -0.2840
  286TIP3    H122417   4.359   4.494   1.841 -1.6831 -0.3634 -0.3254
  286TIP3    H222418   4.289   4.600   1.923 -0.7895  0.7346 -0.9573
  287TIP3   OH222419   0.893   1.821   7.455 -0.2469  0.2129  0.4082
  287TIP3    H122420   0.904   1.914   7.436 -0.7474  0.7102  2.3052
  287TIP3    H222421   0.963   1.802   7.518  0.6027 -1.0117 -0.8680
  288TIP3   OH222422   6.417   0.951   6.698 -0.3314 -0.0831 -0.2350
  288TIP3    H122423   6.512   0.951   6.694 -0.3017  0.0040  0.4773
  288TIP3    H222424   6.392   0.865   6.663  0.0484 -0.4863  0.4778
  289TIP3   OH222425   1.881   4.918   7.431  0.1753 -0.5763 -0.2465
  289TIP3    H122426   1.875   5.012   7.453  0.4773 -0.6292  0.0678
  289TIP3    H222427   1.942   4.914   7.358  0.1222 -0.5208 -0.2937
  290TIP3   OH222428   0.491   4.145   7.278  0.5347 -0.3558  0.1180
  290TIP3    H122429   0.482   4.176   7.188  1.0307 -0.9297 -0.1401
  290TIP3    H222430   0.470   4.051   7.273  4.2331 -1.3266 -0.1632
  291TIP3   OH222431   4.557   6.620   7.079 -0.1679 -0.2751  0.3027
  291TIP3    H122432   4.548   6.638   6.985 -0.9801  2.9230  0.8710
  291TIP3    H222433   4.467   6.609   7.109 -0.0825  0.8124  1.0077
  292TIP3   OH222434   4.266   1.539   1.074 -0.3056 -0.0176  0.0059
  292TIP3    H122435   4.326   1.605   1.037 -1.1149  0.4171 -0.5620
  292TIP3    H222436   4.321   1.489   1.134  0.9722 -0.4744 -1.4546
  293TIP3   OH222437   2.972   2.282   7.888  0.1713  0.7043 -0.1998
  293TIP3    H122438   3.062   2.271   7.858  0.5587  1.9607  0.4123
  293TIP3    H222439   2.969   2.372   7.922 -0.3229 -0.4041  3.0578
  294TIP3   OH222440   5.307   6.717   1.151 -0.2076 -0.6169 -0.3179
  294TIP3    H122441   5.225   6.738   1.196  0.1573 -1.5410  0.8509
  294TIP3    H222442   5.366   6.691   1.222  0.9522 -0.4243 -1.1908
  295TIP3   OH222443   5.127   2.980   0.661 -0.0337  0.3792 -0.0969
  295TIP3    H122444   5.065   2.965   0.589 -0.3755 -0.8591  0.4280
  295TIP3    H222445   5.100   2.918   0.729  0.7223  1.0341  0.8274
  296TIP3   OH222446   6.767   3.692   7.864 -0.3209 -0.1899  0.1503
  296TIP3    H122447   6.763   3.597   7.849  1.9562 -0.0929 -1.6081
  296TIP3    H222448   6.714   3.729   7.793  2.3675 -0.0794 -1.9370
  297TIP3   OH222449   2.247   0.339   7.512  0.1827 -0.2640 -0.1792
  297TIP3    H122450   2.295   0.265   7.550  1.3774 -0.4145 -1.8549
  297TIP3    H222451   2.314   0.389   7.465 -1.1463  0.0269 -1.8572
  298TIP3   OH222452   0.231   0.901   7.479 -0.3727  0.0516  0.7344
  298TIP3    H122453   0.288   0.954   7.424 -1.1359  0.1410  0.0009
  298TIP3    H222454   0.210   0.958   7.554 -0.0421  0.2584  0.6713
  299TIP3   OH222455   6.804   2.157   7.312 -0.2308  0.4881 -0.1359
  299TIP3    H122456   6.796   2.067   7.279 -0.4849  0.3232  0.3674
  299TIP3    H222457   6.847   2.204   7.241  0.2317 -0.1107 -0.2657
  300TIP3   OH222458   0.273   0.718   8.015  0.5260  0.1799 -0.1080
  300TIP3    H122459   0.249   0.665   7.939  0.4183  1.0092 -0.6654
  300TIP3    H222460   0.200   0.780   8.025  0.7628  0.3845  0.3803
  301TIP3   OH222461   0.714   2.215   7.626 -0.0227  0.4072  0.0606
  301TIP3    H122462   0.624   2.203   7.595 -0.2860 -0.1347  0.9906
  301TIP3    H222463   0.768   2.204   7.548 -0.7450  0.4809 -0.4623
  302TIP3   OH222464   1.712   6.769   1.108  0.1504  0.0365  0.4846
  302TIP3    H122465   1.720   6.694   1.049 -1.1787  0.1430  0.1289
  302TIP3    H222466   1.717   6.732   1.196 -0.1749 -0.4290  0.3086
  303TIP3   OH222467   5.334   2.720   7.864 -0.3416  0.1105 -0.4711
  303TIP3    H122468   5.326   2.765   7.780  0.0992  0.5278 -0.2938
  303TIP3    H222469   5.244   2.718   7.899 -0.7256 -1.0224 -1.4244
  304TIP3   OH222470   6.297   4.608   7.788  0.3171  0.1657 -0.5404
  304TIP3    H122471   6.388   4.583   7.770 -0.2698 -1.7068 -1.1777
  304TIP3    H222472   6.255   4.611   7.702 -0.2626  0.8763 -0.2399
  305TIP3   OH222473   1.741   2.699   0.534 -0.6716  0.0553 -0.1883
  305TIP3    H122474   1.783   2.782   0.558 -0.0983 -0.5392  0.9036
  305TIP3    H222475   1.748   2.696   0.438 -0.5875  1.2029 -0.2284
  306TIP3   OH222476   5.488   2.860   6.725 -0.3796 -0.7542 -0.3175
  306TIP3    H122477   5.427   2.792   6.755 -0.6434 -0.0873  0.7415
  306TIP3    H222478   5.449   2.942   6.757  0.9379 -0.2853  0.1487
  307TIP3   OH222479   4.556   3.974   1.218  0.0274  0.1374 -0.1142
  307TIP3    H122480   4.607   4.052   1.195  1.3852 -0.4874  0.6186
  307TIP3    H222481   4.511   3.997   1.299  0.9304 -0.0263  0.4496
  308TIP3   OH222482   2.660   3.090   7.071  0.7537 -0.5341  0.8637
  308TIP3    H122483   2.602   3.020   7.101 -1.2444 -0.5494 -2.5174
  308TIP3    H222484   2.690   3.062   6.985  3.4013  0.9070  1.2070
  309TIP3   OH222485   6.334   3.563   8.324  0.1255 -0.1329  0.4798
  309TIP3    H122486   6.261   3.504   8.342 -0.0869  0.1293  0.4841
  309TIP3    H222487   6.292   3.647   8.306  0.3136 -0.3496 -1.1489
  310TIP3   OH222488   4.710   0.093   7.494 -0.1287 -0.0773 -0.0777
  310TIP3    H122489   4.761   0.036   7.551 -2.2627 -0.4810  1.5568
  310TIP3    H222490   4.684   0.037   7.421 -1.0967 -0.8836  0.8460
  311TIP3   OH222491   6.308   2.868   7.343 -0.9223 -0.1607  0.1322
  311TIP3    H122492   6.331   2.775   7.339 -0.2463  0.0552 -1.5882
  311TIP3    H222493   6.376   2.913   7.293 -0.9185  1.3593  1.4010
  312TIP3   OH222494   5.448   5.235   1.712 -0.1072 -0.3018 -0.0178
  312TIP3    H122495   5.395   5.256   1.635 -0.8999 -1.9744  0.0164
  312TIP3    H222496   5.390   5.250   1.786  0.2213  0.0489  0.1679
  313TIP3   OH222497   3.218   6.017   7.687 -0.1032  0.1076 -0.4955
  313TIP3    H122498   3.298   5.998   7.638 -0.0868  0.3462 -0.5641
  313TIP3    H222499   3.173   5.933   7.694 -0.3905  0.1696 -1.4164
  314TIP3   OH222500   1.330   1.022   7.891  0.6649  0.3291  0.3828
  314TIP3    H122501   1.354   1.000   7.981  2.9248 -1.4331 -0.5649
  314TIP3    H222502   1.382   0.962   7.837 -2.8706 -0.8616 -2.0640
  315TIP3   OH222503   4.218   6.530   2.972 -0.1024 -0.3470 -0.0194
  315TIP3    H122504   4.268   6.597   2.925  1.1679  0.0192  1.7684
  315TIP3    H222505   4.251   6.447   2.938  1.0027 -0.0925  0.4231
  316TIP3   OH222506   0.832   5.910   1.616  0.0529  0.2925  0.0921
  316TIP3    H122507   0.752   5.862   1.593  0.6184 -0.5462 -0.1688
  316TIP3    H222508   0.801   5.984   1.669 -0.9992  0.6202 -0.9343
  317TIP3   OH222509   6.633   1.567   6.951  0.3203  0.3360  0.2211
  317TIP3    H122510   6.622   1.612   6.868  0.9385  1.7819  0.8740
  317TIP3    H222511   6.643   1.475   6.928 -0.2149  0.6256 -1.2382
  318TIP3   OH222512   2.327   4.480   2.006 -0.0708 -0.3128  0.2463
  318TIP3    H122513   2.266   4.409   1.988 -1.2079  1.0413 -1.7431
  318TIP3    H222514   2.398   4.466   1.944  0.0228 -0.1089  0.3081
  319TIP3   OH222515   4.059   4.766   1.211 -0.3486 -0.1036  0.2079
  319TIP3    H122516   4.029   4.777   1.301 -0.5323 -0.3585  0.1785
  319TIP3    H222517   4.015   4.835   1.163 -1.8217 -1.1657 -0.0535
  320TIP3   OH222518   1.036   0.901   0.248 -0.0310  0.0753 -0.2852
  320TIP3    H122519   1.015   0.838   0.178  1.6292  0.3007 -1.0475
  320TIP3    H222520   1.019   0.986   0.209 -0.6252  0.1591  0.1512
  321TIP3   OH222521   2.814   4.172   0.429  0.1538  0.5375 -0.2002
  321TIP3    H122522   2.893   4.222   0.450  0.4387 -0.3302  0.9025
  321TIP3    H222523   2.840   4.080   0.438 -1.1060  0.2410  0.8070
  322TIP3   OH222524   4.897   4.883   8.108  0.9916  0.0361 -0.5602
  322TIP3    H122525   4.872   4.937   8.184  1.1189  1.4549 -1.4960
  322TIP3    H222526   4.901   4.794   8.143  0.0777  0.5161  0.8802
  323TIP3   OH222527   3.679   4.811   1.375 -0.1732 -0.0090  0.8794
  323TIP3    H122528   3.609   4.750   1.399 -0.7219 -0.9483 -2.5797
  323TIP3    H222529   3.638   4.897   1.380 -1.3047 -0.4673 -0.1070
  324TIP3   OH222530   1.497   5.352   8.369 -0.6371 -0.5042  0.1736
  324TIP3    H122531   1.549   5.316   8.297  0.7126  1.8441 -0.1230
  324TIP3    H222532   1.521   5.444   8.372 -3.0786  0.1729  1.5897
  325TIP3   OH222533   4.177   0.841   0.087  0.5790  0.0992  0.6649
  325TIP3    H122534   4.222   0.846   0.171  1.2124  1.6315  0.2561
  325TIP3    H222535   4.219   0.768   0.041  1.5683  0.5039  0.9092
  326TIP3   OH222536   3.498   4.334   7.114 -0.7006 -0.1171  0.3784
  326TIP3    H122537   3.520   4.396   7.044 -1.7870  0.8962  0.8988
  326TIP3    H222538   3.537   4.251   7.086  0.3976  0.6822 -0.5586
  327TIP3   OH222539   3.686   4.062   8.087 -0.0354  0.3309 -0.4276
  327TIP3    H122540   3.670   4.023   8.173 -0.5642 -1.2850 -1.2116
  327TIP3    H222541   3.766   4.114   8.098  1.2509 -1.7254  0.4706
  328TIP3   OH222542   3.704   0.881   8.633  0.1497 -0.3507  0.0328
  328TIP3    H122543   3.793   0.917   8.639  0.1291 -0.4164  1.0313
  328TIP3    H222544   3.688   0.844   8.720 -0.5157 -1.1568 -0.4254
  329TIP3   OH222545   6.224   4.316   8.282  0.2375 -0.0697 -0.4059
  329TIP3    H122546   6.252   4.360   8.363  0.7233 -1.3781  0.1564
  329TIP3    H222547   6.148   4.264   8.309  0.8560 -1.1041 -0.6003
  330TIP3   OH222548   1.129   3.661   0.869  0.5298  0.6729 -0.0459
  330TIP3    H122549   1.064   3.675   0.937  2.0459 -0.8315  1.8560
  330TIP3    H222550   1.118   3.734   0.808 -1.2144  1.8118  1.5535
  331TIP3   OH222551   2.476   4.438   1.776 -0.4237 -0.2259  0.5360
  331TIP3    H122552   2.441   4.375   1.714  0.9582 -0.5650  0.0663
  331TIP3    H222553   2.454   4.523   1.738  1.1127 -0.4201 -0.8776
  332TIP3   OH222554   2.159   4.717   1.025  0.4900  0.0595  0.0439
  332TIP3    H122555   2.117   4.636   0.995 -1.6206  0.9449  0.4522
  332TIP3    H222556   2.246   4.715   0.984  0.9221 -2.8766  0.8531
  333TIP3   OH222557   1.152   4.007   7.467  0.1674 -0.1943  0.6738
  333TIP3    H122558   1.238   3.980   7.498  0.1560 -1.1257 -0.0432
  333TIP3    H222559   1.144   3.966   7.380 -1.0375 -0.2107  0.7732
  334TIP3   OH222560   5.224   6.216   1.821 -0.5735  0.0563 -0.2099
  334TIP3    H122561   5.186   6.128   1.815  0.4558 -0.3094 -2.9295
  334TIP3    H222562   5.156   6.274   1.786 -0.5770  0.0980 -0.1331
  335TIP3   OH222563   6.250   4.028   8.541 -0.1631 -0.0226  0.3892
  335TIP3    H122564   6.306   4.090   8.588 -1.4095 -0.5137  2.6983
  335TIP3    H222565   6.182   4.082   8.503  1.2313  0.4601 -1.5354
  336TIP3   OH222566   2.255   6.183   0.601 -0.3174  0.7583  0.1380
  336TIP3    H122567   2.315   6.151   0.668 -0.1243  0.4600 -0.1704
  336TIP3    H222568   2.187   6.230   0.649 -1.9685 -2.1039  0.8738
  337TIP3   OH222569   2.166   4.656   8.709 -0.9113 -0.1520 -0.9077
  337TIP3    H122570   2.203   4.718   8.772 -0.9001  1.5274 -2.4595
  337TIP3    H222571   2.179   4.699   8.624 -1.6594 -1.9467 -1.9793
  338TIP3   OH222572   0.472   0.262   0.059 -0.5092 -0.3869  0.1067
  338TIP3    H122573   0.523   0.237  -0.018 -0.4538  1.9262 -0.6719
  338TIP3    H222574   0.534   0.308   0.116 -1.1976  0.4773  0.1840
  339TIP3   OH222575   0.936   2.652   8.403 -0.0051 -0.4577  0.1564
  339TIP3    H122576   0.892   2.568   8.414  0.4157 -0.7412 -0.3012
  339TIP3    H222577   0.979   2.646   8.318 -0.9598  0.6616 -0.4435
  340TIP3   OH222578   4.089   5.437   1.489  0.3168  0.3311 -0.1143
  340TIP3    H122579   4.114   5.397   1.405  1.4431 -1.7936  1.1506
  340TIP3    H222580   4.014   5.386   1.518 -0.9025  1.9071 -0.3883
  341TIP3   OH222581   3.093   1.124   8.240  0.9261 -0.4033  0.2663
  341TIP3    H122582   3.184   1.148   8.222  1.0606 -0.8735  0.3127
  341TIP3    H222583   3.093   1.028   8.242 -0.0213 -0.5024 -2.0613
  342TIP3   OH222584   2.875   3.468   7.754 -0.2293  0.3495  0.5870
  342TIP3    H122585   2.892   3.391   7.701 -0.3614 -0.0958  1.1867
  342TIP3    H222586   2.962   3.499   7.780 -0.0643  1.5891 -1.3025
  343TIP3   OH222587   0.643   6.140   0.776  0.7244 -0.2060  0.1774
  343TIP3    H122588   0.578   6.086   0.731  0.5822 -1.6549  2.0030
  343TIP3    H222589   0.591   6.202   0.827  0.8850  1.6043 -1.7177
  344TIP3   OH222590   4.239   3.263   8.342  0.3322 -0.1669  0.0021
  344TIP3    H122591   4.275   3.296   8.425  0.3702  0.6281 -0.3217
  344TIP3    H222592   4.315   3.228   8.296  0.2463 -0.9956  0.4732
  345TIP3   OH222593   5.829   3.671   0.340  0.8756 -0.6773  0.0464
  345TIP3    H122594   5.868   3.757   0.325 -0.4893 -0.1633 -0.7535
  345TIP3    H222595   5.877   3.635   0.415  0.2512  1.5220  1.5691
  346TIP3   OH222596   1.259   6.734   7.954 -0.0843 -0.1448 -0.2343
  346TIP3    H122597   1.211   6.721   7.873  1.8902  0.4952 -1.5756
  346TIP3    H222598   1.239   6.824   7.980  1.2812  0.5677 -1.4861
  347TIP3   OH222599   5.426   1.181   1.883 -0.2877  0.0695 -0.1635
  347TIP3    H122600   5.460   1.169   1.794  0.7694 -0.7779  0.3323
  347TIP3    H222601   5.332   1.196   1.871 -0.1046  0.3373 -1.4389
  348TIP3   OH222602   3.590   0.016   0.115 -0.0708  0.1078 -0.2351
  348TIP3    H122603   3.606   0.071   0.039  2.3643  1.9917  1.4599
  348TIP3    H222604   3.501   0.039   0.143  0.9957  3.7980  0.6896
  349TIP3   OH222605   2.260   0.893   0.988 -0.0478  0.3621  0.1630
  349TIP3    H122606   2.179   0.877   0.940  0.4614 -2.8129  0.1534
  349TIP3    H222607   2.322   0.922   0.922 -0.9832  2.3018  0.0808
  350TIP3   OH222608   5.215   2.671   2.215  1.0501 -0.1924  0.1024
  350TIP3    H122609   5.270   2.737   2.258  0.6380 -0.4324  1.0368
  350TIP3    H222610   5.152   2.645   2.283 -0.0746 -0.0857 -0.8556
  351TIP3   OH222611   0.451   1.354   0.391  0.6967  0.0538 -0.3153
  351TIP3    H122612   0.451   1.262   0.365  1.5465  0.3226 -1.3476
  351TIP3    H222613   0.537   1.367   0.433  0.1403  0.1204  0.8507
  352TIP3   OH222614   5.604   4.900   1.007 -0.2596  0.7417 -0.3727
  352TIP3    H122615   5.688   4.929   0.971  0.3126 -1.5177 -1.0087
  352TIP3    H222616   5.567   4.842   0.941 -0.6651 -1.0540  1.3134
  353TIP3   OH222617   1.155   0.493   7.220 -0.3445 -0.2187  0.2490
  353TIP3    H122618   1.109   0.447   7.150 -2.0167 -0.1113  1.2249
  353TIP3    H222619   1.186   0.574   7.180 -0.9049 -0.3565 -0.4665
  354TIP3   OH222620   4.931   3.667   1.774  0.3682  0.0793 -0.0425
  354TIP3    H122621   5.022   3.692   1.791  0.0112  1.4082  0.0363
  354TIP3    H222622   4.907   3.714   1.695 -1.0582  1.9442  1.4054
  355TIP3   OH222623   0.236   6.469   8.023  0.3251 -0.0103  0.3272
  355TIP3    H122624   0.323   6.506   8.009  1.6000 -2.7468  0.3299
  355TIP3    H222625   0.224   6.471   8.118  0.3210  0.4365  0.3214
  356TIP3   OH222626   1.007   6.560   1.825  0.5375  0.0736  0.1532
  356TIP3    H122627   0.993   6.533   1.734 -1.0574  0.1886  0.3504
  356TIP3    H222628   1.069   6.633   1.818  0.5792 -0.0362 -0.8255
  357TIP3   OH222629   6.120   5.922   7.819 -0.3734 -0.0523 -0.0641
  357TIP3    H122630   6.124   5.847   7.878 -0.4521 -0.5901 -0.7332
  357TIP3    H222631   6.139   5.886   7.733 -1.5793  0.4795 -0.5837
  358TIP3   OH222632   0.639   4.434   8.073  0.7694 -0.0806 -0.1364
  358TIP3    H122633   0.712   4.373   8.063 -1.0455 -2.3694 -0.4141
  358TIP3    H222634   0.579   4.410   8.003 -2.7909 -2.2680  3.2357
  359TIP3   OH222635   1.082   1.385   0.532 -0.1736  0.7172  0.5096
  359TIP3    H122636   1.051   1.402   0.443  1.8887 -0.6274 -0.5365
  359TIP3    H222637   1.011   1.418   0.589 -1.9607  0.7469 -1.6072
  360TIP3   OH222638   3.971   6.166   0.223 -0.2243 -0.5997 -0.2488
  360TIP3    H122639   3.911   6.096   0.249 -0.2454 -0.6959 -0.5558
  360TIP3    H222640   4.058   6.130   0.236 -0.1941 -0.0114  1.4665
  361TIP3   OH222641   4.592   1.783   7.050  0.7142  0.3264  0.1055
  361TIP3    H122642   4.527   1.828   7.104 -0.1273  0.3375 -0.8843
  361TIP3    H222643   4.675   1.796   7.097  0.0852  0.6853  1.1647
  362TIP3   OH222644   1.378   6.001   7.401  0.5102 -0.1390  0.0442
  362TIP3    H122645   1.285   5.981   7.407  0.2960  0.9014  0.5039
  362TIP3    H222646   1.414   5.934   7.343 -0.3903 -0.9794  0.4286
  363TIP3   OH222647   1.261   6.289   0.225 -0.4802 -0.5129  0.0195
  363TIP3    H122648   1.183   6.267   0.174 -0.1123 -0.4984 -0.5586
  363TIP3    H222649   1.280   6.380   0.202 -0.3291 -0.4977  0.2018
  364TIP3   OH222650   0.809   5.807   0.934 -0.6148 -0.2043  0.5033
  364TIP3    H122651   0.823   5.789   0.841  0.4337 -0.2047  0.6517
  364TIP3    H222652   0.795   5.901   0.938 -1.1072 -0.2655  0.2987
  365TIP3   OH222653   4.765   4.615   2.920 -0.3767  0.1145 -0.1998
  365TIP3    H122654   4.712   4.668   2.860 -0.2922  0.2509 -0.1550
  365TIP3    H222655   4.844   4.593   2.869 -0.4790 -0.0941 -0.2686
  366TIP3   OH222656   1.702   2.836   8.054 -0.1330 -0.1273  0.1553
  366TIP3    H122657   1.626   2.785   8.025  0.2987 -0.2674 -0.7822
  366TIP3    H222658   1.746   2.779   8.118  0.8007 -1.3426 -1.4778
  367TIP3   OH222659   0.767   2.754   0.867 -0.3203 -0.1071 -0.0589
  367TIP3    H122660   0.705   2.825   0.888 -0.4753 -0.5138  0.9261
  367TIP3    H222661   0.780   2.761   0.773 -2.2814 -0.3259 -0.4042
  368TIP3   OH222662   4.418   6.543   8.719 -0.1987 -0.1559 -0.3740
  368TIP3    H122663   4.412   6.537   8.624 -0.7367  2.7685 -0.6094
  368TIP3    H222664   4.332   6.517   8.751 -0.1680 -0.6746 -0.7045
  369TIP3   OH222665   5.576   1.351   0.954  0.1338  0.1418  0.1434
  369TIP3    H122666   5.483   1.329   0.968  0.9387 -2.8289  1.5862
  369TIP3    H222667   5.592   1.329   0.862 -0.3171 -0.5273  0.2171
  370TIP3   OH222668   6.631   1.301   8.658 -0.5742 -0.0682 -0.1269
  370TIP3    H122669   6.581   1.274   8.582 -1.5400 -0.2729  0.5678
  370TIP3    H222670   6.693   1.230   8.673 -2.0171 -1.2154  0.7231
  371TIP3   OH222671   3.430   0.928   2.273 -0.1781 -0.8414  0.1663
  371TIP3    H122672   3.393   0.889   2.194 -0.2491 -1.4406  0.4886
  371TIP3    H222673   3.516   0.960   2.246 -0.7591  0.2370 -0.5008
  372TIP3   OH222674   3.432   6.447   6.870 -0.1498 -0.2784  0.2809
  372TIP3    H122675   3.431   6.353   6.850  0.4956  0.0628 -1.4537
  372TIP3    H222676   3.495   6.455   6.942 -0.8874 -1.2715  1.0609
  373TIP3   OH222677   6.645   2.382   1.093 -0.4841  0.2361 -0.1197
  373TIP3    H122678   6.617   2.441   1.023  0.6699  0.8136 -0.1132
  373TIP3    H222679   6.741   2.382   1.089 -0.3889  0.2587  1.4341
  374TIP3   OH222680   4.243   5.448   8.060  0.5042 -0.5292  0.2120
  374TIP3    H122681   4.267   5.494   7.980  1.6350  0.3298  1.0088
  374TIP3    H222682   4.318   5.461   8.118 -1.2467  0.9381  2.2852
  375TIP3   OH222683   5.691   5.688   0.068  0.1156  0.4299 -0.7478
  375TIP3    H122684   5.601   5.658   0.055  0.2772 -1.4597  1.7185
  375TIP3    H222685   5.688   5.741   0.147  0.9631  1.5611 -1.4461
  376TIP3   OH222686   5.409   3.705   0.544 -0.1665  0.0795 -0.2865
  376TIP3    H122687   5.486   3.685   0.596 -0.4099  0.9342  0.4267
  376TIP3    H222688   5.436   3.778   0.488 -0.1372 -0.3293 -0.8094
  377TIP3   OH222689   6.113   3.379   1.767 -0.1926 -0.3438 -0.3537
  377TIP3    H122690   6.163   3.302   1.793  0.1925  0.0643  0.1299
  377TIP3    H222691   6.111   3.434   1.845  1.8762  1.4078 -1.4241
  378TIP3   OH222692   5.056   4.920   7.245  0.1437 -0.1936  0.6037
  378TIP3    H122693   5.094   4.936   7.331  1.1083  1.0283 -0.0263
  378TIP3    H222694   5.040   5.007   7.209 -0.3050 -0.6930 -0.4282
  379TIP3   OH222695   5.893   3.846   7.729 -0.1617  0.0512 -0.9291
  379TIP3    H122696   5.913   3.753   7.732  0.8378  0.2212 -1.5228
  379TIP3    H222697   5.861   3.861   7.640  0.3903  0.3921 -1.0787
  380TIP3   OH222698   3.931   3.227   8.554  0.5556  0.0117  0.0059
  380TIP3    H122699   3.986   3.259   8.625  1.6873 -0.1776 -0.7609
  380TIP3    H222700   3.931   3.132   8.564 -0.0686  0.0358  0.3036
  381TIP3   OH222701   5.319   4.309   0.046 -0.0046  0.1600  0.3064
  381TIP3    H122702   5.225   4.325   0.041 -0.1986 -0.6083  1.3055
  381TIP3    H222703   5.352   4.330  -0.042 -1.0420  0.7954  0.0588
  382TIP3   OH222704   3.821   4.598   0.747  0.6718 -0.4458 -0.5692
  382TIP3    H122705   3.838   4.691   0.730  2.0753  0.1466  3.0960
  382TIP3    H222706   3.757   4.598   0.818  1.9392 -2.1264  0.6841
  383TIP3   OH222707   1.666   3.786   0.711  0.6614 -0.7324 -0.1153
  383TIP3    H122708   1.617   3.705   0.700  2.5906 -1.8638 -0.7940
  383TIP3    H222709   1.662   3.828   0.625 -0.2836 -0.0877  0.2189
  384TIP3   OH222710   1.400   6.717   8.345  0.0225  0.4817  0.3547
  384TIP3    H122711   1.496   6.718   8.340 -0.0209  0.7413 -2.0699
  384TIP3    H222712   1.376   6.809   8.357  0.1035  0.8166 -1.5769
  385TIP3   OH222713   2.686   0.109   0.533 -0.1898  0.5056 -0.4612
  385TIP3    H122714   2.620   0.175   0.511  0.2274  0.3059 -2.5268
  385TIP3    H222715   2.666   0.035   0.476 -0.9005 -1.4003  2.0939
  386TIP3   OH222716   1.107   5.429   1.220 -0.5774 -0.1409  0.4958
  386TIP3    H122717   1.043   5.413   1.289  0.0533  0.3385  1.2132
  386TIP3    H222718   1.069   5.500   1.167 -0.7855 -0.0876  0.7156
  387TIP3   OH222719   4.026   2.882   0.677 -0.4316 -0.5823  0.0970
  387TIP3    H122720   3.986   2.952   0.729 -0.4581  0.9663 -1.8865
  387TIP3    H222721   4.017   2.912   0.586  3.6082 -0.9547 -0.5869
  388TIP3   OH222722   3.751   5.823   8.296 -0.0299  0.0791 -0.1418
  388TIP3    H122723   3.688   5.762   8.259  0.9404  0.4828 -2.6577
  388TIP3    H222724   3.732   5.823   8.390 -1.0235 -2.9077 -0.2457
  389TIP3   OH222725   0.553   5.133   1.715 -0.4050 -0.4937  0.4212
  389TIP3    H122726   0.509   5.050   1.695 -0.9212 -0.5090  1.5366
  389TIP3    H222727   0.546   5.184   1.634  0.8266 -1.9073 -0.6251
  390TIP3   OH222728   2.769   5.278   0.929  0.4803 -0.0905 -0.5765
  390TIP3    H122729   2.702   5.285   0.862  0.2781  0.5177 -0.3173
  390TIP3    H222730   2.823   5.357   0.918 -0.0741  0.4674  0.5233
  391TIP3   OH222731   3.098   5.773   7.709 -0.2479 -0.5606  0.1017
  391TIP3    H122732   3.024   5.781   7.769  0.0260  0.7891  0.2912
  391TIP3    H222733   3.089   5.685   7.672 -3.6758  0.4696 -2.1101
  392TIP3   OH222734   0.421   3.800   7.893 -0.6153  0.5601  0.0217
  392TIP3    H122735   0.335   3.774   7.860 -0.8117 -0.3230  1.1531
  392TIP3    H222736   0.483   3.772   7.826 -1.0876 -0.1703 -0.1182
  393TIP3   OH222737   4.002   3.109   8.265 -0.0607 -0.5757  1.0201
  393TIP3    H122738   3.943   3.145   8.199 -0.7823 -1.2534  1.2780
  393TIP3    H222739   4.076   3.169   8.266  0.6690 -1.3064 -1.4408
  394TIP3   OH222740   3.420   1.154   7.917  0.2459 -0.1206  0.0182
  394TIP3    H122741   3.388   1.217   7.852 -0.2988  1.1473  1.4429
  394TIP3    H222742   3.492   1.108   7.874 -0.5746  0.1575 -1.7141
  395TIP3   OH222743   1.250   3.932   0.222 -0.6094 -0.9831  0.4548
  395TIP3    H122744   1.324   3.980   0.260 -0.6136  0.6457 -1.4387
  395TIP3    H222745   1.176   3.992   0.230 -0.9234 -1.1859 -0.7616
  396TIP3   OH222746   5.453   6.019   8.083 -0.2386 -0.2842 -0.6243
  396TIP3    H122747   5.455   5.955   8.154 -1.0573 -0.5926 -0.8659
  396TIP3    H222748   5.544   6.046   8.072  0.1922 -1.7110 -0.7715
  397TIP3   OH222749   6.326   1.430   0.397 -0.2645  0.3359 -0.2172
  397TIP3    H122750   6.262   1.360   0.385  0.3975 -0.2930 -0.1264
  397TIP3    H222751   6.410   1.385   0.402  0.0119  0.9940  1.5536
  398TIP3   OH222752   1.099   2.389   0.539 -0.3497  0.4470  0.5195
  398TIP3    H122753   1.025   2.431   0.494  1.1452  0.7470 -1.8385
  398TIP3    H222754   1.117   2.311   0.486 -0.4459 -0.9380  2.4450
  399TIP3   OH222755   2.931   0.281   0.441 -0.0250 -0.5598 -0.3282
  399TIP3    H122756   2.852   0.273   0.388  1.7068 -0.1006 -3.2063
  399TIP3    H222757   2.962   0.191   0.452  0.3667 -0.5741 -1.4252
  400TIP3   OH222758   0.951   4.730   1.334  0.7148 -0.2466  0.2283
  400TIP3    H122759   1.040   4.764   1.326  0.8638 -0.3116  1.5004
  400TIP3    H222760   0.898   4.807   1.356  0.3059 -0.0626 -1.2793
  401TIP3   OH222761   2.234   6.287   1.796  0.0033 -0.1831 -0.1573
  401TIP3    H122762   2.276   6.252   1.718 -1.7791 -1.9389 -0.4123
  401TIP3    H222763   2.250   6.382   1.792  1.1848 -0.4081 -1.8462
  402TIP3   OH222764   3.682   1.660   2.799 -0.0157 -0.0279 -0.0364
  402TIP3    H122765   3.600   1.706   2.783 -0.3415 -0.7882 -0.6023
  402TIP3    H222766   3.656   1.570   2.817  0.5704  0.0758  1.5157
  403TIP3   OH222767   5.236   5.948   7.601 -0.2489 -0.0842 -0.2456
  403TIP3    H122768   5.279   5.999   7.532  0.5458 -0.9341 -0.4008
  403TIP3    H222769   5.267   5.987   7.683  1.4596 -1.1510 -0.3397
  404TIP3   OH222770   1.093   0.323   0.420  0.5626  1.0789 -0.3095
  404TIP3    H122771   1.046   0.378   0.357 -0.6249 -0.0989 -0.4935
  404TIP3    H222772   1.102   0.238   0.377 -1.5964 -0.2403  1.5662
  405TIP3   OH222773   1.267   6.108   1.056 -0.3116  0.0904 -0.1230
  405TIP3    H122774   1.196   6.132   1.117  0.3392  0.4967  0.4873
  405TIP3    H222775   1.233   6.031   1.010 -1.1084  0.2074  0.2383
  406TIP3   OH222776   5.291   5.097   0.088 -0.3276 -0.3212 -0.8222
  406TIP3    H122777   5.298   5.192   0.082  0.0422 -0.0585  2.1066
  406TIP3    H222778   5.205   5.082   0.128  0.1280 -1.1033 -0.0839
  407TIP3   OH222779   4.657   2.738   2.478  0.4795  0.6819 -0.4671
  407TIP3    H122780   4.680   2.700   2.563 -0.5493 -0.4812 -0.6797
  407TIP3    H222781   4.739   2.774   2.445  1.8141 -2.2808 -0.6922
  408TIP3   OH222782   4.285   5.753   0.537 -0.1466  0.1955  0.0175
  408TIP3    H122783   4.286   5.837   0.491 -0.7444 -1.5552 -3.5818
  408TIP3    H222784   4.377   5.728   0.541  0.0662  1.1102  1.3992
  409TIP3   OH222785   0.266   0.468   0.400 -0.5554 -0.0541 -0.4706
  409TIP3    H122786   0.293   0.489   0.489  2.7499 -1.2748 -1.0349
  409TIP3    H222787   0.170   0.464   0.404 -0.4989 -1.1866  3.2823
  410TIP3   OH222788   6.387   2.715   0.153 -0.4972 -0.4954 -0.1941
  410TIP3    H122789   6.379   2.761   0.236  1.4082  1.1777 -0.8435
  410TIP3    H222790   6.312   2.743   0.102  0.8872  2.5429 -0.7831
  411TIP3   OH222791   5.662   0.716   1.450  0.1033  0.3892  0.4179
  411TIP3    H122792   5.639   0.645   1.509  3.5095 -1.3800 -0.1274
  411TIP3    H222793   5.650   0.795   1.502  0.2210 -0.9009  2.5109
  412TIP3   OH222794   3.694   1.550   7.302 -0.0064 -0.0765 -0.7131
  412TIP3    H122795   3.721   1.581   7.215 -1.0631 -0.7504 -1.3123
  412TIP3    H222796   3.635   1.618   7.334  2.2122  1.3586  0.5628
  413TIP3   OH222797   5.708   2.618   7.791 -0.1474  0.0847  0.0761
  413TIP3    H122798   5.638   2.645   7.731 -1.4702  0.0609  1.5291
  413TIP3    H222799   5.705   2.682   7.862  1.0892 -0.1215  0.3345
  414TIP3   OH222800   0.800   2.382   0.830 -0.2220  0.1957  0.2374
  414TIP3    H122801   0.858   2.458   0.832  0.9028 -0.6654  1.6072
  414TIP3    H222802   0.754   2.384   0.914 -0.9839 -0.0482 -0.1616
  415TIP3   OH222803   6.446   5.320   7.318 -0.7921 -0.3813  0.0172
  415TIP3    H122804   6.479   5.241   7.362  0.8961 -0.2888 -0.9770
  415TIP3    H222805   6.524   5.373   7.304 -1.5291  0.3633 -1.5117
  416TIP3   OH222806   1.852   6.411   0.684 -0.0730  0.3606  0.0770
  416TIP3    H122807   1.923   6.348   0.698  1.1096  1.8302  0.9602
  416TIP3    H222808   1.896   6.492   0.659 -1.5536  0.8995 -0.9445
  417TIP3   OH222809   3.426   5.647   1.241 -0.6777  0.1365 -0.1149
  417TIP3    H122810   3.422   5.741   1.258 -1.7329  0.4989 -2.0838
  417TIP3    H222811   3.441   5.640   1.147  0.5312 -1.6973  0.1637
  418TIP3   OH222812   0.557   4.720   0.328  0.5179  0.3662 -1.3337
  418TIP3    H122813   0.615   4.661   0.376 -1.7965 -1.6842 -0.8927
  418TIP3    H222814   0.595   4.724   0.240  1.8784 -0.0324 -0.8027
  419TIP3   OH222815   2.438   4.636   0.298 -0.1669  0.2576  0.4777
  419TIP3    H122816   2.520   4.653   0.252 -1.0567  1.2832 -0.7767
  419TIP3    H222817   2.434   4.705   0.365  0.6974 -0.7114  1.5863
  420TIP3   OH222818   5.503   4.241   8.609 -0.2638 -0.6824 -0.4044
  420TIP3    H122819   5.467   4.225   8.521 -0.8003  0.7830 -0.4623
  420TIP3    H222820   5.586   4.193   8.608 -0.9648 -1.9620 -1.1668
  421TIP3   OH222821   6.310   4.193   0.786  0.1019 -0.2097 -0.4867
  421TIP3    H122822   6.352   4.268   0.828 -0.7188 -0.0525  0.0807
  421TIP3    H222823   6.217   4.206   0.802 -0.0466 -1.4225 -0.2619
  422TIP3   OH222824   4.517   4.881   2.178  0.5780 -0.0832 -0.0983
  422TIP3    H122825   4.577   4.953   2.199 -0.2200  0.3662  0.7353
  422TIP3    H222826   4.468   4.912   2.101  1.0309 -0.2270 -0.4494
  423TIP3   OH222827   0.508   2.264   8.411  0.0788 -0.2950  0.5119
  423TIP3    H122828   0.490   2.193   8.350  2.2483  1.2177 -2.1188
  423TIP3    H222829   0.426   2.312   8.417 -0.6207 -1.3901  0.0830
  424TIP3   OH222830   6.482   5.074   8.016 -0.1052  0.1040  0.4831
  424TIP3    H122831   6.510   5.140   8.080 -1.8219  1.5877 -0.2342
  424TIP3    H222832   6.498   4.991   8.061  1.4943  0.9801  1.6783
  425TIP3   OH222833   5.829   5.053   1.433 -0.5862  0.4041 -0.0963
  425TIP3    H122834   5.791   4.971   1.402 -0.6715  1.1643 -2.1397
  425TIP3    H222835   5.873   5.029   1.515 -2.7714 -1.1168  0.7179
  426TIP3   OH222836   4.231   0.453   1.652  0.3710  0.0501  0.5235
  426TIP3    H122837   4.166   0.457   1.583 -0.3136  1.3883  1.1974
  426TIP3    H222838   4.185   0.418   1.728 -0.3676  3.2642  1.7312
  427TIP3   OH222839   2.553   5.086   2.561  0.2748  0.2392 -0.2530
  427TIP3    H122840   2.627   5.042   2.604 -0.6960 -1.2935 -0.0437
  427TIP3    H222841   2.523   5.150   2.625  0.4571 -0.2332  0.3204
  428TIP3   OH222842   0.834   3.432   7.612  0.3739 -0.6197  0.0415
  428TIP3    H122843   0.843   3.444   7.517  0.8654  1.3995  0.2908
  428TIP3    H222844   0.740   3.423   7.626  0.2184 -0.0397 -0.5592
  429TIP3   OH222845   4.100   6.713   2.781 -0.3382  0.1384 -0.0632
  429TIP3    H122846   4.188   6.726   2.815 -0.0521 -0.2602 -0.6309
  429TIP3    H222847   4.043   6.760   2.842  0.2792  0.5232  0.2233
  430TIP3   OH222848   2.913   5.350   7.928 -0.1636  0.3598 -0.7592
  430TIP3    H122849   2.843   5.285   7.923 -0.4367  0.5000  0.6105
  430TIP3    H222850   2.962   5.340   7.847 -1.4709 -0.0871 -1.5264
  431TIP3   OH222851   4.951   0.517   7.358  0.2093  0.5405 -0.1905
  431TIP3    H122852   4.885   0.554   7.299 -0.4478 -2.5987 -1.5995
  431TIP3    H222853   4.955   0.580   7.431 -1.6968  2.6510 -1.7500
  432TIP3   OH222854   0.252   3.700   2.140 -0.0171 -0.9856  0.1235
  432TIP3    H122855   0.267   3.737   2.227  0.7247  1.3720 -0.9299
  432TIP3    H222856   0.158   3.681   2.139  0.1328 -2.0494  1.7559
  433TIP3   OH222857   5.033   3.629   2.519 -0.2614  0.3758  0.0335
  433TIP3    H122858   5.085   3.668   2.449 -2.0051  1.2935 -0.8319
  433TIP3    H222859   4.956   3.686   2.526 -1.5235 -1.3188  0.7232
  434TIP3   OH222860   2.048   0.152   0.053 -0.0378 -0.3951 -0.3429
  434TIP3    H122861   2.107   0.140  -0.022 -0.3342  0.3538 -0.7075
  434TIP3    H222862   1.963   0.169   0.013 -0.2096 -0.0529  0.1684
  435TIP3   OH222863   5.965   0.034   1.378  0.3556  0.6719 -0.0060
  435TIP3    H122864   5.962  -0.000   1.467  1.8870  2.4428  0.7927
  435TIP3    H222865   5.926   0.121   1.384  0.1447  0.6766 -1.1470
  436TIP3   OH222866   2.760   0.348   0.674  0.3259  0.1050  0.7472
  436TIP3    H122867   2.771   0.264   0.630 -0.8374 -0.5488  1.6557
  436TIP3    H222868   2.679   0.338   0.724  1.0347  1.1985  2.1565
  437TIP3   OH222869   4.923   0.764   2.414  0.3584  0.3715  0.0833
  437TIP3    H122870   4.828   0.753   2.408  0.3186  0.3498  0.7009
  437TIP3    H222871   4.958   0.695   2.357  0.0057  0.4357 -0.2201
  438TIP3   OH222872   2.307   1.803   7.300  0.1893  0.6464  0.7482
  438TIP3    H122873   2.219   1.774   7.278  0.7031  0.2272 -0.9401
  438TIP3    H222874   2.363   1.763   7.233  1.7149  0.6030  1.9767
  439TIP3   OH222875   4.216   6.373   8.554 -0.2106 -0.4540  0.1088
  439TIP3    H122876   4.171   6.328   8.625 -0.3914 -1.5715 -0.6826
  439TIP3    H222877   4.152   6.379   8.484  0.2016 -0.0915 -0.2472
  440TIP3   OH222878   5.821   0.676   8.470  0.2607  0.0659  0.3490
  440TIP3    H122879   5.846   0.584   8.478 -0.1338 -0.0552  0.2084
  440TIP3    H222880   5.890   0.724   8.516 -0.5493 -0.4277  2.1385
  441TIP3   OH222881   4.563   4.511   8.540 -0.1473  0.1649 -0.1170
  441TIP3    H122882   4.506   4.581   8.572 -1.1653  0.2457 -1.9908
  441TIP3    H222883   4.636   4.510   8.602 -0.3757  2.5222  0.2977
  442TIP3   OH222884   5.143   5.963   1.942  0.0924 -0.6858  0.7110
  442TIP3    H122885   5.154   5.871   1.916 -0.2242  0.0733 -2.4567
  442TIP3    H222886   5.050   5.970   1.965 -0.3717 -0.7871 -0.9863
  443TIP3   OH222887   2.531   6.440   2.050  0.1205  0.0966  0.1038
  443TIP3    H122888   2.465   6.371   2.049  0.3115 -0.0959  0.4891
  443TIP3    H222889   2.584   6.421   2.127  0.9711 -0.0733 -0.5126
  444TIP3   OH222890   3.933   4.055   0.664 -0.6125  0.0613  0.0881
  444TIP3    H122891   3.929   4.145   0.694 -0.6979 -0.2635  1.0823
  444TIP3    H222892   4.009   4.018   0.709 -1.0986 -0.5994  0.3823
  445TIP3   OH222893   1.615   5.883   7.018  0.0399 -0.0860 -0.0121
  445TIP3    H122894   1.617   5.875   6.922  0.4369 -0.5778  0.0375
  445TIP3    H222895   1.639   5.974   7.035 -1.4789  0.4307 -0.4438
  446TIP3   OH222896   2.876   0.541   0.511 -0.0305 -0.3642 -0.2197
  446TIP3    H122897   2.909   0.456   0.483  0.2907 -0.1530 -0.5010
  446TIP3    H222898   2.858   0.531   0.604  0.4496 -0.6064 -0.1516
  447TIP3   OH222899   1.253   4.428   1.700  0.7005 -0.5330  0.0879
  447TIP3    H122900   1.191   4.479   1.752  3.0320  0.4599  2.1294
  447TIP3    H222901   1.286   4.490   1.635  0.8654 -0.5037  0.1977
  448TIP3   OH222902   4.067   0.480   2.849 -0.4346 -0.3206 -0.3299
  448TIP3    H122903   4.103   0.543   2.912  3.1486 -3.8343  1.5630
  448TIP3    H222904   4.028   0.412   2.903  0.3387 -2.1617 -1.9717
  449TIP3   OH222905   1.395   0.416   8.106 -0.1482  0.4164 -0.3211
  449TIP3    H122906   1.435   0.423   8.192  2.3945  0.8966 -1.4455
  449TIP3    H222907   1.410   0.325   8.080 -1.3225  0.1461 -0.1031
  450TIP3   OH222908   6.243   1.391   0.725  0.4946 -0.0916 -0.0256
  450TIP3    H122909   6.208   1.311   0.685  1.0499 -0.4935  0.2743
  450TIP3    H222910   6.208   1.462   0.671  1.5791 -0.6363 -1.5111
  451TIP3   OH222911   1.541   4.557   8.632 -0.4246 -0.0411 -0.1467
  451TIP3    H122912   1.563   4.649   8.617 -1.2291  0.0782 -0.6698
  451TIP3    H222913   1.602   4.509   8.575  0.1256  0.1525  0.2727
  452TIP3   OH222914   1.223   4.305   1.183 -0.4744  0.3061 -0.7643
  452TIP3    H122915   1.262   4.256   1.256 -2.4449 -2.3302 -1.3068
  452TIP3    H222916   1.294   4.311   1.118  0.5316  0.3446  0.3050
  453TIP3   OH222917   2.820   2.247   1.761  0.2864  0.6006  0.6885
  453TIP3    H122918   2.910   2.251   1.730 -0.4370 -1.1352 -1.9605
  453TIP3    H222919   2.800   2.336   1.789  1.4325  2.1711 -2.9445
  454TIP3   OH222920   0.911   6.311   8.027 -0.3378  0.1757  0.4424
  454TIP3    H122921   0.977   6.260   7.982 -0.9499 -0.1565 -0.1031
  454TIP3    H222922   0.908   6.394   7.980 -2.7075 -1.0386 -1.8274
  455TIP3   OH222923   2.530   6.328   0.407  0.3720 -0.0907  0.2873
  455TIP3    H122924   2.589   6.361   0.475  0.0182  1.7524 -0.2447
  455TIP3    H222925   2.470   6.269   0.453  0.6336  0.5145  1.4362
  456TIP3   OH222926   1.620   5.443   0.152 -0.2086  0.0344  0.3182
  456TIP3    H122927   1.653   5.425   0.065 -0.9912 -1.1537  0.2405
  456TIP3    H222928   1.543   5.386   0.161 -0.5927  0.6922  1.4924
  457TIP3   OH222929   0.451   2.520   0.903  0.3720 -0.2342 -0.0566
  457TIP3    H122930   0.508   2.518   0.826 -1.4909  0.6973 -1.5389
  457TIP3    H222931   0.368   2.556   0.871 -0.5466 -0.0028  2.3525
  458TIP3   OH222932   2.231   1.946   8.035  0.6072  0.4457 -0.1967
  458TIP3    H122933   2.141   1.931   8.061 -0.2457  1.3062 -2.4020
  458TIP3    H222934   2.265   2.009   8.099 -0.6183  0.6986  0.2161
  459TIP3   OH222935   1.541   4.162   1.136 -0.4571 -0.1812  0.0463
  459TIP3    H122936   1.580   4.217   1.068  0.6304 -0.2262  0.6163
  459TIP3    H222937   1.472   4.113   1.091 -0.0350  0.0944 -0.9219
  460TIP3   OH222938   0.530   0.358   7.130  0.0915 -0.3620 -0.5990
  460TIP3    H122939   0.619   0.383   7.153  0.5993 -0.7733 -2.0593
  460TIP3    H222940   0.510   0.287   7.191  0.5117  0.1525  0.1586
  461TIP3   OH222941   4.450   5.572   1.288 -0.7800  0.4930 -0.5244
  461TIP3    H122942   4.412   5.620   1.361 -2.4787 -1.2019 -0.2043
  461TIP3    H222943   4.424   5.622   1.211 -1.5949  0.6893 -0.1364
  462TIP3   OH222944   5.498   0.731   1.193 -0.0253  0.0721  0.3662
  462TIP3    H122945   5.411   0.706   1.161 -0.3485  1.0802  0.4118
  462TIP3    H222946   5.547   0.649   1.194 -0.8998 -0.4793  0.1106
  463TIP3   OH222947   0.884   4.239   7.969 -0.4292  0.6702 -0.3534
  463TIP3    H122948   0.924   4.154   7.952 -0.0180  0.6743  0.5723
  463TIP3    H222949   0.957   4.301   7.965 -0.4780  0.7893  0.4522
  464TIP3   OH222950   5.727   3.751   7.132 -0.1073  0.2334  0.6594
  464TIP3    H122951   5.784   3.809   7.183  1.4375 -0.9359  0.3475
  464TIP3    H222952   5.735   3.781   7.042 -0.6831  0.5995  0.7250
  465TIP3   OH222953   1.015   2.051   0.590  0.9432 -0.2376  0.2733
  465TIP3    H122954   1.075   2.047   0.664  0.1668 -1.1050  0.8852
  465TIP3    H222955   0.937   2.094   0.625  0.7763 -0.1556 -0.1935
  466TIP3   OH222956   4.031   0.560   8.079 -0.1149  0.8827  0.5342
  466TIP3    H122957   4.074   0.644   8.065  1.5320  0.1231  0.6698
  466TIP3    H222958   4.015   0.526   7.991  0.8637  0.5783  0.4599
  467TIP3   OH222959   3.080   0.365   0.670  0.6520  0.1568 -0.3875
  467TIP3    H122960   3.004   0.343   0.617 -0.9444  0.6498  1.5805
  467TIP3    H222961   3.096   0.286   0.722 -0.2151  0.9048  1.0833
  468TIP3   OH222962   2.163   5.749   2.595 -0.0366 -0.4145 -0.2776
  468TIP3    H122963   2.229   5.815   2.615 -0.1091 -0.2921 -0.4378
  468TIP3    H222964   2.105   5.749   2.671 -0.0399 -0.2890 -0.2804
  469TIP3   OH222965   1.155   1.532   6.402 -0.4609 -0.3549 -0.2423
  469TIP3    H122966   1.114   1.606   6.446 -1.7780 -0.1002 -1.8007
  469TIP3    H222967   1.203   1.486   6.471 -1.4437  0.6874  1.1794
  470TIP3   OH222968   5.064   4.093   1.539  0.0216  0.0091  0.3396
  470TIP3    H122969   5.008   4.154   1.588  0.4805  0.7421 -0.0287
  470TIP3    H222970   5.035   4.102   1.449  1.0993  0.8287  0.0543
  471TIP3   OH222971   6.402   4.721   1.621  0.8328 -0.1888 -0.2424
  471TIP3    H122972   6.410   4.664   1.544  2.5439 -0.0042 -0.2519
  471TIP3    H222973   6.465   4.791   1.605  0.4230  0.4443  0.8428
  472TIP3   OH222974   1.288   2.805   1.701 -0.1816  0.1095 -0.1631
  472TIP3    H122975   1.308   2.894   1.670  0.1088  0.1584  0.1557
  472TIP3    H222976   1.256   2.817   1.791  1.9900 -0.2705  0.7189
  473TIP3   OH222977   4.163   4.122   1.936  0.1666 -0.2955 -0.1857
  473TIP3    H122978   4.123   4.165   2.012  0.5430 -0.2023 -0.0394
  473TIP3    H222979   4.103   4.049   1.917  0.7285 -1.1094  1.0098
  474TIP3   OH222980   2.390   1.876   0.907 -0.3809  0.1574  0.6056
  474TIP3    H122981   2.432   1.888   0.993  0.3216  4.8823 -0.1344
  474TIP3    H222982   2.460   1.843   0.851  0.8019  2.2620  0.7358
  475TIP3   OH222983   0.944   4.706   7.852 -0.6388  0.0972 -0.5866
  475TIP3    H122984   1.010   4.767   7.887  0.0681 -1.2608  0.5405
  475TIP3    H222985   0.873   4.707   7.916 -0.4124 -0.5907 -0.3108
  476TIP3   OH222986   2.745   0.695   7.393 -0.2529 -0.3163 -0.0961
  476TIP3    H122987   2.810   0.698   7.463 -0.7721 -0.3244  0.3888
  476TIP3    H222988   2.794   0.721   7.314  0.4232 -0.6829  0.1896
  477TIP3   OH222989   3.342   0.430   2.046  0.3722  0.0049 -0.2829
  477TIP3    H122990   3.385   0.354   2.007  0.0919 -0.6452  0.6666
  477TIP3    H222991   3.411   0.475   2.094  0.5476  0.3900 -0.8796
  478TIP3   OH222992   5.810   1.509   7.550  0.0246 -0.6201 -0.4492
  478TIP3    H122993   5.728   1.556   7.541  1.5249  2.0910 -1.1612
  478TIP3    H222994   5.815   1.485   7.642 -0.3520  1.7004  0.2445
  479TIP3   OH222995   4.342   5.426   7.194  0.9991  0.7406  0.0321
  479TIP3    H122996   4.317   5.519   7.200 -2.4895 -0.0256 -0.4124
  479TIP3    H222997   4.373   5.416   7.104  0.4880  1.3070 -0.2147
  480TIP3   OH222998   1.630   5.236   8.167  0.8831 -0.3844  0.3033
  480TIP3    H122999   1.567   5.167   8.188  0.0141  0.1010 -0.5764
  480TIP3    H223000   1.637   5.233   8.072 -0.4061  1.7310  0.0685
  481TIP3   OH223001   0.645   0.619   8.476 -0.0557 -0.1097 -0.2980
  481TIP3    H123002   0.736   0.593   8.485 -0.5246 -1.4881  0.8806
  481TIP3    H223003   0.602   0.543   8.437 -0.9183  0.0404  0.3290
  482TIP3   OH223004   2.415   2.023   2.338 -0.2257 -0.6000 -0.0551
  482TIP3    H123005   2.437   2.015   2.431 -0.9238  1.5200  0.3398
  482TIP3    H223006   2.326   2.057   2.337  0.0413  0.1420 -1.4795
  483TIP3   OH223007   1.690   5.110   0.298 -0.0155  0.2798 -0.4597
  483TIP3    H123008   1.672   5.150   0.383  1.5385 -0.7947  0.4110
  483TIP3    H223009   1.704   5.184   0.239 -0.6493  1.0300  0.2974
  484TIP3   OH223010   0.552   4.028   1.966 -0.0561 -0.4064 -0.3419
  484TIP3    H123011   0.571   4.013   1.873  0.8831 -0.0147 -0.2293
  484TIP3    H223012   0.613   3.970   2.012 -0.9206 -1.0312  0.0325
  485TIP3   OH223013   5.581   2.866   7.427 -0.5547 -0.0945 -0.4330
  485TIP3    H123014   5.676   2.866   7.438 -0.6832  0.3015  0.7070
  485TIP3    H223015   5.560   2.954   7.396 -0.3991 -0.6626 -2.3158
  486TIP3   OH223016   2.132   6.149   7.782  0.2656  0.4490  0.0770
  486TIP3    H123017   2.048   6.121   7.819 -0.1332  0.5484 -0.7376
  486TIP3    H223018   2.148   6.089   7.709  1.0827  0.2061  0.4396
  487TIP3   OH223019   3.090   2.322   1.246  0.1487 -0.4885 -0.0803
  487TIP3    H123020   3.067   2.414   1.260 -1.9828 -0.5085 -2.7117
  487TIP3    H223021   3.022   2.289   1.188  2.7700 -2.8004 -2.1250
  488TIP3   OH223022   5.216   0.533   3.407  0.0241 -0.0464 -0.2520
  488TIP3    H123023   5.180   0.577   3.330 -0.5393 -0.0460  0.0005
  488TIP3    H223024   5.264   0.458   3.372 -1.0598 -0.6274 -0.5689
  489TIP3   OH223025   4.150   1.877   0.627 -0.4256  0.1859 -0.0528
  489TIP3    H123026   4.138   1.782   0.638 -2.4611  0.4126  0.2131
  489TIP3    H223027   4.084   1.915   0.686 -0.3995  1.7449 -0.9901
  490TIP3   OH223028   2.257   2.658   8.704 -0.5716  0.1428 -0.4865
  490TIP3    H123029   2.279   2.709   8.626 -0.0723 -0.8805 -1.0333
  490TIP3    H223030   2.162   2.647   8.701 -0.6670  0.8745 -0.4470
  491TIP3   OH223031   5.123   3.069   8.126 -0.3384  0.1555  0.0199
  491TIP3    H123032   5.140   2.985   8.084 -3.9066  0.9792 -3.6964
  491TIP3    H223033   5.204   3.119   8.113  0.4244 -1.3739 -1.4826
  492TIP3   OH223034   5.916   2.613   7.552  0.3160  0.5956 -0.0069
  492TIP3    H123035   5.877   2.697   7.528 -0.1611  0.3838  0.0153
  492TIP3    H223036   5.845   2.564   7.593  0.9597  0.7331  1.3211
  493TIP3   OH223037   5.047   5.809   2.436 -0.0553  0.2347 -0.2654
  493TIP3    H123038   5.014   5.736   2.487 -0.7383  0.2298 -0.7039
  493TIP3    H223039   4.991   5.812   2.359  2.3120 -1.1947 -2.1893
  494TIP3   OH223040   2.537   1.706   7.992 -0.7866 -0.2498  0.0790
  494TIP3    H123041   2.600   1.683   7.924  0.2142  1.6671  0.2896
  494TIP3    H223042   2.533   1.801   7.990 -1.2309 -0.1749  2.2546
  495TIP3   OH223043   2.886   2.564   0.050 -0.6322  0.0491 -0.3217
  495TIP3    H123044   2.801   2.543   0.090 -0.3732  0.1175  0.2851
  495TIP3    H223045   2.950   2.528   0.111 -0.2178 -1.9938 -1.8546
  496TIP3   OH223046   2.786   6.156   2.384  0.4559  0.4889  0.9004
  496TIP3    H123047   2.878   6.154   2.412  1.3801  0.3093 -1.8955
  496TIP3    H223048   2.749   6.074   2.419  2.6991 -1.9019 -1.8138
  497TIP3   OH223049   5.733   6.295   8.702  0.6675 -0.0045 -0.4711
  497TIP3    H123050   5.653   6.261   8.744  0.4970  0.3810 -0.4766
  497TIP3    H223051   5.707   6.312   8.612  0.5942  0.6547 -0.3324
  498TIP3   OH223052   4.344   4.344   1.298  0.5783 -0.5674  0.2716
  498TIP3    H123053   4.375   4.405   1.231  0.9016  1.7314  2.3635
  498TIP3    H223054   4.414   4.342   1.363 -0.1095 -1.9884  1.0138
  499TIP3   OH223055   6.338   1.215   2.118 -0.6311 -0.1204 -0.6594
  499TIP3    H123056   6.349   1.247   2.029  0.1555 -2.1406 -1.3490
  499TIP3    H223057   6.251   1.174   2.118 -0.6387 -0.1044 -0.5063
  500TIP3   OH223058   2.478   1.714   7.042 -0.0057 -0.2817  0.4024
  500TIP3    H123059   2.525   1.655   6.984  0.1019 -0.8900  1.0900
  500TIP3    H223060   2.409   1.751   6.988  1.6012  1.1041 -0.8103
  501TIP3   OH223061   3.624   2.360   1.467 -0.6107  0.6667 -0.5567
  501TIP3    H123062   3.604   2.444   1.509 -0.7129  0.8115 -0.8967
  501TIP3    H223063   3.607   2.295   1.535 -0.5470  0.9180 -0.2957
  502TIP3   OH223064   0.127   1.332   8.456  0.2459 -0.2922 -0.3431
  502TIP3    H123065   0.073   1.400   8.417  0.9447 -0.1210 -1.0240
  502TIP3    H223066   0.159   1.371   8.538 -0.2618 -0.2175 -0.1794
  503TIP3   OH223067   2.783   0.429   7.232 -0.9354 -0.1292 -1.0209
  503TIP3    H123068   2.761   0.500   7.292  1.5000  0.6019 -0.9043
  503TIP3    H223069   2.804   0.473   7.150  0.1681 -0.7162 -1.0732
  504TIP3   OH223070   0.632   4.568   2.296  0.1470 -0.5722  0.0577
  504TIP3    H123071   0.712   4.518   2.280 -0.3623 -1.2846 -0.3143
  504TIP3    H223072   0.564   4.502   2.309 -0.4510  0.0204  0.0180
  505TIP3   OH223073   1.555   0.361   2.336  0.0143 -0.6202 -0.1398
  505TIP3    H123074   1.510   0.382   2.418 -1.3311 -0.8979 -0.7759
  505TIP3    H223075   1.580   0.269   2.345 -3.0277 -1.6909 -1.2296
  506TIP3   OH223076   6.146   3.563   6.521  0.1833 -0.1870  0.1461
  506TIP3    H123077   6.069   3.556   6.577  0.0595  0.5275  0.0647
  506TIP3    H223078   6.180   3.473   6.516 -0.2324 -0.3828  0.7528
  507TIP3   OH223079   3.720   1.889   0.735 -0.8210 -0.0199 -0.2969
  507TIP3    H123080   3.646   1.949   0.729 -1.7530 -1.1216  0.0342
  507TIP3    H223081   3.685   1.804   0.712  0.4409 -0.4934 -0.5481
  508TIP3   OH223082   2.196   0.068   7.239 -0.0300 -0.0627  0.1910
  508TIP3    H123083   2.111   0.074   7.196 -0.6769 -2.7031  0.9135
  508TIP3    H223084   2.253   0.125   7.187 -1.5821 -0.3538 -2.0036
  509TIP3   OH223085   2.414   3.179   7.907 -0.2526 -0.3248 -0.1221
  509TIP3    H123086   2.497   3.143   7.877 -0.3856  0.2241 -1.2017
  509TIP3    H223087   2.407   3.264   7.863 -0.3461  0.6721  1.7052
  510TIP3   OH223088   2.890   3.855   1.810  0.5237  0.2434  0.7968
  510TIP3    H123089   2.799   3.884   1.804  0.2275 -0.8353 -0.4711
  510TIP3    H223090   2.886   3.761   1.795  1.5261 -0.4222  3.9688
  511TIP3   OH223091   2.402   0.128   7.614 -1.3436  0.1038 -0.1250
  511TIP3    H123092   2.493   0.153   7.629 -1.2240  0.4318 -1.2771
  511TIP3    H223093   2.387   0.054   7.673 -0.1290 -0.3738 -0.3880
  512TIP3   OH223094   6.239   5.827   1.192 -0.3921  0.2009  0.0483
  512TIP3    H123095   6.159   5.874   1.213  0.4099  1.7296 -0.1670
  512TIP3    H223096   6.212   5.736   1.181 -1.9200  0.5254  0.9293
  513TIP3   OH223097   6.580   1.037   1.627  0.5573 -0.0212  0.5954
  513TIP3    H123098   6.627   0.998   1.701  1.8330 -0.6203 -0.4818
  513TIP3    H223099   6.649   1.075   1.573 -0.4605  1.5711  0.3523
  514TIP3   OH223100   5.715   6.258   7.920  0.0708  0.1013 -0.7566
  514TIP3    H123101   5.808   6.264   7.895  0.2696 -1.3104 -0.4422
  514TIP3    H223102   5.706   6.320   7.992  1.0854 -0.6325  0.0311
  515TIP3   OH223103   6.039   5.236   1.043 -0.4652  0.2496 -0.0256
  515TIP3    H123104   6.018   5.143   1.053 -0.6430 -0.0155 -2.3968
  515TIP3    H223105   6.106   5.252   1.110  0.1199 -1.7821 -0.0400
  516TIP3   OH223106   4.536   5.494   1.622 -0.1766  0.6035 -0.4059
  516TIP3    H123107   4.573   5.480   1.709 -1.1427 -0.1361 -0.1009
  516TIP3    H223108   4.514   5.407   1.591 -1.6541  1.0243 -0.5751
  517TIP3   OH223109   3.718   2.848   8.744 -0.1162 -0.3555 -0.4578
  517TIP3    H123110   3.719   2.765   8.697 -1.4407 -1.2626  0.9968
  517TIP3    H223111   3.633   2.886   8.725  0.5741  0.8288 -1.3086
  518TIP3   OH223112   4.838   5.480   8.297  0.2393  0.6237 -0.3323
  518TIP3    H123113   4.907   5.470   8.363  1.2165  0.8748 -1.2914
  518TIP3    H223114   4.793   5.395   8.297  1.1379  0.1344 -0.3278
  519TIP3   OH223115   4.781   0.486   2.557  0.2079 -0.5430  0.0737
  519TIP3    H123116   4.785   0.476   2.462  0.2848 -1.9098  0.1971
  519TIP3    H223117   4.762   0.579   2.571  2.5230  0.1987 -1.2059
  520TIP3   OH223118   3.921   6.389   1.932 -0.0024  0.5265 -0.0549
  520TIP3    H123119   3.879   6.346   1.858 -2.0570  1.0226  0.7318
  520TIP3    H223120   3.967   6.319   1.978 -0.4605 -0.1831 -0.6526
  521TIP3   OH223121   2.209   2.019   7.750 -0.0887  0.1961  0.0464
  521TIP3    H123122   2.157   1.951   7.706  1.2954  0.0039 -1.3560
  521TIP3    H223123   2.258   1.972   7.817  0.3081 -0.0678 -0.4269
  522TIP3   OH223124   3.182   3.771   2.426  0.2330  0.3747 -0.2359
  522TIP3    H123125   3.172   3.864   2.408 -0.2671  0.9404  2.4407
  522TIP3    H223126   3.250   3.767   2.493 -0.6613 -1.0342  0.6417
  523TIP3   OH223127   6.147   2.833   1.028  0.1669 -0.4157 -0.0796
  523TIP3    H123128   6.150   2.813   1.122 -1.2565  0.2536  0.1412
  523TIP3    H223129   6.152   2.928   1.024  0.1885 -0.4396 -0.6897
  524TIP3   OH223130   6.768   5.165   7.867  0.5964 -0.0811 -0.1125
  524TIP3    H123131   6.764   5.173   7.962 -2.4168 -0.1696 -0.1206
  524TIP3    H223132   6.771   5.071   7.851  2.7053 -0.0507 -0.1615
  525TIP3   OH223133   6.784   1.529   8.628 -0.1614 -0.0622  0.5441
  525TIP3    H123134   6.737   1.447   8.642  1.1461 -1.0889 -0.8121
  525TIP3    H223135   6.875   1.509   8.653  0.5802  0.3359 -1.5979
  526TIP3   OH223136   5.389   3.333   2.838 -1.1316 -0.0666 -0.3633
  526TIP3    H123137   5.358   3.383   2.763 -0.7175 -2.1164 -1.9996
  526TIP3    H223138   5.484   3.327   2.826 -0.8517  0.8294  1.1638
  527TIP3   OH223139   4.572   2.553   7.775 -0.1403  0.3088 -0.2672
  527TIP3    H123140   4.580   2.496   7.851  1.5825  0.0581 -0.5945
  527TIP3    H223141   4.477   2.557   7.757 -0.3304 -4.3799 -1.6479
  528TIP3   OH223142   3.370   3.969   1.931 -0.3481 -0.4169  0.0072
  528TIP3    H123143   3.301   3.910   1.902  1.5356 -1.7233 -2.1257
  528TIP3    H223144   3.423   3.916   1.991 -0.4980  0.1870  0.6823
  529TIP3   OH223145   5.812   1.187   2.251 -0.0448 -0.2142  0.1325
  529TIP3    H123146   5.880   1.161   2.314  0.1924  0.2041  0.0528
  529TIP3    H223147   5.819   1.283   2.246 -0.3397 -0.2081 -0.2167
  530TIP3   OH223148   0.642   6.519   7.622  0.0656  0.1575  0.1477
  530TIP3    H123149   0.610   6.600   7.584  0.6568  0.9409  1.2387
  530TIP3    H223150   0.737   6.531   7.626  0.1548 -0.5741  0.3357
  531TIP3   OH223151   2.004   1.459   2.184  0.0021  0.2685  0.1293
  531TIP3    H123152   1.991   1.493   2.095  0.5448 -1.2147 -0.5384
  531TIP3    H223153   2.099   1.453   2.193 -0.0748 -1.4729  0.0474
  532TIP3   OH223154   2.279   2.434   8.414 -0.1262  0.3300  0.1241
  532TIP3    H123155   2.214   2.421   8.483 -0.1740  1.0859  0.2320
  532TIP3    H223156   2.344   2.492   8.453  0.0847  0.3921 -0.3145
  533TIP3   OH223157   0.759   5.896   7.607  0.0280  0.0655  0.0199
  533TIP3    H123158   0.755   5.942   7.523 -0.6136 -0.7875 -0.4222
  533TIP3    H223159   0.714   5.956   7.668  0.4844  0.6825 -0.2347
  534TIP3   OH223160   5.684   5.910   1.379  0.2823 -0.4748 -0.0382
  534TIP3    H123161   5.595   5.883   1.355  0.8652 -1.2296 -1.5202
  534TIP3    H223162   5.700   5.988   1.326  1.0740 -1.3291 -1.1207
  535TIP3   OH223163   4.938   0.613   0.352 -0.0975 -0.7555 -0.4398
  535TIP3    H123164   4.849   0.641   0.372 -0.3315 -1.0491 -1.0449
  535TIP3    H223165   4.964   0.668   0.278  1.1110  1.0011  1.1822
  536TIP3   OH223166   3.270   4.704   0.694  0.0909  0.2512  0.4932
  536TIP3    H123167   3.359   4.740   0.691 -0.4352  1.5106 -1.1073
  536TIP3    H223168   3.214   4.776   0.665 -1.4630 -0.5392  1.4326
  537TIP3   OH223169   5.731   2.812   1.689  0.1307 -0.3876  0.5414
  537TIP3    H123170   5.779   2.814   1.606  0.5356  0.3453  0.7872
  537TIP3    H223171   5.752   2.895   1.731 -0.2579 -0.6543  1.2809
  538TIP3   OH223172   4.238   2.933   8.162  0.0274 -0.2075 -0.1219
  538TIP3    H123173   4.192   2.971   8.236  0.3306  0.6906 -0.3757
  538TIP3    H223174   4.329   2.928   8.191 -0.3692 -3.3927  0.9540
  539TIP3   OH223175   1.324   5.549   1.340  0.5271  0.3519  0.3909
  539TIP3    H123176   1.236   5.526   1.310  0.0886  1.7433  0.5438
  539TIP3    H223177   1.378   5.474   1.316 -0.7422 -0.6249  0.5123
  540TIP3   OH223178   4.144   4.622   2.056 -0.4116  0.2901 -0.5816
  540TIP3    H123179   4.154   4.678   2.133  1.3031 -1.3993  0.4937
  540TIP3    H223180   4.049   4.611   2.048 -0.6522  0.5244  1.3010
  541TIP3   OH223181   5.533   6.807   7.527 -0.1669 -0.1682 -0.0678
  541TIP3    H123182   5.497   6.737   7.473 -2.9703  0.9623  0.1465
  541TIP3    H223183   5.502   6.786   7.616  2.0240 -0.5123  0.6714
  542TIP3   OH223184   5.307   0.253   8.294 -0.3727  0.1689  0.2749
  542TIP3    H123185   5.272   0.222   8.378 -2.1868 -1.2388 -0.8946
  542TIP3    H223186   5.229   0.279   8.245  0.6546  0.9883 -0.9744
  543TIP3   OH223187   0.239   6.201   1.391  0.4768  0.0347  0.5985
  543TIP3    H123188   0.149   6.234   1.396 -1.5735 -4.5358 -0.0153
  543TIP3    H223189   0.263   6.184   1.482 -0.5414 -1.3221  0.6540
  544TIP3   OH223190   2.381   1.307   0.142  0.3019  0.1354  1.0771
  544TIP3    H123191   2.356   1.264   0.224  0.3151 -0.3638  0.8190
  544TIP3    H223192   2.477   1.306   0.143  0.3151  0.8877  1.4505
  545TIP3   OH223193   6.364   3.967   1.873 -0.5343 -0.7679  0.2441
  545TIP3    H123194   6.418   4.031   1.920 -1.2136 -0.3359  0.4540
  545TIP3    H223195   6.397   3.882   1.901 -0.3762 -0.5099  0.8630
  546TIP3   OH223196   1.309   3.123   7.865  0.3532  0.1713 -0.0520
  546TIP3    H123197   1.216   3.117   7.840  0.3153  0.7445 -0.0527
  546TIP3    H223198   1.349   3.044   7.828  0.1379  0.6004 -1.2201
  547TIP3   OH223199   2.190   3.518   1.132  0.1015  0.4481 -0.0027
  547TIP3    H123200   2.183   3.445   1.194 -1.0876  0.8140  0.3201
  547TIP3    H223201   2.207   3.594   1.187  0.9954  0.4813 -0.3111
  548TIP3   OH223202   6.135   0.041   8.761  0.6024 -0.3697 -0.5723
  548TIP3    H123203   6.183   0.097   8.700 -0.9150 -0.5565 -2.0205
  548TIP3    H223204   6.114  -0.037   8.709  2.1042 -2.0552  1.2060
  549TIP3   OH223205   3.031   1.188   0.946  0.4674 -0.4602  0.5409
  549TIP3    H123206   3.012   1.279   0.969 -0.7959 -1.2456  2.9043
  549TIP3    H223207   2.947   1.143   0.954  1.3460 -2.1121  1.0105
  550TIP3   OH223208   5.397   0.114   0.728  0.2722 -0.1715 -1.0317
  550TIP3    H123209   5.375   0.161   0.808  0.9392 -2.5449  0.6776
  550TIP3    H223210   5.453   0.173   0.679  0.4149  1.0914  0.5932
  551TIP3   OH223211   1.334   0.439   8.612  0.3303 -0.0541  0.1273
  551TIP3    H123212   1.243   0.465   8.599  0.4666  0.5485  0.3492
  551TIP3    H223213   1.331   0.375   8.683  0.3350  1.8498  1.9138
  552TIP3   OH223214   6.466   6.802   8.363  0.6247  0.0313  0.3003
  552TIP3    H123215   6.520   6.726   8.342  2.4654  0.9923  1.2947
  552TIP3    H223216   6.464   6.853   8.282 -0.7796 -1.1177 -0.4271
  553TIP3   OH223217   3.396   4.878   2.419 -0.0237 -0.4719 -0.2786
  553TIP3    H123218   3.424   4.905   2.506  0.0961 -0.6606 -0.2580
  553TIP3    H223219   3.412   4.955   2.363  0.4293 -0.5412 -0.2463
  554TIP3   OH223220   6.513   3.580   6.727 -0.0878  0.1916  0.0563
  554TIP3    H123221   6.455   3.615   6.659 -0.3112 -0.2397  0.0176
  554TIP3    H223222   6.601   3.609   6.701 -0.4003  1.9567  0.8156
  555TIP3   OH223223   1.094   1.738   6.161 -0.1132  0.3911 -0.3648
  555TIP3    H123224   1.034   1.782   6.220  0.1278 -0.0831  0.2450
  555TIP3    H223225   1.112   1.653   6.203  1.8486  0.9652  0.0583
  556TIP3   OH223226   0.107   1.287   8.001  0.0842  0.0479 -0.0352
  556TIP3    H123227   0.171   1.288   8.072 -0.0057 -0.3982  0.0534
  556TIP3    H223228   0.061   1.371   8.009  0.0731 -0.0009  0.4331
  557TIP3   OH223229   3.517   1.179   8.687 -0.2191  0.1266 -0.0471
  557TIP3    H123230   3.552   1.124   8.757  1.0144  0.9824  0.0345
  557TIP3    H223231   3.425   1.152   8.679  0.1140 -1.2723  0.6176
  558TIP3   OH223232   6.678   0.584   8.016  0.0318 -0.0240  0.7029
  558TIP3    H123233   6.591   0.621   8.029 -1.1704 -2.5208  0.4769
  558TIP3    H223234   6.729   0.616   8.090 -1.6951 -0.1466  2.0041
  559TIP3   OH223235   0.873   1.066   7.620 -0.3599 -0.0876  0.1085
  559TIP3    H123236   0.786   1.048   7.585 -0.7818 -2.6936  2.1583
  559TIP3    H223237   0.867   1.155   7.656 -2.1800 -0.2230  0.2228
  560TIP3   OH223238   0.072   3.288   8.527  0.4153  0.6787  0.0975
  560TIP3    H123239   0.058   3.317   8.437  2.1727  2.5665  0.3481
  560TIP3    H223240   0.112   3.363   8.570  0.0900 -0.3580  2.3436
  561TIP3   OH223241   2.524   3.725   0.454  0.1454  0.1077  0.3462
  561TIP3    H123242   2.538   3.639   0.414  1.0703 -0.5162  1.9007
  561TIP3    H223243   2.513   3.784   0.380  1.3979 -1.0344 -0.8198
  562TIP3   OH223244   6.553   3.133   7.616 -0.3329  0.1741  0.4711
  562TIP3    H123245   6.467   3.150   7.577  0.8461 -0.3308 -2.5730
  562TIP3    H223246   6.535   3.123   7.710 -3.2388  2.3809  0.2923
  563TIP3   OH223247   3.661   5.551   1.989  0.1948  0.0270 -0.6921
  563TIP3    H123248   3.658   5.499   1.909 -0.1874  0.2035 -0.7930
  563TIP3    H223249   3.605   5.504   2.050  0.5707 -0.1653 -0.4889
  564TIP3   OH223250   1.524   6.007   0.964 -0.1829  0.3546  0.1311
  564TIP3    H123251   1.447   6.064   0.966 -1.0252 -0.7766  1.2722
  564TIP3    H223252   1.597   6.067   0.947 -0.9558  1.8921  1.7841
  565TIP3   OH223253   1.912   4.177   1.099  0.0481  0.2222  0.3048
  565TIP3    H123254   1.833   4.223   1.128 -0.3149 -0.2683  0.1051
  565TIP3    H223255   1.898   4.161   1.006  0.6146  0.5876  0.1541
  566TIP3   OH223256   0.228   1.537   7.325  0.0077  0.1484 -0.2829
  566TIP3    H123257   0.220   1.579   7.239 -0.9492 -1.4567 -1.0377
  566TIP3    H223258   0.139   1.510   7.347  0.6264 -2.0096 -0.1814
  567TIP3   OH223259   3.552   1.700   3.254  0.4971 -0.0802  0.4320
  567TIP3    H123260   3.637   1.726   3.289  1.1104  0.3953 -1.2960
  567TIP3    H223261   3.573   1.640   3.182 -0.4492  1.8726 -1.5989
  568TIP3   OH223262   3.815   5.551   6.984  0.3874  0.3153  0.0832
  568TIP3    H123263   3.782   5.605   7.055 -0.3339 -1.0644  0.8431
  568TIP3    H223264   3.744   5.490   6.964  1.8951 -1.8540  0.8424
  569TIP3   OH223265   2.532   5.324   1.657 -0.2547  0.6270  0.0745
  569TIP3    H123266   2.562   5.258   1.593  1.9364  0.9332  0.7169
  569TIP3    H223267   2.522   5.275   1.738 -0.3899  0.7550  0.1347
  570TIP3   OH223268   2.185   2.012   2.494 -0.1585 -0.1074  0.3125
  570TIP3    H123269   2.205   1.931   2.541 -2.4700 -0.0441  1.5676
  570TIP3    H223270   2.096   1.999   2.460  0.3681  0.9605 -1.6937
  571TIP3   OH223271   6.508   3.454   6.968  0.1810  0.2404  0.2531
  571TIP3    H123272   6.540   3.364   6.961 -0.9797 -0.2806  1.2347
  571TIP3    H223273   6.519   3.490   6.881  0.6669 -0.8483 -0.1598
  572TIP3   OH223274   4.210   2.811   0.858 -0.4895 -0.4460  0.3219
  572TIP3    H123275   4.173   2.746   0.918 -0.9655 -1.4276 -0.9952
  572TIP3    H223276   4.142   2.825   0.792  0.5054 -0.3589 -0.7162
  573TIP3   OH223277   5.859   4.309   7.277  0.1078  0.1234 -0.3081
  573TIP3    H123278   5.816   4.287   7.360  0.9100  0.8667  0.3197
  573TIP3    H223279   5.943   4.346   7.303  1.4401 -1.9049 -1.5377
  574TIP3   OH223280   0.921   4.079   1.985  0.4437  0.2378 -0.2136
  574TIP3    H123281   0.984   4.042   1.922 -0.4278 -1.7642  0.0032
  574TIP3    H223282   0.891   4.160   1.944 -0.9136 -1.5111 -2.9934
  575TIP3   OH223283   3.207   2.462   8.738  0.1403  0.7522  0.0376
  575TIP3    H123284   3.172   2.537   8.784 -0.2769  0.9853 -0.6327
  575TIP3    H223285   3.149   2.452   8.662 -1.6309 -1.9855  1.5660
  576TIP3   OH223286   6.414   1.666   1.275  0.1548  0.4522  0.0663
  576TIP3    H123287   6.337   1.695   1.226 -0.0879 -1.9003 -1.1252
  576TIP3    H223288   6.461   1.609   1.214 -0.6547 -3.4642  2.6781
  577TIP3   OH223289   5.492   5.654   1.782  0.2263  0.3544  0.3058
  577TIP3    H123290   5.397   5.642   1.785  0.3881 -0.9589  1.1724
  577TIP3    H223291   5.520   5.647   1.873  1.1366  0.9771  0.0871
  578TIP3   OH223292   1.747   4.619   2.181 -0.4582  0.2002  0.0039
  578TIP3    H123293   1.698   4.543   2.213 -4.1580  2.2140 -0.3192
  578TIP3    H223294   1.789   4.655   2.259 -0.8726 -0.7063  0.6579
  579TIP3   OH223295   0.392   5.436   8.201  0.4634 -0.2263  0.3092
  579TIP3    H123296   0.360   5.427   8.290  1.0575 -0.3550  0.5166
  579TIP3    H223297   0.459   5.368   8.192 -0.5683 -1.1431 -0.6975
  580TIP3   OH223298   6.450   4.135   1.332 -0.1319 -0.1824  0.5115
  580TIP3    H123299   6.417   4.048   1.311  2.1191 -0.6219 -1.5911
  580TIP3    H223300   6.371   4.189   1.341 -1.5150 -1.6747 -1.6922
  581TIP3   OH223301   6.192   0.597   7.565 -0.3220 -0.2479 -0.3127
  581TIP3    H123302   6.192   0.618   7.471 -2.0201 -0.8047 -0.4713
  581TIP3    H223303   6.239   0.670   7.606 -0.2793  0.4205 -1.5083
  582TIP3   OH223304   4.476   2.845   8.322 -0.0494  0.0557  0.4736
  582TIP3    H123305   4.486   2.845   8.417 -0.4358  2.8751  0.6000
  582TIP3    H223306   4.564   2.860   8.288  0.0570 -0.7561  0.3641
  583TIP3   OH223307   1.773   0.476   0.844  0.3071 -0.2691 -0.2551
  583TIP3    H123308   1.698   0.533   0.858  0.5329  0.0354 -0.2748
  583TIP3    H223309   1.841   0.512   0.901  0.6410 -0.1528 -0.7161
  584TIP3   OH223310   6.722   4.881   2.760  0.3381  0.0841  0.0259
  584TIP3    H123311   6.759   4.959   2.720  0.2742 -0.6060 -1.4634
  584TIP3    H223312   6.648   4.913   2.811  0.2659  0.9909 -0.6228
  585TIP3   OH223313   6.298   6.084   2.121  0.1488 -0.0543  0.0368
  585TIP3    H123314   6.392   6.088   2.134  0.7195 -2.2445 -2.6104
  585TIP3    H223315   6.275   6.169   2.084  1.5855 -0.4096 -1.7724
  586TIP3   OH223316   6.159   4.216   1.693 -0.3178  0.5660 -0.1649
  586TIP3    H123317   6.204   4.132   1.686 -1.7763 -0.0911 -3.2929
  586TIP3    H223318   6.104   4.207   1.771 -0.0230 -1.1623 -0.1235
  587TIP3   OH223319   3.006   2.970   0.142 -0.0944  0.3765 -0.7394
  587TIP3    H123320   2.996   2.973   0.046 -0.3620 -1.0556 -0.7806
  587TIP3    H223321   2.945   2.903   0.170  0.2663  0.5105  0.4075
  588TIP3   OH223322   3.356   0.379   0.605 -0.2131  0.0041 -0.3569
  588TIP3    H123323   3.396   0.466   0.596  0.3644  0.1031  2.4106
  588TIP3    H223324   3.265   0.398   0.629 -0.2296 -0.1458 -0.3002
  589TIP3   OH223325   5.576   1.031   2.253 -0.3354  0.2391 -0.1439
  589TIP3    H123326   5.660   1.065   2.224  0.0266 -0.5688 -0.0773
  589TIP3    H223327   5.598   0.957   2.310 -1.0792 -1.4819 -1.9701
  590TIP3   OH223328   6.739   6.678   7.358  0.5527  0.2367 -0.2677
  590TIP3    H123329   6.684   6.616   7.309 -0.2227 -1.1956  2.2503
  590TIP3    H223330   6.829   6.648   7.340  0.2974 -0.2255 -0.8406
  591TIP3   OH223331   1.240   4.698   2.850  0.0046 -0.0437  0.0364
  591TIP3    H123332   1.230   4.770   2.912  0.8863  0.1560 -0.0416
  591TIP3    H223333   1.150   4.671   2.830 -0.3073 -0.4998  1.8383
  592TIP3   OH223334   1.175   2.839   8.584 -0.3951  0.1253  0.4529
  592TIP3    H123335   1.182   2.815   8.676 -0.5818  1.0449  0.7156
  592TIP3    H223336   1.242   2.785   8.541 -0.9137 -0.9734  0.9762
  593TIP3   OH223337   5.718   5.775   0.597  0.1286  0.3864  0.2837
  593TIP3    H123338   5.714   5.708   0.665  1.5049 -2.5060 -2.2323
  593TIP3    H223339   5.812   5.792   0.586 -0.0431  0.5381 -1.0784
  594TIP3   OH223340   1.082   4.368   8.192 -0.1878  0.0001 -0.0536
  594TIP3    H123341   1.107   4.433   8.127  0.1462  0.1462  0.2206
  594TIP3    H223342   1.105   4.407   8.276  1.6188 -1.1470  0.0413
  595TIP3   OH223343   2.612   0.237   7.453 -0.7379  0.7862  0.3495
  595TIP3    H123344   2.695   0.214   7.412 -0.1631  0.9873  1.3737
  595TIP3    H223345   2.564   0.286   7.386 -0.3316  0.0527 -0.4909
  596TIP3   OH223346   2.498   6.705   7.999  0.3344  0.0432  0.0565
  596TIP3    H123347   2.520   6.710   8.092  2.1096 -1.7119 -0.2031
  596TIP3    H223348   2.458   6.618   7.989 -0.8978  0.6680 -0.6437
  597TIP3   OH223349   2.164   6.267   0.355 -0.3697 -0.8317  0.1086
  597TIP3    H123350   2.175   6.219   0.437  0.4355 -1.3395 -0.2805
  597TIP3    H223351   2.069   6.273   0.342 -0.6198  1.4326  2.3279
  598TIP3   OH223352   5.045   0.405   8.566  0.8696  0.0387 -0.2255
  598TIP3    H123353   4.956   0.372   8.572  1.3785 -1.9236 -2.2579
  598TIP3    H223354   5.049   0.449   8.481  2.3810 -1.9096 -1.2426
  599TIP3   OH223355   6.838   4.680   0.869  0.5767 -0.1068  0.5184
  599TIP3    H123356   6.773   4.695   0.801 -0.3698 -2.3461  0.8386
  599TIP3    H223357   6.793   4.701   0.951  1.2641  1.2411  0.5719
  600TIP3   OH223358   3.416   2.572   0.682  0.4629 -0.3517  0.3339
  600TIP3    H123359   3.428   2.486   0.722 -0.3173  0.0274  1.4152
  600TIP3    H223360   3.483   2.627   0.723  0.2770 -0.1899  0.4214
  601TIP3   OH223361   4.591   4.257   1.914 -0.6980 -0.2098  0.2060
  601TIP3    H123362   4.587   4.162   1.923  0.9948 -0.1886  1.6263
  601TIP3    H223363   4.503   4.281   1.883 -0.6287 -2.3666 -2.0161
  602TIP3   OH223364   1.847   3.731   0.093  0.1438  0.3840 -0.1455
  602TIP3    H123365   1.781   3.792   0.126  0.8339 -0.2617  2.6325
  602TIP3    H223366   1.799   3.650   0.077 -0.3008  0.8644 -1.4887
  603TIP3   OH223367   3.345   2.377   8.297  0.6747  0.0291  0.2286
  603TIP3    H123368   3.416   2.359   8.235 -0.8752  0.9119 -1.9091
  603TIP3    H223369   3.362   2.317   8.370  2.6157 -1.0422 -1.0003
  604TIP3   OH223370   2.120   3.290   0.614  0.1032 -0.2409  0.3029
  604TIP3    H123371   2.099   3.243   0.695 -4.1211  0.1804 -0.3226
  604TIP3    H223372   2.146   3.378   0.643 -1.0312 -0.1953  1.2482
  605TIP3   OH223373   4.310   2.163   1.096  0.5667 -0.1050 -0.0414
  605TIP3    H123374   4.254   2.136   1.023  0.8888 -1.0843  0.0616
  605TIP3    H223375   4.269   2.243   1.128 -0.8235 -0.8205  0.0547
  606TIP3   OH223376   5.203   3.341   7.500 -0.0082  0.2061  0.4209
  606TIP3    H123377   5.109   3.321   7.509 -0.0329 -0.8654 -1.6992
  606TIP3    H223378   5.222   3.328   7.407  2.2110  0.6413  0.7608
  607TIP3   OH223379   5.705   5.256   7.253  0.0633  0.9015 -0.0125
  607TIP3    H123380   5.675   5.297   7.334  0.2042 -0.1732  0.5945
  607TIP3    H223381   5.630   5.204   7.223  0.1197  1.0442 -0.4131
  608TIP3   OH223382   2.957   4.806   7.912  0.2328  0.0708  0.9269
  608TIP3    H123383   2.898   4.730   7.919 -0.5067  0.0770 -2.9781
  608TIP3    H223384   2.906   4.879   7.946 -1.8844 -0.0624 -1.6487
  609TIP3   OH223385   5.853   6.741   0.915  0.0551  0.1295 -0.1069
  609TIP3    H123386   5.830   6.649   0.905 -0.7661  0.3670 -0.5426
  609TIP3    H223387   5.768   6.786   0.923  0.4682  0.6006  2.4718
  610TIP3   OH223388   5.244   5.339   8.172  0.4939  0.2044  0.0130
  610TIP3    H123389   5.277   5.280   8.240  0.2782  0.5682  0.4305
  610TIP3    H223390   5.181   5.286   8.123 -0.4617  0.3886  1.0245
  611TIP3   OH223391   3.016   2.166   8.393 -0.5493  0.1322  0.0747
  611TIP3    H123392   2.961   2.240   8.366 -0.7402  0.4390  1.2643
  611TIP3    H223393   2.963   2.089   8.376 -0.8950  0.3545  0.1494
  612TIP3   OH223394   2.032   4.518   1.575  0.3074 -0.4971 -0.2422
  612TIP3    H123395   2.072   4.593   1.620  0.3549 -1.0099  0.5879
  612TIP3    H223396   1.943   4.515   1.609  0.8862 -2.0169  1.2854
  613TIP3   OH223397   2.414   4.681   8.119 -0.1131  0.3625  0.0811
  613TIP3    H123398   2.442   4.633   8.041 -3.1307  0.2961 -1.0959
  613TIP3    H223399   2.462   4.640   8.191  0.4952 -1.6319 -1.3670
  614TIP3   OH223400   0.738   3.344   0.690  0.2546  0.3710 -0.1674
  614TIP3    H123401   0.661   3.355   0.634  0.4451  1.1161 -0.3022
  614TIP3    H223402   0.779   3.264   0.659 -1.1959 -0.8052  0.7915
  615TIP3   OH223403   1.965   4.485   7.426  0.0536 -0.5249  0.0543
  615TIP3    H123404   1.982   4.541   7.502  0.6128 -1.2715  0.4922
  615TIP3    H223405   1.965   4.545   7.351  0.9153  0.0272  0.4830
  616TIP3   OH223406   4.482   4.462   0.501  0.0426 -0.3343 -0.1491
  616TIP3    H123407   4.433   4.460   0.419  1.1667 -0.4447 -0.8370
  616TIP3    H223408   4.552   4.398   0.488  1.5822  1.2435  0.0169
  617TIP3   OH223409   2.820   0.130   8.652 -0.5360  0.0289  0.2385
  617TIP3    H123410   2.771   0.087   8.721 -0.3769 -1.8461 -0.7427
  617TIP3    H223411   2.872   0.197   8.697 -2.6198  0.8937  1.5041
  618TIP3   OH223412   1.207   1.666   6.770  0.2577  0.2284  0.4656
  618TIP3    H123413   1.160   1.697   6.693  1.1857 -1.2118 -0.7310
  618TIP3    H223414   1.184   1.573   6.777  1.2178  0.0233  1.1449
  619TIP3   OH223415   0.421   0.667   7.545 -0.0236 -0.7030 -0.0610
  619TIP3    H123416   0.379   0.593   7.589 -0.8506 -0.6090 -0.6804
  619TIP3    H223417   0.376   0.674   7.461 -0.7540  1.2176  0.4375
  620TIP3   OH223418   2.878   1.529   7.750  0.0983 -0.2660 -0.7366
  620TIP3    H123419   2.967   1.560   7.765 -0.5797  2.3863 -1.5765
  620TIP3    H223420   2.860   1.468   7.821  2.1552  0.0694  0.1190
  621TIP3   OH223421   0.841   0.063   0.426  0.6546 -0.0586 -0.0573
  621TIP3    H123422   0.768   0.010   0.393  0.2346  1.1511 -1.1769
  621TIP3    H223423   0.802   0.118   0.494  0.7990 -0.2502  0.1827
  622TIP3   OH223424   1.299   6.772   0.034 -0.5176  0.2022  0.3912
  622TIP3    H123425   1.341   6.858   0.043 -0.2785  0.0688  0.5722
  622TIP3    H223426   1.234   6.784  -0.035  0.3876  0.1965 -0.4743
  623TIP3   OH223427   4.125   0.038   2.303  0.6136  0.0447  0.0378
  623TIP3    H123428   4.111  -0.056   2.302 -0.4279  0.1916 -0.7153
  623TIP3    H223429   4.194   0.052   2.368  0.1070 -1.1418  0.8540
  624TIP3   OH223430   5.718   1.812   8.483 -0.2469  0.1623 -0.4959
  624TIP3    H123431   5.758   1.748   8.542 -1.4235  0.9376  1.2125
  624TIP3    H223432   5.654   1.761   8.433 -0.3311 -0.2242 -0.0036
  625TIP3   OH223433   4.658   5.263   8.295 -0.2212  0.3065  0.0343
  625TIP3    H123434   4.612   5.252   8.212 -0.0647 -0.0361 -0.0078
  625TIP3    H223435   4.598   5.229   8.361  0.1530 -0.5600 -0.0666
  626TIP3   OH223436   0.068   2.381   1.030  0.5160  0.3684 -0.2876
  626TIP3    H123437   0.116   2.393   0.948 -0.5349  2.7292 -0.6474
  626TIP3    H223438   0.110   2.441   1.091  0.9618 -0.9971  0.7883
  627TIP3   OH223439   1.425   1.849   8.002 -0.5219 -0.4541 -0.1994
  627TIP3    H123440   1.499   1.907   8.019 -1.6472  1.0843 -0.3136
  627TIP3    H223441   1.352   1.889   8.048 -1.6112 -1.1492 -1.2555
  628TIP3   OH223442   6.389   6.073   0.353 -0.0679 -0.3880 -0.6610
  628TIP3    H123443   6.424   6.138   0.293 -0.0733  1.9359  1.6733
  628TIP3    H223444   6.295   6.093   0.358  0.1136  0.1795  0.9000
  629TIP3   OH223445   3.379   1.162   7.412 -0.1441  0.7818 -0.1111
  629TIP3    H123446   3.320   1.095   7.375 -0.7450  0.9070  0.5802
  629TIP3    H223447   3.407   1.213   7.337 -1.9785  1.5390 -0.3410
  630TIP3   OH223448   3.208   6.685   2.492 -0.0940 -0.0207  0.0551
  630TIP3    H123449   3.254   6.672   2.575 -0.3844  1.8755  0.5472
  630TIP3    H223450   3.116   6.697   2.517 -1.1022 -4.0441 -0.9241
  631TIP3   OH223451   2.644   6.203   7.169  0.7359  0.4229  0.1687
  631TIP3    H123452   2.644   6.248   7.084  0.6591  1.5743  0.7600
  631TIP3    H223453   2.569   6.143   7.163  0.5312  0.7251 -0.4528
  632TIP3   OH223454   1.562   0.448   7.608  0.1887 -0.1336  0.1569
  632TIP3    H123455   1.479   0.487   7.584 -0.9668 -2.1599  0.5866
  632TIP3    H223456   1.562   0.362   7.565  3.2009  0.7261 -1.9061
  633TIP3   OH223457   0.424   5.407   2.063 -0.0880  0.3447  0.4045
  633TIP3    H123458   0.430   5.405   2.158 -2.5370 -0.5196  0.6090
  633TIP3    H223459   0.503   5.361   2.033  0.7806  0.7404  1.9782
  634TIP3   OH223460   0.634   5.048   8.476  0.1931  0.3241  0.0106
  634TIP3    H123461   0.644   4.982   8.407  0.2177  0.0199  0.3075
  634TIP3    H223462   0.562   5.104   8.445 -1.1316 -0.9685  0.6409
  635TIP3   OH223463   2.651   2.459   1.871 -0.8915 -0.2510  0.2983
  635TIP3    H123464   2.582   2.525   1.878  0.5431  1.4174 -0.4779
  635TIP3    H223465   2.612   2.379   1.906 -3.8223  0.1145 -1.8026
  636TIP3   OH223466   6.682   6.693   1.149  0.4762 -0.2402  0.3939
  636TIP3    H123467   6.643   6.776   1.123  1.6354  0.7322  1.5981
  636TIP3    H223468   6.624   6.658   1.216 -0.2416 -0.6445 -0.4152
  637TIP3   OH223469   1.421   3.034   2.204 -0.2036 -0.3032  0.3746
  637TIP3    H123470   1.434   3.011   2.296  1.2335  2.4076  0.9539
  637TIP3    H223471   1.335   3.077   2.201  0.2924  0.7598  0.7589
  638TIP3   OH223472   3.945   5.144   2.097  0.1002 -0.3849 -0.7056
  638TIP3    H123473   3.951   5.238   2.114 -0.3684 -0.3109 -0.9181
  638TIP3    H223474   3.851   5.128   2.085  0.1905 -0.8558 -0.8029
  639TIP3   OH223475   6.271   2.305   7.445  0.8742 -0.3894 -0.2443
  639TIP3    H123476   6.207   2.363   7.404 -0.8334 -2.2545 -0.4234
  639TIP3    H223477   6.334   2.286   7.375  0.3318 -0.2916 -0.7722
  640TIP3   OH223478   6.014   0.897   8.716  0.1189  0.4213 -0.0802
  640TIP3    H123479   6.020   0.811   8.758  1.3979  0.5796  0.0939
  640TIP3    H223480   6.007   0.959   8.789 -0.5178  0.4909 -0.1953
  641TIP3   OH223481   5.010   5.161   8.294  0.3948  0.2053  1.0578
  641TIP3    H123482   4.932   5.170   8.240  0.0999  2.1393  1.6924
  641TIP3    H223483   5.049   5.078   8.268 -1.5441 -0.5136  0.3006
  642TIP3   OH223484   4.810   0.566   8.330 -0.2959 -0.1351 -0.6107
  642TIP3    H123485   4.756   0.626   8.381 -1.7250 -1.7734 -0.0872
  642TIP3    H223486   4.899   0.600   8.337 -1.0015  1.6769 -0.0465
  643TIP3   OH223487   0.614   3.834   8.080 -0.2749 -0.5222  0.2019
  643TIP3    H123488   0.541   3.801   8.028 -0.5185 -0.8779  0.7643
  643TIP3    H223489   0.643   3.759   8.132  0.2505 -0.2859  0.2557
  644TIP3   OH223490   6.515   6.410   1.263 -0.1290 -0.3365 -0.2422
  644TIP3    H123491   6.483   6.320   1.268 -1.4470  0.0682 -0.8175
  644TIP3    H223492   6.436   6.462   1.244  0.6186  0.9237  0.0062
  645TIP3   OH223493   3.516   1.348   2.147 -0.1917 -0.1543 -0.1402
  645TIP3    H123494   3.543   1.421   2.202  0.9232 -0.6160 -0.0477
  645TIP3    H223495   3.512   1.384   2.058  0.4390  0.0027 -0.1073
  646TIP3   OH223496   2.408   2.718   1.525  0.5246  0.0242  0.1659
  646TIP3    H123497   2.430   2.628   1.500 -0.0118 -0.2133  0.5299
  646TIP3    H223498   2.457   2.773   1.464 -1.2442 -0.5253 -1.8596
  647TIP3   OH223499   4.305   4.314   1.785  0.5273 -0.2914 -0.1602
  647TIP3    H123500   4.237   4.257   1.821  1.1739 -1.1889 -0.3141
  647TIP3    H223501   4.273   4.338   1.699  0.4479 -0.8141 -0.2815
  648TIP3   OH223502   4.515   3.133   0.750  0.6496  0.1999  0.3153
  648TIP3    H123503   4.512   3.201   0.682 -2.3422 -0.3956 -0.3150
  648TIP3    H223504   4.478   3.175   0.828  1.9734  0.2267  0.9560
  649TIP3   OH223505   1.343   1.016   7.527 -0.0795  0.1217  0.6877
  649TIP3    H123506   1.328   1.108   7.550  1.0425 -0.1259  2.6939
  649TIP3    H223507   1.434   1.000   7.552 -0.8792 -2.0788  2.5038
  650TIP3   OH223508   4.679   4.880   7.866 -0.0055 -0.3044  0.3632
  650TIP3    H123509   4.619   4.848   7.933  0.6861  0.9677  1.6460
  650TIP3    H223510   4.628   4.944   7.816 -0.1893 -0.3961  0.4361
  651TIP3   OH223511   6.204   6.316   7.051  0.2529 -0.0120  0.3780
  651TIP3    H123512   6.245   6.233   7.026  0.3639  0.4007 -0.8660
  651TIP3    H223513   6.203   6.314   7.147  1.3504 -0.9162  0.3911
  652TIP3   OH223514   5.525   0.502   7.748 -0.0983  0.1015 -0.5860
  652TIP3    H123515   5.487   0.447   7.679 -1.5887 -0.7199  0.8293
  652TIP3    H223516   5.509   0.454   7.829  1.2909  1.2183  0.3977
  653TIP3   OH223517   3.816   6.016   8.064  0.3341 -0.0560 -0.5525
  653TIP3    H123518   3.830   5.945   8.001 -2.6793 -0.9330 -0.4012
  653TIP3    H223519   3.772   5.973   8.138  1.6208  1.3922  1.1507
  654TIP3   OH223520   5.120   1.189   1.903  0.0551  0.5926 -0.7567
  654TIP3    H123521   5.026   1.197   1.890 -0.0513 -1.1463 -1.2696
  654TIP3    H223522   5.134   1.096   1.921  1.4880  1.0772  0.9776
  655TIP3   OH223523   2.699   1.594   1.081  0.0633  0.0948 -0.1348
  655TIP3    H123524   2.606   1.608   1.094  0.0080 -0.1093 -0.3188
  655TIP3    H223525   2.706   1.554   0.995  0.3328  0.2483 -0.1862
  656TIP3   OH223526   6.602   2.874   1.842 -0.2974 -0.2526  1.3106
  656TIP3    H123527   6.663   2.934   1.885 -0.7793  1.0945  0.1690
  656TIP3    H223528   6.537   2.931   1.801 -0.8764 -1.5662  0.3440
  657TIP3   OH223529   0.836   0.928   1.807  0.0594 -0.0256  0.2553
  657TIP3    H123530   0.805   1.013   1.776 -2.3157 -1.0535 -0.4619
  657TIP3    H223531   0.907   0.905   1.748  2.2150  2.3115  1.7570
  658TIP3   OH223532   3.828   4.647   7.461  0.0813 -0.3872 -0.8085
  658TIP3    H123533   3.837   4.716   7.396  1.3063  0.2225 -0.0238
  658TIP3    H223534   3.900   4.587   7.442 -0.8326 -1.3640 -1.3379
  659TIP3   OH223535   6.363   2.224   0.324 -0.3309  0.3460  0.2524
  659TIP3    H123536   6.293   2.264   0.272 -0.0407 -0.5757 -0.8862
  659TIP3    H223537   6.332   2.137   0.345  0.5883 -0.2138 -0.5850
  660TIP3   OH223538   1.323   5.522   8.604 -0.1242 -0.2117  0.0490
  660TIP3    H123539   1.401   5.480   8.568  0.1326  0.5889 -0.3522
  660TIP3    H223540   1.305   5.474   8.685  0.1867 -1.0517 -0.3689
  661TIP3   OH223541   0.290   3.770   2.390  0.3717 -0.8278  0.2735
  661TIP3    H123542   0.220   3.720   2.433 -0.9543  0.9757  0.3260
  661TIP3    H223543   0.285   3.857   2.431  0.7097  0.2060 -1.7587
  662TIP3   OH223544   1.895   6.782   7.303  0.6553 -0.1537  0.2926
  662TIP3    H123545   1.922   6.711   7.362  1.7950 -0.6250 -0.7361
  662TIP3    H223546   1.917   6.750   7.215  3.2105  2.2400 -0.1106
  663TIP3   OH223547   3.066   0.346   8.046 -0.3372  0.1383  0.3139
  663TIP3    H123548   3.051   0.283   7.976 -1.1061  0.2537  0.3594
  663TIP3    H223549   3.044   0.431   8.008 -1.5283  0.1201  0.8954
  664TIP3   OH223550   1.705   6.189   0.852  0.0818  0.6799  0.4292
  664TIP3    H123551   1.650   6.154   0.782 -0.0712  0.5646  0.6069
  664TIP3    H223552   1.788   6.210   0.809 -0.0143  0.6136  0.2125
  665TIP3   OH223553   1.120   0.729   7.099  0.3653  0.5311 -0.2846
  665TIP3    H123554   1.118   0.731   7.004  1.5407 -0.7990 -0.3678
  665TIP3    H223555   1.177   0.802   7.124  1.8265 -0.4083 -0.7348
  666TIP3   OH223556   4.531   2.598   2.901 -0.0927  0.1255 -0.9093
  666TIP3    H123557   4.580   2.634   2.975 -0.0638  0.4047 -1.0612
  666TIP3    H223558   4.455   2.557   2.941 -0.7769  1.4397 -0.8158
  667TIP3   OH223559   3.904   3.280   1.950  0.0050  0.0058 -0.2478
  667TIP3    H123560   3.875   3.358   1.998  1.9797  0.7437 -0.1719
  667TIP3    H223561   3.970   3.312   1.889 -0.2869 -1.3927 -1.3525
  668TIP3   OH223562   0.938   6.612   7.234  0.5334  0.4517 -0.3713
  668TIP3    H123563   1.013   6.637   7.289 -0.7918  2.5913  0.5668
  668TIP3    H223564   0.957   6.651   7.149  0.9444  0.1061 -0.4444
  669TIP3   OH223565   4.268   5.505   0.218  0.0132 -0.0578  0.7895
  669TIP3    H123566   4.308   5.418   0.216 -0.8095 -0.4312 -1.2592
  669TIP3    H223567   4.339   5.563   0.245  1.1018 -1.1132  0.2907
  670TIP3   OH223568   5.974   3.638   8.256 -0.1645  0.4326 -0.0149
  670TIP3    H123569   5.901   3.691   8.225 -0.2116  0.6841  0.5120
  670TIP3    H223570   6.045   3.655   8.194 -0.6887 -0.1773 -0.8070
  671TIP3   OH223571   4.323   1.934   2.591  0.0365  0.2970 -0.2258
  671TIP3    H123572   4.349   1.877   2.664 -1.6678 -1.3985 -0.8510
  671TIP3    H223573   4.229   1.949   2.605 -0.2601  0.1592 -1.8940
  672TIP3   OH223574   6.212   2.824   7.804 -0.6968  0.1718  0.1857
  672TIP3    H123575   6.228   2.755   7.740  2.4681  1.0595 -0.1723
  672TIP3    H223576   6.167   2.780   7.876 -1.4703 -1.5513 -1.2719
  673TIP3   OH223577   3.831   5.953   0.625  0.2357  0.2972 -0.3191
  673TIP3    H123578   3.855   5.947   0.718  1.4934  0.5433 -0.6115
  673TIP3    H223579   3.800   6.043   0.615  1.5813  0.7774 -0.4405
  674TIP3   OH223580   6.457   4.038   1.046  0.0664  0.0407  0.5198
  674TIP3    H123581   6.539   4.079   1.076 -0.0769  0.5487  0.2259
  674TIP3    H223582   6.485   3.957   1.003  0.6635  1.3754 -1.7899
  675TIP3   OH223583   5.720   4.519   0.827  0.0369  0.8518 -0.7779
  675TIP3    H123584   5.650   4.579   0.801  1.1528  1.9691 -1.2933
  675TIP3    H223585   5.729   4.531   0.921 -0.0294  1.1789 -0.8137
  676TIP3   OH223586   6.729   4.827   1.084 -0.1396  0.4156  0.2082
  676TIP3    H123587   6.661   4.888   1.056 -0.2753  0.5583  0.8265
  676TIP3    H223588   6.811   4.865   1.052 -0.3417  0.2828 -0.4714
  677TIP3   OH223589   3.376   5.130   0.657 -0.0905 -0.0503  0.5247
  677TIP3    H123590   3.311   5.193   0.627 -1.1162 -2.0181 -1.7041
  677TIP3    H223591   3.459   5.176   0.650 -0.7549  0.9547 -1.4525
  678TIP3   OH223592   2.469   2.661   0.245  0.1771 -0.1314  0.0096
  678TIP3    H123593   2.491   2.724   0.177 -1.6138  0.1480 -0.3804
  678TIP3    H223594   2.376   2.677   0.263 -0.3611 -2.6116 -0.1094
  679TIP3   OH223595   4.573   3.113   8.330 -0.3185  0.3870  0.4112
  679TIP3    H123596   4.651   3.143   8.283 -0.6087 -0.0790 -0.3811
  679TIP3    H223597   4.502   3.120   8.267 -1.1444  1.7669  1.4212
  680TIP3   OH223598   4.498   0.351   7.687 -0.1315 -0.3047  0.7374
  680TIP3    H123599   4.471   0.274   7.636  0.4454 -0.2036  0.2650
  680TIP3    H223600   4.451   0.343   7.770 -2.8469  0.6563 -0.5795
  681TIP3   OH223601   0.615   6.744   7.865 -0.4446 -0.0320 -0.2166
  681TIP3    H123602   0.682   6.720   7.801 -0.5400 -0.1441 -0.2764
  681TIP3    H223603   0.536   6.758   7.813  0.0569  2.4399 -0.4371
  682TIP3   OH223604   1.900   2.171   1.611  0.6096  0.5877  0.5761
  682TIP3    H123605   1.960   2.160   1.684  2.6581 -1.4374 -1.2311
  682TIP3    H223606   1.932   2.250   1.566  0.6202  0.6840  0.7515
  683TIP3   OH223607   4.856   6.004   2.283  0.0638  0.3971  0.0539
  683TIP3    H123608   4.760   6.001   2.276  0.0356  1.2233  0.0421
  683TIP3    H223609   4.885   5.929   2.231 -0.6077 -0.4838  0.9092
  684TIP3   OH223610   3.146   2.309   7.343 -0.2610  0.3748 -0.4779
  684TIP3    H123611   3.198   2.358   7.280  2.4181  1.0170  2.0292
  684TIP3    H223612   3.096   2.375   7.391  2.6758  0.8113  2.2988
  685TIP3   OH223613   3.057   6.436   0.386  0.2150 -0.3610  0.3003
  685TIP3    H123614   3.127   6.498   0.407  0.3399 -0.4603  0.1794
  685TIP3    H223615   3.047   6.382   0.464  0.4609 -0.5242  0.2197
  686TIP3   OH223616   4.004   1.366   2.203 -0.0084  0.3506  0.0688
  686TIP3    H123617   3.965   1.288   2.243  1.7461 -0.9673 -0.6977
  686TIP3    H223618   4.042   1.414   2.277  1.3284 -0.9648  0.2580
  687TIP3   OH223619   6.661   3.725   7.587 -0.0242  0.4117  0.0573
  687TIP3    H123620   6.701   3.645   7.554  1.5888  1.0241  0.4493
  687TIP3    H223621   6.717   3.796   7.556  0.2403  1.1708  2.1054
  688TIP3   OH223622   3.865   6.557   0.884  0.1375  0.1050 -0.0367
  688TIP3    H123623   3.927   6.559   0.957  0.3159  1.0374 -0.1986
  688TIP3    H223624   3.912   6.600   0.812  0.0803 -1.0669 -0.8088
  689TIP3   OH223625   3.989   4.397   7.493  1.2150  1.0640  0.5092
  689TIP3    H123626   4.080   4.369   7.495  1.1012  0.6632  0.2939
  689TIP3    H223627   3.945   4.332   7.437  0.4324  0.0749  2.1745
  690TIP3   OH223628   4.757   4.207   0.977  0.5210  0.7482 -0.0083
  690TIP3    H123629   4.845   4.175   0.993  0.3948  0.7429  0.6886
  690TIP3    H223630   4.756   4.296   1.013  0.6512  1.2906 -1.2756
  691TIP3   OH223631   2.864   1.201   3.016  0.1949 -0.1368  0.0393
  691TIP3    H123632   2.862   1.150   2.936 -2.3653  0.4165 -0.3189
  691TIP3    H223633   2.847   1.291   2.988  1.5845  0.4593  0.9891
  692TIP3   OH223634   0.739   2.850   0.620 -0.4140 -0.5528 -0.5438
  692TIP3    H123635   0.646   2.869   0.627 -0.3549 -0.7075  1.1291
  692TIP3    H223636   0.781   2.937   0.623 -0.5045 -0.4294 -2.0449
  693TIP3   OH223637   5.093   0.361   2.595  0.4546 -0.0558  0.0273
  693TIP3    H123638   5.075   0.288   2.536  1.3988  0.7234 -1.2453
  693TIP3    H223639   5.017   0.419   2.586  0.0766 -0.4680  0.4498
  694TIP3   OH223640   5.172   2.312   7.196 -0.5522  0.4851  0.2309
  694TIP3    H123641   5.084   2.301   7.231  0.0163 -1.5113  1.1403
  694TIP3    H223642   5.184   2.238   7.136  1.2220 -0.5479  1.7497
  695TIP3   OH223643   1.313   2.332   8.061 -0.5551  0.3399  0.0050
  695TIP3    H123644   1.401   2.297   8.046 -1.1679 -2.1977  1.7067
  695TIP3    H223645   1.280   2.352   7.973  2.1161  2.5976 -0.5937
  696TIP3   OH223646   2.232   2.799   0.164  0.1735  0.2755  0.0617
  696TIP3    H123647   2.239   2.779   0.071  0.3306  1.4636 -0.1995
  696TIP3    H223648   2.139   2.794   0.183  0.2076 -0.7216  0.0326
  697TIP3   OH223649   2.720   0.387   1.195 -0.1504 -0.6794  0.0660
  697TIP3    H123650   2.671   0.367   1.116  0.0878 -0.6849 -0.0807
  697TIP3    H223651   2.807   0.351   1.179  0.2764  0.4319 -0.1956
  698TIP3   OH223652   4.360   4.039   1.660  0.1144  0.1759 -0.2207
  698TIP3    H123653   4.376   4.056   1.752 -0.7913 -1.7574  0.3396
  698TIP3    H223654   4.274   4.078   1.643  0.2460  0.4622 -0.2307
  699TIP3   OH223655   5.344   4.844   0.585 -0.0722 -0.2666  0.4904
  699TIP3    H123656   5.397   4.910   0.629  2.6521 -2.6455  1.0627
  699TIP3    H223657   5.367   4.852   0.492  1.6595 -1.4775  0.7674
  700TIP3   OH223658   3.886   1.061   1.927  0.4119 -0.1765 -0.0335
  700TIP3    H123659   3.873   1.131   1.863 -0.3452 -1.4446 -1.3289
  700TIP3    H223660   3.826   0.992   1.899  1.9083 -1.7812  0.5694
  701TIP3   OH223661   4.374   1.829   1.166  0.3291 -0.5918  0.5726
  701TIP3    H123662   4.398   1.856   1.077  0.1595  1.1510  1.0248
  701TIP3    H223663   4.454   1.787   1.199  1.3375  1.1587  0.5028
  702TIP3   OH223664   0.467   4.770   7.602  0.5748 -0.1847 -0.2222
  702TIP3    H123665   0.392   4.827   7.588 -0.6072 -1.3458  1.1764
  702TIP3    H223666   0.477   4.722   7.519 -1.1167 -1.0045  0.0115
  703TIP3   OH223667   0.530   4.117   0.861  0.5120 -0.3331 -0.2927
  703TIP3    H123668   0.481   4.080   0.934 -0.8092 -0.3176 -1.1509
  703TIP3    H223669   0.622   4.110   0.888  0.0207  1.1676  2.0859
  704TIP3   OH223670   0.306   1.477   0.907  0.0632 -0.4430 -0.6386
  704TIP3    H123671   0.318   1.418   0.832  2.1457  0.5055 -1.1246
  704TIP3    H223672   0.371   1.447   0.971  0.7485  0.9317 -0.6594
  705TIP3   OH223673   2.801   5.669   8.174  0.0870  0.1647 -0.2950
  705TIP3    H123674   2.714   5.703   8.195  0.2087 -0.1553  0.7503
  705TIP3    H223675   2.860   5.743   8.191  0.1792 -0.0765  0.4505
  706TIP3   OH223676   4.046   3.602   8.656  0.1719 -0.4621 -0.0560
  706TIP3    H123677   4.070   3.583   8.565 -0.2236  1.5177 -0.6276
  706TIP3    H223678   3.962   3.558   8.668 -0.0130 -0.3267 -0.8045
  707TIP3   OH223679   1.138   6.485   1.136 -0.2565 -0.2885 -0.4554
  707TIP3    H123680   1.197   6.531   1.076  0.4769 -1.8958 -1.0395
  707TIP3    H223681   1.109   6.408   1.086  0.3461 -1.6648  1.2053
  708TIP3   OH223682   4.546   0.138   2.603  0.6202 -0.0812  0.3250
  708TIP3    H123683   4.621   0.194   2.624  0.5489 -0.0870  0.5997
  708TIP3    H223684   4.547   0.070   2.669 -1.2230  1.4584  2.0676
  709TIP3   OH223685   0.610   6.377   7.379 -0.4252 -0.3449  0.0519
  709TIP3    H123686   0.651   6.422   7.305  0.9733 -2.1356 -0.3162
  709TIP3    H223687   0.652   6.415   7.456  0.4903 -0.7463 -0.2350
  710TIP3   OH223688   3.463   3.669   1.991  0.2872 -0.3447  0.2810
  710TIP3    H123689   3.469   3.683   2.086 -2.6677  0.9648  0.3637
  710TIP3    H223690   3.408   3.592   1.981  2.0352 -1.5886 -0.4527
  711TIP3   OH223691   1.191   5.844   0.996  0.7832  0.0320 -0.4391
  711TIP3    H123692   1.265   5.824   1.053  1.4773 -1.3085 -1.7263
  711TIP3    H223693   1.114   5.812   1.043  0.8764  2.1508  1.2645
  712TIP3   OH223694   3.653   4.589   0.394 -0.5373 -0.0976  0.5217
  712TIP3    H123695   3.680   4.665   0.446 -1.1936  0.5553 -0.0751
  712TIP3    H223696   3.568   4.565   0.430 -1.1499  0.5627 -0.4393
  713TIP3   OH223697   5.868   6.529   1.763  0.4502 -0.0799  0.9101
  713TIP3    H123698   5.916   6.506   1.684  0.8046  0.9980  0.8025
  713TIP3    H223699   5.901   6.469   1.829 -0.7903 -1.9018 -0.0374
  714TIP3   OH223700   1.077   0.994   2.371 -0.7131  0.2556 -0.0972
  714TIP3    H123701   1.017   0.923   2.347 -0.6667 -0.7049  2.3243
  714TIP3    H223702   1.157   0.974   2.322  0.3275 -3.2009  2.5179
  715TIP3   OH223703   6.255   4.367   8.549 -0.2132  0.2653  0.0376
  715TIP3    H123704   6.202   4.441   8.520  0.0462  0.5570  0.2956
  715TIP3    H223705   6.242   4.365   8.644  0.4723  0.5309  0.1456
  716TIP3   OH223706   4.365   0.275   8.519 -0.1606 -0.7525  0.0691
  716TIP3    H123707   4.371   0.182   8.544 -2.1039 -0.9160  0.0715
  716TIP3    H223708   4.368   0.274   8.423 -2.4827 -1.1014 -0.0631
  717TIP3   OH223709   1.537   2.002   6.066  0.0862 -0.2171  0.3253
  717TIP3    H123710   1.470   1.934   6.068  0.2302 -0.4087 -0.8754
  717TIP3    H223711   1.557   2.014   5.973  0.6106  0.9271  0.5686
  718TIP3   OH223712   5.497   0.422   2.211 -0.1804  0.4522  0.3206
  718TIP3    H123713   5.535   0.389   2.293  1.0256  0.9174 -0.0262
  718TIP3    H223714   5.419   0.471   2.239  0.0630  0.3797  1.1645
  719TIP3   OH223715   0.803   5.163   1.372 -0.3924 -0.5171 -0.1046
  719TIP3    H123716   0.805   5.074   1.409  1.5694  0.5165  2.6465
  719TIP3    H223717   0.893   5.180   1.344 -0.2513  1.2080  1.2156
  720TIP3   OH223718   1.470   5.558   1.612 -0.2332 -0.5373 -0.2119
  720TIP3    H123719   1.396   5.574   1.670  0.1318 -1.0153  0.3954
  720TIP3    H223720   1.432   5.564   1.524 -1.1056 -1.2562  0.0922
  721TIP3   OH223721   6.213   3.321   6.627  0.2559 -0.1667  0.2074
  721TIP3    H123722   6.191   3.260   6.556 -1.0226  0.9813 -0.4294
  721TIP3    H223723   6.264   3.268   6.689  1.1701 -1.2688 -1.4139
  722TIP3   OH223724   2.545   2.000   6.775  0.6820  0.5255  0.4919
  722TIP3    H123725   2.541   2.075   6.834 -1.2716 -0.1989  1.3586
  722TIP3    H223726   2.459   1.958   6.783  0.5343  0.0320 -2.3941
  723TIP3   OH223727   6.709   0.731   8.627 -0.3019  0.0173  0.0873
  723TIP3    H123728   6.684   0.638   8.630 -0.2592 -0.1638 -2.7949
  723TIP3    H223729   6.643   0.775   8.681 -0.5518 -1.6302  1.1963
  724TIP3   OH223730   5.810   4.031   8.553  0.4478 -0.0637 -0.3393
  724TIP3    H123731   5.845   3.943   8.535 -0.7685 -0.4847 -0.7671
  724TIP3    H223732   5.761   4.022   8.634  1.1961  0.4902  0.1885
  725TIP3   OH223733   0.711   2.965   1.544  0.1876  0.8432 -0.3323
  725TIP3    H123734   0.748   2.961   1.632  0.2231  1.2303 -0.3257
  725TIP3    H223735   0.684   2.875   1.524  0.8169  0.6211 -0.1999
  726TIP3   OH223736   4.589   3.347   0.595  0.0113 -0.3106 -0.3558
  726TIP3    H123737   4.516   3.368   0.537  0.4117 -0.1963 -0.8246
  726TIP3    H223738   4.667   3.374   0.546  0.3089  0.6972  0.6219
  727TIP3   OH223739   3.802   2.404   0.076 -0.2493  0.0850  0.0314
  727TIP3    H123740   3.805   2.434  -0.015 -2.2634  0.5866  0.0820
  727TIP3    H223741   3.810   2.484   0.128  1.4436 -0.2488  0.3572
  728TIP3   OH223742   5.845   5.790   2.153 -0.6029 -0.3035  0.3369
  728TIP3    H123743   5.786   5.854   2.194  0.2486  0.4115  0.4766
  728TIP3    H223744   5.932   5.830   2.160  0.0655 -1.8155  1.1071
  729TIP3   OH223745   1.267   2.424   6.543  0.6034 -0.0978 -0.1054
  729TIP3    H123746   1.317   2.501   6.570 -0.1514  0.0239  1.0275
  729TIP3    H223747   1.191   2.424   6.600  0.9953 -2.1539  0.5123
  730TIP3   OH223748   0.190   2.965   8.184  0.0206  0.2367  0.2544
  730TIP3    H123749   0.284   2.972   8.168  0.2653 -1.4467  0.7714
  730TIP3    H223750   0.165   2.883   8.143 -1.3949  1.0156 -0.5066
  731TIP3   OH223751   4.989   0.263   1.793  0.3261 -1.2142 -0.3901
  731TIP3    H123752   4.912   0.212   1.819  0.2707 -1.6506 -1.3732
  731TIP3    H223753   4.954   0.333   1.737  0.7706 -2.3847 -2.2152
  732TIP3   OH223754   0.289   4.372   0.207  0.1665  0.2991 -0.0350
  732TIP3    H123755   0.216   4.319   0.175  0.4490  0.0944 -0.3493
  732TIP3    H223756   0.275   4.459   0.168  1.3041 -0.3185 -1.9798
  733TIP3   OH223757   0.713   0.531   0.432  0.1548 -0.7537 -0.2327
  733TIP3    H123758   0.750   0.568   0.512  0.3157 -1.5836  0.0783
  733TIP3    H223759   0.672   0.449   0.459 -0.4004 -0.7008 -0.8784
  734TIP3   OH223760   3.866   4.867   0.969 -0.1652  0.1151 -0.1347
  734TIP3    H123761   3.870   4.963   0.966 -3.0332  0.2864 -1.5557
  734TIP3    H223762   3.773   4.847   0.978  0.3688 -2.5643  0.2709
  735TIP3   OH223763   6.754   0.817   1.068  0.2851  0.2904  0.2672
  735TIP3    H123764   6.788   0.761   0.998  1.3316 -1.0003  1.7554
  735TIP3    H223765   6.831   0.866   1.099 -0.0896  0.5622  0.7809
  736TIP3   OH223766   0.080   1.007   7.967  0.0570  0.3118  0.3552
  736TIP3    H123767  -0.011   1.016   7.995 -0.7401  1.9007 -2.4140
  736TIP3    H223768   0.118   1.094   7.978 -0.1313  0.8764 -2.5556
  737TIP3   OH223769   6.442   6.090   7.360  0.7622 -0.2697  0.1936
  737TIP3    H123770   6.483   6.030   7.422 -0.4425  0.4341  1.7677
  737TIP3    H223771   6.448   6.175   7.402  0.1929  0.2959 -0.8309
  738TIP3   OH223772   6.696   4.158   1.231  0.5511 -0.5553 -0.3174
  738TIP3    H123773   6.726   4.246   1.205 -0.0816 -0.5949 -1.2009
  738TIP3    H223774   6.616   4.174   1.280  1.5387 -0.5098  1.3883
  739TIP3   OH223775   5.997   4.498   1.958 -0.0472 -0.7823  0.6805
  739TIP3    H123776   5.976   4.564   1.893  0.2266  0.7541  2.0993
  739TIP3    H223777   6.088   4.516   1.982  0.1661 -1.9414  0.8008
  740TIP3   OH223778   3.333   3.121   1.869 -0.3997  0.2596  0.1197
  740TIP3    H123779   3.328   3.030   1.898  0.6407  0.0390 -0.3858
  740TIP3    H223780   3.355   3.116   1.776  3.2811  1.0098  0.7941
  741TIP3   OH223781   2.724   1.779   0.111 -0.1975  0.4062  0.3237
  741TIP3    H123782   2.792   1.719   0.142  0.8698  1.9761  1.1526
  741TIP3    H223783   2.698   1.828   0.189 -0.6041  1.4357 -0.4361
  742TIP3   OH223784   0.521   1.803   7.322 -0.0338 -0.2363 -0.4842
  742TIP3    H123785   0.556   1.860   7.254  1.0843 -1.4642 -0.9671
  742TIP3    H223786   0.426   1.803   7.307 -0.1723  1.9635 -0.0636
  743TIP3   OH223787   5.939   3.163   6.598  0.8416 -0.0417 -0.2609
  743TIP3    H123788   5.885   3.090   6.566  2.0468 -0.1658 -2.1782
  743TIP3    H223789   6.015   3.120   6.637  0.2123  0.1688  1.2758
  744TIP3   OH223790   5.151   2.144   7.616 -0.5249  0.1564  0.0853
  744TIP3    H123791   5.149   2.236   7.588 -1.4582  0.6045  1.5454
  744TIP3    H223792   5.142   2.095   7.534 -0.7615  1.3726 -0.6520
  745TIP3   OH223793   0.252   3.265   8.245  0.1195  0.2924 -0.1736
  745TIP3    H123794   0.199   3.332   8.200  0.2463 -0.1093 -0.9216
  745TIP3    H223795   0.213   3.182   8.218  0.5046  0.0298  0.0783
  746TIP3   OH223796   4.147   1.988   2.056  0.2838  0.4565  0.3166
  746TIP3    H123797   4.115   1.921   2.115 -2.5596  2.5064  1.3492
  746TIP3    H223798   4.189   2.053   2.113  2.0396  0.1593 -0.5423
  747TIP3   OH223799   3.553   1.656   0.795  0.1944  0.1041  0.4651
  747TIP3    H123800   3.566   1.663   0.890  0.4373  1.3178  0.3491
  747TIP3    H223801   3.600   1.576   0.771  0.7675  0.1850  1.2565
  748TIP3   OH223802   6.408   2.816   2.509 -0.5204  0.1927  0.2844
  748TIP3    H123803   6.425   2.722   2.509  0.3439  0.3405  0.3470
  748TIP3    H223804   6.493   2.856   2.530 -1.1087  0.9389  1.3897
  749TIP3   OH223805   2.876   6.163   1.559  0.1277 -0.5499  0.3967
  749TIP3    H123806   2.952   6.198   1.513  0.0588  0.0040  0.6929
  749TIP3    H223807   2.854   6.083   1.512 -0.5304  0.4994 -1.1631
  750TIP3   OH223808   5.177   0.166   8.532  0.2879  0.4175 -0.3902
  750TIP3    H123809   5.132   0.113   8.598  1.5806 -1.8023 -1.1638
  750TIP3    H223810   5.133   0.251   8.535 -1.1897 -0.3274  1.6966
  751TIP3   OH223811   2.759   4.789   7.457 -0.8566  0.5807 -0.3403
  751TIP3    H123812   2.695   4.797   7.527 -0.2156  1.9171  0.1351
  751TIP3    H223813   2.815   4.866   7.467  1.8546 -1.3207  0.2898
  752TIP3   OH223814   3.384   0.635   0.198 -0.2088 -0.3451 -0.2336
  752TIP3    H123815   3.434   0.711   0.168  0.1034  0.8972  3.0233
  752TIP3    H223816   3.292   0.662   0.192 -0.0858  0.4734  1.2005
  753TIP3   OH223817   2.094   0.315   1.976 -0.3857 -0.2466 -0.3282
  753TIP3    H123818   2.011   0.283   2.012  0.3870  0.1030  1.9289
  753TIP3    H223819   2.151   0.321   2.052  1.3354  0.7291 -1.6534
  754TIP3   OH223820   4.620   3.588   8.730 -0.5684  0.2986  0.5520
  754TIP3    H123821   4.545   3.632   8.689 -0.0211  1.2445  0.5329
  754TIP3    H223822   4.594   3.577   8.822 -1.3623 -0.8423  0.2074
  755TIP3   OH223823   5.706   5.721   8.155 -0.0717  0.0697 -0.1702
  755TIP3    H123824   5.781   5.771   8.122 -1.5964  0.9350 -2.5370
  755TIP3    H223825   5.724   5.631   8.129  0.9432 -0.0703  0.8898
  756TIP3   OH223826   2.051   1.292   7.149 -0.0534  0.1991  0.0887
  756TIP3    H123827   2.129   1.285   7.204  0.8102 -1.0777 -1.2255
  756TIP3    H223828   1.983   1.243   7.196 -0.2515  1.7146  1.4740
  757TIP3   OH223829   2.386   2.439   6.925 -0.7807 -0.3914  0.1564
  757TIP3    H123830   2.390   2.517   6.981  0.4554 -0.5016  0.2523
  757TIP3    H223831   2.294   2.432   6.900 -1.4283 -0.5436  2.4243
  758TIP3   OH223832   1.594   0.326   0.991 -0.2496 -0.1349 -0.0821
  758TIP3    H123833   1.510   0.372   0.982 -0.0833  0.2566  0.3465
  758TIP3    H223834   1.652   0.371   0.929 -0.6432 -1.1125 -1.1916
  759TIP3   OH223835   0.301   6.605   8.550 -0.3564  0.0751  0.1211
  759TIP3    H123836   0.262   6.546   8.616 -0.0189 -1.6513 -1.1479
  759TIP3    H223837   0.278   6.565   8.466  2.2931  0.1643 -0.7251
  760TIP3   OH223838   6.704   0.180   7.257  0.3679 -0.0700 -0.1760
  760TIP3    H123839   6.741   0.121   7.322 -0.3293  0.2263  0.5001
  760TIP3    H223840   6.611   0.183   7.277 -0.1954 -1.3072 -2.2444
  761TIP3   OH223841   5.962   1.706   0.926  0.0558  0.1860 -0.3398
  761TIP3    H123842   5.960   1.612   0.942  1.3883  0.2616  0.3751
  761TIP3    H223843   5.904   1.743   0.992 -0.2121 -0.1023 -0.4116
  762TIP3   OH223844   0.652   2.679   1.739 -0.0173 -0.0589  0.6224
  762TIP3    H123845   0.643   2.704   1.831 -1.0881 -0.6905  0.7093
  762TIP3    H223846   0.741   2.703   1.716 -0.7082  3.2751  0.8583
  763TIP3   OH223847   1.977   5.594   0.118  0.6543  0.2134  0.5157
  763TIP3    H123848   1.986   5.677   0.071 -0.3025 -0.1578 -0.3646
  763TIP3    H223849   1.894   5.601   0.164  0.4783 -0.3201  0.2916
  764TIP3   OH223850   4.490   5.165   1.799  0.1046 -0.2204  0.0226
  764TIP3    H123851   4.428   5.117   1.745  1.1878 -0.1657 -1.3336
  764TIP3    H223852   4.568   5.174   1.744  0.8729  0.7849  1.2098
  765TIP3   OH223853   2.243   2.323   1.383 -0.1778  0.1719 -0.6823
  765TIP3    H123854   2.157   2.364   1.380 -0.9366 -1.4102 -1.6687
  765TIP3    H223855   2.228   2.237   1.422  0.4042 -1.2864 -3.4125
  766TIP3   OH223856   5.399   6.131   6.454  0.3603  0.0502 -0.5103
  766TIP3    H123857   5.475   6.159   6.403  0.0677 -0.1734 -1.0722
  766TIP3    H223858   5.339   6.205   6.449  0.3769  0.0719 -0.3925
  767TIP3   OH223859   3.320   3.652   8.492 -0.3387 -0.1780  0.8035
  767TIP3    H123860   3.365   3.709   8.554  1.3155 -0.0282 -0.4452
  767TIP3    H223861   3.235   3.693   8.478  0.9023  2.2394 -0.2961
  768TIP3   OH223862   0.991   2.121   6.789 -0.4007 -0.0660 -0.1863
  768TIP3    H123863   0.986   2.102   6.695  0.5544 -0.6452 -0.1341
  768TIP3    H223864   1.016   2.213   6.793  1.3398 -0.4864 -0.5461
  769TIP3   OH223865   1.616   1.043   7.701 -0.3468 -0.6315  0.1394
  769TIP3    H123866   1.662   1.010   7.624 -1.0177 -0.7271 -0.2254
  769TIP3    H223867   1.581   0.965   7.744  0.2108 -0.6006  0.6774
  770TIP3   OH223868   4.854   1.737   7.429  0.4268  0.2413  0.7864
  770TIP3    H123869   4.803   1.740   7.511 -2.1603  1.0552 -0.7301
  770TIP3    H223870   4.936   1.782   7.450  0.3165 -0.5622  3.2083
  771TIP3   OH223871   0.127   5.141   1.591 -0.0378 -0.4508  0.4823
  771TIP3    H123872   0.213   5.099   1.584  0.0459 -0.2222  0.0811
  771TIP3    H223873   0.084   5.119   1.509 -0.5619 -0.9922  0.8988
  772TIP3   OH223874   1.633   1.303   2.093 -0.0472  0.1075 -0.1084
  772TIP3    H123875   1.607   1.370   2.029  1.1233 -0.1064 -0.8400
  772TIP3    H223876   1.645   1.223   2.041  1.3754  0.0403  0.2771
  773TIP3   OH223877   6.213   1.280   7.018  0.0759  0.1333  0.3908
  773TIP3    H123878   6.194   1.346   6.951  0.5743 -0.2475 -0.1310
  773TIP3    H223879   6.288   1.232   6.984  1.2428  0.8279  1.8678
  774TIP3   OH223880   0.088   5.725   8.433 -0.3983  0.7536 -0.0965
  774TIP3    H123881   0.091   5.634   8.463 -1.3177  0.6420 -0.3333
  774TIP3    H223882   0.044   5.772   8.504 -1.3702  0.7253 -0.6781
  775TIP3   OH223883   1.957   0.579   7.010  0.0574  0.0424 -0.7819
  775TIP3    H123884   2.038   0.569   7.059  0.7148 -0.9757 -2.0060
  775TIP3    H223885   1.983   0.624   6.929 -0.6403 -0.0113 -1.0429
  776TIP3   OH223886   4.216   2.709   0.444 -0.1254  0.1242 -0.8301
  776TIP3    H123887   4.181   2.669   0.364 -2.1203  0.6499 -0.2676
  776TIP3    H223888   4.215   2.803   0.426  2.0449  0.1247 -1.1659
  777TIP3   OH223889   5.895   6.114   7.615 -0.0802 -0.2609  0.2301
  777TIP3    H123890   5.922   6.154   7.697  1.0977 -0.8693  0.1639
  777TIP3    H223891   5.869   6.187   7.559  0.9971  0.3325  0.4746
  778TIP3   OH223892   4.275   5.031   1.000 -0.5115 -0.0106 -0.0292
  778TIP3    H123893   4.295   5.029   0.906 -0.3658  1.7620 -0.0774
  778TIP3    H223894   4.183   5.055   1.005 -0.2294  1.1088  0.2563
  779TIP3   OH223895   2.814   6.332   1.884 -0.0982  0.2474 -0.0488
  779TIP3    H123896   2.782   6.373   1.965  0.4687 -0.9213  0.7983
  779TIP3    H223897   2.843   6.406   1.830 -0.6492  1.0662  0.7362
  780TIP3   OH223898   6.196   1.800   1.990  0.2885  0.8061  0.3989
  780TIP3    H123899   6.246   1.881   2.001  1.4019  0.0084  1.4787
  780TIP3    H223900   6.249   1.733   2.033 -0.1424 -0.6937 -1.2920
  781TIP3   OH223901   3.977   4.151   8.382  0.6255 -0.3309  0.2082
  781TIP3    H123902   3.989   4.139   8.476 -1.4330  0.0283  0.5680
  781TIP3    H223903   3.982   4.246   8.369  0.8788 -0.3780 -0.0527
  782TIP3   OH223904   5.036   6.684   1.203  0.0245  0.8129  0.0214
  782TIP3    H123905   5.029   6.602   1.155 -0.4561  0.2907  0.9429
  782TIP3    H223906   4.974   6.743   1.160  0.3638  0.6912 -0.6385
  783TIP3   OH223907   6.150   3.613   2.439 -0.0585 -0.3453 -0.1670
  783TIP3    H123908   6.081   3.553   2.411  0.1241 -0.1207 -1.1537
  783TIP3    H223909   6.208   3.560   2.492 -1.3620 -0.3732  1.2986
  784TIP3   OH223910   3.159   0.330   8.510  0.0174  0.3791 -0.7425
  784TIP3    H123911   3.083   0.329   8.568  0.0002 -1.3087 -0.7542
  784TIP3    H223912   3.164   0.241   8.475  3.1662 -0.1948  0.7803
  785TIP3   OH223913   0.551   1.923   7.786  0.5162  0.3336 -0.1435
  785TIP3    H123914   0.593   1.961   7.863  0.8758  0.1642 -0.2537
  785TIP3    H223915   0.623   1.885   7.736  0.4721  1.5608 -1.2155
  786TIP3   OH223916   0.102   4.931   0.924  0.1828 -0.2824 -0.2058
  786TIP3    H123917   0.174   4.872   0.901  1.8101  1.7881 -0.7016
  786TIP3    H223918   0.044   4.929   0.847  0.6443 -0.5914 -0.5494
  787TIP3   OH223919   0.782   6.632   1.142 -0.5232  0.5025  0.1436
  787TIP3    H123920   0.848   6.636   1.212 -0.6984  1.3582  0.2720
  787TIP3    H223921   0.809   6.558   1.088  1.1700  1.4568 -0.4223
  788TIP3   OH223922   2.619   4.622   2.009 -0.4863  0.1689  0.1650
  788TIP3    H123923   2.712   4.630   2.026 -0.8714  1.3098  2.0024
  788TIP3    H223924   2.599   4.529   2.020  0.5645 -0.2401 -1.1696
  789TIP3   OH223925   6.434   4.271   0.153 -0.3389 -0.1042 -0.6632
  789TIP3    H123926   6.401   4.182   0.162 -0.9735  0.3206  2.2678
  789TIP3    H223927   6.358   4.322   0.123 -0.7757 -0.1278  0.3501
  790TIP3   OH223928   1.629   0.278   8.612  0.3537 -0.0993  0.3779
  790TIP3    H123929   1.672   0.362   8.594 -1.3834  0.7341 -0.1555
  790TIP3    H223930   1.646   0.225   8.535 -0.2842  0.5534 -0.2380
  791TIP3   OH223931   2.467   0.585   0.716  0.5956  0.1348 -0.3504
  791TIP3    H123932   2.509   0.641   0.652  0.7188  0.4471  0.0009
  791TIP3    H223933   2.474   0.633   0.799  0.0181 -0.0488 -0.1894
  792TIP3   OH223934   3.012   6.006   6.381 -0.3043 -0.1516  0.1192
  792TIP3    H123935   3.017   5.935   6.445  0.8857  0.1207  0.3659
  792TIP3    H223936   2.938   5.983   6.325  0.1112 -1.6336  0.1299
  793TIP3   OH223937   5.634   3.384   1.909  0.3577 -0.3389  0.1531
  793TIP3    H123938   5.610   3.336   1.988  0.6353 -1.6717 -0.5527
  793TIP3    H223939   5.724   3.356   1.889  1.5243  2.3338  1.0803
  794TIP3   OH223940   6.766   5.600   1.615  0.7804  0.3281 -0.1403
  794TIP3    H123941   6.846   5.548   1.622  1.5628  1.5207  0.0432
  794TIP3    H223942   6.698   5.536   1.595  1.4945 -0.9293  1.2525
  795TIP3   OH223943   1.455   0.412   8.376  0.3334 -0.2832  0.1751
  795TIP3    H123944   1.446   0.503   8.348  1.6515 -0.0518  0.4345
  795TIP3    H223945   1.409   0.407   8.459 -0.2554 -0.0025 -0.1316
  796TIP3   OH223946   4.803   6.680   0.940 -0.5633 -0.2238  0.1998
  796TIP3    H123947   4.851   6.604   0.971 -1.5955 -1.0512 -0.1707
  796TIP3    H223948   4.724   6.683   0.994 -0.0707  1.2040  0.9022
  797TIP3   OH223949   3.189   1.459   8.224 -0.0258  0.0224  0.0326
  797TIP3    H123950   3.161   1.543   8.259  0.7861  1.1864 -1.9981
  797TIP3    H223951   3.108   1.414   8.201 -0.5006 -0.1306  1.8043
  798TIP3   OH223952   5.470   4.003   7.089 -0.2985  0.3110  0.1568
  798TIP3    H123953   5.499   3.914   7.070  1.5504  0.9543 -0.2501
  798TIP3    H223954   5.424   3.996   7.172  1.7214 -0.7264  1.2806
  799TIP3   OH223955   5.206   3.376   0.219  0.0232  0.3573  0.2060
  799TIP3    H123956   5.267   3.394   0.290 -0.0590  0.4802  0.2460
  799TIP3    H223957   5.135   3.326   0.261 -0.6995  1.5718  0.5107
  800TIP3   OH223958   6.356   5.513   8.083  0.0138  0.1860 -0.3582
  800TIP3    H123959   6.402   5.511   8.167 -0.6148 -1.1501 -0.0209
  800TIP3    H223960   6.389   5.437   8.035 -2.2669 -1.2527  0.1679
  801TIP3   OH223961   5.512   5.183   8.001  0.4408 -0.4684  0.6031
  801TIP3    H123962   5.471   5.141   8.077  1.6443 -1.2159  0.8582
  801TIP3    H223963   5.465   5.147   7.926  0.1960 -0.8232  0.9192
  802TIP3   OH223964   4.857   0.081   1.191  0.6977  0.2587 -0.0474
  802TIP3    H123965   4.907   0.127   1.124  0.9370 -0.5805 -0.4566
  802TIP3    H223966   4.784   0.140   1.211  0.6227  0.5282 -1.0514
  803TIP3   OH223967   0.737   5.425   1.369 -0.3023 -0.1392  0.5549
  803TIP3    H123968   0.677   5.400   1.439 -1.5607 -0.5704 -0.6427
  803TIP3    H223969   0.769   5.342   1.333  0.5973  0.0800  0.8046
  804TIP3   OH223970   0.202   4.964   8.271  0.3874 -0.3080 -0.4607
  804TIP3    H123971   0.233   4.882   8.312  2.8596  0.6954 -0.1067
  804TIP3    H223972   0.162   4.937   8.189  1.0010 -1.9004 -0.2680
  805TIP3   OH223973   5.871   1.395   7.825  0.0615  0.2552 -0.4647
  805TIP3    H123974   5.804   1.372   7.889  2.4240 -0.0032  2.0830
  805TIP3    H223975   5.874   1.321   7.764 -1.9381  0.3203 -0.7095
  806TIP3   OH223976   4.087   0.324   2.340 -0.3171  0.0896  0.4225
  806TIP3    H123977   4.080   0.229   2.346 -0.5353 -0.1201 -1.9965
  806TIP3    H223978   4.021   0.357   2.401 -1.0985 -1.3438  0.4056
  807TIP3   OH223979   2.761   1.084   0.175 -0.2310  0.6468 -0.1992
  807TIP3    H123980   2.713   1.094   0.257 -2.2233 -0.5544 -1.1455
  807TIP3    H223981   2.737   1.160   0.123 -0.3858  0.5271 -0.3072
  808TIP3   OH223982   2.777   3.915   6.994 -0.3488 -0.4038  0.5500
  808TIP3    H123983   2.840   3.987   6.988  1.6570 -2.1355 -1.2514
  808TIP3    H223984   2.832   3.836   6.995 -2.4740 -1.9763  0.2154
  809TIP3   OH223985   1.571   1.987   6.994 -1.2086  0.0053  0.2025
  809TIP3    H123986   1.621   2.068   7.001  0.7350 -1.1917  1.2098
  809TIP3    H223987   1.626   1.929   6.941 -2.0285 -0.9927  0.4099
  810TIP3   OH223988   5.811   6.400   1.314  0.2770 -0.0643 -0.3462
  810TIP3    H123989   5.737   6.360   1.268 -0.0282 -1.4163  1.2388
  810TIP3    H223990   5.807   6.493   1.290 -0.3471 -0.5484 -2.3410
  811TIP3   OH223991   0.313   6.440   0.285 -0.0847  0.7923 -0.3385
  811TIP3    H123992   0.374   6.506   0.251 -0.1873  0.9705 -0.1769
  811TIP3    H223993   0.227   6.479   0.275 -0.1243  0.7978  0.0139
  812TIP3   OH223994   1.880   3.891   0.838  0.2829 -0.2787 -0.4379
  812TIP3    H123995   1.817   3.847   0.780  0.6237  1.2221 -2.0042
  812TIP3    H223996   1.842   3.881   0.925 -0.7911 -1.6633 -1.0177
  813TIP3   OH223997   4.667   1.676   0.793 -0.0091 -0.1871  0.1422
  813TIP3    H123998   4.577   1.650   0.776 -0.2201  0.0121  0.9079
  813TIP3    H223999   4.683   1.749   0.733 -1.0657  1.1666  1.4236
  814TIP3   OH224000   0.621   2.015   2.236 -0.3511 -0.3185  0.0558
  814TIP3    H124001   0.682   1.964   2.288  0.2018  0.1177 -0.1509
  814TIP3    H224002   0.568   2.062   2.300 -0.7510 -1.0069  0.2432
  815TIP3   OH224003   0.309   3.576   1.658 -0.2952 -0.2041  0.3987
  815TIP3    H124004   0.358   3.496   1.674  1.5916  0.9476  0.6592
  815TIP3    H224005   0.312   3.588   1.563 -0.2896 -0.2678  0.3912
  816TIP3   OH224006   3.449   5.296   1.585 -0.0789  0.1873 -0.0908
  816TIP3    H124007   3.378   5.235   1.604 -0.7831  0.8414 -0.5542
  816TIP3    H224008   3.465   5.286   1.491  0.8508 -0.3699  0.1133
  817TIP3   OH224009   1.698   4.240   0.221  0.3441 -0.6571  0.6527
  817TIP3    H124010   1.627   4.260   0.159 -0.0924 -2.5769  0.4896
  817TIP3    H224011   1.775   4.283   0.182 -0.5926  1.1063  0.6201
  818TIP3   OH224012   2.842   4.769   8.213 -0.2637  0.5491  0.3170
  818TIP3    H124013   2.805   4.706   8.151 -2.0305  1.9233 -0.0915
  818TIP3    H224014   2.930   4.736   8.231 -0.2919 -0.7504 -1.6684
  819TIP3   OH224015   3.121   1.710   0.003  0.2793 -0.3878 -0.3620
  819TIP3    H124016   3.115   1.774   0.074  2.2878  0.0663 -0.5244
  819TIP3    H224017   3.105   1.761  -0.076 -1.2886 -0.7618 -0.3185
  820TIP3   OH224018   3.403   6.179   6.732 -0.4079 -0.1972  0.0808
  820TIP3    H124019   3.354   6.116   6.679 -0.8604  0.5609 -0.4298
  820TIP3    H224020   3.495   6.164   6.709 -0.5392 -0.4176 -0.3145
  821TIP3   OH224021   5.856   5.966   7.354 -0.3375 -0.1440  0.0374
  821TIP3    H124022   5.850   6.037   7.290 -1.4634 -1.0364 -0.8956
  821TIP3    H224023   5.858   6.010   7.439 -1.5302  1.0071 -0.4914
  822TIP3   OH224024   3.602   0.645   2.101 -0.9236 -0.1277  0.2386
  822TIP3    H124025   3.695   0.650   2.082 -0.7659  2.5651  1.2777
  822TIP3    H224026   3.597   0.598   2.184 -0.5808 -0.8519 -0.1372
  823TIP3   OH224027   1.307   2.611   0.566  0.0719  0.2528  0.0977
  823TIP3    H124028   1.326   2.530   0.519  1.5262  0.4946  0.2313
  823TIP3    H224029   1.383   2.626   0.621 -0.7704  0.9992  1.1158
  824TIP3   OH224030   2.285   5.634   8.294  0.3250  0.0126  0.0930
  824TIP3    H124031   2.235   5.577   8.351  2.3573 -1.0426  0.9413
  824TIP3    H224032   2.276   5.595   8.207  0.7744 -0.9830  0.4733
  825TIP3   OH224033   1.873   5.175   0.062 -0.5540  0.4124 -0.5614
  825TIP3    H124034   1.861   5.243  -0.005 -2.0711 -0.8093 -1.6037
  825TIP3    H224035   1.914   5.102   0.015 -1.8670 -0.5522 -0.2533
  826TIP3   OH224036   5.940   4.152   0.057 -0.1776  1.1134 -0.2665
  826TIP3    H124037   5.933   4.194  -0.028 -3.0920 -0.0381 -0.7252
  826TIP3    H224038   5.863   4.183   0.106 -1.0260 -1.5491  0.2812
  827TIP3   OH224039   6.666   0.848   0.209  0.4017 -0.6231 -0.1232
  827TIP3    H124040   6.759   0.856   0.187  0.1679 -0.0805 -0.9315
  827TIP3    H224041   6.653   0.754   0.224  1.1083 -0.6814  0.1633
  828TIP3   OH224042   3.894   2.955   8.478 -0.1020 -0.0828  0.7644
  828TIP3    H124043   3.920   3.003   8.399  1.9704 -0.4634  1.1462
  828TIP3    H224044   3.802   2.976   8.489  0.1747  2.0629 -0.3070
  829TIP3   OH224045   4.037   4.227   2.653 -0.6318  0.2193 -0.2585
  829TIP3    H124046   4.067   4.138   2.670  0.3897  0.6419  0.2025
  829TIP3    H224047   3.948   4.216   2.619 -1.1208 -0.8989  1.2546
  830TIP3   OH224048   2.221   3.737   1.283 -0.0811 -0.0315 -0.8901
  830TIP3    H124049   2.303   3.754   1.329  0.0137 -2.2573 -0.1090
  830TIP3    H224050   2.153   3.770   1.342  0.1114 -1.6952  0.3509
  831TIP3   OH224051   0.522   1.734   6.997  0.4313  0.0920  0.6892
  831TIP3    H124052   0.529   1.638   6.995  0.8116  0.1284  0.0760
  831TIP3    H224053   0.500   1.758   6.907  2.3628  0.7250  0.3338
  832TIP3   OH224054   2.977   2.853   7.855 -0.3936 -0.5352  1.0790
  832TIP3    H124055   2.963   2.887   7.944  0.0700  1.5119  0.4264
  832TIP3    H224056   3.022   2.924   7.809  0.7800 -2.1382 -0.3858
  833TIP3   OH224057   0.691   3.932   0.046 -0.3829  0.3643 -0.4969
  833TIP3    H124058   0.776   3.972   0.063 -1.0902  1.4403  0.7388
  833TIP3    H224059   0.711   3.851  -0.000  1.2581  0.9453 -0.8681
  834TIP3   OH224060   3.873   5.807   7.677 -0.0189 -0.6591  0.2901
  834TIP3    H124061   3.812   5.841   7.742  0.2225  0.4670 -0.0602
  834TIP3    H224062   3.933   5.752   7.727 -0.6134 -0.8500  0.8088
  835TIP3   OH224063   5.972   4.816   1.955 -0.2592  0.4880  0.5613
  835TIP3    H124064   5.992   4.910   1.949 -0.2632  0.4738  0.3317
  835TIP3    H224065   6.036   4.782   2.018  0.7788  0.3475 -0.5267
  836TIP3   OH224066   4.806   5.086   7.268 -0.1368 -0.5251  0.6795
  836TIP3    H124067   4.888   5.092   7.219 -0.9838  0.5505 -0.6473
  836TIP3    H224068   4.739   5.118   7.208 -1.1839  1.1838  2.6320
  837TIP3   OH224069   1.422   6.514   0.967 -0.0238 -0.2491  0.2204
  837TIP3    H124070   1.470   6.473   1.039  2.5867  2.5164  0.2726
  837TIP3    H224071   1.453   6.468   0.889  2.0316  0.7690  0.3668
  838TIP3   OH224072   5.115   2.265   1.490  0.1175 -0.4650 -0.2651
  838TIP3    H124073   5.121   2.359   1.510  1.6665 -0.5456 -0.2262
  838TIP3    H224074   5.071   2.261   1.405 -2.2801  0.1342  0.8680
  839TIP3   OH224075   4.389   3.176   1.970 -0.2006 -0.6821 -0.3142
  839TIP3    H124076   4.388   3.091   1.925 -1.3328 -0.2782 -1.0734
  839TIP3    H224077   4.472   3.216   1.945 -0.0528 -1.1921 -0.6466
  840TIP3   OH224078   1.703   4.394   0.698  0.2369 -0.0350  0.0168
  840TIP3    H124079   1.624   4.348   0.671 -0.2988 -0.1562  1.6542
  840TIP3    H224080   1.771   4.327   0.701 -0.2759 -0.5267  1.2843
  841TIP3   OH224081   5.863   4.809   0.704 -0.3135  0.1972 -0.0621
  841TIP3    H124082   5.922   4.762   0.762 -1.1029 -1.3130 -0.4173
  841TIP3    H224083   5.897   4.792   0.616 -2.2259 -2.3237 -0.4461
  842TIP3   OH224084   3.685   5.094   1.800 -0.4333  0.2272  0.5038
  842TIP3    H124085   3.754   5.065   1.860 -1.2907  1.9492  2.4511
  842TIP3    H224086   3.604   5.062   1.839 -0.9693  0.8528 -0.0709
  843TIP3   OH224087   3.062   2.310   1.664  0.4419 -0.7117 -0.2464
  843TIP3    H124088   3.046   2.397   1.629 -1.3859 -0.5269  0.9748
  843TIP3    H224089   3.120   2.269   1.599  1.2777  1.3468 -0.8767
  844TIP3   OH224090   5.482   3.234   0.010 -0.0816 -0.1835 -0.0753
  844TIP3    H124091   5.423   3.203   0.078 -1.5361 -1.1608 -1.6914
  844TIP3    H224092   5.504   3.324   0.036 -0.8061 -0.4297  1.5003
  845TIP3   OH224093   5.026   0.086   8.739 -0.0463  0.3575 -0.2206
  845TIP3    H124094   5.093   0.090   8.807  0.5413 -0.9237 -0.6928
  845TIP3    H224095   4.962   0.023   8.772  0.0367  0.0331 -0.6636
  846TIP3   OH224096   1.083   5.287   8.149 -0.1623  0.7289 -0.1803
  846TIP3    H124097   1.087   5.352   8.079 -0.0225  1.3183  0.3682
  846TIP3    H224098   1.142   5.320   8.217 -2.2125  1.5285  1.3317
  847TIP3   OH224099   4.961   3.799   7.720 -0.7231 -0.0655 -1.0151
  847TIP3    H124100   4.902   3.781   7.647 -0.3393 -0.6044 -1.1939
  847TIP3    H224101   4.933   3.738   7.788 -1.2122  0.5729 -0.6290
  848TIP3   OH224102   3.615   1.794   1.384 -0.3600  0.1742 -0.0781
  848TIP3    H124103   3.655   1.843   1.313 -1.5684  1.0130 -0.2081
  848TIP3    H224104   3.596   1.860   1.451 -1.9770 -0.1028 -0.2398
  849TIP3   OH224105   0.887   6.310   2.503  0.4592  0.4304  0.3067
  849TIP3    H124106   0.847   6.389   2.466 -0.4240  0.3206  0.9754
  849TIP3    H224107   0.816   6.271   2.555  1.9130  1.1405  3.0101
  850TIP3   OH224108   1.185   1.721   0.490  0.1057 -0.0813  0.1150
  850TIP3    H124109   1.277   1.717   0.517  0.2746  0.7658 -0.3068
  850TIP3    H224110   1.136   1.726   0.572  0.5895  2.1262  0.3104
  851TIP3   OH224111   6.125   2.738   0.039  0.4196 -0.7641 -0.0862
  851TIP3    H124112   6.123   2.643   0.049 -1.2244 -0.8446 -0.9230
  851TIP3    H224113   6.070   2.756  -0.037  0.8860  0.8493 -0.0882
  852TIP3   OH224114   5.002   3.400   7.144  0.0457 -0.2609 -0.7390
  852TIP3    H124115   4.982   3.412   7.051  0.8133 -3.2508 -1.3829
  852TIP3    H224116   4.922   3.362   7.181  0.5056 -1.1787 -0.6819
  853TIP3   OH224117   1.131   1.584   1.037  0.9370 -0.0212  0.1215
  853TIP3    H124118   1.123   1.640   1.114  0.3283 -1.3397  1.0476
  853TIP3    H224119   1.042   1.578   1.002  0.8450 -1.0400  0.5000
  854TIP3   OH224120   0.797   6.824   0.930 -0.1863 -0.4697 -0.3069
  854TIP3    H124121   0.784   6.906   0.977 -1.9980 -0.8236 -0.1395
  854TIP3    H224122   0.840   6.766   0.994 -1.3201 -0.4892  0.4554
  855TIP3   OH224123   5.062   0.216   2.345 -0.2943  0.8895 -0.6936
  855TIP3    H124124   5.150   0.179   2.338 -0.2716  0.5573  0.8856
  855TIP3    H224125   5.005   0.150   2.306 -0.2884 -1.1252  2.3599
  856TIP3   OH224126   0.168   3.862   0.118 -0.0064 -0.3633 -0.2049
  856TIP3    H124127   0.075   3.840   0.109 -0.4568  1.4630 -0.4076
  856TIP3    H224128   0.183   3.929   0.052  1.3866 -0.4054  0.0426
  857TIP3   OH224129   4.181   3.363   2.061 -1.3996  0.1753 -0.3438
  857TIP3    H124130   4.256   3.317   2.023  0.1862  2.0981  0.2886
  857TIP3    H224131   4.124   3.294   2.094  0.2388 -1.3494 -0.5807
  858TIP3   OH224132   1.687   3.548   1.092  0.8007  0.6042  0.3303
  858TIP3    H124133   1.779   3.521   1.092  0.4433 -0.7481 -1.0593
  858TIP3    H224134   1.690   3.643   1.080  2.0116  0.6028  0.4575
  859TIP3   OH224135   1.168   0.120   0.246 -0.2410 -0.0891 -0.1311
  859TIP3    H124136   1.132   0.043   0.202  1.0462 -2.3661  2.4611
  859TIP3    H224137   1.261   0.099   0.258 -0.6022 -0.0191  4.1093
  860TIP3   OH224138   1.546   2.916   0.473 -0.1987  0.5409 -0.1457
  860TIP3    H124139   1.542   2.824   0.497 -1.1753  0.4345 -0.6424
  860TIP3    H224140   1.599   2.918   0.393  1.0525  0.6044  0.6671
  861TIP3   OH224141   5.354   2.420   8.313  0.9114  0.0542  0.6871
  861TIP3    H124142   5.323   2.500   8.357  0.1044  0.3996 -0.4825
  861TIP3    H224143   5.415   2.451   8.246  0.1787 -0.2613 -0.1362
  862TIP3   OH224144   2.386   1.235   6.689  0.3085  0.3498 -0.1573
  862TIP3    H124145   2.358   1.199   6.604  0.2834 -0.2351  0.0886
  862TIP3    H224146   2.481   1.241   6.683  0.3721 -0.3782  0.0256
  863TIP3   OH224147   6.384   3.352   0.296  0.1876 -0.0730 -0.0550
  863TIP3    H124148   6.473   3.356   0.262  0.1425  3.3264 -0.0997
  863TIP3    H224149   6.329   3.343   0.217  0.3801  0.6967 -0.2800
  864TIP3   OH224150   6.618   0.915   8.114  0.2593 -0.0593  0.3031
  864TIP3    H124151   6.674   0.857   8.166 -0.3457 -3.2053 -2.2692
  864TIP3    H224152   6.535   0.917   8.161 -0.3125 -2.9228 -0.4310
  865TIP3   OH224153   0.168   5.471   7.385 -0.5129 -0.5387 -0.5308
  865TIP3    H124154   0.128   5.521   7.314 -0.5523 -0.3694 -0.3895
  865TIP3    H224155   0.172   5.532   7.458 -0.9436 -0.8639 -0.2271
  866TIP3   OH224156   3.041   6.357   1.430  0.0942  0.2611 -0.6016
  866TIP3    H124157   2.999   6.337   1.346 -1.6239  1.9347 -0.1974
  866TIP3    H224158   3.003   6.440   1.457 -0.9045 -1.1465  2.7927
  867TIP3   OH224159   3.286   0.325   8.208  0.0393 -0.2577 -0.3729
  867TIP3    H124160   3.350   0.394   8.191  0.4375 -0.3774  0.5453
  867TIP3    H224161   3.207   0.353   8.162 -0.4796  1.8873  1.6426
  868TIP3   OH224162   2.069   2.305   0.970  0.1065  0.1170  0.1831
  868TIP3    H124163   2.125   2.380   0.988  1.1292 -0.0420 -2.0109
  868TIP3    H224164   2.130   2.233   0.953 -0.7948 -0.5389 -0.3747
  869TIP3   OH224165   3.452   3.482   8.337 -0.4189  0.1916 -0.0903
  869TIP3    H124166   3.548   3.484   8.328 -0.0464 -2.2772  2.2625
  869TIP3    H224167   3.433   3.553   8.398  0.0817 -0.0907  0.4084
  870TIP3   OH224168   3.133   1.304   1.551 -0.1217  0.2641  0.4230
  870TIP3    H124169   3.119   1.238   1.484  0.3560 -0.1396  0.7135
  870TIP3    H224170   3.125   1.387   1.505  0.6538 -0.0119 -0.2290
  871TIP3   OH224171   1.941   5.833   8.728  0.7096  0.2426 -0.3825
  871TIP3    H124172   1.944   5.899   8.798  0.5057  1.0438 -1.1215
  871TIP3    H224173   2.027   5.838   8.687 -0.3461  2.4239 -2.5662
  872TIP3   OH224174   1.617   0.218   0.682  0.5676 -0.4140 -0.2143
  872TIP3    H124175   1.531   0.256   0.668  1.2156  0.8585 -0.9196
  872TIP3    H224176   1.600   0.128   0.710 -1.0181  0.2641  1.1654
  873TIP3   OH224177   2.902   1.011   7.391 -0.3465  0.5614  0.3818
  873TIP3    H124178   2.941   0.924   7.389  0.6780  1.0075  0.3551
  873TIP3    H224179   2.974   1.070   7.371 -0.9259  1.4517  0.8594
  874TIP3   OH224180   0.359   1.750   2.558 -0.2476 -0.3098 -0.7163
  874TIP3    H124181   0.425   1.784   2.618 -0.6289 -0.9788  0.1008
  874TIP3    H224182   0.359   1.812   2.484  1.5117 -0.4945 -0.9026
  875TIP3   OH224183   6.591   2.599   1.254 -0.3596  0.0684  0.5070
  875TIP3    H124184   6.611   2.512   1.219 -2.3078  0.3828 -1.6807
  875TIP3    H224185   6.558   2.582   1.342 -0.0654 -1.3507  0.3683
  876TIP3   OH224186   6.552   6.583   0.089 -0.2298  0.7594 -0.3755
  876TIP3    H124187   6.501   6.539   0.157  0.1703 -0.1399 -0.6407
  876TIP3    H224188   6.610   6.642   0.137  0.7928 -0.6312  0.1606
  877TIP3   OH224189   2.892   3.489   0.546  0.3335 -0.1514 -0.0772
  877TIP3    H124190   2.878   3.567   0.599 -2.2691 -1.4321  1.2998
  877TIP3    H224191   2.860   3.513   0.458  2.0358  1.0856 -0.4154
  878TIP3   OH224192   3.593   1.536   2.321 -0.1376  0.8782  0.0260
  878TIP3    H124193   3.615   1.625   2.351  0.5559  0.4753  0.7408
  878TIP3    H224194   3.600   1.482   2.400 -0.9602  0.2514 -0.3227
  879TIP3   OH224195   5.555   6.780   1.365 -0.2722  0.0860  0.3155
  879TIP3    H124196   5.532   6.816   1.451  0.6447  0.2131  0.5161
  879TIP3    H224197   5.496   6.705   1.354  1.1733 -1.4222  2.1255
  880TIP3   OH224198   0.495   1.456   1.854 -0.0493  0.7907  0.8612
  880TIP3    H124199   0.490   1.391   1.784 -0.7942  0.0262  1.5966
  880TIP3    H224200   0.491   1.540   1.809  0.3066  0.3291 -0.0648
  881TIP3   OH224201   0.154   1.184   0.856  0.2762 -0.7243 -0.3677
  881TIP3    H124202   0.203   1.225   0.785  0.5304 -0.4226 -0.0235
  881TIP3    H224203   0.063   1.210   0.841  0.2860 -0.9200 -0.7598
  882TIP3   OH224204   4.292   5.710   0.830  1.1201  0.4029 -0.1138
  882TIP3    H124205   4.209   5.671   0.859  1.4196  0.4915  0.9262
  882TIP3    H224206   4.289   5.705   0.735  0.7403 -1.3119 -0.0510
  883TIP3   OH224207   5.978   2.806   0.341  0.1291  0.0406  0.4878
  883TIP3    H124208   5.923   2.859   0.284  0.0145 -0.2547  0.3177
  883TIP3    H224209   5.987   2.857   0.421 -1.4825 -0.4797  1.0379
  884TIP3   OH224210   5.822   3.020   0.944  0.3841 -0.1716  0.1873
  884TIP3    H124211   5.729   3.030   0.962  0.1199 -0.4369 -0.9042
  884TIP3    H224212   5.844   3.096   0.889  0.9559  0.1931  0.8977
  885TIP3   OH224213   3.839   6.602   7.425 -0.7142 -0.5625  0.1199
  885TIP3    H124214   3.889   6.624   7.347 -0.7843 -2.0333 -0.3732
  885TIP3    H224215   3.798   6.684   7.452  0.9837  0.4044 -0.1624
  886TIP3   OH224216   3.566   4.061   8.586  0.1666  0.5835 -0.3500
  886TIP3    H124217   3.591   3.996   8.520 -1.4152  0.7885 -1.2026
  886TIP3    H224218   3.600   4.027   8.668  0.2446 -0.8133 -0.9400
  887TIP3   OH224219   3.797   6.801   1.152  0.1149  0.1008  0.0651
  887TIP3    H124220   3.889   6.783   1.171 -0.2881 -1.6200  0.5635
  887TIP3    H224221   3.797   6.832   1.061  1.0976 -0.6656 -0.2103
  888TIP3   OH224222   4.939   5.339   1.963 -0.6315 -0.6253  0.4116
  888TIP3    H124223   4.980   5.415   2.004  0.9224 -2.2470  2.1059
  888TIP3    H224224   4.887   5.299   2.033 -2.1307 -0.6847 -0.6884
  889TIP3   OH224225   5.217   3.101   8.443 -0.4148  0.3965 -0.4323
  889TIP3    H124226   5.184   3.014   8.424 -1.1948  0.1793  1.7187
  889TIP3    H224227   5.176   3.157   8.377 -0.1171 -0.7908 -1.6613
  890TIP3   OH224228   3.498   0.822   1.645  0.3806  0.0719 -0.2642
  890TIP3    H124229   3.457   0.792   1.727  1.7715 -0.1979  0.3556
  890TIP3    H224230   3.509   0.916   1.657  1.6020 -0.1320  0.3463
  891TIP3   OH224231   6.506   3.198   8.521  0.6404  0.6246 -0.0735
  891TIP3    H124232   6.504   3.292   8.502  1.4337  0.7040  0.1769
  891TIP3    H224233   6.462   3.190   8.606 -1.6041  0.4487 -1.1938
  892TIP3   OH224234   6.078   3.999   1.875 -0.0942 -0.2983  0.6189
  892TIP3    H124235   6.174   4.004   1.882 -0.1657 -0.5723  2.2428
  892TIP3    H224236   6.048   4.010   1.965 -1.6541  0.8429 -0.0099
  893TIP3   OH224237   3.231   6.160   7.313 -0.1308 -0.0531 -0.0675
  893TIP3    H124238   3.292   6.222   7.273  3.0115 -1.3158  2.3439
  893TIP3    H224239   3.215   6.196   7.400 -1.0554 -0.9062  0.1301
  894TIP3   OH224240   5.760   0.564   1.680 -0.2587 -0.5994 -0.1065
  894TIP3    H124241   5.765   0.471   1.704 -2.4415 -1.0499 -1.1317
  894TIP3    H224242   5.703   0.602   1.746  2.1532  0.5212  1.4608
  895TIP3   OH224243   1.402   5.352   7.606 -0.6210  0.2466 -0.6871
  895TIP3    H124244   1.491   5.320   7.594 -0.2770  0.6517  0.5743
  895TIP3    H224245   1.353   5.317   7.532  0.4420 -0.5240 -1.0451
  896TIP3   OH224246   1.792   3.432   1.984  0.2676 -0.2832 -0.2013
  896TIP3    H124247   1.851   3.368   2.025  0.3362  0.5659  1.0749
  896TIP3    H224248   1.749   3.383   1.914  1.9401 -1.1201 -0.6876
  897TIP3   OH224249   3.125   3.677   0.392  0.1136 -0.6212  0.0633
  897TIP3    H124250   3.029   3.683   0.394  0.1461 -0.1099  0.2047
  897TIP3    H224251   3.148   3.696   0.301  0.1536  0.5291  0.2981
  898TIP3   OH224252   4.368   1.763   7.489  0.0885 -0.5791  0.0628
  898TIP3    H124253   4.406   1.683   7.524 -0.2554 -0.8543 -0.1898
  898TIP3    H224254   4.442   1.808   7.447  0.2608 -0.8052  0.1246
  899TIP3   OH224255   6.356   0.453   0.371  0.2657  0.3033  0.5243
  899TIP3    H124256   6.314   0.501   0.300  0.5046  1.4048  1.0954
  899TIP3    H224257   6.317   0.490   0.451 -2.0195 -2.7294  0.9965
  900TIP3   OH224258   2.830   0.037   1.252 -0.2449 -0.3166  0.0673
  900TIP3    H124259   2.827   0.096   1.328  0.2548 -0.9389  0.5785
  900TIP3    H224260   2.762  -0.028   1.270 -0.2664 -0.3442 -0.1179
  901TIP3   OH224261   0.143   5.872   1.957 -0.5473 -0.0369  0.2774
  901TIP3    H124262   0.205   5.927   2.004  1.0418 -0.9317 -0.6702
  901TIP3    H224263   0.196   5.827   1.891 -2.1110 -1.2749 -0.2068
  902TIP3   OH224264   0.999   1.398   8.223 -0.4241 -0.8012 -0.4740
  902TIP3    H124265   1.065   1.377   8.157  1.1671  0.1978  0.7124
  902TIP3    H224266   0.979   1.490   8.209 -1.2544 -0.9843 -0.5372
  903TIP3   OH224267   2.768   0.966   1.667 -0.9117 -0.3567 -0.2042
  903TIP3    H124268   2.837   0.913   1.627 -1.4894 -1.1340 -0.1907
  903TIP3    H224269   2.728   1.013   1.593 -1.0093 -0.6657 -0.3519
  904TIP3   OH224270   6.812   4.357   8.273  0.2490 -0.1137 -0.3753
  904TIP3    H124271   6.749   4.300   8.317  0.5462 -0.6573 -0.6293
  904TIP3    H224272   6.763   4.396   8.201 -0.5367  1.6153  1.0243
  905TIP3   OH224273   0.457   6.242   1.240 -0.5979  0.0033 -0.1057
  905TIP3    H124274   0.373   6.252   1.285 -0.7454 -3.2226  0.5300
  905TIP3    H224275   0.523   6.248   1.309 -0.6069 -1.5105  0.0618
  906TIP3   OH224276   2.148   1.932   0.111 -0.0471 -0.3494  0.0364
  906TIP3    H124277   2.147   2.022   0.079  0.2223 -0.0124  0.9256
  906TIP3    H224278   2.196   1.882   0.044  1.6011  0.5582  0.4716
  907TIP3   OH224279   4.806   3.000   7.283  0.2734  0.2849 -0.2677
  907TIP3    H124280   4.789   3.014   7.376  2.3626  0.5952  0.1252
  907TIP3    H224281   4.762   2.918   7.262 -0.5987  0.4453  0.8720
  908TIP3   OH224282   1.736   0.007   2.138 -0.1610 -0.1950 -0.0718
  908TIP3    H124283   1.659   0.022   2.082  0.0253  2.6056  0.2968
  908TIP3    H224284   1.699  -0.025   2.220 -1.0016  1.1511  0.1165
  909TIP3   OH224285   5.663   2.842   7.047 -0.0065 -0.2516  0.3272
  909TIP3    H124286   5.580   2.797   7.033 -0.5458  1.1241 -1.2164
  909TIP3    H224287   5.640   2.935   7.045  1.4861  0.1429  0.5473
  910TIP3   OH224288   6.421   4.533   1.239 -0.1811  0.3923 -0.1125
  910TIP3    H124289   6.461   4.491   1.315  0.6407 -1.3018 -1.4395
  910TIP3    H224290   6.482   4.603   1.216 -0.3960  0.8686  0.7091
  911TIP3   OH224291   3.902   1.482   0.516  0.1775 -0.0241 -0.2355
  911TIP3    H124292   3.863   1.568   0.532  0.2892  0.4735 -2.3455
  911TIP3    H224293   3.831   1.429   0.482  0.4803 -0.2616 -0.5024
  912TIP3   OH224294   2.396   6.062   1.877 -0.1825 -0.1783  0.8935
  912TIP3    H124295   2.461   5.997   1.904 -1.9797 -2.9537 -0.8991
  912TIP3    H224296   2.446   6.127   1.828  1.3974 -1.8494  0.1731
  913TIP3   OH224297   0.689   1.997   1.673  0.2359  0.5126  0.4676
  913TIP3    H124298   0.692   1.939   1.597 -1.4844  1.4178 -0.3562
  913TIP3    H224299   0.777   1.994   1.709  1.0827 -0.0088 -1.5039
  914TIP3   OH224300   5.843   2.860   7.419 -0.3670 -0.5805 -0.6711
  914TIP3    H124301   5.864   2.893   7.332  0.8640 -0.5125 -0.3679
  914TIP3    H224302   5.928   2.841   7.459 -0.7898  1.0018  1.1444
  915TIP3   OH224303   0.780   4.527   8.767  0.5139  0.0445  0.7617
  915TIP3    H124304   0.853   4.570   8.722  0.0091  0.1745  0.0552
  915TIP3    H224305   0.813   4.510   8.855  1.8684 -1.0818  0.0726
  916TIP3   OH224306   4.937   1.242   0.185 -0.3676  0.4421 -0.0468
  916TIP3    H124307   4.866   1.296   0.221 -0.0748 -0.9789  2.9942
  916TIP3    H224308   4.924   1.245   0.090 -4.4986  0.2568  0.3405
  917TIP3   OH224309   0.771   5.387   0.202 -0.0347 -0.0859  0.2838
  917TIP3    H124310   0.728   5.464   0.240  0.2362  0.7722 -1.0434
  917TIP3    H224311   0.711   5.358   0.133  1.0168  0.5311 -0.9326
  918TIP3   OH224312   6.303   4.558   0.383  0.4017 -0.4731  0.3934
  918TIP3    H124313   6.289   4.615   0.458  1.0249  1.4279 -0.8752
  918TIP3    H224314   6.395   4.532   0.389  0.0020 -1.8250  1.2352
  919TIP3   OH224315   5.460   6.036   6.713 -0.1719 -0.2850  0.2293
  919TIP3    H124316   5.544   6.080   6.701  1.1673 -3.0632 -1.4997
  919TIP3    H224317   5.397   6.093   6.669  1.0280  1.0433  0.1436
  920TIP3   OH224318   3.912   2.506   1.131 -0.1662 -0.2402  0.3652
  920TIP3    H124319   3.865   2.433   1.090  1.9067 -0.5869 -1.6043
  920TIP3    H224320   4.001   2.473   1.142  0.5690  1.6622  0.4014
  921TIP3   OH224321   1.169   5.049   6.687 -0.4466  0.2215  0.0522
  921TIP3    H124322   1.111   5.055   6.763 -1.1163 -0.5506 -0.3848
  921TIP3    H224323   1.214   5.134   6.684  0.5376 -0.1863  2.0522
  922TIP3   OH224324   3.051   3.033   0.981  0.6261  0.2268  0.4179
  922TIP3    H124325   3.012   3.077   1.057 -0.4942  0.1451 -0.0872
  922TIP3    H224326   2.980   2.979   0.946  2.0275 -2.2126  1.1507
  923TIP3   OH224327   3.672   1.745   1.690 -0.4828 -0.1984  0.0452
  923TIP3    H124328   3.659   1.726   1.597  1.0365  2.0447 -0.7201
  923TIP3    H224329   3.597   1.800   1.714 -0.0594  0.5402 -0.3063
  924TIP3   OH224330   4.757   5.467   7.099  0.1125 -0.0372  0.3234
  924TIP3    H124331   4.848   5.437   7.097 -0.3534 -2.0524  3.1197
  924TIP3    H224332   4.748   5.512   7.184 -1.5987 -0.3253  0.3340
  925TIP3   OH224333   2.924   5.840   1.345  0.2730  0.2056 -0.3277
  925TIP3    H124334   2.887   5.916   1.301 -0.8908 -1.0765 -1.6646
  925TIP3    H224335   2.987   5.805   1.282 -1.0690 -1.3814 -0.8536
  926TIP3   OH224336   1.755   3.213   0.541 -0.3989  0.4445  0.1648
  926TIP3    H124337   1.746   3.245   0.630  0.0780 -1.8716  1.1170
  926TIP3    H224338   1.791   3.287   0.492 -0.9889  1.8614  1.8035
  927TIP3   OH224339   1.810   1.864   7.866 -0.1405  0.3752 -0.1808
  927TIP3    H124340   1.836   1.889   7.955 -0.5411  1.2048 -0.2978
  927TIP3    H224341   1.728   1.911   7.850 -0.4195 -0.2866 -0.7490
  928TIP3   OH224342   5.956   1.162   0.817  0.5767  0.1210  0.0652
  928TIP3    H124343   5.887   1.123   0.871  0.4585  2.2272  1.5813
  928TIP3    H224344   6.024   1.187   0.879  1.8835 -0.2217 -1.1836
  929TIP3   OH224345   3.661   2.864   0.949  0.2289 -0.1575  0.1534
  929TIP3    H124346   3.588   2.852   1.010  0.6755  1.0961  0.9613
  929TIP3    H224347   3.657   2.957   0.926 -0.2948 -0.7027 -2.2212
  930TIP3   OH224348   6.791   3.672   2.102 -0.0773 -0.0741 -0.1832
  930TIP3    H124349   6.737   3.665   2.181  0.6731 -0.2474  0.3275
  930TIP3    H224350   6.774   3.591   2.054  0.1954 -0.4076  0.2778
  931TIP3   OH224351   0.656   5.804   8.519  0.3850 -0.0112 -0.3480
  931TIP3    H124352   0.601   5.778   8.445 -0.1458  0.8814 -0.2774
  931TIP3    H224353   0.730   5.743   8.516 -1.2228 -2.0787  0.3252
  932TIP3   OH224354   6.407   6.111   1.338  0.0726  0.5614  0.0967
  932TIP3    H124355   6.357   6.042   1.381 -0.7546  0.1143 -1.4988
  932TIP3    H224356   6.494   6.108   1.380 -0.1347 -1.0574  0.4502
  933TIP3   OH224357   1.645   2.188   0.093 -0.3209 -0.7122  0.4000
  933TIP3    H124358   1.649   2.175  -0.002 -0.0311  0.5874  0.2123
  933TIP3    H224359   1.654   2.100   0.130  1.7332 -1.0488 -0.7265
  934TIP3   OH224360   0.984   2.954   1.165 -0.4598 -0.1045 -0.1259
  934TIP3    H124361   1.001   2.862   1.144  0.2133 -0.0856  0.2845
  934TIP3    H224362   0.900   2.954   1.211 -0.4160 -0.5290 -0.0449
  935TIP3   OH224363   2.183   2.954   2.410  0.6025 -0.7112  0.2625
  935TIP3    H124364   2.094   2.924   2.395 -0.3325  1.3430  1.2234
  935TIP3    H224365   2.202   2.930   2.501  0.2450  0.5366  0.6937
  936TIP3   OH224366   2.549   2.143   1.926 -0.2988 -0.4216 -0.6557
  936TIP3    H124367   2.528   2.106   1.840 -0.8541 -0.5525 -0.4668
  936TIP3    H224368   2.464   2.168   1.963 -0.0186  0.1054 -0.3550
  937TIP3   OH224369   4.039   0.411   1.176 -0.3290 -0.1123 -0.2289
  937TIP3    H124370   3.952   0.396   1.140 -1.0316  1.1117  0.8692
  937TIP3    H224371   4.099   0.379   1.108 -1.5645  1.6561 -2.2832
  938TIP3   OH224372   5.213   5.726   7.437  0.0471  0.4726  0.2586
  938TIP3    H124373   5.287   5.668   7.452 -1.2885 -1.1345  1.0710
  938TIP3    H224374   5.223   5.795   7.503  0.2665 -0.3050  1.0538
  939TIP3   OH224375   2.183   0.698   0.425 -0.4901 -0.0930 -0.2271
  939TIP3    H124376   2.214   0.608   0.412 -0.6304 -0.3080  0.8282
  939TIP3    H224377   2.145   0.698   0.513 -1.5634  0.7016 -0.6631
  940TIP3   OH224378   0.963   3.684   2.049  0.2259  0.4532 -0.1287
  940TIP3    H124379   1.007   3.675   1.964 -0.3231 -0.1333 -0.3551
  940TIP3    H224380   1.032   3.714   2.108  0.8368 -0.0472 -0.5744
  941TIP3   OH224381   4.946   0.235   7.273 -0.6951  0.5608  0.5834
  941TIP3    H124382   5.012   0.170   7.298 -0.8786  0.0598 -0.1847
  941TIP3    H224383   4.915   0.271   7.356 -0.0236  0.2349  0.9869
  942TIP3   OH224384   2.733   5.990   2.929  0.3168 -0.8587  0.1008
  942TIP3    H124385   2.726   5.929   2.855  0.8579 -2.1608  1.0679
  942TIP3    H224386   2.660   6.050   2.918 -0.0911 -1.5252 -1.0475
  943TIP3   OH224387   2.287   2.575   2.881  0.0815  0.0298 -0.2117
  943TIP3    H124388   2.335   2.640   2.829  0.8520 -0.7186 -0.4590
  943TIP3    H224389   2.333   2.493   2.866 -1.2281 -0.7102 -0.3757
  944TIP3   OH224390   4.916   6.501   0.420 -0.6671 -0.4765 -0.4139
  944TIP3    H124391   4.915   6.556   0.498  0.2056  1.1292 -1.4758
  944TIP3    H224392   4.831   6.457   0.420 -1.5931  1.2426  0.2393
  945TIP3   OH224393   4.281   4.421   8.430  0.1166  0.0350 -0.1891
  945TIP3    H124394   4.255   4.420   8.522 -1.0798  0.3240 -0.4971
  945TIP3    H224395   4.364   4.468   8.428  1.6293 -2.4267  1.0707
  946TIP3   OH224396   5.056   3.219   8.628  0.2044 -0.3705  0.3762
  946TIP3    H124397   4.988   3.153   8.615  1.0756 -1.4469  1.0834
  946TIP3    H224398   5.121   3.201   8.560 -0.6159  1.2320 -0.8800
  947TIP3   OH224399   5.527   1.206   7.541 -0.5466 -0.4020  0.0944
  947TIP3    H124400   5.437   1.232   7.517 -0.5193 -1.1191 -0.8571
  947TIP3    H224401   5.517   1.121   7.582 -0.2607 -0.6879 -0.4241
  948TIP3   OH224402   0.741   0.905   1.260 -0.3277  0.3357 -0.4099
  948TIP3    H124403   0.658   0.862   1.281 -0.0831 -0.7539 -1.5831
  948TIP3    H224404   0.759   0.880   1.169  1.5277  0.1297 -0.0233
  949TIP3   OH224405   4.341   6.178   1.226  0.4752 -0.0437  0.2108
  949TIP3    H124406   4.377   6.090   1.219 -0.1390 -0.2982  0.1486
  949TIP3    H224407   4.296   6.192   1.143  0.3022  0.2031  0.3470
  950TIP3   OH224408   0.264   3.646   0.254 -0.2034 -0.1931  0.2878
  950TIP3    H124409   0.298   3.576   0.198 -0.1497  0.1966 -0.1788
  950TIP3    H224410   0.255   3.721   0.195  1.7458  0.8273  1.2215
  951TIP3   OH224411   0.750   4.634   1.022  0.1990  0.1581 -0.3904
  951TIP3    H124412   0.820   4.573   1.047  1.0369  0.3873 -2.0467
  951TIP3    H224413   0.726   4.678   1.103  2.2407  0.3351  0.1612
  952TIP3   OH224414   6.236   1.192   8.618  0.3212 -0.4001 -0.4244
  952TIP3    H124415   6.146   1.182   8.586  0.7773 -0.6411 -1.6638
  952TIP3    H224416   6.255   1.285   8.608  0.6258 -0.5534 -1.3186
  953TIP3   OH224417   4.863   0.563   7.937 -0.4789 -0.5654  0.7011
  953TIP3    H124418   4.780   0.611   7.928 -0.8046 -1.0584  1.0329
  953TIP3    H224419   4.915   0.616   7.997 -0.4804 -0.1610  0.3533
  954TIP3   OH224420   2.414   0.566   8.360 -0.3704 -0.2678 -0.1842
  954TIP3    H124421   2.456   0.543   8.277  0.0244  1.1403 -0.4103
  954TIP3    H224422   2.471   0.633   8.398 -1.7553  0.8119  0.0855
  955TIP3   OH224423   1.084   6.745   8.280  0.8099  0.1010 -0.0236
  955TIP3    H124424   0.999   6.755   8.237  1.3482 -1.1214 -1.4912
  955TIP3    H224425   1.144   6.795   8.225  1.5268 -1.5622 -0.8511
  956TIP3   OH224426   5.011   5.780   0.461 -0.3612  0.2289  0.3766
  956TIP3    H124427   5.092   5.738   0.491 -1.2687 -1.2373  0.8572
  956TIP3    H224428   4.961   5.795   0.541 -0.8561  0.5135  0.0202
  957TIP3   OH224429   4.665   0.740   1.799 -0.1038 -0.6056 -0.3660
  957TIP3    H124430   4.611   0.808   1.840  1.8452  0.5101  0.5019
  957TIP3    H224431   4.631   0.658   1.835 -2.7381 -0.2047 -1.6953
  958TIP3   OH224432   0.443   1.981   1.796 -0.0472 -0.4610 -0.3171
  958TIP3    H124433   0.519   1.986   1.738 -0.1124 -1.8412 -0.5637
  958TIP3    H224434   0.480   1.956   1.881 -0.2660 -1.8330 -0.6033
  959TIP3   OH224435   6.837   1.746   1.091 -0.4645  1.0624 -0.4121
  959TIP3    H124436   6.837   1.712   1.180 -0.5370 -2.3691 -1.5877
  959TIP3    H224437   6.928   1.735   1.062 -0.7506  0.7201 -1.2135
  960TIP3   OH224438   2.726   3.881   8.536  0.2680 -0.1385 -0.1489
  960TIP3    H124439   2.712   3.941   8.463  3.1304  0.1181 -0.6039
  960TIP3    H224440   2.720   3.794   8.498 -0.1048 -0.0500 -0.2919
  961TIP3   OH224441   6.464   4.149   2.458  0.4476 -0.2718 -0.5083
  961TIP3    H124442   6.407   4.115   2.527 -0.9166  1.8122 -0.4836
  961TIP3    H224443   6.552   4.122   2.483 -0.3161 -1.9907  0.4866
  962TIP3   OH224444   0.512   0.697   1.330  0.0903  0.1426  0.1194
  962TIP3    H124445   0.537   0.723   1.241 -0.4394  0.9194  0.1944
  962TIP3    H224446   0.417   0.687   1.326  0.2368 -1.6498  0.1348
  963TIP3   OH224447   1.750   0.274   7.971  0.4288  0.8136  0.2282
  963TIP3    H124448   1.803   0.259   7.893  0.6311  1.6084  0.2043
  963TIP3    H224449   1.689   0.343   7.946 -0.3466  0.2024  0.3868
  964TIP3   OH224450   4.748   3.970   8.406 -0.0441 -0.7255  0.0723
  964TIP3    H124451   4.669   3.916   8.407 -0.6871  0.1464  1.6655
  964TIP3    H224452   4.820   3.909   8.391 -0.9080 -1.7245 -0.0940
  965TIP3   OH224453   1.725   6.054   7.760 -0.0445 -0.0979  0.4278
  965TIP3    H124454   1.692   6.124   7.815 -1.1700 -0.3985  0.1596
  965TIP3    H224455   1.648   6.019   7.716  0.8685  0.5179 -1.8197
  966TIP3   OH224456   6.543   3.907   8.196 -0.0633 -0.6086 -0.1256
  966TIP3    H124457   6.529   4.001   8.190 -0.6183 -0.6428  0.4966
  966TIP3    H224458   6.559   3.890   8.289  0.9543 -1.0166 -0.3570
  967TIP3   OH224459   5.847   0.663   2.341  0.0191  0.2504  0.2348
  967TIP3    H124460   5.783   0.728   2.369  1.2125  0.0194  4.0879
  967TIP3    H224461   5.825   0.584   2.390  0.8982 -1.1038 -1.4171
  968TIP3   OH224462   4.574   5.727   8.249 -0.5119  0.4016 -0.7628
  968TIP3    H124463   4.625   5.805   8.274  0.4771 -0.7589  1.0862
  968TIP3    H224464   4.603   5.706   8.161  2.1403 -0.0997  0.1555
  969TIP3   OH224465   2.582   2.029   8.647 -0.3150  0.2245 -0.3819
  969TIP3    H124466   2.594   2.067   8.734 -2.3030 -2.2045  1.1334
  969TIP3    H224467   2.664   1.984   8.629 -0.5930 -1.1125  1.3704
  970TIP3   OH224468   1.771   4.752   0.620 -0.3206  0.0200  0.0009
  970TIP3    H124469   1.866   4.751   0.612 -0.3659 -2.0938 -0.8021
  970TIP3    H224470   1.754   4.805   0.698  1.6623 -1.7313  1.7461
  971TIP3   OH224471   5.719   4.255   7.526  0.3605 -0.6707  0.1897
  971TIP3    H124472   5.782   4.301   7.581  1.0994 -1.9563  0.4469
  971TIP3    H224473   5.732   4.162   7.546 -1.5201 -0.9901  0.1418
  972TIP3   OH224474   5.246   0.059   7.179 -0.2221 -0.1124  0.5487
  972TIP3    H124475   5.220  -0.033   7.185  0.1435 -0.4319 -1.9166
  972TIP3    H224476   5.225   0.084   7.089 -2.2522  2.8491  1.7006
  973TIP3   OH224477   1.935   4.805   2.092 -0.0135 -0.0355 -0.1482
  973TIP3    H124478   1.852   4.758   2.101  0.1506 -0.4347 -0.7063
  973TIP3    H224479   1.955   4.834   2.181 -0.3519 -0.6156  0.1260
  974TIP3   OH224480   4.642   3.815   7.856  0.8272 -0.0719  0.8898
  974TIP3    H124481   4.597   3.731   7.844 -0.0781  0.6669 -1.4903
  974TIP3    H224482   4.666   3.842   7.767 -0.2455  2.8723  1.3604
  975TIP3   OH224483   5.739   1.068   1.954  0.2624 -0.2304 -0.2637
  975TIP3    H124484   5.799   1.103   2.019  0.1408 -1.3750  0.4893
  975TIP3    H224485   5.654   1.105   1.978  0.5124  0.7222 -0.8244
  976TIP3   OH224486   4.583   4.364   2.207 -0.2269  0.0454 -0.8462
  976TIP3    H124487   4.578   4.335   2.116 -1.8602  0.8629 -1.0522
  976TIP3    H224488   4.493   4.391   2.229 -0.3138 -1.8720  1.6125
  977TIP3   OH224489   6.598   3.827   0.904 -0.2487 -0.0408 -0.5958
  977TIP3    H124490   6.602   3.895   0.837 -0.4326 -1.1134 -1.7500
  977TIP3    H224491   6.544   3.758   0.864 -0.2596 -0.7569  0.6182
  978TIP3   OH224492   3.383   2.868   8.151 -0.0546  1.1894  1.1303
  978TIP3    H124493   3.302   2.920   8.156 -0.0741  1.0502  2.5029
  978TIP3    H224494   3.434   2.895   8.226  0.9103  0.8034  0.6283
  979TIP3   OH224495   4.467   5.953   1.174 -0.9220  0.7238 -0.3497
  979TIP3    H124496   4.480   5.863   1.142  1.4748 -0.0250  2.2638
  979TIP3    H224497   4.515   6.007   1.112 -1.2000  0.0488 -1.1809
  980TIP3   OH224498   6.554   3.876   0.184  0.0525  0.1186  0.1864
  980TIP3    H124499   6.555   3.784   0.207 -1.0204  0.3602  1.2844
  980TIP3    H224500   6.612   3.918   0.248  0.6058  0.2086 -0.3608
  981TIP3   OH224501   4.338   3.573   1.767  0.1334 -0.1421 -0.0431
  981TIP3    H124502   4.328   3.570   1.862 -1.2985  2.3053 -0.0466
  981TIP3    H224503   4.430   3.595   1.753 -0.0283  1.1819  0.8484
  982TIP3   OH224504   2.317   1.891   6.881 -0.2465  0.6164  0.3631
  982TIP3    H124505   2.268   1.933   6.951  0.0496  0.4245  0.6896
  982TIP3    H224506   2.251   1.842   6.831 -0.5704  1.3549  0.0562
  983TIP3   OH224507   4.367   6.320   8.022  0.4948 -0.6442 -0.6550
  983TIP3    H124508   4.454   6.355   8.001 -0.4737  0.5151 -3.1415
  983TIP3    H224509   4.315   6.397   8.045 -0.2886 -1.1257 -0.7820
  984TIP3   OH224510   1.422   2.070   1.162  0.2738 -0.0751  0.0377
  984TIP3    H124511   1.411   2.079   1.068 -0.0823 -1.4974 -0.0714
  984TIP3    H224512   1.454   1.981   1.175 -1.6837 -0.6594  1.3993
  985TIP3   OH224513   2.490   0.202   6.989 -0.6633 -0.1935  0.4847
  985TIP3    H124514   2.481   0.295   6.970 -1.9635 -0.3328  0.3890
  985TIP3    H224515   2.545   0.168   6.918  0.3019  0.5917  0.8350
  986TIP3   OH224516   0.971   1.823   1.617  0.3511 -0.5479  0.2789
  986TIP3    H124517   0.888   1.781   1.640  0.6727 -1.2402  0.2288
  986TIP3    H224518   1.031   1.749   1.604  1.1523 -0.0279  0.9990
  987TIP3   OH224519   0.156   3.779   7.098 -0.3536 -0.1632  0.0133
  987TIP3    H124520   0.176   3.872   7.102  0.2546 -0.3216  2.0872
  987TIP3    H224521   0.081   3.772   7.039  2.0696  1.1170 -3.4920
  988TIP3   OH224522   2.645   3.406   1.772  0.3982 -0.2451  0.0007
  988TIP3    H124523   2.601   3.483   1.736 -1.0898 -1.8248 -1.7649
  988TIP3    H224524   2.658   3.427   1.865 -0.5235  1.8422 -0.2817
  989TIP3   OH224525   1.982   5.603   0.688  0.1121  0.0475 -0.4735
  989TIP3    H124526   2.016   5.560   0.610 -0.0227  0.5429 -0.8084
  989TIP3    H224527   1.923   5.670   0.655 -0.8194 -0.4730  0.0869
  990TIP3   OH224528   4.986   3.385   1.749  0.0595  0.6705 -0.0133
  990TIP3    H124529   4.964   3.471   1.714 -1.2917  1.2580  2.0773
  990TIP3    H224530   5.024   3.403   1.835  0.5945 -0.7950  0.0865
  991TIP3   OH224531   5.344   1.886   2.291 -0.6468  0.2305 -0.4753
  991TIP3    H124532   5.339   1.849   2.202  1.2214 -2.3221  0.3770
  991TIP3    H224533   5.433   1.920   2.298 -0.8970  0.7551  0.3319
  992TIP3   OH224534   1.075   5.624   0.654  1.1177 -0.0682  0.6751
  992TIP3    H124535   1.065   5.548   0.713  0.3744  0.4686  1.2603
  992TIP3    H224536   1.164   5.655   0.670  0.6433  0.6038  2.2035
  993TIP3   OH224537   1.041   5.915   1.912  0.2822  0.3702 -0.2726
  993TIP3    H124538   1.117   5.883   1.961  0.0775  1.0940  0.5564
  993TIP3    H224539   0.988   5.961   1.978 -1.3421 -0.8777 -0.6230
  994TIP3   OH224540   2.777   2.770   8.616  0.2669 -0.0305 -0.4957
  994TIP3    H124541   2.866   2.741   8.635 -0.3934 -0.4413  2.4217
  994TIP3    H224542   2.788   2.860   8.586  1.6511  0.3043  0.8388
  995TIP3   OH224543   2.917   4.768   1.287 -0.2774 -0.0436 -0.3555
  995TIP3    H124544   2.854   4.839   1.282 -0.0643  0.3312  1.5277
  995TIP3    H224545   2.902   4.727   1.372  1.4719 -0.4436 -0.1836
  996TIP3   OH224546   1.128   2.652   8.181  0.1162 -0.0545  0.3717
  996TIP3    H124547   1.191   2.580   8.170 -0.2352 -0.4993  1.2438
  996TIP3    H224548   1.153   2.715   8.113  1.2786 -0.3865  0.4640
  997TIP3   OH224549   6.126   5.731   8.675 -0.2029  0.0140  0.5839
  997TIP3    H124550   6.065   5.662   8.650 -2.1879  1.2227  1.7745
  997TIP3    H224551   6.207   5.709   8.631 -1.7382 -1.2318 -1.8298
  998TIP3   OH224552   2.372   2.206   1.126  0.9724  0.1111 -0.5339
  998TIP3    H124553   2.297   2.219   1.183 -0.4686 -4.7094 -0.8452
  998TIP3    H224554   2.345   2.240   1.041 -0.5364 -0.6466 -0.3917
  999TIP3   OH224555   2.948   6.588   7.479 -0.3101 -0.5150 -0.4748
  999TIP3    H124556   2.956   6.494   7.493  0.9712 -0.3815 -0.2472
  999TIP3    H224557   2.953   6.626   7.567  0.1861 -0.1677 -0.6527
 1000TIP3   OH224558   0.431   1.988   1.130 -0.4597 -0.4036 -0.0139
 1000TIP3    H124559   0.389   2.027   1.207 -0.1897 -1.2235  0.5702
 1000TIP3    H224560   0.440   2.060   1.068  1.9826  1.0264  1.7940
 1001TIP3   OH224561   2.047   4.923   1.178  0.5936  0.1297  0.2651
 1001TIP3    H124562   2.055   4.889   1.089 -0.1432 -1.4582  0.7799
 1001TIP3    H224563   1.992   4.860   1.223 -0.3605  1.7395  1.4421
 1002TIP3   OH224564   5.380   0.891   7.236 -0.3096 -0.3768  0.5533
 1002TIP3    H124565   5.301   0.914   7.285  0.1041 -0.2715  1.1740
 1002TIP3    H224566   5.436   0.968   7.243 -1.0132  0.4363 -1.7326
 1003TIP3   OH224567   0.875   1.883   8.292 -0.2147  0.1625 -0.4306
 1003TIP3    H124568   0.809   1.836   8.242  0.8712 -0.3687 -1.3975
 1003TIP3    H224569   0.880   1.969   8.252 -0.0553  0.0696 -0.6147
 1004TIP3   OH224570   1.481   3.067   8.093 -0.7869 -0.0267  0.2628
 1004TIP3    H124571   1.428   3.095   8.018 -1.4554 -0.4952  0.5543
 1004TIP3    H224572   1.550   3.013   8.055 -0.5315  0.5576 -0.1181
 1005TIP3   OH224573   3.244   2.792   7.713 -0.4727 -0.7203  0.3286
 1005TIP3    H124574   3.185   2.794   7.788 -2.9482  1.3190 -1.5075
 1005TIP3    H224575   3.332   2.801   7.752 -1.5481 -0.7393  2.9839
 1006TIP3   OH224576   0.087   0.966   0.500  0.2415  0.5322  0.1073
 1006TIP3    H124577   0.037   0.912   0.439 -0.7489 -0.3465  1.6320
 1006TIP3    H224578   0.022   1.023   0.541  0.9240  1.2559  0.2311
 1007TIP3   OH224579   1.530   4.410   1.452  0.3949  0.3970 -0.6509
 1007TIP3    H124580   1.593   4.339   1.435 -0.2709 -0.2736 -0.3705
 1007TIP3    H224581   1.505   4.441   1.365  0.2017 -0.1600 -0.8013
 1008TIP3   OH224582   2.292   2.507   0.609  0.3928 -0.3110 -0.2441
 1008TIP3    H124583   2.224   2.565   0.575 -0.6140 -0.5330  1.2874
 1008TIP3    H224584   2.313   2.449   0.536 -0.6117  0.1617 -0.9298
 1009TIP3   OH224585   2.958   1.386   8.099  0.1839  0.4890  0.1148
 1009TIP3    H124586   2.950   1.291   8.093  1.1619  0.1939  2.3931
 1009TIP3    H224587   2.873   1.419   8.071 -0.4712 -1.0996  0.0932
 1010TIP3   OH224588   4.401   0.776   7.602  0.8714 -0.0826 -0.8565
 1010TIP3    H124589   4.399   0.721   7.681  0.4312  0.4962 -0.4534
 1010TIP3    H224590   4.309   0.795   7.584  1.0723  3.0411  0.8203
 1011TIP3   OH224591   3.343   4.814   8.482  0.6132  0.0483 -0.5863
 1011TIP3    H124592   3.420   4.796   8.536 -0.0504 -0.1836  0.3088
 1011TIP3    H224593   3.377   4.862   8.407  1.3776  1.7376  0.7707
 1012TIP3   OH224594   0.827   5.234   2.776  0.6517  0.0216 -0.1850
 1012TIP3    H124595   0.834   5.328   2.759 -1.3924  0.3404  0.4001
 1012TIP3    H224596   0.815   5.229   2.871 -0.2625 -0.7381 -0.3314
 1013TIP3   OH224597   6.176   2.606   8.265 -0.4551  0.2855 -0.2715
 1013TIP3    H124598   6.109   2.541   8.289 -0.4700  0.2876 -0.3093
 1013TIP3    H224599   6.217   2.629   8.348 -0.4936  0.2760 -0.2496
 1014TIP3   OH224600   1.376   1.281   7.854  0.0401  0.1103 -0.7494
 1014TIP3    H124601   1.361   1.289   7.759  3.2159 -0.8988 -1.4660
 1014TIP3    H224602   1.357   1.189   7.873  1.3965 -0.2293 -0.9105
 1015TIP3   OH224603   0.100   6.517   7.231  0.2620 -0.5466  0.1178
 1015TIP3    H124604   0.059   6.457   7.295  0.9810 -1.7933 -0.5441
 1015TIP3    H224605   0.192   6.520   7.257  0.1688  0.5934  0.3597
 1016TIP3   OH224606   0.040   1.433   1.105  0.3145  0.2566  0.0384
 1016TIP3    H124607  -0.001   1.347   1.111  0.0646  0.4620  1.9860
 1016TIP3    H224608   0.096   1.428   1.027  1.1698 -2.0476  0.7177
 1017TIP3   OH224609   2.148   0.719   8.467 -0.7815 -0.3148  0.1744
 1017TIP3    H124610   2.196   0.675   8.397  0.9811 -0.0636  1.1747
 1017TIP3    H224611   2.213   0.772   8.511 -2.3194  1.2502  0.6684
 1018TIP3   OH224612   5.232   6.563   7.700 -0.4852 -0.1805 -0.3399
 1018TIP3    H124613   5.274   6.478   7.688  1.7901  0.9994 -1.4452
 1018TIP3    H224614   5.297   6.615   7.748 -0.6886  1.6758 -1.9729
 1019TIP3   OH224615   5.843   5.046   1.748  0.1901 -0.4009  0.0064
 1019TIP3    H124616   5.755   5.017   1.772 -0.3362  0.5619 -0.6794
 1019TIP3    H224617   5.836   5.142   1.742  1.1411 -0.3567 -0.6032
 1020TIP3   OH224618   3.530   3.307   1.121 -0.3072 -0.0034  0.3198
 1020TIP3    H124619   3.471   3.373   1.083 -0.5745 -1.9129 -2.8960
 1020TIP3    H224620   3.614   3.352   1.128 -0.9765  1.3086  0.2568
 1021TIP3   OH224621   1.831   2.419   0.984  0.4153 -0.0827  0.3255
 1021TIP3    H124622   1.776   2.343   1.001 -0.3107  0.4980  0.6274
 1021TIP3    H224623   1.919   2.383   0.974  0.3532 -0.8076  2.0291
 1022TIP3   OH224624   3.722   3.657   8.354 -0.0568 -0.3172  0.1948
 1022TIP3    H124625   3.786   3.586   8.348  1.6295  0.9814  1.3979
 1022TIP3    H224626   3.775   3.734   8.379 -1.8547  1.2520 -0.5818
 1023TIP3   OH224627   1.116   5.840   7.454  0.6773 -0.6492 -0.1341
 1023TIP3    H124628   1.050   5.786   7.498 -1.0737 -0.6998 -2.6156
 1023TIP3    H224629   1.149   5.785   7.383  1.8669  0.1561 -0.2468
 1024TIP3   OH224630   2.048   4.350   8.015  0.3437  0.4290  0.2275
 1024TIP3    H124631   2.017   4.438   8.039  0.0006 -0.0185  1.4801
 1024TIP3    H224632   2.102   4.323   8.089  0.7414 -0.2780 -0.3149
 1025TIP3   OH224633   3.002   1.814   2.607 -0.6639  0.1445  0.6823
 1025TIP3    H124634   3.059   1.750   2.650  2.5732  0.4701 -2.6209
 1025TIP3    H224635   3.052   1.896   2.611 -0.5909  0.4015 -2.5481
 1026TIP3   OH224636   6.049   0.216   6.823  0.3138  0.0679  0.3986
 1026TIP3    H124637   6.052   0.123   6.846  0.6433 -0.5015 -1.7493
 1026TIP3    H224638   6.138   0.238   6.798 -0.1171  0.4162 -0.9437
 1027TIP3   OH224639   4.362   1.748   2.371 -0.4040  0.1317  0.0760
 1027TIP3    H124640   4.452   1.739   2.401 -0.5836 -0.7641  0.3780
 1027TIP3    H224641   4.329   1.826   2.415  0.6492  1.3181 -1.1397
 1028TIP3   OH224642   0.934   5.710   1.387  0.0549 -0.6651 -0.5235
 1028TIP3    H124643   0.896   5.625   1.409 -0.8489 -0.1417  0.0015
 1028TIP3    H224644   0.859   5.765   1.365  0.5688  0.1688 -0.2619
 1029TIP3   OH224645   1.367   1.526   8.340  0.4125  0.2045 -0.3413
 1029TIP3    H124646   1.300   1.457   8.339  1.5099 -0.9834 -3.5547
 1029TIP3    H224647   1.407   1.519   8.427 -1.7493 -0.8929  0.6484
 1030TIP3   OH224648   3.307   2.108   8.391 -0.5822  0.6112 -0.1733
 1030TIP3    H124649   3.347   2.099   8.477  0.3770  1.4126 -0.5128
 1030TIP3    H224650   3.225   2.154   8.407  0.0933  1.7244  0.2133
 1031TIP3   OH224651   5.433   4.056   6.834  0.2359 -0.1385 -0.1556
 1031TIP3    H124652   5.442   4.022   6.924  0.5947 -2.0681 -0.8693
 1031TIP3    H224653   5.392   4.142   6.845  2.1531  0.6111  1.9952
 1032TIP3   OH224654   4.223   5.632   8.577  0.0735  0.1179  0.2329
 1032TIP3    H124655   4.162   5.641   8.504  0.5138  0.5005 -0.0990
 1032TIP3    H224656   4.186   5.688   8.646 -0.8267 -0.9516  0.6525
 1033TIP3   OH224657   0.709   1.534   7.740  0.1908 -0.7378  0.1752
 1033TIP3    H124658   0.763   1.544   7.662 -0.4329  2.2099  0.0085
 1033TIP3    H224659   0.695   1.439   7.747  0.6444 -1.1583 -2.9988
 1034TIP3   OH224660   4.775   1.961   1.974 -0.4357 -0.0103  0.2722
 1034TIP3    H124661   4.804   2.051   1.984  0.8215 -0.4704  0.9820
 1034TIP3    H224662   4.717   1.946   2.049 -0.8928  0.2866 -0.0158
 1035TIP3   OH224663   1.461   2.930   7.714 -0.2075 -0.2137  0.4895
 1035TIP3    H124664   1.487   2.855   7.768  1.6954  0.2798  0.3278
 1035TIP3    H224665   1.520   2.926   7.639  0.7857  2.1160  1.0669
 1036TIP3   OH224666   4.872   5.596   6.872 -0.0654 -0.1521 -0.3800
 1036TIP3    H124667   4.926   5.665   6.911  0.5288 -1.2573  0.8195
 1036TIP3    H224668   4.847   5.541   6.946 -0.3170 -1.3717 -1.3458
 1037TIP3   OH224669   2.054   6.655   1.273  0.5403  0.0812 -0.1621
 1037TIP3    H124670   2.112   6.580   1.266  0.6029  0.0895  0.2385
 1037TIP3    H224671   2.067   6.687   1.362 -1.5989 -1.1691  0.6824
 1038TIP3   OH224672   5.456   4.013   7.925  0.2644 -0.1608 -0.7803
 1038TIP3    H124673   5.432   3.920   7.923  0.0700 -0.1305 -3.5652
 1038TIP3    H224674   5.552   4.012   7.919  0.3463 -0.1423  0.2270
 1039TIP3   OH224675   6.467   2.331   1.686 -0.2443  0.2247  0.2000
 1039TIP3    H124676   6.457   2.267   1.616 -0.3692 -1.8943  2.0392
 1039TIP3    H224677   6.432   2.288   1.764  1.7383  1.6395  2.0136
 1040TIP3   OH224678   6.754   4.453   1.926  0.4152  0.1779 -0.5881
 1040TIP3    H124679   6.699   4.399   1.983  0.2162 -1.0352 -1.8739
 1040TIP3    H224680   6.716   4.541   1.932 -0.3737 -0.2012  0.1652
 1041TIP3   OH224681   6.314   3.098   7.494  0.5869  0.1618 -0.5992
 1041TIP3    H124682   6.269   3.169   7.447  1.6569  0.9808 -0.4335
 1041TIP3    H224683   6.277   3.018   7.458 -1.6447  0.7865  0.1597
 1042TIP3   OH224684   5.148   2.959   1.288  0.4954  0.2066  0.3785
 1042TIP3    H124685   5.202   2.979   1.364  1.0787  1.2862 -0.2866
 1042TIP3    H224686   5.206   2.974   1.213 -0.5375  0.7752 -0.3272
 1043TIP3   OH224687   4.102   5.819   7.451  0.2892 -0.0292  0.0982
 1043TIP3    H124688   4.158   5.848   7.523  1.2413 -1.4325 -0.0258
 1043TIP3    H224689   4.031   5.884   7.447  1.1644  1.0298  1.1515
 1044TIP3   OH224690   5.492   1.321   7.836  0.2137  0.1579 -0.4014
 1044TIP3    H124691   5.541   1.249   7.797  1.1049 -0.6718  2.0515
 1044TIP3    H224692   5.409   1.283   7.862  0.5372  0.0621  0.5496
 1045TIP3   OH224693   5.018   6.433   7.281  0.3240 -0.4731 -0.3778
 1045TIP3    H124694   5.005   6.364   7.346  0.1169 -1.6129 -1.5923
 1045TIP3    H224695   4.930   6.456   7.252  0.3720  0.5345  0.2322
 1046TIP3   OH224696   3.191   1.189   7.096  0.2436  0.2984 -0.1834
 1046TIP3    H124697   3.158   1.210   7.183 -0.7460  0.3088 -0.5525
 1046TIP3    H224698   3.204   1.274   7.054  1.6849  0.3419  0.2729
 1047TIP3   OH224699   1.378   2.410   1.511  0.0921  0.6098 -0.6863
 1047TIP3    H124700   1.293   2.383   1.544  1.1615  0.5494  2.3593
 1047TIP3    H224701   1.411   2.334   1.463 -0.7464 -0.0632 -0.2115
 1048TIP3   OH224702   4.600   1.909   7.408 -0.1156  0.6795  0.2114
 1048TIP3    H124703   4.683   1.863   7.419 -0.0738  0.8178  0.4855
 1048TIP3    H224704   4.619   2.000   7.430  0.1242  1.1254 -1.6355
 1049TIP3   OH224705   0.765   4.541   7.069  0.1354  0.6362  0.0495
 1049TIP3    H124706   0.790   4.468   7.127 -0.1743  0.0779 -0.5129
 1049TIP3    H224707   0.770   4.504   6.981  0.2541  1.3858 -0.2610
 1050TIP3   OH224708   5.643   5.597   1.572  0.4697  0.3170 -0.6620
 1050TIP3    H124709   5.696   5.525   1.607 -1.2299 -1.3925 -1.4295
 1050TIP3    H224710   5.590   5.626   1.646 -0.2353 -0.5756 -0.7989
 1051TIP3   OH224711   2.213   5.339   7.697  0.1115  0.0186  0.2305
 1051TIP3    H124712   2.295   5.321   7.649 -0.5012  2.8919 -2.1707
 1051TIP3    H224713   2.148   5.285   7.653 -0.0442  1.0309 -0.8248
 1052TIP3   OH224714   4.375   5.031   2.016 -0.0645 -0.4009  0.0092
 1052TIP3    H124715   4.425   5.064   1.941  0.2947  0.5678  0.6580
 1052TIP3    H224716   4.299   4.988   1.977  1.4320 -2.2651 -1.0309
 1053TIP3   OH224717   3.201   5.140   1.634 -0.4913  0.0581 -0.0248
 1053TIP3    H124718   3.184   5.048   1.612 -0.1291  0.3497 -1.6477
 1053TIP3    H224719   3.118   5.185   1.620 -0.2880  0.2266 -0.7204
 1054TIP3   OH224720   2.238   6.523   8.495  0.0390  0.6459  0.1850
 1054TIP3    H124721   2.148   6.491   8.485  0.1880  0.0798  0.5919
 1054TIP3    H224722   2.253   6.526   8.589  1.1543 -1.3853  0.1408
 1055TIP3   OH224723   3.490   6.566   6.647 -0.1285 -0.5423 -0.3722
 1055TIP3    H124724   3.461   6.527   6.729  0.7267 -1.4400 -0.4782
 1055TIP3    H224725   3.547   6.638   6.672 -0.5087 -0.3023 -0.1840
 1056TIP3   OH224726   4.550   3.750   1.902  0.6589 -0.3717  0.8695
 1056TIP3    H124727   4.632   3.706   1.923  0.5702  0.0293  2.1174
 1056TIP3    H224728   4.576   3.823   1.846  1.1217 -0.3699  1.0854
 1057TIP3   OH224729   3.858   1.495   2.543  0.4821 -0.3007  0.1753
 1057TIP3    H124730   3.930   1.477   2.483 -0.2631  2.6595 -1.8104
 1057TIP3    H224731   3.894   1.478   2.630  2.7000 -1.4458 -0.8819
 1058TIP3   OH224732   6.120   2.272   8.760 -0.3440 -0.0096 -0.3910
 1058TIP3    H124733   6.033   2.296   8.790  0.4418  2.2354  0.3257
 1058TIP3    H224734   6.179   2.313   8.823  1.2513  0.1894 -1.9284
 1059TIP3   OH224735   1.426   5.135   2.218 -0.2857  0.0403 -0.5259
 1059TIP3    H124736   1.478   5.186   2.281 -1.7430  2.9379 -1.5019
 1059TIP3    H224737   1.485   5.122   2.144 -0.4659  2.2949 -1.1476
 1060TIP3   OH224738   3.071   3.000   8.634 -0.5285 -0.3037 -0.0549
 1060TIP3    H124739   3.066   2.925   8.575 -0.1125 -0.6157  0.3061
 1060TIP3    H224740   3.026   3.070   8.586 -2.5614 -1.2508  0.3845
 1061TIP3   OH224741   2.572   6.690   0.446  0.2286 -0.1522 -0.2561
 1061TIP3    H124742   2.515   6.724   0.515  1.0306 -1.8367  1.3019
 1061TIP3    H224743   2.608   6.609   0.482  4.0661  1.0951 -0.9234
 1062TIP3   OH224744   3.790   6.297   7.432 -0.0936 -0.3473  0.3665
 1062TIP3    H124745   3.763   6.388   7.423 -0.2304 -0.4179  0.0725
 1062TIP3    H224746   3.714   6.253   7.469  0.5159 -0.0248  2.1264
 1063TIP3   OH224747   1.379   2.717   7.478 -0.0349  0.5094 -0.3466
 1063TIP3    H124748   1.304   2.775   7.463 -0.5879 -0.1986 -0.3574
 1063TIP3    H224749   1.398   2.679   7.392  2.8410  3.5755 -1.2814
 1064TIP3   OH224750   6.388   2.280   8.142  0.0373  0.0646  0.0571
 1064TIP3    H124751   6.395   2.247   8.052  0.2699  0.3535 -0.0311
 1064TIP3    H224752   6.377   2.374   8.132 -1.8671 -0.0908  0.2578
 1065TIP3   OH224753   4.849   6.671   1.768 -0.4342 -0.0191 -0.0676
 1065TIP3    H124754   4.820   6.755   1.734  0.0943  0.3006  0.2536
 1065TIP3    H224755   4.804   6.606   1.714 -1.0604  0.4641 -0.1395
 1066TIP3   OH224756   2.985   3.199   2.190 -0.4137  0.2541  0.5244
 1066TIP3    H124757   2.920   3.248   2.139 -1.1302  1.4874  2.4945
 1066TIP3    H224758   2.955   3.207   2.281  0.2798 -2.6176  1.1120
 1067TIP3   OH224759   2.995   2.515   8.194  0.3327 -0.2983 -0.2151
 1067TIP3    H124760   3.000   2.541   8.102  0.1744  0.1853 -0.0911
 1067TIP3    H224761   3.071   2.458   8.207  0.8468  0.3225 -0.4322
 1068TIP3   OH224762   0.891   1.112   2.023 -0.2238 -0.5476 -0.5759
 1068TIP3    H124763   0.801   1.113   1.991  0.1775  1.5974 -1.8522
 1068TIP3    H224764   0.908   1.020   2.043 -2.3364 -1.1641 -1.3247
 1069TIP3   OH224765   6.209   6.200   0.072  0.5339  0.3277  0.0759
 1069TIP3    H124766   6.196   6.107   0.054  0.0122  0.4092  0.0014
 1069TIP3    H224767   6.177   6.211   0.162  0.8007  0.3951  0.1639
 1070TIP3   OH224768   2.887   1.864   0.744  0.0795  0.0658 -0.1144
 1070TIP3    H124769   2.899   1.872   0.649 -1.1958  4.9259 -0.1283
 1070TIP3    H224770   2.793   1.876   0.757  0.4997  1.6863  1.8225
 1071TIP3   OH224771   1.230   5.367   0.086 -0.0690 -0.0399 -0.5577
 1071TIP3    H124772   1.222   5.458   0.115  1.3450 -0.4349  1.2203
 1071TIP3    H224773   1.139   5.335   0.083 -0.6060  1.4870 -1.5186
 1072TIP3   OH224774   4.908   1.816   8.617 -0.0011 -0.1978 -0.4368
 1072TIP3    H124775   4.912   1.846   8.526 -1.3568  0.6681 -0.2414
 1072TIP3    H224776   4.932   1.724   8.613  0.1324 -0.1320 -1.6521
 1073TIP3   OH224777   5.073   5.844   1.439 -0.2183 -0.2529  1.1662
 1073TIP3    H124778   4.991   5.812   1.401  0.4725 -1.5108  0.6629
 1073TIP3    H224779   5.142   5.801   1.388  0.7823 -2.7581  4.2304
 1074TIP3   OH224780   6.679   2.348   8.095  0.0044 -0.5733  0.0801
 1074TIP3    H124781   6.587   2.323   8.087  0.5240 -2.1776 -1.8180
 1074TIP3    H224782   6.703   2.381   8.008  0.9594  0.8609  0.8533
 1075TIP3   OH224783   2.616   4.193   0.215  0.1093  0.1755 -0.0597
 1075TIP3    H124784   2.678   4.174   0.286 -2.5211 -1.2599  2.0215
 1075TIP3    H224785   2.552   4.252   0.255 -1.2233 -0.3262 -1.3854
 1076TIP3   OH224786   2.128   2.656   2.105 -0.5241  0.0025  0.3319
 1076TIP3    H124787   2.069   2.694   2.039  2.4122  0.2706 -2.3628
 1076TIP3    H224788   2.069   2.625   2.174 -3.7461  0.8418 -1.8013
 1077TIP3   OH224789   5.518   6.681   0.320  0.0401 -0.5778  0.3950
 1077TIP3    H124790   5.541   6.628   0.243  0.1505 -0.7802  0.5678
 1077TIP3    H224791   5.537   6.771   0.293 -2.4881 -0.3079 -0.8167
 1078TIP3   OH224792   4.149   2.390   1.156 -0.5584 -0.1185 -0.4117
 1078TIP3    H124793   4.171   2.472   1.113 -1.7277  0.6344  0.3900
 1078TIP3    H224794   4.200   2.391   1.237  0.6963 -0.9720 -1.1541
 1079TIP3   OH224795   0.905   0.018   2.464 -0.0364 -0.0393 -0.1199
 1079TIP3    H124796   0.830   0.053   2.416  0.1261  1.1070  0.4162
 1079TIP3    H224797   0.965   0.092   2.472 -0.2574 -0.0109  2.2384
 1080TIP3   OH224798   3.733   0.340   0.107  0.1426  0.0977  0.0055
 1080TIP3    H124799   3.641   0.343   0.136 -0.2971  0.2671 -1.3363
 1080TIP3    H224800   3.766   0.257   0.140  0.0905  0.8799  2.1469
 1081TIP3   OH224801   5.964   4.981   1.115  0.2810  0.5523 -0.1894
 1081TIP3    H124802   6.031   4.972   1.183  0.6191  0.5844 -0.5186
 1081TIP3    H224803   5.884   5.005   1.164  0.0322 -1.2945  0.4196
 1082TIP3   OH224804   2.794   1.790   8.608  0.2151  0.1583  0.0185
 1082TIP3    H124805   2.756   1.713   8.566  0.1651  0.5617 -0.6945
 1082TIP3    H224806   2.751   1.794   8.694  0.1296 -0.5316  0.0175
 1083TIP3   OH224807   0.790   3.919   7.710  0.3006 -0.7156  0.3866
 1083TIP3    H124808   0.779   3.836   7.757 -1.6270  0.1151  1.5454
 1083TIP3    H224809   0.705   3.932   7.667  0.9103  0.1948 -0.5687
 1084TIP3   OH224810   3.742   2.954   1.513 -0.0860  0.1645 -0.5101
 1084TIP3    H124811   3.699   3.026   1.466 -0.0953  0.4169 -0.1165
 1084TIP3    H224812   3.834   2.961   1.487 -0.3625 -0.7683 -1.8558
 1085TIP3   OH224813   6.713   1.469   1.371 -0.8580  0.0315 -0.3223
 1085TIP3    H124814   6.722   1.376   1.392  0.2979 -0.1806 -1.6146
 1085TIP3    H224815   6.634   1.475   1.318 -0.9265 -0.2048 -0.2478
 1086TIP3   OH224816   2.181   6.493   0.772  0.6795 -0.3744  0.0772
 1086TIP3    H124817   2.128   6.548   0.829 -0.5051 -0.9316 -0.4495
 1086TIP3    H224818   2.148   6.512   0.684  0.6108 -1.5291 -0.1563
 1087TIP3   OH224819   5.706   6.007   2.254 -0.2623 -0.1174  0.1864
 1087TIP3    H124820   5.695   6.071   2.325  0.5875  1.3148 -0.9211
 1087TIP3    H224821   5.747   6.057   2.183  0.9432 -2.0226 -0.5263
 1088TIP3   OH224822   3.046   5.664   2.190  0.7375  0.1747  0.6974
 1088TIP3    H124823   3.024   5.692   2.101 -0.4088 -1.7403  0.3202
 1088TIP3    H224824   3.133   5.625   2.182  1.5804  1.9158  0.8896
 1089TIP3   OH224825   0.678   5.604   0.381  0.2646 -0.0265  0.4111
 1089TIP3    H124826   0.726   5.680   0.415  0.5253  0.2037 -0.4307
 1089TIP3    H224827   0.644   5.560   0.458  1.9900 -0.3039  1.0716
 1090TIP3   OH224828   3.711   2.365   1.762 -0.3663 -0.6596 -0.2677
 1090TIP3    H124829   3.644   2.322   1.814 -0.5724 -0.0005  0.0149
 1090TIP3    H224830   3.665   2.436   1.716 -0.1099 -0.9725 -1.0278
 1091TIP3   OH224831   3.089   6.797   8.506 -0.5091  0.1866  0.0593
 1091TIP3    H124832   3.077   6.851   8.428 -0.8203  0.0748  0.0264
 1091TIP3    H224833   3.181   6.807   8.529 -0.6247  0.9411  0.2066
 1092TIP3   OH224834   1.415   3.646   7.422 -0.3416  0.1182  0.5454
 1092TIP3    H124835   1.443   3.649   7.331 -0.4364  0.0455  0.5139
 1092TIP3    H224836   1.340   3.587   7.423 -0.1536 -0.1209  0.7221
 1093TIP3   OH224837   3.341   2.947   0.126 -0.3973 -0.5058  0.4864
 1093TIP3    H124838   3.292   2.961   0.207  2.8483  1.4870  2.2850
 1093TIP3    H224839   3.407   2.882   0.149 -0.0912 -0.7218 -0.9186
 1094TIP3   OH224840   5.196   1.308   8.395 -0.2435  0.2836 -0.4917
 1094TIP3    H124841   5.191   1.384   8.453  1.1628  0.7839 -0.9729
 1094TIP3    H224842   5.118   1.315   8.340 -0.0848  1.4808 -0.6070
 1095TIP3   OH224843   0.270   3.098   0.031  0.2614  0.1665  0.0368
 1095TIP3    H124844   0.195   3.134   0.079  0.1897 -0.0275  0.0715
 1095TIP3    H224845   0.346   3.125   0.081  0.2903  1.2712 -0.5651
 1096TIP3   OH224846   2.402   6.296   0.846  0.1363  0.2451 -0.5280
 1096TIP3    H124847   2.481   6.317   0.797 -0.4720  0.9161 -1.2524
 1096TIP3    H224848   2.346   6.373   0.834 -0.1986  0.2297  0.8675
 1097TIP3   OH224849   4.034   0.226   7.975  0.1369 -0.5306  1.0584
 1097TIP3    H124850   3.952   0.189   7.941 -0.5514  0.6848  1.3420
 1097TIP3    H224851   4.029   0.211   8.069  0.6002 -1.1107  0.9983
 1098TIP3   OH224852   0.455   5.529   7.595 -0.4101  0.2906  0.2208
 1098TIP3    H124853   0.423   5.603   7.545 -2.2443 -0.3227  0.4015
 1098TIP3    H224854   0.451   5.455   7.535  1.8281  0.3618 -0.0969
 1099TIP3   OH224855   3.008   2.165   2.493 -0.7951  0.2656  0.3481
 1099TIP3    H124856   3.072   2.134   2.558  0.3732  1.4372 -0.1866
 1099TIP3    H224857   3.035   2.255   2.475 -0.8540 -0.1240 -2.0097
 1100TIP3   OH224858   2.918   5.490   0.857 -0.6964  0.4273 -0.0186
 1100TIP3    H124859   2.937   5.539   0.777 -1.2177  1.8896  0.7193
 1100TIP3    H224860   3.004   5.464   0.890 -0.1193  3.2210  0.9864
 1101TIP3   OH224861   3.208   4.123   7.931  0.2402 -0.3406 -0.0289
 1101TIP3    H124862   3.291   4.158   7.963 -0.2653  0.8332  0.0517
 1101TIP3    H224863   3.157   4.106   8.010 -0.5574  1.4224 -0.1237
 1102TIP3   OH224864   4.300   4.021   7.412  0.4377 -0.3267 -0.0518
 1102TIP3    H124865   4.236   3.959   7.377  0.3600  0.1652 -0.8087
 1102TIP3    H224866   4.292   4.098   7.356 -0.6051  1.0202  1.8357
 1103TIP3   OH224867   1.261   3.368   1.499 -0.0076  1.4436  0.2858
 1103TIP3    H124868   1.280   3.414   1.418 -0.3023  0.3757 -0.4142
 1103TIP3    H224869   1.336   3.386   1.555  1.8933 -0.4910 -1.4488
 1104TIP3   OH224870   1.559   2.588   0.019  0.0479 -0.6156  0.3069
 1104TIP3    H124871   1.518   2.674   0.013 -2.3805 -1.7346 -0.0224
 1104TIP3    H224872   1.549   2.550  -0.068  1.7802 -0.9892  0.2235
 1105TIP3   OH224873   3.665   3.714   1.113  0.1837  0.4881 -0.1289
 1105TIP3    H124874   3.645   3.791   1.060  0.9799 -0.0126 -1.1800
 1105TIP3    H224875   3.593   3.710   1.176  0.9281  3.0213  1.0430
 1106TIP3   OH224876   1.395   2.628   6.687  0.1790 -0.1804 -0.2609
 1106TIP3    H124877   1.361   2.717   6.699 -0.9053 -0.6424  0.3112
 1106TIP3    H224878   1.360   2.580   6.762  2.7790 -0.5633  0.8175
 1107TIP3   OH224879   6.001   5.057   0.432 -0.0344  0.1245 -0.0571
 1107TIP3    H124880   6.062   5.092   0.366  0.9732 -0.4774  0.5383
 1107TIP3    H224881   6.021   4.964   0.436 -1.1865 -0.1341 -0.0321
 1108TIP3   OH224882   0.839   2.780   7.450 -0.0344 -0.5509 -0.0526
 1108TIP3    H124883   0.767   2.741   7.499 -1.1292  0.6767 -0.6412
 1108TIP3    H224884   0.860   2.859   7.498  1.6798 -1.4135  0.7177
 1109TIP3   OH224885   4.848   0.626   8.671  0.9592 -0.1442  0.4177
 1109TIP3    H124886   4.777   0.684   8.644 -0.6538 -2.1750 -0.0336
 1109TIP3    H224887   4.926   0.662   8.630  0.0321  1.6738  0.1647
 1110TIP3   OH224888   3.163   4.370   0.956  0.0640  0.3083  0.3779
 1110TIP3    H124889   3.123   4.322   1.029 -1.4024 -0.5962 -0.9452
 1110TIP3    H224890   3.234   4.419   0.996  0.4929 -1.5764  2.1291
 1111TIP3   OH224891   1.103   6.143   1.782 -0.3608  0.2147  0.2810
 1111TIP3    H124892   1.071   6.055   1.801 -1.6819 -0.4715 -3.9949
 1111TIP3    H224893   1.181   6.129   1.728  0.3790  1.7465  0.8917
 1112TIP3   OH224894   6.633   5.261   8.194  0.2231  0.1477 -0.3229
 1112TIP3    H124895   6.631   5.200   8.268  0.0119  0.8101  0.2262
 1112TIP3    H224896   6.719   5.249   8.155  0.8509  0.7458  0.8412
 1113TIP3   OH224897   4.420   4.491   7.919 -0.0272 -0.3211  0.6135
 1113TIP3    H124898   4.508   4.517   7.947  0.6245  0.5782 -1.9882
 1113TIP3    H224899   4.435   4.418   7.859 -1.0486 -0.1919  0.1796
 1114TIP3   OH224900   6.482   2.065   8.317  0.0150  0.2494 -0.3599
 1114TIP3    H124901   6.451   2.147   8.278  0.3257  0.7132  0.3499
 1114TIP3    H224902   6.489   2.084   8.410  0.3000 -0.5258 -0.2146
 1115TIP3   OH224903   6.203   3.706   1.077 -0.2898  0.3510 -0.3442
 1115TIP3    H124904   6.168   3.778   1.129 -0.8251 -0.3078  0.2194
 1115TIP3    H224905   6.131   3.643   1.071  0.4884 -0.6048  0.0541
 1116TIP3   OH224906   3.948   2.107   0.163 -0.2493  0.0934  0.2843
 1116TIP3    H124907   4.014   2.083   0.229  0.0270  0.3655  0.1124
 1116TIP3    H224908   3.999   2.119   0.083 -0.5780 -0.1878  0.0342
 1117TIP3   OH224909   4.040   2.921   8.750  0.1243  0.4345 -0.1193
 1117TIP3    H124910   4.103   2.956   8.686  0.4963 -1.5976 -0.9221
 1117TIP3    H224911   3.973   2.878   8.697 -0.8002  0.6816  0.8179
 1118TIP3   OH224912   1.731   3.398   8.581 -0.1839 -0.0095  0.1877
 1118TIP3    H124913   1.675   3.364   8.651 -1.7446  0.8518 -0.6052
 1118TIP3    H224914   1.693   3.483   8.559  3.0933  2.0248  1.5574
 1119TIP3   OH224915   0.561   6.731   0.702  0.5815  0.6332  0.1918
 1119TIP3    H124916   0.522   6.812   0.736  0.6915  0.3122  1.1003
 1119TIP3    H224917   0.645   6.724   0.747  0.5204 -0.0538  0.2123
 1120TIP3   OH224918   3.146   6.755   2.155  0.1603  0.4792 -0.2460
 1120TIP3    H124919   3.203   6.780   2.083 -1.0729  1.0968 -1.0304
 1120TIP3    H224920   3.140   6.659   2.148  3.5387 -0.0829  1.7633
 1121TIP3   OH224921   4.312   1.993   7.675  0.4671 -0.2707  0.7336
 1121TIP3    H124922   4.335   1.931   7.607  0.6955 -0.0526  0.6118
 1121TIP3    H224923   4.358   2.074   7.652 -1.9293  0.8113 -0.5979
 1122TIP3   OH224924   6.579   0.860   1.883  0.0233 -0.2518  0.0940
 1122TIP3    H124925   6.495   0.902   1.903 -0.3934 -1.3015  0.6001
 1122TIP3    H224926   6.581   0.783   1.939  0.6558 -1.0558 -0.9995
 1123TIP3   OH224927   4.813   5.653   1.493 -0.4341  0.4509  0.0236
 1123TIP3    H124928   4.769   5.667   1.410  0.8298  0.1979 -0.7271
 1123TIP3    H224929   4.765   5.581   1.535  0.5707 -1.3742 -1.7921
 1124TIP3   OH224930   1.295   4.810   6.725  0.0320  0.0719 -0.3365
 1124TIP3    H124931   1.231   4.777   6.788  1.4737  1.1545  1.8227
 1124TIP3    H224932   1.258   4.892   6.694 -0.0847  0.2244  0.1859
 1125TIP3   OH224933   1.676   3.330   1.758 -0.1846 -0.4785 -0.2534
 1125TIP3    H124934   1.604   3.296   1.811  0.7059  0.2757  1.5436
 1125TIP3    H224935   1.634   3.386   1.693 -1.3602 -1.8589 -0.7442
 1126TIP3   OH224936   6.402   6.421   0.288 -0.0898  0.2065 -0.4726
 1126TIP3    H124937   6.310   6.403   0.267 -0.2245  1.1986 -0.7666
 1126TIP3    H224938   6.400   6.448   0.380  0.0788 -0.9694 -0.1096
 1127TIP3   OH224939   6.416   1.114   6.933 -0.0631  0.3573  0.3487
 1127TIP3    H124940   6.435   1.062   7.012 -1.6330 -1.3672 -0.3372
 1127TIP3    H224941   6.418   1.051   6.862 -0.0257  1.6406 -0.8169
 1128TIP3   OH224942   4.926   4.617   7.570  0.4246 -0.6308  0.1171
 1128TIP3    H124943   5.011   4.604   7.528 -0.6486 -2.9737 -1.4999
 1128TIP3    H224944   4.881   4.680   7.513  1.3820  1.4641  1.5625
 1129TIP3   OH224945   2.983   2.478   8.562  0.0241 -0.0499  0.1604
 1129TIP3    H124946   2.925   2.461   8.636  0.5395  2.3097  1.1724
 1129TIP3    H224947   2.947   2.424   8.491 -1.1637 -1.4821  1.7654
 1130TIP3   OH224948   0.626   2.298   8.051  0.4567 -0.1034 -0.4268
 1130TIP3    H124949   0.646   2.379   8.098 -0.8161 -0.3664  0.6238
 1130TIP3    H224950   0.571   2.248   8.111 -1.6904 -0.2423 -2.3601
 1131TIP3   OH224951   1.097   3.440   8.009  0.0421 -0.1626 -0.0976
 1131TIP3    H124952   1.078   3.532   8.028  0.1785  0.0692 -1.0290
 1131TIP3    H224953   1.090   3.433   7.914  0.6183 -0.9826 -0.0953
 1132TIP3   OH224954   3.885   0.705   1.849  0.3624  0.4873 -0.1980
 1132TIP3    H124955   3.860   0.624   1.805 -1.8492  1.4690 -0.8542
 1132TIP3    H224956   3.864   0.690   1.941 -1.6884  0.8614 -0.5634
 1133TIP3   OH224957   1.658   4.752   1.094  0.1411  0.4489  0.7056
 1133TIP3    H124958   1.711   4.793   1.025  1.9531 -0.4247  1.4944
 1133TIP3    H224959   1.709   4.675   1.121 -1.5773 -0.4719  1.5213
 1134TIP3   OH224960   2.545   0.217   2.486  0.2520 -0.5372  0.5939
 1134TIP3    H124961   2.472   0.181   2.435  1.9811 -3.2464 -0.1950
 1134TIP3    H224962   2.507   0.291   2.533 -2.0429  0.6101 -2.6970
 1135TIP3   OH224963   6.753   3.633   1.101  0.3502  0.2221 -0.2172
 1135TIP3    H124964   6.665   3.631   1.063  0.5044 -1.5497 -0.5623
 1135TIP3    H224965   6.811   3.652   1.027  0.3086  0.8796 -0.0847
 1136TIP3   OH224966   0.124   4.140   7.261  0.0745 -0.2295  0.2417
 1136TIP3    H124967   0.179   4.127   7.184  3.0915 -0.0018  2.2090
 1136TIP3    H224968   0.129   4.234   7.278 -0.3129 -0.3246  0.9172
 1137TIP3   OH224969   0.870   4.632   8.392  0.5560 -0.5468 -0.3991
 1137TIP3    H124970   0.805   4.565   8.374  0.0728 -0.4300  0.8443
 1137TIP3    H224971   0.949   4.601   8.348  0.4136 -2.0577  0.3427
 1138TIP3   OH224972   6.407   3.146   0.481 -0.6405  0.2548 -0.1596
 1138TIP3    H124973   6.502   3.158   0.481 -0.4885 -0.8472  0.0354
 1138TIP3    H224974   6.376   3.194   0.404 -0.0143  1.2008  0.1642
 1139TIP3   OH224975   5.471   5.016   7.379  0.2489  0.0946  0.2206
 1139TIP3    H124976   5.517   5.084   7.428  1.8235 -0.4678 -0.3854
 1139TIP3    H224977   5.433   5.061   7.304  0.2930  0.5025  0.4440
 1140TIP3   OH224978   4.448   2.765   1.120 -0.3183 -0.1356  0.6572
 1140TIP3    H124979   4.466   2.849   1.161 -1.2290 -0.5760  2.0273
 1140TIP3    H224980   4.531   2.718   1.123 -0.0030  0.4157  0.5860
 1141TIP3   OH224981   4.270   0.878   6.917 -0.0472 -0.1571 -0.4320
 1141TIP3    H124982   4.291   0.965   6.883  0.7122 -0.0289  0.3348
 1141TIP3    H224983   4.199   0.847   6.861 -0.5334  1.0723 -0.5225
 1142TIP3   OH224984   4.058   0.195   8.505  0.3505  0.0923  0.0921
 1142TIP3    H124985   4.063   0.138   8.582 -0.6898  0.7909  0.7007
 1142TIP3    H224986   4.140   0.243   8.505  0.0891  0.5542  1.1451
 1143TIP3   OH224987   2.013   0.429   8.118  0.3730  0.1319  0.0999
 1143TIP3    H124988   1.926   0.429   8.157  0.1520  0.6982 -0.3868
 1143TIP3    H224989   2.013   0.503   8.058  1.1990  0.1521  0.1113
 1144TIP3   OH224990   5.622   4.172   1.744 -0.1183  0.2681  0.0878
 1144TIP3    H124991   5.693   4.186   1.807  0.4050 -0.3658 -0.3397
 1144TIP3    H224992   5.542   4.174   1.796  0.3959 -2.0179  1.0825
 1145TIP3   OH224993   1.447   0.608   6.493 -0.3339  0.7839 -0.1448
 1145TIP3    H124994   1.465   0.544   6.563  0.8526 -0.1085 -1.2266
 1145TIP3    H224995   1.352   0.606   6.484 -0.2734 -2.1592 -1.2943
 1146TIP3   OH224996   0.398   4.476   1.499  0.0444  0.2941  0.1967
 1146TIP3    H124997   0.447   4.500   1.577  2.2862  1.5107 -1.4643
 1146TIP3    H224998   0.315   4.524   1.507  0.7555  1.4027  1.2282
 1147TIP3   OH224999   6.600   6.259   0.184  0.2624 -0.5056  0.1369
 1147TIP3    H125000   6.527   6.294   0.235  0.0520 -2.4145  1.2599
 1147TIP3    H225001   6.658   6.220   0.250  0.7131 -1.7687 -0.9598
 1148TIP3   OH225002   2.438   1.584   6.715  0.3075  0.0103 -0.2481
 1148TIP3    H125003   2.345   1.562   6.712  0.4049 -0.5953  0.5740
 1148TIP3    H225004   2.479   1.504   6.750  1.0912  0.3761 -0.3316
 1149TIP3   OH225005   4.869   1.612   7.903  0.3478  0.2415  0.2543
 1149TIP3    H125006   4.927   1.619   7.979  2.1714 -1.5683 -0.8681
 1149TIP3    H225007   4.852   1.518   7.893  0.7449  0.3348 -1.9398
 1150TIP3   OH225008   6.835   2.392   0.296  0.1694  1.0030  0.3922
 1150TIP3    H125009   6.775   2.452   0.251 -1.5536  0.8722  2.3631
 1150TIP3    H225010   6.921   2.412   0.260 -1.0643  0.6425 -3.1920
 1151TIP3   OH225011   2.512   1.916   1.191 -0.2338  0.2024 -0.3999
 1151TIP3    H125012   2.570   1.873   1.254  0.3986  0.9357 -0.4668
 1151TIP3    H225013   2.431   1.930   1.239 -0.6664 -1.5153 -0.5299
 1152TIP3   OH225014   1.736   0.188   1.724 -0.3835  0.0815  0.8059
 1152TIP3    H125015   1.751   0.222   1.813  0.2275  1.4139  0.2155
 1152TIP3    H225016   1.770   0.255   1.666  2.5349 -2.2429 -0.4647
 1153TIP3   OH225017   1.779   1.690   0.577 -0.0061 -0.4205  0.0318
 1153TIP3    H125018   1.750   1.612   0.529  0.8039 -0.5473 -0.2582
 1153TIP3    H225019   1.859   1.663   0.622  0.9967  0.5891 -1.0803
 1154TIP3   OH225020   5.352   1.409   1.460 -0.1564  0.5770 -0.1406
 1154TIP3    H125021   5.345   1.336   1.521 -3.1562 -1.7555 -2.9293
 1154TIP3    H225022   5.293   1.476   1.496  0.8177  0.7584  1.2183
 1155TIP3   OH225023   1.748   1.808   6.871 -0.3210  0.2047 -0.4327
 1155TIP3    H125024   1.841   1.792   6.889 -0.4906 -0.5722 -0.1991
 1155TIP3    H225025   1.720   1.732   6.821 -0.9667  0.1500 -0.0041
 1156TIP3   OH225026   4.554   1.731   0.204 -0.1133  0.1413  0.5412
 1156TIP3    H125027   4.534   1.717   0.296  1.1777  0.3361  0.8732
 1156TIP3    H225028   4.639   1.775   0.204  0.7804 -1.4481 -0.7735
 1157TIP3   OH225029   5.526   0.351   0.676 -0.2237 -0.5759  1.0082
 1157TIP3    H125030   5.615   0.319   0.690  0.3889 -0.4134 -1.8759
 1157TIP3    H225031   5.535   0.446   0.669 -0.1936 -0.7109 -1.5143
 1158TIP3   OH225032   1.318   1.299   7.586  0.3702  0.2788 -0.3970
 1158TIP3    H125033   1.225   1.319   7.575 -0.0748 -0.3660  1.5968
 1158TIP3    H225034   1.355   1.305   7.498 -1.8816 -1.0213 -1.5291
 1159TIP3   OH225035   2.769   3.299   0.301  0.5135  0.2313 -0.7258
 1159TIP3    H125036   2.739   3.227   0.356 -1.0989  1.6549  0.3584
 1159TIP3    H225037   2.861   3.312   0.324  0.7779 -1.3393 -0.8251
 1160TIP3   OH225038   1.038   5.020   8.136 -0.5871  0.3496  0.6688
 1160TIP3    H125039   0.963   5.017   8.077 -0.8932  0.9730  1.0210
 1160TIP3    H225040   1.057   5.113   8.148  0.8938  0.1960 -0.2228
 1161TIP3   OH225041   6.313   2.326   1.196  0.1670  0.3570 -0.1846
 1161TIP3    H125042   6.388   2.286   1.152 -0.9795  0.6924 -2.6214
 1161TIP3    H225043   6.273   2.381   1.129 -1.1654  1.7191  1.6211
 1162TIP3   OH225044   0.798   0.072   6.807 -0.2947  0.2381 -0.4483
 1162TIP3    H125045   0.714   0.094   6.847 -1.0946  2.4085 -3.0281
 1162TIP3    H225046   0.864   0.112   6.864 -0.9776 -0.9826  1.2826
 1163TIP3   OH225047   2.047   0.073   0.863  0.6660  0.4624 -0.2457
 1163TIP3    H125048   2.066   0.123   0.942  0.7510 -0.1306  0.1148
 1163TIP3    H225049   2.054  -0.018   0.890 -1.0134  0.2241 -0.5079
 1164TIP3   OH225050   5.174   6.601   0.737  0.1224 -0.3121 -1.0171
 1164TIP3    H125051   5.233   6.638   0.672 -0.9789  1.7917 -0.8959
 1164TIP3    H225052   5.087   6.619   0.703 -0.4968 -2.0058 -0.4490
 1165TIP3   OH225053   3.747   5.642   2.972 -0.3816  0.5967 -0.6515
 1165TIP3    H125054   3.825   5.685   2.937  0.5219 -0.3280  0.1700
 1165TIP3    H225055   3.680   5.711   2.971  0.0056  1.0290 -2.6905
 1166TIP3   OH225056   2.357   4.401   1.015 -0.4944 -0.1071 -0.1754
 1166TIP3    H125057   2.323   4.375   0.929 -0.4460  0.0018 -0.2279
 1166TIP3    H225058   2.452   4.410   1.001 -0.5893  0.6904 -0.3026
 1167TIP3   OH225059   2.824   3.250   2.410  0.5151 -0.2690  0.2737
 1167TIP3    H125060   2.769   3.172   2.418 -0.6116 -0.0643 -3.5810
 1167TIP3    H225061   2.763   3.323   2.423  0.8571 -0.0177  0.4976
 1168TIP3   OH225062   4.435   6.008   1.604 -0.2890  0.1161  0.2109
 1168TIP3    H125063   4.403   5.941   1.543  0.2288 -1.1971  1.3152
 1168TIP3    H225064   4.356   6.057   1.628 -0.4834  0.7323 -1.5590
 1169TIP3   OH225065   3.142   4.322   0.398  0.2757 -0.3629  0.4147
 1169TIP3    H125066   3.086   4.396   0.374  2.1562  1.0011  0.0187
 1169TIP3    H225067   3.103   4.286   0.478  0.0508  1.9300  1.3982
 1170TIP3   OH225068   5.844   4.331   8.613  0.2635 -0.2375  0.0449
 1170TIP3    H125069   5.783   4.386   8.663 -0.1779 -0.2272 -0.4923
 1170TIP3    H225070   5.855   4.378   8.530  1.3684 -0.0068  0.3109
 1171TIP3   OH225071   1.422   4.330   8.057  0.1379 -0.1498 -0.0365
 1171TIP3    H125072   1.385   4.247   8.028  0.5872 -0.8694  1.3857
 1171TIP3    H225073   1.426   4.383   7.977 -1.6797 -0.8914 -0.6715
 1172TIP3   OH225074   3.948   4.125   0.307  0.4053  0.0134 -0.3095
 1172TIP3    H125075   3.986   4.213   0.314 -0.5408  0.5101 -1.1223
 1172TIP3    H225076   3.870   4.128   0.362  0.1702 -0.1911 -0.6222
 1173TIP3   OH225077   3.856   6.657   1.881 -0.3143 -0.4015 -0.2933
 1173TIP3    H125078   3.886   6.568   1.901 -2.7183 -1.0064  1.1245
 1173TIP3    H225079   3.888   6.709   1.955 -0.0066 -0.3685 -0.4505
 1174TIP3   OH225080   6.706   4.727   8.539 -0.0620 -0.3012 -0.0370
 1174TIP3    H125081   6.638   4.792   8.558  1.4690  0.8434  2.0701
 1174TIP3    H225082   6.708   4.721   8.444 -0.9855  1.9708 -0.2633
 1175TIP3   OH225083   3.155   1.365   8.550 -0.1863 -0.2016 -0.3497
 1175TIP3    H125084   3.187   1.283   8.586 -1.0294 -0.0230  0.8432
 1175TIP3    H225085   3.081   1.341   8.495 -0.2000 -0.2685 -0.3008
 1176TIP3   OH225086   3.406   4.085   7.342  0.4273 -0.0451  0.0353
 1176TIP3    H125087   3.369   4.068   7.255  2.4759  0.1711 -0.9354
 1176TIP3    H225088   3.429   3.998   7.376  0.9716 -0.0297 -0.2835
 1177TIP3   OH225089   6.745   0.597   6.822  0.6419  0.4335 -0.0241
 1177TIP3    H125090   6.760   0.502   6.823  1.3183  0.5270 -0.9029
 1177TIP3    H225091   6.693   0.613   6.744  0.6754  0.8175  0.0299
 1178TIP3   OH225092   5.660   3.437   7.993  0.1010  0.2613 -0.4332
 1178TIP3    H125093   5.665   3.526   8.027  0.6473  0.2785 -0.5450
 1178TIP3    H225094   5.612   3.445   7.910  0.9510  0.5966 -0.9027
 1179TIP3   OH225095   0.077   2.711   0.969  0.2254  0.1848  0.3116
 1179TIP3    H125096  -0.006   2.760   0.970  0.1751  0.1518 -0.9546
 1179TIP3    H225097   0.084   2.678   0.879  2.5170  1.7267 -0.1629
 1180TIP3   OH225098   0.631   3.853   0.739  0.1910  0.6365 -0.3592
 1180TIP3    H125099   0.680   3.919   0.689 -3.6237  2.5145 -1.9834
 1180TIP3    H225100   0.626   3.890   0.827  0.9960  0.7750 -0.3606
 1181TIP3   OH225101   2.797   5.353   2.020  0.0053 -0.1638 -0.0839
 1181TIP3    H125102   2.777   5.311   2.104 -2.1600 -0.6584 -0.7699
 1181TIP3    H225103   2.730   5.318   1.961  0.0351  1.9566 -1.4300
 1182TIP3   OH225104   3.419   3.865   8.746  0.0184  0.2315  0.0211
 1182TIP3    H125105   3.425   3.900   8.657  1.4548 -0.8690 -0.3599
 1182TIP3    H225106   3.439   3.940   8.803  0.2463  0.6804 -0.6353
 1183TIP3   OH225107   1.515   3.500   1.608  0.0811  0.5743  0.4371
 1183TIP3    H125108   1.485   3.575   1.659  1.3953  0.4132  1.5038
 1183TIP3    H225109   1.548   3.537   1.527 -0.3818  1.0151  0.4444
 1184TIP3   OH225110   6.521   6.843   7.647  0.2330  0.0257  0.0919
 1184TIP3    H125111   6.594   6.899   7.674  1.8187 -0.8582 -2.0732
 1184TIP3    H225112   6.452   6.905   7.621  0.9240  0.9157  0.3379
 1185TIP3   OH225113   2.239   0.363   8.447 -0.0087  0.7358  0.2355
 1185TIP3    H125114   2.308   0.303   8.476 -1.3633 -0.2236  1.6037
 1185TIP3    H225115   2.287   0.442   8.420  1.7794 -0.7032 -1.0647
 1186TIP3   OH225116   2.888   2.082   7.538 -0.3542 -0.0341 -0.5851
 1186TIP3    H125117   2.956   2.078   7.471  0.3040  1.5307 -0.0591
 1186TIP3    H225118   2.857   1.992   7.546 -0.0032 -0.3775 -2.5059
 1187TIP3   OH225119   0.046   4.745   1.330  0.1784  0.9316 -0.0205
 1187TIP3    H125120   0.007   4.669   1.373  1.5881  1.0606  1.5909
 1187TIP3    H225121   0.095   4.709   1.257  0.2906  0.3610  0.3321
 1188TIP3   OH225122   4.303   0.645   7.811 -0.0534 -0.7012 -0.2837
 1188TIP3    H125123   4.245   0.570   7.800 -0.9739 -0.5655  2.8993
 1188TIP3    H225124   4.254   0.707   7.864  1.5440  1.1921 -0.8820
 1189TIP3   OH225125   3.871   3.872   7.422 -0.1050  0.5074 -0.1953
 1189TIP3    H125126   3.923   3.937   7.374 -0.6048  0.3205 -1.0180
 1189TIP3    H225127   3.930   3.798   7.433  0.4544  1.0739  0.7071
 1190TIP3   OH225128   1.897   1.721   8.521 -0.1503 -0.2688 -0.2131
 1190TIP3    H125129   1.963   1.667   8.478 -0.2785 -3.0391  2.6847
 1190TIP3    H225130   1.943   1.803   8.542  1.0085 -0.3989 -2.0351
 1191TIP3   OH225131   1.245   2.289   7.800 -0.1262 -0.0459 -0.2111
 1191TIP3    H125132   1.291   2.234   7.736  0.8654 -0.0106  0.4423
 1191TIP3    H225133   1.165   2.242   7.820 -0.5367  0.0180 -1.5968
 1192TIP3   OH225134   2.630   3.835   0.037  0.3980  0.0863  0.0761
 1192TIP3    H125135   2.672   3.855  -0.046  1.2197 -0.4509  0.3580
 1192TIP3    H225136   2.632   3.740   0.043 -0.5256  0.0698  0.2712
 1193TIP3   OH225137   1.832   3.991   1.338  0.2737  0.7940  0.4114
 1193TIP3    H125138   1.899   3.928   1.313  0.2027  1.6962 -2.4309
 1193TIP3    H225139   1.843   4.002   1.433  2.0980 -1.3224  0.5279
 1194TIP3   OH225140   5.134   4.346   0.756 -0.5127 -0.1225 -0.1369
 1194TIP3    H125141   5.174   4.386   0.834 -0.5963  0.0586 -0.1855
 1194TIP3    H225142   5.204   4.294   0.717 -0.6156 -0.6358  0.3474
 1195TIP3   OH225143   4.730   5.748   0.389 -0.0362  0.3449  0.3658
 1195TIP3    H125144   4.825   5.744   0.389 -0.0455 -0.0272 -0.1571
 1195TIP3    H225145   4.708   5.834   0.354  0.1124  0.5469  0.7768
 1196TIP3   OH225146   6.225   1.984   0.342  0.4850 -0.7894  0.1552
 1196TIP3    H125147   6.178   1.972   0.425 -0.8090 -2.0369 -0.7023
 1196TIP3    H225148   6.289   1.914   0.341  1.8335  0.3797  0.9217
 1197TIP3   OH225149   6.403   2.445   8.537 -0.2491  0.3424  0.6803
 1197TIP3    H125150   6.464   2.375   8.513  0.5826  1.8420 -1.9185
 1197TIP3    H225151   6.459   2.520   8.558 -1.1786  0.8942  1.2819
 1198TIP3   OH225152   3.234   0.779   7.895  0.1625  0.8972 -0.2113
 1198TIP3    H125153   3.327   0.763   7.916  0.3237  1.1666 -0.7018
 1198TIP3    H225154   3.236   0.855   7.836 -0.3524  0.7283 -0.4466
 1199TIP3   OH225155   3.927   4.948   0.373  0.2640 -0.1828  0.4279
 1199TIP3    H125156   3.975   5.017   0.418  1.4525  0.0211 -1.0704
 1199TIP3    H225157   3.990   4.913   0.309 -0.8550 -1.4998  0.0002
 1200TIP3   OH225158   1.144   0.757   2.133  0.1600  0.0491  0.0503
 1200TIP3    H125159   1.130   0.794   2.046 -0.5084  1.3320  0.6679
 1200TIP3    H225160   1.143   0.663   2.120 -0.8733  0.2039 -1.1984
 1201TIP3   OH225161   6.425   0.327   2.080 -0.3426 -0.1732  0.9597
 1201TIP3    H125162   6.406   0.419   2.095 -0.8845  0.1878 -1.4246
 1201TIP3    H225163   6.517   0.317   2.105  0.4581  1.6612 -0.9616
 1202TIP3   OH225164   4.971   5.392   1.283 -0.2508 -0.2897  0.5859
 1202TIP3    H125165   4.912   5.449   1.233  0.2256 -0.8589 -0.6583
 1202TIP3    H225166   4.999   5.446   1.357 -0.8755  0.6184  0.1836
 1203TIP3   OH225167   2.564   3.461   0.374 -0.6647 -0.0932 -0.3328
 1203TIP3    H125168   2.628   3.397   0.342  0.9305 -0.0086  2.3494
 1203TIP3    H225169   2.512   3.412   0.438 -0.0746  0.9508  1.0111
 1204TIP3   OH225170   2.628   2.178   0.708 -0.1158  0.0680 -0.9044
 1204TIP3    H125171   2.620   2.129   0.790 -1.0980  2.7980  0.7745
 1204TIP3    H225172   2.545   2.162   0.662 -0.4878  0.2231 -0.3014
 1205TIP3   OH225173   0.408   3.760   2.756  0.4514  0.4273 -0.3527
 1205TIP3    H125174   0.441   3.733   2.842  0.7084  0.6653 -0.3769
 1205TIP3    H225175   0.328   3.809   2.775  1.1990  1.6178 -0.1540
 1206TIP3   OH225176   4.123   5.915   8.051 -0.6116 -0.2998  0.1423
 1206TIP3    H125177   4.194   5.972   8.078  0.4241 -1.7955  0.7212
 1206TIP3    H225178   4.118   5.849   8.121 -2.0557 -0.6688 -0.2787
 1207TIP3   OH225179   3.074   4.766   0.111 -0.2842 -0.2755 -0.3243
 1207TIP3    H125180   2.984   4.794   0.095 -0.3856 -0.3101  0.1589
 1207TIP3    H225181   3.083   4.686   0.060 -0.6517 -0.4790 -0.0805
 1208TIP3   OH225182   5.922   4.080   8.152 -0.5391 -0.1337  0.2311
 1208TIP3    H125183   5.983   4.036   8.093  0.5583 -0.8112  1.8185
 1208TIP3    H225184   5.835   4.056   8.119  0.0485 -0.8198 -0.8585
 1209TIP3   OH225185   0.633   5.440   7.776 -0.2119 -0.4816 -0.0033
 1209TIP3    H125186   0.567   5.374   7.800 -1.1053 -0.5595 -2.3663
 1209TIP3    H225187   0.583   5.507   7.729  1.0727  0.6568  0.1960
 1210TIP3   OH225188   2.208   4.292   7.770  0.5876 -0.2548 -0.0515
 1210TIP3    H125189   2.156   4.318   7.846 -0.4625  0.3980 -0.9752
 1210TIP3    H225190   2.265   4.367   7.753 -0.4320  0.3337 -0.9730
 1211TIP3   OH225191   5.723   5.405   8.502 -0.9348  0.7185  0.1599
 1211TIP3    H125192   5.637   5.362   8.502 -0.3841 -0.4359  0.7958
 1211TIP3    H225193   5.752   5.400   8.412 -1.5791  1.2287 -0.0882
 1212TIP3   OH225194   5.324   3.462   0.442  0.1160 -0.1598  0.0946
 1212TIP3    H125195   5.419   3.472   0.439  0.3265 -1.9699 -0.6784
 1212TIP3    H225196   5.308   3.409   0.519 -0.1270 -0.9563 -0.4932
 1213TIP3   OH225197   3.663   3.191   2.189  0.1257  0.0963  0.2561
 1213TIP3    H125198   3.588   3.221   2.240 -1.5781 -1.7915 -0.9425
 1213TIP3    H225199   3.647   3.226   2.101  1.4243  0.8318  0.2912
 1214TIP3   OH225200   4.402   3.435   1.052 -0.5124  0.5027  0.4384
 1214TIP3    H125201   4.434   3.503   0.993  0.1791 -0.5879 -0.4856
 1214TIP3    H225202   4.386   3.359   0.995 -0.3940 -0.3966  1.5652
 1215TIP3   OH225203   2.323   0.261   1.753 -0.0645 -0.4301  0.1216
 1215TIP3    H125204   2.348   0.175   1.719  0.5659 -0.1795 -0.0741
 1215TIP3    H225205   2.264   0.242   1.826  0.5667 -1.0633  0.4844
 1216TIP3   OH225206   5.836   1.346   0.468 -0.5007 -0.2631  0.0916
 1216TIP3    H125207   5.884   1.391   0.398  0.3400 -0.6327  0.4200
 1216TIP3    H225208   5.879   1.261   0.476  0.2037  0.2189  1.8717
 1217TIP3   OH225209   2.493   5.572   1.451 -0.2737  0.2287  0.2269
 1217TIP3    H125210   2.521   5.651   1.404  0.5680 -1.1044 -1.5936
 1217TIP3    H225211   2.571   5.545   1.500 -0.3424  0.1084  0.2687
 1218TIP3   OH225212   1.865   4.717   8.444  0.2118 -0.4595 -0.4884
 1218TIP3    H125213   1.783   4.669   8.432 -0.9627  1.4568 -0.5996
 1218TIP3    H225214   1.880   4.762   8.361  0.9842 -0.1973 -0.2201
 1219TIP3   OH225215   1.359   5.260   7.981 -0.3457 -0.1079 -0.2232
 1219TIP3    H125216   1.364   5.248   7.886 -2.0959  0.3370 -0.4144
 1219TIP3    H225217   1.314   5.344   7.992 -1.8631 -1.0162  0.9623
 1220TIP3   OH225218   2.072   2.879   1.542 -0.0459 -0.2088  0.5718
 1220TIP3    H125219   2.158   2.838   1.554  0.3038  0.7892  1.6645
 1220TIP3    H225220   2.089   2.973   1.549 -0.5892  0.3480 -3.2249
 1221TIP3   OH225221   2.505   5.800   8.253 -0.5689 -0.4576  0.2902
 1221TIP3    H125222   2.484   5.842   8.169  0.6147  0.3258  0.3565
 1221TIP3    H225223   2.444   5.726   8.258 -1.1389 -0.1137 -0.9287
 1222TIP3   OH225224   4.112   3.081   2.156 -0.2345  0.0829 -0.1480
 1222TIP3    H125225   4.138   3.010   2.097  0.1357  0.0766  0.0222
 1222TIP3    H225226   4.172   3.075   2.230 -0.9242 -0.1335  0.4080
 1223TIP3   OH225227   1.050   6.338   1.971 -0.4239 -0.1094 -0.3484
 1223TIP3    H125228   1.035   6.421   1.927  1.8818  0.5917  0.0628
 1223TIP3    H225229   1.077   6.278   1.901  2.4464  0.7871 -0.1035
 1224TIP3   OH225230   3.853   5.463   3.171  0.5527 -0.1375  0.2964
 1224TIP3    H125231   3.946   5.484   3.169  1.3535 -3.2354 -0.1410
 1224TIP3    H225232   3.815   5.514   3.100  2.5271 -1.1016 -1.5549
 1225TIP3   OH225233   4.542   6.342   7.760  0.2359  0.4730  0.3614
 1225TIP3    H125234   4.558   6.249   7.777  0.2440  0.5700  0.9276
 1225TIP3    H225235   4.452   6.356   7.787 -0.1339  0.3949 -0.7875
 1226TIP3   OH225236   5.300   0.686   7.657 -0.0989 -0.3342 -0.0598
 1226TIP3    H125237   5.365   0.628   7.698  0.6142  0.2274 -0.3720
 1226TIP3    H225238   5.232   0.627   7.626  0.2509 -0.9370  0.2921
 1227TIP3   OH225239   1.150   2.207   0.071 -0.2316  0.3548  0.2966
 1227TIP3    H125240   1.076   2.170   0.024 -0.2839  0.9229 -0.0754
 1227TIP3    H225241   1.135   2.301   0.070  0.1668  0.4292  0.7752
 1228TIP3   OH225242   6.577   5.647   1.288  0.0523 -0.0868  0.1604
 1228TIP3    H125243   6.526   5.574   1.323 -1.0859  0.2064 -0.7966
 1228TIP3    H225244   6.663   5.609   1.267  1.1137 -0.1151  3.8305
 1229TIP3   OH225245   3.507   5.400   0.673  0.0381 -0.5966 -0.0035
 1229TIP3    H125246   3.462   5.442   0.746 -0.0881 -0.6573 -0.0456
 1229TIP3    H225247   3.577   5.461   0.649  0.0296 -0.5401  0.1156
 1230TIP3   OH225248   0.956   0.625   7.743 -0.0926 -0.0480  0.0566
 1230TIP3    H125249   1.031   0.602   7.687  0.1703 -0.4492  0.5651
 1230TIP3    H225250   0.970   0.575   7.823 -1.1523 -0.5039 -0.0238
 1231TIP3   OH225251   5.293   1.798   0.972  0.2901  0.1087 -0.6495
 1231TIP3    H125252   5.317   1.790   1.064 -1.2380 -2.0042 -0.3499
 1231TIP3    H225253   5.347   1.734   0.927 -0.6257 -0.5560 -0.8350
 1232TIP3   OH225254   2.590   5.637   0.960 -0.2163 -0.3469 -0.2714
 1232TIP3    H125255   2.538   5.716   0.974  0.3721  0.2030 -1.0904
 1232TIP3    H225256   2.602   5.632   0.865 -1.1826 -2.0531 -0.3571
 1233TIP3   OH225257   5.375   0.275   0.963  0.3499 -0.8355  0.5969
 1233TIP3    H125258   5.469   0.271   0.981  0.2361  0.3424  1.5732
 1233TIP3    H225259   5.362   0.362   0.926 -0.0689 -1.7237 -1.4850
 1234TIP3   OH225260   2.764   2.132   0.114  0.4927 -0.6302  0.5061
 1234TIP3    H125261   2.738   2.223   0.125  0.0531 -0.5804 -0.7531
 1234TIP3    H225262   2.858   2.135   0.097  0.3981 -0.3583 -0.0009
 1235TIP3   OH225263   5.050   0.859   6.706  0.4186 -0.3306 -0.2828
 1235TIP3    H125264   5.066   0.788   6.769  1.6012  1.0418  1.0561
 1235TIP3    H225265   4.955   0.859   6.694  0.4419 -2.7227 -1.0877
 1236TIP3   OH225266   6.413   0.661   8.034 -0.5939  0.2228 -0.2468
 1236TIP3    H125267   6.397   0.692   8.122  2.1493  0.2084  0.3495
 1236TIP3    H225268   6.342   0.599   8.017 -1.6473  0.8572  1.5924
 1237TIP3   OH225269   1.021   5.286   7.417  0.3600  0.4502 -0.1191
 1237TIP3    H125270   0.975   5.257   7.339  0.5247  0.2728 -0.1518
 1237TIP3    H225271   0.958   5.343   7.462 -1.1473 -2.2451  1.4796
 1238TIP3   OH225272   0.401   3.513   2.613  0.0865  1.0098  0.3043
 1238TIP3    H125273   0.421   3.575   2.684  3.6112  2.3496 -1.6083
 1238TIP3    H225274   0.306   3.519   2.603 -0.2643  2.5741  3.2521
 1239TIP3   OH225275   0.847   4.606   1.630  0.4560 -0.5196 -0.2413
 1239TIP3    H125276   0.917   4.634   1.689  1.4491  0.3861 -1.7704
 1239TIP3    H225277   0.865   4.513   1.615  0.3052 -0.7131  0.7056
 1240TIP3   OH225278   1.287   1.369   6.632  0.4135  0.0704 -0.2051
 1240TIP3    H125279   1.235   1.360   6.712 -1.8399 -0.5857 -1.6549
 1240TIP3    H225280   1.350   1.297   6.636  0.2734 -0.0153  0.8909
 1241TIP3   OH225281   1.097   3.661   7.013  0.2460  0.2236  0.1748
 1241TIP3    H125282   1.084   3.756   7.014 -0.1046  0.1715  1.0096
 1241TIP3    H225283   1.170   3.646   7.073 -0.1736 -0.0967  0.6129
 1242TIP3   OH225284   5.692   1.570   1.075 -0.4557 -0.2768 -0.8984
 1242TIP3    H125285   5.667   1.494   1.023  1.2799 -0.8292 -0.9785
 1242TIP3    H225286   5.759   1.537   1.135  1.2674  1.4193 -1.7781
 1243TIP3   OH225287   3.530   1.966   1.576  0.2189  0.7231  0.5079
 1243TIP3    H125288   3.472   2.035   1.545  0.5308  0.3794 -0.8841
 1243TIP3    H225289   3.517   1.965   1.671  0.4319  2.9088  0.6240
 1244TIP3   OH225290   2.138   6.792   8.232 -0.1753  0.2077  0.0918
 1244TIP3    H125291   2.141   6.885   8.209  1.6072  0.4134  1.0157
 1244TIP3    H225292   2.224   6.773   8.269 -1.4542 -1.1073  2.6934
 1245TIP3   OH225293   1.395   6.677   0.452 -0.5732  0.1434  0.5300
 1245TIP3    H125294   1.329   6.627   0.500 -1.6097 -0.4214 -1.3952
 1245TIP3    H225295   1.345   6.744   0.406  0.5056  1.2770  0.9447
 1246TIP3   OH225296   5.977   6.232   7.847 -0.2253 -0.2266 -0.4956
 1246TIP3    H125297   6.043   6.299   7.867 -2.3159  1.4025  1.4011
 1246TIP3    H225298   6.018   6.150   7.874  0.7196  0.8419  1.5242
 1247TIP3   OH225299   0.069   0.462   2.636  0.3211 -0.0481 -0.0564
 1247TIP3    H125300   0.142   0.446   2.577  1.4141  0.3204  1.1433
 1247TIP3    H225301  -0.009   0.455   2.581  1.2173 -0.9687 -1.2661
 1248TIP3   OH225302   6.532   3.888   7.084  0.5139 -0.0746  0.4886
 1248TIP3    H125303   6.479   3.965   7.061  1.4205  0.3200 -0.3634
 1248TIP3    H225304   6.622   3.919   7.076  0.8865 -0.6885  2.0684
 1249TIP3   OH225305   5.680   6.500   2.060  0.2215 -0.0643  0.3595
 1249TIP3    H125306   5.741   6.433   2.091 -1.0290 -1.6169 -0.3922
 1249TIP3    H225307   5.626   6.521   2.136  0.3871 -0.1687  0.5064
 1250TIP3   OH225308   2.718   1.808   2.647  0.4723 -0.0626  0.1713
 1250TIP3    H125309   2.711   1.778   2.738 -0.7424  3.0288  1.2499
 1250TIP3    H225310   2.810   1.834   2.637  0.0686  2.1110  1.5166
 1251TIP3   OH225311   2.507   4.235   0.613 -0.0269  0.3790 -0.2394
 1251TIP3    H125312   2.464   4.265   0.534 -0.4824 -1.2430 -0.6375
 1251TIP3    H225313   2.595   4.210   0.585 -0.2759 -0.4505 -0.2975
 1252TIP3   OH225314   6.672   6.623   7.758  0.3746  0.3518 -0.3353
 1252TIP3    H125315   6.632   6.684   7.696  0.5568  0.6240 -0.1862
 1252TIP3    H225316   6.765   6.646   7.758  0.3862  0.3090 -0.0138
 1253TIP3   OH225317   6.603   6.208   7.851  0.7366 -0.8904 -0.2194
 1253TIP3    H125318   6.560   6.276   7.903  3.5157  1.2486 -0.5029
 1253TIP3    H225319   6.533   6.145   7.832 -1.2970  0.2879  2.6289
 1254TIP3   OH225320   5.579   2.561   0.294  0.0558 -0.7263 -0.0789
 1254TIP3    H125321   5.522   2.588   0.366 -0.8412 -3.2334  0.2503
 1254TIP3    H225322   5.657   2.615   0.303 -1.5386  1.6687  0.4548
 1255TIP3   OH225323   4.507   5.329   0.278  0.0409  0.1796  0.2871
 1255TIP3    H125324   4.562   5.406   0.264  0.7494 -0.1558  1.1172
 1255TIP3    H225325   4.560   5.255   0.249 -0.2404 -0.0882  0.4391
 1256TIP3   OH225326   1.514   4.342   0.012  0.0252  0.3866  0.3822
 1256TIP3    H125327   1.512   4.402  -0.063 -1.4331 -2.2493 -1.8856
 1256TIP3    H225328   1.422   4.317   0.024  0.7832 -3.7216 -0.9304
 1257TIP3   OH225329   1.606   3.546   2.495  0.3816  0.2154  0.3278
 1257TIP3    H125330   1.620   3.601   2.418 -0.1387 -2.9914 -2.2713
 1257TIP3    H225331   1.510   3.542   2.503  0.4173  1.8551  2.2954
 1258TIP3   OH225332   5.701   5.377   1.177 -0.3211  0.6744  0.5167
 1258TIP3    H125333   5.700   5.467   1.210  0.5689  1.1962 -0.7810
 1258TIP3    H225334   5.710   5.323   1.255  2.1294  1.8805  1.1863
 1259TIP3   OH225335   0.766   1.551   0.507 -0.1378 -0.0396 -0.2650
 1259TIP3    H125336   0.823   1.604   0.562  1.0981 -1.3272 -0.2557
 1259TIP3    H225337   0.770   1.463   0.545  1.4005 -1.1747 -2.7891
 1260TIP3   OH225338   1.923   3.552   2.544  0.4031 -0.3655  0.1740
 1260TIP3    H125339   1.882   3.609   2.479  0.5636  0.2855  0.6297
 1260TIP3    H225340   1.893   3.586   2.628 -0.2100 -1.5102  0.4409
 1261TIP3   OH225341   2.877   5.624   2.388 -0.3098 -0.2459 -0.4800
 1261TIP3    H125342   2.940   5.633   2.316  1.1459 -1.6412  0.5487
 1261TIP3    H225343   2.931   5.611   2.465 -1.8623 -1.3047  0.4846
 1262TIP3   OH225344   2.236   0.931   2.305 -0.6872  0.3301  0.0281
 1262TIP3    H125345   2.262   0.920   2.397 -2.5480  0.4964  0.6168
 1262TIP3    H225346   2.220   1.025   2.296 -2.3717  0.0705  0.0977
 1263TIP3   OH225347   2.065   5.728   7.561 -0.5868 -0.2231  0.2110
 1263TIP3    H125348   2.008   5.714   7.637 -2.3298 -0.8230 -1.1497
 1263TIP3    H225349   2.064   5.645   7.515  1.2496 -0.1620  0.0146
 1264TIP3   OH225350   0.298   3.824   0.830  0.5832  0.6980 -0.6988
 1264TIP3    H125351   0.275   3.908   0.789 -3.2522  1.1157  1.7939
 1264TIP3    H225352   0.329   3.848   0.918  0.6687 -0.4459 -0.4024
 1265TIP3   OH225353   2.655   5.239   0.693 -0.1572  0.1780 -0.0348
 1265TIP3    H125354   2.662   5.185   0.614 -1.4543 -0.9640  0.5770
 1265TIP3    H225355   2.563   5.229   0.720 -0.2443  2.1539  0.5158
 1266TIP3   OH225356   3.895   4.164   1.319 -0.3207  0.6184  0.4445
 1266TIP3    H125357   3.989   4.148   1.331 -0.5502 -1.9402 -0.4178
 1266TIP3    H225358   3.854   4.086   1.357 -1.8168 -0.3264 -2.8204
 1267TIP3   OH225359   4.494   0.424   0.413  0.0566 -0.1700  0.1163
 1267TIP3    H125360   4.532   0.495   0.466  0.4479  1.0527 -1.7290
 1267TIP3    H225361   4.568   0.391   0.363 -0.6328 -0.1348 -0.9372
 1268TIP3   OH225362   6.277   3.542   2.197 -0.0295 -0.3724  0.3491
 1268TIP3    H125363   6.311   3.454   2.211 -1.2166 -0.7784  0.8061
 1268TIP3    H225364   6.270   3.579   2.285 -0.7307 -0.2966  0.2685
 1269TIP3   OH225365   3.145   6.827   7.580  0.5077  0.4220  0.0307
 1269TIP3    H125366   3.175   6.846   7.491  2.5894  1.8954  0.9702
 1269TIP3    H225367   3.064   6.877   7.589 -0.2757 -0.5615 -1.3435
 1270TIP3   OH225368   3.686   4.854   0.478 -0.1774 -0.4352 -0.7387
 1270TIP3    H125369   3.609   4.908   0.457 -1.3777 -1.8610 -0.1564
 1270TIP3    H225370   3.760   4.908   0.452 -1.3707  0.9392 -1.4537
 1271TIP3   OH225371   5.283   0.515   0.781  0.1492 -0.1865  0.0357
 1271TIP3    H125372   5.243   0.488   0.699 -0.2547  0.8971 -0.1423
 1271TIP3    H225373   5.370   0.547   0.756 -0.0306  0.2853 -0.0044
 1272TIP3   OH225374   2.621   1.427   6.885 -0.0016 -0.1207  0.4939
 1272TIP3    H125375   2.543   1.427   6.940 -0.0858 -2.2202  0.4388
 1272TIP3    H225376   2.636   1.335   6.863  0.7281  0.5105 -2.0164
 1273TIP3   OH225377   2.749   1.375   0.511 -0.0569  0.0755 -0.0755
 1273TIP3    H125378   2.778   1.304   0.569  0.5448 -0.4973 -1.0472
 1273TIP3    H225379   2.807   1.448   0.531  0.7031 -0.3944 -0.5402
 1274TIP3   OH225380   0.819   1.491   2.598  0.4193  0.1028  0.7394
 1274TIP3    H125381   0.780   1.410   2.630 -0.0251  0.5025  1.2366
 1274TIP3    H225382   0.745   1.541   2.563  0.9050 -0.3797 -1.0985
 1275TIP3   OH225383   5.464   6.484   8.246 -0.0338 -0.1033 -0.0382
 1275TIP3    H125384   5.430   6.414   8.191  0.3030 -0.4260  0.1634
 1275TIP3    H225385   5.386   6.532   8.275 -0.1544  0.9626 -1.9475
 1276TIP3   OH225386   1.209   4.996   2.347 -0.1461 -0.4675  0.4208
 1276TIP3    H125387   1.289   5.049   2.352 -1.1460  1.1240  0.2233
 1276TIP3    H225388   1.221   4.928   2.414  0.9010  0.4047  1.1454
 1277TIP3   OH225389   3.592   3.179   1.369  0.5889 -0.1428 -0.6403
 1277TIP3    H125390   3.554   3.214   1.288  1.1969 -1.5592 -1.5762
 1277TIP3    H225391   3.668   3.234   1.386  0.3349  0.2957 -0.8997
 1278TIP3   OH225392   4.843   5.858   2.785  0.3928 -0.3773 -0.0003
 1278TIP3    H125393   4.847   5.766   2.813 -0.4421 -0.5730 -0.4939
 1278TIP3    H225394   4.769   5.861   2.724  1.4424  0.2857 -1.2748
 1279TIP3   OH225395   1.114   1.996   1.125  0.4680 -0.0488 -0.2296
 1279TIP3    H125396   1.203   1.979   1.157  0.4313 -3.6839 -1.6171
 1279TIP3    H225397   1.058   1.981   1.201  0.9037  0.2322  0.1547
 1280TIP3   OH225398   4.187   3.774   8.205  0.1088 -0.2263  0.5001
 1280TIP3    H125399   4.188   3.719   8.126 -0.0970  0.2827  0.1363
 1280TIP3    H225400   4.268   3.825   8.199  0.6311 -0.9403  1.1746
 1281TIP3   OH225401   5.116   1.051   8.660  0.3217 -0.0214  0.3137
 1281TIP3    H125402   5.158   1.020   8.740 -1.2521  0.9242  1.5774
 1281TIP3    H225403   5.083   0.972   8.617  0.4820 -0.4812  1.0207
 1282TIP3   OH225404   1.443   2.199   1.805 -0.0043 -0.7368 -0.5355
 1282TIP3    H125405   1.511   2.255   1.768 -2.4768  1.3364 -2.3088
 1282TIP3    H225406   1.458   2.203   1.900  0.9950  1.5649 -0.7223
 1283TIP3   OH225407   1.207   5.882   2.144  0.0702 -0.2957 -0.1484
 1283TIP3    H125408   1.190   5.956   2.203 -0.5087  0.7613 -1.5593
 1283TIP3    H225409   1.298   5.859   2.159 -0.4919 -1.1857  2.3370
 1284TIP3   OH225410   3.353   6.402   7.430 -0.2999 -0.1727  0.3564
 1284TIP3    H125411   3.283   6.366   7.484 -2.2421  1.8215 -0.6737
 1284TIP3    H225412   3.401   6.461   7.489 -0.8987  0.1699  0.5019
 1285TIP3   OH225413   6.842   5.212   1.227  0.3942 -0.3913 -0.0983
 1285TIP3    H125414   6.824   5.292   1.277 -1.8098 -1.5929  1.1641
 1285TIP3    H225415   6.906   5.239   1.162 -1.1682  2.7483 -0.5251
 1286TIP3   OH225416   5.012   5.586   0.749  0.1274 -0.3774  0.0428
 1286TIP3    H125417   4.955   5.531   0.695  0.7030 -1.0907  0.1430
 1286TIP3    H225418   5.093   5.593   0.698  0.6359 -0.9697  0.7604
 1287TIP3   OH225419   1.657   2.560   6.734 -0.4052 -0.3845  0.2555
 1287TIP3    H125420   1.600   2.634   6.714 -1.9407 -1.5082  0.3220
 1287TIP3    H225421   1.687   2.529   6.648  0.2995  0.3230  0.2309
 1288TIP3   OH225422   5.147   2.093   0.850 -0.4428  0.1503 -0.5663
 1288TIP3    H125423   5.118   2.030   0.784  1.1874  0.0184 -1.1906
 1288TIP3    H225424   5.212   2.147   0.806  0.4666  0.2560  0.8232
 1289TIP3   OH225425   0.573   4.006   8.528  0.2249  0.0475  0.1953
 1289TIP3    H125426   0.648   3.948   8.543  0.4538  0.2670 -0.0838
 1289TIP3    H225427   0.575   4.024   8.434  0.2850  0.6749  0.3068
 1290TIP3   OH225428   1.601   1.045   1.968 -0.0403 -0.4080 -0.3929
 1290TIP3    H125429   1.510   1.066   1.947 -0.4323 -1.8920 -0.2819
 1290TIP3    H225430   1.601   1.025   2.061  0.1037 -1.7450 -0.6525
 1291TIP3   OH225431   1.636   4.977   1.268  0.4464  0.6161  0.1346
 1291TIP3    H125432   1.666   4.900   1.219 -0.8103  0.2948 -0.1629
 1291TIP3    H225433   1.605   5.038   1.202  0.2132  0.8398  0.4462
 1292TIP3   OH225434   4.039   2.339   8.104  0.4631 -0.1889  0.1709
 1292TIP3    H125435   4.123   2.385   8.107  0.5906 -0.0246 -2.7588
 1292TIP3    H225436   3.994   2.376   8.028 -2.5239  0.0478  1.9077
 1293TIP3   OH225437   0.455   0.390   1.450  0.2618 -0.5125 -0.0544
 1293TIP3    H125438   0.439   0.481   1.426  1.0288 -0.8267 -1.8600
 1293TIP3    H225439   0.508   0.396   1.530 -1.5422  0.5570  1.1570
 1294TIP3   OH225440   0.603   6.090   7.715 -0.4758 -0.1122 -0.1966
 1294TIP3    H125441   0.568   6.088   7.804  1.1299 -0.3701  0.4623
 1294TIP3    H225442   0.677   6.150   7.719 -0.8966  0.5456 -1.5819
 1295TIP3   OH225443   2.530   5.559   8.533  0.6950  0.1240 -0.1417
 1295TIP3    H125444   2.556   5.652   8.532  0.6226  0.1510 -1.5439
 1295TIP3    H225445   2.613   5.511   8.527  0.6512  0.1416 -1.0177
 1296TIP3   OH225446   1.560   1.538   0.046  0.1066 -0.4496 -0.0070
 1296TIP3    H125447   1.529   1.528   0.136  1.5284  0.9766  0.6948
 1296TIP3    H225448   1.615   1.461   0.031  1.4170  0.2297  1.0729
 1297TIP3   OH225449   2.916   1.730   7.232  0.4329 -0.2015  0.3085
 1297TIP3    H125450   2.977   1.778   7.175  0.7886  0.1584  0.9715
 1297TIP3    H225451   2.831   1.771   7.217  0.2457 -0.9723 -0.9288
 1298TIP3   OH225452   2.018   5.691   0.422 -0.0306 -0.0318 -0.9766
 1298TIP3    H125453   1.959   5.626   0.383 -2.1654  0.0829  1.8027
 1298TIP3    H225454   1.977   5.775   0.402  1.0008  0.2783 -1.8282
 1299TIP3   OH225455   5.629   5.630   2.051 -0.2847 -0.0044  0.3095
 1299TIP3    H125456   5.676   5.548   2.032  0.3315  0.6386 -1.0749
 1299TIP3    H225457   5.680   5.671   2.120  1.4612  0.8431 -1.4027
 1300TIP3   OH225458   6.068   4.764   0.456 -0.3196  0.7784  0.3230
 1300TIP3    H125459   6.151   4.754   0.502 -0.4703 -3.1046  0.1322
 1300TIP3    H225460   6.076   4.707   0.379 -3.1196  0.2445  0.3033
 1301TIP3   OH225461   1.046   1.158   0.717 -0.2573 -0.1063 -0.4649
 1301TIP3    H125462   1.098   1.089   0.677 -0.8776 -0.8902  0.0528
 1301TIP3    H225463   1.065   1.236   0.664  3.2626  0.2567  1.0881
 1302TIP3   OH225464   3.848   6.282   3.059 -0.2534 -0.0349  0.0018
 1302TIP3    H125465   3.827   6.305   2.968 -0.9674  1.5889  0.5356
 1302TIP3    H225466   3.916   6.215   3.052  1.0226  1.3541 -1.7096
 1303TIP3   OH225467   2.074   2.298   0.657 -0.5872  0.6258 -0.3128
 1303TIP3    H125468   2.141   2.360   0.687  0.0289 -0.1324 -0.0700
 1303TIP3    H225469   2.094   2.217   0.704 -1.4247  0.2622 -0.5646
 1304TIP3   OH225470   2.693   1.778   1.539 -0.2653  0.3497 -0.6173
 1304TIP3    H125471   2.704   1.838   1.613  0.2343 -1.0440  0.5033
 1304TIP3    H225472   2.783   1.754   1.515 -0.4646 -1.1151 -0.0022
 1305TIP3   OH225473   1.454   6.632   8.612 -0.4761  0.1864 -0.2957
 1305TIP3    H125474   1.381   6.623   8.551 -2.1747 -1.5601  1.8209
 1305TIP3    H225475   1.419   6.687   8.682  0.6303  0.2040  0.2589
 1306TIP3   OH225476   1.517   4.486   1.177  0.0900 -0.4775 -0.2366
 1306TIP3    H125477   1.556   4.457   1.094  0.2844 -0.2820 -0.2139
 1306TIP3    H225478   1.480   4.572   1.157  1.2751  0.1587  0.2033
 1307TIP3   OH225479   3.263   4.908   2.083 -0.3334 -0.4164  0.3314
 1307TIP3    H125480   3.281   4.819   2.114 -1.5952 -1.1510 -0.9043
 1307TIP3    H225481   3.186   4.935   2.132 -1.5928 -1.1077 -1.1569
 1308TIP3   OH225482   2.031   3.447   7.940  0.0953  0.1249 -0.4161
 1308TIP3    H125483   2.056   3.521   7.996 -1.2186 -0.1710  0.5972
 1308TIP3    H225484   1.936   3.450   7.936  0.0390 -1.2368 -0.7494
 1309TIP3   OH225485   3.337   5.939   8.429 -0.7228 -0.1545  0.2645
 1309TIP3    H125486   3.322   5.916   8.337 -1.9640  0.5875  0.2733
 1309TIP3    H225487   3.355   6.033   8.428 -1.6631  0.0417  0.8672
 1310TIP3   OH225488   2.412   5.670   0.164  0.5806 -0.9764  0.7698
 1310TIP3    H125489   2.358   5.722   0.223 -0.5101 -1.9084  0.6249
 1310TIP3    H225490   2.502   5.694   0.186  0.1340  1.3678  0.3385
 1311TIP3   OH225491   4.222   2.847   2.025 -0.3897 -0.4599 -0.0274
 1311TIP3    H125492   4.160   2.871   1.956 -0.7541 -0.0523  0.4359
 1311TIP3    H225493   4.284   2.789   1.982 -2.2425 -2.5459 -0.0436
 1312TIP3   OH225494   2.298   2.926   1.794  0.8390  0.3688 -0.0560
 1312TIP3    H125495   2.292   2.990   1.723  1.7549  1.1113  0.5104
 1312TIP3    H225496   2.295   2.978   1.874  0.8771 -0.3701  0.4404
 1313TIP3   OH225497   2.483   6.435   8.103 -0.0284 -0.1032  0.0228
 1313TIP3    H125498   2.468   6.340   8.104  0.7258 -0.2250  0.6018
 1313TIP3    H225499   2.404   6.472   8.142 -0.1582 -0.5281  0.1736
 1314TIP3   OH225500   2.937   4.996   7.453 -0.5445 -0.0538  0.0256
 1314TIP3    H125501   3.012   4.997   7.394  0.0774 -0.5792  0.7830
 1314TIP3    H225502   2.905   5.086   7.453  0.3608  0.2799  0.0221
 1315TIP3   OH225503   4.271   5.056   1.667 -0.0736 -0.0972  0.1999
 1315TIP3    H125504   4.287   4.964   1.687 -1.2949 -1.0483 -2.6805
 1315TIP3    H225505   4.205   5.084   1.730  1.7376 -0.5208  2.4023
 1316TIP3   OH225506   0.867   4.420   7.343 -0.4257 -0.0500  0.3173
 1316TIP3    H125507   0.951   4.384   7.371 -0.8816 -1.1530  0.3089
 1316TIP3    H225508   0.834   4.357   7.279 -0.3953  1.3452 -1.1203
 1317TIP3   OH225509   4.912   0.320   0.081 -0.3765  0.0753  0.1448
 1317TIP3    H125510   4.921   0.387   0.013  0.7437  0.3176  0.5017
 1317TIP3    H225511   4.938   0.238   0.037  0.7731  0.2991  0.3687
 1318TIP3   OH225512   0.634   0.577   2.101 -0.2908  0.1929  0.7382
 1318TIP3    H125513   0.689   0.499   2.105 -0.7581 -0.2653 -1.1615
 1318TIP3    H225514   0.694   0.649   2.082  0.0231  0.1781  1.6350
 1319TIP3   OH225515   3.310   3.434   1.897 -0.1647 -0.3435 -0.7782
 1319TIP3    H125516   3.278   3.352   1.860  1.5006 -0.2985 -2.4849
 1319TIP3    H225517   3.236   3.468   1.947 -1.2268 -2.3714 -0.8591
 1320TIP3   OH225518   1.202   5.244   0.696 -0.3716  0.8166 -0.3510
 1320TIP3    H125519   1.286   5.282   0.721 -0.0019  0.4375 -0.9759
 1320TIP3    H225520   1.223   5.184   0.625 -1.2820  1.3625 -1.1188
 1321TIP3   OH225521   0.926   1.554   8.567 -0.1337 -0.2041 -0.4110
 1321TIP3    H125522   0.910   1.645   8.540 -0.9263 -0.2907 -0.2539
 1321TIP3    H225523   1.021   1.545   8.565 -0.0785  0.3969 -1.2053
 1322TIP3   OH225524   5.425   6.392   1.775 -0.1859  0.0462  0.3146
 1322TIP3    H125525   5.443   6.396   1.681  1.6123 -0.9115  0.5921
 1322TIP3    H225526   5.352   6.330   1.783 -0.4071  0.1957 -0.4411
 1323TIP3   OH225527   0.099   0.869   8.349  0.3629 -0.8045 -0.3918
 1323TIP3    H125528   0.152   0.804   8.396  0.6326  0.6288  1.3766
 1323TIP3    H225529   0.012   0.831   8.348  0.5153 -1.2368  0.6228
 1324TIP3   OH225530   3.469   0.018   1.401 -0.0514  0.4345  0.1618
 1324TIP3    H125531   3.524  -0.060   1.404  1.7198  1.6663  2.0246
 1324TIP3    H225532   3.392  -0.009   1.350  1.2044 -2.0285 -0.5741
 1325TIP3   OH225533   5.375   2.848   7.623 -0.8464 -0.1123 -0.7290
 1325TIP3    H125534   5.346   2.938   7.633  2.3648  0.7680  3.0154
 1325TIP3    H225535   5.445   2.852   7.558 -0.6683  0.1066 -0.5238
 1326TIP3   OH225536   6.180   3.230   1.993  0.6743  0.1377 -0.1080
 1326TIP3    H125537   6.200   3.137   2.005  0.5810 -0.0333 -1.1598
 1326TIP3    H225538   6.153   3.261   2.080 -0.4759 -1.1151  0.0082
 1327TIP3   OH225539   3.421   6.310   7.163  0.0928 -0.8180  0.3488
 1327TIP3    H125540   3.504   6.305   7.114 -0.0059  1.5180 -0.1360
 1327TIP3    H225541   3.434   6.381   7.225 -1.0806 -1.3662  1.2618
 1328TIP3   OH225542   0.711   0.380   6.897  0.2109 -0.6284 -0.7086
 1328TIP3    H125543   0.788   0.327   6.918 -1.3693 -3.5381 -1.7055
 1328TIP3    H225544   0.651   0.366   6.970 -0.7279 -1.2935 -1.5802
 1329TIP3   OH225545   0.726   1.224   0.920  0.4477 -0.1350 -0.4216
 1329TIP3    H125546   0.675   1.222   1.001 -0.0331 -1.4456 -0.7340
 1329TIP3    H225547   0.795   1.159   0.933  0.1039 -0.6784 -1.2235
 1330TIP3   OH225548   3.373   2.182   0.257  0.2548  0.2059 -0.6592
 1330TIP3    H125549   3.360   2.134   0.175 -1.3584 -2.1682  0.8181
 1330TIP3    H225550   3.465   2.207   0.257  0.1309  0.9289 -3.4768
 1331TIP3   OH225551   2.420   5.951   0.739  0.0474 -0.3707 -0.0509
 1331TIP3    H125552   2.454   5.925   0.824  3.3609  0.0791 -1.0940
 1331TIP3    H225553   2.447   5.881   0.680 -1.6497 -0.3685 -0.9104
 1332TIP3   OH225554   5.322   4.589   7.830  0.3890  0.3047 -0.3501
 1332TIP3    H125555   5.280   4.507   7.858 -0.3492  0.4478 -0.9994
 1332TIP3    H225556   5.340   4.636   7.911  1.1974 -0.6713  0.0628
 1333TIP3   OH225557   3.392   3.353   7.528  0.3114 -0.2346  0.1857
 1333TIP3    H125558   3.359   3.442   7.520  2.6114  0.5485 -1.3908
 1333TIP3    H225559   3.354   3.321   7.610 -0.9939  1.9630  0.5244
 1334TIP3   OH225560   2.447   2.161   6.992  0.4032  0.6867  0.2911
 1334TIP3    H125561   2.417   2.248   6.967 -0.8700 -0.3732 -2.1941
 1334TIP3    H225562   2.368   2.111   7.011  0.9121 -0.5562 -0.6455
 1335TIP3   OH225563   6.645   1.827   0.323  0.5841 -0.3178 -0.7326
 1335TIP3    H125564   6.666   1.841   0.415 -1.2452  0.7534 -0.4425
 1335TIP3    H225565   6.556   1.791   0.323  0.1463  0.6854 -2.1133
 1336TIP3   OH225566   0.525   5.858   0.482 -0.5635 -0.2025 -0.6274
 1336TIP3    H125567   0.618   5.880   0.472 -0.4165 -1.3008 -1.8056
 1336TIP3    H225568   0.488   5.935   0.526  1.2016 -0.3952  1.3894
 1337TIP3   OH225569   0.382   1.049   8.738 -0.1839  0.3237 -0.3516
 1337TIP3    H125570   0.293   1.047   8.704  0.1068  0.3417 -1.1331
 1337TIP3    H225571   0.405   0.957   8.752 -0.7703  0.3698  1.0825
 1338TIP3   OH225572   2.381   1.454   0.800  0.1180  0.3449 -0.1397
 1338TIP3    H125573   2.381   1.490   0.889 -1.3813 -2.4224  1.1242
 1338TIP3    H225574   2.445   1.382   0.804  1.8127  1.6368 -2.0616
 1339TIP3   OH225575   4.683   4.345   0.724  0.4602  0.2952 -0.1475
 1339TIP3    H125576   4.757   4.386   0.678  0.7259  0.6202  0.5659
 1339TIP3    H225577   4.721   4.311   0.805  0.3766 -1.9157 -0.9811
 1340TIP3   OH225578   6.166   2.726   0.759  0.1563  0.0608  0.1349
 1340TIP3    H125579   6.160   2.745   0.853 -2.5044  0.2791 -0.0058
 1340TIP3    H225580   6.235   2.660   0.753  1.1003  0.7868  2.1000
 1341TIP3   OH225581   4.575   5.801   0.009  0.9413  0.1750  0.5096
 1341TIP3    H125582   4.671   5.792   0.011  0.7634 -2.2462  0.5054
 1341TIP3    H225583   4.546   5.736  -0.054 -0.9102 -1.9043  3.2771
 1342TIP3   OH225584   3.494   5.164   2.366 -0.0282  0.5047  0.4498
 1342TIP3    H125585   3.444   5.246   2.361 -0.0003  0.4675 -0.8470
 1342TIP3    H225586   3.554   5.178   2.439 -0.3813  1.4442  0.5845
 1343TIP3   OH225587   0.349   3.322   7.777  0.0309  0.3231  0.2034
 1343TIP3    H125588   0.279   3.263   7.805 -0.4712 -1.1471 -3.5661
 1343TIP3    H225589   0.321   3.353   7.692  2.4848  2.3788  0.0346
 1344TIP3   OH225590   4.365   0.683   1.195 -0.5046 -0.4309  0.0955
 1344TIP3    H125591   4.271   0.672   1.183 -0.3821 -1.0341 -0.4471
 1344TIP3    H225592   4.396   0.595   1.219 -0.1222 -0.1690  0.5763
 1345TIP3   OH225593   2.821   4.368   1.727  0.2980  0.3916 -0.5632
 1345TIP3    H125594   2.752   4.336   1.785  1.9515 -1.3131  0.5798
 1345TIP3    H225595   2.833   4.460   1.751  0.9000 -0.2565  1.8245
 1346TIP3   OH225596   3.287   3.380   0.496  0.0828  0.1020  0.2672
 1346TIP3    H125597   3.240   3.341   0.570 -0.4652 -0.9074 -0.6011
 1346TIP3    H225598   3.219   3.416   0.440  0.4282 -0.1427 -0.3142
 1347TIP3   OH225599   4.674   6.610   7.434 -0.1957  0.0737  0.3357
 1347TIP3    H125600   4.592   6.604   7.482 -0.1338 -0.5501  0.3633
 1347TIP3    H225601   4.739   6.633   7.501 -0.0805 -0.9545  0.5933
 1348TIP3   OH225602   2.025   2.199   7.940 -0.2154  0.3295  0.2575
 1348TIP3    H125603   2.067   2.224   8.022 -0.1801 -3.5378  1.6327
 1348TIP3    H225604   2.092   2.150   7.892 -1.2460 -0.4426 -0.4443
 1349TIP3   OH225605   5.747   4.287   0.237 -0.0006  0.1867  0.3874
 1349TIP3    H125606   5.722   4.377   0.254  0.6226  0.3159  0.6207
 1349TIP3    H225607   5.772   4.252   0.322  0.1080 -0.0970  0.2411
 1350TIP3   OH225608   5.511   0.129   1.557 -0.0331 -0.4925 -0.3055
 1350TIP3    H125609   5.607   0.130   1.560 -0.0684 -0.4837  1.3293
 1350TIP3    H225610   5.484   0.144   1.647 -1.5979  0.3879 -0.8950
 1351TIP3   OH225611   0.265   4.017   7.648  0.7562  0.2781  0.6549
 1351TIP3    H125612   0.241   4.104   7.616  0.7123 -0.4861 -1.6027
 1351TIP3    H225613   0.226   4.011   7.735 -1.4111  1.5862 -0.1675
 1352TIP3   OH225614   3.539   6.232   8.219 -0.1692 -0.0318 -0.0948
 1352TIP3    H125615   3.467   6.215   8.279 -0.2178 -1.5979 -0.5532
 1352TIP3    H225616   3.615   6.190   8.259 -0.7853 -3.8510 -2.4013
 1353TIP3   OH225617   4.605   1.895   7.821  0.0492  0.0703 -0.2919
 1353TIP3    H125618   4.661   1.936   7.887 -0.1840  1.0583 -0.6936
 1353TIP3    H225619   4.555   1.967   7.784  0.1058 -0.4822 -1.4916
 1354TIP3   OH225620   1.793   0.602   7.617 -0.0692  0.5048 -0.0963
 1354TIP3    H125621   1.858   0.553   7.667  2.1517  1.0242 -2.2695
 1354TIP3    H225622   1.724   0.539   7.600  0.6571 -0.5925  0.8395
 1355TIP3   OH225623   0.346   1.122   7.367 -0.2187  0.1035  0.1759
 1355TIP3    H125624   0.376   1.213   7.363 -0.8153  0.2935 -0.1888
 1355TIP3    H225625   0.320   1.102   7.277 -0.2372 -0.3788  0.2866
 1356TIP3   OH225626   2.600   1.294   1.064 -0.3173  0.2880 -0.1641
 1356TIP3    H125627   2.516   1.286   1.110  0.1490 -0.9944  0.5245
 1356TIP3    H225628   2.663   1.315   1.133  0.3905 -1.6630 -0.1527
 1357TIP3   OH225629   6.716   3.618   8.435  0.6797  0.0478 -0.0302
 1357TIP3    H125630   6.692   3.601   8.344  0.1051 -1.1629  0.3257
 1357TIP3    H225631   6.810   3.637   8.432  0.6602  0.0245 -0.8759
 1358TIP3   OH225632   3.229   1.976   7.904 -0.0258  0.4287 -0.4645
 1358TIP3    H125633   3.227   2.035   7.829 -1.7370 -0.8968 -1.5396
 1358TIP3    H225634   3.201   2.029   7.978 -1.6447  0.9739 -1.4207
 1359TIP3   OH225635   6.565   2.985   7.174  0.2725  0.7453  0.3692
 1359TIP3    H125636   6.560   3.077   7.200 -0.3454  1.1087 -0.9144
 1359TIP3    H225637   6.576   2.988   7.079 -1.0641 -0.4951  0.1344
 1360TIP3   OH225638   2.655   2.115   8.287 -0.1101 -0.1861 -0.0946
 1360TIP3    H125639   2.697   2.136   8.203 -0.1437  0.1011 -0.0410
 1360TIP3    H225640   2.659   2.197   8.336 -0.1001 -0.3521  0.1805
 1361TIP3   OH225641   2.471   4.585   1.391 -0.3687 -0.2240 -0.3442
 1361TIP3    H125642   2.471   4.492   1.413  3.0116 -0.3571 -0.5005
 1361TIP3    H225643   2.520   4.591   1.310 -1.1588  1.6692 -0.7426
 1362TIP3   OH225644   1.979   6.477   7.350  0.1106 -0.1289  0.3560
 1362TIP3    H125645   2.036   6.506   7.278 -0.5932  1.0819  0.2526
 1362TIP3    H225646   2.019   6.396   7.381  2.9692  1.5310  1.4664
 1363TIP3   OH225647   5.378   1.168   8.552  0.3197 -0.4952 -0.1733
 1363TIP3    H125648   5.298   1.126   8.583 -0.7959  1.2094 -0.6229
 1363TIP3    H225649   5.348   1.235   8.491  2.1013  0.1522 -0.3938
 1364TIP3   OH225650   1.620   4.680   7.724  0.0021 -0.2784 -0.2654
 1364TIP3    H125651   1.555   4.751   7.724  0.8738  0.5603 -0.8236
 1364TIP3    H225652   1.703   4.725   7.712  0.4314 -1.5169 -2.4369
 1365TIP3   OH225653   2.931   4.281   8.017  0.1477  0.9111 -0.1701
 1365TIP3    H125654   2.978   4.225   7.955 -0.1392 -0.5067  0.8367
 1365TIP3    H225655   2.845   4.292   7.978 -0.3085 -0.6645  0.3288
 1366TIP3   OH225656   2.198   5.946   1.730  0.0222  0.3093  0.2604
 1366TIP3    H125657   2.250   5.988   1.799  1.2523  1.0123 -1.0498
 1366TIP3    H225658   2.250   5.955   1.651 -0.6868 -1.7684 -0.5245
 1367TIP3   OH225659   4.074   2.825   7.238  0.3248  0.3586 -0.1810
 1367TIP3    H125660   4.140   2.884   7.202 -0.6856  1.6084 -0.0713
 1367TIP3    H225661   4.023   2.880   7.298  0.0002 -0.8947  0.7400
 1368TIP3   OH225662   5.916   3.200   7.268 -0.9203  0.7843 -0.3520
 1368TIP3    H125663   5.971   3.129   7.301 -2.4388  0.3363  1.3520
 1368TIP3    H225664   5.894   3.174   7.178 -0.2041 -0.1276 -0.2778
 1369TIP3   OH225665   6.481   0.255   8.678  0.2543  0.5195 -0.3286
 1369TIP3    H125666   6.530   0.175   8.662  0.6734  1.0313 -1.6764
 1369TIP3    H225667   6.398   0.244   8.631  0.8679  1.4105 -1.6691
 1370TIP3   OH225668   2.429   0.497   1.691  0.8161  0.2314 -0.0405
 1370TIP3    H125669   2.410   0.553   1.767 -3.3289  0.7366 -1.1868
 1370TIP3    H225670   2.408   0.409   1.721  1.3631  0.1088 -0.0025
 1371TIP3   OH225671   1.895   5.482   0.913  0.5792 -0.1886 -0.1794
 1371TIP3    H125672   1.931   5.535   0.841  0.3900 -0.9831 -0.8771
 1371TIP3    H225673   1.938   5.516   0.991  1.4609  0.1069 -0.7736
 1372TIP3   OH225674   4.453   3.129   8.584  0.7275 -0.0723 -0.2029
 1372TIP3    H125675   4.486   3.122   8.495  0.8371  1.4518 -0.3107
 1372TIP3    H225676   4.521   3.090   8.639 -0.0753 -2.6086 -0.8506
 1373TIP3   OH225677   3.639   5.923   7.804 -0.0149 -0.2418 -0.4012
 1373TIP3    H125678   3.573   5.949   7.740 -0.0366  2.0004  0.4374
 1373TIP3    H225679   3.595   5.859   7.860 -0.9283 -0.0408 -0.8682
 1374TIP3   OH225680   5.258   0.176   0.393 -0.1901  0.2387 -0.1874
 1374TIP3    H125681   5.254   0.272   0.391  0.9822  0.3428  1.2775
 1374TIP3    H225682   5.210   0.152   0.472 -2.2533 -0.5559 -1.5846
 1375TIP3   OH225683   4.084   2.730   8.351  0.4296  0.4143  0.0473
 1375TIP3    H125684   4.081   2.794   8.423 -1.4438 -0.3388  0.7036
 1375TIP3    H225685   4.000   2.741   8.306  1.0638  0.0081 -1.2846
 1376TIP3   OH225686   2.983   3.197   8.436 -0.2090  0.2679 -0.2401
 1376TIP3    H125687   3.037   3.275   8.429 -1.1628  0.8448 -1.6900
 1376TIP3    H225688   2.914   3.210   8.371 -2.6818  0.0105  2.1661
 1377TIP3   OH225689   5.353   5.781   1.537  0.0746 -0.7964  0.4680
 1377TIP3    H125690   5.379   5.692   1.560 -0.6598 -1.4266 -0.9824
 1377TIP3    H225691   5.282   5.802   1.597  0.9470 -0.7679  1.5126
 1378TIP3   OH225692   1.735   5.747   8.528 -0.1052 -0.8366 -0.4221
 1378TIP3    H125693   1.662   5.791   8.570  0.5581  0.8890 -0.9991
 1378TIP3    H225694   1.807   5.754   8.591 -0.1491 -1.6546 -0.2674
 1379TIP3   OH225695   4.933   3.843   0.185 -0.0900  0.2309 -0.6593
 1379TIP3    H125696   4.905   3.827   0.095  0.9530 -1.0221 -0.7827
 1379TIP3    H225697   4.962   3.758   0.218  1.5010  1.0403  0.1594
 1380TIP3   OH225698   5.343   3.420   1.790  0.6481 -0.2866 -0.0638
 1380TIP3    H125699   5.354   3.401   1.883  1.7909 -1.5007 -0.4207
 1380TIP3    H225700   5.426   3.394   1.750  1.5442  3.3855 -0.9937
 1381TIP3   OH225701   2.356   6.301   7.259  0.1854  0.1968  0.6266
 1381TIP3    H125702   2.390   6.390   7.266  1.0529 -0.1351  0.7939
 1381TIP3    H225703   2.337   6.290   7.166 -0.5814  0.7866  0.7114
 1382TIP3   OH225704   4.063   0.649   2.389 -0.4039 -0.6212  0.4222
 1382TIP3    H125705   4.001   0.577   2.381 -0.4028 -0.5479 -0.2865
 1382TIP3    H225706   4.048   0.703   2.311 -2.4096  1.7297  2.2575
 1383TIP3   OH225707   1.667   4.339   7.284  0.4799 -0.1620  0.2138
 1383TIP3    H125708   1.643   4.275   7.351  1.3722 -1.1726 -0.3868
 1383TIP3    H225709   1.700   4.414   7.333  2.9458 -1.6208  0.9532
 1384TIP3   OH225710   6.504   4.324   1.767  0.1407 -0.3975  0.2799
 1384TIP3    H125711   6.552   4.275   1.834  1.2179  0.7390  0.3804
 1384TIP3    H225712   6.420   4.346   1.808  0.7817  0.2655  1.2622
 1385TIP3   OH225713   4.959   1.935   0.094  0.1349 -0.1437  0.4069
 1385TIP3    H125714   4.933   1.894   0.012  0.5097 -2.1986  1.2408
 1385TIP3    H225715   5.029   1.996   0.069 -1.2924  0.9745 -1.0453
 1386TIP3   OH225716   3.635   6.509   7.072 -0.1812 -0.0056 -0.2883
 1386TIP3    H125717   3.725   6.504   7.041  0.2457  0.0132  0.8833
 1386TIP3    H225718   3.637   6.577   7.139 -1.3827  0.9834 -1.2148
 1387TIP3   OH225719   4.960   0.576   1.127  0.4781  0.0981  0.0293
 1387TIP3    H125720   4.942   0.486   1.156 -0.6321  0.4130  0.3517
 1387TIP3    H225721   4.877   0.622   1.139  0.3316  0.5874 -2.4150
 1388TIP3   OH225722   2.736   3.359   7.132 -0.0079 -0.6631  0.0585
 1388TIP3    H125723   2.757   3.282   7.078 -1.0240  0.3778 -1.9172
 1388TIP3    H225724   2.676   3.411   7.078  2.4382  2.7187  0.2976
 1389TIP3   OH225725   4.170   4.117   2.433  0.0708 -0.1410 -0.0716
 1389TIP3    H125726   4.263   4.099   2.450  0.4590 -1.0201 -2.6554
 1389TIP3    H225727   4.142   4.171   2.507  2.5134 -0.2311  1.0153
 1390TIP3   OH225728   1.391   3.714   0.306 -0.0422  0.3914  0.0207
 1390TIP3    H125729   1.423   3.741   0.392 -0.0797  1.3677 -0.2592
 1390TIP3    H225730   1.336   3.786   0.277 -1.0961 -0.4996 -0.2702
 1391TIP3   OH225731   1.364   6.081   8.586 -0.5894 -0.0081  0.0741
 1391TIP3    H125732   1.351   6.047   8.497  2.4765  0.3636 -0.6469
 1391TIP3    H225733   1.375   6.175   8.574 -3.8268  0.6511  1.4107
 1392TIP3   OH225734   2.985   2.546   7.412 -0.1317  0.5069 -0.4780
 1392TIP3    H125735   2.949   2.596   7.338 -2.6168 -1.2790 -0.5884
 1392TIP3    H225736   2.909   2.518   7.462  1.2032 -1.9804  0.3384
 1393TIP3   OH225737   0.904   1.996   0.318  0.7366 -0.5041 -0.0066
 1393TIP3    H125738   0.968   1.950   0.264 -0.1250 -1.1869 -0.4759
 1393TIP3    H225739   0.951   2.018   0.398  1.4970 -1.1686 -0.2594
 1394TIP3   OH225740   4.254   0.754   1.727  0.2119 -0.8504 -0.2503
 1394TIP3    H125741   4.258   0.666   1.690  0.4283 -0.2446 -1.7450
 1394TIP3    H225742   4.213   0.808   1.659  0.7092  0.3466  0.3515
 1395TIP3   OH225743   3.963   3.691   2.091  0.0826 -0.0621  0.4749
 1395TIP3    H125744   3.951   3.633   2.016 -2.6503 -0.9060  1.4506
 1395TIP3    H225745   3.956   3.634   2.167  0.0231  1.1625  1.4186
 1396TIP3   OH225746   1.502   3.415   2.090 -0.6106 -0.6023 -0.1432
 1396TIP3    H125747   1.551   3.335   2.109 -0.6077 -0.6394 -0.3082
 1396TIP3    H225748   1.424   3.410   2.146  0.8411  0.7240  2.1849
 1397TIP3   OH225749   5.652   6.607   8.658  0.3994  0.4802 -0.5007
 1397TIP3    H125750   5.695   6.649   8.584  0.0577 -1.6684 -2.0293
 1397TIP3    H225751   5.569   6.575   8.623 -0.9008  1.4833  1.4762
 1398TIP3   OH225752   0.923   4.713   2.993  0.4300  0.0549 -0.0183
 1398TIP3    H125753   0.958   4.658   2.923  2.7464  0.5229  0.6815
 1398TIP3    H225754   0.965   4.681   3.072 -0.8404  0.6423  0.9249
 1399TIP3   OH225755   0.917   6.136   2.063  0.4254 -0.6214  0.3733
 1399TIP3    H125756   0.899   6.153   2.155 -0.0598 -1.0334  0.3555
 1399TIP3    H225757   0.973   6.210   2.036 -1.4847  0.9033  0.3495
 1400TIP3   OH225758   5.324   6.062   0.827  0.3522 -0.4369 -0.5296
 1400TIP3    H125759   5.396   6.015   0.784  0.2251 -0.4357 -0.7476
 1400TIP3    H225760   5.253   5.998   0.831 -0.8788  0.5461 -3.5477
 1401TIP3   OH225761   6.736   3.122   7.926 -0.2459 -0.2900 -0.5189
 1401TIP3    H125762   6.738   3.079   8.011  0.4552 -1.2410 -1.0019
 1401TIP3    H225763   6.644   3.117   7.898 -0.1076 -1.9150 -0.7743
 1402TIP3   OH225764   3.516   0.475   2.334 -0.2439 -0.4546  0.2419
 1402TIP3    H125765   3.483   0.388   2.355 -0.9826 -0.2709 -0.1311
 1402TIP3    H225766   3.556   0.505   2.416 -0.8376 -0.7609  0.6559
 1403TIP3   OH225767   3.900   3.441   8.389  0.5192 -0.2565  0.0205
 1403TIP3    H125768   3.985   3.484   8.389  0.8467 -0.7940  1.9858
 1403TIP3    H225769   3.917   3.356   8.431 -1.0151 -0.2886  0.6158
 1404TIP3   OH225770   4.132   2.412   8.541 -0.0943  1.0409 -0.2395
 1404TIP3    H125771   4.105   2.468   8.614 -3.1449 -0.2099 -0.2714
 1404TIP3    H225772   4.081   2.444   8.466 -1.6190 -1.4397 -0.3431
 1405TIP3   OH225773   0.247   4.726   7.387 -0.2594  0.3684  0.3187
 1405TIP3    H125774   0.282   4.815   7.391 -0.9864  0.6346  1.1510
 1405TIP3    H225775   0.154   4.736   7.406 -0.4484 -0.5211 -0.0861
 1406TIP3   OH225776   5.286   5.993   7.868  0.4158 -0.1918  0.0491
 1406TIP3    H125777   5.329   6.017   7.950 -1.6381  0.2006  1.0649
 1406TIP3    H225778   5.239   5.912   7.887 -0.5635  0.2129 -0.5481
 1407TIP3   OH225779   5.068   4.366   2.328 -0.0534  0.0600  0.2034
 1407TIP3    H125780   5.045   4.454   2.297  0.2300  0.3055  0.6708
 1407TIP3    H225781   5.101   4.381   2.417  0.7763 -0.4238 -0.0237
 1408TIP3   OH225782   4.783   6.808   0.040 -0.3380 -0.2163  0.0697
 1408TIP3    H125783   4.755   6.872   0.106 -0.2453 -0.8812  0.7677
 1408TIP3    H225784   4.741   6.726   0.066 -1.4913 -0.1935 -1.5326
 1409TIP3   OH225785   5.048   4.052   7.659  0.1605  0.2825 -0.1340
 1409TIP3    H125786   5.031   3.975   7.712  1.0433 -0.5882 -1.0789
 1409TIP3    H225787   5.093   4.113   7.718 -0.5399  0.0935  0.6153
 1410TIP3   OH225788   6.277   5.150   0.570  0.4486 -0.4569 -0.2241
 1410TIP3    H125789   6.252   5.152   0.477 -0.0487 -1.0610 -0.1147
 1410TIP3    H225790   6.199   5.179   0.616 -0.5063 -3.3217  0.1851
 1411TIP3   OH225791   2.306   3.592   7.276 -0.7620  0.2408 -0.1325
 1411TIP3    H125792   2.372   3.552   7.332  0.9878 -0.1837 -2.3961
 1411TIP3    H225793   2.231   3.532   7.281  0.8680 -2.0311 -1.4280
 1412TIP3   OH225794   6.049   6.004   0.647 -0.2847 -0.0861  0.0917
 1412TIP3    H125795   6.119   6.068   0.635 -1.6237  1.3063 -0.6854
 1412TIP3    H225796   6.006   6.030   0.728 -0.6138 -0.2224 -0.0386
 1413TIP3   OH225797   5.824   4.613   7.764 -0.1792 -0.0496 -0.5479
 1413TIP3    H125798   5.893   4.678   7.778  0.0616 -0.3941 -0.1373
 1413TIP3    H225799   5.763   4.627   7.837  0.2943 -0.8287  0.0045
 1414TIP3   OH225800   6.808   0.433   0.320  0.0367 -0.3211 -0.3275
 1414TIP3    H125801   6.733   0.490   0.336 -0.6352 -1.1042 -0.5840
 1414TIP3    H225802   6.792   0.397   0.232  1.6537  0.9094 -1.1839
 1415TIP3   OH225803   2.218   3.785   2.491 -0.4206  1.0742 -0.4285
 1415TIP3    H125804   2.136   3.779   2.441  1.1689 -1.0811 -3.0565
 1415TIP3    H225805   2.241   3.695   2.511  1.8357  1.5111 -0.7529
 1416TIP3   OH225806   5.222   0.640   0.017 -0.1419 -0.0055 -0.2312
 1416TIP3    H125807   5.302   0.685  -0.011 -0.0002 -1.0562 -1.6295
 1416TIP3    H225808   5.245   0.547   0.011 -1.7894 -0.3623 -1.7529
 1417TIP3   OH225809   5.571   2.629   1.563  0.3218  0.1816 -0.0422
 1417TIP3    H125810   5.617   2.694   1.616  1.0558  0.3303 -0.8298
 1417TIP3    H225811   5.635   2.603   1.497 -0.2763 -0.6568 -0.3036
 1418TIP3   OH225812   3.260   6.656   7.757  0.7588  0.4834  0.9316
 1418TIP3    H125813   3.210   6.704   7.690 -0.0587  0.0516  1.2159
 1418TIP3    H225814   3.196   6.597   7.796  2.0084 -1.8263 -0.3092
 1419TIP3   OH225815   3.745   3.903   1.347 -0.4588 -0.6526  0.4577
 1419TIP3    H125816   3.715   3.818   1.380 -2.2147  0.4861  2.0269
 1419TIP3    H225817   3.664   3.950   1.325  0.3387  1.2202  1.2878
 1420TIP3   OH225818   0.984   0.751   0.769  0.1163 -0.4979 -0.1598
 1420TIP3    H125819   0.959   0.660   0.752 -1.5794  0.0577 -0.8636
 1420TIP3    H225820   0.980   0.793   0.684  1.4250  0.1329  0.0729
 1421TIP3   OH225821   0.292   1.922   6.748 -0.3981 -0.0835 -0.0538
 1421TIP3    H125822   0.267   1.935   6.656  1.2380 -1.8187 -0.8362
 1421TIP3    H225823   0.360   1.988   6.764  1.8384 -1.9033 -1.3084
 1422TIP3   OH225824   1.772   2.179   7.869 -0.0120  0.3684 -0.4566
 1422TIP3    H125825   1.860   2.168   7.906  0.1478 -0.1917 -0.9732
 1422TIP3    H225826   1.779   2.143   7.781 -0.7160  0.4868 -0.5662
 1423TIP3   OH225827   0.245   4.029   8.685 -0.1039 -0.1919  0.1858
 1423TIP3    H125828   0.244   4.060   8.594 -1.0448 -1.0170 -0.1065
 1423TIP3    H225829   0.213   4.103   8.736 -0.3923 -0.0063 -0.2593
 1424TIP3   OH225830   0.866   2.861   8.217  0.5852  0.5073 -0.2583
 1424TIP3    H125831   0.940   2.831   8.270  1.0178  2.5052  0.3568
 1424TIP3    H225832   0.790   2.815   8.253  0.7112  2.3507  2.7505
 1425TIP3   OH225833   2.443   5.165   2.341 -0.5653 -0.2249  0.1336
 1425TIP3    H125834   2.360   5.117   2.345 -0.6862  0.0854  2.2105
 1425TIP3    H225835   2.483   5.150   2.426  1.1863  0.2470 -0.5759
 1426TIP3   OH225836   5.693   3.182   8.067  0.7328 -0.3061  0.0566
 1426TIP3    H125837   5.748   3.193   8.145  0.2509 -0.9910  0.5120
 1426TIP3    H225838   5.670   3.271   8.041  0.2687 -0.0739  1.1666
 1427TIP3   OH225839   6.098   6.036   8.074 -0.5134 -1.0101 -0.5640
 1427TIP3    H125840   6.039   5.963   8.092 -2.7577  0.9281  0.4235
 1427TIP3    H225841   6.136   6.016   7.988 -0.1490 -3.8510  0.1893
 1428TIP3   OH225842   5.175   3.648   0.271  0.6494  0.1843  0.7124
 1428TIP3    H125843   5.253   3.687   0.231 -0.4759  0.7916 -1.0106
 1428TIP3    H225844   5.178   3.556   0.245 -1.4465  1.0452 -3.3981
 1429TIP3   OH225845   1.952   5.644   1.700 -0.2560  0.1682  0.5780
 1429TIP3    H125846   1.871   5.608   1.663  0.2122  0.9066 -1.2690
 1429TIP3    H225847   1.998   5.567   1.736 -0.8700 -0.5415 -0.1184
 1430TIP3   OH225848   5.974   4.556   0.710 -0.0417 -0.0560 -0.2015
 1430TIP3    H125849   5.879   4.559   0.723 -0.0400 -1.7504  0.5331
 1430TIP3    H225850   5.984   4.546   0.615 -0.5005  1.7194 -0.4763
 1431TIP3   OH225851   2.469   2.069   1.644  0.0950 -0.1587 -0.5206
 1431TIP3    H125852   2.381   2.100   1.623  0.3909  0.6530 -0.6106
 1431TIP3    H225853   2.526   2.115   1.583  0.6759  0.0559  0.1622
 1432TIP3   OH225854   3.514   2.638   8.114 -0.9746  0.1430  0.2394
 1432TIP3    H125855   3.477   2.726   8.108 -0.7998  0.2526  0.7414
 1432TIP3    H225856   3.597   2.650   8.161 -0.0879 -0.0295 -1.2244
 1433TIP3   OH225857   3.339   5.994   0.869 -0.1079 -0.3877  0.1126
 1433TIP3    H125858   3.289   5.916   0.893 -1.0146  0.4685  1.1212
 1433TIP3    H225859   3.288   6.035   0.799  0.0675 -0.4012 -0.0229
 1434TIP3   OH225860   0.846   4.699   7.399  0.3101 -0.0165  0.0379
 1434TIP3    H125861   0.862   4.605   7.392 -2.0776 -0.7111  2.2718
 1434TIP3    H225862   0.830   4.728   7.310 -0.8452 -2.1576 -0.5168
 1435TIP3   OH225863   5.196   0.577   8.069 -0.0331 -0.4467 -0.0220
 1435TIP3    H125864   5.223   0.515   8.001 -0.2048 -1.0461  0.4418
 1435TIP3    H225865   5.278   0.619   8.096  0.1345 -0.6979 -0.1313
 1436TIP3   OH225866   6.465   3.941   7.896  0.3847 -0.5613 -0.1069
 1436TIP3    H125867   6.511   3.932   7.979 -0.1927 -0.5415  0.2218
 1436TIP3    H225868   6.444   4.034   7.890 -0.1291 -0.6653  0.0314
 1437TIP3   OH225869   3.676   5.604   8.500  0.3939  0.6233 -0.2375
 1437TIP3    H125870   3.737   5.651   8.558  0.4032  1.5138 -0.9425
 1437TIP3    H225871   3.700   5.633   8.412  0.6922 -1.0629 -0.7564
 1438TIP3   OH225872   4.099   0.790   7.956 -0.2254 -0.1992  0.0915
 1438TIP3    H125873   4.091   0.804   7.861  0.6873 -1.9023 -0.2774
 1438TIP3    H225874   4.073   0.874   7.995  4.1070  2.3690 -1.8073
 1439TIP3   OH225875   1.846   0.177   7.435  0.2178 -0.2552  0.0211
 1439TIP3    H125876   1.909   0.232   7.389  1.1328 -0.5077  0.9300
 1439TIP3    H225877   1.863   0.088   7.405 -0.0031 -0.2726 -0.0583
 1440TIP3   OH225878   0.644   2.783   1.988 -0.1935 -0.2578 -0.0097
 1440TIP3    H125879   0.727   2.831   1.987 -1.3388  1.9008  1.1304
 1440TIP3    H225880   0.596   2.819   2.062 -2.2535 -1.2928 -0.7568
 1441TIP3   OH225881   3.315   2.890   1.995 -0.2718  0.0328 -0.3553
 1441TIP3    H125882   3.317   2.794   1.991 -1.3330 -0.0768  0.8429
 1441TIP3    H225883   3.297   2.909   2.087 -0.5138  1.3748 -0.6643
 1442TIP3   OH225884   0.176   4.413   2.071 -0.0995  0.6386 -1.3098
 1442TIP3    H125885   0.190   4.349   2.001 -0.1731  0.1199 -0.8571
 1442TIP3    H225886   0.082   4.430   2.070 -0.2838 -0.2712 -0.5700
 1443TIP3   OH225887   1.665   6.707   6.750  0.0713 -0.1707  0.3775
 1443TIP3    H125888   1.735   6.661   6.703  0.3839 -0.3020  0.9599
 1443TIP3    H225889   1.603   6.733   6.682  0.5009 -0.3878 -0.1004
 1444TIP3   OH225890   0.471   3.310   0.580  0.9033 -0.3380  0.2150
 1444TIP3    H125891   0.422   3.374   0.528  0.1121 -1.6647 -0.7135
 1444TIP3    H225892   0.446   3.330   0.671  0.0526  0.1774 -0.1192
 1445TIP3   OH225893   2.301   4.365   0.746 -0.5895  0.2051  0.1114
 1445TIP3    H125894   2.377   4.318   0.709  0.8721  1.2953  1.5889
 1445TIP3    H225895   2.284   4.435   0.684  0.2798  0.5518  0.2456
 1446TIP3   OH225896   3.964   5.584   8.468  0.1591 -0.0827  0.2115
 1446TIP3    H125897   3.987   5.550   8.554  0.7169 -1.0215 -0.2894
 1446TIP3    H225898   3.922   5.510   8.424  1.7418 -0.2905 -1.0443
 1447TIP3   OH225899   2.968   1.787   1.535 -0.2216  0.0277  0.1702
 1447TIP3    H125900   2.994   1.847   1.605 -0.9835  1.3154 -0.6103
 1447TIP3    H225901   2.974   1.839   1.455 -2.0602 -0.5657 -0.4106
 1448TIP3   OH225902   0.966   0.342   7.500  0.1474 -0.2644 -0.3048
 1448TIP3    H125903   1.007   0.294   7.571  1.1384  0.0796 -0.6194
 1448TIP3    H225904   0.921   0.275   7.448 -0.2782 -0.5577  0.4411
 1449TIP3   OH225905   1.691   1.924   2.189 -0.3951 -0.0701 -0.1645
 1449TIP3    H125906   1.606   1.885   2.209  0.0456 -0.2749  1.4364
 1449TIP3    H225907   1.674   2.019   2.192 -0.2372 -0.0691  1.9084
 1450TIP3   OH225908   0.104   4.052   1.317  0.8174  0.4126 -0.4478
 1450TIP3    H125909   0.021   4.088   1.284  0.6439 -0.2289 -0.7137
 1450TIP3    H225910   0.145   4.126   1.363  0.9220  1.2456 -1.8332
 1451TIP3   OH225911   0.515   6.227   8.754  0.2478  0.1794 -0.0571
 1451TIP3    H125912   0.554   6.225   8.842  0.6012 -0.3517 -0.2190
 1451TIP3    H225913   0.564   6.161   8.705  1.1827  1.6105 -1.1399
 1452TIP3   OH225914   1.870   4.656   0.185 -0.0658  0.0476 -0.0955
 1452TIP3    H125915   1.879   4.744   0.221  0.0537 -0.1257  0.3081
 1452TIP3    H225916   1.827   4.668   0.101  2.2628  0.7645 -1.2681
 1453TIP3   OH225917   3.801   1.318   1.131 -0.2525 -0.2665  0.1767
 1453TIP3    H125918   3.720   1.352   1.093  0.8416  1.8063 -0.4122
 1453TIP3    H225919   3.853   1.289   1.056  0.6361  0.9529  0.2873
 1454TIP3   OH225920   4.112   5.883   1.129  0.2786  0.1567 -0.2284
 1454TIP3    H125921   4.093   5.901   1.037 -0.7936  1.3874  0.2115
 1454TIP3    H225922   4.106   5.788   1.137 -0.0736  0.0792 -1.3270
 1455TIP3   OH225923   5.102   0.588   1.676 -0.3111 -0.0024 -0.0154
 1455TIP3    H125924   5.072   0.663   1.625 -1.5083  1.2800  2.3695
 1455TIP3    H225925   5.196   0.583   1.660 -0.3092  1.6301 -0.6871
 1456TIP3   OH225926   1.549   2.468   8.521  0.3326  0.3975 -0.0154
 1456TIP3    H125927   1.535   2.376   8.499 -0.0002  0.3678  0.3221
 1456TIP3    H225928   1.466   2.511   8.499 -0.1106  0.3247  1.4010
 1457TIP3   OH225929   5.058   2.655   0.413  0.1347 -0.0980  0.1092
 1457TIP3    H125930   5.149   2.632   0.434  0.1394 -1.0581 -0.8899
 1457TIP3    H225931   5.020   2.678   0.498  1.6786  1.7714  0.3627
 1458TIP3   OH225932   1.361   1.948   0.366  0.2543 -0.5663  0.5120
 1458TIP3    H125933   1.439   1.931   0.418 -0.7786 -0.4963  2.1845
 1458TIP3    H225934   1.290   1.907   0.415 -0.5626 -2.1670 -1.8531
 1459TIP3   OH225935   0.726   1.603   0.234  0.2500  0.1233 -0.4476
 1459TIP3    H125936   0.763   1.554   0.307  0.3997  2.1356  0.9128
 1459TIP3    H225937   0.677   1.674   0.275 -2.6725 -0.6854 -2.2677
 1460TIP3   OH225938   4.507   1.513   2.797 -0.4685  0.0694  0.2194
 1460TIP3    H125939   4.546   1.513   2.709  0.0113  2.2434  0.3909
 1460TIP3    H225940   4.582   1.518   2.856 -0.8323 -0.4583  0.7366
 1461TIP3   OH225941   3.030   0.290   7.707  0.1456 -0.7069 -0.5322
 1461TIP3    H125942   2.941   0.315   7.679  0.6182  0.0795 -1.4078
 1461TIP3    H225943   3.062   0.366   7.755  1.0325 -0.2143 -1.8645
 1462TIP3   OH225944   0.567   4.522   1.791  0.7530  0.3815 -0.1069
 1462TIP3    H125945   0.570   4.447   1.850  1.0802 -0.2416 -0.8931
 1462TIP3    H225946   0.658   4.552   1.785  0.5505  1.1727  0.6045
 1463TIP3   OH225947   6.164   3.449   0.479  0.4548 -0.2983 -0.7354
 1463TIP3    H125948   6.246   3.417   0.440 -0.2238 -1.0661 -1.5783
 1463TIP3    H225949   6.147   3.532   0.434 -0.1652 -1.0327 -1.9347
 1464TIP3   OH225950   5.010   2.672   2.030  0.2588 -0.1143  0.2666
 1464TIP3    H125951   5.075   2.692   2.097  4.0853 -0.7191 -2.8960
 1464TIP3    H225952   5.003   2.752   1.978  0.5138 -0.8347 -0.9244
 1465TIP3   OH225953   2.176   5.758   7.873  0.0253 -0.4633  0.0310
 1465TIP3    H125954   2.094   5.806   7.857  1.5064  1.7005 -1.6515
 1465TIP3    H225955   2.226   5.814   7.932  0.2511 -1.8875  1.2550
 1466TIP3   OH225956   6.808   0.227   8.180 -0.4760  0.3559 -0.4194
 1466TIP3    H125957   6.818   0.133   8.194  0.6289  0.6428  0.9616
 1466TIP3    H225958   6.851   0.244   8.096 -1.9245 -0.5418 -1.3965
 1467TIP3   OH225959   4.559   4.847   1.477 -0.0129 -0.1245  0.1511
 1467TIP3    H125960   4.495   4.853   1.405 -1.0304  1.1325  1.1000
 1467TIP3    H225961   4.506   4.831   1.555  0.8114  0.9069  0.9635
 1468TIP3   OH225962   5.259   1.308   0.972 -0.0032 -0.0200  0.2260
 1468TIP3    H125963   5.301   1.257   1.041 -1.8005 -0.5682  0.9586
 1468TIP3    H225964   5.262   1.399   1.004 -0.0566 -0.1547  0.6149
 1469TIP3   OH225965   0.268   2.468   8.362 -0.0965  0.4563  0.1050
 1469TIP3    H125966   0.264   2.493   8.269 -2.2399  3.2635  0.7826
 1469TIP3    H225967   0.285   2.551   8.407  1.5762 -0.9612  2.2421
 1470TIP3   OH225968   5.593   4.882   8.162 -0.5907 -0.0341 -0.0473
 1470TIP3    H125969   5.687   4.898   8.150 -0.3691 -0.4179  1.0410
 1470TIP3    H225970   5.559   4.966   8.194 -0.2534 -0.3949  1.3474
 1471TIP3   OH225971   5.532   0.415   1.495  0.3501  0.1639 -0.1240
 1471TIP3    H125972   5.545   0.427   1.400 -2.7199  0.0756 -0.6430
 1471TIP3    H225973   5.476   0.338   1.502  0.9426 -0.1401  1.8381
 1472TIP3   OH225974   5.445   5.483   1.349  0.2184  0.8320 -0.8862
 1472TIP3    H125975   5.528   5.510   1.389  0.8223 -1.7979 -0.1980
 1472TIP3    H225976   5.408   5.418   1.409 -1.3299  0.4369 -2.1793
 1473TIP3   OH225977   1.152   6.726   7.691  0.3695  0.6118 -0.4008
 1473TIP3    H125978   1.148   6.821   7.692  2.4817  0.7415 -1.0092
 1473TIP3    H225979   1.226   6.705   7.635 -0.2710 -1.4157 -0.5786
 1474TIP3   OH225980   6.570   3.856   6.554  0.3686 -0.2037 -0.1330
 1474TIP3    H125981   6.484   3.819   6.533  0.1331  0.2699 -0.0258
 1474TIP3    H225982   6.553   3.916   6.626  0.8092 -0.1745 -0.0517
 1475TIP3   OH225983   6.122   3.456   8.531 -0.5698  0.0084 -0.8515
 1475TIP3    H125984   6.075   3.378   8.560 -0.7123  0.3405 -0.1722
 1475TIP3    H225985   6.208   3.449   8.572  0.0572 -0.6819 -2.2230
 1476TIP3   OH225986   0.363   2.250   6.638  0.0231 -0.2878  0.4456
 1476TIP3    H125987   0.324   2.184   6.580  0.9016  0.0706 -0.6006
 1476TIP3    H225988   0.404   2.313   6.578  2.4664 -0.8056  1.4572
 1477TIP3   OH225989   6.139   1.934   2.403 -0.2806 -0.0887 -0.1019
 1477TIP3    H125990   6.100   1.849   2.421  0.6669 -0.6822 -0.7164
 1477TIP3    H225991   6.170   1.965   2.488  0.7213 -1.0654 -0.0927
 1478TIP3   OH225992   5.232   6.570   1.865  0.3819 -0.8016 -0.1844
 1478TIP3    H125993   5.257   6.647   1.916 -0.0466 -0.5282 -0.3916
 1478TIP3    H225994   5.301   6.562   1.799  1.6134 -1.8443  1.1235
 1479TIP3   OH225995   4.321   1.666   8.536 -0.3740  0.4009 -0.1248
 1479TIP3    H125996   4.350   1.719   8.610  2.0950  2.2692 -2.2302
 1479TIP3    H225997   4.278   1.729   8.477 -1.4834 -0.8634 -0.7101
 1480TIP3   OH225998   1.918   2.260   0.220  0.6390 -0.2989  0.5629
 1480TIP3    H125999   1.955   2.337   0.264  2.0619  0.3885 -1.6712
 1480TIP3    H226000   1.833   2.290   0.188  1.7657  0.9113 -1.5264
 1481TIP3   OH226001   3.893   2.372   7.867  0.1697  0.4574 -0.2174
 1481TIP3    H126002   3.853   2.286   7.854  0.1915  0.2602  0.9422
 1481TIP3    H226003   3.822   2.427   7.901  0.8519  0.0641  2.0124
 1482TIP3   OH226004   0.924   5.496   2.705  0.2739 -0.4607 -0.6367
 1482TIP3    H126005   1.018   5.518   2.700  0.5621 -1.2055  0.9434
 1482TIP3    H226006   0.887   5.565   2.761 -0.3831  0.4876 -2.1689
 1483TIP3   OH226007   1.648   6.098   2.255  0.2035 -0.1164 -0.0169
 1483TIP3    H126008   1.604   6.138   2.330  3.0273 -0.9331  2.2842
 1483TIP3    H226009   1.588   6.030   2.225 -1.2827  0.6262  1.1324
 1484TIP3   OH226010   2.546   4.177   8.444 -0.1313  0.0318 -0.1506
 1484TIP3    H126011   2.498   4.143   8.520 -0.7106 -0.7558 -0.8444
 1484TIP3    H226012   2.544   4.105   8.380  0.2025  0.7339 -0.9718
 1485TIP3   OH226013   0.577   6.102   8.338 -0.7754  0.6380 -0.3852
 1485TIP3    H126014   0.510   6.052   8.291 -0.3937 -0.8677  0.6007
 1485TIP3    H226015   0.660   6.068   8.305 -0.4474  2.0476 -1.1324
 1486TIP3   OH226016   2.827   4.659   0.495 -0.3736  0.1235  0.2795
 1486TIP3    H126017   2.759   4.647   0.561 -0.5049 -0.4219  0.0567
 1486TIP3    H226018   2.858   4.748   0.507  0.7853 -0.4840  2.2087
 1487TIP3   OH226019   3.245   6.309   1.707  0.6333 -0.2421 -0.0004
 1487TIP3    H126020   3.214   6.399   1.712  0.7249 -0.2435  0.6008
 1487TIP3    H226021   3.338   6.314   1.726  0.6167 -0.4745  0.1543
 1488TIP3   OH226022   6.455   3.106   7.872 -0.0665  0.2662  0.4695
 1488TIP3    H126023   6.415   3.193   7.879 -2.1139 -0.3009 -2.3082
 1488TIP3    H226024   6.426   3.059   7.950  2.1417  2.3360  2.7122
 1489TIP3   OH226025   2.042   4.478   0.885  0.1034  0.5305 -0.0477
 1489TIP3    H126026   2.126   4.464   0.841 -0.2464  2.9034 -1.7279
 1489TIP3    H226027   1.990   4.401   0.863  1.4443 -0.4231  0.0201
 1490TIP3   OH226028   5.932   2.340   1.305  0.2232 -0.7472 -0.4947
 1490TIP3    H126029   5.962   2.310   1.219  1.8824 -1.3411  0.2579
 1490TIP3    H226030   5.993   2.410   1.329 -0.1219 -0.7085  0.2983
 1491TIP3   OH226031   5.653   2.295   0.474 -0.0104 -0.3643 -0.2237
 1491TIP3    H126032   5.641   2.345   0.555  0.8904  0.3762 -0.5350
 1491TIP3    H226033   5.636   2.357   0.404 -1.0965 -1.0841 -0.6263
 1492TIP3   OH226034   1.011   3.359   2.162  0.1318 -0.2911  0.2346
 1492TIP3    H126035   0.945   3.318   2.105 -1.0272  0.7695  0.7623
 1492TIP3    H226036   0.984   3.333   2.251  0.3524  0.2552  0.4612
 1493TIP3   OH226037   2.023   4.372   2.707  0.1005 -0.2751 -0.0135
 1493TIP3    H126038   1.952   4.372   2.772  1.2908 -0.4688  1.3501
 1493TIP3    H226039   2.103   4.375   2.760  1.1443 -1.2526 -1.4653
 1494TIP3   OH226040   6.550   2.895   8.555  0.5479 -0.3214  0.0952
 1494TIP3    H126041   6.578   2.976   8.598  0.0732 -0.1344  0.0614
 1494TIP3    H226042   6.605   2.889   8.477 -0.2797  0.6624 -0.6017
 1495TIP3   OH226043   5.688   3.509   7.031  0.0443 -0.4658 -0.0889
 1495TIP3    H126044   5.602   3.479   7.061  0.2112  0.8045  1.8214
 1495TIP3    H226045   5.708   3.584   7.086  1.9440 -0.0928 -1.1923
 1496TIP3   OH226046   1.427   5.311   0.812  0.2614 -0.4543  0.4406
 1496TIP3    H126047   1.406   5.284   0.901  0.7747  0.3881  0.8327
 1496TIP3    H226048   1.492   5.381   0.823 -0.0968  0.0605 -0.5678
 1497TIP3   OH226049   3.673   2.356   0.720  0.2802 -0.2253 -0.1859
 1497TIP3    H126050   3.666   2.423   0.787 -0.4120 -0.8948  0.4254
 1497TIP3    H226051   3.621   2.282   0.753  0.6622 -0.9022 -1.0375
 1498TIP3   OH226052   0.292   0.682   1.011  0.5623  0.3231 -0.1098
 1498TIP3    H126053   0.381   0.717   1.007  1.0005 -0.2254  2.7890
 1498TIP3    H226054   0.242   0.746   1.060 -0.5869  0.4035 -1.3134
 1499TIP3   OH226055   6.134   5.629   2.032  0.1073  0.8475 -0.3359
 1499TIP3    H126056   6.126   5.713   2.078  1.5314  2.3300 -2.5340
 1499TIP3    H226057   6.182   5.573   2.092  0.1741  2.0085  0.7463
 1500TIP3   OH226058   3.941   5.703   0.815 -0.0704 -0.5699  0.1518
 1500TIP3    H126059   3.877   5.655   0.868 -0.2010 -1.7454 -1.0025
 1500TIP3    H226060   3.937   5.793   0.848 -3.1229 -0.3353 -0.5709
 1501TIP3   OH226061   2.795   5.332   1.360 -0.5532  0.0946 -0.1976
 1501TIP3    H126062   2.799   5.247   1.315  0.6196 -0.1198  0.2654
 1501TIP3    H226063   2.732   5.383   1.309 -2.0649 -1.3684  0.1011
 1502TIP3   OH226064   3.561   4.407   0.872  0.5141  0.8538 -0.8487
 1502TIP3    H126065   3.495   4.446   0.929 -2.4670 -2.4129 -1.7594
 1502TIP3    H226066   3.529   4.424   0.783  0.6567 -1.0312 -1.3040
 1503TIP3   OH226067   2.784   4.100   1.277 -0.2294  0.2259 -0.2373
 1503TIP3    H126068   2.839   4.117   1.200  0.2820  0.2048  0.1237
 1503TIP3    H226069   2.708   4.053   1.242 -0.3119  0.7847 -0.8258
 1504TIP3   OH226070   4.425   3.891   8.143 -0.1328 -0.0136 -0.3380
 1504TIP3    H126071   4.400   3.978   8.172 -3.9816 -1.5764  1.9121
 1504TIP3    H226072   4.399   3.888   8.051 -0.7704  0.9493 -0.2025
 1505TIP3   OH226073   6.770   6.693   1.750 -0.0367  0.0607 -0.3318
 1505TIP3    H126074   6.815   6.630   1.807 -0.0822 -0.9826 -1.4099
 1505TIP3    H226075   6.777   6.655   1.663  1.1763  2.2574 -1.2583
 1506TIP3   OH226076   6.211   2.657   0.386 -0.1540  0.5710 -0.2302
 1506TIP3    H126077   6.137   2.696   0.340  1.2986  2.0932 -1.3789
 1506TIP3    H226078   6.257   2.731   0.425  0.5080 -0.3961  0.8865
 1507TIP3   OH226079   5.334   2.836   0.962  0.5092 -0.3238 -0.0064
 1507TIP3    H126080   5.303   2.925   0.978  2.2299  0.3003  0.1101
 1507TIP3    H226081   5.282   2.805   0.888  2.0370  2.0349 -2.2747
 1508TIP3   OH226082   5.667   2.559   0.634 -0.0252 -0.0454  0.2884
 1508TIP3    H126083   5.755   2.551   0.597  0.3809  0.9382  1.0034
 1508TIP3    H226084   5.668   2.643   0.680 -2.0214  1.1064 -1.5672
 1509TIP3   OH226085   4.924   1.142   8.061 -0.1821 -0.5103 -0.3282
 1509TIP3    H126086   4.903   1.100   7.977 -1.7003 -1.4934  0.5045
 1509TIP3    H226087   4.940   1.069   8.121 -0.3052  0.1520  0.5279
 1510TIP3   OH226088   3.602   5.898   0.344 -0.6969 -0.0547 -0.1972
 1510TIP3    H126089   3.629   5.960   0.276  2.2781 -0.5543  0.3921
 1510TIP3    H226090   3.680   5.888   0.399 -2.0572 -2.0058  1.4958
 1511TIP3   OH226091   6.262   2.444   7.127  0.2794 -0.7756  0.6852
 1511TIP3    H126092   6.343   2.444   7.077  1.7396  0.8110  2.8832
 1511TIP3    H226093   6.264   2.362   7.176  0.1562 -1.0958  0.1610
 1512TIP3   OH226094   0.712   4.134   1.162  0.1349 -0.6704  0.3995
 1512TIP3    H126095   0.672   4.112   1.246  1.4718 -0.0526  1.2266
 1512TIP3    H226096   0.696   4.228   1.152  0.6028 -0.6012  0.3086
 1513TIP3   OH226097   1.244   5.940   7.079  0.1782 -0.0084 -0.1446
 1513TIP3    H126098   1.195   6.023   7.083  0.4874  0.1399  0.7477
 1513TIP3    H226099   1.185   5.879   7.035  0.6329  1.1526 -2.5382
 1514TIP3   OH226100   4.179   0.591   8.467 -0.4923 -0.6306 -0.3521
 1514TIP3    H126101   4.224   0.577   8.550  0.0351  2.1931 -0.0314
 1514TIP3    H226102   4.087   0.605   8.491  0.1118  3.5293  0.3962
 1515TIP3   OH226103   4.066   4.354   0.478  0.5978 -0.2561 -0.8510
 1515TIP3    H126104   4.049   4.441   0.442  2.3866  0.4117 -0.2299
 1515TIP3    H226105   4.084   4.370   0.571  0.5677 -1.3368 -0.6484
 1516TIP3   OH226106   5.047   1.798   1.830 -0.3232 -0.5400  0.3899
 1516TIP3    H126107   4.980   1.865   1.834 -0.3287 -0.4572 -0.7518
 1516TIP3    H226108   5.128   1.844   1.852 -0.3353 -0.1504 -0.3304
 1517TIP3   OH226109   6.288   1.182   8.139 -0.3464 -0.1123 -0.2977
 1517TIP3    H126110   6.205   1.188   8.091 -0.0743  0.4273 -0.7039
 1517TIP3    H226111   6.293   1.090   8.165 -0.8321 -0.2608 -0.7082
 1518TIP3   OH226112   6.644   5.411   7.148  0.1070 -0.4126  0.0862
 1518TIP3    H126113   6.673   5.348   7.082 -0.3796 -0.3774 -0.1697
 1518TIP3    H226114   6.691   5.491   7.126  0.6066 -0.6409  0.3150
 1519TIP3   OH226115   6.495   2.235   7.611 -0.1646 -0.0159  0.0473
 1519TIP3    H126116   6.573   2.265   7.564 -0.4019 -1.3215 -1.2784
 1519TIP3    H226117   6.422   2.263   7.556 -0.5631  0.0755  0.6175
 1520TIP3   OH226118   4.053   2.941   7.965  0.2139  0.6254  0.6016
 1520TIP3    H126119   4.134   2.912   7.924 -0.2036 -1.9297  1.3959
 1520TIP3    H226120   4.081   2.989   8.043  0.9849 -0.1403  0.8142
 1521TIP3   OH226121   4.893   5.191   8.026  0.6341  0.1966 -0.2838
 1521TIP3    H126122   4.969   5.243   8.002  1.0596 -0.6849 -0.9167
 1521TIP3    H226123   4.818   5.250   8.013  1.1837  1.0160  0.2012
 1522TIP3   OH226124   6.340   4.754   8.274 -0.5391 -0.3066  0.2750
 1522TIP3    H126125   6.315   4.707   8.194 -1.1491 -0.9404  0.8322
 1522TIP3    H226126   6.259   4.798   8.301 -0.3904 -0.2778  0.6711
 1523TIP3   OH226127   1.568   0.170   7.343 -0.1515 -0.4168 -0.0454
 1523TIP3    H126128   1.661   0.178   7.364 -0.0073  0.0981 -0.8643
 1523TIP3    H226129   1.561   0.193   7.250 -1.0024 -1.0917 -0.1732
 1524TIP3   OH226130   1.297   2.744   1.399 -0.0624  0.1460  0.3270
 1524TIP3    H126131   1.332   2.776   1.482  1.6009 -2.8679  0.9558
 1524TIP3    H226132   1.316   2.814   1.336  2.4015  0.8720  1.7164
 1525TIP3   OH226133   0.786   5.962   0.495 -0.0297 -0.1467  0.2822
 1525TIP3    H126134   0.875   5.959   0.460 -0.7078 -0.7430 -1.5236
 1525TIP3    H226135   0.769   6.055   0.509 -0.5896  0.4855 -3.5972
 1526TIP3   OH226136   6.280   0.218   2.392 -0.1571 -0.4875  0.0481
 1526TIP3    H126137   6.189   0.191   2.405 -0.4372  0.8288  1.0518
 1526TIP3    H226138   6.328   0.136   2.382 -1.1247 -1.3132  1.7547
 1527TIP3   OH226139   5.888   5.566   8.665  0.4670 -0.1793  0.2821
 1527TIP3    H126140   5.839   5.503   8.612 -0.5484  0.1989  0.7392
 1527TIP3    H226141   5.822   5.630   8.693  1.0515 -0.1539  1.6774
 1528TIP3   OH226142   4.179   1.115   1.197 -0.3518  0.7239  0.1792
 1528TIP3    H126143   4.252   1.095   1.256  1.0777  1.3040 -1.3120
 1528TIP3    H226144   4.119   1.167   1.250  0.1932  0.0571  1.5117
 1529TIP3   OH226145   6.275   4.210   7.403 -0.5382  0.2830 -0.3178
 1529TIP3    H126146   6.238   4.159   7.475  1.1499  1.1761  1.2620
 1529TIP3    H226147   6.214   4.282   7.390 -0.4765  0.5508  0.7882
 1530TIP3   OH226148   2.896   6.766   1.880 -0.5288 -0.4076 -0.4193
 1530TIP3    H126149   2.938   6.823   1.944 -0.6312  1.2128 -1.7248
 1530TIP3    H226150   2.805   6.760   1.908 -0.8471  1.2383 -0.9841
 1531TIP3   OH226151   2.329   1.173   8.126  0.1969  0.5324  0.5570
 1531TIP3    H126152   2.421   1.159   8.104 -0.0384 -0.4675  0.1431
 1531TIP3    H226153   2.293   1.219   8.050 -0.0961 -0.9176 -0.2295
 1532TIP3   OH226154   4.191   0.009   1.059  0.2543  0.5279 -0.3680
 1532TIP3    H126155   4.162  -0.039   1.137 -0.5418  2.8156  0.8445
 1532TIP3    H226156   4.250  -0.051   1.015 -0.4970 -1.4554  1.1522
 1533TIP3   OH226157   4.082   6.832   7.434 -0.1299 -0.1977  0.2353
 1533TIP3    H126158   4.171   6.798   7.441 -0.0210  0.0230 -0.0529
 1533TIP3    H226159   4.051   6.802   7.349 -0.3485 -0.3174  0.3580
 1534TIP3   OH226160   6.458   2.280   7.244 -0.2672  0.1938 -0.6480
 1534TIP3    H126161   6.519   2.334   7.193  0.6168 -1.3904 -1.3451
 1534TIP3    H226162   6.476   2.190   7.216 -2.5628 -0.3837 -0.4559
 1535TIP3   OH226163   5.606   4.301   0.633  0.0440 -0.6767  0.0071
 1535TIP3    H126164   5.666   4.284   0.561 -0.7909 -0.3702 -0.7707
 1535TIP3    H226165   5.594   4.396   0.632  1.0006 -0.5044  1.3569
 1536TIP3   OH226166   0.534   4.874   8.042 -0.6058  0.7074  0.3128
 1536TIP3    H126167   0.554   4.825   8.121 -1.7142 -0.5831 -0.1717
 1536TIP3    H226168   0.519   4.808   7.974 -0.3651  1.7588 -0.8119
 1537TIP3   OH226169   5.159   2.491   1.850  0.1640 -0.3486 -0.5792
 1537TIP3    H126170   5.107   2.568   1.875 -0.1347  0.0851 -2.3856
 1537TIP3    H226171   5.221   2.525   1.785  1.0694 -1.3549 -0.2721
 1538TIP3   OH226172   6.394   0.278   8.131 -0.1925  0.2515  0.1939
 1538TIP3    H126173   6.314   0.292   8.182  0.2976 -0.3192  1.1485
 1538TIP3    H226174   6.464   0.303   8.191  0.6357 -3.6870  1.1492
 1539TIP3   OH226175   2.861   0.029   7.505 -0.4719 -0.6573 -0.0848
 1539TIP3    H126176   2.893  -0.059   7.483  1.9442  0.0986  0.1701
 1539TIP3    H226177   2.880   0.082   7.428 -0.1988  0.0355  0.4442
 1540TIP3   OH226178   0.214   2.911   0.702 -0.2372 -0.2404 -0.0543
 1540TIP3    H126179   0.127   2.940   0.729  0.7449  3.0798  0.0503
 1540TIP3    H226180   0.216   2.923   0.607 -0.2577 -1.5376 -0.2365
 1541TIP3   OH226181   1.634   2.374   1.726 -0.5516  0.1604 -0.1459
 1541TIP3    H126182   1.708   2.409   1.777 -1.1551  2.3959 -0.6871
 1541TIP3    H226183   1.561   2.431   1.748 -1.6685 -0.8892 -1.0150
 1542TIP3   OH226184   2.032   6.782   1.831  0.5156 -0.2486 -0.3447
 1542TIP3    H126185   2.054   6.736   1.912  0.8498  0.1830 -0.1916
 1542TIP3    H226186   2.116   6.809   1.794  0.2754  2.0322  0.6087
 1543TIP3   OH226187   4.203   3.777   1.662  0.1719 -0.1881  0.8858
 1543TIP3    H126188   4.249   3.694   1.677  0.7984  0.1670  0.9458
 1543TIP3    H226189   4.269   3.844   1.675 -0.5056  0.3671  1.5812
 1544TIP3   OH226190   1.724   3.975   7.288 -0.4868 -0.5856  0.1386
 1544TIP3    H126191   1.635   4.002   7.263 -0.6576 -2.1261 -1.0783
 1544TIP3    H226192   1.771   3.969   7.205  0.8218  0.3497  0.7810
 1545TIP3   OH226193   3.493   2.755   0.223  0.4173 -0.0865 -0.0912
 1545TIP3    H126194   3.450   2.724   0.302  0.0952  1.0073  0.1754
 1545TIP3    H226195   3.584   2.727   0.232 -0.0219 -1.6548 -0.2501
 1546TIP3   OH226196   4.806   4.954   0.453 -0.4202  0.0304  0.2704
 1546TIP3    H126197   4.781   5.045   0.467  0.6527  0.3224  0.3835
 1546TIP3    H226198   4.900   4.953   0.468 -0.2008 -0.8363 -1.0093
 1547TIP3   OH226199   0.668   2.268   1.724 -1.1442  0.7744 -0.1599
 1547TIP3    H126200   0.661   2.307   1.638  0.0165 -0.0984 -0.6791
 1547TIP3    H226201   0.668   2.173   1.708  2.0208  0.5484  0.4319
 1548TIP3   OH226202   2.438   6.802   6.531  0.2451 -0.3565  0.1449
 1548TIP3    H126203   2.465   6.879   6.581 -0.8834  2.2155 -2.8815
 1548TIP3    H226204   2.344   6.795   6.547  0.0042  0.0632 -1.0088
 1549TIP3   OH226205   2.772   1.476   0.871 -0.4101 -0.3004 -0.6292
 1549TIP3    H126206   2.811   1.482   0.784 -0.6983  1.1846 -0.6828
 1549TIP3    H226207   2.847   1.474   0.930 -0.1784  1.6465 -0.7830
 1550TIP3   OH226208   0.696   5.395   1.751  0.0652 -0.9130  0.0434
 1550TIP3    H126209   0.661   5.386   1.839 -0.2393 -1.5386 -0.1373
 1550TIP3    H226210   0.662   5.319   1.704  2.3539 -2.0561  0.0955
 1551TIP3   OH226211   2.774   5.936   1.044  0.1761  0.4274  0.2429
 1551TIP3    H126212   2.809   5.989   1.115  0.2856  0.3137  0.2738
 1551TIP3    H226213   2.802   5.847   1.064  1.2884  0.5721 -0.5918
 1552TIP3   OH226214   5.057   4.451   0.094 -0.5805 -0.3193  0.2886
 1552TIP3    H126215   5.070   4.530   0.041  1.0533 -1.0910 -0.5021
 1552TIP3    H226216   4.975   4.468   0.141 -1.0444  1.2244 -0.9755
 1553TIP3   OH226217   6.752   0.696   1.729  0.7755  0.0773  0.4138
 1553TIP3    H126218   6.694   0.737   1.794  0.5510  1.7473 -0.7851
 1553TIP3    H226219   6.729   0.603   1.733 -2.5355  0.7179 -0.4673
 1554TIP3   OH226220   4.501   0.247   1.549 -0.3895 -0.3029 -0.0757
 1554TIP3    H126221   4.424   0.278   1.502  0.4803 -0.9719 -2.0513
 1554TIP3    H226222   4.478   0.256   1.641 -2.5198  0.2367 -0.6038
 1555TIP3   OH226223   2.305   6.494   7.553  0.2955  0.7501 -0.2874
 1555TIP3    H126224   2.307   6.560   7.484  1.0943  0.1806 -0.8318
 1555TIP3    H226225   2.214   6.493   7.583 -0.1588  0.7251 -1.6074
 1556TIP3   OH226226   1.128   0.733   1.854  0.1067 -0.7665 -0.5560
 1556TIP3    H126227   1.215   0.767   1.832 -0.3751 -0.3564 -1.8914
 1556TIP3    H226228   1.118   0.655   1.800 -1.0474  0.1834 -1.7825
 1557TIP3   OH226229   4.484   0.510   8.009 -0.1048  0.0147  0.4226
 1557TIP3    H126230   4.468   0.420   7.981  0.6284 -0.0693  0.2623
 1557TIP3    H226231   4.412   0.560   7.971 -0.2535 -0.4285  0.1139
 1558TIP3   OH226232   4.217   6.022   0.160  0.0398 -0.1418 -0.6770
 1558TIP3    H126233   4.287   5.990   0.217  1.7904  1.1904 -1.9487
 1558TIP3    H226234   4.262   6.048   0.080 -1.9233  0.8742 -1.5167
 1559TIP3   OH226235   4.911   2.007   2.947  0.1899  0.4536 -0.1695
 1559TIP3    H126236   4.817   1.989   2.957 -0.1126  2.4111  0.9977
 1559TIP3    H226237   4.946   1.928   2.904 -1.7548 -0.8135  0.4372
 1560TIP3   OH226238   5.633   3.378   0.999  0.4370 -0.8995  0.1291
 1560TIP3    H126239   5.717   3.349   1.036 -0.0136 -1.7381  0.5229
 1560TIP3    H226240   5.604   3.304   0.946 -0.8202 -1.2910  1.2907
 1561TIP3   OH226241   5.865   6.256   5.887 -0.4722  0.3103  0.6810
 1561TIP3    H126242   5.834   6.305   5.963 -1.6378  1.5386 -0.5421
 1561TIP3    H226243   5.801   6.186   5.876 -0.2627  0.0876  0.8425
 1562TIP3   OH226244   4.845   3.236   0.060  0.1203  0.6154 -0.4069
 1562TIP3    H126245   4.871   3.286   0.138  0.3283 -0.3496  0.1485
 1562TIP3    H226246   4.927   3.198   0.028 -0.0978  0.3113 -0.6049
 1563TIP3   OH226247   5.814   2.696   8.057  0.2959 -0.0382  0.8310
 1563TIP3    H126248   5.721   2.710   8.037  0.8218  0.7945 -1.2510
 1563TIP3    H226249   5.819   2.603   8.082 -0.8153 -0.6839 -1.0805
 1564TIP3   OH226250   0.658   1.052   7.465 -0.0832 -0.4291 -0.2320
 1564TIP3    H126251   0.652   0.987   7.395 -0.1895 -0.5514 -0.1090
 1564TIP3    H226252   0.584   1.033   7.522 -0.6807  0.4104 -0.7030
 1565TIP3   OH226253   1.391   3.934   8.201 -0.9409 -0.0282  0.1480
 1565TIP3    H126254   1.473   3.960   8.244 -0.8916  0.3658 -0.1742
 1565TIP3    H226255   1.416   3.865   8.140 -1.1048 -1.0032  1.1593
 1566TIP3   OH226256   5.724   0.707   0.247 -0.3439 -0.4088 -0.4100
 1566TIP3    H126257   5.679   0.792   0.253 -0.1070 -0.2158 -1.2504
 1566TIP3    H226258   5.685   0.654   0.316  0.2759  0.7317  0.8461
 1567TIP3   OH226259   0.450   2.054   8.185 -1.0180  0.0051  0.5188
 1567TIP3    H126260   0.475   1.962   8.173 -2.4413 -0.4264  0.7118
 1567TIP3    H226261   0.364   2.061   8.143 -0.3702  1.5770 -0.6469
 1568TIP3   OH226262   0.263   0.083   8.009 -0.1015 -0.4342  0.3717
 1568TIP3    H126263   0.317   0.022   7.959 -1.4304 -0.2337 -1.3933
 1568TIP3    H226264   0.229   0.030   8.082 -0.1539 -1.4428 -0.3669
 1569TIP3   OH226265   4.921   6.678   0.624  0.1643  0.3080 -0.3945
 1569TIP3    H126266   4.969   6.722   0.554 -0.3836  0.1015 -0.9059
 1569TIP3    H226267   4.917   6.743   0.695 -0.2201  0.9048 -0.9554
 1570TIP3   OH226268   0.989   5.728   1.738  0.0203  0.4932  0.2936
 1570TIP3    H126269   1.012   5.786   1.811 -0.2445  0.3621  0.4800
 1570TIP3    H226270   0.941   5.784   1.677  0.8540  0.7827 -0.1206
 1571TIP3   OH226271   5.513   5.772   0.429 -0.1084 -0.1123 -0.0879
 1571TIP3    H126272   5.576   5.779   0.501 -1.5092 -0.7634  1.2447
 1571TIP3    H226273   5.505   5.861   0.396 -2.0904  0.9858  2.9410
 1572TIP3   OH226274   5.760   5.870   6.719  0.6234 -0.6390  0.3322
 1572TIP3    H126275   5.753   5.959   6.685  0.7665 -0.9763 -0.6089
 1572TIP3    H226276   5.779   5.882   6.812  0.5004  0.3099  0.2514
 1573TIP3   OH226277   1.929   4.580   8.118  0.0169 -0.5408 -0.3417
 1573TIP3    H126278   1.886   4.523   8.181 -2.5650 -1.2050 -2.5049
 1573TIP3    H226279   1.898   4.668   8.140  0.4882 -0.5329  0.3167
 1574TIP3   OH226280   1.795   6.764   0.033 -0.2606 -0.0197 -0.4132
 1574TIP3    H126281   1.873   6.722   0.067 -0.3743  0.9760  1.1666
 1574TIP3    H226282   1.770   6.710  -0.042 -0.3691 -2.7126  1.4194
 1575TIP3   OH226283   5.041   6.331   2.763  0.2522 -0.4845 -1.1903
 1575TIP3    H126284   5.041   6.414   2.812  0.4481 -1.2795  0.2306
 1575TIP3    H226285   4.976   6.344   2.694 -3.2567 -0.6679  1.7757
 1576TIP3   OH226286   5.643   4.713   0.569 -0.2554  0.3875  0.1410
 1576TIP3    H126287   5.707   4.757   0.624  1.4064  1.0911 -2.2271
 1576TIP3    H226288   5.692   4.644   0.524 -1.6180 -0.3587 -0.2865
 1577TIP3   OH226289   6.341   4.228   0.509 -0.1713  0.4446  0.0132
 1577TIP3    H126290   6.418   4.279   0.485 -0.3523  0.5307 -0.3864
 1577TIP3    H226291   6.335   4.238   0.604  0.1585  0.6516  0.0150
 1578TIP3   OH226292   1.070   2.628   7.527  0.0643 -0.2217  0.0831
 1578TIP3    H126293   1.094   2.627   7.620  0.4028 -2.6156  0.0229
 1578TIP3    H226294   0.979   2.657   7.526  0.4911  1.2529  1.0069
 1579TIP3   OH226295   4.804   6.396   7.871 -0.0142  0.1629  0.7467
 1579TIP3    H126296   4.715   6.409   7.836  0.8510  0.0176 -1.7466
 1579TIP3    H226297   4.843   6.483   7.869  0.7288 -0.1690 -0.8163
 1580TIP3   OH226298   4.077   0.726   0.796  0.0503 -0.0294 -0.1272
 1580TIP3    H126299   4.044   0.803   0.750  0.2736  0.3552  0.3459
 1580TIP3    H226300   4.086   0.659   0.728  1.0486  0.7449 -0.7881
 1581TIP3   OH226301   6.832   1.548   8.041 -0.0412  0.2309  0.0716
 1581TIP3    H126302   6.861   1.551   7.950 -0.0761 -0.8738  0.0099
 1581TIP3    H226303   6.751   1.599   8.042  0.7830  1.6016 -0.1675
 1582TIP3   OH226304   0.435   1.400   6.686 -0.2956  0.0499  0.3853
 1582TIP3    H126305   0.436   1.421   6.779  1.8979  0.8930  0.2480
 1582TIP3    H226306   0.527   1.410   6.659 -0.7325 -1.0288 -1.6784
 1583TIP3   OH226307   1.661   1.307   7.741  0.1444 -0.3261  0.5300
 1583TIP3    H126308   1.664   1.324   7.647  2.2677 -0.8795  0.4527
 1583TIP3    H226309   1.627   1.218   7.748  0.3453 -0.4231  0.2759
 1584TIP3   OH226310   1.348   4.117   0.919  0.6461  0.4165 -0.0895
 1584TIP3    H126311   1.359   4.074   0.834  0.5940 -0.9327  0.5570
 1584TIP3    H226312   1.283   4.062   0.964  3.2075 -1.0006  2.1562
 1585TIP3   OH226313   2.421   0.729   2.212  0.1487  0.3872  0.3922
 1585TIP3    H126314   2.498   0.775   2.243  0.1495  1.5834 -1.2563
 1585TIP3    H226315   2.352   0.795   2.210 -0.4908 -0.2692  0.3077
 1586TIP3   OH226316   1.866   0.243   2.113  0.3656  0.2326 -0.2668
 1586TIP3    H126317   1.831   0.154   2.112 -0.4436  0.5464 -1.0050
 1586TIP3    H226318   1.790   0.299   2.099  1.0376  0.9745 -1.1179
 1587TIP3   OH226319   1.935   3.695   8.552 -0.2752 -0.3436  0.4712
 1587TIP3    H126320   1.966   3.606   8.569 -0.4223 -0.1464  1.8907
 1587TIP3    H226321   1.843   3.685   8.529  0.6460 -0.9572 -3.9768
 1588TIP3   OH226322   0.543   4.848   2.177  0.5801  0.0769 -0.3631
 1588TIP3    H126323   0.611   4.795   2.135  0.2943 -1.1040  0.6116
 1588TIP3    H226324   0.498   4.787   2.236 -1.4180  0.7974 -1.0756
 1589TIP3   OH226325   1.248   4.594   7.411  0.0921 -0.0843  0.2980
 1589TIP3    H126326   1.307   4.578   7.337  1.1420  1.5500  0.7243
 1589TIP3    H226327   1.306   4.612   7.485 -0.9334  0.3604  1.0253
 1590TIP3   OH226328   5.331   2.009   7.778  0.3570  0.1251 -0.2405
 1590TIP3    H126329   5.374   1.945   7.722 -0.7819 -0.1314 -0.8478
 1590TIP3    H226330   5.265   2.051   7.722  0.0329  0.7375  0.5671
 1591TIP3   OH226331   2.037   3.994   8.104 -0.1867 -0.3657  0.1243
 1591TIP3    H126332   2.006   4.009   8.014  0.3154  1.3728  0.2091
 1591TIP3    H226333   2.130   4.013   8.100 -0.2386  0.1343  1.0956
 1592TIP3   OH226334   5.116   5.570   0.064  0.0722  0.1284 -0.3465
 1592TIP3    H126335   5.206   5.603   0.066  0.2464 -0.1682 -2.1186
 1592TIP3    H226336   5.063   5.642   0.099  0.7191  1.3716 -1.8153
 1593TIP3   OH226337   5.173   2.280   0.449 -0.1501 -0.0147  0.1328
 1593TIP3    H126338   5.196   2.274   0.542  0.5612 -0.1826 -0.0496
 1593TIP3    H226339   5.257   2.287   0.403 -0.5426  1.6876 -0.3948
 1594TIP3   OH226340   4.096   4.126   8.142 -0.5030 -0.2639  0.0330
 1594TIP3    H126341   4.053   4.126   8.228 -1.3310  2.1089 -0.3131
 1594TIP3    H226342   4.188   4.142   8.162 -0.8995  1.7235  0.4637
 1595TIP3   OH226343   6.213   5.769   7.568  0.2474 -0.1107  0.1811
 1595TIP3    H126344   6.163   5.700   7.525 -0.2724  0.7755 -0.6759
 1595TIP3    H226345   6.296   5.728   7.592  0.1783 -0.8651 -0.8396
 1596TIP3   OH226346   6.554   5.016   6.599  0.1415  0.0297 -0.2977
 1596TIP3    H126347   6.643   5.028   6.565  0.3836  0.9929  0.6518
 1596TIP3    H226348   6.531   5.100   6.639 -0.7232 -0.5861  0.5518
 1597TIP3   OH226349   5.533   1.511   7.630 -0.2086 -0.6019 -0.2173
 1597TIP3    H126350   5.528   1.444   7.698 -1.5082 -0.0526  0.2430
 1597TIP3    H226351   5.446   1.512   7.590 -0.8416  2.0384  1.0055
 1598TIP3   OH226352   1.960   1.804   8.138  0.3173 -0.1815  0.2909
 1598TIP3    H126353   1.953   1.885   8.187 -1.7800  1.2108 -2.0681
 1598TIP3    H226354   1.916   1.738   8.192  1.1849  0.4294  1.7895
 1599TIP3   OH226355   5.813   1.032   0.993 -0.0721  0.7539  0.1840
 1599TIP3    H126356   5.794   0.943   0.961  1.3185  0.2558  0.6435
 1599TIP3    H226357   5.785   1.030   1.084  2.4260 -0.1477  1.0167
 1600TIP3   OH226358   6.204   5.683   1.664  0.9696  0.1774  0.3277
 1600TIP3    H126359   6.225   5.614   1.601 -0.3432 -0.2708  0.3458
 1600TIP3    H226360   6.108   5.683   1.669  0.9707  1.4560  0.9453
 1601TIP3   OH226361   0.252   6.802   0.350 -0.2812 -0.5272  0.3131
 1601TIP3    H126362   0.286   6.766   0.432 -0.8569 -0.7253  0.4740
 1601TIP3    H226363   0.223   6.890   0.372 -1.5258 -0.9861  0.6284
 1602TIP3   OH226364   1.223   4.651   8.023 -0.0677 -0.0682  0.5545
 1602TIP3    H126365   1.299   4.634   7.967  0.6069  0.2656  1.3288
 1602TIP3    H226366   1.213   4.747   8.021 -0.4383 -0.1067  0.4979
 1603TIP3   OH226367   2.705   4.541   7.329 -0.5749 -0.2215 -0.1929
 1603TIP3    H126368   2.667   4.624   7.359 -2.8209 -1.9862  2.3382
 1603TIP3    H226369   2.791   4.538   7.370  0.0716  1.3366 -1.3327
 1604TIP3   OH226370   3.848   3.245   8.076 -0.2557  0.2948  0.0903
 1604TIP3    H126371   3.853   3.324   8.129 -2.7047 -0.3134  1.3752
 1604TIP3    H226372   3.772   3.259   8.020 -0.5596 -1.0264  0.1412
 1605TIP3   OH226373   6.404   1.348   7.238 -0.3605 -0.2783  0.5140
 1605TIP3    H126374   6.484   1.296   7.242 -0.2291 -0.2869 -1.3214
 1605TIP3    H226375   6.433   1.438   7.254  0.0928 -0.2374 -0.4643
 1606TIP3   OH226376   3.057   6.701   8.038  0.4874  0.5590  0.5260
 1606TIP3    H126377   3.016   6.708   7.952  1.1583  0.4099  0.1938
 1606TIP3    H226378   3.067   6.791   8.067 -0.5826  0.5882  0.8592
 1607TIP3   OH226379   2.478   3.597   0.711  0.1717 -0.1972 -0.0450
 1607TIP3    H126380   2.512   3.653   0.642 -0.2953  1.3872  0.9567
 1607TIP3    H226381   2.384   3.594   0.697 -0.0296  0.8129  0.9693
 1608TIP3   OH226382   1.243   0.499   2.334 -0.1226 -0.4211  0.4424
 1608TIP3    H126383   1.302   0.477   2.406  1.7136  2.2247 -0.1131
 1608TIP3    H226384   1.178   0.428   2.334  2.3280 -2.8671  1.8525
 1609TIP3   OH226385   1.926   4.268   7.569  0.0074  0.1061 -0.5870
 1609TIP3    H126386   1.989   4.200   7.544  0.3203 -0.6843  2.0245
 1609TIP3    H226387   1.935   4.335   7.502  0.7469 -1.7611 -2.4665
 1610TIP3   OH226388   3.413   4.144   0.381 -1.0563 -0.4722 -0.5428
 1610TIP3    H126389   3.436   4.084   0.452  0.2400  2.0867  1.3757
 1610TIP3    H226390   3.327   4.177   0.404 -0.0837  1.3763  0.7088
 1611TIP3   OH226391   4.805   2.844   0.145  0.2476  0.5997 -0.0221
 1611TIP3    H126392   4.829   2.773   0.085  0.5877  1.1831 -0.5796
 1611TIP3    H226393   4.747   2.802   0.209 -0.4254  0.0441 -0.9652
 1612TIP3   OH226394   4.747   2.595   8.327 -0.0959 -0.0351 -0.1338
 1612TIP3    H126395   4.790   2.579   8.411 -0.3871 -1.9218 -0.3079
 1612TIP3    H226396   4.657   2.620   8.350 -0.3550 -1.1588  0.1235
 1613TIP3   OH226397   5.920   2.388   7.021  0.8623  0.0244 -0.4274
 1613TIP3    H126398   5.871   2.471   7.022 -0.3443 -0.6486 -1.1213
 1613TIP3    H226399   5.946   2.376   6.930 -0.0469 -0.9531 -0.5731
 1614TIP3   OH226400   5.983   0.209   0.988  0.3648  0.0282 -0.8443
 1614TIP3    H126401   6.024   0.281   0.940 -0.1440  0.5667 -0.4892
 1614TIP3    H226402   6.056   0.152   1.012  1.1100  1.5902  0.8294
 1615TIP3   OH226403   5.438   0.355   1.953 -0.1223 -0.1959  0.1299
 1615TIP3    H126404   5.412   0.445   1.932 -0.9979 -0.0034  1.8569
 1615TIP3    H226405   5.471   0.360   2.042  0.7943 -1.4304 -0.1179
 1616TIP3   OH226406   4.562   4.409   1.486 -0.6269 -0.2391  0.5264
 1616TIP3    H126407   4.622   4.478   1.460 -1.3517 -0.3452 -1.5897
 1616TIP3    H226408   4.485   4.455   1.518 -0.5956 -0.0749  0.3651
 1617TIP3   OH226409   3.034   2.987   1.479 -0.0279 -0.2279 -0.2542
 1617TIP3    H126410   2.984   2.930   1.538  0.8001 -0.4156  0.2897
 1617TIP3    H226411   2.981   3.066   1.472 -1.1891 -1.0327 -1.0008
 1618TIP3   OH226412   1.546   1.342   6.844  0.1697 -0.3477  0.5983
 1618TIP3    H126413   1.604   1.400   6.795 -1.3468 -0.4339 -1.4249
 1618TIP3    H226414   1.529   1.268   6.785 -3.2022  0.4388  0.3633
 1619TIP3   OH226415   2.421   4.094   6.932  0.1109 -0.2105 -0.0535
 1619TIP3    H126416   2.376   4.178   6.942 -1.1333 -0.9366  0.7017
 1619TIP3    H226417   2.467   4.102   6.848 -2.6899  0.0371 -1.7071
 1620TIP3   OH226418   0.966   2.126   1.371 -0.0575 -0.5711  0.5729
 1620TIP3    H126419   1.014   2.145   1.290 -0.4198 -1.0358  0.2441
 1620TIP3    H226420   1.020   2.061   1.416  0.0299 -0.4833  0.5947
 1621TIP3   OH226421   0.760   1.216   2.363  0.9274 -0.0472  0.0758
 1621TIP3    H126422   0.847   1.253   2.349  0.7135  0.6227  0.4784
 1621TIP3    H226423   0.760   1.190   2.455  0.8844 -0.5446 -0.0624
 1622TIP3   OH226424   1.153   2.499   8.584 -0.0357  0.2516 -0.3464
 1622TIP3    H126425   1.150   2.507   8.679  0.0025  2.0512 -0.4674
 1622TIP3    H226426   1.086   2.561   8.553  0.8014  0.6024 -1.5106
 1623TIP3   OH226427   0.394   5.679   1.562  0.0346 -0.7062 -0.3494
 1623TIP3    H126428   0.323   5.739   1.543  0.7978  0.1207 -0.6792
 1623TIP3    H226429   0.419   5.642   1.477  1.6769  0.9657 -0.6501
 1624TIP3   OH226430   0.830   3.594   1.415  0.2355 -0.1412  0.8106
 1624TIP3    H126431   0.875   3.549   1.344  0.4010 -0.4165  1.0872
 1624TIP3    H226432   0.802   3.677   1.377  1.1522  0.1254  0.6803
 1625TIP3   OH226433   4.207   1.555   1.591  1.1685  0.3526 -0.0220
 1625TIP3    H126434   4.215   1.561   1.687  0.4874  2.5321 -0.0467
 1625TIP3    H226435   4.216   1.645   1.561 -2.0921  0.2622 -1.6990
 1626TIP3   OH226436   2.057   2.418   8.589  0.1098 -0.1405 -0.1547
 1626TIP3    H126437   1.984   2.479   8.597 -0.3690 -0.7503  0.1926
 1626TIP3    H226438   2.026   2.338   8.631  1.3661 -0.0667  0.9764
 1627TIP3   OH226439   0.805   4.394   6.846 -0.6968  0.1876 -0.1241
 1627TIP3    H126440   0.743   4.353   6.786 -0.5902  0.8887 -0.7129
 1627TIP3    H226441   0.890   4.358   6.822 -0.4328  1.5569 -1.3948
 1628TIP3   OH226442   6.437   1.700   1.720  0.3233 -0.3400  0.3181
 1628TIP3    H126443   6.439   1.651   1.802 -0.6707 -0.5606  0.2315
 1628TIP3    H226444   6.523   1.687   1.682  0.3174 -1.4362  0.6406
 1629TIP3   OH226445   4.921   5.375   0.277  0.5469  0.4026  0.8755
 1629TIP3    H126446   5.004   5.381   0.324  0.5649 -1.0284  1.0889
 1629TIP3    H226447   4.938   5.415   0.192  2.1606 -1.7626  0.0688
 1630TIP3   OH226448   3.504   1.436   2.825 -0.0643  0.3861  0.1862
 1630TIP3    H126449   3.411   1.451   2.812 -0.1788 -1.1332 -1.0230
 1630TIP3    H226450   3.513   1.340   2.823  1.4935  0.5011  0.4803
 1631TIP3   OH226451   6.280   5.093   7.815  0.6565 -0.5796 -0.1883
 1631TIP3    H126452   6.308   5.086   7.906 -0.3636 -0.1187  0.1793
 1631TIP3    H226453   6.192   5.131   7.820  0.3938 -0.9999 -1.3426
 1632TIP3   OH226454   1.513   3.837   0.952  0.2866 -0.4050  0.0759
 1632TIP3    H126455   1.563   3.823   0.871  0.7018 -0.5035  0.3432
 1632TIP3    H226456   1.580   3.845   1.020 -0.0241  0.5415  0.2870
 1633TIP3   OH226457   5.292   2.419   2.195 -0.3277 -0.1649  0.2127
 1633TIP3    H126458   5.332   2.379   2.273 -1.7867  0.9806  1.6285
 1633TIP3    H226459   5.301   2.513   2.211 -1.0195  0.0846 -0.8350
 1634TIP3   OH226460   0.144   4.641   0.600 -0.2781 -0.0913  0.4403
 1634TIP3    H126461   0.164   4.628   0.692 -0.5351  1.4963  0.7629
 1634TIP3    H226462   0.054   4.611   0.590 -0.6193  0.7294  0.9694
 1635TIP3   OH226463   3.481   5.391   1.318 -0.0390  0.7833  0.5535
 1635TIP3    H126464   3.463   5.485   1.320 -0.0048  0.8486 -0.9852
 1635TIP3    H226465   3.562   5.383   1.267  0.1113 -0.0666  0.9070
 1636TIP3   OH226466   1.900   4.295   7.107 -0.0615 -0.3080  0.3237
 1636TIP3    H126467   1.914   4.209   7.147  0.1506  0.4493  1.9297
 1636TIP3    H226468   1.812   4.321   7.137 -1.2150 -0.9975 -2.1769
 1637TIP3   OH226469   4.984   2.781   1.127  0.7332  0.0023  0.1473
 1637TIP3    H126470   5.059   2.749   1.077  0.7029 -1.7880  1.1629
 1637TIP3    H226471   5.023   2.834   1.196  0.7421  3.1653 -2.0633
 1638TIP3   OH226472   1.984   6.258   1.701  0.3437 -0.5787  0.6552
 1638TIP3    H126473   2.066   6.280   1.656 -0.7458 -0.0434 -1.1301
 1638TIP3    H226474   2.012   6.232   1.789  2.3926  0.0262  0.2355
 1639TIP3   OH226475   6.277   4.977   7.269 -0.2424 -0.3976  0.3396
 1639TIP3    H126476   6.324   4.908   7.316  0.0834 -0.1396  0.4030
 1639TIP3    H226477   6.288   5.055   7.324 -0.4363 -0.2495  0.1721
 1640TIP3   OH226478   4.017   5.964   0.875 -0.0018 -0.1737 -0.1172
 1640TIP3    H126479   4.055   6.028   0.814  0.9691  0.9541  1.6138
 1640TIP3    H226480   3.981   6.016   0.946  2.1667 -1.5323  2.1126
 1641TIP3   OH226481   4.023   1.835   1.049  0.5407  0.7626 -0.0638
 1641TIP3    H126482   4.080   1.866   1.120  2.8558  1.1032 -1.9534
 1641TIP3    H226483   4.003   1.744   1.073  1.7298  0.6920  0.7643
 1642TIP3   OH226484   5.737   2.352   2.509  0.3159 -0.0919  0.4648
 1642TIP3    H126485   5.745   2.384   2.419  0.8889 -1.3166  0.0665
 1642TIP3    H226486   5.659   2.396   2.542 -1.0840 -1.0905 -1.2902
 1643TIP3   OH226487   3.170   4.895   1.254  0.6865  0.2326  0.3752
 1643TIP3    H126488   3.207   4.984   1.254 -0.8481  0.9122  0.4575
 1643TIP3    H226489   3.075   4.909   1.254  0.3297 -1.3864  3.3927
 1644TIP3   OH226490   3.472   5.111   8.671 -0.4300  0.3224  0.7402
 1644TIP3    H126491   3.541   5.094   8.734 -0.0462  0.0923  0.2629
 1644TIP3    H226492   3.478   5.039   8.608 -0.9709  0.4075  0.5830
 1645TIP3   OH226493   0.151   4.576   1.092  0.3850 -0.6656  0.3478
 1645TIP3    H126494   0.155   4.621   1.007 -0.0956  1.2060  1.2564
 1645TIP3    H226495   0.243   4.561   1.115  0.5072 -1.8485 -0.7955
 1646TIP3   OH226496   1.584   5.936   6.743 -0.0143  0.4180 -0.1650
 1646TIP3    H126497   1.649   5.885   6.695  0.3172 -0.5535  1.2629
 1646TIP3    H226498   1.509   5.942   6.684  0.5438 -0.3630 -0.9704
 1647TIP3   OH226499   2.276   4.444   2.908 -0.1784 -0.3095 -0.0234
 1647TIP3    H126500   2.235   4.522   2.945  1.0972  0.5687 -0.4182
 1647TIP3    H226501   2.359   4.475   2.872  0.4863 -1.8981  0.0656
 1648TIP3   OH226502   5.275   6.502   0.062  0.0899  0.8719  0.0494
 1648TIP3    H126503   5.291   6.463   0.148  1.1117  0.5048 -0.2883
 1648TIP3    H226504   5.254   6.427   0.006 -1.0263  1.1610  0.0728
 1649TIP3   OH226505   3.630   5.975   0.823  0.5117  0.3538  0.2783
 1649TIP3    H126506   3.610   5.897   0.771  0.7948  0.7759 -0.4847
 1649TIP3    H226507   3.544   6.015   0.840  0.3190 -0.3666  1.0931
 1650TIP3   OH226508   1.105   0.119   7.326  0.0282 -0.0662  0.0777
 1650TIP3    H126509   1.033   0.104   7.265  0.1858 -1.1910  0.1371
 1650TIP3    H226510   1.136   0.207   7.306 -0.3133 -0.1922 -1.0663
 1651TIP3   OH226511   5.456   3.653   6.671 -0.3361 -0.0615  0.0148
 1651TIP3    H126512   5.412   3.632   6.754  0.0736  3.0193  1.1672
 1651TIP3    H226513   5.530   3.593   6.666 -0.6158 -0.5924  1.6983
 1652TIP3   OH226514   3.701   0.618   1.234 -0.0281 -0.3312 -0.7198
 1652TIP3    H126515   3.727   0.681   1.167 -0.1852 -0.7395 -1.1684
 1652TIP3    H226516   3.621   0.656   1.272 -1.7474 -1.5382 -2.8724
 1653TIP3   OH226517   2.542   3.953   0.262  0.1560  0.0033 -0.0366
 1653TIP3    H126518   2.567   3.923   0.175 -0.2062 -1.1520  0.2445
 1653TIP3    H226519   2.556   4.048   0.260 -0.4735  0.0806 -1.5483
 1654TIP3   OH226520   4.789   4.036   0.400  0.0854  0.6059 -0.3484
 1654TIP3    H126521   4.827   3.978   0.333  1.8093  1.5142 -0.2184
 1654TIP3    H226522   4.865   4.074   0.444 -1.0134  0.4949  1.7551
 1655TIP3   OH226523   5.786   0.645   0.548 -0.0306 -0.2401 -0.0253
 1655TIP3    H126524   5.794   0.567   0.493 -0.6010 -0.3940  0.1083
 1655TIP3    H226525   5.876   0.677   0.557  0.1659 -0.6903 -0.3545
 1656TIP3   OH226526   0.194   6.366   0.944  0.1431  0.9587 -0.0256
 1656TIP3    H126527   0.216   6.459   0.953  0.5450  0.9515 -0.8609
 1656TIP3    H226528   0.098   6.365   0.941  0.0956  1.2422  0.9720
 1657TIP3   OH226529   0.925   2.713   0.470  0.5984  0.4082  0.1304
 1657TIP3    H126530   0.892   2.637   0.420 -0.8643  1.7155 -1.0009
 1657TIP3    H226531   0.848   2.745   0.517  0.3699  2.9104 -1.7301
 1658TIP3   OH226532   6.314   6.629   6.692 -0.9340 -0.0325 -0.2918
 1658TIP3    H126533   6.387   6.583   6.733 -1.0155  0.4063  0.3609
 1658TIP3    H226534   6.336   6.630   6.598  0.1857  0.5879 -0.0514
 1659TIP3   OH226535   2.955   6.352   7.861  0.3975 -0.9225 -0.3476
 1659TIP3    H126536   2.917   6.341   7.774 -1.6941  0.3521  0.3372
 1659TIP3    H226537   2.882   6.336   7.922  1.4103 -0.2724  1.1119
 1660TIP3   OH226538   4.989   1.144   0.517  0.1294 -0.5294  0.3297
 1660TIP3    H126539   5.067   1.127   0.464  0.0372 -2.2608  0.6979
 1660TIP3    H226540   4.964   1.058   0.550 -1.3531  0.1566  1.0445
 1661TIP3   OH226541   1.549   0.595   6.251 -0.2603 -0.7140  0.0179
 1661TIP3    H126542   1.512   0.592   6.339  0.5695 -0.8526  0.3616
 1661TIP3    H226543   1.490   0.541   6.199 -2.0598  1.1545 -0.0171
 1662TIP3   OH226544   1.132   0.676   1.504 -0.2577 -0.3070 -0.3109
 1662TIP3    H126545   1.135   0.617   1.580 -0.5096  1.8749  1.4719
 1662TIP3    H226546   1.220   0.668   1.465  0.5535 -0.0397  1.3709
 1663TIP3   OH226547   1.605   6.583   2.047  0.2990  0.3379  0.0592
 1663TIP3    H126548   1.684   6.609   2.093 -0.3750  4.2629 -0.6967
 1663TIP3    H226549   1.608   6.487   2.047  3.2441  0.2546  3.0119
 1664TIP3   OH226550   2.843   2.587   1.009  0.5416 -0.0239  0.3234
 1664TIP3    H126551   2.843   2.507   0.957 -0.8920  0.0349  0.2128
 1664TIP3    H226552   2.926   2.630   0.987  0.7371 -0.8480 -0.5877
 1665TIP3   OH226553   5.402   1.119   1.590  0.3389 -0.4403 -0.1366
 1665TIP3    H126554   5.318   1.072   1.588 -1.0384  1.8532 -1.9607
 1665TIP3    H226555   5.456   1.073   1.526 -0.8225  0.1183 -1.5754
 1666TIP3   OH226556   4.895   1.994   0.618  0.3929  0.4548  0.9603
 1666TIP3    H126557   4.971   1.944   0.646 -1.1642 -1.6559  1.6417
 1666TIP3    H226558   4.844   2.007   0.698 -0.1338  1.5920  0.4649
 1667TIP3   OH226559   4.977   3.178   1.274 -0.0381 -0.0086  0.2120
 1667TIP3    H126560   5.053   3.119   1.275 -1.1818 -1.6906 -2.0188
 1667TIP3    H226561   4.908   3.128   1.318 -0.0222  1.3572  1.8874
 1668TIP3   OH226562   1.775   2.688   0.264 -0.4381  1.0956 -0.2476
 1668TIP3    H126563   1.727   2.766   0.237 -1.7798  0.5570  0.5304
 1668TIP3    H226564   1.716   2.616   0.247  0.3300  0.3481  0.1644
 1669TIP3   OH226565   3.836   6.003   7.463  0.1075 -0.4407 -0.0522
 1669TIP3    H126566   3.754   6.042   7.494 -0.3443 -1.7498  0.4678
 1669TIP3    H226567   3.838   5.916   7.503  0.9196 -1.0900 -1.4155
 1670TIP3   OH226568   5.984   2.520   0.572  0.2201  0.0188  0.3370
 1670TIP3    H126569   6.038   2.450   0.537  0.1890 -0.3552  1.0335
 1670TIP3    H226570   6.019   2.600   0.532  0.6268 -0.3251  0.0034
 1671TIP3   OH226571   0.594   5.068   2.379 -0.5167  0.1596 -0.5973
 1671TIP3    H126572   0.534   5.003   2.416  1.7229 -2.2273 -0.9524
 1671TIP3    H226573   0.589   5.055   2.285  1.8976 -1.4220 -0.5684
 1672TIP3   OH226574   3.308   6.630   1.652  0.4212 -0.4504  0.3647
 1672TIP3    H126575   3.301   6.719   1.616 -2.6503  0.4335  2.7220
 1672TIP3    H226576   3.298   6.573   1.577  1.0362  1.1924 -1.0364
 1673TIP3   OH226577   1.910   6.392   7.052 -0.2405  0.2875 -0.0972
 1673TIP3    H126578   1.840   6.455   7.036 -1.0218 -0.2769  0.9849
 1673TIP3    H226579   1.984   6.446   7.081 -0.3990  0.8339 -0.6907
 1674TIP3   OH226580   3.125   0.096   8.270 -0.3686 -0.1443  0.2318
 1674TIP3    H126581   3.177   0.035   8.218  1.1094  1.7660 -0.6812
 1674TIP3    H226582   3.175   0.178   8.267 -1.6948  0.8200  2.3273
 1675TIP3   OH226583   6.170   5.463   0.623  0.3007  0.2096 -0.7005
 1675TIP3    H126584   6.075   5.464   0.632  0.5544  0.8454  3.9280
 1675TIP3    H226585   6.200   5.398   0.686  2.9913  0.6570 -1.3937
 1676TIP3   OH226586   4.037   2.775   2.503  0.1242  0.6413 -0.1874
 1676TIP3    H126587   4.077   2.815   2.581 -0.3391  1.2374 -0.2533
 1676TIP3    H226588   4.003   2.691   2.534  0.3040  0.6942  0.1589
 1677TIP3   OH226589   1.847   5.124   0.682  0.4769 -0.8036 -0.4345
 1677TIP3    H126590   1.910   5.190   0.653  0.3640 -0.3179  0.3910
 1677TIP3    H226591   1.765   5.146   0.637  0.5979 -0.7532 -0.6297
 1678TIP3   OH226592   5.401   3.705   8.131 -0.1468 -0.4444 -0.1043
 1678TIP3    H126593   5.377   3.708   8.039  1.0698 -1.7875 -0.4937
 1678TIP3    H226594   5.401   3.612   8.153  1.2383 -0.2532  0.7814
 1679TIP3   OH226595   2.507   4.319   1.431 -0.8196 -0.1291  0.0623
 1679TIP3    H126596   2.524   4.284   1.519  2.6710 -0.6509 -0.6781
 1679TIP3    H226597   2.482   4.243   1.379  2.4989 -0.9753 -0.5320
 1680TIP3   OH226598   0.661   0.818   7.281 -0.1255 -0.3017  0.0802
 1680TIP3    H126599   0.570   0.792   7.269 -0.0927 -1.4757  2.0365
 1680TIP3    H226600   0.706   0.782   7.204 -1.3074  0.5160 -1.0404
 1681TIP3   OH226601   6.569   6.812   1.955  0.3049  0.5444  0.0936
 1681TIP3    H126602   6.584   6.849   2.042 -0.8930  0.7105  0.2467
 1681TIP3    H226603   6.618   6.870   1.896  1.2484  0.3448  0.6554
 1682TIP3   OH226604   3.655   3.383   7.341 -0.0593 -0.3506 -0.3924
 1682TIP3    H126605   3.571   3.376   7.296 -0.6975  0.9157  0.5264
 1682TIP3    H226606   3.659   3.474   7.370  1.2407 -0.6186  0.3551
 1683TIP3   OH226607   3.516   2.004   7.826  0.1672  0.6843 -0.3586
 1683TIP3    H126608   3.530   2.042   7.739 -1.6405 -0.9816 -1.4505
 1683TIP3    H226609   3.536   2.075   7.887 -2.1314  3.1302 -2.2388
 1684TIP3   OH226610   2.721   5.998   2.134  0.2231 -0.5563 -0.4837
 1684TIP3    H126611   2.759   6.039   2.212  0.1319  0.0059 -0.7295
 1684TIP3    H226612   2.790   6.001   2.069  0.1053 -0.4924 -0.6067
 1685TIP3   OH226613   1.987   1.265   1.732  0.0131 -0.5151  0.5911
 1685TIP3    H126614   1.989   1.351   1.773 -0.4293 -0.4930  0.5677
 1685TIP3    H226615   1.944   1.208   1.796 -1.7142 -0.2363 -0.2740
 1686TIP3   OH226616   4.959   6.442   1.071 -0.2372 -0.4919 -0.3452
 1686TIP3    H126617   5.048   6.416   1.046  0.9418  1.1019  1.8820
 1686TIP3    H226618   4.918   6.361   1.101  0.1854 -1.3754 -2.0035
 1687TIP3   OH226619   3.109   4.324   7.417 -0.0717  0.0204  0.1626
 1687TIP3    H126620   3.162   4.372   7.354 -1.4676  0.8933 -0.4018
 1687TIP3    H226621   3.049   4.389   7.453  0.4914 -0.5113  2.2212
 1688TIP3   OH226622   4.453   3.758   7.564  0.2620  0.4504  0.1345
 1688TIP3    H126623   4.486   3.669   7.552  2.6021  1.4989 -2.3581
 1688TIP3    H226624   4.382   3.766   7.500  1.9346  1.1123 -1.7600
 1689TIP3   OH226625   4.559   1.998   1.328 -0.1099 -0.5802 -0.0649
 1689TIP3    H126626   4.475   1.995   1.282  0.1041 -1.3919 -0.4092
 1689TIP3    H226627   4.565   1.915   1.374  0.7648 -0.7806 -0.5151
 1690TIP3   OH226628   6.134   4.799   6.611  0.1808  0.2979 -0.0198
 1690TIP3    H126629   6.100   4.867   6.669 -1.5385 -1.1726  0.7760
 1690TIP3    H226630   6.143   4.843   6.526 -0.7786  1.5476  0.4873
 1691TIP3   OH226631   5.174   4.402   7.072 -0.1814 -0.1524 -0.4470
 1691TIP3    H126632   5.144   4.491   7.052 -0.0349  0.2623  1.0359
 1691TIP3    H226633   5.094   4.350   7.078 -0.5989  0.6088  1.8909
 1692TIP3   OH226634   2.431   1.008   0.792  0.5414 -0.0241 -0.1036
 1692TIP3    H126635   2.469   1.096   0.796 -1.0561  0.7809 -1.3783
 1692TIP3    H226636   2.448   0.979   0.702 -1.9961  0.5007 -0.8233
 1693TIP3   OH226637   1.446   3.988   1.885  0.3611  0.4240  0.0724
 1693TIP3    H126638   1.462   4.069   1.836  1.4093  0.3871  0.3276
 1693TIP3    H226639   1.443   4.015   1.976  1.0949  0.1315  0.1884
 1694TIP3   OH226640   4.479   6.268   0.202 -0.3652  0.4661  0.0318
 1694TIP3    H126641   4.468   6.188   0.150 -0.8325 -0.1893  1.0871
 1694TIP3    H226642   4.400   6.319   0.184 -0.1278  0.6351 -0.5453
 1695TIP3   OH226643   5.428   2.692   7.033  0.0863 -0.5441  0.7805
 1695TIP3    H126644   5.391   2.675   6.947  1.3135 -1.9670  0.4812
 1695TIP3    H226645   5.362   2.661   7.095 -0.7125  0.2960  0.3559
 1696TIP3   OH226646   1.102   1.233   8.396 -0.2421 -0.0107  0.1783
 1696TIP3    H126647   1.055   1.296   8.341 -0.3811  0.3127  0.6583
 1696TIP3    H226648   1.176   1.205   8.342 -1.8603 -1.8271 -1.2948
 1697TIP3   OH226649   1.968   0.299   2.397 -0.7808  0.3947  0.7469
 1697TIP3    H126650   1.941   0.381   2.354 -1.9648 -0.0743  0.5577
 1697TIP3    H226651   1.952   0.231   2.331 -0.8333 -0.1178  1.2773
 1698TIP3   OH226652   4.667   1.832   2.911 -0.0847  0.2303 -0.0377
 1698TIP3    H126653   4.662   1.744   2.949  0.6074 -0.1565 -0.8082
 1698TIP3    H226654   4.733   1.824   2.841 -0.4492  1.2162 -0.5077
 1699TIP3   OH226655   1.661   6.643   8.280  0.1391  0.3794  0.3527
 1699TIP3    H126656   1.669   6.715   8.216 -2.1105  0.6121  0.2595
 1699TIP3    H226657   1.744   6.596   8.273 -0.0662  0.2388 -2.9685
 1700TIP3   OH226658   4.068   0.762   7.695 -0.0556 -0.0761  0.2890
 1700TIP3    H126659   4.093   0.676   7.663 -0.4988 -0.1696  0.1901
 1700TIP3    H226660   3.995   0.789   7.639 -1.9955 -0.9707  2.2199
 1701TIP3   OH226661   1.497   3.855   2.354  0.0766 -0.1472  0.5739
 1701TIP3    H126662   1.438   3.803   2.408 -0.1686  0.4266  0.8640
 1701TIP3    H226663   1.582   3.812   2.364 -0.8226 -3.1521 -2.6095
 1702TIP3   OH226664   0.510   3.717   1.478 -0.3483 -0.1604  0.1495
 1702TIP3    H126665   0.525   3.786   1.542 -2.7008 -0.2096  0.8370
 1702TIP3    H226666   0.557   3.641   1.513 -0.3211  0.2440  1.0199
 1703TIP3   OH226667   1.777   6.613   2.289  0.1531  0.3245 -0.1729
 1703TIP3    H126668   1.725   6.661   2.353 -0.2071  0.1820 -0.3576
 1703TIP3    H226669   1.781   6.524   2.324  1.0441  0.5446  0.3049
 1704TIP3   OH226670   6.308   5.706   0.498 -0.3102 -1.0622 -0.7290
 1704TIP3    H126671   6.353   5.726   0.580 -0.3290  1.6250 -1.2592
 1704TIP3    H226672   6.225   5.668   0.524 -0.0619 -0.8123  0.4811
 1705TIP3   OH226673   2.909   3.558   8.240 -0.4477 -0.2846 -0.1122
 1705TIP3    H126674   2.879   3.615   8.170  2.9074 -0.2624 -1.6985
 1705TIP3    H226675   2.957   3.488   8.196  2.0550 -0.1389  2.0835
 1706TIP3   OH226676   0.478   3.802   0.469 -0.6381  0.1208 -0.2161
 1706TIP3    H126677   0.509   3.727   0.417  1.2020 -0.3412  1.4499
 1706TIP3    H226678   0.553   3.828   0.522 -1.0510  3.5116 -1.0578
 1707TIP3   OH226679   1.404   6.352   6.532 -0.1967  0.1047 -0.7772
 1707TIP3    H126680   1.331   6.343   6.471  0.7976  0.9217 -2.1290
 1707TIP3    H226681   1.362   6.381   6.613 -1.3189  1.2783 -1.7285
 1708TIP3   OH226682   0.288   1.438   2.161  0.7784  0.3586  0.0875
 1708TIP3    H126683   0.212   1.494   2.182  0.9082  0.5361  0.0852
 1708TIP3    H226684   0.259   1.350   2.182  1.7632  0.7310  3.5486
 1709TIP3   OH226685   1.631   2.055   7.373  0.4999 -0.2015 -0.0179
 1709TIP3    H126686   1.564   2.007   7.324 -0.4361  1.4362 -0.4381
 1709TIP3    H226687   1.692   2.085   7.305  0.1770  0.5431 -0.0007
 1710TIP3   OH226688   1.894   5.036   7.850  0.2695  0.0426  0.0373
 1710TIP3    H126689   1.863   5.120   7.881 -0.2047  1.2717 -3.2841
 1710TIP3    H226690   1.990   5.042   7.854  0.2711  1.2731 -1.2798
 1711TIP3   OH226691   5.257   3.112   2.134 -0.2730 -0.1187  0.7642
 1711TIP3    H126692   5.329   3.098   2.197  0.4212  1.0711  0.2695
 1711TIP3    H226693   5.246   3.207   2.131  0.0268 -0.1028 -1.2458
 1712TIP3   OH226694   6.149   2.172   7.118 -0.2487 -0.1404  0.2804
 1712TIP3    H126695   6.187   2.214   7.040 -0.2017  1.0588  0.9196
 1712TIP3    H226696   6.177   2.081   7.113  1.8458  0.4646  0.1921
 1713TIP3   OH226697   5.978   6.384   1.984 -0.3007 -0.4550  0.4082
 1713TIP3    H126698   5.989   6.428   2.068 -1.0055  3.1811 -1.2014
 1713TIP3    H226699   6.064   6.349   1.963  0.2347 -0.1493  1.9560
 1714TIP3   OH226700   0.541   0.596   6.820  0.1350  0.2350 -0.1504
 1714TIP3    H126701   0.570   0.506   6.835 -2.4337 -0.6572 -0.1388
 1714TIP3    H226702   0.620   0.642   6.790  1.5804 -1.9121  0.1781
 1715TIP3   OH226703   6.461   4.863   0.058 -0.4601 -0.0371 -0.0029
 1715TIP3    H126704   6.477   4.769   0.070  0.4097  0.2076  0.8647
 1715TIP3    H226705   6.513   4.905   0.126 -1.2010  1.0644 -0.0914
 1716TIP3   OH226706   5.570   6.269   7.503 -0.0606 -0.5540 -0.2035
 1716TIP3    H126707   5.507   6.336   7.527  1.1735  0.1866  1.0622
 1716TIP3    H226708   5.578   6.214   7.581  0.8790 -0.6062 -0.3230
 1717TIP3   OH226709   4.872   2.816   2.325  0.0739 -0.5157 -0.4247
 1717TIP3    H126710   4.935   2.750   2.353  0.1932  0.0857  0.8138
 1717TIP3    H226711   4.915   2.861   2.253  0.0972 -1.5962 -1.1122
 1718TIP3   OH226712   0.107   2.339   1.417  0.1469 -0.0948  0.0153
 1718TIP3    H126713   0.199   2.346   1.442  0.6175  1.2075 -1.8421
 1718TIP3    H226714   0.060   2.393   1.481  1.0536  1.5119 -0.6146
 1719TIP3   OH226715   1.633   2.826   1.436 -0.4040 -0.8132  0.1182
 1719TIP3    H126716   1.610   2.911   1.398 -0.0111 -0.7482  0.0148
 1719TIP3    H226717   1.724   2.812   1.409  0.5755  0.1587  2.6341
 1720TIP3   OH226718   3.382   1.210   1.721  0.7999  0.5534  0.5153
 1720TIP3    H126719   3.435   1.285   1.749 -0.1553  0.5784  2.4236
 1720TIP3    H226720   3.340   1.239   1.640 -0.0161  2.3271  1.5258
 1721TIP3   OH226721   1.174   4.896   1.340  0.1801 -0.0109 -0.3489
 1721TIP3    H126722   1.257   4.885   1.387 -0.6681  0.3276  1.2636
 1721TIP3    H226723   1.197   4.952   1.265  1.1221  1.4288  0.9529
 1722TIP3   OH226724   6.138   5.381   7.968  0.1321  0.2009  0.0605
 1722TIP3    H126725   6.126   5.413   7.879 -0.0389  0.5096  0.1928
 1722TIP3    H226726   6.209   5.435   8.003  0.5289 -0.2469 -0.0467
 1723TIP3   OH226727   4.440   0.203   1.815 -0.3583 -0.2386  0.0144
 1723TIP3    H126728   4.380   0.129   1.813  0.2087 -0.7008 -1.4800
 1723TIP3    H226729   4.428   0.242   1.901 -0.7501 -1.9941  0.7872
 1724TIP3   OH226730   5.505   1.655   0.220  0.0325 -0.2325 -0.6395
 1724TIP3    H126731   5.564   1.621   0.153  0.8418  0.1799 -0.1499
 1724TIP3    H226732   5.417   1.641   0.184  0.4504 -0.0132 -1.7882
 1725TIP3   OH226733   2.613   3.038   1.029  0.0786 -0.4038  0.5798
 1725TIP3    H126734   2.666   3.083   0.962  0.3549 -1.5559  0.0093
 1725TIP3    H226735   2.612   3.100   1.103 -0.8927  1.2391 -0.7365
 1726TIP3   OH226736   0.651   3.582   0.421  0.0640  0.0037 -0.0571
 1726TIP3    H126737   0.620   3.494   0.400  1.8203 -0.8264  0.6034
 1726TIP3    H226738   0.724   3.596   0.361 -0.4461  1.1909 -0.4179
 1727TIP3   OH226739   1.231   6.702   2.051 -0.1457  0.3782  0.3672
 1727TIP3    H126740   1.256   6.794   2.057  1.6677  0.0853 -1.4262
 1727TIP3    H226741   1.135   6.703   2.051 -0.1595  2.2084  0.8580
 1728TIP3   OH226742   4.918   2.308   7.217  0.0599  0.4946 -0.2420
 1728TIP3    H126743   4.856   2.255   7.168  0.6711 -1.2827  0.8305
 1728TIP3    H226744   4.864   2.366   7.270 -0.6645 -0.0990 -0.3154
 1729TIP3   OH226745   2.871   5.315   0.166  0.2196  0.3641  0.4983
 1729TIP3    H126746   2.873   5.387   0.103 -0.5142 -1.8797 -2.3051
 1729TIP3    H226747   2.784   5.319   0.205 -0.2912  0.2296 -0.6165
 1730TIP3   OH226748   1.012   0.421   0.173  0.0054 -0.0517 -0.1304
 1730TIP3    H126749   0.967   0.353   0.124  1.7058 -0.2151 -1.5731
 1730TIP3    H226750   0.960   0.500   0.159  0.0673 -0.2572 -1.6640
 1731TIP3   OH226751   4.305   3.443   0.694  0.0619  0.0277  0.2524
 1731TIP3    H126752   4.332   3.534   0.683 -1.4073  0.5241  0.5009
 1731TIP3    H226753   4.282   3.415   0.605 -0.7550  0.3429  0.3530
 1732TIP3   OH226754   1.450   3.510   6.653  0.7797  0.1403 -0.2993
 1732TIP3    H126755   1.490   3.508   6.740 -1.5223 -1.2763  0.8245
 1732TIP3    H226756   1.449   3.603   6.630  0.1021  0.7484  1.8973
 1733TIP3   OH226757   0.650   2.191   7.303  0.1700  0.4181  0.4327
 1733TIP3    H126758   0.597   2.113   7.287  0.7153  0.1241  0.0382
 1733TIP3    H226759   0.589   2.254   7.339 -0.4049  0.0058  0.1960
 1734TIP3   OH226760   3.126   1.097   7.573  0.3213  0.4214 -0.7608
 1734TIP3    H126761   3.144   1.135   7.488 -0.0334 -0.0003 -1.0270
 1734TIP3    H226762   3.031   1.104   7.583  0.4306  1.1204 -0.0890
 1735TIP3   OH226763   1.208   2.314   1.144 -0.1813  0.6279 -0.0068
 1735TIP3    H126764   1.271   2.269   1.200  0.8167 -0.0627 -1.6077
 1735TIP3    H226765   1.243   2.303   1.055 -2.2235  0.7753 -0.8915
 1736TIP3   OH226766   5.270   1.473   1.200  1.0066  0.3270  0.0025
 1736TIP3    H126767   5.324   1.416   1.255  0.2069  1.0168  1.5776
 1736TIP3    H226768   5.190   1.486   1.252 -1.0771 -1.2748 -2.5533
 1737TIP3   OH226769   1.437   4.807   7.467 -0.3339  0.1787  0.1351
 1737TIP3    H126770   1.376   4.880   7.479 -2.9493 -1.8804  0.2986
 1737TIP3    H226771   1.446   4.800   7.372  1.0864  1.5416  0.1363
 1738TIP3   OH226772   1.132   2.681   1.995 -0.2120  0.3003 -0.0851
 1738TIP3    H126773   1.199   2.615   1.976 -2.2545 -1.7898 -0.6412
 1738TIP3    H226774   1.118   2.674   2.090  0.7089  1.1568  0.1295
 1739TIP3   OH226775   4.651   0.746   7.940  0.0266  0.1223 -0.2320
 1739TIP3    H126776   4.568   0.706   7.964  1.1290 -1.4058  1.2310
 1739TIP3    H226777   4.674   0.801   8.015  1.6748 -1.7222  0.7011
 1740TIP3   OH226778   6.169   4.833   7.574 -0.0572 -0.1575 -0.1339
 1740TIP3    H126779   6.079   4.860   7.592  0.1790 -0.0574  0.9446
 1740TIP3    H226780   6.220   4.914   7.581  0.0413 -0.0994 -1.3608
 1741TIP3   OH226781   3.186   0.901   8.514  0.2433  0.3371  0.4125
 1741TIP3    H126782   3.268   0.859   8.487 -0.8803 -2.9550  1.6364
 1741TIP3    H226783   3.125   0.882   8.443 -0.1921  0.2895  0.7967
 1742TIP3   OH226784   3.545   6.608   8.441 -0.3837  0.1519 -0.0345
 1742TIP3    H126785   3.502   6.584   8.359 -0.8968  0.8909  0.0044
 1742TIP3    H226786   3.633   6.571   8.435 -0.3429  0.3931 -1.0155
 1743TIP3   OH226787   6.170   4.878   0.203 -0.1330  0.1582  0.2135
 1743TIP3    H126788   6.241   4.916   0.255  0.0487 -0.5241  0.4770
 1743TIP3    H226789   6.203   4.878   0.114 -0.1952  0.7514  0.1849
 1744TIP3   OH226790   1.522   2.210   1.396 -0.4553  0.3376  0.2414
 1744TIP3    H126791   1.586   2.149   1.434  0.5774  0.4693 -1.2022
 1744TIP3    H226792   1.467   2.155   1.340  0.6877  0.6978 -1.3298
 1745TIP3   OH226793   3.776   2.088   8.462  0.1137  0.2352  0.0891
 1745TIP3    H126794   3.739   2.153   8.521 -0.8109  0.7500 -1.0208
 1745TIP3    H226795   3.817   2.024   8.519 -1.3641  0.3478  1.3286
 1746TIP3   OH226796   1.331   1.147   2.272 -0.2873 -0.3393 -0.1995
 1746TIP3    H126797   1.330   1.144   2.176 -0.1387  2.3150 -0.3429
 1746TIP3    H226798   1.305   1.236   2.293  0.7126 -0.5670  2.2308
 1747TIP3   OH226799   5.792   0.478   2.134 -0.1460 -0.1990  0.6916
 1747TIP3    H126800   5.699   0.486   2.155 -0.8033 -4.9258  0.6384
 1747TIP3    H226801   5.837   0.511   2.212 -1.8809  0.2850  1.5419
 1748TIP3   OH226802   0.721   4.531   7.633  0.8520  0.0881 -0.0073
 1748TIP3    H126803   0.665   4.472   7.683  0.6217  0.6305  0.3855
 1748TIP3    H226804   0.701   4.511   7.541  3.2331 -2.8474 -0.0445
 1749TIP3   OH226805   6.649   5.819   2.535 -0.3345  0.1913  0.7743
 1749TIP3    H126806   6.669   5.726   2.523 -0.3217  0.4726 -2.0312
 1749TIP3    H226807   6.717   5.864   2.486 -1.7985  1.5814 -0.0618
 1750TIP3   OH226808   1.121   5.918   0.737  0.6008  0.5882 -0.2121
 1750TIP3    H126809   1.058   5.984   0.765  0.0614  0.2181 -0.5438
 1750TIP3    H226810   1.163   5.889   0.819 -0.6002 -0.1188  0.1782
 1751TIP3   OH226811   0.882   3.674   1.027 -0.3550 -0.0796  0.0969
 1751TIP3    H126812   0.844   3.588   1.007 -1.8658  0.0146  2.2160
 1751TIP3    H226813   0.832   3.735   0.973 -0.9899 -0.2898  0.4435
 1752TIP3   OH226814   2.727   6.331   0.021  0.3111  0.5282 -0.0744
 1752TIP3    H126815   2.668   6.383  -0.034  0.4052  2.0191  1.1607
 1752TIP3    H226816   2.760   6.394   0.085  1.9163 -0.6692  0.3154
 1753TIP3   OH226817   6.054   0.453   6.952  0.3129  0.2844 -0.2530
 1753TIP3    H126818   6.073   0.498   6.869 -0.1249 -0.2552 -0.6610
 1753TIP3    H226819   6.038   0.362   6.926 -1.5757  0.4589  0.2035
 1754TIP3   OH226820   1.833   5.363   8.383  0.3992 -0.3193  0.1696
 1754TIP3    H126821   1.772   5.436   8.372 -0.9216 -1.5663 -1.3002
 1754TIP3    H226822   1.902   5.379   8.318 -0.1343 -0.6145 -0.4718
 1755TIP3   OH226823   3.032   0.800   7.577 -0.0265  0.2285  0.7727
 1755TIP3    H126824   3.114   0.849   7.585 -0.0688  0.2199  1.2978
 1755TIP3    H226825   3.058   0.715   7.540 -0.1117  1.0785 -1.3551
 1756TIP3   OH226826   0.420   0.824   8.494 -0.2282 -0.4256  0.8347
 1756TIP3    H126827   0.401   0.731   8.495  1.3522 -0.7626  1.2734
 1756TIP3    H226828   0.365   0.861   8.564 -0.7602 -1.0369  0.7419
 1757TIP3   OH226829   2.192   0.973   0.212 -0.0181  0.6985 -0.0645
 1757TIP3    H126830   2.172   0.940   0.300  0.3217  1.2895  0.2366
 1757TIP3    H226831   2.125   0.932   0.156  1.2927 -1.7380  0.0137
 1758TIP3   OH226832   1.243   5.021   1.104  0.2857 -0.2356 -0.0657
 1758TIP3    H126833   1.299   5.094   1.078  0.9310 -0.7776 -0.2384
 1758TIP3    H226834   1.203   4.990   1.023  0.7311 -0.6491 -0.1349
 1759TIP3   OH226835   4.450   0.828   0.718 -0.5377  0.5363  0.0177
 1759TIP3    H126836   4.480   0.918   0.728  0.4657  0.2136 -0.0036
 1759TIP3    H226837   4.402   0.828   0.636  0.7946  0.7171 -0.7857
 1760TIP3   OH226838   2.916   5.475   7.424  0.5465  0.0384  0.8559
 1760TIP3    H126839   3.004   5.450   7.394  0.0300 -0.0275 -0.6324
 1760TIP3    H226840   2.872   5.507   7.346 -0.9045 -0.3066  1.5129
 1761TIP3   OH226841   1.844   5.298   7.692  0.2122 -0.2060  0.0322
 1761TIP3    H126842   1.925   5.272   7.648  1.7538  1.5206  1.6818
 1761TIP3    H226843   1.872   5.331   7.778 -2.2077  0.7871  0.5345
 1762TIP3   OH226844   6.446   3.245   1.166 -0.4979 -0.5602 -0.1159
 1762TIP3    H126845   6.440   3.203   1.080 -1.7840 -0.1783 -0.2417
 1762TIP3    H226846   6.492   3.327   1.150  0.0889 -0.9092 -0.2613
 1763TIP3   OH226847   3.123   4.090   2.126 -0.4095 -0.4229 -0.0318
 1763TIP3    H126848   3.042   4.121   2.085 -0.5007  0.6910  0.9265
 1763TIP3    H226849   3.161   4.029   2.062 -1.4319 -0.1041 -0.9732
 1764TIP3   OH226850   1.633   6.239   8.409 -0.1934 -0.1713 -0.0081
 1764TIP3    H126851   1.700   6.298   8.374 -0.9529  1.2706  0.9235
 1764TIP3    H226852   1.613   6.273   8.496 -0.0192 -2.3344  0.9408
 1765TIP3   OH226853   4.265   3.036   1.023 -0.1997 -0.4575 -0.5823
 1765TIP3    H126854   4.259   2.960   0.966  0.7852 -0.2429 -0.9877
 1765TIP3    H226855   4.260   3.111   0.963 -0.4616 -0.2119 -0.2574
 1766TIP3   OH226856   6.467   6.272   8.713 -0.9570 -0.0288  0.0732
 1766TIP3    H126857   6.512   6.285   8.797 -2.2848  0.2527  0.7766
 1766TIP3    H226858   6.377   6.249   8.737 -2.2221  2.9656 -1.2002
 1767TIP3   OH226859   1.188   1.339   8.047 -0.2285 -0.4992  0.2407
 1767TIP3    H126860   1.249   1.393   7.997  1.3759 -2.3039  0.1560
 1767TIP3    H226861   1.242   1.270   8.085 -2.4479 -3.5777 -1.7433
 1768TIP3   OH226862   1.707   4.098   7.555 -0.1775 -0.1596  0.0907
 1768TIP3    H126863   1.769   4.171   7.556 -0.6887  0.2781  1.1923
 1768TIP3    H226864   1.740   4.040   7.485  0.8112  0.6109 -0.1136
 1769TIP3   OH226865   3.197   3.076   8.079  0.7011  0.1349 -0.3866
 1769TIP3    H126866   3.216   3.148   8.139 -0.2802  0.1978 -0.1443
 1769TIP3    H226867   3.150   3.012   8.132 -0.5031  0.3514 -1.1620
 1770TIP3   OH226868   6.138   1.315   7.773  0.2045  0.3726  0.6273
 1770TIP3    H126869   6.142   1.257   7.697  1.2543  0.7106  0.4048
 1770TIP3    H226870   6.088   1.267   7.838  3.1858 -1.9751  1.4114
 1771TIP3   OH226871   0.931   0.140   8.491  0.0290 -0.7279  0.7003
 1771TIP3    H126872   0.896   0.181   8.570 -0.2637  3.1852 -1.2218
 1771TIP3    H226873   0.859   0.087   8.457 -0.5617 -0.7493  1.9458
 1772TIP3   OH226874   0.538   6.746   1.035  0.3247 -0.1337 -0.0008
 1772TIP3    H126875   0.617   6.721   1.083  0.6181 -1.1325 -0.9604
 1772TIP3    H226876   0.566   6.818   0.979 -0.4901  2.4677  2.6694
 1773TIP3   OH226877   5.939   6.769   6.846 -0.3408 -0.1450 -0.4197
 1773TIP3    H126878   5.859   6.821   6.854  0.3806  0.8460  0.6760
 1773TIP3    H226879   5.929   6.700   6.913  0.5783  1.2143  1.2065
 1774TIP3   OH226880   2.685   5.505   0.674 -0.0330  0.5200 -0.3805
 1774TIP3    H126881   2.674   5.410   0.662 -0.2295  0.5299 -0.2723
 1774TIP3    H226882   2.778   5.515   0.695  0.3013  0.4865 -1.7356
 1775TIP3   OH226883   6.792   0.993   7.407 -0.2204  0.5916  0.0023
 1775TIP3    H126884   6.756   1.015   7.322  1.0703  0.1241 -0.6993
 1775TIP3    H226885   6.766   1.064   7.465 -1.5098  0.6730 -0.6659
 1776TIP3   OH226886   1.534   6.832   1.726  0.6464  1.2305 -0.5675
 1776TIP3    H126887   1.588   6.911   1.733  0.1947  1.4879  0.1394
 1776TIP3    H226888   1.596   6.760   1.731  1.0945  1.5274 -1.4896
 1777TIP3   OH226889   3.151   0.494   7.811 -0.4255  0.1564  0.2733
 1777TIP3    H126890   3.232   0.457   7.777 -0.6255 -0.1988  0.1814
 1777TIP3    H226891   3.178   0.576   7.852 -0.1884  0.6234 -0.7869
 1778TIP3   OH226892   1.589   4.602   2.499  0.4501 -0.0202 -0.7098
 1778TIP3    H126893   1.676   4.612   2.537 -0.5458 -0.2591  1.7976
 1778TIP3    H226894   1.530   4.600   2.574 -1.7096 -0.1611 -2.3242
 1779TIP3   OH226895   4.597   5.358   1.270 -0.3189  0.1496 -0.9500
 1779TIP3    H126896   4.670   5.414   1.297  0.3043 -0.5224 -1.2384
 1779TIP3    H226897   4.521   5.416   1.274  0.3339  1.0559 -1.3793
 1780TIP3   OH226898   4.675   0.066   1.830  0.1829 -0.2475  0.1124
 1780TIP3    H126899   4.584   0.097   1.827  0.2552 -0.0884 -0.6058
 1780TIP3    H226900   4.683   0.024   1.916 -0.8773 -1.1852 -0.2179
 1781TIP3   OH226901   4.995   1.436   7.260  0.2765 -0.5619 -0.1340
 1781TIP3    H126902   4.991   1.530   7.275 -2.6853 -0.6281  0.1750
 1781TIP3    H226903   5.049   1.426   7.182 -0.1897  1.4971 -0.7824
 1782TIP3   OH226904   0.615   1.334   7.162  0.5062  0.0037  0.7554
 1782TIP3    H126905   0.678   1.263   7.170  0.5184 -0.0114  0.5178
 1782TIP3    H226906   0.570   1.336   7.247  0.3496 -0.4324  0.6837
 1783TIP3   OH226907   0.626   6.726   0.424 -0.1151  0.4048 -0.7500
 1783TIP3    H126908   0.610   6.722   0.518 -0.7637 -0.1758 -0.8796
 1783TIP3    H226909   0.678   6.647   0.406  0.8334  1.0154 -0.7268
 1784TIP3   OH226910   3.467   2.136   2.321 -0.5211 -0.4881 -0.9276
 1784TIP3    H126911   3.393   2.155   2.263 -1.2854 -1.4325 -0.2951
 1784TIP3    H226912   3.433   2.155   2.409  0.9982  2.1318 -0.7975
 1785TIP3   OH226913   0.805   0.696   6.781  0.0040 -0.4116 -0.3417
 1785TIP3    H126914   0.900   0.689   6.797  0.0532  1.9532  0.7930
 1785TIP3    H226915   0.798   0.759   6.709 -0.7225  1.6560  1.4449
 1786TIP3   OH226916   1.085   0.258   2.292 -0.1589  0.0047 -0.2336
 1786TIP3    H126917   1.109   0.230   2.380  2.1943 -1.4636 -1.2598
 1786TIP3    H226918   0.993   0.235   2.283  0.2088 -2.1548  1.0064
 1787TIP3   OH226919   0.996   5.077   2.191 -0.0231  1.0241 -0.6653
 1787TIP3    H126920   0.931   5.127   2.240 -1.8962 -2.4570  0.6802
 1787TIP3    H226921   1.046   5.030   2.258 -1.3033 -2.2708 -1.8289
 1788TIP3   OH226922   0.154   4.917   0.624  0.2868 -0.4843 -1.0630
 1788TIP3    H126923   0.143   4.824   0.606  0.3636 -1.0802  1.6357
 1788TIP3    H226924   0.235   4.923   0.675  0.0458  0.9988 -0.7949
 1789TIP3   OH226925   0.360   5.617   0.003 -0.7757  0.4486 -0.0749
 1789TIP3    H126926   0.354   5.708   0.031 -0.5201  0.7356 -0.9396
 1789TIP3    H226927   0.287   5.574   0.047 -0.7748  1.0255  0.5039
 1790TIP3   OH226928   5.548   2.540   0.003 -0.0975 -0.0693 -0.0829
 1790TIP3    H126929   5.572   2.572   0.089  1.8613 -0.1284 -0.5659
 1790TIP3    H226930   5.631   2.534  -0.045 -0.7162 -2.8535 -1.0138
 1791TIP3   OH226931   2.366   3.407   0.966 -1.0618 -0.2082 -0.0186
 1791TIP3    H126932   2.368   3.463   0.889 -1.6723  1.4288  1.1016
 1791TIP3    H226933   2.297   3.444   1.021 -0.3594 -1.0765  1.5110
 1792TIP3   OH226934   4.376   6.142   7.606 -0.3286  0.0860  0.0555
 1792TIP3    H126935   4.326   6.224   7.611  0.0854  0.2958  1.0093
 1792TIP3    H226936   4.423   6.147   7.523  0.5919  1.3605  0.6122
 1793TIP3   OH226937   3.848   0.530   7.839  0.4592  0.3892  0.4784
 1793TIP3    H126938   3.870   0.612   7.793  0.0652  0.0428 -0.3572
 1793TIP3    H226939   3.817   0.472   7.770  2.3816 -1.0939  0.7693
 1794TIP3   OH226940   4.435   6.227   2.136  0.0970 -0.3183 -0.1485
 1794TIP3    H126941   4.341   6.220   2.153 -0.1185 -0.1116 -1.1462
 1794TIP3    H226942   4.452   6.321   2.132  0.5683 -0.3412  1.1111
 1795TIP3   OH226943   0.644   5.683   2.611  0.3545 -0.4381  0.0724
 1795TIP3    H126944   0.583   5.630   2.561 -0.4944  1.2161 -0.7236
 1795TIP3    H226945   0.601   5.698   2.695 -1.6488  2.8024 -1.3404
 1796TIP3   OH226946   4.805   1.830   0.287 -0.2038 -0.1601  0.1576
 1796TIP3    H126947   4.855   1.859   0.210 -0.0047 -1.2684 -0.1492
 1796TIP3    H226948   4.812   1.903   0.349  0.4154  0.3731 -0.5169
 1797TIP3   OH226949   3.239   0.631   2.412  0.2314 -0.3275  0.0956
 1797TIP3    H126950   3.230   0.659   2.503  0.0278  0.4719 -0.1599
 1797TIP3    H226951   3.333   0.619   2.399  0.2259 -0.8923  0.5343
 1798TIP3   OH226952   4.775   5.127   8.496 -0.1444  0.1901  0.1977
 1798TIP3    H126953   4.736   5.172   8.571  1.4105 -0.3754  1.4053
 1798TIP3    H226954   4.749   5.179   8.420  0.7843  2.5900  1.4237
 1799TIP3   OH226955   2.709   5.771   8.541  0.1846  0.2097  0.3077
 1799TIP3    H126956   2.800   5.744   8.528  0.5953  1.9024 -0.5743
 1799TIP3    H226957   2.713   5.866   8.545 -1.8222  0.4843 -2.0781
 1800TIP3   OH226958   4.485   6.064   0.037 -0.3721  0.3912 -0.1641
 1800TIP3    H126959   4.539   5.986   0.047  1.0735  1.3099 -0.4570
 1800TIP3    H226960   4.500   6.094  -0.052  0.8483  2.1909  0.5747
 1801TIP3   OH226961   3.651   5.206   2.105 -0.0678 -0.1779  0.2364
 1801TIP3    H126962   3.608   5.261   2.170 -0.8347 -1.4864  0.8972
 1801TIP3    H226963   3.580   5.173   2.051  0.3995 -0.3006 -0.3106
 1802TIP3   OH226964   3.074   6.367   2.281 -0.2788  0.2351 -0.6172
 1802TIP3    H126965   3.102   6.396   2.194  0.1007 -0.1603 -0.6326
 1802TIP3    H226966   3.148   6.388   2.338 -0.4551  0.3323 -0.4236
 1803TIP3   OH226967   0.586   3.571   1.888  0.9591  0.0564 -0.5112
 1803TIP3    H126968   0.604   3.540   1.799 -2.0387 -0.4695 -1.0471
 1803TIP3    H226969   0.501   3.533   1.910  1.0767  1.1004  2.1742
 1804TIP3   OH226970   0.920   6.727   1.379  0.3196  0.6800  0.0120
 1804TIP3    H126971   0.958   6.802   1.334  0.4998  0.4497 -0.2195
 1804TIP3    H226972   0.994   6.669   1.397 -0.0464 -0.3273 -1.5036
 1805TIP3   OH226973   1.650   4.008   8.250  0.6841  0.3994 -0.6540
 1805TIP3    H126974   1.666   4.066   8.176  1.8893  1.8309  0.6508
 1805TIP3    H226975   1.734   3.963   8.264  0.6460  0.5728  0.1832
 1806TIP3   OH226976   6.801   2.274   1.853 -0.2540 -0.5629  0.0288
 1806TIP3    H126977   6.814   2.305   1.942 -1.0429 -2.6035  0.9053
 1806TIP3    H226978   6.726   2.324   1.820  0.4771  0.6951  0.2260
 1807TIP3   OH226979   1.293   0.158   7.772  0.0248 -0.1457  0.1601
 1807TIP3    H126980   1.204   0.163   7.735  0.8294 -1.7507 -2.2330
 1807TIP3    H226981   1.350   0.152   7.696  2.0871 -0.7615  1.6676
 1808TIP3   OH226982   6.616   1.706   8.009 -0.0512  0.2469 -0.4093
 1808TIP3    H126983   6.650   1.767   7.943  0.3750  0.7710  0.2893
 1808TIP3    H226984   6.568   1.761   8.070 -0.7390 -0.2835 -0.4592
 1809TIP3   OH226985   6.141   2.068   1.353 -0.1994  0.3910 -0.2916
 1809TIP3    H126986   6.111   2.124   1.282  0.2428  1.1766  0.1295
 1809TIP3    H226987   6.079   1.995   1.354 -0.5645  0.6821 -1.0827
 1810TIP3   OH226988   3.550   4.748   1.888 -0.7794 -0.3268  0.5077
 1810TIP3    H126989   3.569   4.714   1.975  1.3254  0.7470  0.5527
 1810TIP3    H226990   3.637   4.761   1.848 -1.6914 -1.4436 -2.0270
 1811TIP3   OH226991   3.866   3.116   7.629  0.0591 -0.1931  0.3571
 1811TIP3    H126992   3.923   3.052   7.671  1.3512 -0.3714 -1.5183
 1811TIP3    H226993   3.787   3.118   7.682  0.1757 -2.9841  0.7406
 1812TIP3   OH226994   5.431   5.766   8.183  0.6168  0.1530 -0.1467
 1812TIP3    H126995   5.397   5.679   8.203 -0.8658  1.0522  1.5149
 1812TIP3    H226996   5.526   5.757   8.188  0.4554 -1.1253  1.1169
 1813TIP3   OH226997   0.476   6.219   0.342  0.0885 -0.7899  0.0343
 1813TIP3    H126998   0.419   6.162   0.393 -0.4212 -2.3784 -2.1408
 1813TIP3    H226999   0.429   6.301   0.335 -0.9522 -1.3665  0.0866
 1814TIP3   OH227000   5.801   1.944   0.517 -0.5620  0.4016 -0.1279
 1814TIP3    H127001   5.715   1.953   0.477 -0.5517 -2.2973 -0.9103
 1814TIP3    H227002   5.783   1.925   0.609 -0.8783 -1.4591 -0.5528
 1815TIP3   OH227003   2.765   4.605   7.692  0.3854  0.6920 -0.1734
 1815TIP3    H127004   2.762   4.655   7.610  0.3151  0.2483 -0.4473
 1815TIP3    H227005   2.691   4.544   7.685  0.2713  0.7738  0.3015
 1816TIP3   OH227006   3.799   0.967   1.325 -0.1042 -0.2518 -0.5561
 1816TIP3    H127007   3.858   1.009   1.261  0.7846 -1.1741 -0.3648
 1816TIP3    H227008   3.852   0.956   1.403 -0.8689 -0.1221 -0.0061
 1817TIP3   OH227009   5.048   1.760   7.756 -0.3970 -0.0242  0.2546
 1817TIP3    H127010   4.992   1.817   7.703 -1.3961 -3.3842 -2.7685
 1817TIP3    H227011   4.987   1.715   7.815 -0.5321 -1.4987 -0.9365
 1818TIP3   OH227012   2.852   5.832   0.517  0.1270 -0.0677  0.6062
 1818TIP3    H127013   2.763   5.867   0.517  0.1753  0.0568  0.7117
 1818TIP3    H227014   2.865   5.797   0.429 -0.6506 -1.6837  1.1053
 1819TIP3   OH227015   4.295   4.529   1.526  0.1657  0.1371  0.3061
 1819TIP3    H127016   4.306   4.624   1.526  1.1633  0.0268 -0.1417
 1819TIP3    H227017   4.204   4.516   1.498 -0.1910  0.9652  1.0219
 1820TIP3   OH227018   6.672   6.038   0.967  0.3208  0.2548  0.2785
 1820TIP3    H127019   6.702   5.984   1.039  1.3456 -0.1528 -0.4369
 1820TIP3    H227020   6.656   6.124   1.006 -0.4969 -0.3228  1.2516
 1821TIP3   OH227021   6.322   0.932   8.732 -1.1633 -0.4402 -0.0623
 1821TIP3    H127022   6.301   0.915   8.824  0.7225  0.3277  0.5458
 1821TIP3    H227023   6.236   0.935   8.688 -2.0744 -1.1615  1.5922
 1822TIP3   OH227024   4.896   6.167   1.251  0.3950 -0.0805  0.3488
 1822TIP3    H127025   4.946   6.208   1.322  1.5634 -1.4310  0.3486
 1822TIP3    H227026   4.837   6.106   1.295 -0.3762  0.5807  0.2630
 1823TIP3   OH227027   3.760   0.117   1.863  0.5189  0.5285 -0.0854
 1823TIP3    H127028   3.834   0.057   1.848  1.2147  1.6453 -1.3882
 1823TIP3    H227029   3.700   0.099   1.790  0.0251  0.4084  0.3454
 1824TIP3   OH227030   5.420   2.398   1.434 -0.5492  0.2861  0.2644
 1824TIP3    H127031   5.497   2.447   1.461  0.0865 -0.8382  0.5404
 1824TIP3    H227032   5.357   2.413   1.505 -0.9557  1.9409 -0.3866
 1825TIP3   OH227033   1.215   5.098   8.377  0.2777  0.6723 -0.8121
 1825TIP3    H127034   1.123   5.107   8.401  0.1816 -1.5955 -0.1930
 1825TIP3    H227035   1.263   5.138   8.450 -0.1664 -0.2000 -0.0308
 1826TIP3   OH227036   3.280   2.992   2.270 -0.0274  0.4722  0.5002
 1826TIP3    H127037   3.270   3.076   2.225 -0.7395  1.2027  1.9389
 1826TIP3    H227038   3.218   2.997   2.343  0.0940 -1.2175  0.7523
 1827TIP3   OH227039   6.552   6.805   8.658 -0.6019 -0.8559  0.1589
 1827TIP3    H127040   6.565   6.805   8.563  2.6410  0.8529  0.4473
 1827TIP3    H227041   6.575   6.716   8.685 -0.2422 -0.9965 -0.5790
 1828TIP3   OH227042   0.150   2.850   1.630 -0.3060 -0.1464 -0.1867
 1828TIP3    H127043   0.244   2.835   1.635  0.0300  1.2809 -1.5287
 1828TIP3    H227044   0.126   2.825   1.541 -1.0001  0.5381 -0.2008
 1829TIP3   OH227045   0.623   5.025   7.231  0.1852 -0.0198  0.0451
 1829TIP3    H127046   0.655   5.115   7.236  1.3228 -0.2760 -1.9334
 1829TIP3    H227047   0.691   4.978   7.184 -0.2323 -2.0307  1.3426
 1830TIP3   OH227048   4.252   6.384   7.653 -0.1252  0.3980  0.3363
 1830TIP3    H127049   4.159   6.371   7.631 -0.3564  0.0126  1.5102
 1830TIP3    H227050   4.251   6.452   7.720  0.4565  0.5091  0.2308
 1831TIP3   OH227051   5.527   3.540   0.022  0.0180  0.5751 -0.2928
 1831TIP3    H127052   5.605   3.589  -0.004  0.3774  0.8812  1.2642
 1831TIP3    H227053   5.484   3.519  -0.061  1.9777 -0.0089 -1.2381
 1832TIP3   OH227054   5.339   3.525   2.333 -0.3893  0.9104 -0.7467
 1832TIP3    H127055   5.374   3.507   2.420 -0.2982  2.8981 -0.3124
 1832TIP3    H227056   5.290   3.607   2.344 -2.4654 -0.0872 -2.0497
 1833TIP3   OH227057   0.974   1.033   1.326 -0.1402 -0.3705 -0.2885
 1833TIP3    H127058   0.884   1.002   1.317 -1.3682  2.3750  1.3709
 1833TIP3    H227059   0.980   1.110   1.270  0.1309  1.3195  1.9339
 1834TIP3   OH227060   3.813   6.387   6.562  0.1642 -0.8325 -0.4396
 1834TIP3    H127061   3.892   6.334   6.548  0.5960 -0.1535 -0.6224
 1834TIP3    H227062   3.806   6.394   6.657  0.4840 -0.6647 -0.4273
 1835TIP3   OH227063   6.720   5.567   2.457 -0.1981 -0.8554 -0.1880
 1835TIP3    H127064   6.714   5.472   2.464 -0.2128 -0.7542  1.6213
 1835TIP3    H227065   6.812   5.587   2.470 -0.6297 -0.4541  3.2469
 1836TIP3   OH227066   6.466   5.333   7.907 -0.0810  0.6632 -0.4943
 1836TIP3    H127067   6.487   5.240   7.906 -1.6150  0.2488  0.7192
 1836TIP3    H227068   6.551   5.377   7.903  0.6313 -0.7512 -1.8637
 1837TIP3   OH227069   1.475   4.539   7.268  0.3310  0.2761 -0.0668
 1837TIP3    H127070   1.547   4.595   7.296  0.2470  0.5833 -0.4474
 1837TIP3    H227071   1.514   4.453   7.258  0.4330  0.2293  0.6594
 1838TIP3   OH227072   2.121   0.873   7.342  0.2168  0.3194 -0.2798
 1838TIP3    H127073   2.063   0.840   7.412 -0.1104 -0.1107 -0.7470
 1838TIP3    H227074   2.124   0.968   7.357 -0.4624  0.3276 -0.1274
 1839TIP3   OH227075   0.341   1.051   8.290 -0.5842 -0.5512  0.3667
 1839TIP3    H127076   0.291   0.970   8.300 -0.6477 -0.5618 -0.0346
 1839TIP3    H227077   0.432   1.021   8.282 -0.3296 -0.4703  2.4145
 1840TIP3   OH227078   4.607   3.537   7.957  0.2196  0.2292  0.5442
 1840TIP3    H127079   4.646   3.469   7.902 -0.6633  0.8983 -0.9754
 1840TIP3    H227080   4.538   3.492   8.006  0.6141 -0.2517  0.6657
 1841TIP3   OH227081   2.398   5.946   7.966 -0.0917 -0.5098 -0.6424
 1841TIP3    H127082   2.456   5.870   7.975  0.5086 -0.1358 -1.2554
 1841TIP3    H227083   2.399   5.966   7.873  1.2843  1.4062 -0.2716
 1842TIP3   OH227084   6.402   1.724   0.403  0.2281  0.0075 -0.0903
 1842TIP3    H127085   6.379   1.632   0.406 -0.2348  0.1059 -0.4303
 1842TIP3    H227086   6.410   1.751   0.494 -1.1153 -0.0088  0.0392
 1843TIP3   OH227087   0.559   4.375   7.443  0.0503 -0.0504  0.5296
 1843TIP3    H127088   0.541   4.456   7.394 -0.5730 -0.5287 -0.0529
 1843TIP3    H227089   0.536   4.305   7.382  3.0362 -0.7344  0.0271
 1844TIP3   OH227090   0.226   2.006   1.569 -0.5165 -0.3453  0.2240
 1844TIP3    H127091   0.292   1.963   1.623 -0.4111 -0.9825 -0.3968
 1844TIP3    H227092   0.162   2.041   1.631 -1.1779 -2.3401  0.7291
 1845TIP3   OH227093   0.034   2.048   0.518  0.3135 -0.0409 -0.5327
 1845TIP3    H127094   0.038   2.020   0.610 -2.3037  2.4270  0.4972
 1845TIP3    H227095  -0.030   1.989   0.478 -0.2254  0.2603 -0.1350
 1846TIP3   OH227096   5.306   0.831   6.825  0.1688 -0.6781 -0.1774
 1846TIP3    H127097   5.276   0.788   6.744 -1.4304  1.1469 -0.6269
 1846TIP3    H227098   5.247   0.906   6.835  0.4523 -0.7300  2.5900
 1847TIP3   OH227099   2.969   4.594   7.441  0.5688 -0.2277 -0.7403
 1847TIP3    H127100   2.991   4.673   7.392  1.5355 -0.2102 -0.3048
 1847TIP3    H227101   3.022   4.600   7.521  0.1569 -0.9920 -0.3972
 1848TIP3   OH227102   5.516   4.728   0.815 -0.2401 -0.0744  0.2679
 1848TIP3    H127103   5.429   4.694   0.835  0.2689 -2.0333 -0.5896
 1848TIP3    H227104   5.515   4.743   0.721  0.5217 -0.6949  0.1488
 1849TIP3   OH227105   0.021   2.180   8.185 -0.6764 -0.0201  0.5597
 1849TIP3    H127106  -0.061   2.213   8.148 -0.4856  1.4589  1.3596
 1849TIP3    H227107   0.031   2.229   8.267  0.6418 -0.7258  0.8470
 1850TIP3   OH227108   1.696   0.917   7.466 -0.3141 -0.3773  0.1896
 1850TIP3    H127109   1.785   0.881   7.459  0.0100  0.5487 -0.5436
 1850TIP3    H227110   1.650   0.882   7.390 -0.1028  0.4387 -0.3238
 1851TIP3   OH227111   1.000   2.318   1.717 -0.1460  0.3793 -0.0566
 1851TIP3    H127112   0.949   2.237   1.716  0.4806 -0.0609  1.3587
 1851TIP3    H227113   0.937   2.386   1.741 -0.2081 -0.0583  1.0517
 1852TIP3   OH227114   0.958   5.654   7.573  0.7473  0.4938  0.5568
 1852TIP3    H127115   0.897   5.696   7.634 -0.4343  1.2870 -1.1047
 1852TIP3    H227116   0.909   5.580   7.538  1.4929 -0.0773  0.7162
 1853TIP3   OH227117   2.903   2.965   8.079  0.0513 -0.4864 -0.1515
 1853TIP3    H127118   2.947   3.001   8.155 -0.1979  1.4114 -0.8560
 1853TIP3    H227119   2.864   2.883   8.110  1.8712 -0.9368  1.1313
 1854TIP3   OH227120   4.459   4.079   0.690  0.3849 -0.0147  0.9701
 1854TIP3    H127121   4.400   4.074   0.615  0.4582  0.7573  0.8548
 1854TIP3    H227122   4.504   4.162   0.679  2.2720 -1.0339  0.4820
 1855TIP3   OH227123   5.298   4.136   0.628 -0.9553 -0.1668  0.4056
 1855TIP3    H127124   5.390   4.136   0.655 -1.0293  1.3234  0.7848
 1855TIP3    H227125   5.300   4.121   0.534 -0.1353  1.8769  0.0491
 1856TIP3   OH227126   6.528   5.499   8.294 -0.0218  0.8574 -0.0501
 1856TIP3    H127127   6.559   5.412   8.266 -0.3397  0.3350  1.1531
 1856TIP3    H227128   6.601   5.534   8.346 -0.7981  0.2905  1.4635
 1857TIP3   OH227129   1.523   1.856   1.543 -0.0301 -0.2367 -0.7143
 1857TIP3    H127130   1.572   1.932   1.511  1.2062 -1.0311 -0.8000
 1857TIP3    H227131   1.438   1.891   1.568  0.4976  1.1727 -0.7739
 1858TIP3   OH227132   0.149   0.710   1.607  0.5825  0.5223  0.0076
 1858TIP3    H127133   0.063   0.706   1.650  0.1175 -1.0105 -0.9907
 1858TIP3    H227134   0.206   0.658   1.664 -0.1684 -2.0045 -1.4093
 1859TIP3   OH227135   5.529   5.156   0.429  0.1478 -0.1050 -0.3528
 1859TIP3    H127136   5.565   5.072   0.403  3.5070  0.2529  2.4683
 1859TIP3    H227137   5.473   5.136   0.504  2.6575  0.2425  1.7186
 1860TIP3   OH227138   6.664   5.496   7.522 -0.1413 -0.1818  0.5726
 1860TIP3    H127139   6.748   5.532   7.491 -1.1764  1.0344 -1.0041
 1860TIP3    H227140   6.660   5.409   7.484  0.1437 -0.0060  0.1255
 1861TIP3   OH227141   2.947   6.638   7.797  0.4181 -0.3108  0.2011
 1861TIP3    H127142   2.927   6.560   7.849 -0.4237 -0.4144 -0.2577
 1861TIP3    H227143   2.862   6.669   7.766  0.9048 -0.4254 -1.3570
 1862TIP3   OH227144   0.218   2.111   1.327  0.1870  0.3257 -0.7926
 1862TIP3    H127145   0.180   2.197   1.344 -1.3769 -0.0986 -1.9268
 1862TIP3    H227146   0.202   2.061   1.407 -0.1155  0.6657 -0.6410
 1863TIP3   OH227147   2.342   6.242   2.084 -0.1771 -0.1553  0.0634
 1863TIP3    H127148   2.360   6.206   1.998 -0.9189  0.7129 -0.4768
 1863TIP3    H227149   2.250   6.219   2.101 -0.0577 -0.2568  0.5899
 1864TIP3   OH227150   5.691   3.503   6.751  0.4386  0.2151 -0.3436
 1864TIP3    H127151   5.709   3.520   6.844 -0.7366 -0.5113  0.0469
 1864TIP3    H227152   5.775   3.475   6.715  0.5053 -1.4728  1.0011
 1865TIP3   OH227153   2.398   5.297   0.833  0.1107  0.1750  0.1463
 1865TIP3    H127154   2.335   5.355   0.874 -0.2412 -0.4010  0.4403
 1865TIP3    H227155   2.361   5.279   0.746 -0.0455 -0.0313  0.2560
 1866TIP3   OH227156   1.484   0.074   1.999  0.2169  0.0854  0.0708
 1866TIP3    H127157   1.454   0.016   1.928  0.6364 -1.8912  1.4053
 1866TIP3    H227158   1.407   0.085   2.054  0.7607 -1.5026  1.2409
 1867TIP3   OH227159   1.463   4.579   2.730  0.2997  0.5550  0.7758
 1867TIP3    H127160   1.394   4.639   2.761 -0.5277  0.5138 -0.9072
 1867TIP3    H227161   1.535   4.594   2.791 -0.5088  1.9982  1.4557
 1868TIP3   OH227162   1.292   0.104   2.167 -0.5965 -0.1057  0.3524
 1868TIP3    H127163   1.335   0.085   2.250  0.5884  1.5303  0.1669
 1868TIP3    H227164   1.230   0.175   2.188 -0.1502  0.4500 -0.1738
 1869TIP3   OH227165   1.119   6.321   7.836 -0.1604  0.6688  0.1509
 1869TIP3    H127166   1.136   6.350   7.746 -1.3665  1.0260  0.0215
 1869TIP3    H227167   1.185   6.254   7.853 -0.1001  0.3873 -1.1074
 1870TIP3   OH227168   1.370   4.417   2.541  1.2825 -0.1492  0.0334
 1870TIP3    H127169   1.400   4.478   2.609  0.7140 -0.2950  0.4270
 1870TIP3    H227170   1.380   4.330   2.580  1.2444 -0.2537 -0.1876
 1871TIP3   OH227171   1.284   2.260   6.916 -0.4010 -0.6222 -0.0219
 1871TIP3    H127172   1.248   2.349   6.915  1.5456  0.2540  1.4423
 1871TIP3    H227173   1.370   2.268   6.876 -0.7136 -2.1569 -1.0881
 1872TIP3   OH227174   6.210   5.246   1.256 -0.3958  0.4331  0.0888
 1872TIP3    H127175   6.161   5.223   1.335  0.1858 -1.0465  0.0599
 1872TIP3    H227176   6.251   5.164   1.229 -2.0490  0.4250 -2.8162
 1873TIP3   OH227177   4.487   6.485   1.595 -0.4929 -0.5495  0.5266
 1873TIP3    H127178   4.473   6.576   1.569 -1.4488 -0.0411  2.6017
 1873TIP3    H227179   4.504   6.439   1.513  0.5904  1.5766 -0.5122
 1874TIP3   OH227180   5.314   2.863   0.315 -0.0207  0.4529 -0.2564
 1874TIP3    H127181   5.313   2.813   0.396 -0.5677 -1.2580 -1.2572
 1874TIP3    H227182   5.233   2.837   0.270  1.8317 -1.4441 -2.9019
 1875TIP3   OH227183   2.155   5.170   1.930 -0.2889  0.3926 -0.2578
 1875TIP3    H127184   2.089   5.104   1.947  0.0144  0.6225  2.1674
 1875TIP3    H227185   2.237   5.131   1.961  0.2575  1.1239 -0.7355
 1876TIP3   OH227186   0.419   3.745   8.694  0.2078  0.1149  1.1634
 1876TIP3    H127187   0.421   3.653   8.722 -0.2790  0.3871  2.1348
 1876TIP3    H227188   0.420   3.741   8.598 -0.6401 -0.9391  1.1762
 1877TIP3   OH227189   1.199   4.430   0.669 -0.2299  0.2685 -0.4424
 1877TIP3    H127190   1.221   4.500   0.606 -0.4834 -0.6454 -1.5854
 1877TIP3    H227191   1.256   4.358   0.645 -0.2101 -0.0372  0.5176
 1878TIP3   OH227192   1.577   3.147   8.499 -0.3699 -0.4316 -0.0185
 1878TIP3    H127193   1.627   3.185   8.571 -0.0762 -1.6449  0.4352
 1878TIP3    H227194   1.522   3.219   8.468  1.6474  0.9519 -0.5609
 1879TIP3   OH227195   0.824   2.634   0.156 -0.3470  0.6001  0.1374
 1879TIP3    H127196   0.816   2.566   0.224 -0.8487  1.1943  0.6817
 1879TIP3    H227197   0.804   2.588   0.074  1.9488 -0.5584  0.1253
 1880TIP3   OH227198   4.434   1.356   6.836 -0.1547 -0.4928  0.1439
 1880TIP3    H127199   4.482   1.289   6.885  3.7533  0.8628 -1.4230
 1880TIP3    H227200   4.446   1.332   6.745 -1.7669  0.4849 -0.3663
 1881TIP3   OH227201   6.824   3.739   0.642 -0.4644  0.1458  0.2250
 1881TIP3    H127202   6.873   3.821   0.640 -1.2335  0.6077 -0.8768
 1881TIP3    H227203   6.791   3.733   0.732 -1.1885  1.5461  0.0785
 1882TIP3   OH227204   3.881   2.424   2.439 -0.1414  0.0267  0.3392
 1882TIP3    H127205   3.961   2.385   2.403 -0.9966 -1.8750  0.3394
 1882TIP3    H227206   3.911   2.480   2.510  1.1509 -1.7334  1.2739
 1883TIP3   OH227207   4.082   0.920   0.513  0.5788 -0.5092 -0.7699
 1883TIP3    H127208   4.145   0.929   0.441  0.1220  1.9146 -0.9622
 1883TIP3    H227209   4.122   0.968   0.586  1.0513 -2.9521  0.6996
 1884TIP3   OH227210   3.376   4.283   1.472 -0.2663 -0.5449  0.1343
 1884TIP3    H127211   3.359   4.356   1.531 -0.8631  0.2841 -1.0316
 1884TIP3    H227212   3.290   4.247   1.451  0.0234 -1.6569  0.7505
 1885TIP3   OH227213   3.472   1.225   0.311  0.1107 -0.0300  0.5475
 1885TIP3    H127214   3.424   1.275   0.245  0.7869  0.5015  0.4396
 1885TIP3    H227215   3.509   1.151   0.262 -2.3168 -1.6872  1.0273
 1886TIP3   OH227216   0.458   6.681   0.207 -0.2937  0.1792  0.4953
 1886TIP3    H127217   0.520   6.684   0.280 -0.9845  1.9801  1.0704
 1886TIP3    H227218   0.388   6.741   0.233 -1.2622 -0.2372 -1.0389
 1887TIP3   OH227219   3.705   5.491   0.315  0.5524 -0.3486 -0.4804
 1887TIP3    H127220   3.704   5.536   0.399 -0.2175 -1.5772  0.2100
 1887TIP3    H227221   3.777   5.428   0.322  0.1924 -0.7766 -0.5392
 1888TIP3   OH227222   1.830   1.097   7.888  0.2804 -1.1987  0.0775
 1888TIP3    H127223   1.782   1.084   7.970 -0.4818  1.5048  0.1465
 1888TIP3    H227224   1.765   1.084   7.819 -0.7465  2.4747  0.1713
 1889TIP3   OH227225   1.411   2.181   2.062  0.0230  0.3665 -0.4969
 1889TIP3    H127226   1.427   2.214   2.151 -1.2860  0.6269 -0.3404
 1889TIP3    H227227   1.343   2.115   2.073  0.5401 -0.3051 -1.1990
 1890TIP3   OH227228   2.173   4.775   8.051  0.5252 -0.0186 -0.4145
 1890TIP3    H127229   2.156   4.703   7.990  0.0822  0.2864 -0.6549
 1890TIP3    H227230   2.263   4.761   8.079  0.7493 -0.1527 -1.1686
 1891TIP3   OH227231   1.580   6.290   7.917 -0.3768  0.2086 -0.4179
 1891TIP3    H127232   1.547   6.363   7.970 -0.1326  0.1150 -0.1297
 1891TIP3    H227233   1.577   6.215   7.976  1.4592  0.4313  0.0139
 1892TIP3   OH227234   2.810   0.869   0.671  0.6624  0.3341  0.2209
 1892TIP3    H127235   2.791   0.782   0.706 -2.0931  0.8682  0.3386
 1892TIP3    H227236   2.755   0.875   0.592 -0.4254  2.4428  1.0471
 1893TIP3   OH227237   5.758   3.785   8.153 -0.2064  0.2749 -0.6455
 1893TIP3    H127238   5.716   3.839   8.220 -2.2941  1.3025 -2.6509
 1893TIP3    H227239   5.742   3.831   8.071 -0.5289 -2.4716 -2.2591
 1894TIP3   OH227240   3.160   6.401   0.124 -0.4488  0.2939  0.0381
 1894TIP3    H127241   3.082   6.406   0.180  0.6106  0.6329  1.5720
 1894TIP3    H227242   3.233   6.393   0.186  0.6767 -1.0666 -1.3794
 1895TIP3   OH227243   5.757   0.202   0.652  0.2977  0.2056  0.8753
 1895TIP3    H127244   5.808   0.277   0.620  0.9627 -0.4275  0.4152
 1895TIP3    H227245   5.770   0.202   0.746  2.3437 -0.7680  0.6429
 1896TIP3   OH227246   5.156   1.876   1.417  0.2252 -0.9363 -0.4413
 1896TIP3    H127247   5.152   1.969   1.439 -0.4116 -0.9761 -0.3730
 1896TIP3    H227248   5.249   1.860   1.399  0.3272 -0.2679 -0.5488
 1897TIP3   OH227249   4.423   4.026   7.653 -0.2218  0.3546  0.3186
 1897TIP3    H127250   4.389   4.064   7.572 -0.5054 -0.0399  0.2513
 1897TIP3    H227251   4.446   3.936   7.630  3.1814  1.2491 -0.2961
 1898TIP3   OH227252   2.208   5.823   1.356 -0.3754  0.0894  0.0173
 1898TIP3    H127253   2.156   5.748   1.381  0.1191  0.1774  1.4475
 1898TIP3    H227254   2.194   5.833   1.262 -0.6226 -1.6397 -0.1612
 1899TIP3   OH227255   4.113   5.655   7.034 -0.0714  0.3012  0.4152
 1899TIP3    H127256   4.032   5.604   7.032  1.3717 -2.0999 -0.6411
 1899TIP3    H227257   4.121   5.690   6.945  1.5853 -2.1895 -0.5130
 1900TIP3   OH227258   1.437   1.113   1.247  0.1244 -0.2377 -0.0673
 1900TIP3    H127259   1.354   1.076   1.216 -0.1820  1.1477 -0.9753
 1900TIP3    H227260   1.504   1.055   1.211 -0.3576 -0.1626 -1.1138
 1901TIP3   OH227261   0.317   4.768   0.926 -0.6415 -0.3744 -0.3307
 1901TIP3    H127262   0.352   4.799   0.843 -1.5098  2.3306  0.2020
 1901TIP3    H227263   0.376   4.804   0.992 -1.5279 -0.1034  0.3307
 1902TIP3   OH227264   6.011   0.641   0.012  0.3843 -0.3030 -0.1503
 1902TIP3    H127265   6.105   0.650   0.031  0.7018 -1.3457 -1.0890
 1902TIP3    H227266   5.998   0.547   0.001 -0.8284 -0.1880  0.1765
 1903TIP3   OH227267   4.233   3.719   0.221  0.0876  0.3370  0.3525
 1903TIP3    H127268   4.251   3.789   0.158 -0.3035  1.4197  1.4038
 1903TIP3    H227269   4.148   3.742   0.258 -0.1286 -0.8055  0.5957
 1904TIP3   OH227270   5.611   5.461   8.049  0.4996  0.5143  0.4528
 1904TIP3    H127271   5.592   5.367   8.056  2.3109  0.1979  1.7541
 1904TIP3    H227272   5.526   5.501   8.035 -0.7875 -1.0559  2.9763
 1905TIP3   OH227273   1.616   4.074   8.734  0.6798 -0.6117 -0.0194
 1905TIP3    H127274   1.693   4.072   8.677  0.7454  0.7244  0.0025
 1905TIP3    H227275   1.598   4.167   8.748 -0.6803 -0.8982  0.3342
 1906TIP3   OH227276   5.735   5.899   7.003 -0.2459 -0.4266 -0.0135
 1906TIP3    H127277   5.792   5.934   7.070 -0.3565  1.2017 -0.7273
 1906TIP3    H227278   5.651   5.883   7.047 -0.2613  0.4540  0.2886
 1907TIP3   OH227279   4.136   1.987   7.908  0.2801  0.3291 -0.1864
 1907TIP3    H127280   4.186   1.987   7.826  0.1660 -2.0377 -0.3288
 1907TIP3    H227281   4.196   2.024   7.973  2.0264 -1.7419 -0.5087
 1908TIP3   OH227282   0.299   1.816   0.048  0.1209  0.0637 -0.1440
 1908TIP3    H127283   0.386   1.778   0.044 -0.7128 -2.0040  0.3420
 1908TIP3    H227284   0.263   1.785   0.131 -1.1012  0.8820 -0.3418
 1909TIP3   OH227285   2.909   6.049   0.094 -0.1951 -0.0617  0.5126
 1909TIP3    H127286   2.995   6.089   0.087  0.8266 -2.3143 -0.9431
 1909TIP3    H227287   2.921   5.975   0.153 -0.6691 -1.4163 -1.0138
 1910TIP3   OH227288   0.178   3.128   7.863  0.0553  0.3659 -0.0121
 1910TIP3    H127289   0.208   3.046   7.902 -0.5762  0.4194  0.5980
 1910TIP3    H227290   0.083   3.121   7.862  0.0084  0.9972 -0.1625
 1911TIP3   OH227291   3.935   4.661   2.369 -0.0341  0.4026 -0.1210
 1911TIP3    H127292   3.858   4.709   2.400  1.0088  1.4975  0.9182
 1911TIP3    H227293   3.957   4.602   2.441  0.8795  1.0984  0.2032
 1912TIP3   OH227294   6.451   5.621   7.613 -0.2174  0.7102  0.5618
 1912TIP3    H127295   6.498   5.640   7.694  0.0212 -1.9487  1.1335
 1912TIP3    H227296   6.511   5.565   7.563 -0.9737  1.0570 -0.7805
 1913TIP3   OH227297   6.494   3.493   8.558  0.3146 -0.0036  0.5841
 1913TIP3    H127298   6.578   3.524   8.525 -0.5294 -0.4545 -2.2501
 1913TIP3    H227299   6.429   3.529   8.497 -1.4957 -0.2539  2.2646
 1914TIP3   OH227300   4.586   1.066   1.113 -0.2989  0.0481 -0.0830
 1914TIP3    H127301   4.621   1.144   1.155 -0.8251  0.5576 -0.5726
 1914TIP3    H227302   4.663   1.016   1.086  0.0448  0.7136 -0.3461
 1915TIP3   OH227303   6.330   0.403   1.052 -0.3737 -0.3565 -0.1970
 1915TIP3    H127304   6.251   0.388   1.104 -0.3863 -2.6581 -0.7841
 1915TIP3    H227305   6.376   0.473   1.099 -1.3356 -0.9856  1.8106
 1916TIP3   OH227306   0.042   4.341   1.700 -0.2981 -0.0683  0.3193
 1916TIP3    H127307  -0.032   4.360   1.758 -1.9404 -1.0405 -1.3483
 1916TIP3    H227308   0.111   4.310   1.759 -0.7421  2.0241  2.0530
 1917TIP3   OH227309   5.273   3.248   2.456  0.5178 -0.0568  0.2805
 1917TIP3    H127310   5.311   3.321   2.504  1.9495 -1.6099  1.6470
 1917TIP3    H227311   5.347   3.209   2.408 -0.4200 -0.0194 -1.2861
 1918TIP3   OH227312   2.614   3.484   7.817  0.4061  0.4214 -0.2694
 1918TIP3    H127313   2.570   3.502   7.734 -0.0980 -0.5629 -0.2267
 1918TIP3    H227314   2.706   3.469   7.792 -0.0955 -1.9632 -0.9680
 1919TIP3   OH227315   1.516   4.721   8.072  0.4165 -0.0729  0.1506
 1919TIP3    H127316   1.542   4.641   8.026  1.6464  0.0975  0.4877
 1919TIP3    H227317   1.474   4.775   8.005 -1.4645 -1.4233  0.1627
 1920TIP3   OH227318   1.587   0.252   1.451 -0.1970 -0.4292  0.1673
 1920TIP3    H127319   1.630   0.251   1.365 -0.7005 -0.8628 -0.0854
 1920TIP3    H227320   1.644   0.199   1.507  0.8181  0.9020  0.4609
 1921TIP3   OH227321   6.187   4.536   7.557 -0.3999  0.1183  0.4842
 1921TIP3    H127322   6.114   4.482   7.589 -1.7155  2.5328  1.9059
 1921TIP3    H227323   6.158   4.566   7.471  0.0265 -0.8050 -0.0009
 1922TIP3   OH227324   3.430   5.582   1.629  0.0195  0.7273 -0.2117
 1922TIP3    H127325   3.425   5.487   1.621 -0.4560  0.7344 -0.0342
 1922TIP3    H227326   3.382   5.602   1.709  0.0099  1.1288 -0.3135
 1923TIP3   OH227327   3.824   4.747   8.693 -0.3608  0.1839  0.2093
 1923TIP3    H127328   3.917   4.754   8.713 -0.5079  1.9595  0.3793
 1923TIP3    H227329   3.790   4.686   8.759  0.2045  1.6099  1.8985
 1924TIP3   OH227330   1.943   3.198   8.234 -0.0872  0.9646 -0.4427
 1924TIP3    H127331   1.917   3.180   8.143 -0.0669  1.5924 -0.5804
 1924TIP3    H227332   2.024   3.248   8.226  1.8786 -1.9003 -0.0068
 1925TIP3   OH227333   5.872   6.111   2.056 -0.3199  0.1784  0.1725
 1925TIP3    H127334   5.800   6.145   2.003 -0.9214 -1.0629  0.1535
 1925TIP3    H227335   5.951   6.145   2.014 -0.7775 -0.6817 -1.4910
 1926TIP3   OH227336   1.247   3.282   0.875  0.1726 -0.0591 -0.6742
 1926TIP3    H127337   1.201   3.216   0.926  0.2052 -2.2209 -3.2062
 1926TIP3    H227338   1.179   3.324   0.822  0.1772  1.9270  0.7803
 1927TIP3   OH227339   1.509   4.253   6.808 -0.0201  0.2891 -1.0101
 1927TIP3    H127340   1.440   4.319   6.818  0.3733  0.6193 -0.3366
 1927TIP3    H227341   1.589   4.299   6.836  0.4132 -0.1902 -1.4512
 1928TIP3   OH227342   3.659   2.580   0.875 -0.1006  0.7913  0.3082
 1928TIP3    H127343   3.726   2.619   0.818  1.9422 -0.5843  1.6175
 1928TIP3    H227344   3.645   2.645   0.944  0.1223  0.9711  0.1846
 1929TIP3   OH227345   5.989   1.372   6.353  0.3703  0.0571  0.3510
 1929TIP3    H127346   5.960   1.390   6.442  1.1296 -1.1835  0.8647
 1929TIP3    H227347   6.045   1.446   6.331  1.5074 -0.4150  1.5306
 1930TIP3   OH227348   1.158   2.567   7.800  0.0247  0.3570 -0.7626
 1930TIP3    H127349   1.221   2.609   7.741 -1.0316  0.4256 -1.8849
 1930TIP3    H227350   1.190   2.477   7.809  0.7392  0.6201 -0.6361
 1931TIP3   OH227351   1.485   0.494   0.318  0.1898 -0.2444  0.2246
 1931TIP3    H127352   1.505   0.494   0.412  0.9068 -0.2293  0.0755
 1931TIP3    H227353   1.560   0.452   0.278  0.3403  0.6526 -0.4433
 1932TIP3   OH227354   3.260   3.897   1.598  0.1414 -0.0707 -0.0462
 1932TIP3    H127355   3.324   3.845   1.647  0.2944 -1.1739 -1.3585
 1932TIP3    H227356   3.193   3.834   1.573  0.4249  0.2940 -1.8421
 1933TIP3   OH227357   3.825   0.813   7.557 -0.0598 -0.1849 -0.1014
 1933TIP3    H127358   3.853   0.877   7.492  0.3929  0.3209  0.5801
 1933TIP3    H227359   3.789   0.741   7.505 -0.2210  0.4472 -0.8901
 1934TIP3   OH227360   1.976   2.262   1.257 -0.0785 -0.4094  0.4055
 1934TIP3    H127361   1.981   2.316   1.178  0.7344  0.7012  1.1942
 1934TIP3    H227362   1.889   2.281   1.293  0.5169  1.0730  1.1355
 1935TIP3   OH227363   2.079   1.240   0.228  0.0544  0.6796  0.4637
 1935TIP3    H127364   2.144   1.306   0.252 -1.2671  1.4633  2.0068
 1935TIP3    H227365   2.126   1.157   0.235  1.3823  1.3335 -0.2577
 1936TIP3   OH227366   2.498   2.396   7.447  0.6235  0.0083  0.2370
 1936TIP3    H127367   2.453   2.397   7.362 -0.6742 -2.3975  0.8172
 1936TIP3    H227368   2.442   2.450   7.503  0.3244 -0.1381  0.0853
 1937TIP3   OH227369   5.614   6.471   0.154  0.0964  0.3803 -0.2545
 1937TIP3    H127370   5.642   6.466   0.063  0.3146  3.1200 -0.4124
 1937TIP3    H227371   5.696   6.479   0.204 -0.0562 -0.3603  0.1358
 1938TIP3   OH227372   1.908   2.937   7.368  0.2278  0.7741  0.3057
 1938TIP3    H127373   1.859   2.922   7.287  0.6335 -0.5651  0.2778
 1938TIP3    H227374   1.940   3.027   7.361  2.4536 -0.0822 -2.2729
 1939TIP3   OH227375   4.399   4.732   0.941 -0.5140  0.0939  0.1650
 1939TIP3    H127376   4.305   4.720   0.925 -0.4998 -1.2736  0.9778
 1939TIP3    H227377   4.420   4.815   0.898 -2.4314  1.2613  1.3112
 1940TIP3   OH227378   3.737   0.043   0.883  0.0262  0.5962  0.7044
 1940TIP3    H127379   3.709  -0.003   0.804 -1.6284  1.8315  0.5294
 1940TIP3    H227380   3.831   0.054   0.872 -0.2746  1.4395 -1.4770
 1941TIP3   OH227381   1.512   0.596   0.898  0.1731 -0.1882 -0.1002
 1941TIP3    H127382   1.468   0.622   0.817 -0.1442  0.2390  0.2077
 1941TIP3    H227383   1.461   0.637   0.968  1.3667  0.7756  0.2496
 1942TIP3   OH227384   3.199   2.144   8.116 -0.4230  0.1748  0.1394
 1942TIP3    H127385   3.258   2.132   8.190 -0.2963 -0.4069 -0.0528
 1942TIP3    H227386   3.219   2.233   8.084 -1.7312  1.1422  1.8743
 1943TIP3   OH227387   3.637   6.181   7.027 -0.2925  0.6894 -0.2261
 1943TIP3    H127388   3.693   6.207   6.954 -0.6263  0.7667 -0.4573
 1943TIP3    H227389   3.606   6.094   7.003  2.0216 -0.6525  1.2328
 1944TIP3   OH227390   2.933   0.680   8.562 -0.0083 -0.1854 -0.1785
 1944TIP3    H127391   2.879   0.672   8.483 -1.2382  0.8477  0.5151
 1944TIP3    H227392   3.023   0.669   8.530 -0.5547 -1.3234 -1.4686
 1945TIP3   OH227393   0.201   6.713   1.605 -0.1735 -0.1964 -0.2193
 1945TIP3    H127394   0.217   6.780   1.539 -0.6313 -0.9710 -1.1299
 1945TIP3    H227395   0.284   6.704   1.651  0.1857  0.2511 -0.7785
 1946TIP3   OH227396   1.989   5.319   0.518 -0.2100  0.6810 -0.2934
 1946TIP3    H127397   1.938   5.364   0.450  0.1442  2.1635  0.3788
 1946TIP3    H227398   2.050   5.264   0.470 -3.2245 -2.2507 -1.1720
 1947TIP3   OH227399   6.760   3.096   0.143 -0.4942 -0.1634 -0.1977
 1947TIP3    H127400   6.714   3.173   0.176 -0.4621 -0.0702 -0.3702
 1947TIP3    H227401   6.738   3.092   0.050  0.3018  0.2110 -0.4062
 1948TIP3   OH227402   1.634   5.037   7.979 -0.5118  0.0944 -0.1118
 1948TIP3    H127403   1.727   5.021   7.961 -0.1367  1.3953  0.5597
 1948TIP3    H227404   1.605   4.961   8.028  0.8253  0.7096  1.7312
 1949TIP3   OH227405   3.916   0.017   2.073  0.4253 -0.1147  0.1088
 1949TIP3    H127406   3.869   0.089   2.032 -1.1208 -1.2056 -0.1148
 1949TIP3    H227407   3.997   0.057   2.107 -0.6953  1.8444  0.6040
 1950TIP3   OH227408   1.213   0.977   1.204 -0.5309  0.5412  0.2353
 1950TIP3    H127409   1.134   0.973   1.258  0.5713  0.0312  1.8902
 1950TIP3    H227410   1.188   0.935   1.122 -1.7126 -0.4812  1.0744
 1951TIP3   OH227411   0.391   4.407   2.249  1.3278 -0.4705 -0.0757
 1951TIP3    H127412   0.326   4.434   2.185  1.6787  0.8892  0.1213
 1951TIP3    H227413   0.356   4.325   2.286  0.4953 -0.5722 -1.0571
 1952TIP3   OH227414   5.735   6.596   7.942 -0.2968  0.3439 -0.3874
 1952TIP3    H127415   5.805   6.652   7.977  1.2900 -0.2710 -2.3668
 1952TIP3    H227416   5.728   6.525   8.006  1.6274 -0.0937 -0.5800
 1953TIP3   OH227417   2.331   6.757   7.420 -0.3527  0.3049 -0.1541
 1953TIP3    H127418   2.360   6.821   7.486 -1.6364  0.3125  0.4295
 1953TIP3    H227419   2.275   6.807   7.361 -1.3791 -0.2559  0.3170
 1954TIP3   OH227420   4.589   1.177   2.052  0.6220  0.2089 -0.4565
 1954TIP3    H127421   4.589   1.149   1.961 -1.2701  0.7542 -0.6718
 1954TIP3    H227422   4.643   1.112   2.098  2.1506  0.2887 -2.0302
 1955TIP3   OH227423   1.005   5.168   7.691  0.3511 -0.4723  0.1164
 1955TIP3    H127424   0.910   5.174   7.700  0.4262  1.7010  0.1028
 1955TIP3    H227425   1.022   5.198   7.601  1.0648 -0.5893  0.2088
 1956TIP3   OH227426   6.810   2.506   1.597  0.3876 -0.2679  0.5225
 1956TIP3    H127427   6.751   2.529   1.669 -2.1682 -1.7473 -0.9471
 1956TIP3    H227428   6.822   2.588   1.549  0.0385  0.2067  1.2284
 1957TIP3   OH227429   2.155   2.841   8.492  0.1598  0.3512 -0.4362
 1957TIP3    H127430   2.109   2.783   8.432 -0.0652  1.0223 -0.9228
 1957TIP3    H227431   2.160   2.924   8.445 -1.6852  1.4510  1.2166
 1958TIP3   OH227432   6.084   3.126   8.575 -0.2166 -0.3919  0.2118
 1958TIP3    H127433   6.013   3.190   8.584  0.2520  0.3598 -1.1987
 1958TIP3    H227434   6.093   3.088   8.663 -0.2319  1.7803  1.2133
 1959TIP3   OH227435   3.522   6.553   7.830 -0.1810 -0.1139  0.0416
 1959TIP3    H127436   3.428   6.561   7.816 -0.0324 -0.1877 -1.0847
 1959TIP3    H227437   3.530   6.486   7.898 -0.9690  0.7076  0.9736
 1960TIP3   OH227438   2.976   5.743   1.873 -0.2512  0.3397 -0.0887
 1960TIP3    H127439   2.988   5.766   1.781  0.7297  0.6515  0.1060
 1960TIP3    H227440   2.982   5.647   1.875  0.0680  0.3562 -0.2949
 1961TIP3   OH227441   6.678   0.768   1.440  0.2208  0.4243 -0.4348
 1961TIP3    H127442   6.704   0.779   1.532 -0.5627  1.1199 -0.2813
 1961TIP3    H227443   6.679   0.673   1.426  1.2627  0.3604  0.0135
 1962TIP3   OH227444   1.885   0.255   7.686  0.0915 -0.1081 -0.4489
 1962TIP3    H127445   1.842   0.232   7.604  0.5598 -0.1131 -0.6986
 1962TIP3    H227446   1.958   0.194   7.693  0.2739  0.1344 -0.2147
 1963TIP3   OH227447   6.227   0.868   7.701 -0.1304 -0.1272 -0.3443
 1963TIP3    H127448   6.287   0.942   7.688 -0.3091 -0.0709 -0.8655
 1963TIP3    H227449   6.225   0.856   7.796  0.8928 -0.2844 -0.3300
 1964TIP3   OH227450   6.170   6.198   8.298  0.0536  0.2647  0.4711
 1964TIP3    H127451   6.179   6.108   8.332  2.0131  0.4188  0.4804
 1964TIP3    H227452   6.120   6.188   8.218 -1.9957 -0.4959  1.7597
 1965TIP3   OH227453   1.324   1.108   6.943 -0.3024 -0.4316 -0.1186
 1965TIP3    H127454   1.258   1.177   6.948 -0.7070 -0.7190 -1.2015
 1965TIP3    H227455   1.274   1.027   6.937  0.1615 -0.9276  1.9271
 1966TIP3   OH227456   6.281   1.026   1.221  0.5281  0.0428  0.6851
 1966TIP3    H127457   6.348   0.958   1.225 -0.0941 -0.5573  1.1677
 1966TIP3    H227458   6.203   0.985   1.259  0.6143  1.5941  2.7118
 1967TIP3   OH227459   5.554   4.278   6.997  0.9129  0.4782 -0.1155
 1967TIP3    H127460   5.485   4.303   6.936  1.4506  0.8261 -0.5789
 1967TIP3    H227461   5.511   4.215   7.056 -0.5168  2.5666  1.1962
 1968TIP3   OH227462   0.940   5.390   8.740 -0.8381  0.1640 -0.5980
 1968TIP3    H127463   0.918   5.300   8.715 -0.0608 -0.6742  1.5704
 1968TIP3    H227464   0.886   5.407   8.817 -0.3698  1.2936 -0.5056
 1969TIP3   OH227465   3.650   5.802   1.098 -0.6714  0.1643 -0.1232
 1969TIP3    H127466   3.692   5.717   1.082  0.1102  0.6313 -0.6193
 1969TIP3    H227467   3.632   5.837   1.011 -0.2212  0.8813  0.0655
 1970TIP3   OH227468   0.549   1.362   8.590  0.3316 -0.1582 -0.2865
 1970TIP3    H127469   0.568   1.369   8.683  0.1009  0.5965 -0.2880
 1970TIP3    H227470   0.467   1.409   8.578 -0.3127 -1.3316 -0.6696
 1971TIP3   OH227471   2.198   2.597   1.638  0.1606  0.4797 -0.1009
 1971TIP3    H127472   2.133   2.594   1.567 -0.6634 -0.4294  0.6655
 1971TIP3    H227473   2.263   2.662   1.608 -1.2739  1.6943 -0.7310
 1972TIP3   OH227474   5.991   1.589   1.523  0.1332  0.4326 -0.0091
 1972TIP3    H127475   6.084   1.584   1.499  0.4667  2.9188  0.5141
 1972TIP3    H227476   5.989   1.567   1.616  0.0878 -0.2208 -0.1573
 1973TIP3   OH227477   5.399   4.720   8.064 -0.3538  0.5278 -0.2515
 1973TIP3    H127478   5.481   4.746   8.105 -0.4233  0.4576 -0.0684
 1973TIP3    H227479   5.348   4.680   8.134 -0.1779 -0.2694 -0.5710
 1974TIP3   OH227480   5.937   3.283   8.196 -0.1073  0.6961 -0.1338
 1974TIP3    H127481   6.014   3.335   8.219 -0.3838  0.6828  0.9024
 1974TIP3    H227482   5.972   3.201   8.160  0.3614  0.8322  0.0128
 1975TIP3   OH227483   3.290   2.527   1.147 -0.0653  0.0807  0.3918
 1975TIP3    H127484   3.302   2.531   1.242  0.3861  0.9182  0.3031
 1975TIP3    H227485   3.299   2.434   1.126  1.0644  0.0351  1.0082
 1976TIP3   OH227486   3.250   1.739   2.404 -0.1888  0.2028  0.3163
 1976TIP3    H127487   3.243   1.833   2.389  0.5302  0.2183  0.0060
 1976TIP3    H227488   3.281   1.731   2.494  0.0016  0.2809  0.2601
 1977TIP3   OH227489   3.640   3.121   7.778 -0.1119  0.1011 -0.1486
 1977TIP3    H127490   3.584   3.047   7.757  0.4674 -0.5155  0.4400
 1977TIP3    H227491   3.604   3.156   7.860  0.3258 -0.2752  0.2125
 1978TIP3   OH227492   6.411   1.994   1.743  0.4133 -0.3145 -0.4969
 1978TIP3    H127493   6.354   1.918   1.729 -2.8892  2.0491 -0.9756
 1978TIP3    H227494   6.406   2.043   1.661 -1.2309  2.5940  1.1776
 1979TIP3   OH227495   0.054   3.534   6.757 -0.4285 -0.0195  0.0087
 1979TIP3    H127496   0.145   3.539   6.787 -0.5192  2.7395  0.0684
 1979TIP3    H227497   0.060   3.513   6.664  0.2159 -0.3647  0.1209
 1980TIP3   OH227498   6.390   6.623   1.567 -0.2063  0.6771 -0.1213
 1980TIP3    H127499   6.432   6.560   1.509 -1.8771  0.4033 -1.0989
 1980TIP3    H227500   6.320   6.661   1.514  0.0790  2.5955  0.7904
 1981TIP3   OH227501   4.781   0.238   2.716  0.3851  0.4905 -0.4095
 1981TIP3    H127502   4.801   0.324   2.679  0.8201  1.0157  0.9946
 1981TIP3    H227503   4.848   0.225   2.783 -1.4292  0.3830  1.4736
 1982TIP3   OH227504   5.441   5.696   7.788  0.1140 -0.3705  0.5328
 1982TIP3    H127505   5.393   5.665   7.864 -0.0474 -0.8814  0.2231
 1982TIP3    H227506   5.420   5.790   7.783 -1.0880 -0.6367  0.2287
 1983TIP3   OH227507   5.098   6.803   8.313  0.0352  0.8350 -0.6034
 1983TIP3    H127508   5.088   6.842   8.400 -1.7670  0.3646 -0.5702
 1983TIP3    H227509   5.131   6.875   8.259 -1.0611  1.7950 -0.0395
 1984TIP3   OH227510   2.059   4.196   1.349 -0.4289 -0.3479 -0.0544
 1984TIP3    H127511   1.989   4.172   1.289 -1.1108  1.9891 -0.3124
 1984TIP3    H227512   2.100   4.273   1.309  0.1378  0.3110  1.6867
 1985TIP3   OH227513   2.819   2.768   0.209 -0.0277 -0.1395 -0.5440
 1985TIP3    H127514   2.849   2.707   0.142  2.1211  0.9774 -0.6872
 1985TIP3    H227515   2.724   2.760   0.208  0.1374 -3.5044 -0.4982
 1986TIP3   OH227516   3.205   3.107   2.806  0.0159  0.3280 -0.3555
 1986TIP3    H127517   3.146   3.041   2.841  0.9437 -0.2900  0.0699
 1986TIP3    H227518   3.220   3.167   2.878  2.0699 -1.0444  0.4538
 1987TIP3   OH227519   4.104   2.600   8.751  0.0729 -0.3475 -0.3397
 1987TIP3    H127520   4.061   2.676   8.789 -0.1439 -0.5067 -0.2597
 1987TIP3    H227521   4.197   2.620   8.754 -0.0431  0.4440 -1.4523
 1988TIP3   OH227522   1.728   6.577   7.002 -0.1446 -0.0407 -0.3520
 1988TIP3    H127523   1.706   6.626   7.081  1.5191 -0.7124  0.5947
 1988TIP3    H227524   1.716   6.639   6.930  1.7150  1.7252  0.7738
 1989TIP3   OH227525   1.908   5.634   8.111  1.0289 -0.1572 -0.1522
 1989TIP3    H127526   1.819   5.608   8.087  0.8424 -0.3306  0.7065
 1989TIP3    H227527   1.908   5.729   8.105  0.3126 -0.0309  1.3786
 1990TIP3   OH227528   4.370   4.917   0.451  0.5203  0.8670  0.4985
 1990TIP3    H127529   4.428   4.891   0.379  1.0272 -0.1103  1.2415
 1990TIP3    H227530   4.393   4.858   0.523 -1.7921  0.0531  0.6494
 1991TIP3   OH227531   5.265   4.165   0.369 -0.1798  0.5570  0.0079
 1991TIP3    H127532   5.207   4.133   0.300 -0.2452  0.6126  0.0381
 1991TIP3    H227533   5.282   4.256   0.346 -0.6081  0.7225  0.3422
 1992TIP3   OH227534   2.835   2.864   0.942 -0.3601 -0.3267  0.6347
 1992TIP3    H127535   2.871   2.804   0.877  0.7957  1.3084 -0.2811
 1992TIP3    H227536   2.740   2.850   0.937 -0.2226 -0.9087 -0.7274
 1993TIP3   OH227537   1.183   3.236   2.409 -0.2366  0.4171 -0.0880
 1993TIP3    H127538   1.105   3.232   2.465 -0.8738 -1.0494 -1.0119
 1993TIP3    H227539   1.242   3.171   2.447 -0.8279 -0.8676 -1.2905
 1994TIP3   OH227540   2.753   5.690   7.524  0.1083  0.2484 -0.2417
 1994TIP3    H127541   2.680   5.658   7.472  0.1319 -0.5983  0.2206
 1994TIP3    H227542   2.810   5.614   7.535 -0.0463  0.3090  1.2584
 1995TIP3   OH227543   4.372   4.195   8.217 -0.2512  0.6115 -0.4618
 1995TIP3    H127544   4.462   4.223   8.197  0.2780 -0.0912  0.8055
 1995TIP3    H227545   4.345   4.252   8.290 -0.2654 -0.1466  0.1446
 1996TIP3   OH227546   0.826   3.875   1.262 -0.3397 -0.5952 -0.0712
 1996TIP3    H127547   0.790   3.957   1.229  0.7844 -0.6104 -1.4243
 1996TIP3    H227548   0.896   3.902   1.321  0.5388 -0.5468 -1.1019
 1997TIP3   OH227549   4.517   6.464   2.932 -0.2019  0.2737  0.1770
 1997TIP3    H127550   4.470   6.398   2.880 -1.7426  2.7028 -1.7473
 1997TIP3    H227551   4.609   6.449   2.910 -0.4642 -1.4505  0.0998
 1998TIP3   OH227552   5.668   4.736   1.589 -0.2727  0.1349 -0.7678
 1998TIP3    H127553   5.623   4.678   1.527 -0.4654 -1.8219  1.0870
 1998TIP3    H227554   5.744   4.685   1.618  0.4150  1.4502 -0.1938
 1999TIP3   OH227555   1.058   5.976   0.405  0.5365 -0.3514  0.5466
 1999TIP3    H127556   1.152   5.965   0.414  0.9418  2.1898  0.1213
 1999TIP3    H227557   1.038   5.944   0.317  1.0189 -0.6837  0.5550
 2000TIP3   OH227558   2.003   6.209   0.787  0.1301  0.0999  0.3009
 2000TIP3    H127559   1.989   6.114   0.778 -0.2868 -0.0413  2.1896
 2000TIP3    H227560   2.038   6.220   0.875 -0.8890  1.8190  0.5263
 2001TIP3   OH227561   5.249   6.806   2.004 -0.3341  0.1459 -0.1876
 2001TIP3    H127562   5.298   6.785   2.083 -0.4959  2.1076  0.5008
 2001TIP3    H227563   5.161   6.825   2.034 -0.9403 -1.0175 -1.1253
 2002TIP3   OH227564   4.613   0.133   0.902 -0.1656  0.1202  0.4246
 2002TIP3    H127565   4.605   0.078   0.980 -1.1381 -1.5546 -0.7875
 2002TIP3    H227566   4.600   0.222   0.935 -0.5231 -0.5258  2.1835
 2003TIP3   OH227567   6.070   0.452   2.468 -0.0887  0.3665 -0.4297
 2003TIP3    H127568   6.082   0.541   2.437 -0.2841  0.4925 -0.1529
 2003TIP3    H227569   5.976   0.445   2.486 -0.2455 -0.2251 -1.4378
 2004TIP3   OH227570   1.420   5.063   8.188 -0.3266 -0.2648  0.3973
 2004TIP3    H127571   1.352   5.089   8.250  1.4547  1.2648  1.8393
 2004TIP3    H227572   1.404   5.117   8.111  0.3922  1.6184  1.5057
 2005TIP3   OH227573   1.194   1.669   1.546  0.2670  0.2113 -0.1100
 2005TIP3    H127574   1.252   1.598   1.573  2.0242  1.6310  0.0138
 2005TIP3    H227575   1.247   1.748   1.554 -2.0762  1.7747  1.2540
 2006TIP3   OH227576   4.873   0.083   2.198  0.4230  0.1057 -0.5103
 2006TIP3    H127577   4.864   0.155   2.136 -2.3483 -0.5751 -1.0490
 2006TIP3    H227578   4.817   0.014   2.163  0.9253 -1.3278  1.3522
 2007TIP3   OH227579   4.757   6.544   8.532 -0.0716 -0.3555  0.6330
 2007TIP3    H127580   4.688   6.527   8.597 -2.5046 -1.0192 -1.9300
 2007TIP3    H227581   4.778   6.459   8.495  1.9946 -0.1194  1.1408
 2008TIP3   OH227582   5.350   5.535   8.023  0.1083  0.6179 -0.5472
 2008TIP3    H127583   5.319   5.455   8.066  0.5612 -0.0442 -1.4169
 2008TIP3    H227584   5.278   5.597   8.033 -0.4209 -0.0302 -0.2294
 2009TIP3   OH227585   2.823   2.493   0.656  0.2339 -0.1467  0.3057
 2009TIP3    H127586   2.731   2.513   0.671  0.5377  0.6123  1.2311
 2009TIP3    H227587   2.827   2.398   0.652 -0.5423 -0.1940  0.5649
 2010TIP3   OH227588   3.760   3.837   8.596 -0.7623 -0.3989  0.6595
 2010TIP3    H127589   3.854   3.855   8.588 -0.3874 -2.6896 -1.2668
 2010TIP3    H227590   3.755   3.754   8.644 -1.8200 -0.1389  1.0247
 2011TIP3   OH227591   1.927   0.907   0.348  1.0750 -0.0367 -0.4234
 2011TIP3    H127592   1.869   0.945   0.282 -0.0056  0.1016  0.5727
 2011TIP3    H227593   1.922   0.813   0.334 -0.4979 -0.1236  0.5056
 2012TIP3   OH227594   3.318   3.308   7.818  0.1951  0.1848 -0.3659
 2012TIP3    H127595   3.371   3.260   7.883  0.2461  0.4591 -0.2047
 2012TIP3    H227596   3.306   3.394   7.857 -1.1567 -0.1627  0.0303
 2013TIP3   OH227597   0.335   4.692   2.313  0.6476  0.1738  0.1565
 2013TIP3    H127598   0.241   4.678   2.323  0.1661  0.6979 -2.6386
 2013TIP3    H227599   0.373   4.604   2.313 -0.4462 -0.4043 -2.6967
 2014TIP3   OH227600   5.123   2.842   7.981  0.4717  0.0536  0.1851
 2014TIP3    H127601   5.078   2.802   8.055  0.5718 -0.3031  0.0523
 2014TIP3    H227602   5.056   2.852   7.914  0.3634  0.4470  0.3510
 2015TIP3   OH227603   5.928   0.764   1.607 -0.1348 -0.5767  0.4050
 2015TIP3    H127604   5.906   0.836   1.666 -0.3967  0.3785 -0.8116
 2015TIP3    H227605   5.869   0.693   1.632  2.0733 -1.5049  3.5803
 2016TIP3   OH227606   4.414   6.219   8.348 -0.3778  0.1018 -0.2166
 2016TIP3    H127607   4.377   6.278   8.414 -1.0572  0.1038 -0.5854
 2016TIP3    H227608   4.481   6.272   8.304  0.0861  0.0962  0.4688
 2017TIP3   OH227609   5.855   0.977   7.126  0.0490  0.3475 -0.2707
 2017TIP3    H127610   5.823   1.052   7.076 -0.7708 -1.8008 -3.2768
 2017TIP3    H227611   5.937   0.953   7.082 -0.5441 -1.4615 -0.4741
 2018TIP3   OH227612   3.473   5.439   7.471 -0.0070 -0.3397 -0.1959
 2018TIP3    H127613   3.518   5.362   7.437 -1.0063 -1.6511  1.3230
 2018TIP3    H227614   3.399   5.452   7.412 -0.5307 -1.3199  0.2186
 2019TIP3   OH227615   2.774   5.785   3.109 -0.3789  0.5657 -0.1367
 2019TIP3    H127616   2.759   5.710   3.052 -2.1158 -0.0906  1.0972
 2019TIP3    H227617   2.767   5.861   3.052 -0.5502 -0.1379 -1.0675
 2020TIP3   OH227618   5.615   1.739   2.561  0.0882 -0.5461  0.8000
 2020TIP3    H127619   5.581   1.669   2.505 -2.2394  1.0095  0.1059
 2020TIP3    H227620   5.537   1.772   2.607  1.2355  1.0992  1.6592
 2021TIP3   OH227621   5.036   4.989   7.516 -0.2218  0.5414 -0.5318
 2021TIP3    H127622   4.954   4.949   7.487  0.7952 -1.5311 -0.7588
 2021TIP3    H227623   5.050   4.954   7.604 -0.5103  2.4334  0.3215
 2022TIP3   OH227624   5.326   2.251   0.732 -0.2195  0.4282 -0.3403
 2022TIP3    H127625   5.364   2.307   0.800 -0.8356  0.9230 -0.3941
 2022TIP3    H227626   5.384   2.176   0.728  0.3072  0.8003  0.1332
 2023TIP3   OH227627   2.688   6.567   7.380 -0.2898  0.0050  0.1433
 2023TIP3    H127628   2.631   6.570   7.457 -0.0297  1.6907  0.3024
 2023TIP3    H227629   2.777   6.574   7.415 -0.1200 -0.1878 -0.2469
 2024TIP3   OH227630   2.811   0.714   8.277 -0.2733  0.3294  0.5787
 2024TIP3    H127631   2.852   0.744   8.196  0.7806  0.7185  1.2423
 2024TIP3    H227632   2.822   0.619   8.274 -0.5879  0.3012  0.0887
 2025TIP3   OH227633   3.939   5.945   2.923  0.4781 -0.3714 -0.1270
 2025TIP3    H127634   4.018   5.998   2.935  2.5664 -3.0480 -0.8661
 2025TIP3    H227635   3.972   5.855   2.920 -2.7334 -1.6748  0.2087
 2026TIP3   OH227636   4.766   4.559   8.709 -0.1316 -0.3247  0.2157
 2026TIP3    H127637   4.804   4.640   8.745 -0.2233  0.2269 -0.8794
 2026TIP3    H227638   4.743   4.507   8.786 -1.8343  1.5050  1.0246
 2027TIP3   OH227639   0.329   0.574   0.647 -0.0670  0.1008  0.1467
 2027TIP3    H127640   0.373   0.650   0.685 -1.2442  0.9724 -0.1742
 2027TIP3    H227641   0.276   0.539   0.719  0.9835 -0.8534  0.4893
 2028TIP3   OH227642   6.146   5.818   2.450 -0.7122  0.8952 -0.0782
 2028TIP3    H127643   6.140   5.733   2.495 -0.3496  1.8601  1.8842
 2028TIP3    H227644   6.202   5.871   2.507 -2.4900  3.0662 -0.2527
 2029TIP3   OH227645   5.365   6.108   7.435  0.1784 -0.0826  0.1516
 2029TIP3    H127646   5.321   6.164   7.371  1.2897 -0.8236 -1.3196
 2029TIP3    H227647   5.449   6.152   7.452  0.1701 -0.2332  0.6045
 2030TIP3   OH227648   0.432   2.330   1.859 -0.3596 -0.0960  0.0130
 2030TIP3    H127649   0.514   2.294   1.825 -1.2466 -1.3033 -0.9604
 2030TIP3    H227650   0.412   2.277   1.936 -0.0829  0.4040  0.4361
 2031TIP3   OH227651   0.689   3.621   8.213  0.3249  0.2601 -0.3422
 2031TIP3    H127652   0.670   3.530   8.236  2.2454 -1.4279 -4.4160
 2031TIP3    H227653   0.760   3.647   8.273  0.7228 -1.4430 -0.0221
 2032TIP3   OH227654   0.876   1.512   2.267 -0.1180 -0.0228 -0.5224
 2032TIP3    H127655   0.879   1.422   2.300 -0.5802  0.0997 -0.1274
 2032TIP3    H227656   0.852   1.565   2.344 -3.4205  0.0224 -1.4264
 2033TIP3   OH227657   0.096   5.946   7.719 -0.2444 -0.1676 -0.0227
 2033TIP3    H127658   0.011   5.985   7.739 -1.5716 -2.1088 -1.5478
 2033TIP3    H227659   0.145   6.017   7.677 -1.4127  0.7413  0.0844
 2034TIP3   OH227660   0.867   1.914   0.876  0.2099  0.3030  0.3718
 2034TIP3    H127661   0.958   1.937   0.894  0.0358  1.3251  0.0544
 2034TIP3    H227662   0.817   1.974   0.932 -0.2725 -0.1164  0.3927
 2035TIP3   OH227663   6.085   4.021   7.830 -0.6423 -0.1479 -0.0989
 2035TIP3    H127664   6.096   3.990   7.920 -0.0602 -0.1022 -0.1471
 2035TIP3    H227665   6.012   3.970   7.796 -1.2392  0.2351  0.5735
 2036TIP3   OH227666   1.697   0.827   6.323  0.1131  0.0454  0.8501
 2036TIP3    H127667   1.616   0.781   6.304  0.1461 -0.8239  2.6572
 2036TIP3    H227668   1.673   0.892   6.389  0.6511  0.6784  0.4431
 2037TIP3   OH227669   5.972   2.679   8.602  0.6807 -0.3525  0.7056
 2037TIP3    H127670   6.054   2.630   8.593  0.8031 -0.1909  0.9356
 2037TIP3    H227671   5.953   2.711   8.514  0.0786 -1.6470  0.3297
 2038TIP3   OH227672   4.539   5.233   0.879 -0.2042  0.0695 -0.6498
 2038TIP3    H127673   4.509   5.324   0.881  1.2387  0.5739 -0.8963
 2038TIP3    H227674   4.564   5.213   0.969 -0.5668 -0.1061 -0.5861
 2039TIP3   OH227675   0.903   2.102   8.152 -0.3345 -0.1457 -0.0100
 2039TIP3    H127676   0.874   2.194   8.157  1.3601  0.3644  1.2655
 2039TIP3    H227677   0.906   2.083   8.059 -1.1855  0.9305 -0.2814
 2040TIP3   OH227678   5.987   1.099   1.261  0.3123 -0.1783 -0.0732
 2040TIP3    H127679   6.007   1.047   1.339 -0.7018  0.0026  0.3227
 2040TIP3    H227680   5.904   1.143   1.282  0.6200  0.7881 -0.7981
 2041TIP3   OH227681   5.454   2.081   2.017 -0.0829 -0.0301  0.0327
 2041TIP3    H127682   5.401   2.137   2.074 -0.9476 -2.5595  1.9040
 2041TIP3    H227683   5.527   2.053   2.072  2.6848  2.4054 -2.1358
 2042TIP3   OH227684   2.658   3.143   1.751  0.5197 -0.0869 -0.4810
 2042TIP3    H127685   2.647   3.237   1.766  1.5445  0.0677 -0.5955
 2042TIP3    H227686   2.592   3.121   1.686  1.2471  0.8743 -1.5876
 2043TIP3   OH227687   5.634   5.128   0.119  0.1741  0.1431 -0.0409
 2043TIP3    H127688   5.633   5.219   0.150  0.4721 -0.1153  0.7550
 2043TIP3    H227689   5.543   5.099   0.127  0.6234 -0.7606  3.2591
 2044TIP3   OH227690   3.864   1.186   0.854 -0.2868  0.5943 -0.3354
 2044TIP3    H127691   3.829   1.097   0.864 -0.9552  1.0260  1.6970
 2044TIP3    H227692   3.884   1.193   0.761 -1.6213 -1.1682 -0.8297
 2045TIP3   OH227693   4.716   5.622   1.241 -0.1192  0.6430  0.1163
 2045TIP3    H127694   4.722   5.669   1.158 -0.4008  0.6573  0.1042
 2045TIP3    H227695   4.627   5.588   1.243  0.3330 -0.6327 -0.2700
 2046TIP3   OH227696   2.556   4.666   6.645 -0.1331 -0.1678 -0.0772
 2046TIP3    H127697   2.650   4.647   6.648 -0.3041 -1.8295 -2.3924
 2046TIP3    H227698   2.517   4.603   6.706  0.0698 -1.3088 -1.0947
 2047TIP3   OH227699   6.010   0.400   1.581 -0.1138  0.3549  0.4570
 2047TIP3    H127700   6.051   0.396   1.668  0.4858  0.4659  0.1805
 2047TIP3    H227701   5.989   0.493   1.569 -1.6862  0.1306  1.1567
 2048TIP3   OH227702   1.394   5.666   0.141  0.1669  0.5554  0.0757
 2048TIP3    H127703   1.432   5.748   0.172  0.2482  0.7643 -0.5603
 2048TIP3    H227704   1.469   5.617   0.105  0.1581  0.1001  0.6700
 2049TIP3   OH227705   5.466   2.043   0.872  0.0398  0.1074 -0.0989
 2049TIP3    H127706   5.422   1.963   0.899  1.7885 -0.5540  0.9480
 2049TIP3    H227707   5.461   2.100   0.948  0.1560  0.3885 -0.2987
 2050TIP3   OH227708   6.019   5.759   0.483 -0.1228 -0.1775  0.1527
 2050TIP3    H127709   6.034   5.791   0.394 -1.2082  2.8408  0.9517
 2050TIP3    H227710   6.039   5.833   0.540 -2.7012 -0.8907  2.1977
 2051TIP3   OH227711   6.221   2.806   1.287  0.3035 -0.2712 -0.0171
 2051TIP3    H127712   6.222   2.808   1.383  0.1892  0.5032 -0.0230
 2051TIP3    H227713   6.304   2.846   1.261 -0.3192  0.9503 -0.2292
 2052TIP3   OH227714   3.971   1.434   7.301  0.5712  0.5061 -0.2237
 2052TIP3    H127715   4.010   1.495   7.239  0.4439 -0.9071 -1.7599
 2052TIP3    H227716   3.876   1.450   7.295  0.5984  0.7677  0.0434
 2053TIP3   OH227717   0.368   5.167   6.889 -0.4392 -0.3548  0.7752
 2053TIP3    H127718   0.364   5.080   6.929 -0.4171 -1.2914 -1.1554
 2053TIP3    H227719   0.279   5.183   6.857 -0.5971  0.6259  1.6469
 2054TIP3   OH227720   5.309   0.605   0.329  0.3658 -0.0979 -0.0149
 2054TIP3    H127721   5.237   0.548   0.302  1.6943 -1.6016 -0.5762
 2054TIP3    H227722   5.377   0.590   0.264  1.1480  1.4059  0.4051
 2055TIP3   OH227723   3.165   0.730   2.660 -0.2402 -0.1790 -0.0702
 2055TIP3    H127724   3.084   0.688   2.690  0.4062 -1.7230 -0.3934
 2055TIP3    H227725   3.234   0.689   2.712  0.5024 -0.0680 -0.9451
 2056TIP3   OH227726   6.567   1.177   2.512  0.4673 -0.3075 -0.2218
 2056TIP3    H127727   6.597   1.267   2.520 -0.3137 -0.0800  0.1820
 2056TIP3    H227728   6.479   1.177   2.550  1.7276 -1.9504  3.0821
 2057TIP3   OH227729   6.674   2.935   7.431  0.3042 -0.7067  0.1780
 2057TIP3    H127730   6.621   2.990   7.489  0.2875 -1.7368  1.1690
 2057TIP3    H227731   6.622   2.929   7.351  0.0670  0.2849  0.2503
 2058TIP3   OH227732   5.922   1.830   1.924 -0.3454 -0.4621 -0.2523
 2058TIP3    H127733   5.928   1.806   1.831 -0.7238  1.8689 -0.9268
 2058TIP3    H227734   6.013   1.829   1.954 -0.2547 -1.6363 -0.4970
 2059TIP3   OH227735   0.697   0.038   8.357 -0.1146  0.1431  0.3229
 2059TIP3    H127736   0.691  -0.057   8.349  1.0655  0.1814 -1.7035
 2059TIP3    H227737   0.673   0.070   8.270  3.3979  1.4519 -0.3051
 2060TIP3   OH227738   4.778   2.964   1.092  0.1031  0.5185 -0.0062
 2060TIP3    H127739   4.735   3.016   1.160 -2.0309 -2.6229  1.3104
 2060TIP3    H227740   4.846   2.915   1.138 -0.9064 -1.1352 -0.1903
 2061TIP3   OH227741   6.332   2.490   0.799  0.6216 -0.2392  0.2164
 2061TIP3    H127742   6.408   2.518   0.850  0.8279 -0.2662 -0.0765
 2061TIP3    H227743   6.366   2.477   0.710 -0.0273  1.2843 -0.2934
 2062TIP3   OH227744   3.580   0.763   7.186  0.0758 -0.3879 -0.2257
 2062TIP3    H127745   3.572   0.738   7.095  3.9328 -3.0259 -0.0668
 2062TIP3    H227746   3.645   0.834   7.187  1.2848 -1.4447  0.4679
 2063TIP3   OH227747   2.993   5.249   8.447  0.0107 -0.3611  0.2906
 2063TIP3    H127748   3.063   5.199   8.488  0.2038  0.8664  1.5304
 2063TIP3    H227749   3.038   5.304   8.383  0.0469 -0.2846  0.3826
 2064TIP3   OH227750   3.311   6.654   1.220 -0.1105  0.2696  0.0650
 2064TIP3    H127751   3.311   6.601   1.301  1.5301  2.8505  1.9037
 2064TIP3    H227752   3.219   6.662   1.197 -0.5334 -1.7005  0.8442
 2065TIP3   OH227753   1.967   3.707   7.747  0.2421  0.6240  0.3102
 2065TIP3    H127754   1.895   3.675   7.802  1.4340 -0.5356  1.2455
 2065TIP3    H227755   1.969   3.801   7.764 -0.0556  0.4404  1.5022
 2066TIP3   OH227756   1.715   6.008   1.352 -0.3472  0.1873  0.4149
 2066TIP3    H127757   1.672   5.998   1.437  0.3849 -0.0740  0.7652
 2066TIP3    H227758   1.808   6.001   1.372 -0.1649  0.2279 -0.4013
 2067TIP3   OH227759   0.046   5.004   1.816 -0.0070  0.3708 -0.1830
 2067TIP3    H127760  -0.028   5.025   1.759 -0.0471  0.6497 -0.0253
 2067TIP3    H227761   0.120   5.052   1.779 -0.1086  0.8267  0.2005
 2068TIP3   OH227762   6.145   0.393   1.812 -0.3908  0.2414 -0.0383
 2068TIP3    H127763   6.205   0.321   1.791 -0.4490  0.1469  0.1169
 2068TIP3    H227764   6.158   0.408   1.906 -0.5983  0.2341 -0.0092
 2069TIP3   OH227765   1.877   6.427   8.388  0.4585 -0.3085 -0.0029
 2069TIP3    H127766   1.900   6.341   8.424 -1.4011 -0.4440  1.0263
 2069TIP3    H227767   1.845   6.476   8.464  0.7415  1.0072 -0.7221
 2070TIP3   OH227768   2.759   6.296   1.154  0.8260 -0.3302  0.4516
 2070TIP3    H127769   2.672   6.328   1.133  0.5589 -1.0850  0.3699
 2070TIP3    H227770   2.818   6.354   1.107  0.4732  1.3171  1.9445
 2071TIP3   OH227771   0.320   0.205   8.267  0.2621  0.4790 -0.4593
 2071TIP3    H127772   0.313   0.257   8.187 -1.0314 -0.0337 -0.7027
 2071TIP3    H227773   0.374   0.130   8.243  0.9712  0.9847 -0.4813
 2072TIP3   OH227774   5.180   6.048   1.600  0.1089  0.5452  0.3029
 2072TIP3    H127775   5.159   5.992   1.525  1.2925  1.1056 -0.4754
 2072TIP3    H227776   5.095   6.081   1.630 -0.4138  0.0148 -0.5513
 2073TIP3   OH227777   0.971   3.843   2.527  0.0914  0.2719 -0.5297
 2073TIP3    H127778   0.889   3.824   2.482  0.1365 -0.7557 -0.2083
 2073TIP3    H227779   0.947   3.904   2.596 -0.4840 -0.3015 -0.2090
 2074TIP3   OH227780   0.074   5.699   7.233 -0.2668  0.3564  0.3246
 2074TIP3    H127781  -0.001   5.688   7.175 -0.6249  0.0660  0.8344
 2074TIP3    H227782   0.140   5.743   7.180 -1.3802  2.1208  0.3375
 2075TIP3   OH227783   4.344   2.299   7.857 -0.2925  0.0403  0.1576
 2075TIP3    H127784   4.311   2.273   7.943 -1.3340 -0.9691 -0.5197
 2075TIP3    H227785   4.410   2.233   7.835 -1.3957 -0.8434 -0.6234
 2076TIP3   OH227786   4.507   3.678   0.236 -0.3470  0.2753  0.2870
 2076TIP3    H127787   4.416   3.705   0.251  0.0816  0.6551  2.5499
 2076TIP3    H227788   4.554   3.760   0.219  0.3457  0.7943  3.8563
 2077TIP3   OH227789   5.513   2.547   2.511  0.3309  0.0181 -0.3414
 2077TIP3    H127790   5.553   2.607   2.574 -0.2133 -0.0448  0.0709
 2077TIP3    H227791   5.424   2.534   2.543  0.3616 -0.8064 -0.5725
 2078TIP3   OH227792   0.647   6.362   8.112 -0.0537 -0.0714 -0.4894
 2078TIP3    H127793   0.734   6.344   8.079  0.5237  1.1454  0.2926
 2078TIP3    H227794   0.642   6.315   8.195  0.4102  0.9630  0.1563
 2079TIP3   OH227795   1.150   2.901   0.125 -0.0773 -0.1770 -0.6121
 2079TIP3    H127796   1.056   2.920   0.119 -0.4398 -1.1243  1.4238
 2079TIP3    H227797   1.155   2.819   0.174  1.8862  0.9386  1.1912
 2080TIP3   OH227798   0.117   6.023   0.468 -0.2794 -0.1751  0.0859
 2080TIP3    H127799   0.133   5.950   0.528  0.6734 -0.9035 -1.0096
 2080TIP3    H227800   0.089   5.981   0.386  1.1139  0.5964 -0.8369
 2081TIP3   OH227801   6.144   3.276   7.736 -0.0360  0.2395  0.5827
 2081TIP3    H127802   6.190   3.359   7.727 -0.0300  0.5164  2.6313
 2081TIP3    H227803   6.057   3.299   7.767 -0.6393 -0.4456 -0.5329
 2082TIP3   OH227804   0.492   2.997   0.608  0.3026 -0.0731  0.4570
 2082TIP3    H127805   0.481   3.092   0.600 -1.1686 -0.3347 -1.2216
 2082TIP3    H227806   0.451   2.976   0.692 -0.9666  0.5798  0.0324
 2083TIP3   OH227807   0.713   1.180   1.719  0.5202 -0.0542 -0.0749
 2083TIP3    H127808   0.663   1.179   1.801  2.7413  1.3080  1.4247
 2083TIP3    H227809   0.648   1.162   1.651 -1.5511 -0.5730  1.9052
 2084TIP3   OH227810   3.389   5.001   8.257 -0.3224  0.3156 -0.0800
 2084TIP3    H127811   3.433   5.025   8.176 -0.6376  3.3150  0.4883
 2084TIP3    H227812   3.315   4.947   8.230  1.5709 -1.7994 -1.3655
 2085TIP3   OH227813   4.998   2.724   2.915  0.2388 -0.0021  0.1312
 2085TIP3    H127814   5.043   2.730   2.831  1.5466  0.0708  0.8184
 2085TIP3    H227815   5.032   2.644   2.955 -1.1230 -0.5888  0.1906
 2086TIP3   OH227816   5.199   4.279   1.162 -0.7016  0.1465 -0.3259
 2086TIP3    H127817   5.157   4.215   1.104  0.5318 -0.5363 -0.4975
 2086TIP3    H227818   5.272   4.314   1.110  1.3780 -1.5653  1.2464
 2087TIP3   OH227819   1.659   3.139   1.166 -0.6808 -0.3352  0.2684
 2087TIP3    H127820   1.603   3.127   1.089 -0.4948  2.5467 -0.4410
 2087TIP3    H227821   1.602   3.121   1.240 -2.1330  0.8829 -0.4847
 2088TIP3   OH227822   2.302   0.671   7.314 -0.4666  0.4119  0.1564
 2088TIP3    H127823   2.358   0.640   7.386  0.9318  0.8554 -0.6978
 2088TIP3    H227824   2.251   0.742   7.353 -1.3448 -0.7793  1.2699
 2089TIP3   OH227825   1.879   5.979   2.228  0.0078 -0.4902  0.3097
 2089TIP3    H127826   1.875   5.895   2.272  0.0577  0.5426  2.3909
 2089TIP3    H227827   1.792   6.017   2.240  0.1634  0.0057 -0.0818
 2090TIP3   OH227828   3.576   0.026   8.287  0.3218 -0.1113  0.0855
 2090TIP3    H127829   3.631  -0.010   8.357  0.9589 -0.2018 -0.4519
 2090TIP3    H227830   3.625   0.102   8.255 -0.2651  0.3006  0.1542
 2091TIP3   OH227831   4.868   5.124   1.251  0.4750  0.4990  0.4947
 2091TIP3    H127832   4.876   5.213   1.285  1.5428  0.2482  0.9443
 2091TIP3    H227833   4.958   5.099   1.228 -0.0246  0.1292 -1.1699
 2092TIP3   OH227834   3.260   5.466   6.830  0.7986  0.3548  0.9358
 2092TIP3    H127835   3.185   5.475   6.888 -0.6355  0.1136 -0.8045
 2092TIP3    H227836   3.293   5.378   6.845  0.8126  0.5070  1.8039
 2093TIP3   OH227837   4.172   6.401   0.874  0.5733  0.5278 -0.1743
 2093TIP3    H127838   4.134   6.395   0.961 -1.3528  1.2507 -0.9109
 2093TIP3    H227839   4.177   6.495   0.856 -1.5152  0.4055 -1.7894
 2094TIP3   OH227840   0.792   5.170   8.696  0.2245 -0.8446  0.3779
 2094TIP3    H127841   0.745   5.113   8.634 -1.4414 -0.5983  1.3329
 2094TIP3    H227842   0.725   5.194   8.760  1.4780  0.3178  1.2922
 2095TIP3   OH227843   6.196   6.129   1.109  0.0859  0.1098  0.3521
 2095TIP3    H127844   6.169   6.189   1.178 -1.7774 -0.8463  0.5022
 2095TIP3    H227845   6.273   6.084   1.146  0.1052  0.7596  1.1404
 2096TIP3   OH227846   4.555   5.526   7.371  0.3158  0.2244 -0.1160
 2096TIP3    H127847   4.564   5.473   7.450 -1.4266  1.8500  1.2867
 2096TIP3    H227848   4.488   5.481   7.320 -0.5057  0.5445  0.6437
 2097TIP3   OH227849   0.230   2.533   0.213 -0.3364  0.7078 -0.1684
 2097TIP3    H127850   0.302   2.475   0.190 -1.5810 -0.3229 -1.6594
 2097TIP3    H227851   0.249   2.615   0.168  0.3323  0.7264  0.1476
 2098TIP3   OH227852   1.957   4.908   8.749 -0.1947 -0.7095  0.1056
 2098TIP3    H127853   2.041   4.911   8.702 -0.4823  1.7060 -0.3807
 2098TIP3    H227854   1.915   4.828   8.718  0.8888 -0.7028 -1.5172
 2099TIP3   OH227855   4.902   1.035   7.797  0.2187  0.5783 -0.5038
 2099TIP3    H127856   4.932   0.956   7.753  0.1253 -0.0389  0.5178
 2099TIP3    H227857   4.960   1.104   7.765 -1.4870  0.7533 -3.6931
 2100TIP3   OH227858   4.883   3.709   0.717 -0.0979 -0.2157 -0.3747
 2100TIP3    H127859   4.976   3.690   0.713 -0.1515 -0.3444 -1.1218
 2100TIP3    H227860   4.858   3.692   0.808  0.3472 -1.3798 -0.4673
 2101TIP3   OH227861   4.736   2.662   2.727  0.0298  0.4773 -0.7644
 2101TIP3    H127862   4.760   2.571   2.706  2.6245  1.7504 -4.4003
 2101TIP3    H227863   4.681   2.655   2.804 -0.6054 -4.2537 -1.3461
 2102TIP3   OH227864   1.381   0.760   1.119  0.3130 -0.6917  0.2799
 2102TIP3    H127865   1.294   0.751   1.082  0.8353  0.9100 -1.4896
 2102TIP3    H227866   1.367   0.796   1.207 -0.8305 -2.0958  0.7106
 2103TIP3   OH227867   3.995   3.872   0.217 -0.4221  1.0508  0.2724
 2103TIP3    H127868   3.901   3.859   0.207 -0.0206 -1.4152 -0.8554
 2103TIP3    H227869   4.002   3.960   0.255 -3.1615  1.2179  0.6379
 2104TIP3   OH227870   5.863   5.663   7.301 -0.4147 -1.1537  0.4815
 2104TIP3    H127871   5.769   5.664   7.280 -0.1973  1.0430 -0.7814
 2104TIP3    H227872   5.885   5.756   7.314  1.3683 -1.7173  1.9523
 2105TIP3   OH227873   0.894   3.285   7.309 -0.7631  0.0586 -0.1570
 2105TIP3    H127874   0.909   3.362   7.255 -0.1703 -0.2566 -0.4469
 2105TIP3    H227875   0.912   3.211   7.251  1.3974 -0.2917  0.8662
 2106TIP3   OH227876   5.977   6.476   1.509 -0.6053 -0.1286  0.0419
 2106TIP3    H127877   5.917   6.427   1.453  2.8962 -2.0998 -2.3734
 2106TIP3    H227878   6.005   6.550   1.456 -0.5283  0.5082  0.9463
 2107TIP3   OH227879   0.727   4.837   0.689  0.1290  0.6143 -0.2206
 2107TIP3    H127880   0.809   4.805   0.727 -0.9933 -1.5718  0.5083
 2107TIP3    H227881   0.747   4.849   0.596  1.8254  2.2673  0.2732
 2108TIP3   OH227882   3.216   6.074   1.845 -0.0744 -0.0073 -0.2271
 2108TIP3    H127883   3.233   6.161   1.807 -0.2394 -0.6749 -1.9268
 2108TIP3    H227884   3.296   6.024   1.826 -0.7707 -0.8151 -1.1126
 2109TIP3   OH227885   0.483   4.393   7.700 -0.6431 -0.5594  0.0220
 2109TIP3    H127886   0.401   4.344   7.707  0.6200 -2.8920 -0.3545
 2109TIP3    H227887   0.507   4.387   7.608 -0.5217  0.9756 -0.0721
 2110TIP3   OH227888   6.456   3.945   8.696  0.3728 -0.5902  0.0078
 2110TIP3    H127889   6.462   3.928   8.790  0.6259  1.9708  0.5357
 2110TIP3    H227890   6.362   3.940   8.677  0.3398 -1.3534  0.3330
 2111TIP3   OH227891   0.019   1.246   0.573 -0.1677 -0.3907 -0.1488
 2111TIP3    H127892  -0.000   1.331   0.533 -1.2809 -0.5329  0.0568
 2111TIP3    H227893  -0.044   1.239   0.645 -0.5892 -1.7028 -0.6178
 2112TIP3   OH227894   4.993   4.900   2.023 -0.1694  0.1346  0.1760
 2112TIP3    H127895   5.075   4.940   2.052 -0.8386  0.6689  1.4267
 2112TIP3    H227896   4.941   4.972   1.990 -0.6958  0.0488  0.7848
 2113TIP3   OH227897   5.420   5.867   1.254 -0.2183  0.4895 -0.1102
 2113TIP3    H127898   5.406   5.847   1.347 -1.3928  1.4529 -0.0500
 2113TIP3    H227899   5.346   5.923   1.231 -0.9231 -1.1496 -2.0905
 2114TIP3   OH227900   5.490   4.099   2.112  0.2353 -0.0711 -0.6541
 2114TIP3    H127901   5.470   4.175   2.167 -2.2478 -0.6451 -0.6662
 2114TIP3    H227902   5.446   4.026   2.155  2.4994 -1.5731 -0.6835
 2115TIP3   OH227903   3.181   5.262   7.996  0.3830  0.4104  0.2495
 2115TIP3    H127904   3.193   5.167   7.996  3.2184  0.5971 -2.6223
 2115TIP3    H227905   3.087   5.274   7.989 -0.0456 -2.1647  0.5287
 2116TIP3   OH227906   3.790   2.028   8.195 -0.4049  0.0494  0.2307
 2116TIP3    H127907   3.799   2.080   8.275 -1.4906 -0.1715  0.5188
 2116TIP3    H227908   3.695   2.016   8.185 -0.2391 -0.6860 -0.5997
 2117TIP3   OH227909   6.311   1.605   7.581 -0.1734 -0.5683  0.8403
 2117TIP3    H127910   6.261   1.625   7.660 -1.8024 -1.0364 -0.0204
 2117TIP3    H227911   6.361   1.527   7.603 -1.9726 -1.7572  0.8902
 2118TIP3   OH227912   1.405   5.664   0.427  0.1256 -0.6303  0.2818
 2118TIP3    H127913   1.392   5.649   0.334 -1.7729 -2.6867  0.7672
 2118TIP3    H227914   1.374   5.753   0.442  2.0283  0.3426 -1.2502
 2119TIP3   OH227915   0.535   4.335   1.998  0.5594 -0.9312 -0.0716
 2119TIP3    H127916   0.542   4.240   1.988  1.2311 -0.8748 -0.2354
 2119TIP3    H227917   0.452   4.349   2.043  0.5998 -1.6156  0.2294
 2120TIP3   OH227918   1.018   2.737   0.971  0.6429  0.3696  0.8969
 2120TIP3    H127919   1.056   2.731   0.883 -1.6267 -0.0458 -0.1212
 2120TIP3    H227920   0.925   2.748   0.956 -0.1721 -2.1823  3.2738
 2121TIP3   OH227921   2.738   5.940   6.776 -0.1734 -0.0272  0.5405
 2121TIP3    H127922   2.737   6.032   6.800  0.4936 -0.4529  2.3725
 2121TIP3    H227923   2.830   5.920   6.760 -0.3257 -0.3627  0.0453
 2122TIP3   OH227924   4.013   1.024   8.077  0.0436 -0.5499  0.0161
 2122TIP3    H127925   4.042   0.994   8.163 -0.5285 -0.0233  0.3977
 2122TIP3    H227926   3.934   1.076   8.094 -0.8600 -1.5494 -0.9505
 2123TIP3   OH227927   4.146   3.527   1.514  0.2656 -0.1937  0.3838
 2123TIP3    H127928   4.180   3.600   1.462 -0.7313 -0.1311 -0.2020
 2123TIP3    H227929   4.200   3.527   1.593 -0.5642  2.0635  1.0320
 2124TIP3   OH227930   3.037   3.864   8.720 -0.2531  0.1135 -0.2433
 2124TIP3    H127931   3.096   3.826   8.786 -0.2909  0.9004  0.2515
 2124TIP3    H227932   2.959   3.809   8.724 -1.6047  1.9822  2.6904
 2125TIP3   OH227933   3.007   5.423   1.855 -0.1984  0.3702  0.4931
 2125TIP3    H127934   2.956   5.383   1.925 -0.5684  1.0881  0.6509
 2125TIP3    H227935   2.982   5.375   1.776 -0.6457  0.3026  0.6733
 2126TIP3   OH227936   0.386   2.792   0.888 -0.3582  0.3814  0.3419
 2126TIP3    H127937   0.338   2.757   0.963  0.6270  1.7272  1.6591
 2126TIP3    H227938   0.320   2.839   0.838 -0.8926  0.0838  0.7496
 2127TIP3   OH227939   3.536   5.042   1.432 -0.3574 -0.2717 -0.2718
 2127TIP3    H127940   3.446   5.043   1.401 -0.2423 -0.4883 -0.6187
 2127TIP3    H227941   3.530   5.009   1.522 -0.4729 -1.8009 -0.8128
 2128TIP3   OH227942   2.314   5.318   7.449  0.1182  0.5739  0.0866
 2128TIP3    H127943   2.269   5.363   7.377 -0.9872  1.5351  1.3179
 2128TIP3    H227944   2.407   5.322   7.426 -0.2040  0.8651 -1.2663
 2129TIP3   OH227945   0.037   0.075   8.414  0.4111 -0.2130  0.0057
 2129TIP3    H127946   0.031   0.024   8.333 -0.7636 -0.6277  0.3300
 2129TIP3    H227947   0.130   0.074   8.437  0.5696 -1.2051 -0.6327
 2130TIP3   OH227948   3.896   3.293   2.332  0.1242 -0.8234 -0.1831
 2130TIP3    H127949   3.974   3.319   2.379  0.8575  0.7304 -2.1143
 2130TIP3    H227950   3.834   3.365   2.344  0.1673 -0.5978 -1.1761
 2131TIP3   OH227951   5.389   4.402   1.831 -0.1898 -1.0277  0.2774
 2131TIP3    H127952   5.393   4.306   1.832 -0.9333 -1.0624  0.2977
 2131TIP3    H227953   5.298   4.423   1.852 -0.8801 -0.3962 -2.7847
 2132TIP3   OH227954   2.889   1.233   6.864 -0.3370  0.2353 -0.1052
 2132TIP3    H127955   2.900   1.212   6.957 -1.2245  0.6014  0.0895
 2132TIP3    H227956   2.929   1.319   6.854  3.5704 -1.4535 -0.9649
 2133TIP3   OH227957   5.263   3.083   1.027  0.3660  0.0553  0.3297
 2133TIP3    H127958   5.296   3.159   1.076  1.1739 -0.7105  0.9968
 2133TIP3    H227959   5.176   3.110   0.997  0.5611  1.1693  0.7215
 2134TIP3   OH227960   5.069   3.768   1.019  0.9651  0.7456 -0.1251
 2134TIP3    H127961   4.976   3.789   1.008  0.8696 -0.5213 -2.6646
 2134TIP3    H227962   5.072   3.672   1.023  2.0573  0.8098  1.8101
 2135TIP3   OH227963   2.556   3.083   0.647 -0.6090 -0.3271  0.3192
 2135TIP3    H127964   2.579   3.176   0.641 -1.2389 -0.2103 -0.5846
 2135TIP3    H227965   2.485   3.080   0.711  0.1620 -0.3489  1.1944
 2136TIP3   OH227966   4.953   3.312   0.697 -0.1144 -0.2322  0.0428
 2136TIP3    H127967   4.963   3.364   0.618  0.6105 -0.3662  0.0452
 2136TIP3    H227968   4.925   3.226   0.666 -0.6676 -0.0410 -0.0037
 2137TIP3   OH227969   4.198   0.075   6.841  0.2860  0.2801 -0.2196
 2137TIP3    H127970   4.260   0.113   6.779 -0.6907  0.8813 -0.8486
 2137TIP3    H227971   4.252   0.048   6.915  1.5729 -0.9826 -1.5448
 2138TIP3   OH227972   5.002   1.176   7.436  0.6374  0.1377  0.2236
 2138TIP3    H127973   4.982   1.263   7.401 -1.3264 -1.1443 -2.1562
 2138TIP3    H227974   4.969   1.177   7.526 -0.2933  1.5393 -0.1078
 2139TIP3   OH227975   2.342   3.689   8.506  0.2156  0.0826 -0.1212
 2139TIP3    H127976   2.426   3.687   8.460 -0.4683  1.3692 -1.5204
 2139TIP3    H227977   2.305   3.775   8.485 -1.9581 -0.8699 -0.5288
 2140TIP3   OH227978   5.209   5.340   7.662  0.2598 -0.3264 -0.3542
 2140TIP3    H127979   5.164   5.308   7.584 -0.4073  0.0134 -0.1125
 2140TIP3    H227980   5.287   5.284   7.670 -0.5199 -1.4280 -0.3193
 2141TIP3   OH227981   6.807   5.064   0.720  0.0648 -0.2260  0.3175
 2141TIP3    H127982   6.866   5.017   0.661  1.3629 -0.2756  1.6113
 2141TIP3    H227983   6.843   5.153   0.725 -1.2435  0.3806 -0.5677
 2142TIP3   OH227984   6.083   2.651   7.097 -0.3856 -0.3876 -0.2020
 2142TIP3    H127985   5.993   2.623   7.111 -0.7492 -0.3663 -2.2081
 2142TIP3    H227986   6.135   2.572   7.113 -0.4082  0.1288  3.3413
 2143TIP3   OH227987   6.033   1.967   7.888  0.5486 -0.0199  0.0420
 2143TIP3    H127988   5.968   1.909   7.927  1.0620 -0.4631  0.2613
 2143TIP3    H227989   6.095   1.985   7.959  0.3799  0.8324 -0.0162
 2144TIP3   OH227990   3.973   4.315   7.959 -0.0838  0.3111 -0.3401
 2144TIP3    H127991   3.987   4.296   8.051 -1.1496 -0.4692 -0.3148
 2144TIP3    H227992   4.057   4.299   7.918  0.3548  0.5061  0.4692
 2145TIP3   OH227993   5.448   1.957   0.050 -0.4339 -0.0302 -0.4321
 2145TIP3    H127994   5.353   1.966   0.042 -0.2588  0.7204 -2.0758
 2145TIP3    H227995   5.480   2.047   0.056  0.2629 -0.1796 -1.5439
 2146TIP3   OH227996   6.541   3.708   1.946 -0.1639  0.6500 -0.5350
 2146TIP3    H127997   6.554   3.614   1.957  2.9268  0.9346 -0.8993
 2146TIP3    H227998   6.528   3.741   2.035  2.3887  0.2456  0.0709
 2147TIP3   OH227999   2.254   5.547   8.023  0.0239 -0.4372  0.2011
 2147TIP3    H128000   2.221   5.610   7.959 -1.7220 -0.7004  0.7662
 2147TIP3    H228001   2.214   5.464   7.997  2.6952 -1.4774 -0.8349
 2148TIP3   OH228002   6.201   6.833   1.023 -0.0523  0.0983  1.0041
 2148TIP3    H128003   6.162   6.823   0.936 -1.1613  0.2076  1.4775
 2148TIP3    H228004   6.292   6.805   1.012 -0.4978 -1.0808  0.0819
 2149TIP3   OH228005   5.004   2.712   8.242 -0.1415  0.3629  0.0499
 2149TIP3    H128006   5.064   2.644   8.210 -0.8912  0.3055 -1.3270
 2149TIP3    H228007   4.931   2.663   8.280  0.5316  0.4316  1.4753
 2150TIP3   OH228008   0.910   3.679   8.356  0.7690  0.1786 -0.2497
 2150TIP3    H128009   0.944   3.599   8.396  1.4116  0.4458 -0.2473
 2150TIP3    H228010   0.988   3.728   8.330  0.3977  1.0670  0.2647
 2151TIP3   OH228011   5.233   5.955   8.301  0.3291  0.6234 -0.5389
 2151TIP3    H128012   5.294   5.891   8.268 -1.0403 -0.8436 -0.3641
 2151TIP3    H228013   5.283   6.006   8.365  1.2414 -0.7989 -0.0910
 2152TIP3   OH228014   6.081   2.314   2.118  0.2777 -0.1731  0.3103
 2152TIP3    H128015   6.145   2.315   2.047  1.4601 -1.1780  1.3175
 2152TIP3    H228016   6.062   2.221   2.132 -2.5012  0.1366 -0.8726
 2153TIP3   OH228017   3.968   5.443   2.124  0.1945 -0.4774  0.0726
 2153TIP3    H128018   4.051   5.482   2.152  0.8068 -2.3466  1.0579
 2153TIP3    H228019   3.912   5.518   2.103  1.5908  0.8801  0.9673
 2154TIP3   OH228020   1.983   0.567   2.026 -0.1719  0.0031 -0.2649
 2154TIP3    H128021   1.943   0.510   2.092  0.3660  0.1767  0.2170
 2154TIP3    H228022   2.047   0.511   1.982 -1.5613 -0.5523 -1.6806
 2155TIP3   OH228023   3.927   6.703   1.522 -0.0886 -0.2318 -0.3614
 2155TIP3    H128024   3.948   6.613   1.546  3.0406  0.4196 -0.1604
 2155TIP3    H228025   3.848   6.724   1.572  0.6890 -2.0034  1.7853
 2156TIP3   OH228026   5.778   1.105   7.802 -0.3794 -0.4420  0.0748
 2156TIP3    H128027   5.724   1.073   7.874  1.0645 -0.8271  1.0167
 2156TIP3    H228028   5.818   1.026   7.765 -0.6657 -0.1904 -0.7984
 2157TIP3   OH228029   4.908   1.958   7.657 -0.1657  0.1712  0.1623
 2157TIP3    H128030   4.911   2.021   7.584  0.2052 -0.1241 -0.0799
 2157TIP3    H228031   4.862   2.005   7.727  0.6175  0.9354  0.1845
 2158TIP3   OH228032   5.749   5.946   7.809  0.6459 -0.3492  0.2025
 2158TIP3    H128033   5.807   5.872   7.828  1.2159  0.1052  0.2310
 2158TIP3    H228034   5.792   5.993   7.738 -0.8201 -1.2962 -1.3732
 2159TIP3   OH228035   0.092   3.746   8.335  0.1679  0.4548 -0.2219
 2159TIP3    H128036   0.186   3.762   8.326 -0.2283  3.1489 -0.1595
 2159TIP3    H228037   0.057   3.757   8.246 -0.0434 -1.1913 -0.3724
 2160TIP3   OH228038   0.286   0.886   1.924 -0.1992  0.5363 -0.1658
 2160TIP3    H128039   0.276   0.891   2.019 -1.3286 -0.4492 -0.2062
 2160TIP3    H228040   0.289   0.977   1.895  0.3165  0.8491  0.8186
 2161TIP3   OH228041   0.585   3.363   7.890 -0.1149  0.2506  0.3000
 2161TIP3    H128042   0.501   3.347   7.846 -0.6894 -1.1780  1.8208
 2161TIP3    H228043   0.562   3.419   7.964  0.2162 -0.4265  0.9142
 2162TIP3   OH228044   1.066   3.383   7.733 -0.2129  0.5641 -0.0551
 2162TIP3    H128045   1.102   3.304   7.693  2.2233  1.0578  1.0092
 2162TIP3    H228046   0.976   3.388   7.699 -0.2236 -2.2535 -0.6779
 2163TIP3   OH228047   6.610   4.762   8.252 -0.0647  0.1741  0.2894
 2163TIP3    H128048   6.634   4.702   8.181 -1.0913 -0.9404  0.8489
 2163TIP3    H228049   6.517   4.744   8.267 -0.2666  1.5859  0.7978
 2164TIP3   OH228050   3.822   2.502   8.583  0.3074 -0.1097 -0.1967
 2164TIP3    H128051   3.749   2.563   8.572 -1.2749 -1.8873  0.0217
 2164TIP3    H228052   3.896   2.545   8.541 -1.2561  1.0418 -1.8940
 2165TIP3   OH228053   3.295   4.560   8.428 -0.4900 -0.4618 -0.1653
 2165TIP3    H128054   3.288   4.655   8.425  0.3532 -0.3331  1.2666
 2165TIP3    H228055   3.389   4.543   8.420 -0.4280 -1.0558  1.4277
 2166TIP3   OH228056   2.483   0.608   7.508 -0.1168  0.3493  0.2942
 2166TIP3    H128057   2.575   0.629   7.489 -0.2547 -0.1127 -0.9785
 2166TIP3    H228058   2.474   0.623   7.602  1.0190  1.3067  0.2769
 2167TIP3   OH228059   0.984   1.538   7.872  0.4405 -0.1382  0.2068
 2167TIP3    H128060   1.025   1.597   7.809 -1.2516  1.4715  0.5266
 2167TIP3    H228061   1.032   1.552   7.954  0.8828 -0.2029 -0.0405
 2168TIP3   OH228062   5.918   1.063   0.419  0.1584  0.0958  0.2976
 2168TIP3    H128063   5.988   1.009   0.455 -0.0941 -2.1796 -2.2865
 2168TIP3    H228064   5.849   1.000   0.396 -0.4317  1.5394 -2.2625
 2169TIP3   OH228065   2.880   2.828   1.634  0.1077  0.9936 -0.4719
 2169TIP3    H128066   2.915   2.854   1.719  2.0064  0.4611 -1.0461
 2169TIP3    H228067   2.805   2.772   1.654 -1.0885  2.9271  0.7965
 2170TIP3   OH228068   0.614   4.506   8.349 -0.0798  0.0198  0.3606
 2170TIP3    H128069   0.616   4.447   8.273 -0.5476 -1.1986  1.2634
 2170TIP3    H228070   0.566   4.458   8.416  0.4312  1.0185  1.4886
 2171TIP3   OH228071   1.700   3.132   7.299 -0.0446  0.5252 -0.1195
 2171TIP3    H128072   1.687   3.060   7.238  0.1648  0.8200 -0.5199
 2171TIP3    H228073   1.788   3.164   7.280 -0.1160  0.8539  0.0831
 2172TIP3   OH228074   2.046   6.628   0.586  0.0258 -0.0094  0.3075
 2172TIP3    H128075   2.047   6.720   0.612  1.3312  0.1992 -0.4026
 2172TIP3    H228076   1.996   6.626   0.504  1.4056  0.3530 -0.5718
 2173TIP3   OH228077   0.813   0.810   0.984  0.0056  0.2510 -0.2384
 2173TIP3    H128078   0.849   0.784   0.899 -0.0989 -0.8033  0.0227
 2173TIP3    H228079   0.748   0.743   1.004 -0.8940  1.1960  0.0901
 2174TIP3   OH228080   6.112   1.240   1.045 -0.1881 -0.2087  0.1964
 2174TIP3    H128081   6.116   1.320   1.097  0.8589 -0.7837  1.0371
 2174TIP3    H228082   6.094   1.170   1.108 -1.1013 -0.6525 -0.5260
 2175TIP3   OH228083   1.530   1.221   7.087  0.0644  0.1630  0.2448
 2175TIP3    H128084   1.532   1.294   7.027  1.5157 -0.1713 -0.1493
 2175TIP3    H228085   1.491   1.149   7.037  1.4735 -0.1776 -0.4035
 2176TIP3   OH228086   6.768   0.777   7.649  0.3788 -0.8543  0.4124
 2176TIP3    H128087   6.753   0.837   7.721 -1.1024 -0.4144 -0.2216
 2176TIP3    H228088   6.735   0.693   7.680  0.5003 -0.8552  0.5393
 2177TIP3   OH228089   2.352   6.221   6.544 -0.0883 -0.2595 -0.5559
 2177TIP3    H128090   2.269   6.190   6.507 -0.9331 -0.7733  1.6502
 2177TIP3    H228091   2.331   6.244   6.634  1.9491  0.6937 -0.2751
 2178TIP3   OH228092   1.644   1.011   0.500  0.1108 -0.1175 -0.1539
 2178TIP3    H128093   1.701   1.034   0.427 -1.4803 -0.2101 -1.4764
 2178TIP3    H228094   1.641   0.915   0.499  2.6351 -0.3485  2.1342
 2179TIP3   OH228095   1.488   1.249   1.701 -0.2535 -0.2527 -0.1338
 2179TIP3    H128096   1.425   1.209   1.760  1.1922  0.4728  2.0263
 2179TIP3    H228097   1.571   1.205   1.721  0.4861  0.7590 -0.8836
 2180TIP3   OH228098   6.700   1.379   7.740  0.1887 -0.0445 -0.6437
 2180TIP3    H128099   6.711   1.345   7.829 -0.0835 -0.6908 -0.8583
 2180TIP3    H228100   6.762   1.453   7.736 -0.9722  1.0546  0.6283
 2181TIP3   OH228101   5.278   1.840   0.279  0.1515 -0.5303  0.4168
 2181TIP3    H128102   5.193   1.815   0.244  0.3067 -0.5383  0.0423
 2181TIP3    H228103   5.261   1.863   0.370 -0.5491  1.1155 -0.1035
 2182TIP3   OH228104   2.856   5.031   1.599  0.3623 -0.3097  0.1973
 2182TIP3    H128105   2.786   4.966   1.600 -0.3574  0.4301 -0.0627
 2182TIP3    H228106   2.937   4.981   1.592 -0.2509 -1.1130 -1.6294
 2183TIP3   OH228107   4.556   1.620   1.131  0.0128 -0.1224 -0.0282
 2183TIP3    H128108   4.643   1.585   1.153  0.2141  0.7833  0.6995
 2183TIP3    H228109   4.495   1.556   1.168  0.3502  0.9698  2.7335
 2184TIP3   OH228110   3.056   6.041   0.396  0.6257  0.3754 -0.4221
 2184TIP3    H128111   2.991   5.980   0.433  0.3632  0.0817 -1.3456
 2184TIP3    H228112   3.032   6.126   0.434  0.5531  0.0393  0.3168
 2185TIP3   OH228113   4.628   0.867   8.694 -0.2700  0.3573 -0.3290
 2185TIP3    H128114   4.559   0.933   8.707 -1.1880 -0.8431  1.1982
 2185TIP3    H228115   4.706   0.907   8.733 -0.3337  1.2685 -1.0731
 2186TIP3   OH228116   1.281   1.422   2.046  0.0400 -0.2948 -0.7612
 2186TIP3    H128117   1.253   1.436   2.136 -0.0118  1.8102 -1.0477
 2186TIP3    H228118   1.206   1.450   1.993  1.5274  2.8279 -1.4839
 2187TIP3   OH228119   4.081   1.885   2.919  0.1666  0.0304  0.0120
 2187TIP3    H128120   4.086   1.977   2.944 -1.2962  0.1950 -0.1881
 2187TIP3    H228121   4.106   1.883   2.827 -1.2978  0.4835 -0.4228
 2188TIP3   OH228122   4.575   0.397   0.990  0.0499 -0.3605  0.4115
 2188TIP3    H128123   4.608   0.461   1.053  1.9638 -0.1729 -0.6892
 2188TIP3    H228124   4.506   0.442   0.943  0.9482  0.7231  0.0759
 2189TIP3   OH228125   3.296   1.416   0.182 -0.2156  0.5842  0.3520
 2189TIP3    H128126   3.310   1.476   0.256  1.7686 -1.4105  1.7096
 2189TIP3    H228127   3.299   1.473   0.105  1.0054  2.3355  1.6083
 2190TIP3   OH228128   0.272   1.961   2.359 -0.0932  0.8157 -0.0633
 2190TIP3    H128129   0.246   2.053   2.358 -0.5444  0.6914 -1.3379
 2190TIP3    H228130   0.229   1.923   2.282  0.5708 -0.3259  0.1103
 2191TIP3   OH228131   2.272   1.110   1.437 -0.4488 -0.1607 -0.2521
 2191TIP3    H128132   2.180   1.129   1.455 -0.5673 -1.4669  0.6800
 2191TIP3    H228133   2.270   1.033   1.381  0.0728  0.5655 -1.3013
 2192TIP3   OH228134   0.161   3.907   2.796  0.2484  0.2972 -0.0571
 2192TIP3    H128135   0.137   3.943   2.711  2.1873 -0.1502 -0.8376
 2192TIP3    H228136   0.090   3.935   2.855 -0.9360  0.9329 -1.7097
 2193TIP3   OH228137   1.771   4.522   1.919 -0.0386  0.5123  0.2931
 2193TIP3    H128138   1.783   4.525   2.014  0.0610 -0.2326  0.3081
 2193TIP3    H228139   1.796   4.433   1.894  1.1226  1.0713 -0.6041
 2194TIP3   OH228140   1.977   0.872   8.732  0.3175  0.0426  0.5692
 2194TIP3    H128141   1.945   0.784   8.713  3.5149 -1.2034  0.3405
 2194TIP3    H228142   1.964   0.921   8.651  0.9721 -1.0739 -0.2420
 2195TIP3   OH228143   4.466   1.798   8.299  0.4340 -0.7222 -0.4595
 2195TIP3    H128144   4.473   1.784   8.205 -0.0737 -0.7091 -0.5000
 2195TIP3    H228145   4.372   1.805   8.316  0.5483 -0.0556 -0.0510
 2196TIP3   OH228146   3.458   4.103   1.698 -0.1273 -0.1069 -0.3400
 2196TIP3    H128147   3.433   4.038   1.633 -0.4887 -0.8429  0.5129
 2196TIP3    H228148   3.421   4.070   1.780  0.9832  0.4002  0.3812
 2197TIP3   OH228149   0.570   4.982   0.106 -0.5729 -0.0155 -0.1899
 2197TIP3    H128150   0.622   5.039   0.162 -0.0144 -0.8579  0.1614
 2197TIP3    H228151   0.500   5.039   0.073  0.9022  1.3215 -1.1756
 2198TIP3   OH228152   6.704   5.688   7.052 -0.4264 -0.1219  0.0690
 2198TIP3    H128153   6.753   5.719   6.975  0.0963  1.1472  0.8873
 2198TIP3    H228154   6.628   5.746   7.057 -1.7273 -1.6602 -0.7986
 2199TIP3   OH228155   5.994   0.727   0.864  0.2622 -0.2477  0.5570
 2199TIP3    H128156   6.074   0.759   0.905  0.9702 -0.4131 -0.6493
 2199TIP3    H228157   6.001   0.754   0.772 -0.7379 -0.8767  0.2730
 2200TIP3   OH228158   2.656   5.415   7.651 -0.3899 -0.1170  0.5296
 2200TIP3    H128159   2.628   5.495   7.696 -0.4828 -1.6235  3.3212
 2200TIP3    H228160   2.631   5.430   7.560 -0.3242  3.0425  0.9144
 2201TIP3   OH228161   4.451   6.592   7.609  0.4167  0.3567 -0.0636
 2201TIP3    H128162   4.491   6.515   7.649  0.7186  0.8313  0.5541
 2201TIP3    H228163   4.373   6.609   7.661 -0.7748 -0.7173 -1.4157
 2202TIP3   OH228164   1.417   0.983   1.586  0.0686 -0.2052  0.0922
 2202TIP3    H128165   1.398   0.939   1.669  0.7008 -1.1626 -0.2560
 2202TIP3    H228166   1.431   0.912   1.524  0.2074  0.5005 -0.7041
 2203TIP3   OH228167   4.738   6.345   0.215 -0.3149  0.2559  0.1347
 2203TIP3    H128168   4.784   6.263   0.229  0.7019  0.6058 -0.9562
 2203TIP3    H228169   4.646   6.321   0.211 -0.0293 -0.8332 -0.1981
 2204TIP3   OH228170   0.928   2.607   1.800 -0.3874 -0.5746 -0.6624
 2204TIP3    H128171   0.993   2.621   1.869  1.3163 -1.8325 -1.9003
 2204TIP3    H228172   0.964   2.653   1.724 -1.7585  0.0256 -0.9742
 2205TIP3   OH228173   5.374   0.548   8.497 -0.5132 -0.3908  0.8253
 2205TIP3    H128174   5.339   0.492   8.566 -0.7412 -1.5819 -0.2178
 2205TIP3    H228175   5.449   0.499   8.463 -0.7257 -0.0707 -0.1161
 2206TIP3   OH228176   3.543   1.955   3.035 -0.1114  0.2095 -0.6455
 2206TIP3    H128177   3.556   1.860   3.033  1.0259  0.3459 -0.1914
 2206TIP3    H228178   3.518   1.977   2.945  0.7392 -0.3745 -1.0378
 2207TIP3   OH228179   3.286   6.357   2.444  0.3797 -0.5408 -0.2185
 2207TIP3    H128180   3.352   6.401   2.498  1.9910 -2.3041 -0.6201
 2207TIP3    H228181   3.336   6.325   2.368 -1.4452  0.1737 -1.7964
 2208TIP3   OH228182   3.106   4.480   7.975  0.1731  0.3629 -0.2271
 2208TIP3    H128183   3.178   4.514   8.029 -0.6623  0.8756  0.5891
 2208TIP3    H228184   3.061   4.417   8.031  0.1850 -0.2101 -0.8540
 2209TIP3   OH228185   6.474   0.536   7.498 -0.6030 -0.6840  0.1170
 2209TIP3    H128186   6.499   0.575   7.582  1.1121  0.3683 -0.8265
 2209TIP3    H228187   6.390   0.493   7.516 -0.6112  0.0733  2.1926
 2210TIP3   OH228188   6.143   4.917   8.381 -0.7620  0.8044 -0.2018
 2210TIP3    H128189   6.049   4.925   8.367 -0.7184  2.6310  0.2798
 2210TIP3    H228190   6.167   4.996   8.429  1.1185  0.6973 -0.8673
 2211TIP3   OH228191   4.451   5.705   1.047 -0.4012  0.1968  0.5606
 2211TIP3    H128192   4.516   5.677   0.983  0.9381  1.2243  1.4015
 2211TIP3    H228193   4.382   5.747   0.995 -0.7446 -1.4640 -0.3971
 2212TIP3   OH228194   6.808   5.825   1.476 -0.3167  0.0372  0.1431
 2212TIP3    H128195   6.886   5.852   1.524 -0.2602 -1.1438  0.7381
 2212TIP3    H228196   6.777   5.747   1.522 -0.1604 -1.2560 -1.8444
 2213TIP3   OH228197   6.291   4.023   7.656  0.3977  0.0039  0.4417
 2213TIP3    H128198   6.369   4.040   7.708 -0.6903 -0.5479  2.3662
 2213TIP3    H228199   6.222   4.007   7.721 -1.0798 -0.5749 -1.1883
 2214TIP3   OH228200   1.501   1.405   1.381  0.5562  0.5249  0.3935
 2214TIP3    H128201   1.420   1.441   1.345 -0.3324 -1.1023  0.6864
 2214TIP3    H228202   1.554   1.382   1.303  0.2724  0.5859  0.1816
 2215TIP3   OH228203   5.804   0.215   8.176 -0.4021  0.1168 -0.1721
 2215TIP3    H128204   5.753   0.142   8.141 -2.1370  1.1096  0.1726
 2215TIP3    H228205   5.841   0.181   8.258 -1.6020 -0.2476  0.2380
 2216TIP3   OH228206   0.314   1.144   1.782 -0.1176  0.4139 -0.3027
 2216TIP3    H128207   0.290   1.081   1.714  1.2600  0.1949 -0.6165
 2216TIP3    H228208   0.383   1.197   1.743  1.0611 -0.0401  1.0605
 2217TIP3   OH228209   2.665   0.124   7.742 -0.4264 -0.1278  0.8170
 2217TIP3    H128210   2.737   0.127   7.678 -0.6930  0.1070  0.5246
 2217TIP3    H228211   2.666   0.210   7.783 -0.0152 -0.4057  1.4047
 2218TIP3   OH228212   3.314   1.665   1.645 -0.6301 -0.3177 -0.0256
 2218TIP3    H128213   3.247   1.597   1.656  1.3532 -2.6864 -1.4952
 2218TIP3    H228214   3.307   1.690   1.553  0.5749 -0.7473 -0.2513
 2219TIP3   OH228215   5.676   1.312   6.567  0.2115 -0.3816  0.1175
 2219TIP3    H128216   5.632   1.236   6.529  0.1246 -0.9563  1.3140
 2219TIP3    H228217   5.767   1.285   6.577  0.1809 -0.3371  0.5391
 2220TIP3   OH228218   6.241   2.468   0.166  0.2039 -0.2589  0.3234
 2220TIP3    H128219   6.238   2.520   0.247 -1.5096 -1.0823  0.8152
 2220TIP3    H228220   6.331   2.480   0.134  0.9741 -0.0420  2.4289
 2221TIP3   OH228221   1.143   0.198   0.994  0.1351  0.6251  0.3867
 2221TIP3    H128222   1.197   0.119   1.002 -2.0843 -0.8566  1.7965
 2221TIP3    H228223   1.127   0.206   0.900  0.6676 -0.3877  0.1881
 2222TIP3   OH228224   3.419   3.537   7.957 -0.7158  0.2617 -0.2067
 2222TIP3    H128225   3.498   3.517   8.007 -0.7728 -1.2635 -0.6718
 2222TIP3    H228226   3.450   3.587   7.881  0.1887 -2.3169 -1.6450
 2223TIP3   OH228227   0.526   2.891   7.278  0.4170  0.4996  0.8502
 2223TIP3    H128228   0.461   2.925   7.217  0.1090 -0.6274  0.5282
 2223TIP3    H228229   0.608   2.888   7.228 -0.4228 -3.3842 -0.6802
 2224TIP3   OH228230   1.006   1.264   1.128 -0.3933 -0.0501 -0.3391
 2224TIP3    H128231   0.975   1.201   1.062 -0.6649 -0.9364  0.6035
 2224TIP3    H228232   1.099   1.274   1.109 -0.6524  0.4649 -1.4491
 2225TIP3   OH228233   0.489   2.310   8.742  0.4437  0.2137  0.4763
 2225TIP3    H128234   0.430   2.288   8.670  1.9301  1.2903 -1.1351
 2225TIP3    H228235   0.509   2.226   8.783  2.5771 -1.0820 -2.8097
 2226TIP3   OH228236   4.637   0.912   0.310 -0.0263 -0.1621 -0.2064
 2226TIP3    H128237   4.666   0.981   0.369 -2.3209  0.8866 -0.1707
 2226TIP3    H228238   4.678   0.933   0.226 -1.2227  1.7344 -0.3780
 2227TIP3   OH228239   2.191   4.301   8.251  0.0897 -0.2647 -0.3247
 2227TIP3    H128240   2.278   4.298   8.212  0.6710  0.3572  0.8629
 2227TIP3    H228241   2.203   4.259   8.337 -0.5552  0.6661  0.2331
 2228TIP3   OH228242   1.538   1.234   8.373  0.0241  0.0074 -0.3531
 2228TIP3    H128243   1.580   1.320   8.368  0.4868 -0.1918 -0.0169
 2228TIP3    H228244   1.496   1.233   8.459 -3.0928  1.2704 -1.7068
 2229TIP3   OH228245   3.474   2.431   8.762  0.0351  0.0241  0.4379
 2229TIP3    H128246   3.496   2.509   8.814 -1.3269  0.0138  1.0592
 2229TIP3    H228247   3.379   2.434   8.752  0.2063 -0.2534 -1.6611
 2230TIP3   OH228248   0.269   6.832   7.347  0.4094  0.5418 -0.2223
 2230TIP3    H128249   0.321   6.866   7.274 -1.0714 -0.9870 -2.1185
 2230TIP3    H228250   0.192   6.794   7.305  0.9677 -3.3631  1.7921
 2231TIP3   OH228251   4.179   3.759   1.351  0.1050  0.0583  0.4857
 2231TIP3    H128252   4.114   3.806   1.299  1.2958 -0.8349 -1.9291
 2231TIP3    H228253   4.173   3.798   1.438 -1.6097  1.9823 -0.4297
 2232TIP3   OH228254   3.755   4.170   7.820  0.3582  0.3180 -0.0595
 2232TIP3    H128255   3.803   4.234   7.873  0.5335 -0.8318  1.2411
 2232TIP3    H228256   3.705   4.120   7.884 -0.7738 -0.0163 -1.1781
 2233TIP3   OH228257   4.697   2.902   0.827  1.2548  0.2035 -0.2131
 2233TIP3    H128258   4.624   2.963   0.827  0.2739 -0.9238 -1.5112
 2233TIP3    H228259   4.717   2.889   0.920 -0.6335  0.0172  0.2005
 2234TIP3   OH228260   0.536   0.656   8.093  0.5460  0.5631 -0.3690
 2234TIP3    H128261   0.569   0.608   8.017  1.6415  1.4433 -0.4837
 2234TIP3    H228262   0.447   0.682   8.068  0.8755  0.8088 -1.3545
 2235TIP3   OH228263   5.915   3.567   7.668 -0.8286  0.0140  0.1011
 2235TIP3    H128264   5.927   3.514   7.590 -0.0465 -1.4956  1.2000
 2235TIP3    H228265   5.918   3.505   7.741  1.6097  1.6555  1.5739
 2236TIP3   OH228266   2.874   3.748   7.722  0.2983 -0.2458  0.2339
 2236TIP3    H128267   2.941   3.680   7.714  0.4828  0.0992 -1.4975
 2236TIP3    H228268   2.799   3.714   7.673 -0.3036 -0.0180  0.9757
 2237TIP3   OH228269   2.609   6.135   0.245 -0.5327 -0.3099 -0.3673
 2237TIP3    H128270   2.542   6.078   0.283 -0.2929 -0.4182 -0.1053
 2237TIP3    H228271   2.594   6.220   0.286 -0.6879 -0.2629 -0.5198
 2238TIP3   OH228272   2.214   5.117   0.164 -0.5771 -0.0958 -0.3686
 2238TIP3    H128273   2.185   5.083   0.249 -0.1602  1.7478  0.5840
 2238TIP3    H228274   2.197   5.211   0.170  3.2515  0.7452 -0.6792
 2239TIP3   OH228275   0.271   4.240   1.440 -0.0892 -0.6915  0.6586
 2239TIP3    H128276   0.329   4.229   1.364 -0.2681  0.1865  0.3862
 2239TIP3    H228277   0.325   4.287   1.504 -0.0851 -1.0315  0.9077
 2240TIP3   OH228278   1.306   2.903   1.975  0.0141  0.0632 -0.1164
 2240TIP3    H128279   1.352   2.939   2.051  2.4148  0.5534 -1.6941
 2240TIP3    H228280   1.235   2.851   2.012 -0.9711  2.8765  2.3718
 2241TIP3   OH228281   0.613   6.647   1.370 -0.6921 -0.2733  0.3843
 2241TIP3    H128282   0.655   6.616   1.290  2.8627  2.7104  0.8208
 2241TIP3    H228283   0.539   6.699   1.340 -1.7132 -2.2437 -0.6691
 2242TIP3   OH228284   6.325   0.807   6.965 -0.5273  0.0811 -0.6826
 2242TIP3    H128285   6.338   0.790   6.872 -0.4150 -1.1438 -0.4569
 2242TIP3    H228286   6.262   0.740   6.993  0.3769 -0.3456  0.3866
 2243TIP3   OH228287   4.483   3.785   2.149  0.6260 -0.4851  0.3151
 2243TIP3    H128288   4.394   3.765   2.178  0.0251  1.4236 -0.0900
 2243TIP3    H228289   4.489   3.745   2.062 -1.0642  2.1164 -1.1266
 2244TIP3   OH228290   6.614   6.285   0.640  0.2570  0.2175  0.3093
 2244TIP3    H128291   6.691   6.305   0.585  1.2351  0.2565  1.6401
 2244TIP3    H228292   6.589   6.196   0.614  1.4596 -0.2351  0.6088
 2245TIP3   OH228293   0.200   4.283   7.643 -0.1102  0.1294  0.1124
 2245TIP3    H128294   0.104   4.279   7.639 -0.1469  0.3382  0.6297
 2245TIP3    H228295   0.223   4.358   7.589 -0.3039  0.6138  0.6918
 2246TIP3   OH228296   5.404   4.821   1.567 -0.1331  0.0831  0.7668
 2246TIP3    H128297   5.492   4.799   1.597 -0.7603 -1.2705  1.6954
 2246TIP3    H228298   5.349   4.749   1.597 -1.1283 -0.5003 -2.1236
 2247TIP3   OH228299   2.683   1.171   7.437  0.1828  0.2219 -0.0742
 2247TIP3    H128300   2.721   1.242   7.385  1.8752  0.4169  1.3562
 2247TIP3    H228301   2.737   1.095   7.417  0.6396  0.2171  1.0998
 2248TIP3   OH228302   0.492   1.480   6.968  0.4618 -0.1037 -0.0692
 2248TIP3    H128303   0.527   1.446   7.050 -0.4900  1.8024  1.1792
 2248TIP3    H228304   0.400   1.453   6.968  0.0655  1.1750  0.2524
 2249TIP3   OH228305   6.440   6.093   1.709  0.1410  0.2091  0.4165
 2249TIP3    H128306   6.487   6.065   1.788  0.7044  0.8377  0.3203
 2249TIP3    H228307   6.393   6.172   1.736  0.2865  0.3914  0.1474
 2250TIP3   OH228308   5.369   5.907   2.751  0.5244 -0.4505  0.0327
 2250TIP3    H128309   5.274   5.900   2.741  0.4490 -2.4163  1.3725
 2250TIP3    H228310   5.380   5.951   2.835  0.8893  1.8428 -1.1446
 2251TIP3   OH228311   1.835   6.322   1.341  0.0075  0.7488  0.5359
 2251TIP3    H128312   1.868   6.245   1.387  0.0422  0.6035  0.2714
 2251TIP3    H228313   1.820   6.387   1.409 -1.4492  0.0202  0.9606
 2252TIP3   OH228314   0.794   4.679   8.078 -0.0082  0.1866  0.1869
 2252TIP3    H128315   0.762   4.590   8.092 -0.0928  0.0974 -0.5001
 2252TIP3    H228316   0.745   4.732   8.141  0.6765 -0.3651  1.2008
 2253TIP3   OH228317   5.047   5.039   0.212  0.1091 -0.4265 -0.4262
 2253TIP3    H128318   5.076   5.069   0.298  0.7624  2.0567 -1.4038
 2253TIP3    H228319   5.007   4.954   0.228  1.5110 -0.7067  2.0905
 2254TIP3   OH228320   5.095   4.057   0.182  0.2068 -0.0618 -0.2003
 2254TIP3    H128321   5.153   4.022   0.114  1.4933  1.9569 -0.2135
 2254TIP3    H228322   5.052   3.979   0.219  1.3387 -1.4247 -1.6133
 2255TIP3   OH228323   0.107   3.987   0.588 -0.1463  0.3137  0.5334
 2255TIP3    H128324   0.069   4.044   0.521  0.4502 -0.0358 -0.1105
 2255TIP3    H228325   0.198   4.015   0.596  0.6535 -1.5736 -1.0081
 2256TIP3   OH228326   5.589   6.157   7.068 -0.7248 -0.2788 -0.5448
 2256TIP3    H128327   5.596   6.101   6.990 -1.9576  0.0950 -0.9498
 2256TIP3    H228328   5.502   6.197   7.060 -0.1792  1.0710  0.1551
 2257TIP3   OH228329   2.689   0.813   0.254  0.0781  0.0159  0.8222
 2257TIP3    H128330   2.734   0.897   0.259  0.5253 -0.0998 -0.7521
 2257TIP3    H228331   2.618   0.827   0.191 -0.7892 -0.3841  1.6820
 2258TIP3   OH228332   2.348   2.087   8.227 -0.0527  0.6147  0.0710
 2258TIP3    H128333   2.330   2.070   8.320 -0.9450  2.4119  0.2703
 2258TIP3    H228334   2.442   2.105   8.223  0.4720 -1.7889  0.1989
 2259TIP3   OH228335   5.253   0.243   1.264  0.4994 -0.4410 -0.6878
 2259TIP3    H128336   5.262   0.175   1.331 -0.8259 -0.0700 -0.1040
 2259TIP3    H228337   5.267   0.197   1.181 -0.5160 -1.4594 -0.3132
 2260TIP3   OH228338   3.097   4.811   2.294 -0.5390  0.2671  0.0519
 2260TIP3    H128339   3.025   4.750   2.276  0.2658 -0.6856 -0.0562
 2260TIP3    H228340   3.084   4.836   2.386 -1.0050  0.0897  0.0372
 2261TIP3   OH228341   0.112   0.183   2.753  0.3040 -0.4210  0.3494
 2261TIP3    H128342   0.205   0.160   2.756  0.8388  1.6164  0.9869
 2261TIP3    H228343   0.108   0.256   2.690 -1.1354 -1.4951 -0.8761
 2262TIP3   OH228344   3.860   5.338   8.354 -0.0212  0.6231  0.1004
 2262TIP3    H128345   3.903   5.312   8.272  1.3431  0.9382  0.6974
 2262TIP3    H228346   3.771   5.303   8.346  1.2552 -3.1457  0.2507
 2263TIP3   OH228347   4.707   1.903   1.713  0.3506 -0.3518  0.4145
 2263TIP3    H128348   4.768   1.965   1.674  1.3431 -0.8417  1.1364
 2263TIP3    H228349   4.734   1.897   1.805 -0.5658 -0.8379  0.6647
 2264TIP3   OH228350   1.420   3.703   0.007  0.3543 -0.4405  0.3261
 2264TIP3    H128351   1.442   3.714   0.099 -2.0971  0.2593  0.8923
 2264TIP3    H228352   1.465   3.776  -0.037  1.8427 -0.9958  0.8679
 2265TIP3   OH228353   3.365   0.652   0.597  0.2536 -0.2108 -0.4974
 2265TIP3    H128354   3.293   0.686   0.543  0.4035  0.7815 -0.0911
 2265TIP3    H228355   3.366   0.709   0.674  0.4245 -1.2411  0.2842
 2266TIP3   OH228356   2.978   4.315   2.356 -0.4510  0.7556 -0.0027
 2266TIP3    H128357   2.921   4.387   2.383  0.2940  0.4556  2.6078
 2266TIP3    H228358   3.023   4.289   2.436  1.4122 -0.7549 -1.4641
 2267TIP3   OH228359   3.690   6.093   2.084 -0.5526 -0.1822  0.4304
 2267TIP3    H128360   3.660   6.032   2.016 -0.4290  0.3869 -0.1386
 2267TIP3    H228361   3.622   6.159   2.090 -0.1114  0.3035  0.1744
 2268TIP3   OH228362   5.095   5.280   7.411 -0.0827  0.5886  0.3539
 2268TIP3    H128363   5.057   5.200   7.448  1.3767 -1.0073 -1.3483
 2268TIP3    H228364   5.106   5.260   7.318  0.2987  2.8216 -0.1348
 2269TIP3   OH228365   5.799   0.257   1.468  0.3612  0.0782  0.1767
 2269TIP3    H128366   5.864   0.319   1.499 -0.6386  0.9261  0.6123
 2269TIP3    H228367   5.727   0.311   1.435  0.9905 -0.7588 -2.8760
 2270TIP3   OH228368   4.098   3.380   0.487  0.1515 -0.1158  0.6510
 2270TIP3    H128369   4.085   3.425   0.570 -0.4972 -0.4577  0.7395
 2270TIP3    H228370   4.060   3.438   0.422 -0.6733 -0.5187  0.7637
 2271TIP3   OH228371   6.067   4.567   8.457  0.2886  0.0781  0.1269
 2271TIP3    H128372   5.977   4.556   8.426  0.2133  1.3248 -0.1610
 2271TIP3    H228373   6.085   4.661   8.446  1.8996 -0.2712 -0.5861
 2272TIP3   OH228374   6.621   3.191   2.298 -0.0409 -0.1261  0.0043
 2272TIP3    H128375   6.673   3.216   2.221 -0.4341  0.7857  0.0226
 2272TIP3    H228376   6.686   3.182   2.368  0.0868  1.1467  0.0635
 2273TIP3   OH228377   5.249   6.297   7.242 -0.6463 -0.3210 -0.1793
 2273TIP3    H128378   5.172   6.349   7.266 -0.1169  0.3395  0.1115
 2273TIP3    H228379   5.247   6.293   7.147  0.3109  1.8107 -0.3353
 2274TIP3   OH228380   5.526   0.116   0.342 -0.2426  0.2132 -0.0749
 2274TIP3    H128381   5.572   0.190   0.303  0.1984 -0.5627 -1.0517
 2274TIP3    H228382   5.433   0.140   0.337 -0.1506  0.3964 -1.0260
 2275TIP3   OH228383   4.596   2.011   8.433  0.1770  0.0486  0.3834
 2275TIP3    H128384   4.594   1.985   8.525  0.6569  1.6902  0.8893
 2275TIP3    H228385   4.563   1.934   8.386 -1.1418 -0.4429  2.0022
 2276TIP3   OH228386   2.634   6.520   1.656  0.1060 -0.1442  0.2270
 2276TIP3    H128387   2.629   6.569   1.574  0.3982 -1.8833 -0.8863
 2276TIP3    H228388   2.607   6.432   1.632 -0.4193 -0.5400  2.1673
 2277TIP3   OH228389   4.569   5.685   0.593 -0.4915 -0.5254 -0.2778
 2277TIP3    H128390   4.648   5.705   0.542  0.8455 -0.1274  1.8288
 2277TIP3    H228391   4.602   5.659   0.679 -2.6681 -0.7982  0.5359
 2278TIP3   OH228392   0.892   3.582   1.691 -0.5718  0.9718 -0.1638
 2278TIP3    H128393   0.827   3.513   1.693 -0.0144  0.4508  1.0275
 2278TIP3    H228394   0.904   3.601   1.598  0.0351 -1.2822 -0.6061
 2279TIP3   OH228395   1.897   0.892   7.154 -0.1272 -0.0121  0.1745
 2279TIP3    H128396   1.865   0.802   7.146  1.3221 -0.3916 -2.3607
 2279TIP3    H228397   1.971   0.885   7.214  0.9811 -0.8786 -1.2227
 2280TIP3   OH228398   4.064   6.480   2.591  0.0097  0.1415  0.4352
 2280TIP3    H128399   4.066   6.551   2.655 -0.1454  0.9932 -0.4782
 2280TIP3    H228400   4.067   6.400   2.643  0.8820  0.8179  1.4637
 2281TIP3   OH228401   0.501   1.951   6.513  0.0915  0.1195  0.1551
 2281TIP3    H128402   0.561   1.888   6.553  0.7249  0.2441 -0.5751
 2281TIP3    H228403   0.547   2.035   6.519 -0.1950  0.2897 -0.0315
 2282TIP3   OH228404   2.739   4.427   0.085  0.0252  0.3664  0.6689
 2282TIP3    H128405   2.762   4.401  -0.004  2.0945 -0.6279  1.4368
 2282TIP3    H228406   2.695   4.350   0.122  0.2867  0.3208  0.8871
 2283TIP3   OH228407   1.637   6.472   0.105 -0.1818 -0.1436 -0.2276
 2283TIP3    H128408   1.710   6.531   0.122 -1.0189  0.6241  0.7737
 2283TIP3    H228409   1.656   6.395   0.159  0.2739 -0.2661 -0.5623
 2284TIP3   OH228410   2.741   6.512   0.550  0.1889  0.3639 -0.3962
 2284TIP3    H128411   2.780   6.480   0.469 -0.1889  0.8841 -0.7910
 2284TIP3    H228412   2.814   6.548   0.600  0.5981 -0.9525 -0.0089
 2285TIP3   OH228413   2.427   3.585   2.185 -0.0538 -0.2768  0.6979
 2285TIP3    H128414   2.478   3.579   2.266 -0.3911 -1.8358  0.8264
 2285TIP3    H228415   2.346   3.628   2.210 -0.3367 -1.1424  1.3023
 2286TIP3   OH228416   0.184   3.765   1.327  0.0406  0.1957 -0.3190
 2286TIP3    H128417   0.217   3.853   1.310  1.9315 -0.5898 -1.1308
 2286TIP3    H228418   0.090   3.770   1.313  0.3861  1.6076 -2.5590
 2287TIP3   OH228419   0.555   4.592   7.279  0.4863 -0.1560  0.3651
 2287TIP3    H128420   0.488   4.600   7.210  0.7170  0.2556  0.1907
 2287TIP3    H228421   0.638   4.608   7.234  0.4933  2.3957  1.1484
 2288TIP3   OH228422   4.206   3.863   0.495 -0.7792 -0.1551 -0.6113
 2288TIP3    H128423   4.120   3.841   0.461  0.5305 -1.5081 -3.3922
 2288TIP3    H228424   4.245   3.779   0.520  0.8429 -0.0474 -2.4795
 2289TIP3   OH228425   3.280   5.990   0.561 -0.3443  0.6239  0.2429
 2289TIP3    H128426   3.339   6.058   0.530 -2.4905  2.2893 -0.4825
 2289TIP3    H228427   3.195   6.014   0.524 -1.5075 -1.6034  1.2727
 2290TIP3   OH228428   2.677   3.246   7.389  0.1454 -0.0698  0.3407
 2290TIP3    H128429   2.705   3.309   7.323  0.4216  1.2179  1.6211
 2290TIP3    H228430   2.740   3.174   7.382  2.4180  1.6454  1.4945
 2291TIP3   OH228431   1.953   5.896   7.816  0.0613 -0.4998  0.2280
 2291TIP3    H128432   1.874   5.921   7.768  1.2870  1.7977 -0.7648
 2291TIP3    H228433   1.930   5.910   7.908 -0.1815  2.1174 -0.1324
 2292TIP3   OH228434   4.506   1.720   8.043  0.6927  0.4542  0.2017
 2292TIP3    H128435   4.541   1.786   7.983  0.0928 -0.0601 -0.7357
 2292TIP3    H228436   4.462   1.657   7.987  0.5545 -0.3219  1.1495
 2293TIP3   OH228437   0.045   0.328   0.727 -0.4770 -0.0097  0.0124
 2293TIP3    H128438   0.083   0.402   0.775  0.2459  0.5053 -1.3215
 2293TIP3    H228439  -0.049   0.334   0.745 -0.5379  1.7445 -0.7382
 2294TIP3   OH228440   1.308   1.963   8.220 -0.0106 -0.0413  0.0181
 2294TIP3    H128441   1.229   2.017   8.221 -0.6290 -0.9204  0.0240
 2294TIP3    H228442   1.334   1.957   8.313  0.0328  0.1910  0.0228
 2295TIP3   OH228443   6.662   2.029   1.577  0.0379  0.2883  0.1865
 2295TIP3    H128444   6.598   2.097   1.556  1.3129  1.0846 -1.3358
 2295TIP3    H228445   6.674   1.980   1.496  2.0984  0.8257  0.0925
 2296TIP3   OH228446   0.119   1.111   1.322  0.0234  0.7253  0.4212
 2296TIP3    H128447   0.093   1.115   1.414 -0.0466 -0.1664  0.4551
 2296TIP3    H228448   0.204   1.156   1.319 -0.1321  1.0474  0.8624
 2297TIP3   OH228449   3.371   4.199   8.381  0.0867  0.0590 -0.5399
 2297TIP3    H128450   3.395   4.114   8.418 -0.0580  0.3175  0.1751
 2297TIP3    H228451   3.276   4.195   8.370  0.1068  0.0494 -0.7068
 2298TIP3   OH228452   3.723   2.563   3.103 -0.5021  0.2469  0.5484
 2298TIP3    H128453   3.776   2.566   3.024 -3.7514  2.1221 -1.8013
 2298TIP3    H228454   3.750   2.641   3.152 -1.0437  1.2316 -0.6565
 2299TIP3   OH228455   2.460   5.055   7.420  0.0419 -0.1454 -0.1842
 2299TIP3    H128456   2.454   4.996   7.345  1.8369 -1.4179  0.6022
 2299TIP3    H228457   2.475   5.142   7.381 -0.2773 -0.5862 -1.3124
 2300TIP3   OH228458   4.583   1.490   7.525 -0.1911 -0.5486  0.2322
 2300TIP3    H128459   4.641   1.495   7.601  0.4161 -2.5509 -0.0197
 2300TIP3    H228460   4.640   1.502   7.450 -0.1012 -2.1603 -0.0038
 2301TIP3   OH228461   4.320   4.150   0.441  0.0214  0.6645 -0.0047
 2301TIP3    H128462   4.284   4.063   0.457 -0.2721  0.4318 -1.7001
 2301TIP3    H228463   4.243   4.208   0.443 -0.1831  0.4776 -1.4974
 2302TIP3   OH228464   4.141   5.539   7.378  0.1660 -0.2677  0.2036
 2302TIP3    H128465   4.197   5.610   7.348 -0.9968  1.2680  1.5023
 2302TIP3    H228466   4.133   5.481   7.302  0.2231  1.5788 -1.2842
 2303TIP3   OH228467   2.529   3.205   8.177 -0.2901 -0.1928  0.0062
 2303TIP3    H128468   2.508   3.141   8.246  0.5762 -0.2645  0.2149
 2303TIP3    H228469   2.537   3.152   8.098  1.7314 -0.5695  0.4110
 2304TIP3   OH228470   3.261   4.179   6.755 -0.6514 -0.0293  0.4796
 2304TIP3    H128471   3.246   4.179   6.849 -0.0347 -0.9947  0.5941
 2304TIP3    H228472   3.185   4.223   6.718 -1.3549 -0.4775  1.3655
 2305TIP3   OH228473   0.238   4.684   7.938  0.0980  0.4977  0.0358
 2305TIP3    H128474   0.324   4.655   7.909 -0.1500 -1.0783  0.7929
 2305TIP3    H228475   0.223   4.637   8.020 -1.6776  0.4065 -0.3103
 2306TIP3   OH228476   5.478   0.013   8.292 -0.1627 -0.4181 -0.0355
 2306TIP3    H128477   5.485   0.108   8.291 -0.5069 -0.3936 -0.5171
 2306TIP3    H228478   5.453  -0.010   8.203  0.0140 -0.9688  0.0539
 2307TIP3   OH228479   5.073   5.547   1.493  0.5666 -0.2661  0.5255
 2307TIP3    H128480   5.117   5.618   1.445  0.5276 -0.6512 -0.0999
 2307TIP3    H228481   4.993   5.587   1.527 -0.2441 -0.3813 -1.1509
 2308TIP3   OH228482   1.975   2.825   0.847 -1.0440  0.2872  0.3597
 2308TIP3    H128483   1.962   2.743   0.799 -0.7672  1.0863 -1.1358
 2308TIP3    H228484   2.044   2.870   0.799 -0.5437  0.9988  1.7080
 2309TIP3   OH228485   2.188   4.737   1.987 -0.1587  0.2696  0.7288
 2309TIP3    H128486   2.191   4.641   1.990 -1.0762  0.1887 -0.1760
 2309TIP3    H228487   2.100   4.759   2.018 -0.9599  0.6281 -1.5519
 2310TIP3   OH228488   0.584   4.389   0.225 -0.2290 -0.6373  0.0609
 2310TIP3    H128489   0.491   4.407   0.240  0.0431  0.6474  0.3538
 2310TIP3    H228490   0.611   4.453   0.159  0.8691  0.3155  1.3684
 2311TIP3   OH228491   1.250   2.318   2.517  0.3509  0.1394 -0.6564
 2311TIP3    H128492   1.232   2.244   2.575  0.6838 -0.7746 -1.6791
 2311TIP3    H228493   1.174   2.375   2.526 -0.7550 -1.1967 -1.1615
 2312TIP3   OH228494   4.589   2.162   7.725 -0.7781  0.1296  0.0847
 2312TIP3    H128495   4.651   2.233   7.711  0.5493 -0.9298  0.2892
 2312TIP3    H228496   4.520   2.176   7.660 -0.6570  1.6829  0.2530
 2313TIP3   OH228497   1.415   5.549   7.861  0.0986 -0.0004  0.3840
 2313TIP3    H128498   1.437   5.483   7.796  0.9398 -0.6244  1.2531
 2313TIP3    H228499   1.332   5.586   7.832 -0.0633 -0.9853 -0.4735
 2314TIP3   OH228500   5.513   1.568   8.533 -0.0365 -0.8579 -0.3174
 2314TIP3    H128501   5.459   1.627   8.586 -1.0532 -2.6966  0.8107
 2314TIP3    H228502   5.517   1.610   8.447 -3.1726 -0.5182 -0.4058
 2315TIP3   OH228503   0.844   0.836   7.979  0.0304 -0.1798  0.4778
 2315TIP3    H128504   0.761   0.849   8.026  0.7116 -0.7894  1.9177
 2315TIP3    H228505   0.881   0.757   8.017  0.8530 -0.4292 -0.7931
 2316TIP3   OH228506   0.763   0.848   8.626  0.5660 -0.0123 -0.0032
 2316TIP3    H128507   0.740   0.783   8.559  1.2904 -0.7890  0.4915
 2316TIP3    H228508   0.733   0.931   8.589  0.2270 -0.5305 -0.9377
 2317TIP3   OH228509   2.420   4.725   7.247 -0.1897  0.1302  0.4559
 2317TIP3    H128510   2.350   4.742   7.184  1.1593 -0.9879 -1.4437
 2317TIP3    H228511   2.480   4.799   7.237 -0.0272  0.0044  0.4941
 2318TIP3   OH228512   1.688   1.756   8.679  0.5492  0.3582 -0.7075
 2318TIP3    H128513   1.653   1.668   8.688  2.3688 -0.5094 -1.6583
 2318TIP3    H228514   1.736   1.755   8.596  1.0686  2.0891 -0.4838
 2319TIP3   OH228515   3.759   6.787   7.653  0.2680 -0.0261 -0.1022
 2319TIP3    H128516   3.772   6.871   7.609 -0.2504  0.8471  1.3524
 2319TIP3    H228517   3.687   6.803   7.714 -1.2430 -2.0890 -1.2217
 2320TIP3   OH228518   3.261   0.901   2.024  0.1738  0.0827 -0.2550
 2320TIP3    H128519   3.187   0.961   2.033  0.2117 -0.0072  0.7546
 2320TIP3    H228520   3.230   0.819   2.062  0.2469 -0.4398 -1.2955
 2321TIP3   OH228521   0.619   4.375   8.601  0.2080 -0.5822  0.2259
 2321TIP3    H128522   0.662   4.442   8.653  1.1073 -0.7060 -0.3394
 2321TIP3    H228523   0.690   4.320   8.569 -0.0099  0.9330 -3.2098
 2322TIP3   OH228524   2.528   0.410   2.731 -0.1878  0.2044 -0.1282
 2322TIP3    H128525   2.477   0.330   2.715  1.1076 -0.9022  1.1011
 2322TIP3    H228526   2.489   0.447   2.810  1.2769 -1.0030  1.2043
 2323TIP3   OH228527   4.945   1.547   8.737  0.2040  0.3233 -0.0325
 2323TIP3    H128528   4.950   1.451   8.734 -0.2729  0.2585  1.0310
 2323TIP3    H228529   4.931   1.568   8.829  0.6915  1.4457 -0.2015
 2324TIP3   OH228530   0.296   5.178   1.310  0.4387  0.5498  0.3332
 2324TIP3    H128531   0.384   5.201   1.281 -0.9454  2.0234 -3.1662
 2324TIP3    H228532   0.302   5.086   1.335  3.0043  0.7248  0.5534
 2325TIP3   OH228533   4.263   1.030   7.449  0.1326  0.1171 -0.1826
 2325TIP3    H128534   4.319   1.062   7.520  0.1013  0.0384 -0.1223
 2325TIP3    H228535   4.324   0.997   7.383  0.1952 -3.0705  1.2540
 2326TIP3   OH228536   4.236   6.538   8.083 -0.1631 -0.1887 -0.1510
 2326TIP3    H128537   4.273   6.626   8.088  1.7611 -0.9251 -0.7645
 2326TIP3    H228538   4.160   6.541   8.142  0.2397  1.6793  0.3344
 2327TIP3   OH228539   0.282   5.780   1.016 -0.1497  0.2662  0.0890
 2327TIP3    H128540   0.199   5.746   0.981 -0.1706 -0.3856  0.7518
 2327TIP3    H228541   0.265   5.873   1.028 -0.5046  0.3008 -0.5792
 2328TIP3   OH228542   1.935   5.680   6.693 -0.9041 -0.0118 -0.0423
 2328TIP3    H128543   1.908   5.604   6.745 -1.1512  0.9075  1.2156
 2328TIP3    H228544   2.021   5.656   6.659 -0.0678 -0.1275  1.9675
 2329TIP3   OH228545   4.742   3.063   7.996  0.0066  0.1523 -0.1361
 2329TIP3    H128546   4.728   2.980   7.951  0.9975 -0.3390  0.4264
 2329TIP3    H228547   4.694   3.127   7.944  2.6395 -0.0474 -3.0567
 2330TIP3   OH228548   5.060   0.905   2.627  0.2767 -0.7841  0.3755
 2330TIP3    H128549   5.016   0.895   2.711 -0.4793  1.5091  0.3152
 2330TIP3    H228550   4.990   0.889   2.562  0.0114  0.7054  0.2582
 2331TIP3   OH228551   2.576   2.552   1.063  0.8727  0.1937 -0.3061
 2331TIP3    H128552   2.670   2.564   1.079  0.7295  0.8006  0.1304
 2331TIP3    H228553   2.535   2.630   1.101  0.1803 -0.1226 -0.3832
 2332TIP3   OH228554   5.483   6.484   6.429 -0.7507 -0.3024 -0.5340
 2332TIP3    H128555   5.544   6.412   6.445 -0.1089  0.0242 -1.3899
 2332TIP3    H228556   5.515   6.525   6.348 -0.0283  2.0530  0.8401
 2333TIP3   OH228557   0.048   6.416   1.314 -0.5968 -0.1738 -0.3140
 2333TIP3    H128558   0.057   6.452   1.402 -0.1561  0.6514 -0.6816
 2333TIP3    H228559   0.119   6.458   1.264 -1.0263 -0.3959 -1.1293
 2334TIP3   OH228560   3.429   1.119   0.841 -0.4095  0.0888  0.3579
 2334TIP3    H128561   3.478   1.078   0.913  2.0570  0.8917 -0.7572
 2334TIP3    H228562   3.398   1.201   0.877 -1.2374 -0.5707  1.1860
 2335TIP3   OH228563   5.582   3.107   1.264  0.2560 -0.9827  0.4483
 2335TIP3    H128564   5.675   3.090   1.280  0.2620 -1.9902 -0.5767
 2335TIP3    H228565   5.536   3.053   1.328  0.3488  0.3289  1.6931
 2336TIP3   OH228566   1.581   6.822   0.867  0.3612  0.0955  0.0124
 2336TIP3    H128567   1.493   6.855   0.888  1.5489  2.7680  1.2511
 2336TIP3    H228568   1.625   6.816   0.951  1.5578 -0.6640 -0.6399
 2337TIP3   OH228569   6.504   3.177   1.937  0.7065 -0.2057 -0.0064
 2337TIP3    H128570   6.490   3.254   1.993  2.6822  0.2018  0.0012
 2337TIP3    H228571   6.599   3.162   1.940  0.5291 -1.7851 -1.1537
 2338TIP3   OH228572   0.331   6.756   7.788  0.1721  0.5081 -0.5956
 2338TIP3    H128573   0.296   6.844   7.775 -1.2612  0.3952  1.7742
 2338TIP3    H228574   0.336   6.719   7.700 -0.8247  2.3677 -1.5025
 2339TIP3   OH228575   3.052   3.345   8.729 -0.2702  0.4436  0.7173
 2339TIP3    H128576   3.073   3.304   8.813  0.2037  0.1280  0.4456
 2339TIP3    H228577   3.119   3.313   8.669 -2.0234 -1.3424 -0.4100
 2340TIP3   OH228578   2.204   3.287   8.167 -0.5002  0.3569  0.5718
 2340TIP3    H128579   2.284   3.323   8.130  1.4018 -2.1337  1.9294
 2340TIP3    H228580   2.180   3.348   8.237 -0.0035  1.3137 -0.0823
 2341TIP3   OH228581   6.032   4.647   0.068  0.5195  0.1544  0.2705
 2341TIP3    H128582   6.043   4.699  -0.011  0.2180  0.3920  0.3827
 2341TIP3    H228583   6.085   4.692   0.134  0.5014  0.1479  0.2895
 2342TIP3   OH228584   3.909   3.864   2.421 -0.8267  0.0656 -0.9290
 2342TIP3    H128585   3.933   3.774   2.443 -0.3083  0.3062 -0.5068
 2342TIP3    H228586   3.824   3.877   2.465 -0.1134  0.3264  0.4235
 2343TIP3   OH228587   4.322   2.505   2.050  0.4674 -0.3162 -0.3769
 2343TIP3    H128588   4.338   2.421   2.093 -0.4745 -1.0673 -1.4160
 2343TIP3    H228589   4.263   2.483   1.978 -0.3952  1.3562 -0.2251
 2344TIP3   OH228590   6.099   3.728   0.428 -0.5037  0.0034 -0.0155
 2344TIP3    H128591   6.071   3.781   0.502  2.0641 -0.5365  1.4599
 2344TIP3    H228592   6.176   3.773   0.393  0.6786 -1.7680  0.1645
 2345TIP3   OH228593   3.184   0.101   0.137 -0.0613  0.3942  0.2313
 2345TIP3    H128594   3.216   0.014   0.117  1.9946  1.3603 -1.0371
 2345TIP3    H228595   3.216   0.120   0.225  0.5479  0.3165  0.0280
 2346TIP3   OH228596   0.749   4.914   3.020 -0.6257 -0.3183 -0.1578
 2346TIP3    H128597   0.828   4.861   3.018 -0.2265  0.1838  1.2766
 2346TIP3    H228598   0.695   4.876   3.090 -1.3923 -0.2918 -0.7184
 2347TIP3   OH228599   0.184   4.051   7.011  0.0370 -0.2593 -0.4227
 2347TIP3    H128600   0.250   3.996   6.969  0.9976  0.9351 -0.5146
 2347TIP3    H228601   0.180   4.130   6.958 -2.3514 -0.7638 -1.1224
 2348TIP3   OH228602   6.243   0.105   1.257  0.2711  0.4944 -0.8232
 2348TIP3    H128603   6.237   0.077   1.166 -1.4114 -1.2909 -0.2443
 2348TIP3    H228604   6.154   0.101   1.290  0.9647  0.0579  1.1804
 2349TIP3   OH228605   3.150   1.536   2.274  0.2896 -0.3033 -0.2665
 2349TIP3    H128606   3.176   1.546   2.182 -1.5091  1.9901 -0.6334
 2349TIP3    H228607   3.182   1.615   2.317 -0.2054 -0.6315  0.7411
 2350TIP3   OH228608   2.228   0.376   0.744  0.1115  0.3118  0.0121
 2350TIP3    H128609   2.172   0.386   0.821  0.0651  1.5171 -0.1598
 2350TIP3    H228610   2.219   0.458   0.697 -1.0673 -0.9456 -2.1209
 2351TIP3   OH228611   3.805   3.531   7.588 -0.4661  0.1545 -0.3549
 2351TIP3    H128612   3.745   3.564   7.521 -0.1577  3.0059  0.6418
 2351TIP3    H228613   3.866   3.604   7.604  1.2692 -1.4789  0.9719
 2352TIP3   OH228614   2.589   3.102   2.120  0.7887  0.5856 -0.1760
 2352TIP3    H128615   2.598   3.088   2.214 -1.3199 -0.8711 -0.1388
 2352TIP3    H228616   2.613   3.018   2.080 -1.0459  0.2762 -0.7145
 2353TIP3   OH228617   4.531   1.670   1.851 -0.2187 -0.1402 -0.1638
 2353TIP3    H128618   4.457   1.730   1.865  0.4419  0.2443  2.1576
 2353TIP3    H228619   4.580   1.710   1.779 -0.7060  1.2018  0.2148
 2354TIP3   OH228620   6.822   0.476   8.272 -0.7609 -0.3915 -0.3313
 2354TIP3    H128621   6.815   0.424   8.351  0.9326 -0.1747 -0.0017
 2354TIP3    H228622   6.828   0.411   8.201 -0.3978 -0.6176 -0.0956
 2355TIP3   OH228623   5.462   5.848   2.231 -0.8177  0.1026 -0.1529
 2355TIP3    H128624   5.543   5.888   2.263  1.1549 -3.0594 -0.7646
 2355TIP3    H228625   5.436   5.904   2.157  1.3941  0.6689 -0.5905
 2356TIP3   OH228626   4.145   1.974   0.344 -0.8809 -0.3606 -0.2534
 2356TIP3    H128627   4.146   1.907   0.276 -0.8756 -0.0411 -0.5695
 2356TIP3    H228628   4.160   1.925   0.425 -1.8654 -0.8705 -0.3589
 2357TIP3   OH228629   4.834   1.723   7.162  0.5113  0.1210 -1.0135
 2357TIP3    H128630   4.846   1.710   7.257 -0.0608 -3.6292 -1.3155
 2357TIP3    H228631   4.921   1.747   7.131  1.2906 -0.9766  0.1917
 2358TIP3   OH228632   1.318   0.994   0.320 -0.5783  0.1203 -0.1389
 2358TIP3    H128633   1.364   1.042   0.250 -2.0576  0.8293 -0.6652
 2358TIP3    H228634   1.318   0.903   0.290 -0.2474  0.2413 -0.5249
 2359TIP3   OH228635   4.426   5.802   3.068 -0.2453 -0.2273  0.1376
 2359TIP3    H128636   4.346   5.821   3.117 -0.7271  0.9493 -1.0502
 2359TIP3    H228637   4.493   5.790   3.136 -0.8210  1.6557  1.1164
 2360TIP3   OH228638   6.840   2.496   2.353 -0.0705 -0.5724  0.2861
 2360TIP3    H128639   6.932   2.500   2.378 -0.6789  0.3803  2.5436
 2360TIP3    H228640   6.805   2.423   2.404 -0.7753 -0.3084  0.1851
 2361TIP3   OH228641   1.670   5.162   7.233 -0.0783 -0.3843  0.0174
 2361TIP3    H128642   1.725   5.090   7.204  2.4389  1.9718 -1.5395
 2361TIP3    H228643   1.611   5.179   7.159 -1.6708 -1.6324  0.9255
 2362TIP3   OH228644   0.781   6.520   0.508  0.0148  0.0189  0.3126
 2362TIP3    H128645   0.815   6.580   0.574 -0.8526  0.6189  0.2430
 2362TIP3    H228646   0.853   6.509   0.446 -0.1422  1.9220 -0.2830
 2363TIP3   OH228647   5.454   4.389   2.498  0.2586 -0.2245 -0.1173
 2363TIP3    H128648   5.421   4.331   2.430  0.0773 -0.0871 -0.1478
 2363TIP3    H228649   5.523   4.440   2.455  2.4106 -2.3492  0.6206
 2364TIP3   OH228650   6.302   2.800   7.004 -0.8128  0.3580  0.0475
 2364TIP3    H128651   6.223   2.768   7.047 -0.2457 -1.5640 -0.2448
 2364TIP3    H228652   6.297   2.896   7.013 -2.2188  0.1895  1.6628
 2365TIP3   OH228653   0.710   0.773   7.647 -0.3502 -0.4224 -0.2567
 2365TIP3    H128654   0.618   0.795   7.662 -0.5275 -0.8374 -0.7028
 2365TIP3    H228655   0.712   0.731   7.561  0.4002  0.3805 -0.6457
 2366TIP3   OH228656   2.156   5.694   1.929 -0.0853  0.3748  0.1799
 2366TIP3    H128657   2.220   5.667   1.864 -0.3354  0.1517  0.0259
 2366TIP3    H228658   2.204   5.693   2.012  0.3865  1.2224 -0.0799
 2367TIP3   OH228659   4.348   3.452   8.059  0.8469  0.4322 -0.1035
 2367TIP3    H128660   4.363   3.475   8.150  1.7691 -2.4438  0.5612
 2367TIP3    H228661   4.259   3.482   8.041  1.0088  1.9491  1.3659
 2368TIP3   OH228662   3.092   5.279   0.733 -0.0488  0.0868  0.1823
 2368TIP3    H128663   3.155   5.299   0.664 -1.9072  0.9548 -1.3621
 2368TIP3    H228664   3.113   5.340   0.803  0.8792  0.2886 -0.2595
 2369TIP3   OH228665   4.786   4.509   1.038 -0.2168  0.7007 -0.0750
 2369TIP3    H128666   4.757   4.537   0.951 -2.3979  0.1325  0.4159
 2369TIP3    H228667   4.736   4.564   1.099 -0.1872 -0.2463  0.8353
 2370TIP3   OH228668   3.384   2.047   7.529  0.1244 -0.5532 -0.0837
 2370TIP3    H128669   3.397   1.970   7.585 -0.4218  1.9417  3.8394
 2370TIP3    H228670   3.471   2.065   7.494  1.0000 -1.0912  1.6697
 2371TIP3   OH228671   1.405   2.042   0.862  0.1681 -0.5163 -0.2439
 2371TIP3    H128672   1.420   2.079   0.775  0.2368 -1.6694 -0.7410
 2371TIP3    H228673   1.460   1.964   0.864  0.4520 -0.2980  0.9846
 2372TIP3   OH228674   1.621   4.736   1.838  0.4809 -0.3256 -0.2536
 2372TIP3    H128675   1.681   4.676   1.881  0.7679  0.0052 -0.1867
 2372TIP3    H228676   1.535   4.694   1.844  0.5665 -0.4062  0.3917
 2373TIP3   OH228677   2.627   3.531   0.067 -0.0701  0.1957  0.0723
 2373TIP3    H128678   2.668   3.456   0.024  0.2068  0.1082  0.4851
 2373TIP3    H228679   2.549   3.495   0.109 -0.1757  0.2246 -0.0963
 2374TIP3   OH228680   1.882   6.187   7.531 -0.0006 -0.5932  0.1126
 2374TIP3    H128681   1.971   6.211   7.505  0.3761 -1.2309  0.7638
 2374TIP3    H228682   1.877   6.210   7.624 -1.3476  1.7384 -0.4763
 2375TIP3   OH228683   4.708   2.509   0.048 -0.4688  0.4382 -0.0430
 2375TIP3    H128684   4.742   2.502   0.137 -0.8259 -0.8560  0.0021
 2375TIP3    H228685   4.617   2.536   0.059 -0.9961 -1.2884  0.0813
 2376TIP3   OH228686   1.336   0.194   1.696  0.2583  0.0691 -0.0865
 2376TIP3    H128687   1.406   0.129   1.693  0.8504  0.6889  0.1220
 2376TIP3    H228688   1.280   0.173   1.621 -0.0121 -1.1721  0.4417
 2377TIP3   OH228689   3.159   4.353   1.680 -0.1181 -0.4632  0.1795
 2377TIP3    H128690   3.207   4.322   1.756 -0.5713  1.4266  1.2794
 2377TIP3    H228691   3.179   4.446   1.674 -0.2107 -0.5175 -1.9501
 2378TIP3   OH228692   0.081   1.612   1.312  0.0281 -0.6784  0.3689
 2378TIP3    H128693   0.089   1.536   1.254 -1.8201  0.0625 -0.9506
 2378TIP3    H228694  -0.003   1.599   1.356 -0.6762  0.9445 -0.4385
 2379TIP3   OH228695   5.542   6.764   0.877  0.2425  0.0503  0.1540
 2379TIP3    H128696   5.497   6.836   0.831  1.0849 -0.2499 -1.1945
 2379TIP3    H228697   5.494   6.755   0.960 -1.0689  0.8976 -0.4728
 2380TIP3   OH228698   3.320   5.235   0.115 -0.4175 -0.2599 -0.0237
 2380TIP3    H128699   3.345   5.328   0.115  0.7642 -0.5696  0.1637
 2380TIP3    H228700   3.362   5.199   0.037  0.5573 -1.0065  0.8387
 2381TIP3   OH228701   2.695   1.988   0.340  0.2441 -0.1865 -0.1843
 2381TIP3    H128702   2.617   2.038   0.367  0.8860  0.1140  1.2076
 2381TIP3    H228703   2.725   2.032   0.261 -0.0214  0.7605  0.2227
 2382TIP3   OH228704   5.778   4.014   1.187  0.5321 -0.0387  0.3897
 2382TIP3    H128705   5.771   3.931   1.139 -1.0931 -0.5563  1.4206
 2382TIP3    H228706   5.767   3.990   1.279 -1.3082  1.4216  0.6166
 2383TIP3   OH228707   3.798   5.838   8.604 -0.0324  0.4375  0.2928
 2383TIP3    H128708   3.883   5.833   8.648 -0.7673  1.2972  1.9239
 2383TIP3    H228709   3.734   5.838   8.676 -1.4615 -0.8455 -0.9109
 2384TIP3   OH228710   2.061   1.347   8.169  0.1929  0.5516 -0.1874
 2384TIP3    H128711   2.131   1.310   8.223  0.7166  2.7747  0.7659
 2384TIP3    H228712   1.987   1.289   8.183  1.1910 -0.5872  0.5727
 2385TIP3   OH228713   4.927   1.243   8.683  0.0933 -0.1424  0.4633
 2385TIP3    H128714   5.007   1.193   8.666 -0.3324 -0.8783  0.5872
 2385TIP3    H228715   4.858   1.195   8.637 -0.4445 -0.0718  1.1727
 2386TIP3   OH228716   2.365   4.183   1.229  0.5942  0.2284 -0.0685
 2386TIP3    H128717   2.282   4.135   1.233 -0.4076  1.9324  2.8946
 2386TIP3    H228718   2.339   4.272   1.206  1.4211  0.9825  1.7532
 2387TIP3   OH228719   2.282   5.915   0.014 -0.1809  0.5219 -0.0628
 2387TIP3    H128720   2.343   5.988   0.001 -0.8148  1.1270  0.2908
 2387TIP3    H228721   2.282   5.868  -0.070  1.2315  0.1409  0.1233
 2388TIP3   OH228722   4.678   6.671   7.865  0.1076  0.5240 -0.2555
 2388TIP3    H128723   4.749   6.735   7.862  1.8250 -1.2085  0.8026
 2388TIP3    H228724   4.598   6.723   7.877  1.4660  2.4309  1.0658
 2389TIP3   OH228725   2.046   2.010   7.332 -0.1741 -0.8061 -0.3337
 2389TIP3    H128726   1.994   1.966   7.264 -0.5234  0.2287 -0.7570
 2389TIP3    H228727   1.986   2.075   7.369 -0.3576 -2.0534  1.7466
 2390TIP3   OH228728   5.394   3.940   1.276  0.5154  0.3347  0.2823
 2390TIP3    H128729   5.473   3.887   1.290  1.1546  1.0859 -0.4415
 2390TIP3    H228730   5.394   4.002   1.349 -1.5378 -2.1067  2.5823
 2391TIP3   OH228731   2.888   0.809   1.894  0.3272 -0.0990  0.6109
 2391TIP3    H128732   2.904   0.875   1.827  0.3591 -1.3512 -0.6745
 2391TIP3    H228733   2.962   0.818   1.955  1.5708 -0.4159 -0.7841
 2392TIP3   OH228734   2.252   5.516   1.005 -0.5894  0.0498 -0.4085
 2392TIP3    H128735   2.333   5.553   1.042  0.0490 -1.4252 -0.2639
 2392TIP3    H228736   2.193   5.508   1.080 -0.2817 -0.3761 -0.2074
 2393TIP3   OH228737   2.499   0.890   8.053  0.0096 -0.3616 -0.1340
 2393TIP3    H128738   2.550   0.971   8.057  1.1722 -1.0242 -0.7881
 2393TIP3    H228739   2.433   0.900   8.121  0.0582  1.1708 -0.2708
 2394TIP3   OH228740   4.071   2.959   7.666 -0.1286 -1.0951  0.0632
 2394TIP3    H128741   4.082   2.943   7.572 -1.2852  0.6072 -0.4154
 2394TIP3    H228742   4.131   2.898   7.708  2.6717  0.0915 -1.8715
 2395TIP3   OH228743   0.129   3.428   0.683  0.0378 -0.3795 -0.2964
 2395TIP3    H128744   0.055   3.388   0.637 -1.5405  1.7155  0.2471
 2395TIP3    H228745   0.185   3.462   0.613 -0.2550 -0.7519 -0.7183
 2396TIP3   OH228746   5.021   6.311   1.438  0.2952 -0.2640 -0.4026
 2396TIP3    H128747   5.008   6.403   1.418 -1.4860 -0.2904  0.4802
 2396TIP3    H228748   5.058   6.309   1.525  0.6939 -0.3735 -0.5729
 2397TIP3   OH228749   3.838   6.682   6.595  0.0536 -0.4101  0.0504
 2397TIP3    H128750   3.860   6.592   6.573  1.9414 -0.4243  1.7828
 2397TIP3    H228751   3.854   6.689   6.689 -0.3734  1.6434  0.0159
 2398TIP3   OH228752   3.949   3.908   1.825 -0.3355  0.1039  0.6639
 2398TIP3    H128753   3.883   3.893   1.757 -2.1015  1.1911  2.0305
 2398TIP3    H228754   3.904   3.889   1.907  1.9591 -1.9191  1.5753
 2399TIP3   OH228755   6.453   1.415   1.593  0.2467  0.0160  0.6159
 2399TIP3    H128756   6.413   1.355   1.530  1.6594 -2.4556  1.9223
 2399TIP3    H228757   6.378   1.454   1.639 -0.8069  1.7239 -2.2999
 2400TIP3   OH228758   6.803   0.001   0.579  0.3568 -0.1749 -0.1196
 2400TIP3    H128759   6.722  -0.021   0.535 -0.1559 -1.5840  1.4134
 2400TIP3    H228760   6.857   0.044   0.512 -0.6197 -1.5807 -1.8880
 2401TIP3   OH228761   4.236   5.448   2.020 -0.0191 -0.1894  0.4835
 2401TIP3    H128762   4.231   5.532   2.064 -2.0106 -0.1043  0.2044
 2401TIP3    H228763   4.325   5.417   2.035  1.0907  2.4063 -0.2484
 2402TIP3   OH228764   5.296   6.208   6.993 -0.0192  0.3603 -0.4825
 2402TIP3    H128765   5.285   6.114   6.981  0.6102  0.2569 -0.2610
 2402TIP3    H228766   5.284   6.244   6.905 -1.9359  0.2629 -0.3158
 2403TIP3   OH228767   5.325   6.248   1.064  0.0267  0.3490  0.1342
 2403TIP3    H128768   5.301   6.184   0.996  2.5625 -0.7569  0.1800
 2403TIP3    H228769   5.302   6.333   1.026 -0.6067 -0.3882 -1.2019
 2404TIP3   OH228770   3.336   3.461   0.169  0.0160  0.0046  0.0394
 2404TIP3    H128771   3.270   3.397   0.197  0.1711 -0.8293 -1.3949
 2404TIP3    H228772   3.410   3.408   0.142  0.6029  0.8663 -0.0818
 2405TIP3   OH228773   2.778   0.383   7.593 -0.3591 -0.3287 -0.0629
 2405TIP3    H128774   2.722   0.317   7.552  0.6443 -0.6908 -0.8906
 2405TIP3    H228775   2.733   0.405   7.674 -1.7827 -0.4820 -0.7801
 2406TIP3   OH228776   2.713   1.316   0.035 -0.4268  0.1101 -0.2137
 2406TIP3    H128777   2.800   1.323  -0.004 -0.7980 -1.0405 -1.3352
 2406TIP3    H228778   2.658   1.372  -0.020 -0.2981  1.4003  0.9162
 2407TIP3   OH228779   2.331   1.202   0.441 -0.2673 -0.0070  0.3554
 2407TIP3    H128780   2.251   1.165   0.478 -1.1219  1.4593  0.0769
 2407TIP3    H228781   2.337   1.289   0.481  0.0681  0.6947 -1.1537
 2408TIP3   OH228782   5.018   0.672   2.163 -0.0264 -0.1818 -0.2759
 2408TIP3    H128783   4.930   0.711   2.165 -0.1850 -0.5486 -0.1165
 2408TIP3    H228784   5.010   0.597   2.104  0.2187 -0.1314 -0.3759
 2409TIP3   OH228785   5.747   1.808   7.558  0.0879 -0.1295 -0.1588
 2409TIP3    H128786   5.723   1.897   7.586 -2.1230 -1.0596  1.1521
 2409TIP3    H228787   5.838   1.798   7.587 -0.6804  0.5860  2.8292
 2410TIP3   OH228788   0.322   2.306   7.919 -0.2661  0.5331  0.2419
 2410TIP3    H128789   0.378   2.246   7.871 -0.6820  0.4604 -0.1612
 2410TIP3    H228790   0.266   2.249   7.972  1.4083  0.6418  2.2516
 2411TIP3   OH228791   5.493   5.893   7.279 -0.4424 -0.0313  0.1075
 2411TIP3    H128792   5.483   5.928   7.190  0.7438  1.7655  0.6403
 2411TIP3    H228793   5.461   5.963   7.336 -0.0085 -0.6572  1.1387
 2412TIP3   OH228794   4.409   2.960   1.783 -0.2181 -0.5266 -0.3015
 2412TIP3    H128795   4.466   2.912   1.844  0.9105  0.2602 -0.7050
 2412TIP3    H228796   4.362   2.891   1.735 -0.9403 -1.1644  1.2518
 2413TIP3   OH228797   2.370   6.141   1.066  0.1473 -0.3733  0.0709
 2413TIP3    H128798   2.371   6.186   0.982  0.6622  0.3144  0.4342
 2413TIP3    H228799   2.319   6.199   1.123 -1.2848 -1.4332 -0.0713
 2414TIP3   OH228800   3.363   1.420   0.884 -0.0040  0.4544 -0.3745
 2414TIP3    H128801   3.276   1.449   0.912  0.5114  0.6849  1.0272
 2414TIP3    H228802   3.375   1.463   0.799 -1.6742 -0.4089 -1.1019
 2415TIP3   OH228803   2.251   3.364   7.526  0.7768  0.1598 -0.7949
 2415TIP3    H128804   2.240   3.300   7.455 -0.8667  1.0958 -1.4470
 2415TIP3    H228805   2.213   3.320   7.602  1.9455 -0.5924 -0.6198
 2416TIP3   OH228806   5.377   3.569   7.560 -0.6438  0.1350 -0.3073
 2416TIP3    H128807   5.301   3.512   7.547 -1.2879  0.9042 -0.0809
 2416TIP3    H228808   5.339   3.658   7.561  0.3959  0.6097 -1.2337
 2417TIP3   OH228809   0.112   0.568   0.823 -0.2947  0.4493 -0.0137
 2417TIP3    H128810   0.160   0.608   0.896 -0.8056  0.2227  0.4512
 2417TIP3    H228811   0.056   0.638   0.790 -0.7333  0.2962  0.4009
 2418TIP3   OH228812   6.488   0.578   1.182  0.0612  0.3815  0.6148
 2418TIP3    H128813   6.458   0.666   1.206 -1.5720  0.2685 -0.8458
 2418TIP3    H228814   6.583   0.587   1.173 -0.0862  2.0216  0.3655
 2419TIP3   OH228815   1.881   1.572   2.698  0.4246  0.3548 -0.2241
 2419TIP3    H128816   1.824   1.503   2.663  1.1970 -1.8219  2.4302
 2419TIP3    H228817   1.927   1.606   2.621 -0.1464 -1.9896 -1.7264
 2420TIP3   OH228818   2.808   5.230   7.435 -0.1318  0.1767  0.2807
 2420TIP3    H128819   2.718   5.232   7.402 -0.0734  1.7344  0.1473
 2420TIP3    H228820   2.840   5.319   7.423  1.5368 -0.4165  0.0705
 2421TIP3   OH228821   0.960   0.812   0.497 -0.3003 -0.8301  0.1127
 2421TIP3    H128822   0.976   0.826   0.403 -0.3464 -1.3472  0.0278
 2421TIP3    H228823   0.865   0.823   0.507 -0.3317 -1.0407  0.0513
 2422TIP3   OH228824   1.783   6.409   1.589  0.5257  0.0795  0.1742
 2422TIP3    H128825   1.703   6.365   1.617  1.1305 -1.9542 -1.0429
 2422TIP3    H228826   1.852   6.369   1.642  0.9043  0.8925  0.3085
 2423TIP3   OH228827   3.340   4.318   8.635 -0.0349 -0.4090 -0.6480
 2423TIP3    H128828   3.402   4.250   8.609  0.8544 -0.2715  0.9208
 2423TIP3    H228829   3.281   4.328   8.561  0.5605 -2.0271 -1.3740
 2424TIP3   OH228830   5.035   0.998   2.217 -0.0587 -0.0282 -0.1303
 2424TIP3    H128831   5.013   0.922   2.272  0.9799  1.2812  2.2257
 2424TIP3    H228832   5.131   1.002   2.218 -0.0741  0.9173 -0.8139
 2425TIP3   OH228833   0.291   5.124   0.215  0.3568  0.0033 -0.2951
 2425TIP3    H128834   0.230   5.052   0.232  0.4437  0.4020  2.0220
 2425TIP3    H228835   0.344   5.130   0.294  1.1329  1.8666 -0.8948
 2426TIP3   OH228836   4.241   2.786   7.829  0.3665 -0.0868  0.1975
 2426TIP3    H128837   4.309   2.797   7.895 -0.1005  1.0741  0.5115
 2426TIP3    H228838   4.256   2.699   7.794  0.1238 -1.1022  2.4256
 2427TIP3   OH228839   2.610   0.652   0.486 -0.3429  0.1502  0.4260
 2427TIP3    H128840   2.681   0.596   0.517 -2.1996 -2.0647  0.9411
 2427TIP3    H228841   2.632   0.669   0.394 -0.1310 -2.3073 -0.0675
 2428TIP3   OH228842   2.903   5.094   0.757 -0.0253 -0.3757  0.6305
 2428TIP3    H128843   2.967   5.160   0.732 -0.6733  0.5654  1.3728
 2428TIP3    H228844   2.832   5.143   0.798 -1.0075 -1.4327  0.2640
 2429TIP3   OH228845   1.689   4.269   2.022 -0.6596 -0.0918 -0.2682
 2429TIP3    H128846   1.758   4.203   2.028 -0.1673  0.3332 -1.0426
 2429TIP3    H228847   1.629   4.247   2.093  1.1694  0.5752  1.5951
 2430TIP3   OH228848   5.762   5.631   1.276 -0.8554  0.2533  0.1618
 2430TIP3    H128849   5.726   5.682   1.349 -0.2982 -0.2798  0.8162
 2430TIP3    H228850   5.834   5.582   1.314 -0.9302 -0.4823 -0.6214
 2431TIP3   OH228851   2.268   6.703   2.055  0.2341  0.0126 -0.7197
 2431TIP3    H128852   2.289   6.631   1.995 -2.1003 -0.9578 -0.4703
 2431TIP3    H228853   2.321   6.686   2.133  1.9225  0.2643 -1.7666
 2432TIP3   OH228854   0.698   2.552   8.090 -0.8033 -0.1165  0.2513
 2432TIP3    H128855   0.744   2.579   8.010 -0.6466 -2.1738 -0.3939
 2432TIP3    H228856   0.656   2.633   8.121  0.7030  1.1513 -0.8303
 2433TIP3   OH228857   1.905   4.933   0.238 -0.1501 -0.9484  0.1748
 2433TIP3    H128858   1.934   4.935   0.147  3.1800  2.1018  1.0723
 2433TIP3    H228859   1.835   4.997   0.243  0.4631 -0.2530 -0.0448
 2434TIP3   OH228860   2.389   6.481   8.741 -0.0955  0.0225 -0.5356
 2434TIP3    H128861   2.431   6.506   8.823  1.0824 -1.6848 -0.5570
 2434TIP3    H228862   2.356   6.393   8.757  1.8436 -1.1395 -2.4126
 2435TIP3   OH228863   5.013   2.410   7.561  0.3238  0.1907 -0.1692
 2435TIP3    H128864   5.099   2.439   7.592  0.9731 -1.8453  0.1135
 2435TIP3    H228865   4.993   2.468   7.488  2.1044  0.5072 -0.4549
 2436TIP3   OH228866   2.633   4.671   0.109  0.4386  0.0217 -0.5820
 2436TIP3    H128867   2.682   4.589   0.117 -1.4190 -1.0831  0.0746
 2436TIP3    H228868   2.605   4.673   0.018 -0.1140 -0.4517 -0.4278
 2437TIP3   OH228869   3.253   3.921   8.523 -0.1228 -0.0301  0.4842
 2437TIP3    H128870   3.216   3.918   8.611 -0.9659  1.5596  0.2159
 2437TIP3    H228871   3.178   3.913   8.465  0.2202  0.7038 -0.0758
 2438TIP3   OH228872   3.419   6.571   2.288 -0.7400  0.0732  0.1523
 2438TIP3    H128873   3.340   6.571   2.343 -1.2624 -1.1668 -0.5471
 2438TIP3    H228874   3.398   6.631   2.217 -1.2211 -0.5188 -0.2229
 2439TIP3   OH228875   0.538   5.754   8.267 -0.2930 -0.6488 -0.3278
 2439TIP3    H128876   0.526   5.710   8.184 -0.7094  1.0963 -1.2418
 2439TIP3    H228877   0.487   5.835   8.260 -0.5840 -0.5898  1.7332
 2440TIP3   OH228878   5.592   5.646   7.324  0.3913  0.2747  0.0741
 2440TIP3    H128879   5.574   5.600   7.406  0.2081  0.8950  0.3923
 2440TIP3    H228880   5.543   5.728   7.333 -0.4218 -0.0686 -1.0594
 2441TIP3   OH228881   3.802   6.163   1.068 -0.7390  0.0033  0.0155
 2441TIP3    H128882   3.731   6.106   1.038 -1.1533  1.4178 -1.8771
 2441TIP3    H228883   3.758   6.234   1.114 -0.2863 -0.7087  1.5973
 2442TIP3   OH228884   3.149   2.005   2.242 -0.2571 -0.0819 -0.1157
 2442TIP3    H128885   3.099   2.004   2.324  0.8297 -0.0906  0.5697
 2442TIP3    H228886   3.187   2.092   2.239  2.0659 -0.9860  0.9024
 2443TIP3   OH228887   2.463   0.370   2.062  0.0271 -0.3167 -0.1447
 2443TIP3    H128888   2.421   0.446   2.023  0.3176  0.4778  1.0287
 2443TIP3    H228889   2.431   0.295   2.011  0.1161  0.6255 -1.6263
 2444TIP3   OH228890   0.847   2.994   7.607  0.1314  0.0688  0.0071
 2444TIP3    H128891   0.772   3.011   7.663 -0.9687  1.7510 -1.8776
 2444TIP3    H228892   0.909   3.064   7.627  2.0213 -2.1525  2.6743
 2445TIP3   OH228893   0.149   3.315   0.244  0.1517 -0.8260  0.4807
 2445TIP3    H128894   0.067   3.265   0.240 -0.1575 -0.2972  0.2227
 2445TIP3    H228895   0.146   3.360   0.328  0.1432 -0.7408  0.4343
 2446TIP3   OH228896   4.465   2.237   0.440 -0.3083  0.2717 -0.4904
 2446TIP3    H128897   4.492   2.233   0.348  1.8032 -1.3944  0.1163
 2446TIP3    H228898   4.546   2.253   0.488 -0.7050 -2.4261  1.2892
 2447TIP3   OH228899   1.305   3.703   2.505 -0.3840  0.0659  0.4994
 2447TIP3    H128900   1.245   3.722   2.433  0.7653  0.1068 -0.4840
 2447TIP3    H228901   1.249   3.701   2.583 -1.7245 -0.4120 -0.4357
 2448TIP3   OH228902   0.483   6.493   1.548  0.1129  0.5700  0.1593
 2448TIP3    H128903   0.531   6.540   1.480  0.2145  0.5297  0.2041
 2448TIP3    H228904   0.486   6.550   1.625  0.3925  0.4067  0.2680
 2449TIP3   OH228905   0.384   6.204   7.036  0.4372  0.3569 -0.1725
 2449TIP3    H128906   0.476   6.183   7.048 -0.0822 -2.9153 -0.8400
 2449TIP3    H228907   0.373   6.210   6.941 -0.1501 -0.0606 -0.1396
 2450TIP3   OH228908   0.358   0.320   7.876 -0.4575 -0.1386  0.0751
 2450TIP3    H128909   0.428   0.334   7.940 -0.2073  2.4097 -0.6452
 2450TIP3    H228910   0.316   0.238   7.904  0.0878  0.4833  3.0710
 2451TIP3   OH228911   1.227   5.021   7.037  0.3055  0.3455  0.2692
 2451TIP3    H128912   1.196   5.107   7.009 -0.0316 -0.3780 -1.7393
 2451TIP3    H228913   1.148   4.973   7.058  0.3879  0.0547 -0.0807
 2452TIP3   OH228914   6.829   2.800   0.162  0.0054  0.0311  0.0322
 2452TIP3    H128915   6.921   2.820   0.142 -0.1412 -0.1213 -0.8387
 2452TIP3    H228916   6.789   2.885   0.178 -0.1255  0.2760 -1.4970
 2453TIP3   OH228917   5.336   6.306   7.705  0.5494  0.3242 -0.4640
 2453TIP3    H128918   5.279   6.279   7.777  1.0179  2.2663  0.7109
 2453TIP3    H228919   5.388   6.229   7.685 -0.6842 -0.7227  0.1892
 2454TIP3   OH228920   5.226   6.536   8.352  0.4725 -0.0644  0.9295
 2454TIP3    H128921   5.167   6.568   8.420  1.1430 -0.9750  1.9665
 2454TIP3    H228922   5.171   6.527   8.274 -0.2143  1.3858  1.2174
 2455TIP3   OH228923   4.708   3.379   1.126 -0.5719  0.1365  0.2088
 2455TIP3    H128924   4.621   3.418   1.123 -0.9708 -0.7026  0.4594
 2455TIP3    H228925   4.734   3.372   1.034  0.0487  2.1279  0.2052
 2456TIP3   OH228926   3.365   0.046   2.358  0.6345 -0.5168 -0.2902
 2456TIP3    H128927   3.406   0.042   2.271  0.6883 -0.5662 -0.2621
 2456TIP3    H228928   3.290  -0.014   2.351  1.0571 -1.0705 -0.0770
 2457TIP3   OH228929   5.360   3.769   7.843 -0.1422 -0.4484  0.1630
 2457TIP3    H128930   5.279   3.759   7.793 -0.7205 -0.2630  1.0460
 2457TIP3    H228931   5.413   3.693   7.818 -1.7016 -2.1161  1.6004
 2458TIP3   OH228932   5.741   5.208   7.822 -0.3380 -0.1833  0.0487
 2458TIP3    H128933   5.676   5.186   7.890  1.5885 -5.1366  0.7250
 2458TIP3    H228934   5.696   5.191   7.740 -0.6936 -1.2736  0.4387
 2459TIP3   OH228935   0.263   1.866   7.176 -0.3446 -0.3715  0.2416
 2459TIP3    H128936   0.187   1.900   7.128  1.1601  0.5689 -1.6205
 2459TIP3    H228937   0.315   1.822   7.109  0.0908 -2.2652  1.7469
 2460TIP3   OH228938   1.916   4.685   2.404  0.3738 -0.0435 -0.7554
 2460TIP3    H128939   1.866   4.681   2.485 -0.4071 -0.2412 -1.2379
 2460TIP3    H228940   1.926   4.779   2.387 -1.9649  0.0678 -1.9127
 2461TIP3   OH228941   3.164   2.182   1.443 -0.4430 -0.1724  0.0214
 2461TIP3    H128942   3.158   2.087   1.428 -0.6255 -0.0940 -0.4068
 2461TIP3    H228943   3.151   2.221   1.357  1.9474  0.1890 -0.2566
 2462TIP3   OH228944   0.335   5.173   1.908 -0.4720 -0.6812 -0.3039
 2462TIP3    H128945   0.329   5.251   1.854 -0.1260 -0.0915  0.4944
 2462TIP3    H228946   0.429   5.164   1.926 -0.6138 -0.6585  0.4899
 2463TIP3   OH228947   5.992   4.421   1.301  0.3663 -0.4353 -0.1738
 2463TIP3    H128948   5.960   4.506   1.272  0.1671 -0.8062 -1.0884
 2463TIP3    H228949   5.991   4.367   1.222  0.1391 -1.3925  0.4634
 2464TIP3   OH228950   5.237   6.150   0.163  0.2642  0.1345 -0.1407
 2464TIP3    H128951   5.272   6.074   0.210  0.1750  0.4605  0.4744
 2464TIP3    H228952   5.191   6.200   0.231  0.1824  0.6522 -0.5730
 2465TIP3   OH228953   5.685   5.418   0.178 -0.0957  0.2182  0.0790
 2465TIP3    H128954   5.752   5.395   0.242 -2.2188 -0.1844  2.2661
 2465TIP3    H228955   5.680   5.513   0.182  1.8353  0.4792 -1.7864
 2466TIP3   OH228956   6.301   2.736   8.524  0.8273  0.1446  0.2442
 2466TIP3    H128957   6.367   2.802   8.501  1.1618  0.1791  1.2319
 2466TIP3    H228958   6.280   2.754   8.616  0.1469 -0.4744  0.2237
 2467TIP3   OH228959   2.700   0.312   0.284 -0.2923  0.4604  0.8879
 2467TIP3    H128960   2.668   0.365   0.211  0.9448  2.5938  1.8129
 2467TIP3    H228961   2.633   0.322   0.352 -1.2942 -1.2839  0.2377
 2468TIP3   OH228962   2.926   5.916   8.185 -0.5624 -0.0148  0.5938
 2468TIP3    H128963   3.019   5.912   8.162 -1.0738 -0.9128 -1.6184
 2468TIP3    H228964   2.889   5.978   8.122 -1.5036  0.1923  1.3337
 2469TIP3   OH228965   1.489   3.413   0.880  0.4000 -0.3338 -0.2441
 2469TIP3    H128966   1.415   3.355   0.899  1.8334 -1.5261  2.0732
 2469TIP3    H228967   1.502   3.463   0.960  1.4658  0.5876 -0.9640
 2470TIP3   OH228968   1.953   1.848   7.099  0.5398 -0.4523 -0.0651
 2470TIP3    H128969   1.895   1.839   7.175  1.4981  0.4412  0.8069
 2470TIP3    H228970   1.924   1.929   7.056 -0.5994 -1.4364 -1.2176
 2471TIP3   OH228971   1.191   3.816   7.255 -0.0727  0.0069  0.1608
 2471TIP3    H128972   1.270   3.766   7.233  0.6047  0.8038  0.7161
 2471TIP3    H228973   1.135   3.753   7.300 -0.4169 -0.9734 -1.5206
 2472TIP3   OH228974   4.942   2.142   0.389  0.6842  0.1379 -0.4644
 2472TIP3    H128975   4.933   2.088   0.468 -1.1244 -0.0811 -0.7859
 2472TIP3    H228976   5.017   2.199   0.408 -0.9784  1.6288  2.3528
 2473TIP3   OH228977   3.014   6.577   0.652  0.1032 -0.7190 -0.3019
 2473TIP3    H128978   3.029   6.593   0.745  0.3653 -0.7535 -0.3399
 2473TIP3    H228979   3.046   6.489   0.637  0.0427 -0.7207 -0.4234
 2474TIP3   OH228980   5.046   0.158   7.749 -0.1395  0.2688  0.7157
 2474TIP3    H128981   4.967   0.198   7.712 -1.2569  0.0639  2.7411
 2474TIP3    H228982   5.118   0.209   7.712 -1.1882  0.4225 -1.2353
 2475TIP3   OH228983   1.438   3.912   8.572 -0.3366 -0.2028  0.5394
 2475TIP3    H128984   1.507   3.971   8.604  0.3789  0.4500 -1.9729
 2475TIP3    H228985   1.359   3.966   8.570  0.2131  0.6235 -1.2850
 2476TIP3   OH228986   4.730   2.707   1.954  0.1275 -0.4307  0.7036
 2476TIP3    H128987   4.709   2.648   1.882  0.5406  0.6151 -0.3127
 2476TIP3    H228988   4.807   2.667   1.996  0.7617 -0.3184 -0.3333
 2477TIP3   OH228989   4.011   6.066   8.284 -0.0308 -0.1696 -0.3296
 2477TIP3    H128990   4.072   6.128   8.245  0.3362 -0.7015 -0.6204
 2477TIP3    H228991   3.976   6.016   8.211 -0.8618  0.1577 -0.1686
 2478TIP3   OH228992   6.063   3.238   0.271  0.1174 -0.1219 -0.7354
 2478TIP3    H128993   6.119   3.273   0.340  1.9319 -0.7948 -1.7825
 2478TIP3    H228994   6.005   3.310   0.249 -1.6186 -0.3641  2.4939
 2479TIP3   OH228995   3.230   5.794   1.520 -0.7002 -0.4084  0.5625
 2479TIP3    H128996   3.150   5.752   1.550 -1.4576  0.9766  0.5964
 2479TIP3    H228997   3.287   5.722   1.493 -1.8961 -1.4271  0.6702
 2480TIP3   OH228998   1.237   3.362   6.578 -0.6119  0.2585  0.2098
 2480TIP3    H128999   1.326   3.389   6.557 -0.3225 -1.6045 -1.2202
 2480TIP3    H229000   1.218   3.405   6.661  0.4267  3.2378 -0.9729
 2481TIP3   OH229001   3.841   2.514   8.249  0.5872  0.3394 -0.1744
 2481TIP3    H129002   3.878   2.463   8.177 -1.6478 -0.7618 -0.6202
 2481TIP3    H229003   3.828   2.601   8.212 -0.1659 -0.1097 -1.0092
 2482TIP3   OH229004   1.393   6.094   1.978  0.2485  0.8410  0.2931
 2482TIP3    H129005   1.348   6.119   1.897  1.0314 -1.0182 -0.7623
 2482TIP3    H229006   1.322   6.081   2.041 -0.7085 -0.9899 -1.0575
 2483TIP3   OH229007   6.477   4.201   7.845 -0.4315  0.1207  0.1999
 2483TIP3    H129008   6.536   4.219   7.772 -1.2845  0.7200 -0.3614
 2483TIP3    H229009   6.416   4.275   7.845 -1.9410 -1.1022 -0.0122
 2484TIP3   OH229010   2.741   3.740   0.620  0.5259  0.0965 -0.2285
 2484TIP3    H129011   2.736   3.816   0.678  0.1705  0.1024 -0.2673
 2484TIP3    H229012   2.657   3.739   0.574 -0.6928 -1.9664  1.8157
 2485TIP3   OH229013   2.625   4.445   1.008 -0.2791 -0.1073  0.3301
 2485TIP3    H129014   2.698   4.489   0.964 -1.2743  3.5611  1.9927
 2485TIP3    H229015   2.664   4.410   1.088  0.0038  0.2570  0.3553
 2486TIP3   OH229016   5.408   4.436   1.549  0.1155  0.3477  0.1658
 2486TIP3    H129017   5.323   4.480   1.552 -0.7406 -1.2508  1.8259
 2486TIP3    H229018   5.433   4.427   1.641  2.9756  2.2763 -0.2999
 2487TIP3   OH229019   2.437   5.013   0.889 -0.3757 -0.1371 -0.1482
 2487TIP3    H129020   2.521   4.981   0.922 -0.5845 -0.8380 -0.2844
 2487TIP3    H229021   2.456   5.102   0.859 -0.0856  0.3844  1.4582
 2488TIP3   OH229022   4.564   4.214   0.253 -0.0916  0.4836  0.1878
 2488TIP3    H129023   4.469   4.222   0.262 -0.1663  0.5402 -0.5834
 2488TIP3    H229024   4.589   4.146   0.315 -0.8940 -0.8719 -0.9166
 2489TIP3   OH229025   1.665   3.511   0.129  0.3348  0.1104 -0.1041
 2489TIP3    H129026   1.628   3.510   0.217 -0.4565 -0.4265 -0.4286
 2489TIP3    H229027   1.607   3.454   0.078  0.7876  0.4039 -0.9704
 2490TIP3   OH229028   4.108   5.931   2.113 -0.0091 -0.4690  0.3283
 2490TIP3    H129029   4.157   5.859   2.073 -1.3638 -0.4962 -1.3478
 2490TIP3    H229030   4.069   5.892   2.192 -0.2165 -1.4024 -0.2219
 2491TIP3   OH229031   4.701   3.913   6.843  0.0985 -0.7437  0.5315
 2491TIP3    H129032   4.723   4.000   6.876 -1.3562  0.3370 -1.1171
 2491TIP3    H229033   4.784   3.876   6.814  0.7420  0.0730  1.2868
 2492TIP3   OH229034   3.342   1.759   0.625  0.7071  0.0620 -0.3771
 2492TIP3    H129035   3.426   1.730   0.660  1.1206  1.1423 -0.4260
 2492TIP3    H229036   3.363   1.836   0.571 -0.1916 -0.2544 -1.2112
 2493TIP3   OH229037   5.424   0.793   0.489 -0.5483  0.7764  0.1853
 2493TIP3    H129038   5.367   0.728   0.447 -0.2126 -0.4023  1.4644
 2493TIP3    H229039   5.368   0.869   0.503 -1.6206 -0.0994  0.7611
 2494TIP3   OH229040   3.076   5.688   0.029  0.2802 -0.4318 -0.2632
 2494TIP3    H129041   3.151   5.635   0.056  0.2390  0.5789  2.1321
 2494TIP3    H229042   3.112   5.755  -0.028  1.0070 -0.6231 -0.0309
 2495TIP3   OH229043   1.036   2.151   8.529  0.0465 -0.2639 -0.2177
 2495TIP3    H129044   1.088   2.072   8.544 -0.2202 -0.2948  0.6542
 2495TIP3    H229045   1.083   2.200   8.462  1.5352  0.0158  0.9861
 2496TIP3   OH229046   6.761   3.028   1.996  0.1167  0.0142  0.6491
 2496TIP3    H129047   6.739   3.002   2.086  3.3921  1.2762  1.9822
 2496TIP3    H229048   6.857   3.033   1.995  0.2104  0.2950 -2.8990
 2497TIP3   OH229049   0.656   6.073   8.584  0.8802  0.2249 -0.1231
 2497TIP3    H129050   0.626   6.101   8.498 -2.2366 -0.1552  0.7152
 2497TIP3    H229051   0.654   5.978   8.581  1.7895  0.1950  0.0508
 2498TIP3   OH229052   3.293   4.056   7.097  0.4696  0.7066  0.1129
 2498TIP3    H129053   3.235   4.127   7.072  1.1824  1.2774  0.0560
 2498TIP3    H229054   3.374   4.073   7.049  0.6869 -0.0803  0.1866
 2499TIP3   OH229055   4.024   4.332   2.083 -0.2700  0.6003  0.2234
 2499TIP3    H129056   4.082   4.408   2.091  1.1141 -0.5406  1.5679
 2499TIP3    H229057   3.964   4.339   2.158  0.4075 -0.0453  0.8451
 2500TIP3   OH229058   3.789   5.525   7.964  0.1861  0.7762 -0.0434
 2500TIP3    H129059   3.847   5.491   7.896  0.3616  1.6244 -0.3331
 2500TIP3    H229060   3.846   5.578   8.020 -0.5696  3.2768 -1.4536
 2501TIP3   OH229061   3.033   4.252   0.630  0.0252 -0.3048 -0.5866
 2501TIP3    H129062   3.065   4.321   0.688 -1.5581 -0.1872  0.2015
 2501TIP3    H229063   2.974   4.200   0.685  0.9860 -2.1610 -1.2178
 2502TIP3   OH229064   5.039   2.525   7.832  0.0947 -0.0804 -0.0193
 2502TIP3    H129065   5.079   2.478   7.759 -0.1653  0.4719 -0.5240
 2502TIP3    H229066   5.011   2.609   7.795 -1.6072 -0.4666  0.3000
 2503TIP3   OH229067   6.503   3.447   7.492  0.2085  0.2376  0.1858
 2503TIP3    H129068   6.470   3.518   7.437 -1.2590  0.3033  1.0828
 2503TIP3    H229069   6.428   3.423   7.546  0.4790 -2.3550 -0.4562
 2504TIP3   OH229070   4.357   4.490   0.234 -0.4841  0.4120  0.2373
 2504TIP3    H129071   4.271   4.449   0.227 -0.1387 -0.0548 -1.9998
 2504TIP3    H229072   4.356   4.560   0.169  1.1049 -0.1454 -0.4444
 2505TIP3   OH229073   5.230   2.406   8.677  0.3821 -0.0153  0.0134
 2505TIP3    H129074   5.180   2.363   8.608 -0.4436  1.4960 -0.3616
 2505TIP3    H229075   5.165   2.432   8.742  1.1028 -1.0270  1.1720
 2506TIP3   OH229076   2.434   0.384   7.307  0.4917 -0.2382  0.5019
 2506TIP3    H129077   2.450   0.477   7.295 -0.6795 -0.0411  0.3301
 2506TIP3    H229078   2.372   0.361   7.238  4.4028 -2.2835 -2.7277
 2507TIP3   OH229079   4.934   6.130   1.670  0.0882 -0.3649 -0.6830
 2507TIP3    H129080   4.931   6.225   1.681 -1.0916 -0.3796 -0.7445
 2507TIP3    H229081   4.845   6.101   1.690  0.2443 -1.3780 -1.4048
 2508TIP3   OH229082   5.032   2.312   1.257  0.2181  0.1248  0.3283
 2508TIP3    H129083   5.079   2.370   1.198 -1.7081 -0.1441 -1.6205
 2508TIP3    H229084   5.031   2.227   1.212  0.7861 -0.7743  1.9278
 2509TIP3   OH229085   3.946   3.154   0.509 -0.3773 -0.7470 -0.2394
 2509TIP3    H129086   3.922   3.136   0.600 -1.4294  0.2854 -0.2832
 2509TIP3    H229087   4.004   3.229   0.515 -1.4617  0.1447 -0.4684
 2510TIP3   OH229088   5.573   4.256   8.017  0.3928 -0.1452 -0.3017
 2510TIP3    H129089   5.647   4.251   8.078 -0.0372 -0.8279  0.1803
 2510TIP3    H229090   5.539   4.166   8.013 -1.0653  0.3463  0.3242
 2511TIP3   OH229091   4.319   4.214   7.209  0.4814 -0.3547 -0.1946
 2511TIP3    H129092   4.383   4.198   7.139 -1.5905 -0.9456 -2.0720
 2511TIP3    H229093   4.245   4.255   7.164 -0.1566  1.0881  2.0480
 2512TIP3   OH229094   5.905   2.163   0.709 -0.6255  0.0691  1.0165
 2512TIP3    H129095   5.931   2.097   0.773  0.3438 -0.8114 -0.2337
 2512TIP3    H229096   5.893   2.243   0.760 -0.9329 -0.8490  2.4326
 2513TIP3   OH229097   5.108   4.517   7.392 -0.3582 -0.1825  0.1837
 2513TIP3    H129098   5.114   4.424   7.416  1.5406 -0.4005 -0.8938
 2513TIP3    H229099   5.085   4.516   7.299  0.1681  0.3976  0.0422
 2514TIP3   OH229100   5.068   5.083   0.500  0.6181 -0.1594 -0.4097
 2514TIP3    H129101   5.055   5.042   0.585 -0.0226 -1.2377 -1.0051
 2514TIP3    H229102   5.071   5.177   0.519  0.1973 -0.3621  0.7623
 2515TIP3   OH229103   5.612   2.445   7.196 -0.1984 -0.2224  0.7502
 2515TIP3    H129104   5.542   2.508   7.216 -0.6160 -0.8749  1.3598
 2515TIP3    H229105   5.568   2.376   7.147  0.3226  0.0964 -0.1925
 2516TIP3   OH229106   1.945   2.977   2.132  0.2508  0.0751  0.2117
 2516TIP3    H129107   1.928   2.930   2.213  0.3540  0.5552  0.5150
 2516TIP3    H229108   1.936   2.911   2.063  1.5189 -0.6372  0.7105
 2517TIP3   OH229109   2.328   0.184   2.695  0.0739  0.5960  0.3223
 2517TIP3    H129110   2.244   0.144   2.674 -0.5393  1.6846  0.6496
 2517TIP3    H229111   2.385   0.109   2.717 -0.9671 -0.1154  0.6973
 2518TIP3   OH229112   4.755   0.774   2.142  0.3735 -0.0534  0.7074
 2518TIP3    H129113   4.719   0.790   2.229 -1.2366  1.1691 -0.1394
 2518TIP3    H229114   4.686   0.728   2.095  0.4995  0.8949 -0.4624
 2519TIP3   OH229115   1.484   4.513   2.023 -0.6304  0.0572  0.7027
 2519TIP3    H129116   1.571   4.545   1.997 -1.5658  1.2953 -1.1054
 2519TIP3    H229117   1.496   4.484   2.113  1.5128  0.7875  0.7291
 2520TIP3   OH229118   0.568   1.285   7.854  0.1807  0.0460  0.2036
 2520TIP3    H129119   0.609   1.204   7.885 -0.5541 -0.2657  0.3727
 2520TIP3    H229120   0.484   1.288   7.899  0.3332  1.0666  0.4272
 2521TIP3   OH229121   6.692   4.069   0.380 -0.2760 -0.1770  0.4091
 2521TIP3    H129122   6.715   4.147   0.431 -0.7572  0.4226 -0.2742
 2521TIP3    H229123   6.647   4.013   0.444  1.3871 -0.5697  1.2830
 2522TIP3   OH229124   5.026   1.503   7.614 -0.2713 -0.0327  0.0639
 2522TIP3    H129125   5.072   1.583   7.641  0.8490 -0.7313  0.3261
 2522TIP3    H229126   5.001   1.520   7.523  2.1803 -0.2731 -0.7540
 2523TIP3   OH229127   4.250   6.801   8.163 -0.8080 -0.1328 -0.3228
 2523TIP3    H129128   4.157   6.817   8.180 -0.5652  2.8695 -1.1825
 2523TIP3    H229129   4.294   6.881   8.193  1.1191 -0.1990 -2.6412
 2524TIP3   OH229130   5.354   4.863   0.227 -0.7003 -0.0836 -0.5336
 2524TIP3    H129131   5.439   4.891   0.261 -0.0890 -0.2257 -1.8922
 2524TIP3    H229132   5.329   4.933   0.167 -2.4230  0.8618  1.1644
 2525TIP3   OH229133   1.749   6.689   7.864 -0.1549  0.8375 -0.0176
 2525TIP3    H129134   1.793   6.617   7.819 -0.9934  1.4803 -1.9689
 2525TIP3    H229135   1.690   6.646   7.926 -1.0909 -0.2517 -1.5690
 2526TIP3   OH229136   3.070   0.641   7.227  0.0649  0.0099 -0.3031
 2526TIP3    H129137   3.061   0.573   7.161 -0.1524 -0.0490 -0.2147
 2526TIP3    H229138   3.078   0.593   7.310  0.4247  0.0808 -0.2936
 2527TIP3   OH229139   3.648   2.305   8.349 -0.4262 -0.0981  0.1784
 2527TIP3    H129140   3.694   2.386   8.328 -0.8496  0.0116 -0.3492
 2527TIP3    H229141   3.701   2.264   8.417  1.1665 -0.5851 -1.2863
 2528TIP3   OH229142   5.181   0.489   2.346  0.4132 -0.4358  0.1628
 2528TIP3    H129143   5.139   0.555   2.291  0.2194 -0.2547  0.5255
 2528TIP3    H229144   5.118   0.417   2.350  0.1106 -0.1433  0.7482
 2529TIP3   OH229145   4.404   2.132   8.679 -0.0004 -0.4282  0.1390
 2529TIP3    H129146   4.309   2.138   8.666 -0.3075  2.1251  2.5832
 2529TIP3    H229147   4.421   2.038   8.687 -2.4344 -0.9294  0.2636
 2530TIP3   OH229148   1.673   4.190   1.389  0.2603  0.1202  0.8121
 2530TIP3    H129149   1.742   4.129   1.363 -1.0499 -0.9234 -0.3272
 2530TIP3    H229150   1.613   4.193   1.315 -0.1524  2.2010  1.1625
 2531TIP3   OH229151   4.630   0.981   7.796 -0.1556 -0.5814 -0.0051
 2531TIP3    H129152   4.721   1.007   7.808 -0.5413  0.7034  0.3416
 2531TIP3    H229153   4.619   0.902   7.849  0.3292  0.2222  1.3353
 2532TIP3   OH229154   6.465   5.163   1.555 -0.1541  0.0293  0.5177
 2532TIP3    H129155   6.453   5.088   1.497  1.5946 -0.7061  1.0581
 2532TIP3    H229156   6.376   5.186   1.583 -0.7126 -2.0465  0.6004
 2533TIP3   OH229157   4.498   0.516   1.782  0.2941 -0.2071  0.1011
 2533TIP3    H129158   4.414   0.481   1.808 -1.3084  3.0274 -0.1728
 2533TIP3    H229159   4.485   0.543   1.691  2.0277 -0.7018 -0.3278
 2534TIP3   OH229160   4.096   0.571   7.145 -0.0321  0.3083 -0.4275
 2534TIP3    H129161   4.178   0.621   7.153 -0.8987  1.4477  2.2737
 2534TIP3    H229162   4.114   0.488   7.188 -0.4584  0.8355  0.8093
 2535TIP3   OH229163   1.858   0.036   1.529 -0.2152 -0.3842 -0.1837
 2535TIP3    H129164   1.815   0.072   1.607 -0.2671  0.4556 -0.5965
 2535TIP3    H229165   1.811  -0.046   1.512 -1.0883  0.0926 -0.1206
 2536TIP3   OH229166   1.616   5.709   7.581  0.7208  0.0790  0.0292
 2536TIP3    H129167   1.524   5.714   7.608  0.2966 -2.3401 -0.6734
 2536TIP3    H229168   1.664   5.692   7.662  0.4749  0.5788  0.2888
 2537TIP3   OH229169   2.341   4.201   2.145 -0.3294 -0.6952 -0.1187
 2537TIP3    H129170   2.278   4.211   2.217  0.7143 -3.7889  1.4122
 2537TIP3    H229171   2.289   4.171   2.071 -1.1659  0.7676 -0.1637
 2538TIP3   OH229172   5.044   4.154   0.971  0.0069 -0.7030 -0.3392
 2538TIP3    H129173   4.996   4.186   0.895  1.5239  0.6987 -0.7704
 2538TIP3    H229174   5.102   4.086   0.936 -0.1369 -0.8847 -0.2228
 2539TIP3   OH229175   0.899   6.092   2.332 -0.3181  0.8295  0.3212
 2539TIP3    H129176   0.901   6.171   2.385 -0.4848  1.7311 -0.9781
 2539TIP3    H229177   0.940   6.025   2.387 -0.9286  1.5999  1.7610
 2540TIP3   OH229178   5.540   0.290   7.977  0.1066  0.1065  0.5372
 2540TIP3    H129179   5.558   0.199   8.000  0.5638 -0.5788 -2.2010
 2540TIP3    H229180   5.576   0.341   8.049 -0.2878 -1.8541  2.2106
 2541TIP3   OH229181   6.582   1.516   1.085  0.0043  0.0558  0.0436
 2541TIP3    H129182   6.584   1.421   1.096 -1.5841  0.2079  2.4951
 2541TIP3    H229183   6.661   1.536   1.034  1.3500 -2.4048  0.9719
 2542TIP3   OH229184   6.111   2.049   1.620 -0.0252  0.2363  0.2865
 2542TIP3    H129185   6.108   1.955   1.639 -2.0368 -0.0787 -1.2334
 2542TIP3    H229186   6.121   2.054   1.525  1.4064  1.6142  0.4687
 2543TIP3   OH229187   3.481   4.999   0.422  0.5700  0.3239  0.6616
 2543TIP3    H129188   3.396   4.997   0.379  0.1565 -0.2556  1.4809
 2543TIP3    H229189   3.499   5.092   0.437 -0.5139  0.3902  1.6254
 2544TIP3   OH229190   5.678   1.300   8.040 -0.0004  0.9496  0.2319
 2544TIP3    H129191   5.635   1.260   8.115 -1.1186 -2.3986 -1.9261
 2544TIP3    H229192   5.607   1.315   7.977  1.0978  1.9319 -0.8189
 2545TIP3   OH229193   2.545   3.997   1.167  0.3072 -0.0855  0.3724
 2545TIP3    H129194   2.489   4.070   1.193 -0.1356 -0.1500 -0.3572
 2545TIP3    H229195   2.499   3.957   1.093  0.7741 -0.8197  0.4633
 2546TIP3   OH229196   6.492   0.040   1.610  0.0572 -1.1437 -0.5088
 2546TIP3    H129197   6.471  -0.053   1.601 -0.4634 -1.3058  1.8343
 2546TIP3    H229198   6.437   0.071   1.682 -0.5132  1.2501 -1.8504
 2547TIP3   OH229199   4.417   4.026   1.947 -0.1347 -0.0231  0.5344
 2547TIP3    H129200   4.400   3.934   1.967 -1.2520 -0.3354 -1.5460
 2547TIP3    H229201   4.331   4.068   1.950  0.2053  0.7059  0.3047
 2548TIP3   OH229202   3.916   2.676   1.877 -0.1190 -0.1241  0.2252
 2548TIP3    H129203   3.844   2.705   1.822 -0.5993  0.1644  0.9888
 2548TIP3    H229204   3.883   2.683   1.967  1.4609  1.8488  0.7371
 2549TIP3   OH229205   1.131   6.557   1.427 -0.3542 -0.4063  0.3505
 2549TIP3    H129206   1.159   6.504   1.353 -0.0794  0.6203 -0.2993
 2549TIP3    H229207   1.211   6.592   1.464 -0.5292 -0.4862  0.8216
 2550TIP3   OH229208   4.031   4.414   8.305  0.1140  0.0691  0.3150
 2550TIP3    H129209   4.078   4.419   8.221 -0.4231  0.6720  0.0452
 2550TIP3    H229210   4.093   4.449   8.369  0.7120 -0.8509  0.2604
 2551TIP3   OH229211   3.640   5.480   8.750  0.4862 -0.5483 -0.3040
 2551TIP3    H129212   3.624   5.543   8.821 -0.5145 -0.0651 -0.9316
 2551TIP3    H229213   3.623   5.530   8.670 -0.5826 -1.6694 -0.8114
 2552TIP3   OH229214   2.683   4.918   0.914 -0.2470  0.2777 -0.3968
 2552TIP3    H129215   2.735   4.855   0.963 -0.9932  0.4794  0.6765
 2552TIP3    H229216   2.747   4.967   0.863  0.5466  0.1065  0.4192
 2553TIP3   OH229217   0.146   0.507   7.048  0.4252  0.2354  0.1213
 2553TIP3    H129218   0.170   0.497   6.956  1.9660  0.3755  0.4817
 2553TIP3    H229219   0.208   0.570   7.083 -0.1242  0.1700  1.2692
 2554TIP3   OH229220   0.019   6.799   8.168  0.5419  0.2633  0.8859
 2554TIP3    H129221   0.071   6.719   8.159  0.3862  0.2037  0.5256
 2554TIP3    H229222  -0.065   6.778   8.129  0.0169  0.1597  2.0387
 2555TIP3   OH229223   6.402   6.820   0.157 -0.4878 -0.6885 -0.3670
 2555TIP3    H129224   6.391   6.849   0.066  1.0612 -0.9741 -0.6704
 2555TIP3    H229225   6.428   6.729   0.151 -2.9381 -1.5271  0.5072
 2556TIP3   OH229226   2.160   5.464   7.262  0.4326 -0.3565  0.0139
 2556TIP3    H129227   2.081   5.500   7.303  1.9158  0.6382  2.1858
 2556TIP3    H229228   2.189   5.534   7.203  0.8919  0.2089  0.8959
 2557TIP3   OH229229   0.162   6.154   8.397  0.0564 -0.4099 -0.3298
 2557TIP3    H129230   0.126   6.120   8.316  1.9452 -0.4592 -1.2116
 2557TIP3    H229231   0.180   6.076   8.450  0.5366 -0.5276 -0.6522
 2558TIP3   OH229232   4.689   6.069   1.425 -0.1845  0.3305 -0.1303
 2558TIP3    H129233   4.614   6.014   1.404  1.6757 -1.9607 -1.2993
 2558TIP3    H229234   4.695   6.067   1.520 -0.0641 -1.7541 -0.1327
 2559TIP3   OH229235   4.030   5.615   0.231  0.6711 -0.2100  0.6400
 2559TIP3    H129236   4.115   5.570   0.225 -0.2256 -2.0685  1.2498
 2559TIP3    H229237   3.999   5.596   0.319 -1.5650 -1.8139 -0.4225
 2560TIP3   OH229238   1.293   3.431   0.578 -0.6911 -0.2169  0.3478
 2560TIP3    H129239   1.230   3.448   0.648 -1.1152 -0.8874  0.1345
 2560TIP3    H229240   1.241   3.389   0.509 -0.6301  1.7732 -1.0172
 2561TIP3   OH229241   3.427   4.499   8.012  0.2662 -0.0037 -0.2344
 2561TIP3    H129242   3.468   4.516   7.927 -1.5045 -1.7446 -1.5184
 2561TIP3    H229243   3.419   4.404   8.016  1.3219 -0.0685  2.4310
 2562TIP3   OH229244   1.760   6.719   0.676  0.3628  0.6112  0.2227
 2562TIP3    H129245   1.714   6.721   0.592 -0.4335  0.2072  0.6291
 2562TIP3    H229246   1.697   6.756   0.738  0.7301  0.3881  0.7318
 2563TIP3   OH229247   0.475   1.725   1.175  0.1462 -0.8140  0.3008
 2563TIP3    H129248   0.500   1.816   1.158 -2.1427 -0.2804 -0.4556
 2563TIP3    H229249   0.487   1.715   1.270  0.0306  0.3951  0.4588
 2564TIP3   OH229250   5.153   1.418   1.708 -0.5990 -0.7506 -0.1518
 2564TIP3    H129251   5.138   1.334   1.752 -0.8863 -0.6203  0.0008
 2564TIP3    H229252   5.069   1.440   1.668 -1.2067  0.5952  1.7505
 2565TIP3   OH229253   4.034   3.576   0.682 -0.2737 -0.0341 -0.3114
 2565TIP3    H129254   4.003   3.652   0.633  0.1527  0.1310 -0.3294
 2565TIP3    H229255   4.024   3.602   0.774 -0.4204 -0.0775 -0.3145
 2566TIP3   OH229256   6.100   0.983   6.966  0.1395 -0.2330 -0.4913
 2566TIP3    H129257   6.187   0.943   6.971  0.6599  0.2891 -3.5123
 2566TIP3    H229258   6.116   1.076   6.981 -0.2139 -0.3441  0.7028
 2567TIP3   OH229259   5.443   2.903   1.407  0.2920  0.3173 -0.1298
 2567TIP3    H129260   5.476   2.839   1.345 -0.5333 -0.4869  0.2538
 2567TIP3    H229261   5.370   2.860   1.451  0.0515  1.3288  0.5013
 2568TIP3   OH229262   4.779   0.139   8.061 -0.2955  0.1726  0.4850
 2568TIP3    H129263   4.831   0.189   8.125  1.5907  0.8015 -1.4190
 2568TIP3    H229264   4.777   0.194   7.983 -1.3184 -1.1760 -0.4890
 2569TIP3   OH229265   2.677   3.071   7.965  0.1429  0.1214  0.2901
 2569TIP3    H129266   2.685   3.080   7.870 -0.7861  1.4443  0.3113
 2569TIP3    H229267   2.766   3.057   7.996  0.3538 -1.3548 -0.8533
 2570TIP3   OH229268   0.984   0.985   7.020  0.2625  0.2654 -0.4379
 2570TIP3    H129269   1.053   0.934   6.978  0.8553  1.8617 -1.4590
 2570TIP3    H229270   0.995   1.074   6.986 -0.4544  1.2066  1.6284
 2571TIP3   OH229271   6.682   6.714   0.306 -0.2226  0.1497 -0.1336
 2571TIP3    H129272   6.752   6.762   0.261 -0.1445 -0.2297 -0.4272
 2571TIP3    H229273   6.605   6.769   0.295  0.1396  0.8168  0.6379
 2572TIP3   OH229274   1.734   6.612   8.572  0.2557  0.5396 -0.3438
 2572TIP3    H129275   1.706   6.658   8.492 -1.1023  0.6201  0.1534
 2572TIP3    H229276   1.659   6.558   8.595  1.2864 -0.8157 -0.0794
 2573TIP3   OH229277   1.199   4.388   0.328 -0.3022  0.0395 -0.0108
 2573TIP3    H129278   1.157   4.464   0.367  0.3710 -0.0051  0.8112
 2573TIP3    H229279   1.290   4.415   0.312  0.0241 -0.6854  0.5797
 2574TIP3   OH229280   4.038   2.470   1.717 -0.2872 -0.6939  0.3503
 2574TIP3    H129281   3.994   2.515   1.789 -0.5023 -1.0110  0.4156
 2574TIP3    H229282   4.118   2.434   1.756 -0.0027 -0.1937  0.2505
 2575TIP3   OH229283   6.645   5.360   1.591 -0.1237  0.3741 -0.0209
 2575TIP3    H129284   6.671   5.347   1.683 -1.1399 -1.0599  0.0954
 2575TIP3    H229285   6.587   5.286   1.572  1.5144 -0.4155 -2.3849
 2576TIP3   OH229286   0.741   2.084   7.906  0.5968  0.4062  0.5157
 2576TIP3    H129287   0.751   2.131   7.823 -0.3295 -1.8498 -0.9614
 2576TIP3    H229288   0.694   2.145   7.963 -1.5981  0.8990 -1.6942
 2577TIP3   OH229289   2.023   1.034   8.519  0.5432 -0.5614  0.0973
 2577TIP3    H129290   2.118   1.030   8.515  0.7756  1.0202  2.1275
 2577TIP3    H229291   2.004   1.107   8.578 -1.9428 -0.6176 -0.4871
 2578TIP3   OH229292   6.550   0.770   2.249  0.2432 -0.0264 -0.5265
 2578TIP3    H129293   6.507   0.723   2.178 -0.3724  0.3960 -0.4415
 2578TIP3    H229294   6.643   0.768   2.227  0.1291 -0.5124 -0.9722
 2579TIP3   OH229295   0.855   2.897   7.923 -0.4608  0.1483  0.4449
 2579TIP3    H129296   0.813   2.820   7.885  0.5080 -0.1661 -0.0216
 2579TIP3    H229297   0.858   2.879   8.017 -1.7297  0.3650  0.5370
 2580TIP3   OH229298   0.626   1.887   1.991  0.1371  0.3405 -0.2704
 2580TIP3    H129299   0.634   1.925   2.078 -0.8098 -1.5487  0.6964
 2580TIP3    H229300   0.716   1.878   1.960  0.4224  2.5943 -0.2460
 2581TIP3   OH229301   4.650   1.482   8.156 -0.9314 -0.5563 -0.0280
 2581TIP3    H129302   4.659   1.573   8.129  0.0428 -1.1362 -1.8176
 2581TIP3    H229303   4.622   1.487   8.248 -0.0401  1.5210  0.1839
 2582TIP3   OH229304   0.769   4.017   0.929 -0.0207 -0.4788  0.0477
 2582TIP3    H129305   0.765   4.055   1.016 -0.4618 -0.2965 -0.0503
 2582TIP3    H229306   0.860   4.028   0.902  0.4589 -1.7779  1.0333
 2583TIP3   OH229307   4.720   2.688   1.201  0.5549  0.4534  0.3684
 2583TIP3    H129308   4.721   2.724   1.289  0.2938 -1.5979  1.2792
 2583TIP3    H229309   4.804   2.713   1.163  1.8140 -0.7876  2.1648
 2584TIP3   OH229310   1.062   1.071   7.398  0.0167  0.0534 -0.0825
 2584TIP3    H129311   1.038   0.987   7.359  1.5167 -0.3503 -0.1756
 2584TIP3    H229312   1.014   1.073   7.481 -0.6101 -0.5565 -0.4247
 2585TIP3   OH229313   4.755   2.155   7.448  0.2774 -0.2730  0.2296
 2585TIP3    H129314   4.768   2.191   7.535 -0.8594  1.2210 -0.1693
 2585TIP3    H229315   4.732   2.231   7.394 -1.0294 -1.4278 -0.9148
 2586TIP3   OH229316   1.222   4.129   8.587 -0.1402 -0.3293  0.1804
 2586TIP3    H129317   1.210   4.205   8.644 -2.0689 -0.5257  0.0761
 2586TIP3    H229318   1.245   4.166   8.502  2.6813 -0.0281  0.9603
 2587TIP3   OH229319   2.296   5.402   1.990  0.4806 -0.7880 -0.3564
 2587TIP3    H129320   2.312   5.466   1.921  0.1301  1.9420  1.9292
 2587TIP3    H229321   2.226   5.346   1.955  0.1499  0.6477 -2.1222
 2588TIP3   OH229322   3.767   5.251   8.728 -0.2165  0.4622 -0.1790
 2588TIP3    H129323   3.709   5.180   8.755 -1.2547  0.3496 -2.4827
 2588TIP3    H229324   3.716   5.331   8.741 -0.2231  0.5193 -0.5576
 2589TIP3   OH229325   6.397   3.287   2.162 -0.1330 -0.2608  0.1346
 2589TIP3    H129326   6.319   3.252   2.120  0.0490 -0.9832  0.3980
 2589TIP3    H229327   6.438   3.212   2.205  1.0667 -0.0346 -0.5443
 2590TIP3   OH229328   5.390   0.572   1.650 -0.3496 -0.1153 -0.3217
 2590TIP3    H129329   5.429   0.552   1.736 -2.0107 -1.0426  0.2592
 2590TIP3    H229330   5.424   0.503   1.592 -0.6107 -0.5387  0.0229
 2591TIP3   OH229331   2.426   4.788   0.542  0.2698 -0.1767 -0.3906
 2591TIP3    H129332   2.367   4.827   0.607  0.3553  0.5463 -0.7341
 2591TIP3    H229333   2.511   4.787   0.585  0.4982  1.0796 -0.7759
 2592TIP3   OH229334   2.458   2.998   8.358 -0.3007 -0.0035  0.9460
 2592TIP3    H129335   2.417   2.912   8.361 -0.6420  0.1569  0.9407
 2592TIP3    H229336   2.417   3.046   8.430  0.3570 -0.0500  1.3682
 2593TIP3   OH229337   1.415   6.499   7.458 -0.0401 -0.4615  0.2893
 2593TIP3    H129338   1.356   6.575   7.463  0.3654 -0.0562 -0.8775
 2593TIP3    H229339   1.490   6.530   7.408  0.7588 -1.2487  0.9757
 2594TIP3   OH229340   4.573   2.823   2.223 -0.1701 -0.1103 -0.3258
 2594TIP3    H129341   4.555   2.917   2.232 -1.6296 -0.4859  1.2629
 2594TIP3    H229342   4.667   2.815   2.235  0.0109  1.1743 -0.7604
 2595TIP3   OH229343   4.870   1.405   0.754  0.7855  0.1635 -0.0650
 2595TIP3    H129344   4.789   1.452   0.774  0.8880 -0.4023  1.9207
 2595TIP3    H229345   4.873   1.334   0.819  2.3984 -0.4125 -0.7208
 2596TIP3   OH229346   4.594   3.532   1.671  0.5153  0.1081 -0.0546
 2596TIP3    H129347   4.597   3.461   1.607 -4.1951 -0.6976  0.2894
 2596TIP3    H229348   4.598   3.612   1.619 -0.7368 -0.5226 -1.1834
 2597TIP3   OH229349   1.488   4.258   0.609  0.0456  0.6469 -0.1367
 2597TIP3    H129350   1.437   4.178   0.621 -0.8487  1.2385  0.0207
 2597TIP3    H229351   1.514   4.256   0.516  0.8519 -0.2924  0.0854
 2598TIP3   OH229352   4.571   0.591   1.501 -0.6429 -0.3039 -0.3426
 2598TIP3    H129353   4.659   0.563   1.476 -1.0470 -1.6508 -0.3537
 2598TIP3    H229354   4.583   0.677   1.540  1.0406 -1.4275  1.8732
 2599TIP3   OH229355   2.556   2.385   8.340 -0.3167 -0.0355  0.1981
 2599TIP3    H129356   2.583   2.476   8.351 -0.3852  0.0762 -0.4927
 2599TIP3    H229357   2.460   2.389   8.334 -0.3009 -0.1146 -0.1428
 2600TIP3   OH229358   1.057   2.676   1.278  0.1713  0.5205 -0.0645
 2600TIP3    H129359   0.982   2.690   1.336 -0.1102  0.2533 -0.3563
 2600TIP3    H229360   1.133   2.706   1.329 -0.2662  2.0492 -0.2575
 2601TIP3   OH229361   6.653   5.522   7.816 -0.3333  0.1032  1.1827
 2601TIP3    H129362   6.663   5.511   7.722  1.4181 -0.4968  1.4014
 2601TIP3    H229363   6.742   5.518   7.850 -0.9926 -0.4391  2.9540
 2602TIP3   OH229364   6.747   2.619   2.124  0.3785 -0.5475 -0.3640
 2602TIP3    H129365   6.688   2.567   2.070 -0.9419 -0.4809  0.9486
 2602TIP3    H229366   6.773   2.560   2.195 -1.3118  0.5605  1.2624
 2603TIP3   OH229367   2.014   4.044   0.136 -0.3681 -0.1706 -0.1631
 2603TIP3    H129368   2.020   3.957   0.095 -0.3088 -0.0492 -0.4163
 2603TIP3    H229369   2.020   4.105   0.062  5.4882  0.3513  0.3259
 2604TIP3   OH229370   4.407   3.160   1.334  0.7187 -0.6254  0.6969
 2604TIP3    H129371   4.391   3.167   1.428  1.6864 -1.4532  0.9379
 2604TIP3    H229372   4.320   3.145   1.296  0.3871 -0.8208  1.5160
 2605TIP3   OH229373   3.707   5.964   2.628  0.3759  0.3349  0.2433
 2605TIP3    H129374   3.691   6.058   2.637  0.0231  0.2004  1.1582
 2605TIP3    H229375   3.765   5.956   2.553 -0.7761  1.1660 -0.7645
 2606TIP3   OH229376   2.347   2.555   7.623 -0.4774 -0.0421  0.7627
 2606TIP3    H129377   2.258   2.576   7.593 -0.5810 -2.0031 -0.4948
 2606TIP3    H229378   2.338   2.471   7.668  0.6100  0.1673  1.3983
 2607TIP3   OH229379   5.741   3.943   7.508 -0.4379 -0.3790 -0.1527
 2607TIP3    H129380   5.708   3.958   7.420 -1.6667 -0.2570  0.3146
 2607TIP3    H229381   5.702   3.860   7.535 -0.8777  0.0770  0.6466
 2608TIP3   OH229382   6.339   4.744   0.577  0.4173 -0.0261  0.3262
 2608TIP3    H129383   6.334   4.699   0.661 -0.2415  0.2853  0.4587
 2608TIP3    H229384   6.423   4.790   0.580  0.8845 -0.8725  0.3691
 2609TIP3   OH229385   4.357   3.017   7.231  0.2055 -0.0043  0.1461
 2609TIP3    H129386   4.414   2.940   7.228  0.2416  0.0496 -1.4913
 2609TIP3    H229387   4.303   3.010   7.153  0.1118  1.5695  0.0359
 2610TIP3   OH229388   2.043   4.661   1.298  0.2860 -0.1530  0.6486
 2610TIP3    H129389   2.122   4.714   1.285 -0.5969  1.1327  0.3718
 2610TIP3    H229390   2.061   4.611   1.378  1.4012  0.0596  0.5462
 2611TIP3   OH229391   0.881   5.804   2.491  0.4040 -0.3908 -0.2288
 2611TIP3    H129392   0.805   5.754   2.522 -0.0022  0.7098  0.6006
 2611TIP3    H229393   0.904   5.860   2.564  0.6805  0.8319 -1.2283
 2612TIP3   OH229394   4.104   5.758   7.820  0.0195  0.0857 -0.3182
 2612TIP3    H129395   4.114   5.796   7.907  0.7630  1.1334 -0.8333
 2612TIP3    H229396   4.160   5.812   7.764 -0.3755 -0.6207 -1.4312
 2613TIP3   OH229397   3.911   3.078   0.822  0.1027  0.0680  0.0653
 2613TIP3    H129398   3.836   3.132   0.848 -0.5758 -0.9928  0.3515
 2613TIP3    H229399   3.958   3.063   0.904 -0.6395 -1.1622  0.2814
 2614TIP3   OH229400   5.964   4.903   7.191 -0.1915  0.0154 -0.2948
 2614TIP3    H129401   6.018   4.901   7.112  1.3993  1.3646  0.6890
 2614TIP3    H229402   5.972   4.993   7.224 -1.0460 -0.4293  1.2513
 2615TIP3   OH229403   3.523   6.589   7.546  0.0878 -0.7037  0.1097
 2615TIP3    H129404   3.531   6.560   7.636 -0.3531 -0.8568  0.1001
 2615TIP3    H229405   3.611   6.622   7.523  0.2102 -0.7114  0.5713
 2616TIP3   OH229406   0.163   0.166   7.711 -0.3633  0.2713 -0.3332
 2616TIP3    H129407   0.139   0.224   7.639 -2.1447 -0.2401 -0.2047
 2616TIP3    H229408   0.079   0.135   7.746  0.5076 -1.1390  0.6132
 2617TIP3   OH229409   4.131   1.272   7.979  0.3232 -0.2737  0.6793
 2617TIP3    H129410   4.046   1.288   8.021  1.2834  1.6511  2.0126
 2617TIP3    H229411   4.115   1.196   7.923 -2.9210  1.4067 -0.9922
 2618TIP3   OH229412   6.307   1.968   1.004  0.6351  0.0326 -0.1634
 2618TIP3    H129413   6.292   2.056   0.971  1.7881  0.6500  0.8982
 2618TIP3    H229414   6.379   1.933   0.950 -0.6139 -0.7600 -1.3997
 2619TIP3   OH229415   0.555   3.984   7.594  0.2728 -0.2522 -0.4047
 2619TIP3    H129416   0.583   3.941   7.514  0.4419 -0.3740 -0.2810
 2619TIP3    H229417   0.464   3.956   7.606 -0.3692  1.2397 -1.5451
 2620TIP3   OH229418   5.696   4.554   0.302  0.3140  0.0030 -0.1194
 2620TIP3    H129419   5.724   4.633   0.255  1.5437 -1.3551 -1.7976
 2620TIP3    H229420   5.602   4.548   0.286  0.3468  0.7190 -0.6161
 2621TIP3   OH229421   2.414   4.661   0.912  0.3253  0.2077  0.0351
 2621TIP3    H129422   2.433   4.583   0.964  1.1766  0.7412  0.5471
 2621TIP3    H229423   2.450   4.733   0.963  0.1836  0.8636 -0.7705
 2622TIP3   OH229424   2.166   4.707   1.719 -0.1960 -0.0246 -0.5787
 2622TIP3    H129425   2.168   4.728   1.812 -0.2660 -0.1210 -0.5557
 2622TIP3    H229426   2.257   4.686   1.697 -0.2792 -0.5844 -0.3983
 2623TIP3   OH229427   2.507   4.443   8.600 -0.0275 -0.1526 -0.1335
 2623TIP3    H129428   2.557   4.363   8.583 -0.6532 -0.6984  0.5303
 2623TIP3    H229429   2.451   4.421   8.674  0.4265  1.1963  0.6333
 2624TIP3   OH229430   6.065   2.361   1.682  0.0989  0.0860 -0.2319
 2624TIP3    H129431   6.090   2.303   1.754 -0.7680  0.2192  0.1941
 2624TIP3    H229432   6.097   2.317   1.604  0.0316 -0.6432  0.1433
 2625TIP3   OH229433   6.220   1.816   7.380  0.5986  0.0086 -0.3272
 2625TIP3    H129434   6.189   1.893   7.426 -1.1885 -1.4375  1.0603
 2625TIP3    H229435   6.264   1.763   7.447 -0.4816 -1.3265 -0.6209
 2626TIP3   OH229436   2.637   0.268   8.434 -0.1439  0.0603 -0.1274
 2626TIP3    H129437   2.688   0.269   8.353  1.1067 -1.9095  0.5926
 2626TIP3    H229438   2.692   0.223   8.497 -1.4820  0.7342  1.5991
 2627TIP3   OH229439   3.606   6.604   0.228 -0.0526 -0.2895 -0.2072
 2627TIP3    H129440   3.634   6.681   0.178 -1.0555  0.6763  0.6471
 2627TIP3    H229441   3.687   6.561   0.255  0.6349  1.7717  1.2413
 2628TIP3   OH229442   1.934   4.846   1.612 -0.0912 -0.0858 -0.6697
 2628TIP3    H129443   2.023   4.816   1.635  0.5362  1.3092 -1.1795
 2628TIP3    H229444   1.880   4.767   1.619  1.0935 -0.8648  0.1288
 2629TIP3   OH229445   2.760   0.631   0.802  0.3820  0.0035  0.0345
 2629TIP3    H129446   2.842   0.593   0.835  1.4335 -0.5085 -2.8664
 2629TIP3    H229447   2.691   0.576   0.840  1.1619  1.3254  3.7138
 2630TIP3   OH229448   4.135   2.541   0.671  0.2409  0.2512  0.1952
 2630TIP3    H129449   4.154   2.616   0.615 -4.6662  3.0277  1.6802
 2630TIP3    H229450   4.202   2.545   0.740  1.1123  2.2087 -0.6905
 2631TIP3   OH229451   3.945   1.376   2.782 -0.3691 -0.1258  0.2231
 2631TIP3    H129452   3.917   1.302   2.835  2.2371 -1.8155 -0.5617
 2631TIP3    H229453   4.014   1.417   2.834 -0.6009  0.7057 -0.1128
 2632TIP3   OH229454   4.002   3.902   1.202 -0.3523 -0.4642  0.2898
 2632TIP3    H129455   3.911   3.891   1.228 -0.3768 -2.3091 -0.4073
 2632TIP3    H229456   4.001   3.976   1.141 -1.3264 -0.3143  0.4705
 2633TIP3   OH229457   3.457   1.517   8.036  0.0260 -0.4815  0.2154
 2633TIP3    H129458   3.396   1.565   8.092  1.2307  1.0801  0.2674
 2633TIP3    H229459   3.433   1.543   7.947  1.1169  0.8424  0.2735
 2634TIP3   OH229460   0.766   3.978   7.123 -0.2678 -0.3269  0.1357
 2634TIP3    H129461   0.842   3.999   7.069  0.5872  1.7482  2.0226
 2634TIP3    H229462   0.715   3.917   7.069  1.1762  0.5800 -2.4288
 2635TIP3   OH229463   4.440   3.893   1.438 -0.9261  0.3563 -0.7451
 2635TIP3    H129464   4.411   3.962   1.498 -0.4179  0.7065 -0.8991
 2635TIP3    H229465   4.359   3.862   1.397 -1.2744  0.1335  0.0885
 2636TIP3   OH229466   1.156   0.091   8.089 -0.0316  0.1277 -0.3062
 2636TIP3    H129467   1.075   0.123   8.050 -0.7884  0.3291  1.3414
 2636TIP3    H229468   1.163   0.139   8.172  2.2023  0.7169 -0.7673
 2637TIP3   OH229469   5.208   3.813   7.584 -0.7932  0.7365 -0.5804
 2637TIP3    H129470   5.207   3.901   7.546  0.2695  1.5959  1.2751
 2637TIP3    H229471   5.124   3.807   7.631 -1.4703  0.2094 -1.8073
 2638TIP3   OH229472   4.243   1.261   2.061 -0.2428  0.6741  0.0238
 2638TIP3    H129473   4.324   1.299   2.027 -0.2239  0.1485 -0.5312
 2638TIP3    H229474   4.173   1.308   2.015 -0.2340  0.5007 -0.1663
 2639TIP3   OH229475   0.054   3.442   8.192 -0.1693 -0.1534  0.4523
 2639TIP3    H129476  -0.030   3.487   8.194  1.0465  2.3198  0.3034
 2639TIP3    H229477   0.104   3.488   8.124  0.7980 -2.5914 -0.6157
 2640TIP3   OH229478   5.817   4.833   6.617 -0.6779 -0.5401 -0.0953
 2640TIP3    H129479   5.868   4.846   6.696  0.8197 -1.0829 -0.9286
 2640TIP3    H229480   5.777   4.918   6.600  1.7395  0.5845 -0.5956
 2641TIP3   OH229481   5.756   0.114   1.744 -0.3649  0.0758 -0.0289
 2641TIP3    H129482   5.827   0.092   1.683 -0.9022  1.9181 -1.4175
 2641TIP3    H229483   5.772   0.206   1.767 -1.1603 -0.0867  1.2807
 2642TIP3   OH229484   3.100   1.634   7.900  0.1912 -0.8306  0.5343
 2642TIP3    H129485   3.017   1.679   7.914  0.1251 -0.2260 -1.4966
 2642TIP3    H229486   3.118   1.590   7.983 -1.3475  0.3273  1.5255
 2643TIP3   OH229487   6.700   6.578   8.322 -0.0618 -0.0699 -0.2118
 2643TIP3    H129488   6.689   6.576   8.227 -1.2940 -1.3989 -0.0849
 2643TIP3    H229489   6.723   6.488   8.345  1.6888  0.5456  0.6287
 2644TIP3   OH229490   1.088   2.209   7.110  0.5473 -0.4173 -0.0758
 2644TIP3    H129491   1.144   2.188   7.035 -0.2735  1.0872 -1.1529
 2644TIP3    H229492   1.136   2.276   7.158  2.0831 -2.8353  2.0657
 2645TIP3   OH229493   4.186   1.615   1.870  0.0205 -0.1747  0.1866
 2645TIP3    H129494   4.204   1.655   1.955 -1.8860  0.8228  0.1687
 2645TIP3    H229495   4.124   1.545   1.889 -0.8388  0.4030 -0.4231
 2646TIP3   OH229496   1.095   2.926   2.642 -0.3781 -0.1754  0.6185
 2646TIP3    H129497   1.030   2.996   2.634  0.4219  0.7012  1.6046
 2646TIP3    H229498   1.179   2.970   2.636  0.1585 -0.8454  2.4821
 2647TIP3   OH229499   3.216   2.761   0.665 -0.2842 -0.0403  0.5604
 2647TIP3    H129500   3.215   2.809   0.747  0.7457 -1.2223  1.2991
 2647TIP3    H229501   3.298   2.712   0.667 -0.9969 -1.3231 -0.4361
 2648TIP3   OH229502   2.204   2.486   1.876  0.1278 -0.4163  0.5191
 2648TIP3    H129503   2.196   2.560   1.938  1.2420 -0.2040  0.4202
 2648TIP3    H229504   2.196   2.527   1.790 -1.6725 -0.7433  0.4803
 2649TIP3   OH229505   1.510   3.787   1.678 -0.5995 -0.1096 -0.2119
 2649TIP3    H129506   1.598   3.821   1.659 -0.4934 -1.2849 -2.1079
 2649TIP3    H229507   1.477   3.843   1.749  0.7940  1.8069 -0.9873
 2650TIP3   OH229508   0.159   5.699   8.131 -0.2612  0.6087  0.3142
 2650TIP3    H129509   0.126   5.778   8.088 -2.9642 -0.5426  0.0389
 2650TIP3    H229510   0.152   5.719   8.225 -2.0747  0.3748  0.2764
 2651TIP3   OH229511   3.765   0.935   0.921 -0.0804 -0.4031 -0.1700
 2651TIP3    H129512   3.836   0.922   0.985 -0.3948  3.7776  1.3179
 2651TIP3    H229513   3.691   0.886   0.957  0.6044 -0.5947  1.0270
 2652TIP3   OH229514   1.374   4.768   1.146  0.0036  0.0999  0.3780
 2652TIP3    H129515   1.349   4.859   1.159 -0.4580  0.0268  0.0061
 2652TIP3    H229516   1.468   4.771   1.129 -0.0272  0.5112  0.2833
 2653TIP3   OH229517   0.125   2.852   7.258  0.2155 -0.3968 -0.2810
 2653TIP3    H129518   0.041   2.832   7.299 -0.3511 -0.3925 -1.4155
 2653TIP3    H229519   0.190   2.811   7.315 -0.5964 -0.9942  0.2313
 2654TIP3   OH229520   6.170   1.589   7.188  0.6083  0.0469  0.3515
 2654TIP3    H129521   6.079   1.610   7.167  1.4078  1.8162 -1.7022
 2654TIP3    H229522   6.200   1.666   7.238  0.3984 -1.5735  3.2021
 2655TIP3   OH229523   3.274   2.915   0.427  0.2912  0.0127  0.2933
 2655TIP3    H129524   3.262   2.865   0.508  1.2974  0.1334  0.5302
 2655TIP3    H229525   3.328   2.990   0.452 -0.5241  0.8002 -0.2260
 2656TIP3   OH229526   1.628   5.184   7.561 -0.6303  0.2875  0.7476
 2656TIP3    H129527   1.646   5.168   7.468 -1.2751  0.8350  0.5186
 2656TIP3    H229528   1.701   5.239   7.590  1.5431 -2.7516  1.5116
 2657TIP3   OH229529   3.324   1.549   8.684 -0.2301  0.0047 -0.2311
 2657TIP3    H129530   3.290   1.500   8.609  0.6332 -0.2336 -0.4734
 2657TIP3    H229531   3.248   1.598   8.717 -0.6847 -0.1236 -1.0682
 2658TIP3   OH229532   1.585   1.597   1.600  0.4993  0.6436  0.0560
 2658TIP3    H129533   1.496   1.561   1.600  1.5324 -2.2077 -0.3335
 2658TIP3    H229534   1.574   1.689   1.577 -2.2895  0.2446 -0.6134
 2659TIP3   OH229535   3.263   3.226   2.144 -0.0248  0.2544 -0.2688
 2659TIP3    H129536   3.297   3.211   2.056  0.3210  0.5140 -0.1803
 2659TIP3    H229537   3.168   3.229   2.133  0.0620  1.3453 -0.7958
 2660TIP3   OH229538   4.750   1.710   7.668  0.1996 -0.5906  0.5717
 2660TIP3    H129539   4.810   1.685   7.739 -0.5996 -1.4376  0.9564
 2660TIP3    H229540   4.677   1.753   7.713  0.1969 -0.1505  0.1549
 2661TIP3   OH229541   6.362   0.828   8.264 -0.4642 -0.4542 -0.4119
 2661TIP3    H129542   6.270   0.854   8.269 -0.1959  0.3535  0.5426
 2661TIP3    H229543   6.396   0.841   8.352  0.2811 -1.9064 -0.4572
 2662TIP3   OH229544   5.364   1.790   2.033  0.0971 -0.3819 -0.0717
 2662TIP3    H129545   5.342   1.729   1.964  0.9963 -0.3153 -0.4341
 2662TIP3    H229546   5.457   1.775   2.050  0.0304  0.0147  0.7036
 2663TIP3   OH229547   4.793   2.644   1.512 -0.2103 -0.1456 -0.2392
 2663TIP3    H129548   4.758   2.644   1.601 -1.7422  1.0055 -0.7910
 2663TIP3    H229549   4.787   2.736   1.484 -2.4444 -0.8527 -2.4791
 2664TIP3   OH229550   2.760   2.240   7.713  0.4554 -0.7394 -0.2360
 2664TIP3    H129551   2.813   2.243   7.793  0.0074 -0.6964  0.0637
 2664TIP3    H229552   2.801   2.173   7.659  0.5439 -1.0305  0.1899
 2665TIP3   OH229553   5.463   1.575   2.408 -0.3163 -0.6899  0.2980
 2665TIP3    H129554   5.444   1.481   2.399 -1.8127 -0.3525 -0.2405
 2665TIP3    H229555   5.377   1.617   2.410  0.3463  0.7127  0.2047
 2666TIP3   OH229556   2.697   1.389   8.012  0.0662 -0.5675 -0.3171
 2666TIP3    H129557   2.637   1.336   7.960 -2.5703  1.6207  0.2662
 2666TIP3    H229558   2.652   1.402   8.095  2.2056 -0.2920  0.8780
 2667TIP3   OH229559   2.429   0.753   1.439 -0.7300 -0.8441 -0.5219
 2667TIP3    H129560   2.349   0.705   1.461 -1.3580  0.2929 -0.2274
 2667TIP3    H229561   2.453   0.798   1.520  1.7969 -3.2569  0.2578
 2668TIP3   OH229562   4.902   4.496   0.344 -0.1700 -0.3285 -0.6447
 2668TIP3    H129563   4.854   4.578   0.357  2.3215  1.1120  0.2873
 2668TIP3    H229564   4.912   4.460   0.432 -1.4284 -1.8152 -1.0695
 2669TIP3   OH229565   4.212   6.792   1.614  0.0474  0.7576 -0.1650
 2669TIP3    H129566   4.124   6.828   1.600  0.9275  2.9088 -0.5075
 2669TIP3    H229567   4.239   6.829   1.698  0.1280 -1.0304  0.6450
 2670TIP3   OH229568   6.243   3.283   7.987  0.8013 -0.8266  0.3268
 2670TIP3    H129569   6.234   3.212   8.050  0.5379 -1.2147 -0.1367
 2670TIP3    H229570   6.180   3.262   7.918  0.9293 -0.2963  0.0413
 2671TIP3   OH229571   0.616   1.908   8.495 -1.2009  0.3670 -0.4291
 2671TIP3    H129572   0.629   1.847   8.422 -2.0233 -1.9627  1.2481
 2671TIP3    H229573   0.697   1.903   8.545 -1.7306 -0.3581  0.3859
 2672TIP3   OH229574   2.684   3.035   0.395  0.0183 -0.3036 -0.3073
 2672TIP3    H129575   2.602   3.011   0.351  0.6850  0.6558 -2.1876
 2672TIP3    H229576   2.668   3.018   0.488 -1.5766 -2.1479 -0.8597
 2673TIP3   OH229577   3.545   1.015   8.458  0.1356 -0.0821  0.3085
 2673TIP3    H129578   3.522   1.079   8.526 -0.9128 -0.5180  0.3821
 2673TIP3    H229579   3.604   0.954   8.502 -1.2504 -0.8860  1.1112
 2674TIP3   OH229580   5.445   3.111   0.325 -0.2591 -0.8934  0.0732
 2674TIP3    H129581   5.392   3.039   0.293 -2.2108 -0.4851  2.1205
 2674TIP3    H229582   5.432   3.110   0.420  1.3310  0.8817  0.3779
 2675TIP3   OH229583   6.843   5.603   1.914 -0.2038 -0.2580 -0.3233
 2675TIP3    H129584   6.910   5.542   1.944 -0.6270  0.0829  1.4725
 2675TIP3    H229585   6.891   5.671   1.867  0.4445 -1.1028 -0.9043
 2676TIP3   OH229586   6.475   6.007   0.594  0.1299 -0.0133 -0.2458
 2676TIP3    H129587   6.456   6.015   0.501 -1.8101 -0.5881  0.0729
 2676TIP3    H229588   6.434   5.925   0.621 -1.6286  1.4007  1.6329
 2677TIP3   OH229589   6.075   3.253   1.071 -0.2435  0.3593  0.1046
 2677TIP3    H129590   6.111   3.217   1.151 -0.3043 -1.5773 -0.6841
 2677TIP3    H229591   6.146   3.246   1.007 -1.3940 -1.8954 -1.0153
 2678TIP3   OH229592   6.409   2.882   8.081 -0.6849  0.7713 -1.0653
 2678TIP3    H129593   6.422   2.950   8.147  2.0432 -0.2407 -0.4038
 2678TIP3    H229594   6.352   2.818   8.123  0.1754  0.6494 -0.0373
 2679TIP3   OH229595   4.156   1.585   0.666  0.5171  0.4444  0.2408
 2679TIP3    H129596   4.083   1.603   0.725 -0.3677  0.0038 -0.7031
 2679TIP3    H229597   4.126   1.514   0.610  0.7371  1.8263 -1.7576
 2680TIP3   OH229598   2.338   3.168   1.331 -0.1401 -0.3810  0.7299
 2680TIP3    H129599   2.287   3.089   1.314  0.5203 -0.4130 -1.3351
 2680TIP3    H229600   2.291   3.237   1.285 -1.1505  0.6554  3.1714
 2681TIP3   OH229601   0.945   6.775   6.586 -0.2356 -0.0271  0.0146
 2681TIP3    H129602   0.884   6.834   6.631  0.3073  0.6985 -0.1916
 2681TIP3    H229603   0.973   6.714   6.654  0.7694  1.2071  0.7455
 2682TIP3   OH229604   0.543   5.713   1.074 -0.2412  0.2921  0.2218
 2682TIP3    H129605   0.471   5.697   1.012 -0.7524 -1.1294  1.1355
 2682TIP3    H229606   0.605   5.766   1.024 -1.5327  0.8566 -0.8683
 2683TIP3   OH229607   1.351   6.789   0.999  0.7367 -0.2195 -0.6307
 2683TIP3    H129608   1.367   6.814   1.090  0.7143  0.1647 -0.7316
 2683TIP3    H229609   1.407   6.713   0.985  1.4118  0.2545 -0.5597
 2684TIP3   OH229610   0.422   4.238   2.714  0.0335  0.4534 -0.2495
 2684TIP3    H129611   0.372   4.256   2.794 -1.4072  2.5170 -1.4988
 2684TIP3    H229612   0.390   4.153   2.684 -2.0437  1.2180 -0.4138
 2685TIP3   OH229613   4.078   2.088   8.235 -0.2082  0.6844  0.6924
 2685TIP3    H129614   3.993   2.048   8.220  1.3676 -1.7957 -3.0769
 2685TIP3    H229615   4.068   2.178   8.202 -1.1660  0.1406 -0.5714
 2686TIP3   OH229616   4.976   4.695   0.752 -0.1460 -0.2523 -0.0716
 2686TIP3    H129617   4.991   4.717   0.844 -1.2590  0.5492 -0.0748
 2686TIP3    H229618   4.882   4.704   0.739 -0.4118 -2.8460 -0.6525
 2687TIP3   OH229619   6.184   5.543   1.124 -0.5211 -0.3674  0.2436
 2687TIP3    H129620   6.110   5.535   1.185 -0.3507  0.5175  0.5925
 2687TIP3    H229621   6.240   5.469   1.145  0.7312  1.1651  2.8799
 2688TIP3   OH229622   3.799   0.423   8.631 -0.0030  0.2581  0.1032
 2688TIP3    H129623   3.759   0.405   8.716 -0.6004  0.7313 -0.0661
 2688TIP3    H229624   3.771   0.350   8.575 -1.6477  1.1690 -0.3333
 2689TIP3   OH229625   1.716   5.213   1.422 -0.6643 -0.4956 -0.4772
 2689TIP3    H129626   1.703   5.125   1.389 -0.9562 -0.4861 -0.3879
 2689TIP3    H229627   1.779   5.203   1.494 -1.3035 -0.7425  0.0610
 2690TIP3   OH229628   4.842   2.065   1.332 -0.1959 -0.2219  0.1585
 2690TIP3    H129629   4.896   2.057   1.254  0.5517  1.8556  0.4042
 2690TIP3    H229630   4.752   2.061   1.299  0.0673 -2.2349 -0.4222
 2691TIP3   OH229631   0.978   5.949   7.801 -0.3122  0.0222  0.5399
 2691TIP3    H129632   0.920   6.015   7.840 -0.9559 -0.0071 -0.3372
 2691TIP3    H229633   0.954   5.947   7.709  2.1089  1.0537 -0.1842
 2692TIP3   OH229634   2.042   6.322   2.108 -0.2171  0.3670  0.1061
 2692TIP3    H129635   2.002   6.409   2.102 -2.4326 -0.5781  0.4391
 2692TIP3    H229636   2.014   6.288   2.192  0.5211 -0.7367 -0.0765
 2693TIP3   OH229637   1.931   3.207   8.500 -0.4148 -0.3669 -0.6464
 2693TIP3    H129638   1.916   3.171   8.413 -0.6265  0.8126 -1.1167
 2693TIP3    H229639   1.863   3.275   8.510  0.6420  0.6756 -0.2524
 2694TIP3   OH229640   5.232   0.090   7.446  0.1247 -0.3893 -0.5914
 2694TIP3    H129641   5.168   0.020   7.461  1.3684 -1.1966  1.2592
 2694TIP3    H229642   5.242   0.092   7.351 -2.1190 -0.6956 -0.8929
 2695TIP3   OH229643   5.978   5.471   0.877  0.6197  0.1769 -0.1653
 2695TIP3    H129644   5.974   5.392   0.932  1.0804  0.6208  0.5144
 2695TIP3    H229645   5.977   5.543   0.940  1.1853  0.6924 -0.7462
 2696TIP3   OH229646   0.278   6.304   8.650 -0.4011  0.9316 -0.2128
 2696TIP3    H129647   0.300   6.291   8.558  0.0961  1.1693 -0.1325
 2696TIP3    H229648   0.357   6.278   8.697  0.1516  2.8589  0.0262
 2697TIP3   OH229649   1.096   2.758   0.703 -0.0537 -0.1212 -0.2825
 2697TIP3    H129650   1.048   2.778   0.622  0.2018 -0.8315 -0.6120
 2697TIP3    H229651   1.163   2.696   0.677 -0.2043 -0.6515  0.5438
 2698TIP3   OH229652   6.252   1.828   8.722  0.4631 -0.0554 -0.4558
 2698TIP3    H129653   6.300   1.856   8.800  1.9915 -1.4837 -0.8172
 2698TIP3    H229654   6.160   1.828   8.749  0.9340 -0.3280  1.3079
 2699TIP3   OH229655   4.102   5.127   0.512 -0.2692  0.1146 -0.7169
 2699TIP3    H129656   4.188   5.086   0.505 -0.8667 -1.3038 -0.2504
 2699TIP3    H229657   4.119   5.221   0.513  1.1954 -0.1169 -1.4854
 2700TIP3   OH229658   5.605   2.007   1.320 -0.7441  0.3880  0.3163
 2700TIP3    H129659   5.638   2.081   1.371 -3.0143  0.8937  1.1901
 2700TIP3    H229660   5.538   2.045   1.263 -2.2956 -1.0102  1.1127
 2701TIP3   OH229661   5.972   0.473   8.126  0.2228 -0.1281  0.2904
 2701TIP3    H129662   6.003   0.433   8.207  0.5644  1.9503  1.2459
 2701TIP3    H229663   5.881   0.445   8.119  0.6554 -1.6903  0.4573
 2702TIP3   OH229664   2.066   5.830   1.140 -0.7273 -0.5279  0.2862
 2702TIP3    H129665   2.071   5.779   1.059 -1.8313 -0.6602  0.2899
 2702TIP3    H229666   1.973   5.847   1.152 -0.3788  1.7138  0.1640
 2703TIP3   OH229667   6.095   3.757   1.642  0.0592  0.0493 -0.3666
 2703TIP3    H129668   6.156   3.830   1.644 -0.3415  0.5360 -2.5954
 2703TIP3    H229669   6.009   3.798   1.648 -0.1138 -0.4857  1.0054
 2704TIP3   OH229670   2.589   6.740   8.243 -0.3930 -0.4564  0.3704
 2704TIP3    H129671   2.627   6.743   8.331  0.1952  0.6688  0.1029
 2704TIP3    H229672   2.644   6.799   8.191 -1.9997  0.5724 -0.2495
 2705TIP3   OH229673   2.500   2.493   1.409  0.4748  0.8524 -0.0453
 2705TIP3    H129674   2.552   2.432   1.358 -0.2595 -0.8789  1.1754
 2705TIP3    H229675   2.421   2.444   1.433  0.9484  1.3719  3.0375
 2706TIP3   OH229676   2.519   5.161   7.680 -0.4154 -0.3199 -0.4338
 2706TIP3    H129677   2.577   5.237   7.686 -0.1207 -0.4646 -1.2856
 2706TIP3    H229678   2.510   5.144   7.586 -2.5360  0.2168 -0.3896
 2707TIP3   OH229679   1.761   3.325   1.397  0.4448 -0.5935 -0.6927
 2707TIP3    H129680   1.753   3.287   1.310  0.9429  0.2957 -1.1407
 2707TIP3    H229681   1.722   3.412   1.389 -0.7676 -1.0075  0.3389
 2708TIP3   OH229682   4.279   2.555   2.988  0.1949 -0.2304  0.5274
 2708TIP3    H129683   4.243   2.559   2.899  0.9249 -1.0002  0.1832
 2708TIP3    H229684   4.219   2.497   3.036  0.5758 -0.9576  0.1439
 2709TIP3   OH229685   1.794   5.487   1.415  0.0796  0.8191  0.7981
 2709TIP3    H129686   1.821   5.409   1.365 -0.3093  1.8026 -1.0237
 2709TIP3    H229687   1.736   5.453   1.483  0.0750 -0.5097  0.1595
 2710TIP3   OH229688   3.586   4.395   2.274  0.3665 -0.5225  0.1161
 2710TIP3    H129689   3.531   4.347   2.212  0.9708  1.1874 -1.8845
 2710TIP3    H229690   3.584   4.343   2.354 -0.0075 -3.1885 -1.5021
 2711TIP3   OH229691   2.323   0.355   6.699  0.0198  0.1927  0.3318
 2711TIP3    H129692   2.364   0.368   6.614 -0.2658  0.0348  0.1703
 2711TIP3    H229693   2.330   0.440   6.743  0.6362  0.1322  0.3589
 2712TIP3   OH229694   3.884   1.901   7.941  0.0805  0.3546 -0.8306
 2712TIP3    H129695   3.858   1.951   8.018  0.9364  0.0024 -0.2941
 2712TIP3    H229696   3.978   1.919   7.931  0.1690 -0.3030 -1.2511
 2713TIP3   OH229697   4.171   2.002   1.780 -0.4921  0.2654  0.1616
 2713TIP3    H129698   4.104   1.938   1.756 -1.6326  1.5058 -0.1431
 2713TIP3    H229699   4.181   1.992   1.874 -0.4048 -0.5939  0.0632
 2714TIP3   OH229700   4.067   5.946   6.681 -0.0316 -0.4701 -0.0632
 2714TIP3    H129701   4.114   5.871   6.717 -0.2704 -0.8908 -0.6161
 2714TIP3    H229702   3.975   5.920   6.687 -0.0992 -0.3339 -0.5008
 2715TIP3   OH229703   3.045   5.822   2.883  0.1965  0.4400 -0.4068
 2715TIP3    H129704   3.034   5.872   2.964  1.5273  0.6555 -0.3304
 2715TIP3    H229705   2.961   5.779   2.869 -0.0828  0.4940  1.0244
 2716TIP3   OH229706   0.188   4.617   0.118  0.1962 -0.2662  0.2915
 2716TIP3    H129707   0.247   4.678   0.074 -1.4788  1.2115 -0.0575
 2716TIP3    H229708   0.202   4.634   0.212  0.1983  0.2277  0.2085
 2717TIP3   OH229709   1.836   5.969   1.764  0.7760 -0.0538  0.5872
 2717TIP3    H129710   1.818   6.063   1.766  0.1926 -0.1442 -0.0850
 2717TIP3    H229711   1.758   5.928   1.801  1.4548 -0.2345  1.8672
 2718TIP3   OH229712   1.770   1.991   1.828 -0.4806 -0.5040  0.2365
 2718TIP3    H129713   1.736   2.076   1.802 -0.7545  0.1196  2.3994
 2718TIP3    H229714   1.700   1.929   1.808 -1.7935  0.3485  1.9673
 2719TIP3   OH229715   6.035   6.069   7.056  0.5078  0.4219  0.2140
 2719TIP3    H129716   5.969   6.091   7.122 -1.6476 -2.1957 -0.8489
 2719TIP3    H229717   6.098   6.014   7.103 -0.0031  0.0681  0.4963
 2720TIP3   OH229718   3.028   5.489   8.280 -0.2934  0.1387  0.0494
 2720TIP3    H129719   2.975   5.536   8.216 -2.9115 -0.3414  1.7228
 2720TIP3    H229720   3.007   5.530   8.364 -0.0766 -1.8074  1.1151
 2721TIP3   OH229721   6.534   0.907   7.174 -0.0286 -0.3728  0.1119
 2721TIP3    H129722   6.457   0.875   7.126  0.0041  1.9410 -1.6492
 2721TIP3    H229723   6.608   0.860   7.135 -0.1976  0.1885 -0.9318
 2722TIP3   OH229724   2.080   5.494   8.541 -0.6171  0.7992  0.1818
 2722TIP3    H129725   2.159   5.460   8.583  0.0605  2.2600  0.1416
 2722TIP3    H229726   2.034   5.416   8.510  0.2810 -0.1370  1.1224
 2723TIP3   OH229727   1.136   2.078   0.837  0.3639 -0.2003  0.4455
 2723TIP3    H129728   1.110   2.093   0.928 -0.9286 -1.7507  0.3766
 2723TIP3    H229729   1.224   2.040   0.844  0.1772 -0.5460  1.0851
 2724TIP3   OH229730   4.079   1.147   8.458  0.0924 -0.3023  0.2952
 2724TIP3    H129731   4.109   1.059   8.437 -0.5386 -0.4545 -0.0046
 2724TIP3    H229732   4.117   1.165   8.544  0.4906 -0.7379  0.2159
 2725TIP3   OH229733   4.973   6.369   0.737 -0.1907  0.0735  0.0326
 2725TIP3    H129734   4.904   6.434   0.726  0.1429  0.1223 -2.3815
 2725TIP3    H229735   5.049   6.419   0.766 -0.2161  0.6409 -0.8290
 2726TIP3   OH229736   5.435   2.349   0.231 -0.5409  0.3418  0.1666
 2726TIP3    H129737   5.466   2.434   0.261 -1.4450  0.9941 -0.6726
 2726TIP3    H229738   5.419   2.361   0.137  0.0570 -0.9850 -0.1396
 2727TIP3   OH229739   5.623   1.477   0.014  0.0683 -0.0864  0.2756
 2727TIP3    H129740   5.588   1.488  -0.075  1.1737 -0.2756 -0.1963
 2727TIP3    H229741   5.706   1.524   0.013  1.0495 -1.7277  0.6043
 2728TIP3   OH229742   6.072   0.917   1.438  0.2775 -0.2318  0.3782
 2728TIP3    H129743   6.003   0.853   1.454  1.3627 -1.3903  0.5872
 2728TIP3    H229744   6.127   0.914   1.517  0.5806  0.6740  0.2206
 2729TIP3   OH229745   5.825   6.187   7.204 -0.3545 -0.0312  0.0068
 2729TIP3    H129746   5.830   6.252   7.274 -0.4321 -1.5759  1.5169
 2729TIP3    H229747   5.734   6.193   7.172  0.0890  1.7264 -1.0803
 2730TIP3   OH229748   1.600   6.403   0.425  0.3058 -0.0753 -0.1368
 2730TIP3    H129749   1.528   6.463   0.408 -0.2915 -0.9475 -0.7490
 2730TIP3    H229750   1.594   6.384   0.518  2.0724  2.7754  0.7046
 2731TIP3   OH229751   6.451   3.610   1.061 -0.0816  0.1108  0.0275
 2731TIP3    H129752   6.467   3.602   0.967 -0.6292  0.0463 -0.0623
 2731TIP3    H229753   6.363   3.647   1.067 -0.9529 -1.8955  0.5269
 2732TIP3   OH229754   3.321   1.752   8.176  0.1539 -0.0135  0.2895
 2732TIP3    H129755   3.368   1.748   8.260  0.2426  2.4323  0.4212
 2732TIP3    H229756   3.229   1.739   8.199  0.1812  0.6077  0.7763
 2733TIP3   OH229757   5.259   5.983   6.237  0.0938  0.1520 -0.7189
 2733TIP3    H129758   5.297   6.020   6.317 -0.1240  1.1992 -1.0722
 2733TIP3    H229759   5.169   6.017   6.237  0.3512  0.8854 -1.8354
 2734TIP3   OH229760   2.823   2.723   8.198 -0.0674 -0.2520  0.3912
 2734TIP3    H129761   2.789   2.708   8.286  0.4186 -0.8924  0.4791
 2734TIP3    H229762   2.879   2.648   8.181  0.7017  0.3997 -0.0426
 2735TIP3   OH229763   4.898   3.531   7.909 -0.5458  0.1118  0.0242
 2735TIP3    H129764   4.870   3.463   7.849 -1.9774  0.0503  0.7376
 2735TIP3    H229765   4.817   3.567   7.945  0.1371  2.5153 -0.6709
 2736TIP3   OH229766   0.295   5.944   7.913 -0.6385 -0.1304  0.3735
 2736TIP3    H129767   0.309   6.034   7.943 -1.2140 -0.4385  1.6166
 2736TIP3    H229768   0.243   5.953   7.833  1.2721  0.7290 -0.8242
 2737TIP3   OH229769   6.719   2.976   1.158 -0.1193  0.1524 -0.3317
 2737TIP3    H129770   6.736   3.069   1.145  0.3624 -0.2332 -2.8308
 2737TIP3    H229771   6.791   2.946   1.213 -0.1990  1.1923  0.3740
 2738TIP3   OH229772   1.384   2.166   6.242 -0.1746 -0.2817  0.1441
 2738TIP3    H129773   1.460   2.136   6.192  0.8094  1.9392  0.1892
 2738TIP3    H229774   1.309   2.145   6.187  0.5965 -1.1607 -0.5946
 2739TIP3   OH229775   3.966   1.993   3.370  0.1361 -0.0171  0.1578
 2739TIP3    H129776   3.928   2.002   3.283  1.4209 -0.3753 -0.4655
 2739TIP3    H229777   3.947   1.902   3.395  0.3601 -0.1216 -0.0474
 2740TIP3   OH229778   0.183   3.037   1.887 -0.7082 -0.2671  0.2380
 2740TIP3    H129779   0.187   3.130   1.863 -1.4087  0.0363  1.2435
 2740TIP3    H229780   0.174   2.991   1.803 -0.6584  0.5831 -0.2486
 2741TIP3   OH229781   0.620   3.774   2.576 -0.5520  0.0084 -0.3566
 2741TIP3    H129782   0.618   3.858   2.531 -1.0275 -0.5379 -1.3923
 2741TIP3    H229783   0.536   3.770   2.623  0.3038  0.9526  1.3386
 2742TIP3   OH229784   3.390   6.244   1.361 -0.1845  0.3162 -0.1133
 2742TIP3    H129785   3.373   6.246   1.266  0.5331 -1.6397 -0.3203
 2742TIP3    H229786   3.325   6.182   1.395 -1.5223  2.2099  0.9776
 2743TIP3   OH229787   4.163   1.455   8.610 -0.1850 -0.0456 -0.1407
 2743TIP3    H129788   4.163   1.396   8.535  0.2480 -0.6192  0.3016
 2743TIP3    H229789   4.218   1.529   8.583 -0.3157 -0.0829 -0.5120
 2744TIP3   OH229790   1.007   3.247   1.515 -0.9960 -0.1154  0.0403
 2744TIP3    H129791   0.956   3.249   1.434  0.1237  1.8540 -0.6923
 2744TIP3    H229792   1.087   3.297   1.495  0.2878 -1.3387  1.7456
 2745TIP3   OH229793   3.005   1.048   2.089 -0.0397  0.7953 -0.2542
 2745TIP3    H129794   3.049   1.131   2.110  0.4719  0.4923 -0.1113
 2745TIP3    H229795   2.944   1.035   2.162  2.0620 -0.4823  1.3775
 2746TIP3   OH229796   4.879   3.206   1.953 -0.0175 -0.1521  0.0037
 2746TIP3    H129797   4.878   3.246   1.866  1.6998  0.3427  0.1664
 2746TIP3    H229798   4.967   3.226   1.987 -0.1790 -1.5031  1.3004
 2747TIP3   OH229799   1.538   5.870   8.665  0.1209 -0.1869 -0.2466
 2747TIP3    H129800   1.527   5.921   8.746  0.3970 -0.5206  0.0069
 2747TIP3    H229801   1.465   5.897   8.610 -1.0287 -1.1360  0.7493
 2748TIP3   OH229802   5.550   4.801   7.847 -0.1566  0.1353 -0.7539
 2748TIP3    H129803   5.540   4.884   7.894  0.6273  0.1355 -0.5874
 2748TIP3    H229804   5.499   4.739   7.898  0.2453  0.2531 -0.2040
 2749TIP3   OH229805   6.176   1.583   7.819  0.2861 -0.0065 -0.2280
 2749TIP3    H129806   6.132   1.504   7.786 -0.2928  0.0558  0.3977
 2749TIP3    H229807   6.254   1.550   7.863  1.0567 -0.0966 -1.6028
 2750TIP3   OH229808   0.863   3.175   2.003 -0.5938  0.1358  0.0025
 2750TIP3    H129809   0.857   3.092   2.051 -0.1378 -1.1242 -1.9941
 2750TIP3    H229810   0.773   3.194   1.977 -0.7297  0.3971  0.6524
 2751TIP3   OH229811   0.600   6.771   7.488 -0.2265 -0.1876  0.8727
 2751TIP3    H129812   0.604   6.708   7.417 -0.2235 -2.2204  2.5779
 2751TIP3    H229813   0.544   6.841   7.455 -0.6162 -1.2911 -0.9420
 2752TIP3   OH229814   6.139   1.083   7.337  0.4916  0.1158  0.2230
 2752TIP3    H129815   6.063   1.094   7.281  1.0622  1.0114 -0.3927
 2752TIP3    H229816   6.175   0.997   7.314  0.0549 -0.0233  0.0600
 2753TIP3   OH229817   3.426   5.868   1.747 -0.2319 -0.6498 -0.0740
 2753TIP3    H129818   3.358   5.815   1.705 -2.8509  2.1942  0.2576
 2753TIP3    H229819   3.466   5.918   1.676 -1.6349  0.9255  0.1866
 2754TIP3   OH229820   6.793   6.231   0.412 -0.3780 -0.0783  0.2382
 2754TIP3    H129821   6.864   6.167   0.425  0.0155  0.1733 -0.5957
 2754TIP3    H229822   6.837   6.315   0.408 -0.9945  0.3767  2.3215
 2755TIP3   OH229823   3.759   6.173   1.442  0.6922 -0.0979  0.1485
 2755TIP3    H129824   3.845   6.131   1.437  0.6668 -0.0016 -1.5516
 2755TIP3    H229825   3.701   6.104   1.475  1.4057 -0.1503  1.3489
 2756TIP3   OH229826   2.133   4.825   8.471 -0.0538  0.0354  0.0085
 2756TIP3    H129827   2.107   4.911   8.440 -3.3998 -0.7634  0.1709
 2756TIP3    H229828   2.053   4.772   8.465  1.2490 -2.4305  2.0780
 2757TIP3   OH229829   1.065   2.052   7.836 -0.1936 -0.3050 -0.1283
 2757TIP3    H129830   1.122   1.982   7.804 -1.1409 -0.9461 -0.4560
 2757TIP3    H229831   0.977   2.025   7.810 -0.8904 -0.2964  2.0157
 2758TIP3   OH229832   4.969   6.505   7.650  1.0553 -0.4314  0.3760
 2758TIP3    H129833   4.984   6.430   7.592  0.6317 -0.7630  0.6863
 2758TIP3    H229834   5.055   6.527   7.685  1.2903 -0.3383 -0.2378
 2759TIP3   OH229835   0.815   2.849   8.560  0.0801 -0.6056 -0.2505
 2759TIP3    H129836   0.859   2.881   8.639 -2.8133 -0.1399  1.2985
 2759TIP3    H229837   0.866   2.773   8.533  1.0102 -0.9272  2.2105
 2760TIP3   OH229838   0.359   1.310   0.111  0.3042 -0.2999  0.1255
 2760TIP3    H129839   0.318   1.274   0.190 -0.5831  0.0770 -0.1488
 2760TIP3    H229840   0.376   1.233   0.055 -1.4259 -0.3467 -0.3867
 2761TIP3   OH229841   4.648   4.789   1.926  0.2261  0.2099  0.5597
 2761TIP3    H129842   4.743   4.791   1.930  0.2229  0.2432  0.6110
 2761TIP3    H229843   4.621   4.746   2.007  0.1485  1.1567  1.0502
 2762TIP3   OH229844   1.077   4.453   8.543 -0.3983  0.0875  0.0396
 2762TIP3    H129845   1.098   4.507   8.619  1.9251  0.0363 -0.4750
 2762TIP3    H229846   1.125   4.494   8.471 -1.4457 -0.6500 -1.1153
 2763TIP3   OH229847   2.429   5.330   1.343 -0.1312  0.1934  0.1645
 2763TIP3    H129848   2.472   5.337   1.258 -1.4743  0.8792 -0.5042
 2763TIP3    H229849   2.437   5.418   1.381  0.7005 -0.1813  0.8853
 2764TIP3   OH229850   0.641   0.099   8.097  0.1755 -0.0233 -0.1210
 2764TIP3    H129851   0.638   0.189   8.064 -1.7332  0.5078  1.3533
 2764TIP3    H229852   0.600   0.047   8.028 -0.8649  0.5974  0.0142
 2765TIP3   OH229853   3.769   5.828   0.108 -0.4209  0.0045 -0.3019
 2765TIP3    H129854   3.834   5.768   0.145 -0.8946 -1.1438 -1.2625
 2765TIP3    H229855   3.778   5.908   0.160  2.1297  0.0997 -0.7482
 2766TIP3   OH229856   2.466   5.081   1.506  0.2825  0.1125 -0.3929
 2766TIP3    H129857   2.470   5.091   1.411 -0.8753 -0.3511 -0.5086
 2766TIP3    H229858   2.373   5.090   1.527  0.6911  1.8532  0.8984
 2767TIP3   OH229859   0.326   6.612   0.938 -0.1852  0.7609 -0.2668
 2767TIP3    H129860   0.402   6.669   0.949  1.9660 -1.8846 -0.6287
 2767TIP3    H229861   0.284   6.643   0.857  2.4551  0.2594 -1.9258
 2768TIP3   OH229862   5.509   6.220   0.084  0.2656  0.0492 -0.2931
 2768TIP3    H129863   5.414   6.210   0.093 -0.4113  2.2118 -3.3384
 2768TIP3    H229864   5.531   6.295   0.139 -0.0978  0.4322 -0.6560
 2769TIP3   OH229865   2.889   1.913   8.343 -0.4039  0.4273  0.0435
 2769TIP3    H129866   2.841   1.925   8.261 -0.9259 -0.0335  0.2751
 2769TIP3    H229867   2.821   1.908   8.410  0.0487  2.3147  0.7238
 2770TIP3   OH229868   5.935   1.692   8.311  0.4860  0.2261 -0.0327
 2770TIP3    H129869   5.928   1.783   8.282 -0.4323 -0.3145 -1.6765
 2770TIP3    H229870   5.963   1.645   8.232 -2.1578 -1.3462 -0.1635
 2771TIP3   OH229871   1.597   4.395   2.274 -0.8526 -0.1276 -0.0476
 2771TIP3    H129872   1.556   4.434   2.351 -1.0485 -0.3730 -0.0265
 2771TIP3    H229873   1.662   4.334   2.310  1.1661  1.8884 -0.0498
 2772TIP3   OH229874   0.747   6.112   1.851 -0.5098 -0.3319  0.2283
 2772TIP3    H129875   0.669   6.148   1.894 -0.5125  0.0310 -0.0800
 2772TIP3    H229876   0.815   6.119   1.918 -0.1196  1.7059 -0.3176
 2773TIP3   OH229877   2.582   5.884   0.457  0.0148 -0.2231 -0.6636
 2773TIP3    H129878   2.552   5.798   0.427 -0.2372 -0.1821 -0.5343
 2773TIP3    H229879   2.507   5.942   0.443  0.1650 -0.0359 -0.6980
 2774TIP3   OH229880   4.891   0.271   8.256  0.1590  0.6962 -0.2846
 2774TIP3    H129881   4.861   0.360   8.276 -1.9368 -0.1010  0.2927
 2774TIP3    H229882   4.867   0.220   8.333 -4.1676 -1.5806 -2.7736
 2775TIP3   OH229883   1.929   2.585   0.713 -0.0703 -0.6821 -0.1292
 2775TIP3    H129884   1.907   2.505   0.760 -0.9981  0.2031  1.0169
 2775TIP3    H229885   1.868   2.586   0.639 -1.7853  0.1114  1.2051
 2776TIP3   OH229886   3.206   0.151   1.924 -0.0191 -0.0115  0.0895
 2776TIP3    H129887   3.135   0.201   1.965 -0.9091 -0.1957 -1.1637
 2776TIP3    H229888   3.284   0.174   1.974 -0.7054  1.3443  0.5880
 2777TIP3   OH229889   2.532   1.264   7.844  0.1080  0.1209  0.5416
 2777TIP3    H129890   2.456   1.322   7.830 -0.3912 -0.2964  1.4276
 2777TIP3    H229891   2.534   1.209   7.766 -0.9810 -0.3764  0.8410
 2778TIP3   OH229892   1.365   0.898   8.162  0.4496 -0.5007  0.2663
 2778TIP3    H129893   1.329   0.812   8.139  1.4212 -0.3251 -2.1797
 2778TIP3    H229894   1.456   0.881   8.183  0.2405 -0.2575  1.4524
 2779TIP3   OH229895   5.368   3.913   6.611  0.0118 -0.5308 -0.5347
 2779TIP3    H129896   5.370   3.961   6.693  1.9170  0.9784 -1.4031
 2779TIP3    H229897   5.421   3.835   6.628 -0.7957 -0.9818  0.0433
 2780TIP3   OH229898   3.405   1.922   1.200  0.0409  0.0968 -0.0766
 2780TIP3    H129899   3.454   1.913   1.118 -0.2083  0.8324 -0.3115
 2780TIP3    H229900   3.421   2.012   1.228  0.6535 -0.3372  1.0342
 2781TIP3   OH229901   1.557   3.417   0.396 -0.2372 -0.4244 -0.6907
 2781TIP3    H129902   1.473   3.380   0.422  0.2788 -0.3321  1.2740
 2781TIP3    H229903   1.574   3.487   0.459  2.0624 -1.5491  0.0888
 2782TIP3   OH229904   0.495   6.610   8.064 -0.4403  0.9191  0.4107
 2782TIP3    H129905   0.553   6.534   8.067  0.4090  1.5794  1.6374
 2782TIP3    H229906   0.546   6.678   8.020  0.1475  1.8037  2.3544
 2783TIP3   OH229907   4.058   4.602   0.157 -0.2906 -0.2434 -0.2753
 2783TIP3    H129908   3.978   4.553   0.139 -1.1042  0.5292  1.0476
 2783TIP3    H229909   4.057   4.616   0.252  1.3811 -0.1426 -0.2425
 2784TIP3   OH229910   5.991   5.648   7.837 -0.7991 -0.2252 -0.5364
 2784TIP3    H129911   6.052   5.627   7.767  1.0305  3.0891 -0.1314
 2784TIP3    H229912   5.905   5.631   7.800  0.2007 -1.6972 -2.3546
 2785TIP3   OH229913   0.425   4.555   1.224 -0.1678 -0.1523 -0.2812
 2785TIP3    H129914   0.518   4.568   1.207 -0.4913  1.9554 -0.6679
 2785TIP3    H229915   0.421   4.530   1.317  0.7030  1.0162  0.0855
 2786TIP3   OH229916   2.349   3.949   8.033 -0.1486 -0.2571 -0.0578
 2786TIP3    H129917   2.391   3.875   7.990  0.0084 -0.0822 -0.2075
 2786TIP3    H229918   2.414   3.980   8.097 -1.3046 -2.0868  2.1315
 2787TIP3   OH229919   3.957   0.766   2.135  0.3265 -0.2091 -0.2032
 2787TIP3    H129920   3.910   0.833   2.185  1.9431  0.9556 -0.1403
 2787TIP3    H229921   4.043   0.805   2.118  0.7663 -1.6469 -1.5796
 2788TIP3   OH229922   5.526   5.456   6.697 -0.0721 -0.0982  0.9620
 2788TIP3    H129923   5.548   5.538   6.652  0.1625 -1.8949 -2.5035
 2788TIP3    H229924   5.432   5.448   6.687 -0.0426 -0.4241  0.9538
 2789TIP3   OH229925   1.683   6.806   7.643  0.1881 -0.2913  0.9670
 2789TIP3    H129926   1.767   6.801   7.598  0.5488  0.1953  1.5756
 2789TIP3    H229927   1.704   6.792   7.735 -0.1909  1.2459  1.3184
 2790TIP3   OH229928   1.201   6.095   2.315  0.0368  0.7241  0.0333
 2790TIP3    H129929   1.254   6.125   2.389 -0.1314 -0.2140  0.5529
 2790TIP3    H229930   1.156   6.173   2.283  1.4051  1.4550 -0.1512
 2791TIP3   OH229931   2.929   1.955   0.491 -0.1697  0.1865 -0.2293
 2791TIP3    H129932   2.988   2.030   0.493  0.1817 -0.0323 -1.5967
 2791TIP3    H229933   2.851   1.987   0.445 -0.8956  0.2957  1.0287
 2792TIP3   OH229934   5.500   3.225   7.809 -0.1221  0.4587  0.0041
 2792TIP3    H129935   5.581   3.197   7.766  0.0803  1.1480 -0.0819
 2792TIP3    H229936   5.430   3.184   7.758  0.1182  1.1773 -0.9278
 2793TIP3   OH229937   3.817   6.400   2.799  0.2483  0.4591  0.0052
 2793TIP3    H129938   3.767   6.366   2.725 -0.3800  0.2741  0.5009
 2793TIP3    H229939   3.898   6.349   2.800 -0.0147  0.0359 -0.1788
 2794TIP3   OH229940   5.623   1.083   1.398  0.2152 -0.4224 -0.2140
 2794TIP3    H129941   5.646   1.151   1.336 -0.3929 -0.8686 -0.9498
 2794TIP3    H229942   5.629   1.001   1.348 -0.2171 -0.7962  0.3254
 2795TIP3   OH229943   2.131   3.670   2.176 -0.6580  0.2129 -0.1780
 2795TIP3    H129944   2.101   3.579   2.172 -1.4688  0.3996  1.0653
 2795TIP3    H229945   2.089   3.705   2.255  0.0836  1.5079 -0.3416
 2796TIP3   OH229946   3.738   3.569   8.701  0.2792  0.4106  0.4627
 2796TIP3    H129947   3.691   3.566   8.785  1.3869 -1.5737  1.0900
 2796TIP3    H229948   3.697   3.499   8.649 -0.8798  2.0860 -0.9894
 2797TIP3   OH229949   3.134   2.863   1.258 -0.0177 -0.6570  0.2687
 2797TIP3    H129950   3.098   2.914   1.331  0.1693  1.5463 -1.1040
 2797TIP3    H229951   3.217   2.906   1.237 -0.8154 -0.1653 -2.2593
 2798TIP3   OH229952   0.824   5.030   2.533  0.2874  0.4499  0.0014
 2798TIP3    H129953   0.895   5.005   2.592  0.6924  0.0439 -0.6429
 2798TIP3    H229954   0.781   4.947   2.511  0.2733  0.5724 -0.4399
 2799TIP3   OH229955   0.693   2.771   2.720  0.1244  0.1228 -0.2922
 2799TIP3    H129956   0.743   2.720   2.657  1.7093  0.1754  0.8567
 2799TIP3    H229957   0.678   2.855   2.676  1.3222  0.2088 -0.5778
 2800TIP3   OH229958   5.739   3.060   1.786 -0.2136  0.0422  0.1102
 2800TIP3    H129959   5.762   3.068   1.879  0.5028 -0.5842 -0.0042
 2800TIP3    H229960   5.747   3.149   1.752  0.9641  0.0312  0.3265
 2801TIP3   OH229961   2.574   1.062   8.673 -0.2306  0.3443  0.5148
 2801TIP3    H129962   2.609   1.040   8.587 -0.2101 -0.8242  0.8078
 2801TIP3    H229963   2.648   1.047   8.733 -0.6099 -0.1085  0.8815
 2802TIP3   OH229964   3.283   4.551   7.582 -0.0658 -0.1302 -0.0857
 2802TIP3    H129965   3.352   4.487   7.599  0.3689  0.3050 -0.1880
 2802TIP3    H229966   3.208   4.518   7.632 -0.5077 -1.8265 -1.7552
 2803TIP3   OH229967   6.376   1.103   7.737 -0.4276 -0.6626 -0.2567
 2803TIP3    H129968   6.318   1.128   7.809  0.7869 -0.3418  0.6382
 2803TIP3    H229969   6.399   1.186   7.695  0.0845 -0.6963 -0.0478
 2804TIP3   OH229970   5.149   0.583   6.826 -0.5533  0.1513 -0.3185
 2804TIP3    H129971   5.183   0.607   6.912 -2.3028 -1.6171  0.9852
 2804TIP3    H229972   5.209   0.515   6.794  2.0071  3.0143 -2.1342
 2805TIP3   OH229973   4.572   0.654   0.089 -0.2414  0.1066  0.6214
 2805TIP3    H129974   4.547   0.564   0.069 -0.2747  0.2942 -0.2204
 2805TIP3    H229975   4.567   0.700   0.005 -1.4706  1.2007  1.2617
 2806TIP3   OH229976   2.381   1.291   1.223 -0.2898  0.5620  0.5401
 2806TIP3    H129977   2.428   1.244   1.292  0.4680  1.0698  0.3825
 2806TIP3    H229978   2.295   1.250   1.221  0.3564 -0.8456  0.3809
 2807TIP3   OH229979   0.814   0.435   7.181 -0.3778  0.2356  0.0883
 2807TIP3    H129980   0.852   0.472   7.261  0.5656 -0.6559  0.0774
 2807TIP3    H229981   0.887   0.431   7.119 -0.9373  0.2575 -0.5880
 2808TIP3   OH229982   5.510   0.605   6.903 -0.2456 -0.2318 -0.0664
 2808TIP3    H129983   5.467   0.533   6.856  0.6361  0.0744 -1.4148
 2808TIP3    H229984   5.599   0.573   6.919 -0.0757  0.2689 -0.0019
 2809TIP3   OH229985   5.323   3.325   0.687 -0.2217  0.5737  0.2589
 2809TIP3    H129986   5.253   3.315   0.751 -1.8578  1.5338 -1.2986
 2809TIP3    H229987   5.381   3.391   0.726 -1.6555  1.7898  0.4233
 2810TIP3   OH229988   2.926   2.440   0.303 -0.2182 -0.1018  0.1971
 2810TIP3    H129989   2.838   2.475   0.317 -0.2488  0.0808 -0.3954
 2810TIP3    H229990   2.979   2.478   0.372 -0.3598  0.7254 -0.1410
 2811TIP3   OH229991   4.165   3.925   0.770  0.0602 -0.0302  0.5932
 2811TIP3    H129992   4.203   3.873   0.699 -0.7343  2.7514 -2.0596
 2811TIP3    H229993   4.226   3.997   0.782 -0.6890  0.4573  1.5927
 2812TIP3   OH229994   0.375   0.430   1.021 -0.0605  0.1337 -0.7944
 2812TIP3    H129995   0.353   0.520   0.995  1.0954  0.9123  0.7437
 2812TIP3    H229996   0.323   0.415   1.100  0.7513 -0.0374 -0.2828
 2813TIP3   OH229997   6.737   1.664   7.364 -0.1300  0.0966 -0.2587
 2813TIP3    H129998   6.756   1.572   7.345  0.6018  0.3698 -0.8824
 2813TIP3    H229999   6.790   1.713   7.303 -0.1677  0.9571  0.3762
 2814TIP3   OH230000   4.567   2.834   0.576 -0.2130 -0.0585  0.2015
 2814TIP3    H130001   4.477   2.805   0.595 -0.0233 -0.7918  0.0277
 2814TIP3    H230002   4.607   2.843   0.662 -0.4064  0.1222  0.2753
 2815TIP3   OH230003   6.759   4.487   7.823  0.9859  0.2907 -0.2581
 2815TIP3    H130004   6.826   4.543   7.784  0.0493  0.9173 -1.0104
 2815TIP3    H230005   6.805   4.406   7.846  1.8855  0.4858 -1.2916
 2816TIP3   OH230006   4.455   3.142   7.476 -0.2355 -0.2044 -0.0717
 2816TIP3    H130007   4.401   3.115   7.402 -1.9729  1.7590  0.3925
 2816TIP3    H230008   4.509   3.213   7.442  0.1897 -0.4237  0.1371
 2817TIP3   OH230009   0.781   3.841   8.543 -0.1271  0.2436  0.1806
 2817TIP3    H130010   0.847   3.815   8.608  0.3151  0.0066 -0.3589
 2817TIP3    H230011   0.811   3.803   8.461 -0.7503  0.4392 -0.1466
 2818TIP3   OH230012   3.655   0.273   0.757  0.3517  0.1922 -0.0559
 2818TIP3    H130013   3.702   0.212   0.815 -0.0871 -1.6360 -1.5146
 2818TIP3    H230014   3.585   0.220   0.719  0.9164  1.1355 -2.6254
 2819TIP3   OH230015   0.723   4.877   7.648  0.9635 -0.1926 -0.0204
 2819TIP3    H130016   0.725   4.960   7.697  1.4622 -1.0891  1.5639
 2819TIP3    H230017   0.631   4.851   7.649  0.9798 -0.2570  0.5869
 2820TIP3   OH230018   1.287   2.577   0.989 -0.2722  0.1245  0.1370
 2820TIP3    H130019   1.377   2.547   0.982  0.9512  2.6990  2.8318
 2820TIP3    H230020   1.289   2.668   0.958 -1.7560  0.5175  1.0790
 2821TIP3   OH230021   3.075   5.745   1.139  0.3407  0.0800 -0.0110
 2821TIP3    H130022   3.131   5.737   1.061 -0.4802 -0.0880 -0.5952
 2821TIP3    H230023   2.994   5.700   1.115  0.1179 -0.0740  0.9893
 2822TIP3   OH230024   2.310   2.056   7.408 -1.4982 -0.0873 -0.1572
 2822TIP3    H130025   2.216   2.068   7.423 -1.2982  0.4747  0.6964
 2822TIP3    H230026   2.318   1.966   7.378 -2.6105  0.6105 -2.8837
 2823TIP3   OH230027   1.869   0.358   1.568  0.1340 -0.3982 -0.9182
 2823TIP3    H130028   1.941   0.357   1.631 -1.4730 -0.4851  1.0199
 2823TIP3    H230029   1.893   0.427   1.505  0.7799  1.3085  1.0780
 2824TIP3   OH230030   5.697   6.187   0.734  0.3696  0.2718  0.3080
 2824TIP3    H130031   5.760   6.259   0.731  1.8250 -0.9840 -1.2405
 2824TIP3    H230032   5.613   6.228   0.714  0.5987  2.0059  2.5625
 2825TIP3   OH230033   0.253   0.767   0.311 -0.6521  0.1318 -0.0003
 2825TIP3    H130034   0.341   0.788   0.342 -1.1508  0.2471  1.3856
 2825TIP3    H230035   0.246   0.672   0.322 -0.4212  0.0031 -0.8907
 2826TIP3   OH230036   2.583   2.843   0.034  0.1827  0.0531 -0.7099
 2826TIP3    H130037   2.552   2.932   0.020  0.0110 -0.0191 -0.7845
 2826TIP3    H230038   2.635   2.823  -0.044 -1.3815 -0.6182 -1.6159
 2827TIP3   OH230039   6.644   1.405   2.669  0.1948 -0.1341 -0.0227
 2827TIP3    H130040   6.624   1.476   2.729  1.2647  1.0358 -0.9920
 2827TIP3    H230041   6.724   1.365   2.705 -0.1616 -0.5894  0.2816
 2828TIP3   OH230042   6.449   0.523   2.378  0.0863  0.0795 -0.0867
 2828TIP3    H130043   6.434   0.605   2.332  0.9638 -0.9988 -2.4522
 2828TIP3    H230044   6.515   0.543   2.444  1.0442  1.0923 -1.3023
 2829TIP3   OH230045   2.188   3.933   8.456  0.0733 -0.3785 -0.4797
 2829TIP3    H130046   2.159   4.011   8.503  0.7809 -0.6236  0.3962
 2829TIP3    H230047   2.109   3.897   8.417 -0.3455  0.4622 -0.4156
 2830TIP3   OH230048   4.577   1.324   8.554 -0.4770 -0.2672  0.3219
 2830TIP3    H130049   4.561   1.391   8.620 -0.5589  0.0029  0.0302
 2830TIP3    H230050   4.536   1.357   8.475  1.0736  0.2178 -0.3201
 2831TIP3   OH230051   0.302   1.786   7.760 -0.0420  0.1042  0.3627
 2831TIP3    H130052   0.383   1.807   7.807 -0.5424  3.2024  0.0343
 2831TIP3    H230053   0.332   1.740   7.682  1.4153  1.1362  0.2683
 2832TIP3   OH230054   4.698   2.849   7.817  0.1643 -0.1550 -0.3368
 2832TIP3    H130055   4.655   2.889   7.742  0.6685 -0.6839 -0.9217
 2832TIP3    H230056   4.636   2.783   7.848  0.0925 -0.1574 -0.4878
 2833TIP3   OH230057   0.950   1.056   0.965 -0.4983 -0.4649  0.2803
 2833TIP3    H130058   1.010   1.073   0.893 -0.4856 -0.5002  0.2824
 2833TIP3    H230059   0.904   0.975   0.941  0.5955 -1.3364  1.0104
 2834TIP3   OH230060   3.732   4.059   2.210  0.3288 -0.4284  0.1170
 2834TIP3    H130061   3.637   4.062   2.210  0.2814 -1.3355 -0.7029
 2834TIP3    H230062   3.756   4.045   2.118  1.3102  0.8562  0.1447
 2835TIP3   OH230063   2.671   5.681   1.876 -0.2679  0.2185  0.4554
 2835TIP3    H130064   2.766   5.669   1.871 -0.1680  1.3560 -1.1064
 2835TIP3    H230065   2.650   5.672   1.969  1.7321  2.3477  1.1954
 2836TIP3   OH230066   2.168   1.488   0.380 -0.0905 -0.2969  0.7133
 2836TIP3    H130067   2.255   1.499   0.419 -0.1982 -0.4450  1.0002
 2836TIP3    H230068   2.165   1.551   0.308 -0.7887  1.7796  2.4432
 2837TIP3   OH230069   2.808   5.056   2.390 -0.1400  0.5369  0.4804
 2837TIP3    H130070   2.774   5.034   2.477 -1.3821 -2.3711 -0.6343
 2837TIP3    H230071   2.900   5.029   2.394  0.0237  1.1514  1.1041
 2838TIP3   OH230072   2.771   2.470   7.560 -0.5039 -0.2910  0.0377
 2838TIP3    H130073   2.799   2.391   7.605  0.7688 -0.2964 -0.6965
 2838TIP3    H230074   2.675   2.463   7.556 -0.6531 -0.4303  2.3949
 2839TIP3   OH230075   2.359   3.143   2.771  0.0537 -0.6243  0.1485
 2839TIP3    H130076   2.404   3.154   2.687  0.1846  1.2962  0.4287
 2839TIP3    H230077   2.355   3.231   2.808 -1.3491 -1.2025  1.4815
 2840TIP3   OH230078   4.256   2.883   7.483  0.3279  0.3146  0.2878
 2840TIP3    H130079   4.305   2.934   7.419 -0.1712  0.5016  0.0536
 2840TIP3    H230080   4.255   2.794   7.447  2.0149 -0.1018  1.1528
 2841TIP3   OH230081   2.397   5.681   1.158  0.5825  0.4042  0.2510
 2841TIP3    H130082   2.402   5.746   1.088  0.1687 -0.1131 -0.2710
 2841TIP3    H230083   2.354   5.726   1.230 -1.7621  0.1219 -0.8539
 2842TIP3   OH230084   1.177   5.538   7.356 -0.0069 -0.2833 -0.5215
 2842TIP3    H130085   1.141   5.544   7.268  1.0401 -1.1404 -1.0354
 2842TIP3    H230086   1.124   5.470   7.398 -0.9140  0.5573 -0.2558
 2843TIP3   OH230087   1.779   0.989   0.096 -0.0268  0.3590  0.1169
 2843TIP3    H130088   1.861   0.953   0.062  0.2905  0.5396  0.6698
 2843TIP3    H230089   1.721   0.993   0.021  0.6932  0.8520 -0.4253
 2844TIP3   OH230090   5.756   3.977   7.948  0.2256  0.5081 -0.0467
 2844TIP3    H130091   5.778   3.920   7.873 -1.9582 -0.2406 -0.1756
 2844TIP3    H230092   5.753   4.065   7.911 -1.9054  0.0342 -1.1763
 2845TIP3   OH230093   1.203   1.435   0.799 -0.6759 -0.6053  0.4382
 2845TIP3    H130094   1.172   1.498   0.864  2.0736  1.5356 -0.1747
 2845TIP3    H230095   1.146   1.450   0.723  0.3469  1.7095  0.0629
 2846TIP3   OH230096   5.668   1.565   8.071  0.2917  0.2247  0.0551
 2846TIP3    H130097   5.682   1.471   8.084 -0.8058 -0.2723 -1.9294
 2846TIP3    H230098   5.576   1.572   8.047  0.7685  1.5759 -1.5465
 2847TIP3   OH230099   4.415   4.450   0.784  0.0681  0.0976  0.0674
 2847TIP3    H130100   4.501   4.428   0.747 -0.5264 -2.5658  0.0970
 2847TIP3    H230101   4.429   4.453   0.878  0.0437 -0.9299  0.1150
 2848TIP3   OH230102   5.988   2.029   0.218 -0.1616 -0.0745 -0.1447
 2848TIP3    H130103   6.082   2.018   0.234 -0.1464  1.2684  0.8077
 2848TIP3    H230104   5.970   2.121   0.237 -1.8751 -0.5383  0.7474
 2849TIP3   OH230105   5.805   1.857   1.588 -0.0398 -0.3177 -0.2154
 2849TIP3    H130106   5.839   1.899   1.509  0.8701 -0.5506  0.0331
 2849TIP3    H230107   5.785   1.767   1.561 -1.8290  0.1959 -0.7061
 2850TIP3   OH230108   3.157   4.981   0.584 -0.1493 -0.0649 -0.4563
 2850TIP3    H130109   3.209   5.012   0.510  0.2508 -0.0539 -0.1671
 2850TIP3    H230110   3.167   5.048   0.651  1.1209 -1.0200  0.3561
 2851TIP3   OH230111   6.607   2.576   6.645 -0.4779 -0.2857 -0.1503
 2851TIP3    H130112   6.556   2.496   6.639  0.7891 -1.1265 -0.0750
 2851TIP3    H230113   6.676   2.566   6.579  0.0206  0.5049  0.2290
 2852TIP3   OH230114   4.496   5.912   0.825  0.3480 -0.3178  0.0465
 2852TIP3    H130115   4.555   5.839   0.842 -0.9473 -1.4292 -0.0777
 2852TIP3    H230116   4.409   5.873   0.819 -0.2933  1.1245 -0.8331
 2853TIP3   OH230117   5.500   3.134   8.529  0.1473  0.0682 -0.3107
 2853TIP3    H130118   5.416   3.139   8.484 -1.0809 -1.6527  1.6243
 2853TIP3    H230119   5.490   3.195   8.603  0.1592 -0.9485  0.5432
 2854TIP3   OH230120   3.738   4.940   8.509  0.5267 -0.1005  0.1593
 2854TIP3    H130121   3.808   4.883   8.478  1.2991  1.0623 -0.3191
 2854TIP3    H230122   3.691   4.888   8.575  1.9666 -0.8213  0.6481
 2855TIP3   OH230123   0.399   2.564   6.781  0.3498  0.2005  0.4208
 2855TIP3    H130124   0.349   2.539   6.703  1.7650 -1.8767  0.0868
 2855TIP3    H230125   0.341   2.623   6.829 -1.0544  0.5540 -1.5857
 2856TIP3   OH230126   2.077   1.815   7.590  0.2218  0.2936  0.3434
 2856TIP3    H130127   2.088   1.737   7.536  0.4223  0.7848 -0.3463
 2856TIP3    H230128   2.026   1.875   7.534 -0.7190  0.3208  1.1982
 2857TIP3   OH230129   1.852   1.299   1.064 -0.1518  0.3800  0.0750
 2857TIP3    H130130   1.773   1.347   1.041  1.2064  2.8552  0.2430
 2857TIP3    H230131   1.895   1.354   1.130  0.2370 -2.3851  2.3073
 2858TIP3   OH230132   3.832   0.428   2.465 -0.0418  0.1149  0.1373
 2858TIP3    H130133   3.781   0.376   2.528  1.1078 -0.2188  0.8359
 2858TIP3    H230134   3.784   0.510   2.458 -1.4146 -0.6851 -0.2935
 2859TIP3   OH230135   3.799   6.738   8.395 -0.9666 -0.2878  0.3998
 2859TIP3    H130136   3.840   6.714   8.478  0.7371  1.7896  0.2520
 2859TIP3    H230137   3.854   6.697   8.328  0.4798  1.7596  0.2307
 2860TIP3   OH230138   5.268   1.101   7.635 -0.8243 -0.2623  0.2264
 2860TIP3    H130139   5.335   1.039   7.663 -2.2063 -1.2475  1.5151
 2860TIP3    H230140   5.223   1.056   7.563 -0.2381  0.3372 -0.5386
 2861TIP3   OH230141   0.133   0.759   7.242 -0.1502  0.6475  0.1659
 2861TIP3    H130142   0.073   0.728   7.175 -0.5668 -1.0924  1.2845
 2861TIP3    H230143   0.214   0.711   7.227 -0.4173 -0.1617  1.2028
 2862TIP3   OH230144   5.635   6.546   0.524  0.3701 -0.6204 -0.7733
 2862TIP3    H130145   5.590   6.554   0.440  0.8326  0.1383 -0.9568
 2862TIP3    H230146   5.662   6.635   0.545 -1.9534 -0.3366  1.4262
 2863TIP3   OH230147   4.731   3.085   7.563 -0.1058  0.2262 -0.1638
 2863TIP3    H130148   4.648   3.124   7.536  0.1208  1.0873  0.3655
 2863TIP3    H230149   4.749   3.123   7.649  0.1074 -1.0782  0.3897
 2864TIP3   OH230150   1.153   5.730   7.890  0.3251  0.1609  0.6409
 2864TIP3    H130151   1.093   5.796   7.855 -0.5350 -1.6139 -1.4403
 2864TIP3    H230152   1.123   5.716   7.980  0.7135  2.7034  1.2642
 2865TIP3   OH230153   0.693   0.544   0.710 -0.6881  0.1095 -0.3637
 2865TIP3    H130154   0.629   0.615   0.705  0.1072  0.8894  0.1687
 2865TIP3    H230155   0.674   0.500   0.793 -1.7415 -0.8788 -1.0985
 2866TIP3   OH230156   3.128   3.898   7.793  0.0980  0.4063  0.0020
 2866TIP3    H130157   3.132   3.991   7.813  0.4735  0.2677  0.5654
 2866TIP3    H230158   3.038   3.885   7.761 -0.7652  0.5233  2.1756
 2867TIP3   OH230159   1.434   2.209   2.340 -0.3948  0.1037  0.1039
 2867TIP3    H130160   1.483   2.157   2.404 -0.7952 -0.2989  0.0880
 2867TIP3    H230161   1.371   2.259   2.392  0.2708  0.9009  0.1597
 2868TIP3   OH230162   5.322   4.322   6.851 -0.3958  0.6396 -0.0103
 2868TIP3    H130163   5.260   4.327   6.779 -1.8010 -2.1057  0.8709
 2868TIP3    H230164   5.274   4.358   6.926 -0.5747 -0.5148  0.4475
 2869TIP3   OH230165   0.633   4.099   8.159 -0.0614  0.2855  0.4255
 2869TIP3    H130166   0.651   4.138   8.073 -1.9241 -0.1416 -0.2060
 2869TIP3    H230167   0.619   4.006   8.141 -3.3747  0.6159  0.6290
 2870TIP3   OH230168   5.516   1.159   7.213  1.5789 -0.5446 -0.4096
 2870TIP3    H130169   5.472   1.243   7.200  1.4495 -0.9787 -3.2905
 2870TIP3    H230170   5.606   1.182   7.234  0.9220  0.2848  1.8819
 2871TIP3   OH230171   3.621   4.428   7.784  0.6250 -0.1277 -0.3281
 2871TIP3    H130172   3.577   4.344   7.778 -0.3473  0.3340  0.1197
 2871TIP3    H230173   3.611   4.467   7.697  2.3420 -1.0445 -1.0032
 2872TIP3   OH230174   4.261   1.416   2.880  0.2181 -0.0289  0.3762
 2872TIP3    H130175   4.355   1.418   2.867 -0.1518  1.2249 -3.0473
 2872TIP3    H230176   4.240   1.498   2.924  0.7197 -0.4821  1.4898
 2873TIP3   OH230177   5.306   1.032   0.472 -0.0987 -0.3380  0.0870
 2873TIP3    H130178   5.308   1.075   0.387 -1.2595 -1.6619 -0.6631
 2873TIP3    H230179   5.350   1.093   0.532 -1.2826  1.6829 -0.9777
 2874TIP3   OH230180   5.148   3.578   0.721  0.4358  0.6980  0.1834
 2874TIP3    H130181   5.120   3.496   0.761  1.9876  0.0784  0.0745
 2874TIP3    H230182   5.230   3.600   0.766  0.7385  1.4805 -0.7108
 2875TIP3   OH230183   2.084   3.703   8.034  0.2822  0.8157 -0.2846
 2875TIP3    H130184   2.117   3.686   7.946  0.5921 -2.2156  0.3368
 2875TIP3    H230185   2.123   3.787   8.058  3.3884 -0.1497 -1.5544
 2876TIP3   OH230186   5.217   5.613   2.320  0.1239 -0.0637 -0.0557
 2876TIP3    H130187   5.146   5.677   2.328  1.1712  1.1423 -0.1376
 2876TIP3    H230188   5.255   5.608   2.407  0.0418 -0.5976 -0.0475
 2877TIP3   OH230189   0.027   0.335   8.553 -0.5380  0.0668  0.4010
 2877TIP3    H130190   0.036   0.266   8.487  0.3994  0.1093  0.4782
 2877TIP3    H230191   0.081   0.306   8.626 -2.3040 -0.4397  1.5714
 2878TIP3   OH230192   0.129   0.284   7.444  0.2520 -0.8747  0.0004
 2878TIP3    H130193   0.187   0.291   7.367 -0.7481 -0.1016 -0.7191
 2878TIP3    H230194   0.078   0.204   7.428 -0.9190  0.0053 -0.8720
 2879TIP3   OH230195   5.357   4.113   1.865  0.2234  0.0968 -0.0560
 2879TIP3    H130196   5.319   4.030   1.836  1.6098 -0.7860  0.5884
 2879TIP3    H230197   5.408   4.091   1.942  0.5866  1.5715  0.1643
 2880TIP3   OH230198   4.475   5.451   2.391  0.7688 -0.5818 -0.7351
 2880TIP3    H130199   4.514   5.382   2.444 -1.1122 -0.9611  0.2566
 2880TIP3    H230200   4.392   5.471   2.435 -1.3960 -1.5495 -3.9581
 2881TIP3   OH230201   5.187   1.198   0.281  0.2009 -0.4173 -0.1804
 2881TIP3    H130202   5.242   1.240   0.215  1.1415  1.0723  1.4673
 2881TIP3    H230203   5.099   1.200   0.243  0.9548 -1.1352 -2.0721
 2882TIP3   OH230204   6.653   3.348   0.240 -0.1764  0.4928  0.3965
 2882TIP3    H130205   6.677   3.440   0.230  0.5116  0.2155 -0.5576
 2882TIP3    H230206   6.698   3.320   0.320  1.1341  0.5001 -0.3196
 2883TIP3   OH230207   3.251   3.411   1.026  0.3159 -0.2732  0.3250
 2883TIP3    H130208   3.263   3.489   0.973  0.0932 -0.4290  0.0441
 2883TIP3    H230209   3.220   3.444   1.111 -0.0389 -0.0730  0.1215
 2884TIP3   OH230210   0.214   2.009   8.056  0.0087  0.6874  0.2171
 2884TIP3    H130211   0.145   2.048   8.109  0.5580  1.1273  0.6141
 2884TIP3    H230212   0.169   1.942   8.004 -0.3983 -0.3890  1.8806
 2885TIP3   OH230213   4.035   0.343   1.884 -0.4961  0.4088  0.5021
 2885TIP3    H130214   4.046   0.249   1.900  2.8031  0.8435  1.7463
 2885TIP3    H230215   3.980   0.374   1.956 -0.4244 -0.3725  0.9027
 2886TIP3   OH230216   0.050   6.472   1.617 -0.1883  0.6829  0.0920
 2886TIP3    H130217   0.079   6.443   1.703  1.6518  0.3486 -0.5963
 2886TIP3    H230218   0.113   6.540   1.592 -1.0224  1.1680 -0.7615
 2887TIP3   OH230219   2.180   4.708   2.945 -0.5598 -0.0111 -0.1806
 2887TIP3    H130220   2.088   4.721   2.922 -1.1081  0.9476  2.2985
 2887TIP3    H230221   2.219   4.796   2.941  0.1913 -0.3546 -0.8328
 2888TIP3   OH230222   3.458   3.269   0.713  0.5359 -0.0138  0.4664
 2888TIP3    H130223   3.467   3.356   0.751 -1.8095 -0.2016  1.5918
 2888TIP3    H230224   3.395   3.224   0.769  1.1394 -2.2146 -0.5065
 2889TIP3   OH230225   0.377   5.432   0.471 -0.2176 -0.0121 -0.1613
 2889TIP3    H130226   0.403   5.458   0.559  1.0653 -1.4805 -0.0558
 2889TIP3    H230227   0.375   5.337   0.474  0.0256 -0.0933 -1.7726
 2890TIP3   OH230228   1.935   3.540   1.505  0.1251  0.2886  0.5266
 2890TIP3    H130229   1.959   3.520   1.595  2.1154 -0.4388 -0.1092
 2890TIP3    H230230   1.891   3.461   1.473  0.2368  0.2041  0.5843
 2891TIP3   OH230231   6.545   3.471   1.325  0.1402 -0.4427  0.3529
 2891TIP3    H130232   6.519   3.530   1.255  0.6512  1.0693  1.3976
 2891TIP3    H230233   6.630   3.503   1.354 -0.6192 -0.1861  2.5358
 2892TIP3   OH230234   0.320   4.987   8.621  0.2769 -0.2464  0.0458
 2892TIP3    H130235   0.250   4.927   8.643 -0.5336 -0.0601 -1.8579
 2892TIP3    H230236   0.356   4.953   8.539 -0.6813  2.1864 -1.4867
 2893TIP3   OH230237   0.946   0.234   7.951 -0.0733 -0.2144  0.2870
 2893TIP3    H130238   0.967   0.318   7.991 -1.4384 -0.4981  1.7316
 2893TIP3    H230239   0.856   0.217   7.979  0.6837 -2.8962  1.3708
 2894TIP3   OH230240   3.236   1.213   2.054 -0.3858 -0.0900  0.4031
 2894TIP3    H130241   3.238   1.279   1.985  1.3961  0.4103  0.8796
 2894TIP3    H230242   3.307   1.238   2.113 -1.0067 -1.2661  1.7056
 2895TIP3   OH230243   2.239   3.059   2.054 -0.4659 -0.2727  0.5130
 2895TIP3    H130244   2.289   3.126   2.101 -0.1009  0.0074 -0.2488
 2895TIP3    H230245   2.193   3.010   2.122 -2.6112  2.2006  0.9954
 2896TIP3   OH230246   1.136   6.799   8.563 -0.0220  0.2719  0.2083
 2896TIP3    H130247   1.164   6.747   8.488 -2.0618 -0.2959 -0.2406
 2896TIP3    H230248   1.065   6.854   8.529  1.0503  2.2551  1.0393
 2897TIP3   OH230249   6.335   0.672   2.110 -0.6499 -0.6081 -0.5014
 2897TIP3    H130250   6.277   0.599   2.090 -0.6137  0.0671 -3.4827
 2897TIP3    H230251   6.303   0.744   2.056  2.8226 -0.1887 -2.3295
 2898TIP3   OH230252   2.387   6.616   7.185  0.3902  0.3052  0.1920
 2898TIP3    H130253   2.465   6.663   7.155  0.8217 -0.0644  0.7184
 2898TIP3    H230254   2.367   6.656   7.270  0.3603 -0.0020  0.3312
 2899TIP3   OH230255   0.377   6.099   0.630 -0.2688 -0.2472 -0.2098
 2899TIP3    H130256   0.325   6.173   0.661  1.7724  1.1301  0.0888
 2899TIP3    H230257   0.315   6.026   0.629 -2.0778  1.1832  0.5677
 2900TIP3   OH230258   5.741   4.437   1.470 -0.2443  0.0449  0.3432
 2900TIP3    H130259   5.655   4.444   1.428 -0.6658  0.8990  1.2867
 2900TIP3    H230260   5.797   4.398   1.404 -1.1708  0.2271 -0.5812
 2901TIP3   OH230261   6.354   6.102   7.702  0.1249  0.5361  0.5992
 2901TIP3    H130262   6.356   6.044   7.779  1.6736 -1.3716 -0.7585
 2901TIP3    H230263   6.294   6.060   7.642  0.1329  1.1503  0.1526
 2902TIP3   OH230264   4.297   5.380   8.625 -0.1841 -0.2191 -0.3923
 2902TIP3    H130265   4.224   5.323   8.600 -1.1141  1.5405 -1.9011
 2902TIP3    H230266   4.264   5.469   8.611  1.9262  0.6570 -0.1313
 2903TIP3   OH230267   4.375   4.803   6.860  0.2495 -0.3702  0.1877
 2903TIP3    H130268   4.414   4.840   6.939  0.3129 -1.6259  0.7717
 2903TIP3    H230269   4.299   4.754   6.893  0.1463 -0.7195 -0.5682
 2904TIP3   OH230270   4.255   6.393   1.765 -0.2985  0.2799 -0.2050
 2904TIP3    H130271   4.250   6.319   1.705 -0.0597  1.0863 -1.2315
 2904TIP3    H230272   4.333   6.441   1.738 -1.1546  1.6143 -0.3799
 2905TIP3   OH230273   1.108   5.109   1.568  0.2936  0.4993  0.0952
 2905TIP3    H130274   1.052   5.045   1.611 -0.3695  0.9290 -0.1157
 2905TIP3    H230275   1.179   5.058   1.530 -0.6275 -0.1998 -0.7178
 2906TIP3   OH230276   5.747   6.733   8.451  0.3361  0.2055  0.8023
 2906TIP3    H130277   5.719   6.803   8.391  1.1475  0.7806  1.0853
 2906TIP3    H230278   5.840   6.750   8.466  0.1622  0.0431  2.1885
 2907TIP3   OH230279   2.815   6.254   0.459  0.0538  0.0352  0.1744
 2907TIP3    H130280   2.817   6.242   0.364 -0.8624 -2.9018  0.4188
 2907TIP3    H230281   2.743   6.199   0.489 -0.2619  1.5770  2.5450
 2908TIP3   OH230282   2.209   4.435   1.228  0.0282  0.2180  0.3289
 2908TIP3    H130283   2.259   4.443   1.146  2.2221  1.0445  1.6416
 2908TIP3    H230284   2.157   4.516   1.232  1.3961  1.1232  0.6147
 2909TIP3   OH230285   5.721   1.248   1.202  0.3330 -0.6425  0.1667
 2909TIP3    H130286   5.720   1.259   1.107 -0.1251  1.1922  0.3370
 2909TIP3    H230287   5.772   1.323   1.234  0.2844 -1.1077  1.3847
 2910TIP3   OH230288   3.964   6.002   1.564  0.3414  0.4335 -0.2680
 2910TIP3    H130289   3.914   6.004   1.646 -0.1252 -0.1669 -0.5308
 2910TIP3    H230290   3.994   5.912   1.557 -0.4025  0.2404 -1.2123
 2911TIP3   OH230291   0.191   6.302   6.760 -0.2661  0.1141 -0.1089
 2911TIP3    H130292   0.132   6.370   6.794  0.3208  0.0283  1.1430
 2911TIP3    H230293   0.145   6.266   6.684 -1.9677 -0.1573  1.0037
 2912TIP3   OH230294   5.567   5.943   0.765 -0.0981 -0.2330  0.5376
 2912TIP3    H130295   5.648   5.904   0.731 -0.7338  0.3354 -1.8804
 2912TIP3    H230296   5.590   6.034   0.781  0.0627 -0.3784  1.1652
 2913TIP3   OH230297   2.041   6.646   0.993 -0.2621  0.4203 -0.0784
 2913TIP3    H130298   2.046   6.643   1.088  0.1457  1.0954 -0.0779
 2913TIP3    H230299   1.951   6.619   0.973 -0.4325  0.5514  0.5086
 2914TIP3   OH230300   2.862   0.457   8.202  0.1082 -0.2224 -0.3792
 2914TIP3    H130301   2.854   0.363   8.219  0.7541 -0.4342 -1.1680
 2914TIP3    H230302   2.948   0.466   8.160 -0.5926  0.4980 -1.7226
 2915TIP3   OH230303   0.603   0.380   8.122  0.2221 -0.6974 -0.1776
 2915TIP3    H130304   0.624   0.438   8.049 -3.4497  1.2777  0.1184
 2915TIP3    H230305   0.633   0.427   8.200  1.3490 -1.3731 -0.1862
 2916TIP3   OH230306   6.210   5.938   8.482  0.2646  0.3562 -0.4587
 2916TIP3    H130307   6.198   5.991   8.561  0.5768 -0.8975  0.4605
 2916TIP3    H230308   6.298   5.902   8.491  0.0076 -0.4240 -1.0005
 2917TIP3   OH230309   3.561   1.581   1.950 -0.3769  0.1354 -0.3941
 2917TIP3    H130310   3.496   1.631   1.999  0.7939  2.2878 -0.9006
 2917TIP3    H230311   3.645   1.606   1.989  0.1850 -3.2649  0.8499
 2918TIP3   OH230312   3.495   0.295   0.212  0.4270 -0.6007  0.4805
 2918TIP3    H130313   3.509   0.259   0.300 -1.7045 -1.3676  0.5683
 2918TIP3    H230314   3.440   0.372   0.227 -0.7202 -1.2609 -0.2196
 2919TIP3   OH230315   1.551   1.561   0.749  0.1544  0.2471  0.0655
 2919TIP3    H130316   1.546   1.475   0.706 -0.0835 -0.3142  1.1529
 2919TIP3    H230317   1.644   1.576   0.763  0.1657 -0.1902  0.5141
 2920TIP3   OH230318   3.737   0.582   0.257  0.2062 -0.0253  0.2427
 2920TIP3    H130319   3.718   0.502   0.208  0.2847 -0.6761  1.2456
 2920TIP3    H230320   3.829   0.572   0.284  0.3805  0.6535 -0.0785
 2921TIP3   OH230321   5.559   3.508   8.470 -0.0963 -0.2496  0.6687
 2921TIP3    H130322   5.651   3.491   8.451 -0.4163 -0.7272 -0.5646
 2921TIP3    H230323   5.511   3.461   8.401 -1.4084 -2.5549  2.9632
 2922TIP3   OH230324   5.595   5.660   8.437  0.0596 -0.0965  0.0112
 2922TIP3    H130325   5.530   5.619   8.380  0.6950 -0.3225 -0.5789
 2922TIP3    H230326   5.625   5.589   8.494 -1.2436  0.3442  1.2804
 2923TIP3   OH230327   6.471   1.034   7.430 -0.1604  0.2961 -0.4942
 2923TIP3    H130328   6.502   0.946   7.452 -0.0494  0.1772 -1.1228
 2923TIP3    H230329   6.390   1.019   7.381 -0.7986  0.5815  0.4552
 2924TIP3   OH230330   0.168   4.667   1.915  0.0044  0.2753  0.4281
 2924TIP3    H130331   0.096   4.666   1.852 -0.2523 -0.4330  0.7254
 2924TIP3    H230332   0.125   4.682   2.000  0.4359  2.3029  0.3504
 2925TIP3   OH230333   4.941   2.908   0.388 -0.0820 -0.1602 -0.0050
 2925TIP3    H130334   4.896   2.913   0.304 -0.0444 -0.0763 -0.0203
 2925TIP3    H230335   4.987   2.824   0.385  3.3116  1.5576 -1.8052
 2926TIP3   OH230336   1.941   0.090   0.295 -0.2479  0.3185 -0.5550
 2926TIP3    H130337   1.854   0.112   0.262 -1.5726 -1.4728  1.5074
 2926TIP3    H230338   1.996   0.089   0.217 -2.5061 -0.4960 -2.2506
 2927TIP3   OH230339   3.411   0.135   0.771  0.5011 -0.1828 -0.1431
 2927TIP3    H130340   3.392   0.225   0.747 -1.9150 -0.8299 -0.9336
 2927TIP3    H230341   3.378   0.127   0.860 -2.3850 -1.0334 -1.1637
 2928TIP3   OH230342   5.253   0.034   1.433 -0.2370  0.1287  0.0063
 2928TIP3    H130343   5.288   0.045   1.521 -1.1788 -0.3955  0.4670
 2928TIP3    H230344   5.159   0.048   1.443 -0.2332  1.1780 -1.1251
 2929TIP3   OH230345   6.257   5.489   7.749 -0.1846  0.4065  0.1200
 2929TIP3    H130346   6.311   5.544   7.692  2.9622 -2.5206 -0.0286
 2929TIP3    H230347   6.319   5.434   7.796 -3.0018 -1.8019  1.6074
 2930TIP3   OH230348   1.145   2.179   8.238  0.2923  0.0625  0.0594
 2930TIP3    H130349   1.186   2.232   8.170 -0.4087 -1.4780 -1.6288
 2930TIP3    H230350   1.059   2.155   8.202 -0.0980 -0.8170  1.4835
 2931TIP3   OH230351   3.276   6.475   1.430  0.2142  0.3408  0.4408
 2931TIP3    H130352   3.192   6.433   1.446  0.1908  0.3052  0.2299
 2931TIP3    H230353   3.337   6.402   1.416 -0.4553  0.3025 -3.2955
 2932TIP3   OH230354   4.187   6.533   1.418 -0.4614  0.2186 -0.4496
 2932TIP3    H130355   4.273   6.532   1.461 -0.0723 -0.4273 -1.2114
 2932TIP3    H230356   4.130   6.580   1.479  0.1440 -0.3872  0.6128
 2933TIP3   OH230357   3.203   4.824   2.779 -0.2697  0.8794 -0.3424
 2933TIP3    H130358   3.226   4.901   2.831 -0.8811  0.9231 -0.1260
 2933TIP3    H230359   3.111   4.839   2.754 -0.7665 -0.3288  0.6825
 2934TIP3   OH230360   0.126   4.115   0.332  0.3334 -0.4228 -0.6273
 2934TIP3    H130361   0.147   4.135   0.240  2.0440 -0.6782 -0.3373
 2934TIP3    H230362   0.031   4.108   0.334  0.2915 -1.0100 -2.5057
 2935TIP3   OH230363   0.342   5.730   0.313 -0.2070 -0.3928  0.7705
 2935TIP3    H130364   0.400   5.655   0.299 -0.7328 -0.6344 -0.2192
 2935TIP3    H230365   0.381   5.777   0.387  1.0031 -0.7936  0.4123
 2936TIP3   OH230366   1.086   3.958   7.801 -0.5856  0.8112 -0.8861
 2936TIP3    H130367   1.046   3.970   7.887 -0.1111  0.9534 -0.6850
 2936TIP3    H230368   1.133   3.875   7.808 -0.8456  0.6409 -1.1245
 2937TIP3   OH230369   5.135   5.390   0.415 -0.2732 -0.2885  0.5180
 2937TIP3    H130370   5.130   5.385   0.510 -0.0886  0.2595  0.5617
 2937TIP3    H230371   5.219   5.432   0.398 -0.9206  0.8870  0.1622
 2938TIP3   OH230372   1.401   4.537   6.724 -0.4185  0.6592  0.2223
 2938TIP3    H130373   1.382   4.627   6.698 -1.9263  0.2468 -0.2113
 2938TIP3    H230374   1.480   4.514   6.675 -0.9841  1.1909 -0.9882
 2939TIP3   OH230375   5.696   2.599   1.099  0.2382  1.0296  0.1317
 2939TIP3    H130376   5.648   2.629   1.021 -1.0778  0.0704  0.5421
 2939TIP3    H230377   5.788   2.613   1.076  0.0212 -0.8591 -2.3352
 2940TIP3   OH230378   4.420   0.169   7.477  0.0827 -0.2856 -0.3148
 2940TIP3    H130379   4.397   0.076   7.478 -1.3279  0.0448 -0.4545
 2940TIP3    H230380   4.514   0.170   7.460  0.4794 -1.7477  1.4257
 2941TIP3   OH230381   1.544   6.311   2.095  0.2448  0.6900  0.2076
 2941TIP3    H130382   1.584   6.254   2.161 -1.6206  0.6019  1.3520
 2941TIP3    H230383   1.479   6.256   2.052 -0.0591  1.3509 -0.1932
 2942TIP3   OH230384   5.871   0.297   7.614  0.1132 -0.3274 -0.0750
 2942TIP3    H130385   5.826   0.213   7.619  1.1836 -1.2385 -3.1293
 2942TIP3    H230386   5.808   0.357   7.573  0.0278 -0.1847  0.2595
 2943TIP3   OH230387   2.875   3.890   0.397 -0.0014 -0.0566  0.3350
 2943TIP3    H130388   2.851   3.831   0.326 -3.2052 -1.2165  2.1962
 2943TIP3    H230389   2.837   3.851   0.476  1.4380  2.3280  2.3912
 2944TIP3   OH230390   5.332   4.280   7.862  0.1826 -0.4807  0.1047
 2944TIP3    H130391   5.377   4.232   7.931 -0.4119 -4.1432 -1.7930
 2944TIP3    H230392   5.401   4.309   7.803  0.4244 -1.0262  0.1188
 2945TIP3   OH230393   6.161   4.353   7.834  0.2887  0.3332  0.1740
 2945TIP3    H130394   6.173   4.310   7.918  2.9025 -1.2172 -0.8642
 2945TIP3    H230395   6.194   4.441   7.847  1.5800 -0.1899  0.5538
 2946TIP3   OH230396   6.393   6.163   6.942 -0.1735 -0.0522 -0.0629
 2946TIP3    H130397   6.412   6.069   6.934 -1.2931 -0.3616  0.6578
 2946TIP3    H230398   6.473   6.206   6.911 -0.0532 -1.2212 -1.5322
 2947TIP3   OH230399   3.011   3.299   0.403  0.5910  0.5624 -0.1309
 2947TIP3    H130400   2.995   3.370   0.466  0.1060  0.7880 -0.5050
 2947TIP3    H230401   3.054   3.231   0.455  1.1721  1.1721  0.2104
 2948TIP3   OH230402   5.143   5.101   1.133  0.3431 -0.2471 -0.2140
 2948TIP3    H130403   5.165   5.194   1.135 -0.0842 -0.1368 -0.3662
 2948TIP3    H230404   5.225   5.056   1.150  0.2506  0.1975  1.5653
 2949TIP3   OH230405   0.463   1.709   1.723 -0.1450 -0.3131  0.1788
 2949TIP3    H130406   0.434   1.719   1.632 -1.5361 -1.0063  0.5192
 2949TIP3    H230407   0.433   1.788   1.767  2.5001  1.1239 -0.3769
 2950TIP3   OH230408   0.459   2.397   1.158 -0.3551 -0.0666 -0.1434
 2950TIP3    H130409   0.450   2.470   1.098  0.8316 -0.0228 -0.2939
 2950TIP3    H230410   0.386   2.407   1.219 -1.0429  0.4033 -1.0189
 2951TIP3   OH230411   1.676   4.609   7.022 -0.2806  0.1242  0.4532
 2951TIP3    H130412   1.647   4.656   6.944 -0.1526 -0.4960  0.0243
 2951TIP3    H230413   1.628   4.526   7.019 -0.4613  0.1982  1.1670
 2952TIP3   OH230414   1.425   0.670   8.372 -0.1727  0.4042  0.3773
 2952TIP3    H130415   1.368   0.728   8.423 -0.4817  2.3372 -1.9589
 2952TIP3    H230416   1.483   0.730   8.324  1.3801 -1.3878 -0.0734
 2953TIP3   OH230417   0.928   4.581   0.286 -0.3386 -0.0906  0.4122
 2953TIP3    H130418   0.978   4.662   0.291  1.1831 -0.9743  0.3350
 2953TIP3    H230419   0.870   4.583   0.362  0.4844  0.5707  1.0388
 2954TIP3   OH230420   2.546   5.494   2.114 -0.3161 -0.0036 -0.2307
 2954TIP3    H130421   2.605   5.421   2.097  0.2796  0.2958  0.5097
 2954TIP3    H230422   2.462   5.466   2.076  0.4001 -0.2249 -1.7563
 2955TIP3   OH230423   2.661   2.643   8.398 -0.1921 -0.4500  0.4732
 2955TIP3    H130424   2.696   2.670   8.483 -0.4783  1.9361 -0.0727
 2955TIP3    H230425   2.575   2.685   8.394 -1.1827 -2.4219 -0.0991
 2956TIP3   OH230426   0.058   5.206   8.090  0.0227 -0.8462 -0.2662
 2956TIP3    H130427   0.136   5.172   8.046  0.9501  0.2209  0.5252
 2956TIP3    H230428   0.070   5.300   8.093 -0.9507 -0.7266  0.5444
 2957TIP3   OH230429   1.354   6.035   8.310 -0.5204 -0.3635 -0.4140
 2957TIP3    H130430   1.348   6.126   8.282 -1.0678 -0.1828  0.2612
 2957TIP3    H230431   1.429   6.000   8.262  0.4262  0.7602  0.1947
 2958TIP3   OH230432   0.896   2.867   2.085  0.4677 -0.3865  0.4201
 2958TIP3    H130433   0.983   2.831   2.100 -0.6396 -2.9005  1.3955
 2958TIP3    H230434   0.859   2.878   2.173 -0.0592  1.0761  0.0394
 2959TIP3   OH230435   5.315   5.887   0.165  0.1206 -0.0235 -0.6693
 2959TIP3    H130436   5.388   5.877   0.226  0.0802 -1.0370 -0.7597
 2959TIP3    H230437   5.352   5.866   0.079 -0.1145  0.1341 -0.8112
 2960TIP3   OH230438   2.401   5.133   0.596 -0.0458 -0.5447  0.1919
 2960TIP3    H130439   2.324   5.079   0.581 -0.0411 -0.5318  0.1206
 2960TIP3    H230440   2.471   5.088   0.549 -0.1565 -0.1875 -0.3190
 2961TIP3   OH230441   0.306   5.223   8.736  0.7373 -0.0505  0.0585
 2961TIP3    H130442   0.308   5.141   8.687 -0.8912  1.0596 -2.0696
 2961TIP3    H230443   0.264   5.200   8.819  1.5617 -1.6030  0.0814
 2962TIP3   OH230444   6.462   4.414   0.813 -0.4781 -0.0924 -0.0515
 2962TIP3    H130445   6.543   4.427   0.863 -0.0163  0.5511 -0.9270
 2962TIP3    H230446   6.392   4.442   0.872  0.0106  0.1152  0.4357
 2963TIP3   OH230447   3.899   1.194   8.666  0.6824  0.2656  0.7348
 2963TIP3    H130448   3.878   1.228   8.579 -1.8987 -2.0172  0.3166
 2963TIP3    H230449   3.936   1.107   8.650  1.4944  0.3804  1.8861
 2964TIP3   OH230450   1.193   0.117   2.523  0.4118  0.5477 -0.0535
 2964TIP3    H130451   1.178   0.051   2.591 -0.4355  0.4830 -0.3008
 2964TIP3    H230452   1.275   0.089   2.481 -0.9108 -1.5057 -1.4710
 2965TIP3   OH230453   0.623   0.539   7.863  1.0402  0.0107  0.3532
 2965TIP3    H130454   0.611   0.530   7.768  1.3194  3.6061 -0.1819
 2965TIP3    H230455   0.718   0.540   7.875  1.0442 -2.3805  1.0364
 2966TIP3   OH230456   1.930   2.083   6.981 -0.0300  0.1602 -0.2646
 2966TIP3    H130457   1.963   2.061   6.894  2.4971  0.7850  0.4510
 2966TIP3    H230458   1.890   2.169   6.971 -1.8132 -0.7240 -1.2118
 2967TIP3   OH230459   2.843   0.287   2.323 -0.2765  0.3888 -0.2693
 2967TIP3    H130460   2.850   0.206   2.373 -1.5534  0.4428  0.0283
 2967TIP3    H230461   2.878   0.354   2.380 -0.3456  0.2246 -0.0338
 2968TIP3   OH230462   0.085   4.232   0.079 -0.1526 -0.4366 -0.2648
 2968TIP3    H130463   0.099   4.303   0.017 -0.4575 -0.5971 -0.5197
 2968TIP3    H230464  -0.008   4.212   0.073 -0.0764 -0.8423 -0.1825
 2969TIP3   OH230465   2.026   2.424   0.401  0.3481  0.0614 -0.0839
 2969TIP3    H130466   2.045   2.516   0.419 -0.5656  0.4660 -1.1230
 2969TIP3    H230467   2.030   2.382   0.487  0.8183  1.0488  0.3971
 2970TIP3   OH230468   3.489   5.100   8.016  0.0228 -0.2186  0.4639
 2970TIP3    H130469   3.542   5.179   8.017 -1.3172  0.7018  1.3572
 2970TIP3    H230470   3.540   5.038   7.964 -0.0076  2.0068 -2.4927
 2971TIP3   OH230471   3.839   3.277   1.161  0.4773  0.6522 -0.3271
 2971TIP3    H130472   3.882   3.352   1.119 -0.3244  0.2766 -1.8691
 2971TIP3    H230473   3.881   3.201   1.122 -0.4198  0.2974 -0.6279
 2972TIP3   OH230474   6.458   6.096   8.183 -0.0179  0.0228 -0.1780
 2972TIP3    H130475   6.528   6.045   8.223 -0.9528 -1.7090 -0.6535
 2972TIP3    H230476   6.429   6.156   8.252 -0.7793 -2.0431  1.4086
 2973TIP3   OH230477   4.107   5.784   8.764 -0.1261 -0.2810  0.3483
 2973TIP3    H130478   4.039   5.726   8.798  0.0983 -0.0043  1.3022
 2973TIP3    H230479   4.137   5.832   8.840  1.0502 -0.3012 -0.0857
 2974TIP3   OH230480   3.881   1.690   2.990  0.5850 -0.4640 -0.3063
 2974TIP3    H130481   3.946   1.757   2.970  1.6090 -1.0101  1.0773
 2974TIP3    H230482   3.815   1.699   2.921 -0.1123  2.9340  0.6221
 2975TIP3   OH230483   6.494   5.400   1.358  0.1452 -0.4289  0.0031
 2975TIP3    H130484   6.540   5.364   1.434  1.1595 -0.3332 -0.5481
 2975TIP3    H230485   6.490   5.327   1.296  0.4996 -0.1430 -0.3614
 2976TIP3   OH230486   6.419   1.816   8.221  0.1815  0.1015 -0.6636
 2976TIP3    H130487   6.401   1.821   8.128  3.1093 -1.8654 -1.4823
 2976TIP3    H230488   6.441   1.905   8.246 -1.8421  0.8867 -1.4980
 2977TIP3   OH230489   1.395   4.008   0.648  0.8534  0.3320 -0.6532
 2977TIP3    H130490   1.327   4.003   0.581 -0.7569 -0.9481  0.9488
 2977TIP3    H230491   1.462   3.946   0.619  0.4939  0.2870 -1.4173
 2978TIP3   OH230492   6.503   2.580   1.500  0.2676 -0.4592  0.0981
 2978TIP3    H130493   6.466   2.662   1.533 -1.4041 -0.3123 -1.9473
 2978TIP3    H230494   6.480   2.515   1.567  0.3258  0.4734  1.0445
 2979TIP3   OH230495   6.399   3.876   7.411  0.4441 -0.4700  0.0868
 2979TIP3    H130496   6.483   3.920   7.403  0.3339 -0.4430 -1.2765
 2979TIP3    H230497   6.363   3.906   7.494  2.3470 -1.5324  1.3494
 2980TIP3   OH230498   5.739   6.224   8.311 -0.0239 -0.3491  0.1079
 2980TIP3    H130499   5.716   6.132   8.324  2.2063 -1.3404 -2.2088
 2980TIP3    H230500   5.798   6.244   8.384 -1.1238 -0.4574  1.0637
 2981TIP3   OH230501   3.891   0.866   1.597  0.0233 -0.5379 -0.8452
 2981TIP3    H130502   3.883   0.833   1.686 -0.3628  0.4412 -0.5057
 2981TIP3    H230503   3.975   0.831   1.566  0.1848 -0.8397 -0.0791
 2982TIP3   OH230504   4.285   3.187   2.380  0.2394  0.0525 -0.7587
 2982TIP3    H130505   4.232   3.267   2.378 -0.3198 -0.3163 -2.4807
 2982TIP3    H230506   4.308   3.175   2.472 -1.2426  1.1757 -0.2142
 2983TIP3   OH230507   3.202   3.571   1.334  0.1798 -0.1397 -0.3804
 2983TIP3    H130508   3.156   3.487   1.334  1.3598 -0.8536 -2.1283
 2983TIP3    H230509   3.159   3.622   1.402 -2.1441 -1.3064 -0.8804
 2984TIP3   OH230510   0.405   1.697   2.006  0.0758 -0.1523  0.3555
 2984TIP3    H130511   0.362   1.759   2.064 -1.3699  0.4562 -1.2575
 2984TIP3    H230512   0.464   1.751   1.953  0.7790 -0.5709  0.7011
 2985TIP3   OH230513   4.361   6.711   0.894  0.1753  0.1503  0.3201
 2985TIP3    H130514   4.457   6.710   0.892  0.1896  0.5309  0.6515
 2985TIP3    H230515   4.336   6.759   0.815  0.2062 -1.2379 -0.5804
 2986TIP3   OH230516   2.837   3.924   8.050 -0.3234  0.4356  0.1071
 2986TIP3    H130517   2.749   3.958   8.071 -0.4520  0.5407 -0.5602
 2986TIP3    H230518   2.825   3.829   8.045  0.1628  0.1708  2.5761
 2987TIP3   OH230519   1.199   1.950   8.595  0.0893 -0.1716 -0.2235
 2987TIP3    H130520   1.234   1.965   8.684  0.6621  1.3058 -0.6638
 2987TIP3    H230521   1.270   1.904   8.550  0.5885  0.7671 -0.4390
 2988TIP3   OH230522   5.470   0.902   7.683 -0.1449 -0.3400  0.4879
 2988TIP3    H130523   5.403   0.837   7.665 -0.3969 -0.3034  1.2395
 2988TIP3    H230524   5.549   0.868   7.641 -0.7675 -0.0903 -0.9099
 2989TIP3   OH230525   5.172   5.156   8.532  0.6947  0.9019  0.3802
 2989TIP3    H130526   5.255   5.193   8.501  1.4273  0.6326  1.9028
 2989TIP3    H230527   5.111   5.170   8.460  1.7532  2.1946 -0.3137
 2990TIP3   OH230528   6.134   5.857   2.186 -0.4154  0.1061  0.6336
 2990TIP3    H130529   6.133   5.841   2.280  1.6679 -1.2991  0.4843
 2990TIP3    H230530   6.180   5.940   2.175 -0.2220  0.0260  0.8390
 2991TIP3   OH230531   2.321   1.421   7.780  0.2863  0.2488  0.0802
 2991TIP3    H130532   2.243   1.366   7.788  0.7704 -0.4272  0.2190
 2991TIP3    H230533   2.291   1.510   7.800 -0.3423 -0.0822  0.5952
 2992TIP3   OH230534   4.624   6.767   1.138 -0.3312 -0.5977 -0.1785
 2992TIP3    H130535   4.706   6.816   1.144 -1.5939  1.8333 -1.2911
 2992TIP3    H230536   4.558   6.827   1.172 -1.9262 -1.6670 -1.2634
 2993TIP3   OH230537   1.569   2.667   2.842  0.7491  0.0846  0.2369
 2993TIP3    H130538   1.526   2.732   2.786  0.5943  0.4383  0.7638
 2993TIP3    H230539   1.661   2.692   2.842  0.5709  0.7978  1.0879
 2994TIP3   OH230540   2.156   6.286   1.200  0.4541 -0.2497  0.2836
 2994TIP3    H130541   2.076   6.274   1.149  0.9983  0.7646 -0.8575
 2994TIP3    H230542   2.134   6.253   1.287 -1.2685  0.2129  0.0599
 2995TIP3   OH230543   5.753   0.035   7.667 -0.5278  0.8902  0.0774
 2995TIP3    H130544   5.669   0.018   7.625 -0.0780  1.0343 -0.8980
 2995TIP3    H230545   5.739   0.010   7.758 -1.6659  1.0337 -0.0387
 2996TIP3   OH230546   6.562   5.009   8.318  0.1577  0.2525 -0.0624
 2996TIP3    H130547   6.619   4.937   8.292 -1.2457 -0.3957 -1.5405
 2996TIP3    H230548   6.537   4.989   8.408  1.7986  0.2968  0.4397
 2997TIP3   OH230549   4.957   5.366   8.717 -0.6865  0.3921 -0.3242
 2997TIP3    H130550   5.019   5.437   8.730  0.2978 -0.5983  0.5715
 2997TIP3    H230551   4.875   5.410   8.692 -0.5464  1.9687  1.6722
 2998TIP3   OH230552   1.991   0.833   0.623  0.6554 -0.0001  0.1090
 2998TIP3    H130553   1.967   0.812   0.533  0.7364 -0.4739  0.1953
 2998TIP3    H230554   2.025   0.923   0.618  1.3239 -0.2756 -0.4583
 2999TIP3   OH230555   0.752   2.167   0.676  0.7313 -0.4113  0.3757
 2999TIP3    H130556   0.672   2.193   0.631  0.4852 -0.3444  0.8459
 2999TIP3    H230557   0.785   2.248   0.715  1.4382 -0.2888 -0.4413
 3000TIP3   OH230558   6.536   2.347   0.011 -0.0095  0.6215 -0.6512
 3000TIP3    H130559   6.579   2.338   0.097 -3.4858  1.6314  1.3981
 3000TIP3    H230560   6.497   2.261  -0.005 -0.8995  0.9247 -0.2242
 3001TIP3   OH230561   4.963   4.291   1.347 -0.1579  0.1808  0.4033
 3001TIP3    H130562   4.911   4.220   1.310  0.7351  1.0210 -2.8325
 3001TIP3    H230563   5.049   4.281   1.305  0.3320  2.4882  0.7491
 3002TIP3   OH230564   4.401   2.661   2.666 -0.8544 -0.0222 -0.1372
 3002TIP3    H130565   4.328   2.599   2.664  0.9636 -2.2734 -1.4812
 3002TIP3    H230566   4.463   2.624   2.728  0.1908  0.5568 -0.8091
 3003TIP3   OH230567   2.078   4.476   0.122 -0.4440  0.1004 -0.0538
 3003TIP3    H130568   1.988   4.474   0.153  0.1711 -0.5715  1.8537
 3003TIP3    H230569   2.084   4.557   0.070 -1.6141  1.2556  1.5094
 3004TIP3   OH230570   5.191   3.935   0.819 -0.3307  0.4112 -0.6475
 3004TIP3    H130571   5.275   3.961   0.856 -1.9222  2.4741  1.8738
 3004TIP3    H230572   5.154   3.875   0.884 -1.4670  0.7933 -0.9232
 3005TIP3   OH230573   5.036   2.957   7.039 -0.2829 -0.1489 -0.3180
 3005TIP3    H130574   5.112   2.989   7.089  1.0434 -0.2863 -2.1340
 3005TIP3    H230575   5.026   2.866   7.066 -1.1587  0.4324  1.4693
 3006TIP3   OH230576   3.580   1.809   0.425 -0.3508  0.2479  0.0650
 3006TIP3    H130577   3.636   1.733   0.441 -0.5312 -0.5784 -2.6659
 3006TIP3    H230578   3.642   1.881   0.409 -0.0571 -0.3153 -1.4519
 3007TIP3   OH230579   2.781   5.912   7.711  0.1401  0.2318 -0.3008
 3007TIP3    H130580   2.771   5.863   7.629 -2.1989  1.9884 -1.1544
 3007TIP3    H230581   2.796   5.844   7.777 -2.0127 -1.6164 -1.5653
 3008TIP3   OH230582   3.492   3.756   1.703 -0.3723 -0.5617 -0.1576
 3008TIP3    H130583   3.450   3.673   1.678 -2.3070 -0.4237  2.1772
 3008TIP3    H230584   3.507   3.747   1.797  2.5602  0.4912 -0.4179
 3009TIP3   OH230585   0.071   3.621   0.870 -0.1686  0.6392  0.1370
 3009TIP3    H130586   0.081   3.556   0.801 -1.1152  1.6063 -0.9533
 3009TIP3    H230587   0.159   3.658   0.881 -0.0755  0.7405 -0.8393
 3010TIP3   OH230588   4.783   0.802   7.437  0.4008  0.0647 -0.3969
 3010TIP3    H130589   4.697   0.843   7.442  0.3556  0.2397 -2.1165
 3010TIP3    H230590   4.782   0.754   7.355  0.5450 -3.2217  1.3436
 3011TIP3   OH230591   0.917   3.507   7.142  0.3348  0.0059  0.1843
 3011TIP3    H130592   0.842   3.490   7.085 -0.0328  0.7437  0.4471
 3011TIP3    H230593   0.973   3.566   7.092  0.8949 -0.7597 -0.1258
 3012TIP3   OH230594   4.173   4.702   7.653 -0.7835 -0.2956 -0.3450
 3012TIP3    H130595   4.177   4.790   7.617  0.9401 -0.3075 -0.2685
 3012TIP3    H230596   4.200   4.712   7.744  0.3203 -0.9954 -0.5697
 3013TIP3   OH230597   2.136   5.782   8.549 -0.4872  0.1156  0.6052
 3013TIP3    H130598   2.213   5.763   8.495 -0.0297 -0.5542  1.4846
 3013TIP3    H230599   2.107   5.696   8.580 -0.5027  0.5349  1.7636
 3014TIP3   OH230600   0.417   5.410   7.025 -0.2886 -0.4151  0.6331
 3014TIP3    H130601   0.332   5.452   7.009  0.4241  0.0298 -2.5986
 3014TIP3    H230602   0.410   5.325   6.982  0.8707 -0.3834  0.3657
 3015TIP3   OH230603   5.790   6.530   2.413  0.4014  0.3727 -0.1601
 3015TIP3    H130604   5.757   6.488   2.493 -0.4797 -0.7232 -1.0776
 3015TIP3    H230605   5.711   6.558   2.366  0.8921  0.5146 -0.9149
 3016TIP3   OH230606   2.471   0.996   8.305 -0.5218 -0.8401 -0.0769
 3016TIP3    H130607   2.411   1.068   8.285  0.8354  0.2903 -0.2011
 3016TIP3    H230608   2.558   1.030   8.283  0.1357 -2.5845 -0.2967
 3017TIP3   OH230609   5.668   0.763   7.171 -0.0505 -0.2711 -0.3326
 3017TIP3    H130610   5.727   0.832   7.141 -0.2457  0.5097  0.9918
 3017TIP3    H230611   5.680   0.761   7.266 -0.9955 -1.1913 -0.2137
 3018TIP3   OH230612   0.222   4.459   7.447 -0.1143  0.0117  0.2232
 3018TIP3    H130613   0.185   4.418   7.368  1.8099 -0.5099 -0.4463
 3018TIP3    H230614   0.256   4.543   7.417 -1.1284  0.6991  0.9342
 3019TIP3   OH230615   1.100   1.662   2.129 -0.1865  0.2879  0.0785
 3019TIP3    H130616   1.186   1.651   2.170  0.2118  0.1288 -0.7852
 3019TIP3    H230617   1.040   1.612   2.185  0.4405 -0.3854  0.1575
 3020TIP3   OH230618   6.371   0.744   0.439  0.2185 -0.1833  0.3212
 3020TIP3    H130619   6.366   0.809   0.369 -0.0279 -1.2291 -0.6501
 3020TIP3    H230620   6.279   0.731   0.465 -0.1221 -2.3305 -1.5928
 3021TIP3   OH230621   0.894   3.330   8.205 -0.3595 -0.5104  0.2733
 3021TIP3    H130622   0.887   3.339   8.110 -0.0062  0.4069  0.3299
 3021TIP3    H230623   0.978   3.371   8.228 -0.5041 -0.5950  0.9981
 3022TIP3   OH230624   3.535   0.221   1.206  0.2534  0.1613 -0.1330
 3022TIP3    H130625   3.540   0.179   1.291  1.7061 -0.4221 -0.4635
 3022TIP3    H230626   3.546   0.149   1.143 -0.0098  0.6767 -0.7841
 3023TIP3   OH230627   3.085   4.648   8.239  0.5735 -0.6902  1.0571
 3023TIP3    H130628   3.137   4.715   8.194  0.6495 -1.6242 -0.3078
 3023TIP3    H230629   3.147   4.604   8.297  1.5639 -2.2852 -1.0967
 3024TIP3   OH230630   0.439   5.377   7.362  0.3714  0.2544  0.8462
 3024TIP3    H130631   0.483   5.367   7.278 -1.2807 -1.2566  0.1026
 3024TIP3    H230632   0.356   5.420   7.341  0.1687  0.3630  1.7975
 3025TIP3   OH230633   1.777   1.424   8.387  0.0486  0.1489 -0.2870
 3025TIP3    H130634   1.783   1.450   8.295 -1.7795  1.8703 -0.0130
 3025TIP3    H230635   1.789   1.330   8.387 -0.3081  0.0599 -2.3484
 3026TIP3   OH230636   2.930   1.705   1.200 -0.1368 -0.5747 -0.3500
 3026TIP3    H130637   2.849   1.672   1.163  0.4360 -0.9902 -1.2552
 3026TIP3    H230638   2.984   1.728   1.125  0.3693  0.2558  0.2457
 3027TIP3   OH230639   3.277   0.955   1.743 -0.3404  0.0350  0.1333
 3027TIP3    H130640   3.291   0.926   1.833  1.0304 -2.3456 -0.7690
 3027TIP3    H230641   3.329   1.035   1.736  1.6076 -1.0950  0.8192
 3028TIP3   OH230642   2.412   6.650   0.701  0.4844  0.1185  0.1019
 3028TIP3    H130643   2.351   6.578   0.719  0.0052  0.1550 -1.2647
 3028TIP3    H230644   2.461   6.660   0.783  1.0127 -2.1822  0.1621
 3029TIP3   OH230645   6.411   0.906   0.670  0.3277 -0.0732  0.1480
 3029TIP3    H130646   6.424   0.850   0.594 -1.5822 -0.7599  0.2836
 3029TIP3    H230647   6.362   0.852   0.732  0.9050  0.8325  1.4391
 3030TIP3   OH230648   2.654   1.576   0.363 -0.0197 -0.1228 -0.4394
 3030TIP3    H130649   2.671   1.487   0.395  0.6884  0.3603  0.6112
 3030TIP3    H230650   2.723   1.591   0.298  1.0038  0.2802  0.6927
 3031TIP3   OH230651   5.958   3.912   7.285  0.1107  0.2650 -0.2047
 3031TIP3    H130652   5.966   3.832   7.338 -0.2360 -0.2005 -0.8426
 3031TIP3    H230653   5.887   3.961   7.327  0.7171  0.5303  0.5422
 3032TIP3   OH230654   1.478   1.160   8.644 -0.0090  0.3237  0.0109
 3032TIP3    H130655   1.392   1.121   8.654 -0.3001  0.8397 -0.3982
 3032TIP3    H230656   1.509   1.173   8.734 -0.5456  0.5432  0.1682
 3033TIP3   OH230657   5.256   5.252   1.917  0.4270  0.1258  0.6252
 3033TIP3    H130658   5.241   5.167   1.959  0.7041  0.6228  1.7797
 3033TIP3    H230659   5.183   5.263   1.857  1.1032 -1.5372 -0.5848
 3034TIP3   OH230660   3.243   6.061   1.522  0.3425 -0.1614 -0.0110
 3034TIP3    H130661   3.199   6.128   1.574 -1.2758 -1.3980  0.2874
 3034TIP3    H230662   3.214   5.978   1.559  2.1241 -1.0702 -0.5147
 3035TIP3   OH230663   2.408   4.741   8.513  0.5660  0.3975 -0.2567
 3035TIP3    H130664   2.324   4.765   8.473  0.8431  1.5812 -0.1885
 3035TIP3    H230665   2.400   4.648   8.534 -1.3918  0.8681  1.3667
 3036TIP3   OH230666   5.857   6.409   0.695  0.0623  0.4546 -0.1806
 3036TIP3    H130667   5.930   6.394   0.635 -0.2547 -0.5262 -0.3250
 3036TIP3    H230668   5.800   6.470   0.648 -1.0272 -1.5615 -1.6304
 3037TIP3   OH230669   3.237   4.457   7.180 -0.0469  0.5405  0.3095
 3037TIP3    H130670   3.199   4.387   7.126 -0.1531  2.1795 -1.9102
 3037TIP3    H230671   3.330   4.434   7.188 -0.4101 -0.7073  1.0974
 3038TIP3   OH230672   4.136   4.939   1.927  0.3775  0.3798 -0.2206
 3038TIP3    H130673   4.089   4.923   2.009  2.6972 -1.3411  0.8794
 3038TIP3    H230674   4.100   4.874   1.866 -2.9433  3.0602 -1.4565
 3039TIP3   OH230675   2.752   4.264   7.459  0.2500  0.3320  0.2021
 3039TIP3    H130676   2.752   4.355   7.487  0.6281  0.1661  0.7480
 3039TIP3    H230677   2.706   4.217   7.529 -0.4838  0.1859 -0.3639
 3040TIP3   OH230678   5.140   1.019   1.584  0.2447 -0.1555 -0.9729
 3040TIP3    H130679   5.045   1.013   1.587  0.1257  1.4783  0.2789
 3040TIP3    H230680   5.169   0.976   1.665  0.2513  2.6493  0.6440
 3041TIP3   OH230681   1.200   0.972   0.562 -0.1139 -0.3050  0.2673
 3041TIP3    H130682   1.115   0.931   0.545 -1.0868  1.7871 -0.2961
 3041TIP3    H230683   1.228   1.003   0.476  1.2929 -1.0804  0.4348
 3042TIP3   OH230684   3.165   4.981   8.046  0.2625 -0.1411 -0.3076
 3042TIP3    H130685   3.128   5.007   8.130 -0.6677  2.5504 -1.4317
 3042TIP3    H230686   3.095   4.931   8.003  0.0189  0.1249 -0.2223
 3043TIP3   OH230687   3.354   6.813   8.158  0.2906  0.1854  0.0913
 3043TIP3    H130688   3.436   6.834   8.202  0.2893 -0.6647  0.5222
 3043TIP3    H230689   3.376   6.741   8.099  0.0059  0.4453 -0.3426
 3044TIP3   OH230690   2.191   6.592   7.907 -0.2145 -0.2797  0.1691
 3044TIP3    H130691   2.128   6.661   7.930  0.4384  0.1547  0.7037
 3044TIP3    H230692   2.214   6.553   7.991  0.5244 -0.1671  0.0251
 3045TIP3   OH230693   0.138   0.729   8.620  0.0634  0.3543  0.2717
 3045TIP3    H130694   0.042   0.731   8.624  0.0462  0.8679 -0.2359
 3045TIP3    H230695   0.158   0.672   8.546  0.0912  2.0167 -1.0532
 3046TIP3   OH230696   6.636   1.396   1.832 -0.2171  0.3960 -0.0383
 3046TIP3    H130697   6.613   1.374   1.742  1.3076 -0.5181 -0.2330
 3046TIP3    H230698   6.730   1.378   1.839 -0.4389 -0.3249  1.9605
 3047TIP3   OH230699   0.193   6.068   0.940  0.0179  0.3385  0.3555
 3047TIP3    H130700   0.162   6.158   0.934 -1.1985 -0.0689  0.2591
 3047TIP3    H230701   0.160   6.025   0.861 -0.8307 -0.5816  1.1606
 3048TIP3   OH230702   2.497   1.958   2.625 -0.4450  1.1519 -0.3546
 3048TIP3    H130703   2.420   1.907   2.598 -0.5432  1.0882  0.0459
 3048TIP3    H230704   2.569   1.894   2.624 -0.1811  1.4246 -1.7148
 3049TIP3   OH230705   2.483   1.784   0.370 -0.4055 -0.6231 -0.3175
 3049TIP3    H130706   2.467   1.779   0.276  2.1286  3.0901 -1.1534
 3049TIP3    H230707   2.554   1.722   0.386  1.1640  0.7982 -1.5107
 3050TIP3   OH230708   6.445   1.152   8.473  0.0596 -0.4465 -0.2828
 3050TIP3    H130709   6.414   1.203   8.398 -0.5539  1.6615  1.3185
 3050TIP3    H230710   6.366   1.129   8.521  0.2407 -3.5472 -1.2086
 3051TIP3   OH230711   3.567   3.318   1.913 -0.1665  0.8566 -0.2509
 3051TIP3    H130712   3.474   3.338   1.920 -0.5153 -0.3870 -0.9812
 3051TIP3    H230713   3.603   3.390   1.861 -1.2654  0.0446 -2.2757
 3052TIP3   OH230714   4.275   0.800   7.181  0.8926 -0.6212 -0.0642
 3052TIP3    H130715   4.332   0.861   7.227 -0.9185  1.9814 -1.0268
 3052TIP3    H230716   4.295   0.814   7.088  0.1730 -1.2059 -0.3189
 3053TIP3   OH230717   3.667   6.420   0.739 -1.1806  0.5301  0.4894
 3053TIP3    H130718   3.732   6.456   0.678 -0.4556  1.0059  1.5037
 3053TIP3    H230719   3.682   6.468   0.821 -2.7485  0.5632  0.7830
 3054TIP3   OH230720   0.973   2.392   8.110 -0.1489  0.5502 -0.3711
 3054TIP3    H130721   0.927   2.379   8.193  1.3581  1.8204  0.7260
 3054TIP3    H230722   0.997   2.485   8.110  1.1515  0.2506 -1.5573
 3055TIP3   OH230723   6.738   1.233   0.863  0.4072 -0.2920 -0.0930
 3055TIP3    H130724   6.702   1.144   0.859  0.5312 -0.3106 -1.2770
 3055TIP3    H230725   6.661   1.290   0.862  0.3307 -0.3829  0.5321
 3056TIP3   OH230726   2.219   1.509   8.690  0.0780 -0.0610  0.7995
 3056TIP3    H130727   2.180   1.553   8.766 -1.3319 -1.0291  0.6642
 3056TIP3    H230728   2.277   1.443   8.727  1.5282  1.2567  1.0000
 3057TIP3   OH230729   5.867   1.475   1.289  0.2228  0.0941 -0.2562
 3057TIP3    H130730   5.955   1.510   1.298  0.5494 -0.5368 -0.8947
 3057TIP3    H230731   5.831   1.478   1.377  0.6095  1.0415 -0.1166
 3058TIP3   OH230732   5.486   0.706   7.389 -0.2231  0.6018  0.5451
 3058TIP3    H130733   5.461   0.782   7.337  1.5224  0.9029  0.0915
 3058TIP3    H230734   5.541   0.741   7.459 -3.0025  0.3082  3.1090
 3059TIP3   OH230735   1.914   6.237   1.089  0.1944 -0.0257  0.4455
 3059TIP3    H130736   1.851   6.214   1.022  1.3685 -2.0800 -0.0619
 3059TIP3    H230737   1.862   6.271   1.162 -1.3955 -0.8428 -0.2818
 3060TIP3   OH230738   3.945   2.013   1.372 -0.7778  0.3682 -0.1865
 3060TIP3    H130739   3.964   2.052   1.457 -1.1665 -0.7717  0.4338
 3060TIP3    H230740   4.023   1.960   1.353 -0.4802  0.9987 -0.7821
 3061TIP3   OH230741   4.648   3.977   0.851  0.2005  0.1095  0.3750
 3061TIP3    H130742   4.576   3.980   0.788  0.3666  0.5181  0.2041
 3061TIP3    H230743   4.670   4.068   0.868  1.1333 -0.0073 -0.1024
 3062TIP3   OH230744   1.158   2.703   0.329 -0.0452  0.8255 -0.0877
 3062TIP3    H130745   1.204   2.664   0.403 -0.8984 -0.7868 -0.3823
 3062TIP3    H230746   1.068   2.714   0.359 -1.3589 -3.2396 -1.9327
 3063TIP3   OH230747   0.745   4.294   2.407 -0.3096  0.0925  0.6248
 3063TIP3    H130748   0.840   4.281   2.407 -0.2252  0.6462 -0.0504
 3063TIP3    H230749   0.724   4.314   2.316 -0.8606  1.4661  1.0191
 3064TIP3   OH230750   1.441   4.221   7.419 -0.0017  0.0992 -0.1317
 3064TIP3    H130751   1.441   4.139   7.468 -0.5164  0.4694  0.5007
 3064TIP3    H230752   1.435   4.195   7.327 -1.6918 -0.5414  0.1346
 3065TIP3   OH230753   2.897   4.098   0.837 -0.0966  0.0575  0.0742
 3065TIP3    H130754   2.816   4.049   0.850 -0.7520  1.0476 -0.2495
 3065TIP3    H230755   2.943   4.089   0.921  0.2653 -1.9205 -0.2893
 3066TIP3   OH230756   1.653   1.938   0.133 -0.3138  0.1855 -0.0311
 3066TIP3    H130757   1.634   1.871   0.067 -0.4568 -0.3968  0.5854
 3066TIP3    H230758   1.647   1.891   0.217 -1.3327  1.1646  0.4776
 3067TIP3   OH230759   2.095   2.798   1.139  0.0281  0.0239  1.0370
 3067TIP3    H130760   2.033   2.728   1.121 -2.4930  2.2637  0.5022
 3067TIP3    H230761   2.157   2.795   1.065 -1.1617 -0.4459  0.0296
 3068TIP3   OH230762   3.164   4.320   3.070 -0.3946 -0.1464 -0.0275
 3068TIP3    H130763   3.173   4.240   3.018  0.2416  0.2303 -0.5127
 3068TIP3    H230764   3.196   4.389   3.012 -0.4628  0.3909  0.5714
 3069TIP3   OH230765   5.378   3.435   2.086  0.4119 -0.4757 -0.2288
 3069TIP3    H130766   5.341   3.442   2.174  0.3033 -0.3432 -0.2845
 3069TIP3    H230767   5.472   3.452   2.098  0.0939  1.7535 -0.4299
 3070TIP3   OH230768   3.306   2.241   1.104  0.1500  0.0567  0.7077
 3070TIP3    H130769   3.266   2.192   1.032  0.2487 -2.4233  2.2167
 3070TIP3    H230770   3.231   2.267   1.159  0.2295 -0.3111  0.9999
 3071TIP3   OH230771   0.387   6.406   7.693 -0.0083 -0.4990 -0.1676
 3071TIP3    H130772   0.473   6.444   7.675  0.2504  0.0490  2.0391
 3071TIP3    H230773   0.327   6.480   7.686 -0.0303 -0.4728  0.3271
 3072TIP3   OH230774   4.762   0.302   2.008  0.0408  0.2811 -0.1412
 3072TIP3    H130775   4.672   0.273   1.996 -0.8209  1.6679  2.2110
 3072TIP3    H230776   4.797   0.310   1.919 -1.5677 -1.8670 -1.0660
 3073TIP3   OH230777   4.735   2.313   0.456 -0.2083 -0.2198 -0.5345
 3073TIP3    H130778   4.816   2.264   0.474  0.9152  1.3845 -0.9801
 3073TIP3    H230779   4.755   2.363   0.377 -1.0642  1.4435  0.2561
 3074TIP3   OH230780   3.820   2.175   2.125  0.2444 -0.2488 -0.6770
 3074TIP3    H130781   3.851   2.118   2.195 -1.5851 -1.0623 -0.4728
 3074TIP3    H230782   3.797   2.257   2.168  2.2571  0.4907 -0.8763
 3075TIP3   OH230783   6.244   6.499   1.198  0.4277  0.4824  0.4787
 3075TIP3    H130784   6.209   6.431   1.256  3.0995 -0.3168  1.3022
 3075TIP3    H230785   6.209   6.477   1.112  1.1711 -1.9958  0.7252
 3076TIP3   OH230786   5.975   6.293   8.442 -0.5031  0.2033  0.6970
 3076TIP3    H130787   6.017   6.348   8.509  0.6362  0.3536 -0.1077
 3076TIP3    H230788   6.048   6.262   8.388 -1.2593 -1.0630  0.3641
 3077TIP3   OH230789   6.798   5.545   1.141  0.1471 -0.3210 -0.2519
 3077TIP3    H130790   6.886   5.527   1.174  0.1727  0.2185 -0.0125
 3077TIP3    H230791   6.811   5.616   1.078  0.0085 -0.8841 -0.9179
 3078TIP3   OH230792   6.150   2.302   0.546 -0.6227 -0.2682 -0.6757
 3078TIP3    H130793   6.063   2.272   0.520 -0.2426 -1.4263 -0.6708
 3078TIP3    H230794   6.202   2.222   0.551  0.7884  0.5175 -1.9807
 3079TIP3   OH230795   6.033   6.632   7.779  0.4222  0.6198  0.1242
 3079TIP3    H130796   6.068   6.564   7.836  0.9717  0.9340  0.1684
 3079TIP3    H230797   5.940   6.638   7.803 -0.1665 -1.5321 -1.2731
 3080TIP3   OH230798   3.676   1.392   0.760  0.1306 -0.1516  0.0421
 3080TIP3    H130799   3.735   1.333   0.807  2.0698  0.6849 -1.2358
 3080TIP3    H230800   3.616   1.333   0.714  2.8561 -1.3432 -2.2879
 3081TIP3   OH230801   2.038   4.402   2.445 -0.5034  0.4338 -0.3973
 3081TIP3    H130802   2.007   4.373   2.531  1.5467  1.8317  0.8806
 3081TIP3    H230803   1.998   4.488   2.433  2.2279  2.0226  1.0366
 3082TIP3   OH230804   5.576   3.829   1.659  0.0849  0.5191 -0.0646
 3082TIP3    H130805   5.603   3.904   1.712  1.8577 -0.9835  1.2927
 3082TIP3    H230806   5.482   3.820   1.675  0.2433  1.2001  1.3903
 3083TIP3   OH230807   3.721   3.811   0.257 -0.4904  0.4786 -0.0491
 3083TIP3    H130808   3.678   3.732   0.225 -1.2158  0.6740  0.4227
 3083TIP3    H230809   3.680   3.827   0.342 -1.4768  2.2558 -0.8197
 3084TIP3   OH230810   6.568   1.236   1.104 -0.1788 -0.0186  0.5469
 3084TIP3    H130811   6.579   1.187   1.185  0.9885 -1.8549 -0.6333
 3084TIP3    H230812   6.512   1.179   1.050 -0.4096  0.8736 -0.1642
 3085TIP3   OH230813   2.655   0.281   1.438 -0.0939  0.5066 -0.3256
 3085TIP3    H130814   2.668   0.315   1.349 -0.9490  0.1209 -0.6048
 3085TIP3    H230815   2.697   0.346   1.494  3.2784 -0.7402 -1.1372
 3086TIP3   OH230816   5.121   5.094   7.866  0.0713 -0.4580  0.2563
 3086TIP3    H130817   5.130   5.189   7.866 -1.3943 -0.2718 -0.8560
 3086TIP3    H230818   5.199   5.062   7.822 -0.8300  0.4744 -2.1797
 3087TIP3   OH230819   3.564   1.306   7.258 -0.2243 -0.5993  0.0632
 3087TIP3    H130820   3.593   1.390   7.294 -2.8724  0.9408 -1.0907
 3087TIP3    H230821   3.628   1.242   7.291  1.5012  1.7272  1.5545
 3088TIP3   OH230822   3.644   1.086   7.808 -0.8431 -0.8598 -0.2593
 3088TIP3    H130823   3.634   1.085   7.713 -2.1727 -1.3925 -0.1342
 3088TIP3    H230824   3.667   0.995   7.830 -0.0285 -0.6257 -0.1050
 3089TIP3   OH230825   5.875   2.027   6.455 -0.2164  0.2165 -0.5686
 3089TIP3    H130826   5.867   1.932   6.464  0.0207  0.3370  1.2821
 3089TIP3    H230827   5.910   2.056   6.540  0.1637  1.9061 -1.2667
 3090TIP3   OH230828   6.836   5.711   7.534  0.1136  0.3893 -0.5617
 3090TIP3    H130829   6.899   5.742   7.469 -1.6944  2.7997 -1.3168
 3090TIP3    H230830   6.863   5.753   7.616 -0.1333  0.9391 -0.7550
 3091TIP3   OH230831   1.656   3.186   0.275  0.0579 -0.0527  0.1895
 3091TIP3    H130832   1.637   3.278   0.296  1.5659  0.1420  0.7937
 3091TIP3    H230833   1.689   3.148   0.356 -1.0002 -1.2903  0.0773
 3092TIP3   OH230834   5.946   1.241   7.222 -0.3040 -0.4622  0.3121
 3092TIP3    H130835   5.883   1.245   7.150  0.1520  0.1216 -0.0561
 3092TIP3    H230836   5.902   1.287   7.294 -0.7995 -1.1331  0.4419
 3093TIP3   OH230837   3.263   5.469   8.171 -0.2227  0.7671 -0.3592
 3093TIP3    H130838   3.194   5.479   8.236 -0.2225  2.1236 -0.5383
 3093TIP3    H230839   3.244   5.385   8.129 -0.0232 -0.3152  1.5857
 3094TIP3   OH230840   6.685   4.082   0.037 -0.3316 -0.6856 -0.8551
 3094TIP3    H130841   6.637   4.028   0.099 -0.5794 -1.3388 -1.5971
 3094TIP3    H230842   6.628   4.087  -0.040 -0.0090  0.0661 -1.0542
 3095TIP3   OH230843   0.540   0.484   2.681 -0.0455  0.6101 -0.5018
 3095TIP3    H130844   0.556   0.578   2.683 -1.4792  0.8615  0.1562
 3095TIP3    H230845   0.573   0.455   2.596  0.9473  1.5929 -0.4674
 3096TIP3   OH230846   5.371   2.157   1.634 -0.2492 -0.7203  0.2076
 3096TIP3    H130847   5.288   2.155   1.586  1.0412 -1.2263 -2.1494
 3096TIP3    H230848   5.429   2.209   1.580  0.9491 -0.1782  1.9347
 3097TIP3   OH230849   3.232   5.935   7.118 -0.0841  0.1940  0.2550
 3097TIP3    H130850   3.277   5.957   7.037  0.7043  1.1719  0.9289
 3097TIP3    H230851   3.224   6.019   7.164 -2.7805  0.1091  0.1014
 3098TIP3   OH230852   2.358   3.251   0.483  0.4277  0.4133  0.0183
 3098TIP3    H130853   2.279   3.268   0.535  0.9270 -0.0539  0.9683
 3098TIP3    H230854   2.354   3.157   0.465  1.9616 -0.1337  2.1806
 3099TIP3   OH230855   1.791   5.812   1.137  0.1149  0.3378 -0.2913
 3099TIP3    H130856   1.735   5.743   1.170 -1.1188  1.0632 -0.7799
 3099TIP3    H230857   1.765   5.890   1.186  2.1007  0.3213  0.8892
 3100TIP3   OH230858   5.974   5.485   1.392 -0.1187 -0.0486 -0.3872
 3100TIP3    H130859   6.066   5.489   1.419  0.6022  0.6149 -2.7604
 3100TIP3    H230860   5.932   5.435   1.462  2.0132 -0.3258  0.8054
 3101TIP3   OH230861   0.852   6.693   0.698 -0.1497 -0.1646 -0.4738
 3101TIP3    H130862   0.932   6.727   0.657  1.5979 -3.3304 -0.0466
 3101TIP3    H230863   0.848   6.737   0.783  0.4990  0.8517 -0.9521
 3102TIP3   OH230864   4.874   2.876   8.536 -0.5589  0.2350  1.2404
 3102TIP3    H130865   4.953   2.857   8.484 -0.5094 -0.3846  1.5357
 3102TIP3    H230866   4.841   2.958   8.499 -0.7098 -0.3529  0.0154
 3103TIP3   OH230867   3.738   6.224   0.554 -0.9842  0.0293 -0.2386
 3103TIP3    H130868   3.700   6.273   0.627 -0.9347  2.2314 -1.5849
 3103TIP3    H230869   3.672   6.229   0.485 -0.4886 -0.8653 -0.7975
 3104TIP3   OH230870   2.055   6.010   0.121 -0.1852  0.1489 -0.1698
 3104TIP3    H130871   2.133   5.965   0.090  0.7786  0.8926  1.0308
 3104TIP3    H230872   2.037   6.077   0.055  0.3774  0.1503 -0.3252
 3105TIP3   OH230873   6.349   3.871   1.335 -0.1557  0.1541 -0.0226
 3105TIP3    H130874   6.302   3.790   1.354  1.1830 -0.5533  0.4373
 3105TIP3    H230875   6.441   3.844   1.329  0.5296  1.8660  1.7045
 3106TIP3   OH230876   6.483   5.692   0.277 -0.2185 -0.1030  0.4525
 3106TIP3    H130877   6.546   5.764   0.286  0.5296 -0.8199  1.0885
 3106TIP3    H230878   6.408   5.719   0.330 -0.4293  0.7090 -0.2296
 3107TIP3   OH230879   6.532   4.837   1.957  0.4570 -0.0049 -0.2501
 3107TIP3    H130880   6.495   4.925   1.958 -0.5291 -0.4040 -0.3452
 3107TIP3    H230881   6.574   4.830   1.871 -1.1601 -0.2876 -1.0598
 3108TIP3   OH230882   0.349   4.146   8.210  0.2026 -0.0151 -0.0979
 3108TIP3    H130883   0.438   4.114   8.222  0.2091 -0.7498 -1.8261
 3108TIP3    H230884   0.347   4.179   8.120 -1.0920  0.6167  0.1361
 3109TIP3   OH230885   2.101   6.228   8.421  0.6569 -0.0260 -0.5662
 3109TIP3    H130886   2.081   6.150   8.369 -0.9950  2.2790 -3.8075
 3109TIP3    H230887   2.187   6.256   8.389  1.8498 -1.0587  1.5096
 3110TIP3   OH230888   3.581   4.790   0.213 -0.4452 -0.6080 -0.2469
 3110TIP3    H130889   3.617   4.719   0.265 -2.2834 -1.1928  0.2783
 3110TIP3    H230890   3.558   4.858   0.276 -0.4039 -0.2954 -0.5603
 3111TIP3   OH230891   6.089   6.769   0.755 -0.0257 -0.0822  0.0821
 3111TIP3    H130892   5.998   6.752   0.778  0.2109  0.5289  1.5449
 3111TIP3    H230893   6.084   6.836   0.687 -0.6555  0.2699  0.4658
 3112TIP3   OH230894   2.336   6.267   8.310 -0.9837 -0.1169  0.2847
 3112TIP3    H130895   2.423   6.292   8.343 -0.9104  0.5725 -0.4065
 3112TIP3    H230896   2.351   6.186   8.262 -0.4486  0.7225 -1.0194
 3113TIP3   OH230897   6.049   4.068   0.534  0.8129 -0.6834 -1.1810
 3113TIP3    H130898   6.115   4.109   0.590  2.0189 -1.9981 -1.5662
 3113TIP3    H230899   6.022   3.990   0.584 -0.0192 -0.4741 -1.2958
 3114TIP3   OH230900   3.868   1.456   8.330  0.0138 -0.0544 -0.5087
 3114TIP3    H130901   3.933   1.390   8.353 -1.2161 -1.1147  0.0729
 3114TIP3    H230902   3.795   1.440   8.391 -0.1190  2.1826  0.0017
 3115TIP3   OH230903   0.652   5.128   0.306 -0.3114  0.2505  0.0142
 3115TIP3    H130904   0.724   5.137   0.369 -0.9104  0.4449  0.6839
 3115TIP3    H230905   0.647   5.214   0.263  0.3927 -0.0237 -0.6291
 3116TIP3   OH230906   0.184   2.359   6.838  0.0427 -0.5501 -0.5398
 3116TIP3    H130907   0.225   2.445   6.834  0.3892 -0.7327 -0.9295
 3116TIP3    H230908   0.253   2.298   6.813  0.4829 -1.1663  1.9301
 3117TIP3   OH230909   3.054   2.306   0.545 -0.3695 -0.0857  0.1600
 3117TIP3    H130910   3.090   2.386   0.508 -2.2518  0.9067  0.3554
 3117TIP3    H230911   2.964   2.302   0.512 -0.1539 -2.4685 -0.3519
 3118TIP3   OH230912   4.835   1.213   1.208  0.2932  0.0123 -0.1818
 3118TIP3    H130913   4.839   1.157   1.131 -0.3188  0.3621 -0.4744
 3118TIP3    H230914   4.924   1.209   1.245  0.6690  0.0442 -1.0493
 3119TIP3   OH230915   2.518   2.222   0.286 -0.1771  0.3233  0.6172
 3119TIP3    H130916   2.477   2.243   0.370 -0.3539  0.1132  0.5845
 3119TIP3    H230917   2.445   2.204   0.227 -0.0547  0.5309  0.3997
 3120TIP3   OH230918   4.455   4.498   1.069 -0.1067 -0.5159 -0.0392
 3120TIP3    H130919   4.433   4.583   1.030 -1.3226 -0.8452 -0.1080
 3120TIP3    H230920   4.520   4.519   1.137  0.0150  0.3952 -0.4227
 3121TIP3   OH230921   3.780   1.765   2.545 -0.1391  0.1345 -0.1702
 3121TIP3    H130922   3.730   1.771   2.626  1.3721  1.2490  0.7417
 3121TIP3    H230923   3.803   1.673   2.537  1.8620  0.3317  2.1132
 3122TIP3   OH230924   4.677   0.652   1.121 -0.1178  0.0605  0.2317
 3122TIP3    H130925   4.590   0.669   1.155 -0.5512 -1.0978 -0.2566
 3122TIP3    H230926   4.698   0.729   1.069 -0.8282  0.3615  0.3879
 3123TIP3   OH230927   6.223   3.362   0.073 -0.4282 -0.0582 -0.3013
 3123TIP3    H130928   6.216   3.457   0.090 -0.8793 -0.3543  1.3910
 3123TIP3    H230929   6.138   3.327   0.098  0.5559 -1.2189  1.6758
 3124TIP3   OH230930   5.035   2.048   7.374 -0.6924 -0.0419  0.3983
 3124TIP3    H130931   4.961   2.103   7.346  0.6266  0.8339 -1.6443
 3124TIP3    H230932   5.093   2.046   7.297  1.3037 -0.8758  1.8438
 3125TIP3   OH230933   4.202   2.095   0.840  0.1423  0.1002  0.5356
 3125TIP3    H130934   4.217   2.152   0.764  0.2330 -0.3892  0.1785
 3125TIP3    H230935   4.118   2.052   0.822  0.5105 -0.5629  0.3536
 3126TIP3   OH230936   2.025   0.507   1.372  0.1649 -0.1273  0.5734
 3126TIP3    H130937   2.111   0.489   1.410  0.8749  2.3882  0.2948
 3126TIP3    H230938   2.013   0.602   1.382 -2.0056 -0.2068 -0.6089
 3127TIP3   OH230939   1.706   2.225   6.870  0.0186  0.3435 -0.0461
 3127TIP3    H130940   1.631   2.275   6.839  0.1769  0.0595 -0.9094
 3127TIP3    H230941   1.764   2.291   6.908  0.8080  1.0460 -2.3033
 3128TIP3   OH230942   4.671   0.648   0.355  0.2879  0.1533 -0.5187
 3128TIP3    H130943   4.624   0.731   0.343 -2.4023 -1.1414  0.2104
 3128TIP3    H230944   4.691   0.619   0.267  2.7827  2.2674 -0.7770
 3129TIP3   OH230945   1.694   2.011   6.340  0.2747  0.2280  0.8721
 3129TIP3    H130946   1.788   2.023   6.340  0.3402 -0.2553  1.2644
 3129TIP3    H230947   1.672   1.998   6.248  0.6313  0.0584  0.8083
 3130TIP3   OH230948   1.373   0.155   8.344  0.6027  0.0733  0.3071
 3130TIP3    H130949   1.422   0.237   8.336  0.2966  0.1739 -0.7143
 3130TIP3    H230950   1.282   0.182   8.353  0.1614 -0.1191 -2.5707
 3131TIP3   OH230951   2.317   1.675   8.492 -0.1309  0.0194  0.0721
 3131TIP3    H130952   2.285   1.623   8.566 -0.4043 -0.0894 -0.1201
 3131TIP3    H230953   2.302   1.619   8.416 -1.5819  0.8520 -0.2990
 3132TIP3   OH230954   1.463   5.088   7.768 -0.7511 -0.1822  0.0160
 3132TIP3    H130955   1.529   5.106   7.701 -0.8501 -1.0271 -0.3135
 3132TIP3    H230956   1.512   5.085   7.850 -0.1444 -2.0913 -0.3671
 3133TIP3   OH230957   6.700   1.192   7.539 -0.2332  0.1743  0.1456
 3133TIP3    H130958   6.608   1.168   7.546 -0.7482  1.1489 -2.3062
 3133TIP3    H230959   6.710   1.267   7.597 -1.5049  1.2675 -0.9804
 3134TIP3   OH230960   4.392   5.197   7.335 -0.5016  0.4676 -0.2044
 3134TIP3    H130961   4.359   5.275   7.292 -0.4707 -0.0932 -1.2823
 3134TIP3    H230962   4.339   5.189   7.415 -1.7335  0.6114 -0.9703
 3135TIP3   OH230963   0.940   1.272   1.584 -0.2708 -0.2742  0.2407
 3135TIP3    H130964   0.921   1.313   1.500 -0.8882 -1.0233  0.0014
 3135TIP3    H230965   0.854   1.246   1.618  0.0287 -0.5776  0.7857
 3136TIP3   OH230966   0.473   2.768   0.255 -0.1859 -0.3475 -0.0167
 3136TIP3    H130967   0.425   2.709   0.313  1.1464  1.5059  3.2942
 3136TIP3    H230968   0.547   2.717   0.224  0.4469 -0.7752  2.0326
 3137TIP3   OH230969   3.345   0.676   1.136 -0.0692 -0.3009  0.3045
 3137TIP3    H130970   3.337   0.695   1.229  0.3434 -1.1040  0.5220
 3137TIP3    H230971   3.267   0.714   1.096  0.5119  1.4320  0.7350
 3138TIP3   OH230972   1.860   2.629   1.151 -0.5185  0.3767  0.4311
 3138TIP3    H130973   1.791   2.695   1.148 -1.5724 -0.7349 -2.1281
 3138TIP3    H230974   1.836   2.565   1.084  3.0544 -0.0315 -0.6797
 3139TIP3   OH230975   1.963   6.771   7.599 -0.1940 -0.4839  0.4698
 3139TIP3    H130976   2.035   6.827   7.570 -0.2114  0.5348  2.2886
 3139TIP3    H230977   2.006   6.698   7.643 -0.2450 -0.3699  0.7096
 3140TIP3   OH230978   4.698   6.108   0.791 -0.3054 -0.1853 -0.1368
 3140TIP3    H130979   4.630   6.050   0.757 -1.4828  0.3436  1.2403
 3140TIP3    H230980   4.673   6.124   0.882 -0.2385  2.7679 -0.5486
 3141TIP3   OH230981   0.686   0.214   0.588 -0.2152 -0.1115  0.2281
 3141TIP3    H130982   0.615   0.246   0.531  0.4945  3.1957  1.0109
 3141TIP3    H230983   0.657   0.236   0.677  1.0553 -0.2454  0.6899
 3142TIP3   OH230984   5.251   1.558   0.169 -0.0169 -0.0585  0.6501
 3142TIP3    H130985   5.293   1.487   0.120 -0.5513  0.6161 -0.8451
 3142TIP3    H230986   5.158   1.552   0.145 -0.1918  0.6773  1.1023
 3143TIP3   OH230987   6.627   1.801   1.417  0.2465  0.1427  0.3612
 3143TIP3    H130988   6.604   1.885   1.378  0.8999 -0.3345 -1.1473
 3143TIP3    H230989   6.575   1.737   1.369  3.6086 -0.8436 -2.3759
 3144TIP3   OH230990   5.660   4.529   8.005 -0.1985 -0.0523 -0.1082
 3144TIP3    H130991   5.739   4.495   8.046  1.0435  0.2071 -2.1416
 3144TIP3    H230992   5.607   4.452   7.986  1.1264 -0.6013 -1.7522
 3145TIP3   OH230993   3.790   1.341   7.515 -0.5035  0.1129  0.2353
 3145TIP3    H130994   3.732   1.415   7.499 -2.1747 -0.5301  2.6886
 3145TIP3    H230995   3.778   1.285   7.438 -0.1684  1.7528 -1.0621
 3146TIP3   OH230996   2.600   2.326   1.198  0.0621  0.0287  0.1560
 3146TIP3    H130997   2.523   2.271   1.191 -1.0077  1.4572  0.1974
 3146TIP3    H230998   2.572   2.411   1.163  1.8706  0.3419 -0.6296
 3147TIP3   OH230999   4.599   2.222   1.540 -0.1182 -0.1848  0.1348
 3147TIP3    H131000   4.684   2.262   1.521 -0.0141 -0.7523 -0.6635
 3147TIP3    H231001   4.557   2.211   1.454 -0.5775 -0.8033  0.4255
 3148TIP3   OH231002   6.317   4.970   0.811 -0.0380  0.3786 -0.4339
 3148TIP3    H131003   6.310   5.029   0.737  0.3456  1.5460  0.4247
 3148TIP3    H231004   6.268   4.892   0.785  0.6593  0.4757 -2.1564
 3149TIP3   OH231005   3.625   1.078   7.557 -0.1462 -0.1168  0.5594
 3149TIP3    H131006   3.538   1.115   7.544 -1.0684 -2.4840 -0.7153
 3149TIP3    H231007   3.681   1.126   7.495 -1.5968 -1.6369 -2.1312
 3150TIP3   OH231008   4.486   6.201   7.324 -0.0789  0.5480 -0.1749
 3150TIP3    H131009   4.444   6.287   7.322  0.7130  0.9388 -0.2858
 3150TIP3    H231010   4.453   6.156   7.247 -0.1682  0.9074 -0.3467
 3151TIP3   OH231011   2.604   4.190   2.452 -0.6558 -0.3347  0.3432
 3151TIP3    H131012   2.642   4.241   2.523  1.2969 -1.5753  0.2532
 3151TIP3    H231013   2.612   4.246   2.375  0.0656 -0.1625  0.5348
 3152TIP3   OH231014   3.629   1.552   0.484 -0.3956  0.4463  0.3123
 3152TIP3    H131015   3.659   1.461   0.494 -0.8631  0.4375  1.9636
 3152TIP3    H231016   3.535   1.544   0.463  0.0744  0.5333 -2.0895
 3153TIP3   OH231017   5.693   5.353   0.905 -0.1493  0.2469  0.7095
 3153TIP3    H131018   5.715   5.339   0.997 -0.4742 -1.0315  0.6109
 3153TIP3    H231019   5.627   5.287   0.886  1.1737 -0.6626 -0.9088
 3154TIP3   OH231020   2.870   5.670   7.854 -0.2961  0.1598  0.3034
 3154TIP3    H131021   2.816   5.644   7.928  0.5454 -0.4546  0.7305
 3154TIP3    H231022   2.861   5.598   7.792 -1.2956  0.8469 -0.3721
 3155TIP3   OH231023   1.873   2.964   7.637 -0.0642  0.3842  0.1908
 3155TIP3    H131024   1.878   2.924   7.551 -1.1153  0.9073 -0.1241
 3155TIP3    H231025   1.943   2.922   7.687  0.8588  0.4033 -1.0374
 3156TIP3   OH231026   5.434   4.770   8.458  0.2055  0.0283 -0.1029
 3156TIP3    H131027   5.421   4.832   8.530  0.0005 -0.3682  0.2061
 3156TIP3    H231028   5.528   4.776   8.438  0.3258 -0.0742  0.4024
 3157TIP3   OH231029   0.723   1.254   0.384  0.0369  0.0272 -0.3997
 3157TIP3    H131030   0.740   1.202   0.463  1.0055  0.8745 -0.0261
 3157TIP3    H231031   0.655   1.205   0.337 -1.0672 -0.1516  1.2932
 3158TIP3   OH231032   5.652   2.653   8.384  0.4667 -0.6790 -0.0878
 3158TIP3    H131033   5.667   2.594   8.458 -0.5755 -1.2131 -0.2950
 3158TIP3    H231034   5.673   2.740   8.419  2.2483 -1.1690  0.1493
 3159TIP3   OH231035   2.553   6.772   2.177 -0.2521  0.2167  0.5262
 3159TIP3    H131036   2.577   6.718   2.101  0.5484  0.1715  0.8072
 3159TIP3    H231037   2.605   6.737   2.249 -0.3244  0.8508  0.8932
 3160TIP3   OH231038   0.625   0.435   1.654 -0.5780  0.4049 -0.0813
 3160TIP3    H131039   0.662   0.517   1.687 -2.3136  0.9489  0.6114
 3160TIP3    H231040   0.701   0.378   1.640  0.5069  1.3989  1.4566
 3161TIP3   OH231041   5.925   4.511   0.462  0.5270 -0.8628 -0.1887
 3161TIP3    H131042   5.955   4.422   0.443 -0.7225 -1.4609  0.5175
 3161TIP3    H231043   5.869   4.535   0.389  0.6229 -0.7729 -0.2332
 3162TIP3   OH231044   1.473   5.031   0.802  0.1381  0.1529  0.1388
 3162TIP3    H131045   1.394   4.979   0.790  1.2123 -1.7553  1.0060
 3162TIP3    H231046   1.468   5.097   0.733 -1.3276 -1.0362 -0.9650
 3163TIP3   OH231047   0.517   1.592   7.911  0.2588 -0.7761 -0.1236
 3163TIP3    H131048   0.440   1.552   7.870  0.0102  2.1644 -2.8515
 3163TIP3    H231049   0.584   1.592   7.843  1.1447  0.8517  0.6789
 3164TIP3   OH231050   6.179   3.622   0.100  0.3543  0.1154  0.4154
 3164TIP3    H131051   6.273   3.606   0.099  0.4367  0.4925 -1.8004
 3164TIP3    H231052   6.169   3.714   0.077 -0.5754 -0.3542 -1.2514
 3165TIP3   OH231053   0.881   2.604   7.841 -0.2673 -0.5802  0.5170
 3165TIP3    H131054   0.852   2.519   7.807 -0.2565  0.0996 -1.2820
 3165TIP3    H231055   0.977   2.598   7.843 -0.2931 -0.8910  1.2166
 3166TIP3   OH231056   3.392   5.551   8.522 -0.2572  0.0091  0.4678
 3166TIP3    H131057   3.359   5.462   8.515 -1.7344  0.6561 -1.7445
 3166TIP3    H231058   3.487   5.542   8.512 -0.3756 -1.3098  0.3414
 3167TIP3   OH231059   5.076   6.606   8.576 -0.2556 -0.4755 -0.8443
 3167TIP3    H131060   4.983   6.611   8.600 -0.1470 -0.4556 -0.4293
 3167TIP3    H231061   5.121   6.655   8.644 -0.1522  1.6584 -2.3622
 3168TIP3   OH231062   3.865   3.241   0.240 -0.0606 -0.5205  0.0877
 3168TIP3    H131063   3.897   3.218   0.327 -2.5625  0.5947  1.4094
 3168TIP3    H231064   3.837   3.158   0.202  0.2611 -0.9198  0.7136
 3169TIP3   OH231065   0.825   5.432   0.567  0.5807 -0.3905  0.1479
 3169TIP3    H131066   0.817   5.463   0.658 -0.0304  0.5044 -0.1910
 3169TIP3    H231067   0.851   5.510   0.518 -2.4731  0.0606 -0.9857
 3170TIP3   OH231068   5.430   5.989   1.728  0.1824  0.3896  0.3775
 3170TIP3    H131069   5.350   6.038   1.711  1.3525  2.4462  0.4300
 3170TIP3    H231070   5.424   5.911   1.672 -1.4399  0.9353 -0.2461
 3171TIP3   OH231071   2.968   6.533   1.743 -0.1030  0.2465  0.1859
 3171TIP3    H131072   2.962   6.550   1.649 -0.9187  0.7114  0.3148
 3171TIP3    H231073   2.945   6.616   1.784 -0.2032 -0.0793  0.8023
 3172TIP3   OH231074   6.642   4.900   0.258  0.4560 -0.3172  0.2780
 3172TIP3    H131075   6.584   4.932   0.327  0.1315  0.7429 -0.4590
 3172TIP3    H231076   6.713   4.964   0.255  2.4827 -2.3131  2.1098
 3173TIP3   OH231077   2.168   2.969   0.651 -0.4551  0.7561  0.2876
 3173TIP3    H131078   2.248   2.919   0.637 -2.2704 -2.6794  1.0852
 3173TIP3    H231079   2.123   2.969   0.567  0.4889  3.1427 -0.3037
 3174TIP3   OH231080   0.294   1.420   7.845  0.2094 -0.2033  0.7855
 3174TIP3    H131081   0.219   1.377   7.886 -0.0894 -1.1481 -0.6974
 3174TIP3    H231082   0.282   1.407   7.751  1.8526  0.2558  0.4733
 3175TIP3   OH231083   5.943   2.488   0.863  0.6063 -0.0986  0.2112
 3175TIP3    H131084   5.903   2.574   0.874  0.2929 -0.1172 -0.7031
 3175TIP3    H231085   5.964   2.483   0.770  2.0341 -0.4073  0.5248
 3176TIP3   OH231086   1.612   3.264   7.539  0.2710 -0.2068 -0.3702
 3176TIP3    H131087   1.655   3.223   7.464  1.7207 -2.0793  1.3649
 3176TIP3    H231088   1.519   3.253   7.522  0.5672 -0.3869 -1.9943
 3177TIP3   OH231089   2.286   2.705   0.902 -0.2962 -0.1708 -0.2700
 3177TIP3    H131090   2.380   2.723   0.898 -0.3034 -0.3056 -1.4167
 3177TIP3    H231091   2.268   2.657   0.821 -1.0559 -1.6084  0.7274
 3178TIP3   OH231092   1.690   5.736   6.597 -0.0976 -0.4109 -0.7063
 3178TIP3    H131093   1.775   5.715   6.638 -1.0844 -0.7871  1.2948
 3178TIP3    H231094   1.631   5.669   6.631 -1.9545  1.8190  0.7828
 3179TIP3   OH231095   5.013   0.571   7.685 -0.2282 -0.2760  0.1104
 3179TIP3    H131096   4.995   0.495   7.630 -1.2726  0.4767 -0.6399
 3179TIP3    H231097   4.961   0.557   7.764 -0.8779 -0.0970 -0.2721
 3180TIP3   OH231098   3.900   2.011   2.305  0.8448 -0.3472  0.0004
 3180TIP3    H131099   3.856   1.927   2.320  1.7781 -0.5981  1.5105
 3180TIP3    H231100   3.912   2.048   2.393 -0.4221  1.8522 -0.6789
 3181TIP3   OH231101   4.286   5.319   0.717  0.3176 -0.0287 -0.3731
 3181TIP3    H131102   4.199   5.355   0.733  0.3804  0.1857 -0.5075
 3181TIP3    H231103   4.323   5.376   0.649  0.0511 -0.9206 -1.2962
 3182TIP3   OH231104   5.125   4.437   1.892 -0.2338  0.1111  0.2409
 3182TIP3    H131105   5.106   4.495   1.966  0.5389  0.3972  0.2203
 3182TIP3    H231106   5.055   4.372   1.894 -1.1999  1.1201  0.1875
 3183TIP3   OH231107   1.393   5.690   6.856 -0.3285 -0.1860  0.0041
 3183TIP3    H131108   1.329   5.759   6.844  0.4160  0.2737 -1.4987
 3183TIP3    H231109   1.394   5.674   6.951 -0.0190  2.3582  0.4931
 3184TIP3   OH231110   3.519   3.202   0.156  0.0811 -0.5363  0.0474
 3184TIP3    H131111   3.550   3.193   0.246  0.3625 -2.0532 -0.1733
 3184TIP3    H231112   3.468   3.123   0.140 -0.4787  0.0066 -0.9376
 3185TIP3   OH231113   1.325   1.469   1.644 -0.0286 -0.2562  0.6573
 3185TIP3    H131114   1.269   1.391   1.643  0.8231 -0.9617 -2.5506
 3185TIP3    H231115   1.414   1.433   1.650  0.4289  0.3331 -1.8173
 3186TIP3   OH231116   6.753   1.879   7.637 -0.1982 -0.4356  0.5801
 3186TIP3    H131117   6.784   1.909   7.551  1.9735 -0.1720  1.3911
 3186TIP3    H231118   6.661   1.857   7.623 -0.5584  1.8218 -1.2706
 3187TIP3   OH231119   6.198   6.230   7.326 -0.3161  0.3775 -0.4889
 3187TIP3    H131120   6.291   6.242   7.346 -0.5743  2.8497 -0.4816
 3187TIP3    H231121   6.165   6.178   7.399  1.0204 -0.5221 -0.4766
 3188TIP3   OH231122   6.382   1.110   1.792  0.1772  1.0849 -0.0345
 3188TIP3    H131123   6.313   1.152   1.740  0.6574  1.1240 -0.6493
 3188TIP3    H231124   6.454   1.098   1.731  0.7612  1.1415  0.6304
 3189TIP3   OH231125   6.163   2.495   8.605  0.1912  0.3536  0.7753
 3189TIP3    H131126   6.153   2.423   8.667  0.1581  0.0206  0.3859
 3189TIP3    H231127   6.256   2.495   8.582  0.4782  1.3278  1.8353
 3190TIP3   OH231128   2.558   4.955   8.706  0.2840  0.3619 -0.2655
 3190TIP3    H131129   2.519   4.911   8.631  1.3050  1.7316 -1.6654
 3190TIP3    H231130   2.623   5.014   8.668  0.9526  0.9766  1.7185
 3191TIP3   OH231131   3.430   4.338   7.404 -0.5638 -0.4124 -0.5544
 3191TIP3    H131132   3.417   4.244   7.411 -0.1355 -0.5428 -1.3948
 3191TIP3    H231133   3.454   4.353   7.313 -0.0172  0.4368 -0.2907
 3192TIP3   OH231134   1.080   3.837   0.668  0.3609 -0.2809 -0.1964
 3192TIP3    H131135   1.035   3.760   0.634  0.9229 -0.8433  0.3105
 3192TIP3    H231136   1.047   3.910   0.615 -0.2341 -0.8555 -0.6252
 3193TIP3   OH231137   2.709   4.741   8.520  0.1595  0.1470  0.1939
 3193TIP3    H131138   2.613   4.750   8.525  0.2048  0.6006  0.3504
 3193TIP3    H231139   2.729   4.751   8.427  0.0323 -0.2266  0.1236
 3194TIP3   OH231140   0.347   3.859   1.725  0.1005  0.3801  0.7736
 3194TIP3    H131141   0.289   3.783   1.721  0.4779  0.0981  0.5863
 3194TIP3    H231142   0.299   3.928   1.679  0.0336  0.0656  0.3636
 3195TIP3   OH231143   5.693   6.346   6.830 -0.1013  0.5174  0.1758
 3195TIP3    H131144   5.686   6.277   6.764  0.3740 -0.3776  1.0324
 3195TIP3    H231145   5.779   6.331   6.870  0.7364  2.6136 -0.7040
 3196TIP3   OH231146   3.821   2.045   1.684  0.5445  0.0095  0.5498
 3196TIP3    H131147   3.787   2.061   1.772  1.4397  1.5357  0.6617
 3196TIP3    H231148   3.805   1.952   1.668 -0.7572 -0.0141  1.8215
 3197TIP3   OH231149   3.015   3.272   7.314  0.0605 -0.4100 -0.0052
 3197TIP3    H131150   3.098   3.232   7.288  0.7283 -0.3897  1.9998
 3197TIP3    H231151   3.000   3.341   7.249  1.3615 -0.7293 -0.6636
 3198TIP3   OH231152   1.911   6.666   8.134  0.0707 -0.4933  0.2076
 3198TIP3    H131153   1.968   6.721   8.188 -0.4772  1.7478 -1.3529
 3198TIP3    H231154   1.896   6.718   8.055 -4.1970 -0.8795  0.5479
 3199TIP3   OH231155   1.629   0.746   7.133 -0.3024  0.4894  0.6739
 3199TIP3    H131156   1.538   0.773   7.117  0.0193  1.5118  0.5310
 3199TIP3    H231157   1.659   0.711   7.048  0.5476  3.4376 -0.3421
 3200TIP3   OH231158   2.166   3.014   8.288  0.2864 -0.2823  0.0098
 3200TIP3    H131159   2.080   3.056   8.278  0.6610  0.1850 -1.4007
 3200TIP3    H231160   2.223   3.060   8.227  0.7756 -2.6419 -1.4337
 3201TIP3   OH231161   1.983   0.792   2.413 -0.3480  0.6815  0.2386
 3201TIP3    H131162   2.067   0.746   2.414 -0.1148  1.0372 -1.2818
 3201TIP3    H231163   1.929   0.743   2.475  0.8505  0.2340  0.9766
 3202TIP3   OH231164   6.765   0.132   1.606 -0.0893 -0.2168  0.4820
 3202TIP3    H131165   6.814   0.059   1.644 -0.8845 -0.7900  0.4300
 3202TIP3    H231166   6.676   0.098   1.593  0.8126 -1.3837 -5.3330
 3203TIP3   OH231167   2.793   0.997   8.334 -0.6210  0.9338 -0.2911
 3203TIP3    H131168   2.822   0.912   8.301  0.5922  2.0597 -2.3824
 3203TIP3    H231169   2.834   1.005   8.420  1.9531  0.6855 -1.3989
 3204TIP3   OH231170   3.225   1.422   1.252 -0.2724  0.3698  0.4349
 3204TIP3    H131171   3.249   1.354   1.314 -1.9467  0.2210  0.9871
 3204TIP3    H231172   3.269   1.501   1.284  0.8184 -0.2025  0.3956
 3205TIP3   OH231173   5.678   2.067   7.597  0.1650  0.5002  0.6142
 3205TIP3    H131174   5.584   2.051   7.599  0.2639 -0.1337  0.4424
 3205TIP3    H231175   5.694   2.127   7.670 -0.4134  0.8671  0.4438
 3206TIP3   OH231176   4.817   6.289   2.178 -0.5698 -0.3557 -0.2963
 3206TIP3    H131177   4.813   6.201   2.214  0.7387  0.0225  0.8552
 3206TIP3    H231178   4.826   6.346   2.254  0.0795  0.6404 -1.0835
 3207TIP3   OH231179   2.776   4.959   2.650 -0.2777 -0.5131  0.3968
 3207TIP3    H131180   2.744   4.871   2.631 -0.0494 -0.1183 -2.1299
 3207TIP3    H231181   2.840   4.947   2.720  0.8216 -2.5863 -0.8844
 3208TIP3   OH231182   2.256   5.989   8.259 -0.0935  0.5991 -0.5274
 3208TIP3    H131183   2.165   5.962   8.268  0.5762 -1.8509 -0.3458
 3208TIP3    H231184   2.273   5.986   8.165  0.4404 -1.4965 -0.4080
 3209TIP3   OH231185   3.658   6.285   2.565 -0.0635 -0.7033  0.0420
 3209TIP3    H131186   3.580   6.312   2.613 -0.1617  0.4143 -0.7142
 3209TIP3    H231187   3.645   6.318   2.477  1.0206 -0.9854 -0.2435
 3210TIP3   OH231188   0.336   5.906   7.056  0.0060 -0.9256  0.0821
 3210TIP3    H131189   0.420   5.923   7.014  1.2498 -3.8121  1.1354
 3210TIP3    H231190   0.320   5.984   7.109  1.8146 -0.1452 -0.4262
 3211TIP3   OH231191   3.653   2.263   0.265 -0.5789  0.1287 -0.1094
 3211TIP3    H131192   3.691   2.177   0.278 -1.3533 -0.4015 -1.2612
 3211TIP3    H231193   3.721   2.313   0.220 -0.1089  0.1469  0.6096
 3212TIP3   OH231194   0.901   5.530   1.899 -0.0701 -0.0768 -0.4566
 3212TIP3    H131195   0.946   5.584   1.835  1.1694 -0.5190  0.0041
 3212TIP3    H231196   0.830   5.487   1.850  0.4829  0.0510 -1.3827
 3213TIP3   OH231197   4.657   0.068   0.276  0.0489 -0.1950 -0.0259
 3213TIP3    H131198   4.727   0.087   0.338  0.9589 -0.7827 -0.8441
 3213TIP3    H231199   4.627  -0.019   0.300  0.5305 -0.5014 -0.5123
 3214TIP3   OH231200   3.382   4.531   1.050 -0.5992  0.3067  0.5079
 3214TIP3    H131201   3.368   4.622   1.027  1.5130  0.6759  0.4724
 3214TIP3    H231202   3.438   4.534   1.128  0.0935 -0.9435  0.0869
 3215TIP3   OH231203   3.884   3.537   7.964  0.1268  0.1851 -0.0161
 3215TIP3    H131204   3.818   3.507   7.901 -0.4043  0.3982  0.4284
 3215TIP3    H231205   3.854   3.624   7.990 -0.7803 -0.6903  2.0643
 3216TIP3   OH231206   6.603   3.512   8.194 -0.3467 -0.1545 -0.2040
 3216TIP3    H131207   6.597   3.473   8.107  0.7098 -1.2172  0.1789
 3216TIP3    H231208   6.513   3.541   8.213 -0.3259  1.6522 -2.3016
 3217TIP3   OH231209   2.225   5.041   8.324 -0.1844  0.1733 -0.6269
 3217TIP3    H131210   2.140   5.037   8.279 -0.0641 -3.0022 -0.7726
 3217TIP3    H231211   2.290   5.025   8.256  0.3735  0.1841 -0.1070
 3218TIP3   OH231212   2.995   6.201   0.846  0.2140 -0.8456  0.3202
 3218TIP3    H131213   2.994   6.108   0.823 -0.6610 -0.2825 -2.1496
 3218TIP3    H231214   2.902   6.226   0.852  0.3525  0.4269 -1.7822
 3219TIP3   OH231215   4.663   2.280   8.304 -0.0290 -0.0121  0.0340
 3219TIP3    H131216   4.649   2.371   8.279  0.1975  0.1022  0.3268
 3219TIP3    H231217   4.754   2.262   8.280  0.6533  0.5198  2.0399
 3220TIP3   OH231218   5.621   3.943   8.744  0.2685  0.0261 -0.2176
 3220TIP3    H131219   5.562   3.908   8.677  0.5922  1.9573 -1.6004
 3220TIP3    H231220   5.562   3.982   8.810 -0.0359 -1.3076  0.3313
 3221TIP3   OH231221   6.054   6.499   6.363 -0.5827  0.0537  0.0396
 3221TIP3    H131222   5.995   6.508   6.437  1.1915 -0.2867  1.5531
 3221TIP3    H231223   6.109   6.578   6.366  0.4225 -0.6223 -0.0618
 3222TIP3   OH231224   5.261   2.436   7.670  0.0594  0.5904  0.1060
 3222TIP3    H131225   5.341   2.467   7.627  1.1369 -1.6349  0.3414
 3222TIP3    H231226   5.288   2.413   7.759 -0.8133 -0.2392  0.1781
 3223TIP3   OH231227   1.650   2.290   2.610 -0.2639 -0.2876  0.4133
 3223TIP3    H131228   1.632   2.318   2.700 -1.3636  0.9094 -0.1496
 3223TIP3    H231229   1.593   2.215   2.596 -1.0019  0.2729  0.3401
 3224TIP3   OH231230   5.448   1.661   1.170  1.1964  0.1007 -0.4596
 3224TIP3    H131231   5.522   1.615   1.133  0.5867 -1.4354  0.1580
 3224TIP3    H231232   5.376   1.598   1.166  0.6112  0.5775  1.4362
 3225TIP3   OH231233   6.270   0.602   2.655 -0.1496 -0.5603 -0.6394
 3225TIP3    H131234   6.216   0.648   2.718 -1.9661 -0.0128 -2.4944
 3225TIP3    H231235   6.318   0.671   2.609 -0.9074 -0.6962 -1.6712
 3226TIP3   OH231236   5.447   1.887   7.568  0.2886  0.1309  0.0186
 3226TIP3    H131237   5.387   1.885   7.493  0.0232 -1.4876  0.2425
 3226TIP3    H231238   5.481   1.798   7.573  0.3061  0.2146  1.8269
 3227TIP3   OH231239   3.662   6.635   1.347 -0.1908 -0.3146 -0.4469
 3227TIP3    H131240   3.706   6.657   1.265 -3.0700  0.0131 -2.0334
 3227TIP3    H231241   3.648   6.541   1.343  0.5589 -0.4654  0.1899
 3228TIP3   OH231242   2.889   0.982   8.600 -0.1537 -0.4867  0.1780
 3228TIP3    H131243   2.975   0.981   8.642 -0.5152  0.3804  0.9802
 3228TIP3    H231244   2.851   0.897   8.621  0.7097 -1.1155 -0.6702
 3229TIP3   OH231245   6.490   3.798   1.663 -0.1218  0.6660 -0.1441
 3229TIP3    H131246   6.519   3.888   1.678  0.7337  0.3490  0.2361
 3229TIP3    H231247   6.504   3.755   1.747  0.6125 -0.1005 -0.6355
 3230TIP3   OH231248   2.054   2.534   1.354 -0.4267 -0.4540  0.0093
 3230TIP3    H131249   1.991   2.527   1.426 -1.1947 -0.7516 -0.6748
 3230TIP3    H231250   2.002   2.566   1.280  0.4287  0.2372 -0.3170
 3231TIP3   OH231251   0.064   3.710   1.704 -0.4443  0.0253 -0.0005
 3231TIP3    H131252   0.132   3.642   1.707  0.3151  0.7695 -0.0698
 3231TIP3    H231253   0.001   3.677   1.641  0.6167  0.0156 -1.0887
 3232TIP3   OH231254   3.565   2.946   2.257  0.2463 -0.6383  0.1197
 3232TIP3    H131255   3.473   2.952   2.283  0.6073 -0.1374  1.3885
 3232TIP3    H231256   3.590   3.035   2.235  0.6276 -0.6420  0.5315
 3233TIP3   OH231257   4.626   6.679   0.455  0.4225  0.2028  0.0149
 3233TIP3    H131258   4.610   6.756   0.509 -0.2593  0.0259  0.0787
 3233TIP3    H231259   4.640   6.608   0.518 -0.9889 -0.1298 -0.0179
 3234TIP3   OH231260   0.333   3.677   8.209  0.1096  0.2910  0.1680
 3234TIP3    H131261   0.343   3.582   8.208 -1.8774  0.0192  1.1318
 3234TIP3    H231262   0.331   3.702   8.117 -0.2387 -0.7132 -0.1119
 3235TIP3   OH231263   2.864   0.890   7.776  0.2037 -0.5347  0.6185
 3235TIP3    H131264   2.909   0.864   7.696 -0.4562 -0.9882  0.3849
 3235TIP3    H231265   2.898   0.978   7.796 -0.9086  0.3272 -1.1234
 3236TIP3   OH231266   4.614   6.765   8.150 -0.6130  0.0490  0.7300
 3236TIP3    H131267   4.576   6.731   8.069  0.3939 -0.3374  0.4017
 3236TIP3    H231268   4.656   6.847   8.125 -0.3848 -0.0195  0.8783
 3237TIP3   OH231269   0.350   0.421   7.618 -0.2398  0.4483 -0.0892
 3237TIP3    H131270   0.366   0.373   7.699  2.0739  0.3728 -0.5295
 3237TIP3    H231271   0.355   0.354   7.549  1.0037  0.9551 -0.5295
 3238TIP3   OH231272   2.365   3.367   1.592  0.4397 -0.0797 -0.9727
 3238TIP3    H131273   2.442   3.372   1.649  0.7601 -2.2347 -1.1298
 3238TIP3    H231274   2.394   3.407   1.510  0.1350  2.5787  0.1148
 3239TIP3   OH231275   5.376   1.310   2.364 -0.0408 -0.0107  0.0280
 3239TIP3    H131276   5.386   1.250   2.438  2.1488 -0.1740 -0.3161
 3239TIP3    H231277   5.395   1.257   2.287  4.9670  1.4373 -0.1492
 3240TIP3   OH231278   4.667   6.422   0.549  0.2910 -0.1340  0.0381
 3240TIP3    H131279   4.689   6.371   0.627  0.9414  1.2964  0.8323
 3240TIP3    H231280   4.588   6.380   0.515 -0.7926 -0.0509  2.2109
 3241TIP3   OH231281   4.976   2.704   8.738  0.0650  0.3004 -0.1791
 3241TIP3    H131282   4.989   2.792   8.705  2.0251  0.1327  0.0258
 3241TIP3    H231283   4.932   2.657   8.667  1.2242  0.8108 -1.2642
 3242TIP3   OH231284   2.321   6.649   1.712 -0.0262  0.2360  0.0205
 3242TIP3    H131285   2.414   6.646   1.733  0.4673 -1.7390 -2.0381
 3242TIP3    H231286   2.309   6.734   1.669  1.0476  0.1095 -0.5639
 3243TIP3   OH231287   0.644   0.982   2.224  0.1175 -0.2760 -0.0222
 3243TIP3    H131288   0.691   1.053   2.268 -1.0925  0.8601 -0.4866
 3243TIP3    H231289   0.552   0.997   2.247 -0.5365  0.1645 -2.5614
 3244TIP3   OH231290   2.699   6.450   7.940  0.4697 -0.1385 -0.0609
 3244TIP3    H131291   2.619   6.438   7.990  0.9002  1.5785  1.1269
 3244TIP3    H231292   2.679   6.520   7.878  0.5038 -0.9778 -1.0373
 3245TIP3   OH231293   1.089   5.042   0.029 -0.3243  0.4313  0.3092
 3245TIP3    H131294   1.003   5.068  -0.004 -1.2758 -0.7580  1.7412
 3245TIP3    H231295   1.113   4.965  -0.022  1.2048  2.2443 -1.9572
 3246TIP3   OH231296   4.484   2.871   1.431 -0.1309 -0.3081  0.1646
 3246TIP3    H131297   4.477   2.954   1.477  1.7413 -0.8658  1.5899
 3246TIP3    H231298   4.394   2.840   1.422 -0.7584  1.2971  0.6479
 3247TIP3   OH231299   5.886   2.155   1.894  0.3771  0.1035 -0.6257
 3247TIP3    H131300   5.929   2.187   1.815  0.1713 -0.3839 -0.9365
 3247TIP3    H231301   5.955   2.110   1.943  0.2202 -0.7157 -1.1444
 3248TIP3   OH231302   1.523   1.808   1.885 -0.3355  0.4038 -0.9764
 3248TIP3    H131303   1.492   1.820   1.975 -1.7800 -0.6798 -1.2963
 3248TIP3    H231304   1.454   1.846   1.831  0.4508  0.9030 -1.6542
 3249TIP3   OH231305   0.793   3.413   0.955 -0.3949  0.1327  0.0340
 3249TIP3    H131306   0.760   3.390   0.868  1.4692 -1.4357 -0.3150
 3249TIP3    H231307   0.856   3.344   0.976 -1.6131 -0.2232  3.1517
 3250TIP3   OH231308   4.746   0.860   8.179 -0.6206 -0.0050 -0.1262
 3250TIP3    H131309   4.717   0.809   8.255  0.1915  0.2522  0.3764
 3250TIP3    H231310   4.840   0.842   8.174 -0.3111  1.4773  0.0802
 3251TIP3   OH231311   0.180   5.118   7.199 -0.7773 -0.3111  0.0573
 3251TIP3    H131312   0.153   5.158   7.116  0.0305  1.0298  0.4048
 3251TIP3    H231313   0.252   5.060   7.176 -0.9000 -0.3397 -0.2534
 3252TIP3   OH231314   5.589   5.456   0.646 -0.1930  0.7144 -0.4447
 3252TIP3    H131315   5.541   5.456   0.563 -2.1947  3.3708  0.5812
 3252TIP3    H231316   5.522   5.437   0.712  0.9530  0.6879  0.7402
 3253TIP3   OH231317   0.567   5.513   6.775  0.0112  0.3585 -0.0235
 3253TIP3    H131318   0.477   5.497   6.745  0.3374 -0.7660 -0.4317
 3253TIP3    H231319   0.619   5.516   6.695  0.8899 -2.6396  0.3355
 3254TIP3   OH231320   0.726   2.970   1.257  0.0709  0.2858  0.1479
 3254TIP3    H131321   0.633   2.951   1.246 -0.1525  1.5394 -0.2640
 3254TIP3    H231322   0.734   2.998   1.348 -0.0079  0.4271  0.1123
 3255TIP3   OH231323   0.463   3.406   8.148  0.0006  0.0709  0.4328
 3255TIP3    H131324   0.533   3.341   8.151  0.1771  0.2834  2.3136
 3255TIP3    H231325   0.385   3.360   8.181 -0.2227  0.4182  0.4001
 3256TIP3   OH231326   1.771   4.721   8.706  0.3447 -0.2613  0.0636
 3256TIP3    H131327   1.800   4.692   8.619 -0.7041 -1.6277  0.1245
 3256TIP3    H231328   1.748   4.813   8.694  2.7221  0.3484 -0.4410
 3257TIP3   OH231329   2.310   2.440   7.239  0.3614  0.2261 -0.2959
 3257TIP3    H131330   2.224   2.420   7.201  0.1666 -1.1668  0.7778
 3257TIP3    H231331   2.341   2.515   7.189 -2.0228  1.6087  0.0957
 3258TIP3   OH231332   4.086   5.799   8.323 -0.1122  0.2804  0.1465
 3258TIP3    H131333   4.037   5.739   8.379  1.6098  1.3011  3.0047
 3258TIP3    H231334   4.078   5.884   8.367  0.2301  1.4458 -1.9403
 3259TIP3   OH231335   0.276   4.734   0.338  0.1274 -0.0590 -0.2797
 3259TIP3    H131336   0.237   4.699   0.418  0.7009 -0.9166 -0.3546
 3259TIP3    H231337   0.370   4.724   0.351  0.2336  0.0038 -0.9620
 3260TIP3   OH231338   2.727   5.199   8.270 -0.2119 -0.1277  0.0911
 3260TIP3    H131339   2.754   5.202   8.179 -0.3114 -0.6428  0.0393
 3260TIP3    H231340   2.805   5.172   8.318  0.2407  1.5572  0.3464
 3261TIP3   OH231341   0.205   1.450   7.578 -0.2820  0.2342  0.3347
 3261TIP3    H131342   0.252   1.493   7.507  0.3378  0.8997  1.1203
 3261TIP3    H231343   0.166   1.372   7.538  0.0392  0.6025 -0.7234
 3262TIP3   OH231344   2.827   2.352   8.329  0.6577 -0.1022  0.1676
 3262TIP3    H131345   2.866   2.433   8.295  1.3837 -0.0590  1.0658
 3262TIP3    H231346   2.734   2.371   8.337  1.0900  1.4327  2.4493
 3263TIP3   OH231347   6.392   2.242   7.863 -0.0344  0.1112 -0.7675
 3263TIP3    H131348   6.298   2.244   7.843 -0.3762 -3.0325  0.1296
 3263TIP3    H231349   6.434   2.223   7.779  0.1691  3.8020 -1.6960
 3264TIP3   OH231350   2.260   6.816   0.334  0.1506 -0.4909 -0.3032
 3264TIP3    H131351   2.317   6.838   0.260  0.1403 -0.1628 -0.2158
 3264TIP3    H231352   2.225   6.730   0.312  0.0591 -0.3481 -0.7339
 3265TIP3   OH231353   2.509   3.662   1.820  0.1431 -0.4848  0.1649
 3265TIP3    H131354   2.522   3.753   1.796  0.7409 -0.7843 -0.6818
 3265TIP3    H231355   2.425   3.638   1.780 -0.6636  0.0456  1.4789
 3266TIP3   OH231356   6.579   5.806   1.734  0.1139 -0.0331 -0.0578
 3266TIP3    H131357   6.632   5.728   1.716 -0.4471 -0.4439  0.0403
 3266TIP3    H231358   6.629   5.855   1.799  1.8910  1.1654 -2.1883
 3267TIP3   OH231359   2.623   6.659   1.900  0.2721  0.2809  0.6388
 3267TIP3    H131360   2.612   6.581   1.954 -1.1810  0.4997  0.7026
 3267TIP3    H231361   2.620   6.627   1.810 -0.8840  0.2860  0.6517
 3268TIP3   OH231362   5.546   3.079   7.023 -0.5233  0.5836  0.1984
 3268TIP3    H131363   5.480   3.077   7.093 -1.3331 -1.0714 -0.5562
 3268TIP3    H231364   5.495   3.093   6.943  0.2755  1.2610 -0.2131
 3269TIP3   OH231365   4.837   3.527   8.393 -0.1226 -0.3434 -0.0057
 3269TIP3    H131366   4.788   3.471   8.453  0.8166 -1.1180  0.0567
 3269TIP3    H231367   4.771   3.561   8.332 -1.0113  0.0739  1.1612
 3270TIP3   OH231368   6.461   5.359   2.503 -0.4346 -0.2262  0.5094
 3270TIP3    H131369   6.556   5.347   2.512 -0.4304 -0.5133  0.1017
 3270TIP3    H231370   6.443   5.340   2.411 -0.9819 -0.7911  0.7269
 3271TIP3   OH231371   3.530   4.849   8.684 -0.4180 -0.5544 -0.5612
 3271TIP3    H131372   3.583   4.844   8.763  0.3936 -0.0262 -1.0546
 3271TIP3    H231373   3.446   4.883   8.714 -0.9993 -2.6972  0.4534
 3272TIP3   OH231374   1.996   1.205   8.731  0.0266 -0.6749  0.6127
 3272TIP3    H131375   2.030   1.199   8.821  0.8187  2.2834  0.6154
 3272TIP3    H231376   2.058   1.263   8.686  0.4006 -3.0615 -2.3021
 3273TIP3   OH231377   4.738   5.385   7.950 -0.2869 -0.1286 -0.6566
 3273TIP3    H131378   4.709   5.442   8.021  2.7806 -0.4146  0.9886
 3273TIP3    H231379   4.778   5.445   7.886  0.2680 -0.1881 -0.3640
 3274TIP3   OH231380   4.282   1.853   1.557 -0.2328  0.0340  0.6064
 3274TIP3    H131381   4.376   1.843   1.542 -0.2859  0.0507  0.2605
 3274TIP3    H231382   4.276   1.919   1.626  0.0526 -0.9688  1.6328
 3275TIP3   OH231383   2.249   4.810   7.066 -0.4506 -0.6506 -0.2429
 3275TIP3    H131384   2.248   4.746   6.994  0.4438 -0.3573 -0.5261
 3275TIP3    H231385   2.274   4.892   7.024 -0.9126 -0.2609  0.2425
 3276TIP3   OH231386   2.680   6.694   7.775 -0.2137 -0.2069  0.5841
 3276TIP3    H131387   2.627   6.651   7.707  2.2216 -1.6808 -0.5361
 3276TIP3    H231388   2.654   6.786   7.772  0.5194  0.0299 -3.1962
 3277TIP3   OH231389   0.937   4.141   8.292  0.0733 -0.1381 -0.4545
 3277TIP3    H131390   0.984   4.198   8.232 -1.7418  1.2581 -0.6190
 3277TIP3    H231391   0.844   4.158   8.275 -0.5243 -2.2111  0.3984
 3278TIP3   OH231392   0.798   4.843   7.162  0.7033 -0.0695 -0.7067
 3278TIP3    H131393   0.893   4.852   7.173  0.8382 -0.7437 -1.2126
 3278TIP3    H231394   0.787   4.756   7.122 -0.0350  0.5095 -1.8118
 3279TIP3   OH231395   0.200   3.036   1.002  0.5398 -0.0583 -0.0761
 3279TIP3    H131396   0.165   3.001   0.921  0.2055 -0.1064  0.0876
 3279TIP3    H231397   0.285   3.072   0.978  2.5206 -3.9757  0.3678
 3280TIP3   OH231398   0.783   0.582   1.184  0.4129 -0.0534  0.0867
 3280TIP3    H131399   0.838   0.515   1.144  0.5621  0.5687 -0.7956
 3280TIP3    H231400   0.766   0.550   1.272  1.1252 -0.8690 -0.0557
 3281TIP3   OH231401   1.552   2.527   1.021 -0.5025 -0.0104 -0.3076
 3281TIP3    H131402   1.535   2.578   1.100  0.9028 -2.5447  1.8061
 3281TIP3    H231403   1.640   2.555   0.993 -0.4847  0.0030 -0.2378
 3282TIP3   OH231404   0.646   1.164   0.634  0.0531  0.1792  0.4092
 3282TIP3    H131405   0.556   1.191   0.615  0.2689  0.5805 -0.0788
 3282TIP3    H231406   0.659   1.190   0.725 -0.2742  0.2719  0.4335
 3283TIP3   OH231407   2.667   1.208   6.669 -0.1964  0.1388  0.2168
 3283TIP3    H131408   2.694   1.148   6.600  0.9147 -0.1713  0.8958
 3283TIP3    H231409   2.749   1.243   6.703 -0.7159  0.0622  1.5808
 3284TIP3   OH231410   0.861   4.761   8.646  0.0213  0.3599  0.3221
 3284TIP3    H131411   0.829   4.725   8.564 -0.9058 -0.0928  0.8667
 3284TIP3    H231412   0.933   4.819   8.620  0.5916 -0.7593 -0.6862
 3285TIP3   OH231413   2.725   3.574   0.882 -0.3251 -0.1368  0.3964
 3285TIP3    H131414   2.662   3.563   0.811  1.8398 -0.1208 -1.6642
 3285TIP3    H231415   2.780   3.495   0.878  1.2550  0.9118  0.4965
 3286TIP3   OH231416   1.927   4.862   8.212  0.0218 -0.4590 -0.5197
 3286TIP3    H131417   1.929   4.955   8.231  1.2022 -0.7212  0.8271
 3286TIP3    H231418   1.984   4.851   8.136 -0.8445  0.0068 -1.2540
 3287TIP3   OH231419   3.455   1.006   1.104 -0.5037 -0.1175  0.3706
 3287TIP3    H131420   3.385   1.070   1.119  0.9348  1.7514 -0.5545
 3287TIP3    H231421   3.434   0.934   1.163 -1.2053  1.9875  2.8857
 3288TIP3   OH231422   2.541   2.088   7.235  0.2321 -0.2377  0.2697
 3288TIP3    H131423   2.467   2.105   7.294 -0.2456  1.0581 -0.6637
 3288TIP3    H231424   2.504   2.097   7.147  1.6857  1.4503 -0.2204
 3289TIP3   OH231425   3.268   0.238   2.560  0.1207  0.4961 -0.4833
 3289TIP3    H131426   3.250   0.190   2.641 -0.4749  1.1324 -0.2311
 3289TIP3    H231427   3.304   0.172   2.500 -0.9540 -0.3270 -0.2442
 3290TIP3   OH231428   5.969   5.551   0.172  0.2364  0.0105 -0.5990
 3290TIP3    H131429   5.976   5.641   0.204  2.7154 -0.3420  0.0657
 3290TIP3    H231430   5.961   5.559   0.077 -4.1363  0.9760 -0.3468
 3291TIP3   OH231431   1.837   2.589   8.154  0.0221  0.1801 -0.0314
 3291TIP3    H131432   1.852   2.584   8.059 -1.1320  1.3292 -0.2974
 3291TIP3    H231433   1.810   2.501   8.179  0.1868 -0.0925 -0.7969
 3292TIP3   OH231434   3.411   0.717   1.879  0.5376  0.0878 -0.4489
 3292TIP3    H131435   3.481   0.669   1.922 -2.0079 -2.2878  1.4365
 3292TIP3    H231436   3.370   0.769   1.948 -0.8820 -0.2876 -0.9596
 3293TIP3   OH231437   5.495   0.480   0.132  0.1221 -0.8534 -0.2045
 3293TIP3    H131438   5.541   0.560   0.104 -0.2297  0.0896  1.7333
 3293TIP3    H231439   5.433   0.462   0.062  0.4275  0.4090 -0.8304
 3294TIP3   OH231440   4.428   4.950   1.218  0.5293  0.4651  0.8049
 3294TIP3    H131441   4.500   5.003   1.185  0.7173  0.9413  1.9261
 3294TIP3    H231442   4.362   4.951   1.149  0.7396  1.7502  0.6084
 3295TIP3   OH231443   5.469   0.823   1.648  0.0597 -0.0404  0.0934
 3295TIP3    H131444   5.433   0.744   1.607 -0.0747 -0.2973  0.7019
 3295TIP3    H231445   5.447   0.814   1.740  1.4699 -0.0697  0.4398
 3296TIP3   OH231446   2.130   4.253   1.617  0.0812  0.0213  0.5257
 3296TIP3    H131447   2.130   4.347   1.596  0.1108  0.9045  3.7974
 3296TIP3    H231448   2.124   4.209   1.533  2.6409  2.9001 -1.3813
 3297TIP3   OH231449   5.225   4.479   0.323  0.2993  0.1874 -0.0959
 3297TIP3    H131450   5.169   4.451   0.251 -0.6239  1.2683  0.1849
 3297TIP3    H231451   5.174   4.546   0.369  2.1164  1.8158 -0.3180
 3298TIP3   OH231452   4.417   6.753   7.953 -0.8415  0.5131 -0.2463
 3298TIP3    H131453   4.361   6.722   7.882 -1.8328  0.1376  0.6678
 3298TIP3    H231454   4.362   6.816   8.000  0.1236  1.4660 -0.3378
 3299TIP3   OH231455   1.655   5.580   8.345 -0.4245  0.6198  0.5680
 3299TIP3    H131456   1.679   5.644   8.413  1.6656  0.7010 -0.1714
 3299TIP3    H231457   1.605   5.631   8.281  2.1608  1.9280 -0.5863
 3300TIP3   OH231458   0.384   5.487   0.873 -0.5333 -0.1656  0.1941
 3300TIP3    H131459   0.429   5.527   0.799 -1.7616  1.5130  0.2812
 3300TIP3    H231460   0.452   5.441   0.921  1.1836  2.4095  0.4467
 3301TIP3   OH231461   3.281   0.850   0.774  0.8709 -0.1669 -0.6518
 3301TIP3    H131462   3.217   0.896   0.720 -0.6645  0.4411  1.5477
 3301TIP3    H231463   3.336   0.920   0.809 -0.0292 -0.1861  0.8794
 3302TIP3   OH231464   1.872   0.352   7.129  0.0423  0.0173 -0.1354
 3302TIP3    H131465   1.953   0.351   7.179 -0.3001  0.3733  0.4385
 3302TIP3    H231466   1.877   0.431   7.076  0.7426 -0.7505 -1.2476
 3303TIP3   OH231467   4.011   5.502   8.729  0.4422  0.7246 -0.2490
 3303TIP3    H131468   3.966   5.418   8.732 -0.4655  1.1706 -0.7431
 3303TIP3    H231469   4.047   5.514   8.817 -1.3434  0.8293  0.5189
 3304TIP3   OH231470   6.694   2.625   1.786  0.0692 -0.1064 -0.0864
 3304TIP3    H131471   6.639   2.580   1.851 -1.0840  0.0367 -0.9238
 3304TIP3    H231472   6.663   2.715   1.787  1.5100  0.4063  0.6714
 3305TIP3   OH231473   2.133   3.110   0.901  0.0798 -0.3610  0.1408
 3305TIP3    H131474   2.131   3.039   0.837 -1.3656 -0.1773 -0.0405
 3305TIP3    H231475   2.082   3.077   0.976 -1.8282  0.9569 -0.5062
 3306TIP3   OH231476   6.208   5.946   7.251 -0.1809  0.0765 -0.1789
 3306TIP3    H131477   6.211   5.938   7.347 -2.3209 -0.2434 -0.0787
 3306TIP3    H231478   6.253   6.027   7.232  1.1359 -0.3326  1.0062
 3307TIP3   OH231479   2.513   3.969   7.307  0.0044  0.2963 -0.0110
 3307TIP3    H131480   2.476   4.024   7.377  1.1200 -0.7047  1.4427
 3307TIP3    H231481   2.437   3.931   7.264 -0.7551 -1.1357  2.4226
 3308TIP3   OH231482   0.223   2.531   7.526  0.2144  0.2025  0.2492
 3308TIP3    H131483   0.154   2.596   7.511  2.6263  3.0086  0.5856
 3308TIP3    H231484   0.179   2.461   7.575 -2.4061  1.7916  0.3639
 3309TIP3   OH231485   5.458   5.570   7.545  0.2662 -0.4025  0.2179
 3309TIP3    H131486   5.458   5.618   7.628  1.1526 -0.5906  0.3342
 3309TIP3    H231487   5.493   5.484   7.567  0.1844 -0.5675 -0.2917
 3310TIP3   OH231488   3.701   0.818   0.670  0.0683  0.2339 -0.2310
 3310TIP3    H131489   3.700   0.723   0.682  2.6058  0.1859  0.2731
 3310TIP3    H231490   3.729   0.853   0.755 -2.1082  1.5709  0.0030
 3311TIP3   OH231491   4.726   5.205   0.557  0.0602  0.2733 -0.5560
 3311TIP3    H131492   4.727   5.298   0.581  3.1865 -0.0076  0.9771
 3311TIP3    H231493   4.695   5.203   0.467 -0.1108  2.7986 -0.6152
 3312TIP3   OH231494   0.376   1.600   6.151 -0.3706 -0.0677 -0.4277
 3312TIP3    H131495   0.466   1.603   6.119 -0.6166  0.4282 -1.0896
 3312TIP3    H231496   0.334   1.676   6.111 -1.5577 -1.2627 -1.5622
 3313TIP3   OH231497   6.662   2.916   2.556 -0.0067  0.4377 -0.0572
 3313TIP3    H131498   6.696   3.001   2.528 -0.1241 -0.0483 -1.8535
 3313TIP3    H231499   6.738   2.869   2.588  0.2001  0.9464  0.2086
 3314TIP3   OH231500   4.058   5.470   0.781  0.1338 -0.0800  1.0510
 3314TIP3    H131501   3.983   5.436   0.732  0.1875 -0.9141  1.5365
 3314TIP3    H231502   4.036   5.562   0.797  0.8887  0.7731 -2.0790
 3315TIP3   OH231503   5.366   5.537   8.336 -0.3044  0.4973  0.2857
 3315TIP3    H131504   5.320   5.485   8.270 -0.3080 -0.4387  1.0030
 3315TIP3    H231505   5.391   5.474   8.403  0.5290  1.2807  0.7335
 3316TIP3   OH231506   0.156   2.830   7.780  0.0752 -0.3366  0.4742
 3316TIP3    H131507   0.204   2.892   7.726  1.0129 -0.0729  1.5869
 3316TIP3    H231508   0.104   2.780   7.717  0.3476  0.6397 -0.5715
 3317TIP3   OH231509   4.231   5.911   1.423 -0.2292 -0.3264  0.1960
 3317TIP3    H131510   4.205   5.883   1.335  1.9888 -3.0697  0.2588
 3317TIP3    H231511   4.251   5.829   1.469  1.6267  1.1683  2.2572
 3318TIP3   OH231512   4.925   1.298   1.520  0.1853 -0.0606  0.1843
 3318TIP3    H131513   4.900   1.237   1.589 -0.9042  0.8223  0.6167
 3318TIP3    H231514   4.966   1.244   1.453 -1.0085 -1.3039  0.4193
 3319TIP3   OH231515   5.936   4.973   2.220 -0.5397  0.3291 -0.0350
 3319TIP3    H131516   5.975   4.888   2.201 -1.7873  0.2130 -2.4000
 3319TIP3    H231517   5.995   5.036   2.179 -0.7406  0.4337 -0.1667
 3320TIP3   OH231518   1.726   2.359   8.273  0.0939 -0.1220 -0.3013
 3320TIP3    H131519   1.675   2.301   8.217  0.7346 -1.1137  0.1131
 3320TIP3    H231520   1.814   2.322   8.272  0.5688  0.9669 -0.1853
 3321TIP3   OH231521   1.779   4.060   0.391 -0.2193 -0.1454 -0.4922
 3321TIP3    H131522   1.863   4.082   0.429 -1.5335  0.5198  2.2600
 3321TIP3    H231523   1.756   4.136   0.337  0.0709  0.5620  0.3626
 3322TIP3   OH231524   4.664   6.102   1.710  0.1946 -0.3163 -0.4592
 3322TIP3    H131525   4.655   6.145   1.796 -0.2087 -1.2977  0.0088
 3322TIP3    H231526   4.577   6.066   1.692  0.1089  0.4233 -1.5932
 3323TIP3   OH231527   6.132   3.743   2.072  0.1914 -0.0031  0.4109
 3323TIP3    H131528   6.112   3.821   2.124  0.8909  0.1311  0.4877
 3323TIP3    H231529   6.209   3.705   2.113  1.6028  0.8607 -1.2775
 3324TIP3   OH231530   2.252   2.187   8.750  0.0436 -0.3284 -0.0421
 3324TIP3    H131531   2.177   2.246   8.754  0.2375 -0.1440  1.2269
 3324TIP3    H231532   2.327   2.242   8.771  0.0774 -1.2343  2.6340
 3325TIP3   OH231533   4.609   0.423   8.246 -0.1105  0.7693  0.0197
 3325TIP3    H131534   4.701   0.445   8.262  0.4995 -0.2580 -1.7323
 3325TIP3    H231535   4.596   0.445   8.153 -1.4628  0.3085  0.0870
 3326TIP3   OH231536   4.554   1.784   1.485  0.0715  0.3474 -0.0756
 3326TIP3    H131537   4.553   1.694   1.518  0.8383  0.2336 -0.3488
 3326TIP3    H231538   4.613   1.831   1.543 -1.0385  0.9090  0.6272
 3327TIP3   OH231539   2.430   1.325   7.502  0.3339 -0.0190 -0.0701
 3327TIP3    H131540   2.387   1.350   7.583 -0.9758 -0.5823 -0.5607
 3327TIP3    H231541   2.524   1.323   7.523  0.0514  0.3506  1.2699
 3328TIP3   OH231542   5.257   6.368   6.505 -0.6096  0.0285  0.1628
 3328TIP3    H131543   5.344   6.400   6.480 -0.4218  0.2930  1.0938
 3328TIP3    H231544   5.196   6.432   6.470 -0.2464  1.3829  1.8644
 3329TIP3   OH231545   4.842   0.964   0.063 -0.9182  0.0063  0.1695
 3329TIP3    H131546   4.891   0.887   0.091  0.9506  0.8253 -0.6496
 3329TIP3    H231547   4.869   1.034   0.123  0.2757  0.8626 -1.2677
 3330TIP3   OH231548   5.138   5.883   0.810  0.0064  0.2189 -0.3733
 3330TIP3    H131549   5.063   5.876   0.752  0.0099  0.1296 -0.3667
 3330TIP3    H231550   5.101   5.876   0.898  0.1536 -0.9930 -0.3942
 3331TIP3   OH231551   1.415   0.769   1.787 -0.0508  0.4448 -0.0511
 3331TIP3    H131552   1.505   0.757   1.815 -0.0745 -0.8126 -0.4788
 3331TIP3    H231553   1.381   0.681   1.773 -1.3107  0.8915 -0.0288
 3332TIP3   OH231554   6.511   3.241   7.277  0.6222 -0.1422 -0.5120
 3332TIP3    H131555   6.537   3.286   7.358 -0.1328 -0.8852  0.1537
 3332TIP3    H231556   6.425   3.276   7.257  0.4955 -0.5007 -0.5932
 3333TIP3   OH231557   5.695   0.810   7.539 -0.1648 -0.2600  0.3606
 3333TIP3    H131558   5.763   0.868   7.503  0.6518 -0.2637  1.7980
 3333TIP3    H231559   5.740   0.762   7.609 -2.0414  0.9718  2.5350
 3334TIP3   OH231560   4.274   0.302   1.371 -0.2746  0.2310  0.2487
 3334TIP3    H131561   4.228   0.269   1.293 -0.2398  1.9435 -0.5360
 3334TIP3    H231562   4.206   0.345   1.422 -0.4886 -1.7176  1.7073
 3335TIP3   OH231563   0.009   1.203   7.122  0.6789 -0.3198 -0.6483
 3335TIP3    H131564   0.079   1.141   7.143  0.0820 -0.7972 -0.0031
 3335TIP3    H231565   0.016   1.216   7.027  2.0564  0.1704 -0.5027
 3336TIP3   OH231566   0.920   6.162   8.579  0.5518 -0.6279 -0.7891
 3336TIP3    H131567   0.934   6.146   8.486 -3.0839  0.7361 -1.7524
 3336TIP3    H231568   0.827   6.143   8.593  1.0270 -1.0706  2.6799
 3337TIP3   OH231569   0.129   3.546   8.618 -0.1654  0.6975  0.3990
 3337TIP3    H131570   0.193   3.614   8.599  0.4740  0.2851  1.0233
 3337TIP3    H231571   0.148   3.519   8.708 -1.0459  0.3806  0.5062
 3338TIP3   OH231572   0.727   1.648   1.680 -0.9820  0.3049  0.3670
 3338TIP3    H131573   0.638   1.654   1.713 -1.9499  0.6250 -2.1425
 3338TIP3    H231574   0.735   1.558   1.647 -1.0339  0.8119 -1.0909
 3339TIP3   OH231575   5.467   5.082   0.684 -0.9672  0.4237 -0.4757
 3339TIP3    H131576   5.410   5.121   0.750 -0.2525 -0.5747  0.7630
 3339TIP3    H231577   5.553   5.076   0.726 -0.8782 -1.7904 -0.8596
 3340TIP3   OH231578   0.244   1.623   8.069 -0.2047  0.2422  0.3236
 3340TIP3    H131579   0.291   1.597   7.989 -1.6994  0.7686 -0.7659
 3340TIP3    H231580   0.152   1.606   8.049 -0.5672 -0.1983  2.1899
 3341TIP3   OH231581   1.548   0.578   8.713  0.6397  0.1295  0.5815
 3341TIP3    H131582   1.495   0.544   8.641  0.0784  1.7462  0.1894
 3341TIP3    H231583   1.491   0.572   8.789  1.8477 -3.3085  1.3830
 3342TIP3   OH231584   1.660   4.944   1.650 -0.2473 -0.0802  0.1215
 3342TIP3    H131585   1.641   4.857   1.684  0.8259  0.0552  1.1172
 3342TIP3    H231586   1.754   4.944   1.634 -0.4305  0.4991 -1.0488
 3343TIP3   OH231587   6.291   1.486   2.279  0.7621 -0.2260  0.3178
 3343TIP3    H131588   6.367   1.428   2.271 -0.3918 -1.8151  0.4966
 3343TIP3    H231589   6.303   1.550   2.208  2.5553 -0.0428  0.7282
 3344TIP3   OH231590   5.131   0.547   8.335  0.3796 -0.4084  0.1707
 3344TIP3    H131591   5.165   0.553   8.246 -0.7891  1.7989 -0.1829
 3344TIP3    H231592   5.209   0.545   8.391  1.1547  2.0341 -0.7371
 3345TIP3   OH231593   6.787   3.365   0.878  0.3986  0.4662 -0.1661
 3345TIP3    H131594   6.833   3.320   0.949 -0.2386 -1.2285 -0.7696
 3345TIP3    H231595   6.855   3.382   0.812  0.6811  0.5839  0.1521
 3346TIP3   OH231596   3.964   6.170   2.084  0.3279  0.2646  0.1765
 3346TIP3    H131597   3.875   6.137   2.073 -0.1024  1.1336  0.8792
 3346TIP3    H231598   4.020   6.094   2.071 -0.5978 -0.6088  1.1442
 3347TIP3   OH231599   5.658   1.063   0.695  0.0348 -0.1776 -0.1613
 3347TIP3    H131600   5.679   1.021   0.612  1.1339  0.3825 -0.1819
 3347TIP3    H231601   5.742   1.080   0.735 -0.4562  0.4437  0.6303
 3348TIP3   OH231602   6.238   4.671   8.035  0.0967  0.0262  0.1917
 3348TIP3    H131603   6.227   4.652   7.942 -0.5810  0.4917  0.1703
 3348TIP3    H231604   6.152   4.701   8.064  0.6724  1.3472  0.6077
 3349TIP3   OH231605   0.464   2.670   2.857  0.1411 -0.4877  0.2759
 3349TIP3    H131606   0.481   2.691   2.949 -2.1816 -0.0456  0.6766
 3349TIP3    H231607   0.543   2.699   2.811  0.5671  1.1312  1.8927
 3350TIP3   OH231608   5.640   4.189   1.033 -0.0123 -0.1939  0.0501
 3350TIP3    H131609   5.690   4.117   1.070  0.3518  0.3952  0.7385
 3350TIP3    H231610   5.578   4.213   1.102 -0.2468  0.0353 -0.2389
 3351TIP3   OH231611   1.981   0.821   8.137  0.7436  0.7064  0.1537
 3351TIP3    H131612   1.988   0.820   8.041  1.2367 -1.2426  0.1778
 3351TIP3    H231613   1.939   0.738   8.159  1.9165  0.4767  1.7006
 3352TIP3   OH231614   0.319   1.581   1.433 -0.2647  0.1869 -0.3127
 3352TIP3    H131615   0.231   1.598   1.399 -0.0318  0.1680 -0.9267
 3352TIP3    H231616   0.356   1.668   1.450 -0.4812  0.1909  0.1676
 3353TIP3   OH231617   1.338   3.257   7.479  0.2237  0.5519  0.1783
 3353TIP3    H131618   1.249   3.221   7.486  0.2279  0.4391 -0.2680
 3353TIP3    H231619   1.326   3.338   7.430  0.5476 -0.2465 -1.2855
 3354TIP3   OH231620   1.289   5.036   7.554  0.0242  0.6175 -0.5408
 3354TIP3    H131621   1.299   5.111   7.496 -0.4801  2.1717  1.2795
 3354TIP3    H231622   1.348   5.054   7.628 -0.4276 -0.5574  0.1396
 3355TIP3   OH231623   0.817   0.194   0.179 -0.4844 -0.2814  0.6435
 3355TIP3    H131624   0.847   0.178   0.268  1.6740 -0.2665 -0.0245
 3355TIP3    H231625   0.858   0.125   0.127 -0.0199  0.9067 -0.6200
 3356TIP3   OH231626   5.486   3.566   1.162 -0.5264 -0.1129 -0.6103
 3356TIP3    H131627   5.550   3.628   1.196 -0.7746 -1.3918  2.4827
 3356TIP3    H231628   5.538   3.502   1.114  0.1793  0.3273 -0.4435
 3357TIP3   OH231629   6.143   6.026   7.517  0.4971 -0.3775 -0.2901
 3357TIP3    H131630   6.063   6.077   7.532 -0.3587 -1.3958 -1.2312
 3357TIP3    H231631   6.125   5.941   7.558  1.2397 -0.5049 -0.2125
 3358TIP3   OH231632   0.967   6.772   2.136  0.0407 -0.2713 -0.4419
 3358TIP3    H131633   0.892   6.722   2.105 -0.9458  1.1114 -0.4019
 3358TIP3    H231634   0.933   6.824   2.209  1.8167 -1.9346  1.7139
 3359TIP3   OH231635   4.010   3.063   1.373  0.5349 -0.1336 -0.2625
 3359TIP3    H131636   3.995   3.043   1.280  0.5956 -0.6148 -0.1734
 3359TIP3    H231637   4.056   3.147   1.373  0.6347 -0.1869 -0.6745
 3360TIP3   OH231638   0.874   3.360   0.115  0.0940 -0.4090  0.5229
 3360TIP3    H131639   0.830   3.380   0.033  0.0985  2.0033  1.0284
 3360TIP3    H231640   0.959   3.324   0.089 -0.3150 -0.6626 -0.4891
 3361TIP3   OH231641   3.261   5.938   2.752 -0.2784  0.4776 -0.3918
 3361TIP3    H131642   3.202   5.872   2.788  1.9973 -0.4851  1.9263
 3361TIP3    H231643   3.349   5.907   2.775  0.9940  3.3695 -0.8537
 3362TIP3   OH231644   2.413   5.044   1.213  0.0208 -0.1564 -0.2343
 3362TIP3    H131645   2.388   5.072   1.126 -0.4449  2.1276  0.5575
 3362TIP3    H231646   2.342   5.074   1.270  1.3926  0.5492  1.2065
 3363TIP3   OH231647   3.759   6.107   8.435  0.4841 -0.2139  0.2386
 3363TIP3    H131648   3.837   6.080   8.387  0.2860 -0.3082 -0.0302
 3363TIP3    H231649   3.742   6.035   8.495 -0.3843 -0.9566 -0.8800
 3364TIP3   OH231650   0.200   2.137   0.118  0.4171 -0.1862  0.0882
 3364TIP3    H131651   0.218   2.166   0.029 -2.1705  0.9589 -0.1536
 3364TIP3    H231652   0.119   2.086   0.111  0.0846  0.0338  1.7884
 3365TIP3   OH231653   6.472   0.633   0.788 -0.0378  0.3462  0.5400
 3365TIP3    H131654   6.466   0.539   0.808  0.1276 -0.0812 -1.2502
 3365TIP3    H231655   6.538   0.639   0.720 -0.3299  1.7272  0.3532
 3366TIP3   OH231656   4.631   4.004   7.269  0.4368 -0.1632 -0.3387
 3366TIP3    H131657   4.665   4.045   7.189 -2.0478  1.9944 -0.4354
 3366TIP3    H231658   4.671   4.055   7.340  3.6146 -2.8483  0.0213
 3367TIP3   OH231659   3.569   5.261   0.447  0.4467  1.0509  0.1128
 3367TIP3    H131660   3.575   5.301   0.360 -0.7694  0.6629 -0.1646
 3367TIP3    H231661   3.519   5.324   0.499 -0.8136  0.2616 -0.1159
 3368TIP3   OH231662   3.246   4.099   0.837  0.5292  0.1123 -0.0529
 3368TIP3    H131663   3.188   4.105   0.913 -0.3643  2.1618 -0.8262
 3368TIP3    H231664   3.233   4.181   0.790  1.8676 -0.6333 -1.8574
 3369TIP3   OH231665   4.765   6.077   2.534  0.1103  0.1761 -0.1916
 3369TIP3    H131666   4.773   6.170   2.557 -1.3240  0.4136 -0.5257
 3369TIP3    H231667   4.828   6.064   2.464  0.7626  0.7451  0.2812
 3370TIP3   OH231668   0.914   3.739   8.761  0.1335 -0.3707  0.4090
 3370TIP3    H131669   1.004   3.769   8.757 -0.0106  0.4575  2.2548
 3370TIP3    H231670   0.900   3.716   8.853 -2.2492  1.9993  0.7962
 3371TIP3   OH231671   1.963   0.606   7.936  0.1992  0.4384  0.1736
 3371TIP3    H131672   1.963   0.694   7.897 -0.9326  0.6196  0.5542
 3371TIP3    H231673   2.029   0.558   7.885 -1.3031  0.6232 -2.1324
 3372TIP3   OH231674   1.447   0.134   8.012  0.6712 -0.1298 -0.1100
 3372TIP3    H131675   1.424   0.162   7.923  1.0653  1.4267  0.2492
 3372TIP3    H231676   1.365   0.098   8.047  0.7681 -1.8245 -1.4347
 3373TIP3   OH231677   3.104   5.405   0.285 -0.5149 -0.3137  0.1439
 3373TIP3    H131678   3.160   5.361   0.221 -0.8486 -0.5502  0.0051
 3373TIP3    H231679   3.018   5.362   0.274 -0.1744 -1.5657  1.9132
 3374TIP3   OH231680   2.819   0.917   1.159 -0.6001  0.0336 -0.0911
 3374TIP3    H131681   2.786   0.855   1.224  1.0380  0.0871  0.8361
 3374TIP3    H231682   2.914   0.907   1.162 -0.4454  0.4688 -2.0768
 3375TIP3   OH231683   4.311   5.653   1.536 -0.1146  0.0172  0.0756
 3375TIP3    H131684   4.386   5.600   1.564 -0.0523 -0.9042 -1.6911
 3375TIP3    H231685   4.237   5.592   1.537 -0.5010  0.4878  0.2087
 3376TIP3   OH231686   1.912   2.397   7.716  0.8667 -0.1180  0.2317
 3376TIP3    H131687   1.896   2.347   7.796 -0.5933 -0.2583 -0.1227
 3376TIP3    H231688   1.896   2.488   7.740  0.2473 -0.1782  0.0727
 3377TIP3   OH231689   0.083   5.441   8.228 -0.0309  0.2858  0.2864
 3377TIP3    H131690   0.013   5.506   8.228 -1.3897 -1.1025  1.4443
 3377TIP3    H231691   0.164   5.492   8.224 -1.0288  1.9152 -3.1685
 3378TIP3   OH231692   5.366   0.929   2.820  0.2645  0.1458 -0.6429
 3378TIP3    H131693   5.399   0.918   2.731 -0.1399 -0.6037 -0.7053
 3378TIP3    H231694   5.444   0.926   2.876  0.9364  3.6887 -1.1537
 3379TIP3   OH231695   3.177   5.211   7.488 -0.0093 -0.4553  0.2043
 3379TIP3    H131696   3.141   5.263   7.416  0.2492  2.1010  1.8151
 3379TIP3    H231697   3.239   5.152   7.446 -1.2217 -0.3715 -1.8550
 3380TIP3   OH231698   1.144   6.340   2.234 -0.3150  0.1844  0.3434
 3380TIP3    H131699   1.127   6.330   2.140 -0.9171  1.0264  0.3477
 3380TIP3    H231700   1.059   6.365   2.271 -0.1556 -0.4503  1.1697
 3381TIP3   OH231701   3.958   3.033   7.375  0.2594 -0.0647  0.2065
 3381TIP3    H131702   3.925   3.104   7.320  2.7248  1.6268  0.7298
 3381TIP3    H231703   3.926   3.054   7.462 -0.7598 -0.8029  0.0204
 3382TIP3   OH231704   4.622   2.756   8.558  0.6514 -0.3969  1.0973
 3382TIP3    H131705   4.606   2.830   8.616 -1.4578  2.2768 -2.4862
 3382TIP3    H231706   4.718   2.750   8.552  0.9110  2.7140  0.8253
 3383TIP3   OH231707   1.447   0.440   2.578 -0.3942  0.5596  0.4634
 3383TIP3    H131708   1.460   0.363   2.633 -0.5338 -0.9507 -1.4983
 3383TIP3    H231709   1.497   0.509   2.621  1.6443 -1.1961  1.0960
 3384TIP3   OH231710   5.649   4.493   8.752  0.3223 -0.0081 -0.6177
 3384TIP3    H131711   5.598   4.527   8.825 -0.1378  1.0610 -1.4187
 3384TIP3    H231712   5.596   4.421   8.717  0.4335 -0.3656 -0.0557
 3385TIP3   OH231713   6.097   1.069   2.169 -0.2989  0.3124 -0.2738
 3385TIP3    H131714   6.028   1.088   2.105 -1.4186 -1.3995  0.3270
 3385TIP3    H231715   6.087   0.975   2.188 -0.2093  0.7683  2.5819
 3386TIP3   OH231716   4.844   2.371   8.017  0.0919  0.1646 -0.1247
 3386TIP3    H131717   4.842   2.461   7.984 -0.9422  0.2458  0.1024
 3386TIP3    H231718   4.907   2.326   7.962  2.2098  1.5052  1.0322
 3387TIP3   OH231719   4.278   2.537   7.738 -0.0821 -0.3449  0.5202
 3387TIP3    H131720   4.242   2.505   7.656  1.6789  1.1381 -0.9070
 3387TIP3    H231721   4.280   2.460   7.795 -1.0650 -1.4621 -0.8989
 3388TIP3   OH231722   5.877   4.213   1.565  0.1545  0.0317  0.0538
 3388TIP3    H131723   5.934   4.221   1.642 -0.1582 -0.0553  0.2999
 3388TIP3    H231724   5.817   4.287   1.572 -1.8058 -1.5678  1.5435
 3389TIP3   OH231725   4.239   4.783   7.910 -0.0867 -0.4378 -0.5013
 3389TIP3    H131726   4.319   4.741   7.943 -0.9363 -1.2686  0.5846
 3389TIP3    H231727   4.261   4.876   7.907  0.2759 -0.3573  1.9288
 3390TIP3   OH231728   6.143   0.613   8.453 -0.3332 -0.0825  0.2388
 3390TIP3    H131729   6.238   0.606   8.444 -0.2626 -1.3501  1.5823
 3390TIP3    H231730   6.114   0.524   8.472 -2.0549 -0.0917 -1.9959
 3391TIP3   OH231731   5.496   6.017   0.333 -0.1472 -0.4282 -0.1813
 3391TIP3    H131732   5.527   6.107   0.332  0.4300 -0.6295 -0.9477
 3391TIP3    H231733   5.432   6.015   0.405  2.0242 -0.1746  1.8971
 3392TIP3   OH231734   5.174   2.581   1.253 -0.3052  0.3875 -0.2089
 3392TIP3    H131735   5.261   2.604   1.285 -0.4152 -0.9683  1.1530
 3392TIP3    H231736   5.179   2.594   1.158  1.4036  0.2370 -0.1669
 3393TIP3   OH231737   6.671   6.602   2.228 -0.5299  0.1581  0.0220
 3393TIP3    H131738   6.704   6.692   2.221 -0.9888  0.3880  0.7121
 3393TIP3    H231739   6.580   6.609   2.197 -0.2882 -0.2573 -0.8160
 3394TIP3   OH231740   6.326   0.159   1.812 -0.1634  0.3736 -0.5746
 3394TIP3    H131741   6.345   0.196   1.898  1.2065 -0.1595 -0.6240
 3394TIP3    H231742   6.371   0.218   1.750 -0.9301  0.6114 -0.9203
 3395TIP3   OH231743   6.353   6.714   7.998 -0.3233  0.3415  0.2874
 3395TIP3    H131744   6.283   6.780   7.999 -0.6466  0.0008  1.3819
 3395TIP3    H231745   6.329   6.653   8.068 -1.2335 -2.2070 -2.0368
 3396TIP3   OH231746   1.682   0.054   8.132  0.3668 -0.3864 -0.3135
 3396TIP3    H131747   1.594   0.061   8.094 -0.9575  0.1358  2.6214
 3396TIP3    H231748   1.734   0.118   8.083 -0.9695 -0.3902 -1.8194
 3397TIP3   OH231749   5.266   0.139   0.093 -0.7854  0.0146  0.1454
 3397TIP3    H131750   5.313   0.061   0.064  0.1066  0.1963  1.0405
 3397TIP3    H231751   5.249   0.124   0.186 -0.1968  1.0677  0.4453
 3398TIP3   OH231752   3.364   1.622   1.361  0.0385  0.2204 -0.4227
 3398TIP3    H131753   3.435   1.588   1.414 -0.8938 -1.4712 -0.1666
 3398TIP3    H231754   3.405   1.687   1.304  1.4644  0.4422  0.7911
 3399TIP3   OH231755   4.933   1.371   8.339  1.0236 -0.5924 -0.0969
 3399TIP3    H131756   4.913   1.278   8.339  1.2927 -0.6802  1.5577
 3399TIP3    H231757   4.891   1.405   8.419  1.0615  0.6654 -0.5864
 3400TIP3   OH231758   3.250   4.937   0.014  0.6356  0.1742 -0.0036
 3400TIP3    H131759   3.271   5.016   0.065  0.5557  0.9274 -1.0892
 3400TIP3    H231760   3.199   4.883   0.073  1.0161  0.7695  0.8959
 3401TIP3   OH231761   0.807   1.093   7.178 -0.3324 -0.5677 -0.4821
 3401TIP3    H131762   0.769   1.037   7.246  1.0177 -0.7316  0.1698
 3401TIP3    H231763   0.869   1.036   7.133 -0.4706 -0.1690 -1.1849
 3402TIP3   OH231764   2.474   4.267   8.082 -0.0969 -0.6429  0.5327
 3402TIP3    H131765   2.528   4.231   8.152 -0.3448 -0.9662  0.5577
 3402TIP3    H231766   2.465   4.196   8.019  2.7056  0.5289 -1.3844
 3403TIP3   OH231767   0.174   0.589   7.788 -0.3809  0.7081  0.0746
 3403TIP3    H131768   0.098   0.624   7.742 -0.0515  1.0858 -0.1970
 3403TIP3    H231769   0.213   0.527   7.726  0.2562  1.4669 -0.3112
 3404TIP3   OH231770   3.099   3.870   7.000  1.0262 -0.0449 -0.1310
 3404TIP3    H131771   3.170   3.905   7.055  0.6753 -0.7663  0.7967
 3404TIP3    H231772   3.058   3.948   6.963  0.8884  0.5147  1.1218
 3405TIP3   OH231773   1.498   2.322   6.436  0.1202 -0.5081  0.2701
 3405TIP3    H131774   1.474   2.281   6.353  0.2982  0.3111 -0.1987
 3405TIP3    H231775   1.418   2.365   6.466 -0.0432 -1.1103  0.7169
 3406TIP3   OH231776   0.173   0.911   1.139  0.3636 -0.1721  0.5035
 3406TIP3    H131777   0.195   0.981   1.078 -0.5197 -0.7167 -0.4849
 3406TIP3    H231778   0.160   0.955   1.223 -2.3944  1.2456 -0.5268
 3407TIP3   OH231779   6.506   5.109   0.397 -0.1668 -0.0841  0.1962
 3407TIP3    H131780   6.525   5.203   0.394 -1.4504  0.1929 -0.0670
 3407TIP3    H231781   6.434   5.102   0.460 -2.7790 -0.3292 -2.5699
 3408TIP3   OH231782   6.079   3.878   8.761 -0.2821 -0.1574  0.4405
 3408TIP3    H131783   6.020   3.950   8.740  0.0863  0.2697  0.8555
 3408TIP3    H231784   6.076   3.821   8.684  0.2054  0.8202 -0.3326
 3409TIP3   OH231785   2.608   5.855   0.050  0.3347 -0.3792  0.3155
 3409TIP3    H131786   2.645   5.772   0.021 -2.1100 -1.0761 -1.0810
 3409TIP3    H231787   2.514   5.846   0.035 -0.4458  1.3791  3.3703
 3410TIP3   OH231788   2.092   5.374   1.757  0.3314 -0.1617 -0.0119
 3410TIP3    H131789   2.096   5.306   1.824 -0.0607 -1.0544 -0.8474
 3410TIP3    H231790   2.138   5.335   1.682  2.2005  1.4407  0.2215
 3411TIP3   OH231791   2.929   1.303   8.399 -0.1112  0.3718  0.1188
 3411TIP3    H131792   2.841   1.266   8.392 -0.3555  0.7306  1.1782
 3411TIP3    H231793   2.980   1.256   8.333 -1.6465  1.8513 -2.2808
 3412TIP3   OH231794   4.418   1.960   7.175  0.3897  0.3191 -0.4377
 3412TIP3    H131795   4.356   2.033   7.177  0.1526  0.1100 -0.1798
 3412TIP3    H231796   4.486   1.985   7.237  0.1299  0.1631 -0.0886
 3413TIP3   OH231797   4.538   6.121   2.758  0.0843 -0.5512  0.1751
 3413TIP3    H131798   4.552   6.035   2.797  1.4209 -0.6784 -0.5167
 3413TIP3    H231799   4.449   6.118   2.724 -0.3790 -1.1505  1.3942
 3414TIP3   OH231800   5.659   3.674   1.929  0.0870  0.0835 -0.0093
 3414TIP3    H131801   5.675   3.580   1.933 -1.0517 -0.1071  0.6737
 3414TIP3    H231802   5.745   3.713   1.917  0.5405 -1.0593 -0.5778
 3415TIP3   OH231803   6.471   1.057   0.329 -0.1281 -0.3472  0.1509
 3415TIP3    H131804   6.540   0.992   0.316  0.2928  0.2583 -0.7154
 3415TIP3    H231805   6.465   1.103   0.245  1.0441  2.1461  1.3163
 3416TIP3   OH231806   2.628   1.274   2.502 -0.1677  0.2445 -0.2559
 3416TIP3    H131807   2.568   1.276   2.576  1.6141 -0.1514  1.2949
 3416TIP3    H231808   2.580   1.314   2.429 -1.8713  0.9310  1.1978
 3417TIP3   OH231809   0.965   3.186   0.970 -0.1355 -0.5755  0.4925
 3417TIP3    H131810   1.009   3.162   0.888 -0.0814  0.4328  0.2178
 3417TIP3    H231811   0.959   3.103   1.018  1.1099 -0.9426  0.0793
 3418TIP3   OH231812   1.010   1.384   6.198  0.2770 -0.6346 -0.7281
 3418TIP3    H131813   1.058   1.442   6.257  1.7754 -2.0144 -0.5099
 3418TIP3    H231814   1.053   1.395   6.113  0.6617 -1.4837 -0.6555
 3419TIP3   OH231815   5.195   2.051   7.111 -0.3413 -0.4505  0.0986
 3419TIP3    H131816   5.267   2.061   7.048 -2.9611  0.3608 -3.0810
 3419TIP3    H231817   5.164   1.961   7.097 -0.2605 -0.6545  1.1383
 3420TIP3   OH231818   6.476   1.939   0.103  0.5343 -0.4801 -0.2097
 3420TIP3    H131819   6.533   1.945   0.027  0.9368 -1.5691 -0.0180
 3420TIP3    H231820   6.528   1.978   0.175  1.2339 -1.8399  0.0528
 3421TIP3   OH231821   3.364   0.336   1.657 -0.0727  1.0079  0.3856
 3421TIP3    H131822   3.416   0.390   1.597  0.9532  1.0225  1.2612
 3421TIP3    H231823   3.327   0.399   1.719 -0.6889  0.9367  0.0893
 3422TIP3   OH231824   2.606   6.144   0.627 -0.8072  0.2990 -0.1186
 3422TIP3    H131825   2.532   6.085   0.640 -1.1195  0.5413 -0.7329
 3422TIP3    H231826   2.635   6.166   0.715  0.4843 -2.1874  0.1667
 3423TIP3   OH231827   1.340   3.063   0.583 -0.8524 -0.1429  0.6612
 3423TIP3    H131828   1.395   3.023   0.516 -0.9149 -0.7724  0.9765
 3423TIP3    H231829   1.359   3.157   0.577 -1.1133 -0.1454 -0.4679
 3424TIP3   OH231830   1.145   3.964   1.872 -0.6246 -0.1338 -0.4815
 3424TIP3    H131831   1.134   3.870   1.861 -0.6439 -0.0392 -1.2910
 3424TIP3    H231832   1.240   3.978   1.864  0.0683 -0.6364  4.0853
 3425TIP3   OH231833   2.545   4.874   7.622 -0.5514  1.1691 -0.3136
 3425TIP3    H131834   2.537   4.965   7.596 -0.2941  0.6359 -2.5149
 3425TIP3    H231835   2.456   4.838   7.613 -0.3727  0.8689 -0.9571
 3426TIP3   OH231836   6.585   4.753   1.299  0.1985  0.3390 -0.1754
 3426TIP3    H131837   6.631   4.766   1.217  0.6323 -0.5928 -0.1016
 3426TIP3    H231838   6.643   4.696   1.350 -1.3090 -1.4442 -0.3507
 3427TIP3   OH231839   5.715   2.150   0.035 -0.2472 -0.4641  0.1554
 3427TIP3    H131840   5.633   2.197   0.017  1.1785  2.1055 -0.1699
 3427TIP3    H231841   5.739   2.110  -0.048  0.5442  1.7709 -0.7752
 3428TIP3   OH231842   4.143   5.786   1.789 -0.0254  0.3451 -0.1437
 3428TIP3    H131843   4.165   5.723   1.721  0.3222 -0.2335  0.4905
 3428TIP3    H231844   4.068   5.748   1.835 -2.4749  2.2857 -2.2609
 3429TIP3   OH231845   3.154   0.595   8.402  0.4845 -0.2822 -0.2912
 3429TIP3    H131846   3.151   0.501   8.423 -1.1881 -0.0717  0.5724
 3429TIP3    H231847   3.247   0.615   8.395  0.9405 -1.6309  1.2981
 3430TIP3   OH231848   4.064   0.525   0.615  0.1613  0.5088  0.8937
 3430TIP3    H131849   3.988   0.481   0.576 -0.2078  1.0322  1.0160
 3430TIP3    H231850   4.118   0.551   0.541  0.0358  0.4752  0.7900
 3431TIP3   OH231851   1.655   2.750   1.701  0.1245  0.5156 -0.3268
 3431TIP3    H131852   1.637   2.767   1.609  1.6111 -1.3563 -1.0367
 3431TIP3    H231853   1.596   2.678   1.725  1.0280 -0.2779 -0.4009
 3432TIP3   OH231854   3.504   6.817   1.062 -0.0344 -0.1746 -0.4116
 3432TIP3    H131855   3.464   6.737   1.096  0.0090 -0.0602 -0.0882
 3432TIP3    H231856   3.590   6.790   1.030  1.1419  0.1846  2.1588
 3433TIP3   OH231857   0.640   1.100   8.600 -0.4583 -0.0647  1.2371
 3433TIP3    H131858   0.588   1.178   8.581 -2.4805 -1.7251 -0.5567
 3433TIP3    H231859   0.596   1.060   8.675  0.4497  0.3830  2.0208
 3434TIP3   OH231860   4.865   0.978   1.089  1.0028  0.3333  0.3618
 3434TIP3    H131861   4.937   0.952   1.146  1.5085  0.2837 -0.2976
 3434TIP3    H231862   4.897   0.963   1.000 -0.6708 -2.0833  0.0596
 3435TIP3   OH231863   0.654   1.564   0.816  0.2626  0.2168  0.1258
 3435TIP3    H131864   0.628   1.655   0.801  1.7444  1.0562  2.1537
 3435TIP3    H231865   0.581   1.526   0.866  0.4180  0.8664  0.8687
 3436TIP3   OH231866   6.721   5.539   0.257 -0.0284 -0.3444  0.1157
 3436TIP3    H131867   6.629   5.562   0.271 -0.0738 -1.4198  1.8530
 3436TIP3    H231868   6.758   5.532   0.345  1.6088 -0.4155 -0.5341
 3437TIP3   OH231869   2.037   5.540   7.796 -0.2412 -0.0236  0.2120
 3437TIP3    H131870   2.079   5.615   7.837  0.3179 -0.3034  0.1583
 3437TIP3    H231871   2.109   5.486   7.765 -0.5858 -1.2884  1.5014
 3438TIP3   OH231872   2.704   2.921   7.513  0.4648  0.2535 -0.5189
 3438TIP3    H131873   2.757   2.949   7.438  0.7058  2.8679  0.5359
 3438TIP3    H231874   2.731   2.978   7.584 -0.8395 -1.1587  1.1951
 3439TIP3   OH231875   2.879   4.463   0.886  0.1591 -0.4236  0.0504
 3439TIP3    H131876   2.950   4.404   0.912 -0.7992 -1.6815 -0.0931
 3439TIP3    H231877   2.905   4.498   0.801  0.8570 -0.4519  0.2535
 3440TIP3   OH231878   5.073   0.907   1.242 -0.5226  0.2913  0.0158
 3440TIP3    H131879   5.110   0.840   1.185 -1.2871  0.8760 -1.2164
 3440TIP3    H231880   5.066   0.865   1.327  1.4427 -0.3301 -0.0960
 3441TIP3   OH231881   2.735   5.116   7.920 -0.9309 -1.0333  0.3792
 3441TIP3    H131882   2.694   5.030   7.914 -0.5943 -1.1367 -0.7344
 3441TIP3    H231883   2.689   5.169   7.854  0.2236 -0.9582 -0.3961
 3442TIP3   OH231884   6.276   1.550   0.077 -0.1099 -0.0552 -1.0307
 3442TIP3    H131885   6.296   1.532   0.169  0.6593  0.9173 -0.9950
 3442TIP3    H231886   6.278   1.645   0.070 -1.8896 -0.0298 -1.6939
 3443TIP3   OH231887   5.788   6.538   7.057 -0.0902 -0.0393  0.3879
 3443TIP3    H131888   5.833   6.455   7.044 -0.8331 -1.0100  3.2786
 3443TIP3    H231889   5.711   6.533   7.000 -0.5759 -1.7604  1.1201
 3444TIP3   OH231890   6.438   6.351   7.406  0.0654 -0.1707 -0.4781
 3444TIP3    H131891   6.459   6.361   7.499 -1.3309  0.3213 -0.1912
 3444TIP3    H231892   6.484   6.422   7.363 -1.7109  1.5143  0.2604
 3445TIP3   OH231893   5.385   3.096   0.588  0.2491  0.4438  0.4181
 3445TIP3    H131894   5.304   3.046   0.600  0.4391  0.2018  0.7195
 3445TIP3    H231895   5.368   3.181   0.628 -0.4395  1.0195 -1.0072
 3446TIP3   OH231896   6.412   5.426   6.578 -0.5901 -0.2085  0.2255
 3446TIP3    H131897   6.329   5.465   6.606 -0.6840  0.3590 -0.8013
 3446TIP3    H231898   6.432   5.361   6.646 -1.8264 -0.2939  0.5287
 3447TIP3   OH231899   3.393   3.147   1.578 -0.7172 -0.4710  0.2550
 3447TIP3    H131900   3.310   3.193   1.570 -1.0206 -0.9813  0.3842
 3447TIP3    H231901   3.446   3.179   1.505 -1.3451 -0.7910 -0.3558
 3448TIP3   OH231902   5.793   1.404   2.067 -0.2284 -0.2677 -0.4496
 3448TIP3    H131903   5.790   1.438   2.156  2.5499 -1.1942  0.0862
 3448TIP3    H231904   5.775   1.480   2.012 -0.2634  0.6877  0.8394
 3449TIP3   OH231905   3.723   1.239   1.738 -0.1807  0.2393 -0.3835
 3449TIP3    H131906   3.728   1.233   1.642  1.1643  0.8920 -0.3793
 3449TIP3    H231907   3.656   1.304   1.754 -0.2060  0.3494 -0.8995
 3450TIP3   OH231908   6.744   4.558   0.521 -0.2855 -0.1619 -0.1834
 3450TIP3    H131909   6.707   4.470   0.511  0.1823 -0.1820 -1.9746
 3450TIP3    H231910   6.757   4.589   0.432  1.4139  0.9516  0.4154
 3451TIP3   OH231911   2.697   3.665   7.528 -0.1010  0.3570  0.0145
 3451TIP3    H131912   2.687   3.690   7.436 -0.7968 -0.1430 -0.0514
 3451TIP3    H231913   2.639   3.589   7.538  1.0465 -0.4769  0.5059
 3452TIP3   OH231914   5.759   2.518   8.593  0.0319 -0.1722  0.1431
 3452TIP3    H131915   5.837   2.573   8.594 -1.6080  2.3634 -1.0017
 3452TIP3    H231916   5.792   2.430   8.575  2.5943  0.8752 -0.7282
 3453TIP3   OH231917   4.434   3.532   8.316  0.2392 -0.4938 -0.1505
 3453TIP3    H131918   4.495   3.604   8.333  0.8580 -0.5457 -1.8657
 3453TIP3    H231919   4.411   3.498   8.402  0.9589  0.9093  0.6349
 3454TIP3   OH231920   4.972   6.368   8.338 -0.0345 -0.0308 -0.2025
 3454TIP3    H131921   5.030   6.406   8.404 -1.7497  1.1632  0.6868
 3454TIP3    H231922   4.949   6.441   8.281 -1.4819 -0.2200  0.1027
 3455TIP3   OH231923   1.679   6.180   6.616 -0.0800 -0.1383  0.1614
 3455TIP3    H131924   1.595   6.197   6.573 -0.7626  2.7358  2.3035
 3455TIP3    H231925   1.664   6.103   6.670 -1.1760  0.0010  0.0775
 3456TIP3   OH231926   6.016   6.544   2.218 -0.2877  0.0621  0.0133
 3456TIP3    H131927   5.973   6.527   2.301  2.6731 -0.0102  1.6671
 3456TIP3    H231928   6.100   6.585   2.242  0.5813  0.2527 -2.9374
 3457TIP3   OH231929   1.124   0.522   8.320  0.1513 -0.2499  0.3377
 3457TIP3    H131930   1.174   0.602   8.337  1.6994 -0.9509 -0.6415
 3457TIP3    H231931   1.102   0.527   8.227 -0.1533 -0.7364  0.3812
 3458TIP3   OH231932   6.338   4.724   7.368 -0.1369  0.2201 -0.0055
 3458TIP3    H131933   6.294   4.645   7.337 -0.0635 -0.0190  0.4867
 3458TIP3    H231934   6.280   4.759   7.436 -0.2258  0.6562 -0.3019
 3459TIP3   OH231935   1.064   3.449   2.764 -0.5946 -0.4638 -0.3454
 3459TIP3    H131936   1.058   3.429   2.857 -1.2592 -0.1971 -0.3197
 3459TIP3    H231937   1.074   3.364   2.721  3.4399 -0.4323  0.1646
 3460TIP3   OH231938   3.356   1.943   0.063 -0.0862  0.0319 -0.4047
 3460TIP3    H131939   3.385   1.884   0.133  1.3764  1.0074 -0.1636
 3460TIP3    H231940   3.261   1.946   0.073 -0.0676 -1.2834  0.3767
 3461TIP3   OH231941   0.020   1.746   1.606 -0.4150 -0.0702 -0.3567
 3461TIP3    H131942  -0.047   1.791   1.555 -0.4246 -0.5015 -0.7309
 3461TIP3    H231943   0.064   1.689   1.543 -0.9565 -1.2124  0.2681
 3462TIP3   OH231944   5.815   4.282   1.927 -0.2797 -0.1083  0.6561
 3462TIP3    H131945   5.872   4.359   1.921 -2.5869  1.7822  1.1580
 3462TIP3    H231946   5.845   4.235   2.004  1.8514 -0.3449 -0.2589
 3463TIP3   OH231947   0.095   2.305   8.482  0.4082 -0.1944  0.1090
 3463TIP3    H131948   0.158   2.356   8.431  0.5909 -0.3492  0.1801
 3463TIP3    H231949   0.023   2.365   8.499 -0.4870 -0.6165 -1.8680
 3464TIP3   OH231950   6.731   4.560   1.456  0.6269 -0.3396 -0.4252
 3464TIP3    H131951   6.776   4.490   1.503  0.3328 -0.7419 -0.7327
 3464TIP3    H231952   6.638   4.544   1.473  0.4706 -0.8898 -1.6653
 3465TIP3   OH231953   5.182   4.954   1.487  0.4196  0.0926  0.3573
 3465TIP3    H131954   5.266   4.916   1.510  0.3837 -0.4999 -0.4525
 3465TIP3    H231955   5.148   4.990   1.570 -0.1192 -2.7416  1.4900
 3466TIP3   OH231956   1.597   1.445   1.045 -0.0492  0.1102 -0.5420
 3466TIP3    H131957   1.570   1.376   0.984 -1.7029 -1.6813  2.0388
 3466TIP3    H231958   1.550   1.523   1.015 -0.5358 -0.6166 -1.7531
 3467TIP3   OH231959   4.533   1.498   1.537 -0.0328  0.1660  0.3918
 3467TIP3    H131960   4.606   1.508   1.597  0.0193 -1.7209  0.7019
 3467TIP3    H231961   4.562   1.432   1.474 -1.4874 -0.7044  0.5913
 3468TIP3   OH231962   3.067   4.052   8.137  0.2373  0.5122 -0.7829
 3468TIP3    H131963   3.029   4.132   8.175  0.6161  0.6608 -0.7073
 3468TIP3    H231964   2.993   3.992   8.128 -0.0885  0.9427 -1.0252
 3469TIP3   OH231965   5.706   2.346   7.803  0.3758 -0.7846 -0.1717
 3469TIP3    H131966   5.678   2.346   7.711  3.4631  1.8082 -1.3291
 3469TIP3    H231967   5.719   2.438   7.824 -0.7947 -1.2416  3.1821
 3470TIP3   OH231968   1.273   0.913   7.262  0.3051 -0.2648 -0.1600
 3470TIP3    H131969   1.319   0.841   7.304 -0.1348 -0.6638 -0.3529
 3470TIP3    H231970   1.258   0.976   7.332 -1.3705 -1.3965  0.5540
 3471TIP3   OH231971   2.109   1.629   7.300  0.1817  0.5681  0.4355
 3471TIP3    H131972   2.074   1.625   7.210  0.3922  2.1304  0.2541
 3471TIP3    H231973   2.168   1.555   7.306  0.2298  0.4854 -0.7668
 3472TIP3   OH231974   0.844   5.583   8.544  0.0522 -0.5200  0.1909
 3472TIP3    H131975   0.858   5.538   8.461 -1.3857 -1.4631  0.4269
 3472TIP3    H231976   0.860   5.515   8.610  0.1811 -0.0490  0.6454
 3473TIP3   OH231977   1.322   6.460   8.414  0.1203  0.5781  0.0515
 3473TIP3    H131978   1.343   6.544   8.374  1.3299 -0.3134 -1.3581
 3473TIP3    H231979   1.298   6.404   8.340 -1.4318 -0.1210  1.0360
 3474TIP3   OH231980   1.010   6.083   7.489 -0.4612  0.2810  0.9100
 3474TIP3    H131981   1.049   5.996   7.480 -0.3091  0.2922  1.4248
 3474TIP3    H231982   0.935   6.082   7.430  0.6112  0.4353 -0.5166
 3475TIP3   OH231983   0.914   6.591   6.362  0.7163 -0.4481 -0.2894
 3475TIP3    H131984   0.886   6.630   6.445 -0.4897  0.9290 -1.3076
 3475TIP3    H231985   0.967   6.658   6.320 -1.9322  0.5089 -2.3659
 3476TIP3   OH231986   6.480   3.594   0.791  0.2370 -0.1115  0.8192
 3476TIP3    H131987   6.408   3.650   0.761  1.3002  1.2240  0.6865
 3476TIP3    H231988   6.522   3.563   0.711  0.4166 -0.0919  0.9061
 3477TIP3   OH231989   0.862   0.608   1.480 -0.2532 -0.3145 -0.2820
 3477TIP3    H131990   0.850   0.668   1.407  0.6978 -0.9668 -0.9863
 3477TIP3    H231991   0.953   0.620   1.507 -0.4867 -0.3511  0.5592
 3478TIP3   OH231992   0.999   5.297   0.307  0.0349  0.8246  0.5151
 3478TIP3    H131993   0.936   5.349   0.256 -1.6416 -1.1763  0.4273
 3478TIP3    H231994   0.947   5.258   0.377  1.7026  0.9826  1.9127
 3479TIP3   OH231995   2.049   1.362   2.813 -0.7493  0.1192 -0.1632
 3479TIP3    H131996   2.017   1.285   2.766  1.2599  0.4030 -2.1975
 3479TIP3    H231997   1.984   1.430   2.796 -0.5056 -0.0381 -1.8858
 3480TIP3   OH231998   6.388   6.382   8.281  0.2751  0.1952  0.4074
 3480TIP3    H131999   6.324   6.316   8.309  0.9362 -0.7867 -0.3021
 3480TIP3    H232000   6.440   6.399   8.360  1.5556 -1.8867  0.1146
 3481TIP3   OH232001   2.888   4.080   0.005  0.0646  0.4151  0.1112
 3481TIP3    H132002   2.864   4.032   0.085  0.4206 -1.1121 -0.6483
 3481TIP3    H232003   2.944   4.019  -0.043  2.0812  2.2992 -0.0883
 3482TIP3   OH232004   3.366   2.563   0.405  0.4185  0.0557 -0.2552
 3482TIP3    H132005   3.399   2.533   0.489 -1.0960 -3.0344 -0.6445
 3482TIP3    H232006   3.416   2.513   0.340  1.6779  2.4913 -1.3120
 3483TIP3   OH232007   3.366   1.702   7.847 -0.2822 -0.7156  0.1805
 3483TIP3    H132008   3.279   1.661   7.855 -0.5141  0.0622  2.0210
 3483TIP3    H232009   3.375   1.719   7.753 -1.5521 -1.9875 -0.2223
 3484TIP3   OH232010   2.125   4.128   6.736  0.0259  0.1412 -0.3262
 3484TIP3    H132011   2.065   4.193   6.699  0.0923 -0.0431 -0.7594
 3484TIP3    H232012   2.193   4.180   6.779 -1.6676  0.3960  2.2706
 3485TIP3   OH232013   2.498   6.149   8.124 -0.5188  0.3994 -0.3573
 3485TIP3    H132014   2.492   6.098   8.043  1.2483  0.2565 -0.4388
 3485TIP3    H232015   2.570   6.109   8.173 -0.1348  1.8004  0.2949
 3486TIP3   OH232016   0.507   5.579   1.310  0.5024  0.4175 -0.0737
 3486TIP3    H132017   0.522   5.643   1.240  0.2243  0.4598 -0.0961
 3486TIP3    H232018   0.582   5.519   1.304 -0.7065 -1.0321 -2.0046
 3487TIP3   OH232019   1.547   4.659   0.772  0.0998  0.4449 -0.2368
 3487TIP3    H132020   1.628   4.623   0.738 -0.2583 -0.2556 -0.3612
 3487TIP3    H232021   1.504   4.586   0.816  0.6361  1.3469  1.9550
 3488TIP3   OH232022   1.225   5.668   8.216  0.1695 -0.0438 -0.3764
 3488TIP3    H132023   1.148   5.724   8.224  0.6081  0.3255  2.0266
 3488TIP3    H232024   1.207   5.594   8.274  1.1073 -0.5657 -0.7258
 3489TIP3   OH232025   0.466   3.619   1.013 -0.3580  0.7873  0.2109
 3489TIP3    H132026   0.499   3.655   0.931  1.4602  0.5750  0.8000
 3489TIP3    H232027   0.508   3.671   1.081  0.4308 -0.8499  1.0387
 3490TIP3   OH232028   1.633   5.630   1.227 -1.0120  0.2292  0.5178
 3490TIP3    H132029   1.600   5.553   1.180  1.8215 -0.0147 -1.3397
 3490TIP3    H232030   1.687   5.594   1.298  0.4865  0.4254 -0.4796
 3491TIP3   OH232031   5.651   2.886   8.514 -0.4045 -0.5951 -0.5935
 3491TIP3    H132032   5.591   2.954   8.543  0.3566 -0.8472  1.7571
 3491TIP3    H232033   5.718   2.882   8.581  0.8279 -2.1214 -1.8210
 3492TIP3   OH232034   5.304   1.913   7.345  0.2908  0.0300 -0.2642
 3492TIP3    H132035   5.364   1.870   7.284  1.2340 -0.0490  0.6935
 3492TIP3    H232036   5.293   2.001   7.309  0.8421 -0.0105 -0.5512
 3493TIP3   OH232037   2.960   3.253   7.603 -0.6332 -0.2396 -0.6628
 3493TIP3    H132038   2.995   3.259   7.514 -0.7081 -1.3416 -0.7804
 3493TIP3    H232039   3.010   3.182   7.644 -1.3912 -0.5295 -0.2065
 3494TIP3   OH232040   3.929   4.470   2.564  0.1653  0.0159  0.0344
 3494TIP3    H132041   3.898   4.517   2.641  0.7176 -1.0618  0.9476
 3494TIP3    H232042   3.994   4.409   2.598 -1.0522 -1.9360 -0.9968
 3495TIP3   OH232043   1.349   1.152   1.975 -0.1918  0.2387  0.1030
 3495TIP3    H132044   1.264   1.143   1.933 -0.6369  1.4908  0.6971
 3495TIP3    H232045   1.358   1.246   1.991  0.0609 -0.1401  2.5746
 3496TIP3   OH232046   4.627   3.169   1.674 -0.1723  0.2074  0.0502
 3496TIP3    H132047   4.617   3.228   1.749 -2.5032  0.6894 -0.5633
 3496TIP3    H232048   4.647   3.084   1.714  1.1695  0.9572  1.0565
 3497TIP3   OH232049   4.105   3.771   7.748  0.2339  0.4799  0.3499
 3497TIP3    H132050   4.123   3.742   7.658  0.6297  1.4230  0.1135
 3497TIP3    H232051   4.015   3.803   7.745 -0.1560 -0.5563  0.5780
 3498TIP3   OH232052   2.483   0.900   0.113  0.1101 -0.1317  0.3057
 3498TIP3    H132053   2.495   0.974   0.053 -2.9198 -1.5021 -2.2843
 3498TIP3    H232054   2.413   0.929   0.172 -0.2002 -0.4404  0.0950
 3499TIP3   OH232055   3.636   3.125   0.920 -0.0635  0.3776 -0.1685
 3499TIP3    H132056   3.587   3.179   0.859  0.1934  0.4414 -0.3219
 3499TIP3    H232057   3.624   3.168   1.005 -2.0520 -0.8060  0.2046
 3500TIP3   OH232058   0.697   2.543   7.370  0.0830 -0.2074  0.1583
 3500TIP3    H132059   0.686   2.568   7.462  0.3946  1.0936 -0.1428
 3500TIP3    H232060   0.629   2.477   7.355 -1.3965  1.1320  0.7439
 3501TIP3   OH232061   4.841   1.181   1.797  0.2409  0.3965 -0.5212
 3501TIP3    H132062   4.836   1.122   1.873  2.6782 -0.2004 -0.7447
 3501TIP3    H232063   4.812   1.266   1.831 -2.0159 -0.5601  0.1573
 3502TIP3   OH232064   4.665   6.200   1.973 -0.3132 -0.2027 -0.1524
 3502TIP3    H132065   4.578   6.223   2.007 -1.0397 -0.8354 -1.5358
 3502TIP3    H232066   4.725   6.254   2.025 -1.4648 -0.1754  1.2268
 3503TIP3   OH232067   6.640   0.983   0.862 -0.6637  0.7436  0.1352
 3503TIP3    H132068   6.549   0.953   0.859 -0.3667 -0.1194 -0.6349
 3503TIP3    H232069   6.672   0.954   0.947 -1.0062  0.7447  0.2662
 3504TIP3   OH232070   5.332   6.576   7.085  0.5584 -0.0520 -0.0941
 3504TIP3    H132071   5.414   6.581   7.035  1.3270  1.5598  1.2311
 3504TIP3    H232072   5.320   6.483   7.103  0.0823 -0.7723 -3.4301
 3505TIP3   OH232073   4.293   5.903   7.659 -0.1600  0.3270 -0.2044
 3505TIP3    H132074   4.318   5.988   7.624 -1.6792  1.6563  1.7399
 3505TIP3    H232075   4.337   5.899   7.745  0.6298 -1.2716 -0.6454
 3506TIP3   OH232076   6.630   0.509   1.433 -0.5882 -0.2244  0.2014
 3506TIP3    H132077   6.548   0.460   1.429 -0.1082 -0.9727 -1.2899
 3506TIP3    H232078   6.672   0.480   1.514 -1.7238  0.0787  0.9217
 3507TIP3   OH232079   0.843   2.327   8.345  0.1818  0.1200  0.3918
 3507TIP3    H132080   0.829   2.245   8.391 -0.3099  0.4553  0.8493
 3507TIP3    H232081   0.764   2.378   8.362 -0.7300 -0.3258 -2.0797
 3508TIP3   OH232082   4.694   6.610   0.197  0.2748 -0.2292  0.2791
 3508TIP3    H132083   4.685   6.635   0.289  0.0917 -0.6308  0.3723
 3508TIP3    H232084   4.732   6.522   0.199  0.8651  0.0128 -0.0433
 3509TIP3   OH232085   2.110   0.427   2.736  0.3796  0.0633 -0.3628
 3509TIP3    H132086   2.078   0.422   2.826  0.4779  1.1938 -0.2514
 3509TIP3    H232087   2.120   0.336   2.709 -2.1921 -0.3581 -0.1578
 3510TIP3   OH232088   5.597   2.815   0.645  0.0006 -0.1144  0.1934
 3510TIP3    H132089   5.643   2.893   0.677 -1.4182  0.6891  0.3655
 3510TIP3    H232090   5.604   2.821   0.550  0.9263 -0.4455  0.2261
 3511TIP3   OH232091   4.119   2.141   8.652 -0.0506  0.3742 -0.1368
 3511TIP3    H132092   4.062   2.077   8.611 -0.8564  0.7910  0.3074
 3511TIP3    H232093   4.114   2.218   8.596  1.9500 -0.3409 -1.4073
 3512TIP3   OH232094   5.437   5.924   6.965 -0.0740 -0.4722 -0.2007
 3512TIP3    H132095   5.463   5.930   6.873 -0.8681  2.0446 -0.3676
 3512TIP3    H232096   5.345   5.952   6.965 -0.6715 -2.2484  1.1679
 3513TIP3   OH232097   1.707   0.363   0.132  0.1491 -0.2175  0.3199
 3513TIP3    H132098   1.660   0.380   0.050 -0.0380 -2.5188 -0.1167
 3513TIP3    H232099   1.789   0.411   0.123 -0.3128  0.4114 -0.7526
 3514TIP3   OH232100   0.377   3.405   1.153  0.4133  0.4190 -0.4076
 3514TIP3    H132101   0.341   3.456   1.225 -0.4334  1.1829 -1.3582
 3514TIP3    H232102   0.385   3.466   1.081  0.7798 -0.4488 -1.1266
 3515TIP3   OH232103   0.805   6.366   6.502  0.2568  0.4624 -0.5373
 3515TIP3    H132104   0.887   6.326   6.533 -0.8782 -0.4728  1.4818
 3515TIP3    H232105   0.833   6.442   6.451  2.3807 -0.1369 -0.3639
 3516TIP3   OH232106   1.564   3.256   0.007  0.1876  0.2873 -0.3500
 3516TIP3    H132107   1.483   3.208   0.029  1.0795 -1.4436 -0.6315
 3516TIP3    H232108   1.620   3.243   0.083 -0.0864  2.2863  0.2495
 3517TIP3   OH232109   5.126   4.960   0.750  0.1135  0.1638 -0.1543
 3517TIP3    H132110   5.102   4.893   0.815 -1.3314 -2.7011 -3.3356
 3517TIP3    H232111   5.209   4.929   0.715  1.2264  2.0588  0.6743
 3518TIP3   OH232112   0.604   4.033   1.394 -0.3483  0.3718 -0.4122
 3518TIP3    H132113   0.598   3.983   1.476 -1.2682 -1.0529 -1.2943
 3518TIP3    H232114   0.600   4.125   1.421 -0.7759 -0.0694  1.1213
 3519TIP3   OH232115   2.082   1.762   6.840 -0.3089  0.0031 -0.5810
 3519TIP3    H132116   2.035   1.692   6.794 -0.1611 -0.8824  0.5837
 3519TIP3    H232117   2.081   1.735   6.932 -1.7923  2.3806  0.1781
 3520TIP3   OH232118   5.717   4.067   7.213  0.3890 -0.0839 -0.0030
 3520TIP3    H132119   5.632   4.070   7.170  0.8792  0.5871 -0.9691
 3520TIP3    H232120   5.750   4.157   7.207  2.3109 -0.8398 -2.0575
 3521TIP3   OH232121   4.066   6.724   1.275  0.7501 -0.2324 -0.4734
 3521TIP3    H132122   4.122   6.650   1.298  0.5455 -0.5018 -0.8335
 3521TIP3    H232123   4.014   6.740   1.353  0.1321 -1.0760 -0.7008
 3522TIP3   OH232124   6.302   5.068   8.220 -0.3230 -0.3688 -0.3596
 3522TIP3    H132125   6.296   4.990   8.275  0.5861  0.1046  0.4443
 3522TIP3    H232126   6.396   5.088   8.217 -0.5810  1.0003 -0.0992
 3523TIP3   OH232127   1.545   4.038   2.544 -0.0137  0.8500 -0.6843
 3523TIP3    H132128   1.535   3.977   2.470  1.4825 -1.6494  1.0001
 3523TIP3    H232129   1.625   4.008   2.589 -0.0095  3.2348  1.0695
 3524TIP3   OH232130   0.786   3.823   1.732 -0.2564  0.3184 -0.1348
 3524TIP3    H132131   0.823   3.736   1.721  0.3850  0.6521 -0.7777
 3524TIP3    H232132   0.758   3.827   1.823 -1.0930 -0.8541 -0.3240
 3525TIP3   OH232133   5.696   5.086   6.569  0.1101 -0.4394 -0.0160
 3525TIP3    H132134   5.603   5.064   6.560 -0.0992  0.8476 -1.2783
 3525TIP3    H232135   5.736   5.055   6.488  0.6676 -0.3541  0.2178
 3526TIP3   OH232136   4.026   6.270   8.734  0.1327 -0.3993  0.3111
 3526TIP3    H132137   4.063   6.182   8.721  1.3338 -0.1465  1.7827
 3526TIP3    H232138   3.973   6.263   8.813 -0.6354 -0.0346 -0.1582
 3527TIP3   OH232139   5.382   6.759   0.021  0.5999  0.3243 -0.4935
 3527TIP3    H132140   5.351   6.684   0.071 -1.0023  1.2510 -0.0322
 3527TIP3    H232141   5.410   6.723  -0.063  4.1935 -1.4246  1.2284
 3528TIP3   OH232142   2.415   6.256   7.753 -0.1822  0.3795 -0.3514
 3528TIP3    H132143   2.339   6.200   7.769 -0.2717  0.4179 -0.6301
 3528TIP3    H232144   2.379   6.333   7.709 -0.2671  1.3181  1.2981
 3529TIP3   OH232145   4.940   2.426   2.119 -0.2525  0.6028 -0.0543
 3529TIP3    H132146   4.861   2.471   2.150 -0.3329  0.6468 -0.3199
 3529TIP3    H232147   4.996   2.497   2.087 -1.1417  0.3902 -2.2241
 3530TIP3   OH232148   4.653   1.918   1.072 -0.2606  0.1782  0.2492
 3530TIP3    H132149   4.644   1.940   1.164 -2.9997  0.7164 -0.0726
 3530TIP3    H232150   4.630   1.825   1.067 -0.6724  0.2875  0.0523
 3531TIP3   OH232151   1.370   0.400   1.380 -0.0473 -0.2708  0.4308
 3531TIP3    H132152   1.444   0.350   1.412 -0.0144 -1.5589 -1.4837
 3531TIP3    H232153   1.409   0.477   1.338  0.2719 -1.1077 -0.8596
 3532TIP3   OH232154   2.634   6.488   8.588  0.0280  0.5154  0.1911
 3532TIP3    H132155   2.617   6.449   8.502 -2.9541  1.3408  0.3053
 3532TIP3    H232156   2.547   6.506   8.624  1.1678  0.3598  3.3416
 3533TIP3   OH232157   2.934   2.528   1.949 -0.6150  0.3652 -0.1576
 3533TIP3    H132158   2.841   2.508   1.942 -0.3789 -1.1405  0.6183
 3533TIP3    H232159   2.938   2.603   2.009 -1.2345 -1.0574  1.7761
 3534TIP3   OH232160   2.197   0.751   7.603 -0.6731 -0.4654  0.4752
 3534TIP3    H132161   2.233   0.680   7.655 -0.0930  0.5212  1.4816
 3534TIP3    H232162   2.214   0.830   7.655  1.7241  0.8640 -2.0420
 3535TIP3   OH232163   4.630   6.395   8.288  0.5277  0.1763 -0.1394
 3535TIP3    H132164   4.690   6.433   8.224  0.5147 -0.5259 -0.5775
 3535TIP3    H232165   4.591   6.470   8.332  1.9754  0.6478  0.3939
 3536TIP3   OH232166   1.668   6.739   0.408  0.2401 -0.1440 -0.2232
 3536TIP3    H132167   1.573   6.728   0.398  0.0564  1.2424 -0.1442
 3536TIP3    H232168   1.694   6.793   0.334  0.7538  0.5446  0.4391
 3537TIP3   OH232169   3.285   2.905   1.625  0.5036 -0.6183  0.4151
 3537TIP3    H132170   3.352   2.971   1.606 -0.0870 -0.0347  0.3118
 3537TIP3    H232171   3.217   2.920   1.559  0.9199 -2.1562 -0.4034
 3538TIP3   OH232172   6.379   2.557   8.097 -0.1865  0.0472 -0.4841
 3538TIP3    H132173   6.341   2.551   8.010  0.0702 -0.3566 -0.5747
 3538TIP3    H232174   6.305   2.574   8.155 -0.1659  2.0285 -0.9586
 3539TIP3   OH232175   3.013   2.607   1.254  0.0393  0.2813 -0.0570
 3539TIP3    H132176   3.047   2.693   1.227  1.4872 -0.8765 -2.2161
 3539TIP3    H232177   2.965   2.575   1.178 -0.8722 -0.6541  0.8856
 3540TIP3   OH232178   3.533   2.742   1.424  0.1789  0.8795 -0.4023
 3540TIP3    H132179   3.535   2.791   1.342  1.5116  1.7056  0.0955
 3540TIP3    H232180   3.617   2.760   1.464 -0.6279  0.8636  1.3733
 3541TIP3   OH232181   6.105   3.500   1.505 -0.0199 -0.3793 -0.1153
 3541TIP3    H132182   6.127   3.450   1.583  0.3614 -0.6652 -0.4038
 3541TIP3    H232183   6.101   3.591   1.534  0.5159 -0.4413  0.1494
 3542TIP3   OH232184   1.775   1.849   7.553 -0.0336  0.3581 -0.1399
 3542TIP3    H132185   1.821   1.824   7.633 -0.1632  1.0361  0.1545
 3542TIP3    H232186   1.713   1.916   7.581 -1.4571 -0.7660 -0.4657
 3543TIP3   OH232187   5.899   1.447   0.905  0.6977  0.0852 -0.4333
 3543TIP3    H132188   5.934   1.363   0.874  1.0165 -0.6385  1.7264
 3543TIP3    H232189   5.823   1.463   0.849  0.9188 -1.3898 -1.2070
 3544TIP3   OH232190   3.068   2.864   7.451  0.3051 -0.3780  0.2434
 3544TIP3    H132191   3.000   2.913   7.406 -0.4387 -0.4308  1.2593
 3544TIP3    H232192   3.116   2.930   7.501 -1.6798 -0.7555  2.8654
 3545TIP3   OH232193   6.411   0.356   1.630 -0.8503  0.0668  0.5609
 3545TIP3    H132194   6.407   0.316   1.543 -2.5850 -1.7830  1.4124
 3545TIP3    H232195   6.369   0.441   1.620 -2.0800 -0.6117 -0.1825
 3546TIP3   OH232196   6.313   0.976   2.877 -0.7066  0.0884  0.2530
 3546TIP3    H132197   6.325   0.957   2.784  0.6241 -0.9121  0.6028
 3546TIP3    H232198   6.220   0.962   2.893 -1.1964  1.4326 -1.1619
 3547TIP3   OH232199   5.603   0.396   8.458  0.3762  0.0137  0.1768
 3547TIP3    H132200   5.663   0.419   8.528 -0.8248 -1.5071  1.7975
 3547TIP3    H232201   5.560   0.316   8.488 -1.7871  0.5231 -1.2920
 3548TIP3   OH232202   4.592   0.061   0.632  0.1659  0.7499  0.2170
 3548TIP3    H132203   4.594   0.074   0.727 -0.9152  1.5858  0.1426
 3548TIP3    H232204   4.648   0.131   0.597 -0.3652  1.1578  0.1785
 3549TIP3   OH232205   2.744   6.370   2.197  0.0600  0.3004  0.1460
 3549TIP3    H132206   2.762   6.289   2.245  0.0112  0.4506  0.4202
 3549TIP3    H232207   2.827   6.418   2.201  0.3717 -0.1333 -0.8079
 3550TIP3   OH232208   1.304   3.467   8.726 -0.1894 -0.0113 -0.2966
 3550TIP3    H132209   1.331   3.421   8.646 -0.2690 -0.3400 -0.1361
 3550TIP3    H232210   1.360   3.544   8.729  1.4436 -1.1645  0.5383
 3551TIP3   OH232211   0.433   0.786   0.034  0.0512  0.5098  0.8658
 3551TIP3    H132212   0.502   0.740  -0.015 -2.0656 -1.1437 -0.7425
 3551TIP3    H232213   0.432   0.743   0.119 -0.4973 -1.0426  0.0988
 3552TIP3   OH232214   1.398   0.699   1.457 -0.0623 -0.6291  0.5590
 3552TIP3    H132215   1.461   0.693   1.385  0.9535  2.2910  1.0936
 3552TIP3    H232216   1.433   0.639   1.523  0.7492 -0.9577 -0.1379
 3553TIP3   OH232217   6.838   5.753   0.938 -0.2594 -0.1534 -0.0176
 3553TIP3    H132218   6.789   5.793   0.866  2.4135  3.1299 -0.2171
 3553TIP3    H232219   6.820   5.809   1.014  0.4497 -0.9594  0.7719
 3554TIP3   OH232220   2.191   2.311   8.149 -0.0498  0.3802 -0.3972
 3554TIP3    H132221   2.245   2.384   8.117 -0.1241  0.5075 -0.2316
 3554TIP3    H232222   2.251   2.260   8.203 -0.7117  1.9585  2.0019
 3555TIP3   OH232223   0.845   2.456   0.396 -0.2343  0.3986  0.6728
 3555TIP3    H132224   0.769   2.427   0.447 -0.0528 -0.9388  0.2143
 3555TIP3    H232225   0.864   2.383   0.337  0.0440  1.5940 -0.7861
 3556TIP3   OH232226   1.914   0.318   0.687  0.1289 -0.4466 -0.1862
 3556TIP3    H132227   1.845   0.257   0.663 -0.9142  0.2471  0.9136
 3556TIP3    H232228   1.871   0.382   0.743  1.4299  0.6563 -0.3814
 3557TIP3   OH232229   5.122   4.706   0.499  0.1648 -0.3911 -0.0649
 3557TIP3    H132230   5.210   4.728   0.528  0.6464 -0.4101 -1.4504
 3557TIP3    H232231   5.070   4.703   0.580  1.5257 -0.8987  0.8194
 3558TIP3   OH232232   0.225   0.298   7.201 -0.7396  0.4355 -0.4630
 3558TIP3    H132233   0.288   0.247   7.150 -0.3273  0.9253 -0.4550
 3558TIP3    H232234   0.224   0.384   7.158  1.5101  1.7114  1.7876
 3559TIP3   OH232235   6.392   6.517   6.992  0.0393  0.2620 -0.1963
 3559TIP3    H132236   6.337   6.444   7.018  0.8934 -0.3011  0.0747
 3559TIP3    H232237   6.405   6.505   6.898  0.9312 -0.4842  0.0028
 3560TIP3   OH232238   0.327   2.362   1.576  0.9049 -0.1893  0.3661
 3560TIP3    H132239   0.415   2.392   1.556  2.1284 -2.5310  1.6985
 3560TIP3    H232240   0.337   2.312   1.658 -2.0350  1.1275  1.6902
 3561TIP3   OH232241   0.966   4.230   7.652 -0.4672  0.1111 -0.2988
 3561TIP3    H132242   0.886   4.211   7.602 -1.1874  0.0721  0.8446
 3561TIP3    H232243   0.935   4.274   7.731  0.6439  0.0742  0.1698
 3562TIP3   OH232244   2.984   0.017   1.554  0.0481  0.9200  0.1957
 3562TIP3    H132245   3.072   0.051   1.539  0.3936  0.4076  0.9743
 3562TIP3    H232246   2.955   0.061   1.634 -0.6061  1.4601 -0.3321
 3563TIP3   OH232247   0.191   5.296   7.870 -0.5309 -0.4603  0.1193
 3563TIP3    H132248   0.102   5.263   7.865 -0.3132 -1.0676  0.2200
 3563TIP3    H232249   0.193   5.368   7.807 -1.0612 -0.5128  0.0398
 3564TIP3   OH232250   5.226   5.600   1.745 -0.4085  0.2265 -0.1598
 3564TIP3    H132251   5.179   5.570   1.667 -0.8332  0.3093  0.0584
 3564TIP3    H232252   5.157   5.635   1.801  0.1066  2.2589 -0.7011
 3565TIP3   OH232253   5.887   2.767   0.907  0.3130 -0.2575  0.4493
 3565TIP3    H132254   5.842   2.848   0.927 -0.8253 -0.4219 -1.2930
 3565TIP3    H232255   5.977   2.781   0.938 -0.0484  1.3733  0.8259
 3566TIP3   OH232256   6.617   1.117   1.350  0.0988  0.9141  0.1200
 3566TIP3    H132257   6.712   1.114   1.362  0.1166  1.0383  0.0115
 3566TIP3    H232258   6.593   1.026   1.330  0.2753  0.9818 -0.4246
 3567TIP3   OH232259   0.404   6.329   8.387 -0.0056 -0.2097 -0.0100
 3567TIP3    H132260   0.487   6.360   8.423  0.2846 -0.9543 -0.0283
 3567TIP3    H232261   0.417   6.235   8.372  0.1310  0.1844 -2.7904
 3568TIP3   OH232262   4.516   4.893   8.338 -0.2191  0.0962  0.0400
 3568TIP3    H132263   4.519   4.987   8.353 -0.4782 -0.1610  1.9829
 3568TIP3    H232264   4.444   4.881   8.276  1.3449  1.3308 -2.1553
 3569TIP3   OH232265   2.968   5.071   2.089  0.0375 -0.1364 -0.2888
 3569TIP3    H132266   3.015   5.086   2.007 -1.4959  1.5397 -0.9223
 3569TIP3    H232267   3.017   5.121   2.154  1.0571 -1.1885 -0.2091
 3570TIP3   OH232268   4.768   4.101   7.706 -0.1600 -0.3989 -0.2364
 3570TIP3    H132269   4.775   4.171   7.771  1.1723  0.4532 -1.2387
 3570TIP3    H232270   4.857   4.086   7.677 -0.7803 -0.0972 -2.5139
 3571TIP3   OH232271   5.409   3.540   0.830 -0.3025  0.5075 -0.2592
 3571TIP3    H132272   5.451   3.563   0.913 -1.1219 -2.0857  0.9687
 3571TIP3    H232273   5.479   3.549   0.765  1.3126 -0.5471  1.2264
 3572TIP3   OH232274   1.526   1.689   7.519 -0.4690 -0.1116 -0.7183
 3572TIP3    H132275   1.482   1.774   7.526 -1.6736 -0.6824 -1.1724
 3572TIP3    H232276   1.618   1.708   7.538 -0.5723  1.4343 -1.6283
 3573TIP3   OH232277   4.060   4.476   0.741 -0.3110  0.1083 -0.2601
 3573TIP3    H132278   4.070   4.521   0.825 -3.1091 -0.5032  0.4937
 3573TIP3    H232279   3.977   4.509   0.706  0.4334 -0.2061 -2.4630
 3574TIP3   OH232280   5.966   6.803   1.635  0.1904 -0.1143  0.3392
 3574TIP3    H132281   5.955   6.708   1.628  1.0778 -0.2257  0.4323
 3574TIP3    H232282   6.024   6.816   1.710  1.2107  0.4169 -0.5150
 3575TIP3   OH232283   2.024   3.074   8.733  0.4873 -0.7892 -0.1436
 3575TIP3    H132284   2.007   3.129   8.657 -0.1528  1.3830  1.4762
 3575TIP3    H232285   1.966   2.999   8.723  0.2766 -0.4431 -1.6688
 3576TIP3   OH232286   0.481   4.196   7.009  0.3181  0.2365  0.5777
 3576TIP3    H132287   0.394   4.236   7.001  1.5505  3.1370  0.5266
 3576TIP3    H232288   0.475   4.116   6.957 -2.5895 -0.2172  1.4282
 3577TIP3   OH232289   6.223   2.040   7.520 -0.1585  0.5835  0.7541
 3577TIP3    H132290   6.201   2.131   7.538 -1.6979  0.1465  1.2234
 3577TIP3    H232291   6.298   2.045   7.461 -0.3872  2.1517  0.5531
 3578TIP3   OH232292   0.061   0.367   1.513  0.0398  1.1200  0.0772
 3578TIP3    H132293   0.009   0.308   1.568 -0.9440  2.2004  0.3387
 3578TIP3    H232294   0.152   0.342   1.532 -0.3370 -0.4285  0.0234
 3579TIP3   OH232295   6.432   0.568   8.437 -0.3078  0.2518  0.2775
 3579TIP3    H132296   6.483   0.647   8.453  0.9866 -0.3184 -0.8270
 3579TIP3    H232297   6.489   0.496   8.465  0.6980 -0.5659 -3.3242
 3580TIP3   OH232298   0.900   4.411   1.085  0.0666  0.0897  0.1257
 3580TIP3    H132299   0.985   4.422   1.129  0.4533 -1.0456 -0.2924
 3580TIP3    H232300   0.918   4.347   1.016 -0.3174  2.4072 -2.2510
 3581TIP3   OH232301   2.200   6.511   2.714  0.4117  0.1059 -0.3124
 3581TIP3    H132302   2.184   6.505   2.808 -0.0143  0.5655 -0.3508
 3581TIP3    H232303   2.255   6.436   2.694 -0.6235 -0.7812  0.0661
 3582TIP3   OH232304   4.201   3.838   2.317 -0.3819 -0.4025 -0.1604
 3582TIP3    H132305   4.207   3.750   2.352 -1.6741 -0.7029 -0.6129
 3582TIP3    H232306   4.145   3.885   2.379  0.1185  0.0315 -0.0363
 3583TIP3   OH232307   1.069   2.418   0.858 -0.0101  0.3731 -0.1610
 3583TIP3    H132308   1.119   2.397   0.779  1.6663 -0.4056  1.0630
 3583TIP3    H232309   1.008   2.345   0.868  1.7273 -1.0149  0.7909
 3584TIP3   OH232310   1.237   4.417   6.898 -0.5616 -0.0390  0.0638
 3584TIP3    H132311   1.284   4.474   6.836 -0.2786  0.1812  0.4793
 3584TIP3    H232312   1.169   4.376   6.845 -0.3868  0.2290 -0.3754
 3585TIP3   OH232313   5.452   3.826   1.947 -0.1430 -0.3496 -0.1517
 3585TIP3    H132314   5.527   3.770   1.928  0.1004 -0.1206  0.1425
 3585TIP3    H232315   5.447   3.829   2.042  0.7463  1.3350 -0.1290
 3586TIP3   OH232316   1.964   3.958   7.822 -0.3540  0.1557  0.3428
 3586TIP3    H132317   2.018   4.019   7.773 -0.5546  0.5775  0.6416
 3586TIP3    H232318   1.878   4.000   7.826 -0.9958 -0.9458 -0.9895
 3587TIP3   OH232319   5.624   3.824   6.889  0.2971  0.4170  0.1326
 3587TIP3    H132320   5.556   3.777   6.937  0.2706  0.6368  0.3126
 3587TIP3    H232321   5.578   3.893   6.843  0.4427  0.7934  0.5474
 3588TIP3   OH232322   6.698   2.955   1.560 -0.3855 -0.8957 -0.1773
 3588TIP3    H132323   6.775   2.922   1.606 -1.1627  0.9284  2.7025
 3588TIP3    H232324   6.719   3.047   1.541 -0.4482 -1.3577 -2.8449
 3589TIP3   OH232325   5.621   1.263   0.356 -0.2447  0.2366  0.1281
 3589TIP3    H132326   5.567   1.341   0.368 -1.2565 -0.4355  0.1182
 3589TIP3    H232327   5.705   1.285   0.396 -0.3630  1.4859 -0.2947
 3590TIP3   OH232328   3.447   3.556   2.287  0.3259 -0.2850 -0.5285
 3590TIP3    H132329   3.441   3.548   2.382 -2.4905 -0.5067 -0.6292
 3590TIP3    H232330   3.506   3.629   2.272 -0.8410  1.1535  1.4911
 3591TIP3   OH232331   2.877   0.802   7.098  0.3957 -0.0306 -0.1679
 3591TIP3    H132332   2.939   0.754   7.154  1.6892  1.6452 -0.0590
 3591TIP3    H232333   2.924   0.814   7.015  0.4099  1.5201  0.0166
 3592TIP3   OH232334   3.249   3.722   0.132  0.2125 -0.1567  0.2796
 3592TIP3    H132335   3.264   3.628   0.142  0.5674  0.0952  2.8160
 3592TIP3    H232336   3.315   3.751   0.069  0.0483 -1.5862 -0.5991
 3593TIP3   OH232337   3.848   4.687   8.435  0.5704  0.2977 -0.1246
 3593TIP3    H132338   3.925   4.638   8.407 -0.0325 -0.3005 -0.7696
 3593TIP3    H232339   3.845   4.675   8.530  2.5357  2.2034  0.2333
 3594TIP3   OH232340   2.768   3.640   8.015  0.3372  0.4004 -0.1592
 3594TIP3    H132341   2.708   3.596   8.075  0.6465 -0.2886 -0.3475
 3594TIP3    H232342   2.787   3.575   7.947 -0.2272  1.2512 -1.1736
 3595TIP3   OH232343   4.303   5.049   0.703  0.0284 -0.1991  0.0444
 3595TIP3    H132344   4.305   5.145   0.709  1.3565 -0.1014 -1.3046
 3595TIP3    H232345   4.345   5.030   0.619 -1.0658 -1.9382 -0.1498
 3596TIP3   OH232346   1.504   4.342   8.305 -0.1863 -0.5543 -0.4391
 3596TIP3    H132347   1.484   4.337   8.212 -1.1624 -0.9989 -0.2094
 3596TIP3    H232348   1.441   4.285   8.347  0.9449 -1.2245  0.4063
 3597TIP3   OH232349   6.574   3.533   0.551  0.3811 -0.0927  0.3618
 3597TIP3    H132350   6.610   3.452   0.514  0.2061  0.1515 -0.3611
 3597TIP3    H232351   6.646   3.596   0.546 -0.3584  0.6655 -1.9535
 3598TIP3   OH232352   2.127   1.889   8.431  0.1930 -0.0659 -0.4996
 3598TIP3    H132353   2.164   1.947   8.498  1.6835 -1.1048 -0.3742
 3598TIP3    H232354   2.188   1.816   8.426 -0.7026 -0.7684 -1.9237
 3599TIP3   OH232355   6.583   4.714   2.183  0.3247 -0.5576 -1.2534
 3599TIP3    H132356   6.500   4.717   2.232  0.4373 -1.1023 -1.0247
 3599TIP3    H232357   6.568   4.771   2.107  0.3468  0.7669 -0.2888
 3600TIP3   OH232358   3.408   0.762   8.404  0.3549 -0.0695  0.3783
 3600TIP3    H132359   3.497   0.783   8.433  2.3638 -2.6428 -3.1698
 3600TIP3    H232360   3.398   0.809   8.322 -1.6094  0.0904  0.6684
 3601TIP3   OH232361   2.430   1.687   0.088 -0.0712 -0.2038  0.3626
 3601TIP3    H132362   2.450   1.613   0.031  1.5768  1.9429 -2.1136
 3601TIP3    H232363   2.501   1.750   0.071 -2.8890  3.1879 -0.1090
 3602TIP3   OH232364   2.459   2.997   0.259  0.5767 -0.3091  0.1621
 3602TIP3    H132365   2.414   3.064   0.209  1.2878  0.0086 -0.0618
 3602TIP3    H232366   2.418   2.915   0.231 -1.7511  0.1236  1.9330
 3603TIP3   OH232367   4.777   0.577   0.623  0.3828  0.0668 -0.1878
 3603TIP3    H132368   4.864   0.617   0.627  0.5029 -0.0715 -1.2945
 3603TIP3    H232369   4.735   0.618   0.548 -1.4269  1.8965  1.6690
 3604TIP3   OH232370   1.436   0.755   0.685  0.5307 -0.1732  0.0470
 3604TIP3    H132371   1.430   0.706   0.603  0.7343  0.0170 -0.0815
 3604TIP3    H232372   1.378   0.831   0.671  1.7399  0.6851 -0.5067
 3605TIP3   OH232373   4.405   5.963   0.343  0.1991  0.2573  0.6606
 3605TIP3    H132374   4.500   5.975   0.348  0.2703  0.0471 -0.0785
 3605TIP3    H232375   4.372   6.002   0.424  1.0317 -0.9363  1.6198
 3606TIP3   OH232376   4.926   3.184   1.000 -0.1530 -0.4375  0.2872
 3606TIP3    H132377   4.862   3.113   0.997 -0.6616  0.0337 -0.4135
 3606TIP3    H232378   4.938   3.202   1.093 -1.3129 -0.2857  0.4159
 3607TIP3   OH232379   0.970   5.955   2.861 -0.1176 -0.7241 -0.1148
 3607TIP3    H132380   1.043   5.927   2.917 -0.4857  0.4279  1.0174
 3607TIP3    H232381   1.010   5.974   2.776  0.7524 -0.9541  0.2336
 3608TIP3   OH232382   1.271   1.387   1.226 -0.1267 -0.0877 -0.4100
 3608TIP3    H132383   1.305   1.395   1.136  0.4833  0.5044 -0.1317
 3608TIP3    H232384   1.208   1.315   1.221  1.9072 -1.9821 -0.7415
 3609TIP3   OH232385   2.623   0.648   1.949 -0.9521 -0.7794 -0.7112
 3609TIP3    H132386   2.696   0.683   1.899 -1.6467  2.7513  0.4313
 3609TIP3    H232387   2.663   0.609   2.027 -0.1851 -0.6735 -1.0459
 3610TIP3   OH232388   4.995   0.110   1.446  0.0332  0.6723 -0.1166
 3610TIP3    H132389   4.960   0.083   1.361 -1.0700 -1.5933  0.9761
 3610TIP3    H232390   4.919   0.117   1.503  0.8511  1.0337  0.9767
 3611TIP3   OH232391   0.750   1.407   8.410  0.0814  0.1840 -0.2257
 3611TIP3    H132392   0.806   1.461   8.466 -0.5331  0.5831  0.0230
 3611TIP3    H232393   0.670   1.394   8.461  1.0839 -3.0053  0.7379
 3612TIP3   OH232394   5.039   5.797   0.183  0.5194 -0.2054  0.0815
 3612TIP3    H132395   5.123   5.842   0.177  0.2088  0.4430  0.4512
 3612TIP3    H232396   5.022   5.792   0.277 -1.8534  3.5447  0.0608
 3613TIP3   OH232397   1.993   0.805   0.884 -0.4578  0.3158 -0.5703
 3613TIP3    H132398   2.007   0.839   0.795 -0.3634  0.3602 -0.5388
 3613TIP3    H232399   1.898   0.796   0.891 -0.5040  0.7853 -0.5056
 3614TIP3   OH232400   3.581   0.172   8.643 -0.4128  0.1262  0.1047
 3614TIP3    H132401   3.521   0.244   8.664 -1.5550 -0.1763 -1.9112
 3614TIP3    H232402   3.615   0.194   8.556 -1.0863 -1.9193 -0.7339
 3615TIP3   OH232403   1.201   3.284   8.219  0.4467  0.2254  0.3531
 3615TIP3    H132404   1.189   3.334   8.138  0.5216  0.2607  0.3633
 3615TIP3    H232405   1.164   3.198   8.200  0.5092  0.2180  0.2652
 3616TIP3   OH232406   2.910   2.096   0.868 -0.0200 -0.5105 -0.0263
 3616TIP3    H132407   2.902   2.001   0.859 -0.1371 -0.4997 -0.0367
 3616TIP3    H232408   2.838   2.132   0.817  1.1727 -0.3473 -1.6849
 3617TIP3   OH232409   3.972   6.661   7.194 -0.0093  0.1052  0.1563
 3617TIP3    H132410   3.928   6.733   7.150 -1.5392 -0.1111  1.2468
 3617TIP3    H232411   3.956   6.585   7.139 -0.2808  0.1942  0.1127
 3618TIP3   OH232412   3.968   3.575   0.340  0.3066  0.0367  0.2188
 3618TIP3    H132413   3.892   3.561   0.284  1.0237  1.1737 -1.0743
 3618TIP3    H232414   3.965   3.668   0.361  2.1429  0.4143 -1.0610
 3619TIP3   OH232415   1.897   4.307   8.287 -0.0748 -0.7356 -0.4371
 3619TIP3    H132416   1.873   4.273   8.201 -1.0434  0.2659 -0.5873
 3619TIP3    H232417   1.991   4.324   8.281  0.0797 -1.7170 -0.9196
 3620TIP3   OH232418   3.203   5.928   8.164  0.0925 -0.8114  0.1427
 3620TIP3    H132419   3.269   5.862   8.143  0.6741 -0.1884 -0.0180
 3620TIP3    H232420   3.218   5.998   8.102  1.3000  0.6980  2.0345
 3621TIP3   OH232421   4.444   4.659   0.023 -0.0036 -0.2428  0.4253
 3621TIP3    H132422   4.535   4.642   0.048 -0.3081 -0.8566  1.1618
 3621TIP3    H232423   4.441   4.753   0.008  0.8052 -0.2468  0.1617
 3622TIP3   OH232424   5.274   0.957   0.109 -0.2564  0.3315 -0.7780
 3622TIP3    H132425   5.361   0.923   0.128 -0.3783  0.7114  0.5518
 3622TIP3    H232426   5.231   0.963   0.194 -1.7956 -0.3917 -1.4653
 3623TIP3   OH232427   5.047   2.515   1.476  0.0797  0.3513 -0.1227
 3623TIP3    H132428   5.002   2.599   1.487 -0.1103  0.1318  0.8049
 3623TIP3    H232429   5.088   2.521   1.389 -0.4249  1.1670 -0.3124
 3624TIP3   OH232430   0.565   1.233   8.139 -0.3288 -0.0475  0.1786
 3624TIP3    H132431   0.483   1.277   8.162  0.5223  1.0513  1.2803
 3624TIP3    H232432   0.538   1.153   8.095 -1.9645  0.9620 -0.7687
 3625TIP3   OH232433   1.168   3.576   0.236 -0.2057  0.2422  0.1591
 3625TIP3    H132434   1.242   3.600   0.291  1.1638 -1.3649 -0.8793
 3625TIP3    H232435   1.196   3.595   0.147 -0.3160 -1.9261 -0.4128
 3626TIP3   OH232436   5.509   0.992   0.225 -0.1952  0.2720 -0.3880
 3626TIP3    H132437   5.542   1.040   0.149  0.9213  0.1987  0.0289
 3626TIP3    H232438   5.545   1.040   0.300 -0.4405 -0.2494  0.0701
 3627TIP3   OH232439   2.923   5.888   7.356  0.0735 -0.2294  0.7538
 3627TIP3    H132440   2.881   5.845   7.431  0.6161  0.4377  1.4509
 3627TIP3    H232441   2.884   5.976   7.354 -0.5414 -0.5041 -0.2569
 3628TIP3   OH232442   6.175   6.666   1.388 -0.0144 -0.7917 -0.2217
 3628TIP3    H132443   6.204   6.615   1.313  1.2455 -0.9777  0.3543
 3628TIP3    H232444   6.130   6.741   1.351  0.0023 -1.2301 -1.1409
 3629TIP3   OH232445   3.927   6.243   2.454 -0.2412 -0.4742 -0.5178
 3629TIP3    H132446   3.864   6.278   2.517  0.5714  0.6974 -0.3283
 3629TIP3    H232447   3.924   6.148   2.468 -0.6997 -0.2995  0.6782
 3630TIP3   OH232448   3.581   0.554   8.420  0.0992  0.1693 -0.0450
 3630TIP3    H132449   3.633   0.613   8.475 -1.0231  1.0976  0.0506
 3630TIP3    H232450   3.532   0.500   8.482  0.1450  0.0173 -0.1399
 3631TIP3   OH232451   2.539   0.497   2.405  0.2479 -0.0861 -0.2367
 3631TIP3    H132452   2.548   0.518   2.498  0.5582 -0.4747 -0.1779
 3631TIP3    H232453   2.468   0.553   2.375 -0.3099 -0.4416  0.3889
 3632TIP3   OH232454   4.513   1.280   0.128  0.1215 -0.3714 -0.0414
 3632TIP3    H132455   4.497   1.216   0.059  0.5024 -0.7211  0.1875
 3632TIP3    H232456   4.561   1.351   0.085  0.0226 -0.4092 -0.2147
 3633TIP3   OH232457   6.563   5.131   1.198  0.0468  0.0948  0.4894
 3633TIP3    H132458   6.569   5.073   1.122  1.3609 -0.0066  0.6510
 3633TIP3    H232459   6.653   5.154   1.218 -0.2533 -0.0559  2.1570
 3634TIP3   OH232460   1.228   4.609   0.015  0.9269  0.2028  0.8706
 3634TIP3    H132461   1.179   4.689   0.032  1.2390  1.3215 -2.7073
 3634TIP3    H232462   1.319   4.633   0.027  1.1865  1.1354 -2.1504
 3635TIP3   OH232463   6.649   0.039   2.188 -0.3916  0.3015 -0.1125
 3635TIP3    H132464   6.672   0.131   2.200  0.4285  0.0535  0.2357
 3635TIP3    H232465   6.561   0.031   2.225 -0.5483  0.9872 -0.3321
 3636TIP3   OH232466   3.897   5.610   7.474 -0.9237  0.7723 -0.1056
 3636TIP3    H132467   3.936   5.694   7.497  0.5758  0.6947 -2.0831
 3636TIP3    H232468   3.963   5.568   7.419 -2.1425 -1.1985 -0.1392
 3637TIP3   OH232469   2.428   2.071   0.559  0.0438  0.0983  0.3002
 3637TIP3    H132470   2.401   1.994   0.508 -0.1336  1.6666 -2.1282
 3637TIP3    H232471   2.356   2.133   0.550  1.6278  1.8680 -0.7769
 3638TIP3   OH232472   3.456   6.271   2.264 -0.3935 -0.2760 -0.0579
 3638TIP3    H132473   3.491   6.349   2.220 -0.7494 -0.7253 -1.1526
 3638TIP3    H232474   3.426   6.215   2.193  1.4664 -2.2261  0.5973
 3639TIP3   OH232475   5.449   5.351   0.006  0.2311  0.7984 -0.1307
 3639TIP3    H132476   5.419   5.317  -0.079 -1.0520  0.6006  0.3804
 3639TIP3    H232477   5.541   5.324   0.011  0.1968  0.3933 -1.2450
 3640TIP3   OH232478   2.866   1.216   1.383  0.3102 -0.2160  0.1802
 3640TIP3    H132479   2.838   1.283   1.321  2.8532  0.7368 -0.0834
 3640TIP3    H232480   2.794   1.209   1.446  0.0364  3.0069  0.3878
 3641TIP3   OH232481   3.614   0.565   0.745  0.0860 -0.2847 -0.0151
 3641TIP3    H132482   3.621   0.470   0.754  1.8059 -0.3781 -1.7715
 3641TIP3    H232483   3.564   0.578   0.664  0.0590  0.3079  0.0926
 3642TIP3   OH232484   5.557   1.697   8.297  0.1479 -0.3938  0.1631
 3642TIP3    H132485   5.593   1.664   8.215  0.3047  0.8594 -0.2959
 3642TIP3    H232486   5.526   1.785   8.276  0.0611 -0.1054  1.4137
 3643TIP3   OH232487   4.667   2.562   1.736 -0.0330 -0.2432 -0.7883
 3643TIP3    H132488   4.573   2.568   1.719 -0.3489  0.1623  0.8879
 3643TIP3    H232489   4.683   2.470   1.753 -0.2926 -0.1939 -0.2619
 3644TIP3   OH232490   4.431   2.708   1.928 -0.3573 -0.6153  0.4034
 3644TIP3    H132491   4.404   2.636   1.986 -1.6398 -0.2470  0.2869
 3644TIP3    H232492   4.515   2.737   1.964 -0.2682 -1.5629  1.0037
 3645TIP3   OH232493   1.303   0.658   7.688 -0.5113  0.2373  0.0319
 3645TIP3    H132494   1.244   0.730   7.664 -0.8388 -0.6810 -2.2371
 3645TIP3    H232495   1.247   0.580   7.686  0.3683 -0.4066 -0.2792
 3646TIP3   OH232496   2.202   1.440   6.782 -0.1692  0.7748 -0.0572
 3646TIP3    H132497   2.267   1.378   6.750  0.2290  0.8204  0.6538
 3646TIP3    H232498   2.118   1.403   6.753  0.0499 -0.1777  0.4600
 3647TIP3   OH232499   1.854   2.940   0.588  0.0799 -0.3601 -0.0351
 3647TIP3    H132500   1.863   3.027   0.549  0.8672 -0.6007 -0.4340
 3647TIP3    H232501   1.786   2.949   0.654 -0.1686  0.4466 -0.3939
 3648TIP3   OH232502   0.789   1.968   6.833 -0.0049 -0.4069 -0.2302
 3648TIP3    H132503   0.805   1.917   6.754  0.0447  0.3294 -0.7016
 3648TIP3    H232504   0.859   2.033   6.835 -0.1494 -0.2599  0.2929
 3649TIP3   OH232505   1.634   5.858   0.453 -0.2080  0.0206 -0.2234
 3649TIP3    H132506   1.578   5.781   0.460  1.5051 -1.2572  0.1755
 3649TIP3    H232507   1.707   5.840   0.511 -0.0473  2.2596  0.3526
 3650TIP3   OH232508   6.370   6.598   6.440  0.4409  0.1483 -0.5215
 3650TIP3    H132509   6.305   6.651   6.393  0.1671  0.1616 -0.1288
 3650TIP3    H232510   6.406   6.539   6.372 -0.8406 -0.6924 -0.5064
 3651TIP3   OH232511   5.587   1.904   8.085  0.4107 -0.0549 -0.0449
 3651TIP3    H132512   5.600   1.852   8.006  1.7971  1.5093 -0.8997
 3651TIP3    H232513   5.593   1.995   8.055 -1.4836  0.6286  1.4694
 3652TIP3   OH232514   2.829   4.867   0.092  0.2569  0.4862 -0.0656
 3652TIP3    H132515   2.748   4.861   0.143  0.3294  0.0485 -0.0023
 3652TIP3    H232516   2.803   4.839   0.004  0.4132  0.0318  0.0328
 3653TIP3   OH232517   4.853   6.750   7.658  0.3305 -0.2098 -0.5244
 3653TIP3    H132518   4.894   6.784   7.738 -1.0176  0.8489 -0.2413
 3653TIP3    H232519   4.880   6.658   7.654  1.4135  0.0455  0.4779
 3654TIP3   OH232520   2.204   2.131   1.562  0.0975  0.5669 -0.1618
 3654TIP3    H132521   2.176   2.137   1.653  0.6364 -1.4583  0.1783
 3654TIP3    H232522   2.182   2.042   1.536  2.1385  0.3250 -1.2286
 3655TIP3   OH232523   5.719   5.139   2.169  0.5267  0.5498  0.0239
 3655TIP3    H132524   5.774   5.065   2.196 -0.6972  0.2237  1.7491
 3655TIP3    H232525   5.629   5.105   2.173  0.0735  1.4125 -1.6147
 3656TIP3   OH232526   3.770   2.646   0.297 -0.4226 -0.3326  0.3083
 3656TIP3    H132527   3.730   2.579   0.352 -0.8785 -1.1915 -1.0266
 3656TIP3    H232528   3.785   2.720   0.356 -1.1327 -1.1211  1.5108
 3657TIP3   OH232529   4.910   0.303   6.589 -0.0296  0.6782  0.0818
 3657TIP3    H132530   4.830   0.289   6.641 -2.2855  3.1498 -2.3890
 3657TIP3    H232531   4.891   0.260   6.506  1.1522  1.4719 -0.6095
 3658TIP3   OH232532   4.400   0.986   0.405  0.4737  0.5583  0.5096
 3658TIP3    H132533   4.399   1.081   0.412  2.0136  0.7190 -0.9449
 3658TIP3    H232534   4.487   0.964   0.371 -0.5029 -1.2039 -1.0675
 3659TIP3   OH232535   0.411   0.620   7.195  0.7198  0.0453 -0.1090
 3659TIP3    H132536   0.446   0.533   7.175  2.6420  0.9296 -0.8172
 3659TIP3    H232537   0.423   0.670   7.115 -0.5164  0.9456  0.2395
 3660TIP3   OH232538   5.434   5.096   1.404 -0.7822 -0.3807 -1.0358
 3660TIP3    H132539   5.425   5.043   1.483  0.2620  0.2137 -0.4951
 3660TIP3    H232540   5.376   5.170   1.417 -0.7272 -0.3636 -0.8902
 3661TIP3   OH232541   1.379   1.795   7.027  0.1513  0.1057  0.0357
 3661TIP3    H132542   1.439   1.869   7.017 -0.0562  0.0558 -1.9392
 3661TIP3    H232543   1.411   1.730   6.965 -1.5923 -0.1338 -0.6801
 3662TIP3   OH232544   4.397   5.474   0.524  0.5000 -0.0988  0.6171
 3662TIP3    H132545   4.461   5.542   0.544  1.0407 -0.6395  0.7589
 3662TIP3    H232546   4.437   5.422   0.455  0.2969 -0.5485  0.8284
 3663TIP3   OH232547   0.877   6.366   7.059 -0.1151 -0.2676 -0.4316
 3663TIP3    H132548   0.949   6.343   7.000  0.4627 -0.0366  0.1704
 3663TIP3    H232549   0.912   6.437   7.113 -0.5108 -0.6967  0.4068
 3664TIP3   OH232550   5.442   0.743   2.219  0.1423  0.9746 -0.1305
 3664TIP3    H132551   5.516   0.766   2.275  1.2353 -1.2419 -0.5715
 3664TIP3    H232552   5.366   0.781   2.264  0.8924 -1.0443  3.1628
 3665TIP3   OH232553   5.984   1.807   1.324  0.0361 -0.1716  0.0817
 3665TIP3    H132554   6.023   1.789   1.238 -0.3239  0.0095 -0.1229
 3665TIP3    H232555   6.008   1.732   1.377  2.5204  0.9021  0.6090
 3666TIP3   OH232556   6.220   6.752   6.262  0.0275  0.4750  0.3179
 3666TIP3    H132557   6.237   6.846   6.267 -0.0839  0.5016  0.1785
 3666TIP3    H232558   6.200   6.736   6.170 -1.0283  0.4931  0.5411
 3667TIP3   OH232559   6.361   3.627   7.283 -0.0753  0.7643  0.1055
 3667TIP3    H132560   6.435   3.616   7.223 -2.0984  2.4118 -2.9510
 3667TIP3    H232561   6.377   3.712   7.325  0.7225  0.1786  1.0345
 3668TIP3   OH232562   0.144   5.396   2.038  0.0356  0.1600 -0.1631
 3668TIP3    H132563   0.124   5.388   2.131  0.5360 -3.4696 -0.1963
 3668TIP3    H232564   0.239   5.387   2.033  0.1419  1.5154 -0.9812
 3669TIP3   OH232565   3.073   6.528   2.021 -0.4995 -0.6415 -0.3967
 3669TIP3    H132566   3.146   6.550   1.962  0.5905 -1.2570  0.6894
 3669TIP3    H232567   2.995   6.533   1.965  0.3228  0.3786 -1.5020
 3670TIP3   OH232568   3.822   3.404   0.687 -0.4194 -0.3107  0.6314
 3670TIP3    H132569   3.777   3.451   0.757 -1.1377 -0.2350  0.1339
 3670TIP3    H232570   3.905   3.450   0.677 -1.0502  0.8008  0.2378
 3671TIP3   OH232571   2.822   6.503   0.241  0.0151  0.4982 -0.1679
 3671TIP3    H132572   2.886   6.478   0.308  0.8141  1.4104 -0.5606
 3671TIP3    H232573   2.865   6.574   0.193  0.3952 -1.5132 -3.0393
 3672TIP3   OH232574   0.435   5.679   8.018  0.4672 -0.1314  0.4310
 3672TIP3    H132575   0.358   5.656   8.071  0.6063 -0.0512  0.6730
 3672TIP3    H232576   0.400   5.723   7.941  0.2274 -0.7137  0.2036
 3673TIP3   OH232577   2.400   3.282   2.110  0.3483  0.8874 -0.0475
 3673TIP3    H132578   2.471   3.217   2.116  0.4415  0.8062 -1.5654
 3673TIP3    H232579   2.428   3.354   2.167  1.4466  0.6553 -0.2730
 3674TIP3   OH232580   2.911   3.024   0.619 -0.8283 -0.6064  0.8628
 3674TIP3    H132581   2.829   3.034   0.571  1.3687  2.1478 -2.8566
 3674TIP3    H232582   2.956   2.952   0.576  1.0095  1.6521 -1.3162
 3675TIP3   OH232583   1.812   2.148   6.591  0.0500 -0.2197 -0.4699
 3675TIP3    H132584   1.866   2.074   6.564 -0.7017 -0.8182 -0.3491
 3675TIP3    H232585   1.795   2.134   6.684 -2.0187 -1.1575 -0.9466
 3676TIP3   OH232586   5.273   3.137   7.668 -0.2039  0.1520  0.0269
 3676TIP3    H132587   5.222   3.148   7.748  1.6923  2.0688  1.0714
 3676TIP3    H232588   5.233   3.197   7.605 -0.9453 -0.4545 -0.0911
 3677TIP3   OH232589   3.961   1.228   0.598 -0.1256 -0.1258 -0.0759
 3677TIP3    H132590   3.887   1.198   0.545  2.1004 -2.1949 -2.2922
 3677TIP3    H232591   3.976   1.318   0.570 -1.5134  0.1660  0.0845
 3678TIP3   OH232592   5.532   2.223   8.452 -0.0694  0.2235  0.2092
 3678TIP3    H132593   5.623   2.245   8.434  0.0946 -1.1216 -0.6879
 3678TIP3    H232594   5.482   2.283   8.397  0.2031  1.6064  1.3864
 3679TIP3   OH232595   4.899   3.486   7.557  0.0335 -0.0324 -0.2707
 3679TIP3    H132596   4.896   3.410   7.498  1.4749 -0.3046 -0.0253
 3679TIP3    H232597   4.860   3.454   7.638 -1.0264  0.0423 -0.7371
 3680TIP3   OH232598   4.179   6.562   1.944 -0.0276  0.0319  0.3937
 3680TIP3    H132599   4.088   6.544   1.967 -1.0508 -0.0558 -3.2111
 3680TIP3    H232600   4.208   6.483   1.897  1.2052  0.8662 -0.3111
 3681TIP3   OH232601   6.023   4.167   8.386 -0.2010 -0.1122 -0.1179
 3681TIP3    H132602   5.965   4.151   8.461  0.7692 -0.2783  0.6289
 3681TIP3    H232603   5.977   4.129   8.311 -0.7368 -0.8697  0.5785
 3682TIP3   OH232604   2.476   6.034   2.224 -0.1312 -0.1883 -0.0760
 3682TIP3    H132605   2.461   6.122   2.190  1.2175 -0.1032 -0.5261
 3682TIP3    H232606   2.563   6.011   2.191  0.0637 -1.1840  1.0829
 3683TIP3   OH232607   5.235   1.224   0.704 -0.4678 -0.5407  0.1191
 3683TIP3    H132608   5.146   1.228   0.670 -0.6751  0.2159  0.7216
 3683TIP3    H232609   5.225   1.233   0.799  0.3048  0.4448  0.1158
 3684TIP3   OH232610   2.200   2.302   2.421  0.1292  0.2325  0.0374
 3684TIP3    H132611   2.245   2.222   2.447 -0.8901 -0.8914 -1.4469
 3684TIP3    H232612   2.142   2.322   2.494 -0.7568 -1.3100 -0.2117
 3685TIP3   OH232613   6.023   0.509   7.741  0.6391  0.5092  0.0251
 3685TIP3    H132614   6.021   0.416   7.719  1.5266  0.7015 -0.9250
 3685TIP3    H232615   6.054   0.552   7.661 -1.3102  1.7975 -0.1061
 3686TIP3   OH232616   3.546   0.573   2.587  0.2099  0.1684 -0.0094
 3686TIP3    H132617   3.478   0.515   2.621 -0.2545  0.6735 -0.0554
 3686TIP3    H232618   3.553   0.642   2.653 -0.2074  0.7846 -0.5952
 3687TIP3   OH232619   4.055   5.077   8.070 -0.1856 -0.2277 -0.3981
 3687TIP3    H132620   3.983   5.023   8.037 -2.1148 -0.2404  3.3164
 3687TIP3    H232621   4.022   5.166   8.067 -0.4101 -0.2208  1.2489
 3688TIP3   OH232622   4.119   4.683   0.921 -0.2461  0.0684  0.3210
 3688TIP3    H132623   4.099   4.753   0.859  0.7250 -0.0963 -0.2052
 3688TIP3    H232624   4.082   4.713   1.004 -1.5914  0.2704 -0.3289
 3689TIP3   OH232625   6.448   5.223   6.759  0.1611 -0.4434 -0.4134
 3689TIP3    H132626   6.370   5.175   6.787  0.0995 -0.2449 -0.2386
 3689TIP3    H232627   6.508   5.218   6.834  0.4604 -0.8964 -0.6756
 3690TIP3   OH232628   3.847   6.626   8.665 -0.0368  0.0072 -0.0547
 3690TIP3    H132629   3.798   6.543   8.663  0.5020 -0.3091 -0.1541
 3690TIP3    H232630   3.908   6.616   8.737 -0.3971  0.5687  0.3355
 3691TIP3   OH232631   2.626   4.868   7.893  0.3317 -0.1208  0.3991
 3691TIP3    H132632   2.574   4.794   7.923 -0.5313 -0.3058 -1.4367
 3691TIP3    H232633   2.620   4.865   7.798  1.7953  1.2446  0.2205
 3692TIP3   OH232634   2.695   0.673   1.281 -0.2617 -0.2464  0.1230
 3692TIP3    H132635   2.708   0.668   1.376  0.5324  0.0736  0.0420
 3692TIP3    H232636   2.696   0.582   1.251 -0.5456 -0.3487  0.4254
 3693TIP3   OH232637   4.871   3.186   1.566 -0.1009 -0.1439 -0.3075
 3693TIP3    H132638   4.777   3.197   1.582 -0.2429 -0.2062 -1.0637
 3693TIP3    H232639   4.910   3.267   1.599 -0.3912 -0.2179  0.2271
 3694TIP3   OH232640   4.433   2.034   0.625 -0.3700  0.1089  0.0354
 3694TIP3    H132641   4.401   2.105   0.680  0.7428  1.2645 -0.7595
 3694TIP3    H232642   4.435   2.071   0.536  0.5966 -0.7690 -0.3354
 3695TIP3   OH232643   4.130   3.316   1.347 -0.5201  0.2917  0.4055
 3695TIP3    H132644   4.133   3.394   1.403  0.7962  0.1190  0.6232
 3695TIP3    H232645   4.161   3.347   1.262  1.0909 -0.1693  0.7766
 3696TIP3   OH232646   1.721   0.830   1.499 -0.4971  0.0387 -0.2117
 3696TIP3    H132647   1.784   0.870   1.560  2.7101 -0.1046 -3.1448
 3696TIP3    H232648   1.699   0.746   1.539  1.6074 -0.1276  0.7307
 3697TIP3   OH232649   2.628   5.052   0.468 -0.0178 -0.2984  0.0163
 3697TIP3    H132650   2.717   5.022   0.487 -0.5426 -0.3253  2.9104
 3697TIP3    H232651   2.606   5.011   0.385  2.5563 -0.5111 -0.6369
 3698TIP3   OH232652   3.054   6.682   0.909 -0.3533 -0.0936 -0.3555
 3698TIP3    H132653   3.145   6.695   0.936 -0.2826 -3.2080  1.3884
 3698TIP3    H232654   3.008   6.760   0.938  1.1319 -0.0556  2.1247
 3699TIP3   OH232655   6.339   6.217   0.876 -0.2189 -0.0130 -0.2081
 3699TIP3    H132656   6.429   6.186   0.888 -0.1701  0.2372  0.0844
 3699TIP3    H232657   6.289   6.173   0.945 -0.5293 -0.9873 -1.0337
 3700TIP3   OH232658   1.653   5.784   0.919  0.1131  0.1191  0.0150
 3700TIP3    H132659   1.720   5.788   0.988 -0.9829  0.7702  1.0776
 3700TIP3    H232660   1.588   5.849   0.945 -0.6805 -0.1297 -1.2798
 3701TIP3   OH232661   2.706   1.757   7.786 -0.3250  0.0318 -0.2936
 3701TIP3    H132662   2.762   1.699   7.735 -0.2751 -0.5330  0.3896
 3701TIP3    H232663   2.630   1.773   7.729  0.3478  0.5166 -1.0776
 3702TIP3   OH232664   5.083   6.398   1.702  0.2184 -0.0600  0.1396
 3702TIP3    H132665   5.028   6.460   1.655 -0.4714 -0.3474  0.5538
 3702TIP3    H232666   5.135   6.452   1.761 -0.2431  0.1443  0.3628
 3703TIP3   OH232667   4.860   0.754   1.611  0.2042 -0.1544 -0.1528
 3703TIP3    H132668   4.873   0.847   1.593  0.6589 -0.4638 -1.5188
 3703TIP3    H232669   4.799   0.753   1.685 -0.4872  1.2205 -0.6594
 3704TIP3   OH232670   2.021   1.998   6.733  0.3288  0.1398  0.0273
 3704TIP3    H132671   2.073   2.025   6.657 -0.1223 -2.7320 -1.4431
 3704TIP3    H232672   2.050   1.908   6.751  1.1440  0.9777  3.9949
 3705TIP3   OH232673   3.531   3.312   8.674  0.2664  0.1050  0.1852
 3705TIP3    H132674   3.517   3.302   8.768 -0.1290  1.5771  0.3093
 3705TIP3    H232675   3.453   3.273   8.634 -0.4648  1.1138  0.5690
 3706TIP3   OH232676   4.017   0.400   0.852 -0.2625  0.1253  0.0271
 3706TIP3    H132677   4.038   0.448   0.772  0.0626  2.2866  1.3093
 3706TIP3    H232678   3.925   0.421   0.869  0.1351  1.1246  1.0906
 3707TIP3   OH232679   5.006   2.190   7.837  0.1813  0.1270  0.1673
 3707TIP3    H132680   5.037   2.153   7.754  0.1103  2.0020 -0.7616
 3707TIP3    H232681   5.080   2.181   7.897 -0.2271 -2.5402  0.4081
 3708TIP3   OH232682   4.398   1.285   7.490  0.0541 -0.2200  0.0060
 3708TIP3    H132683   4.427   1.268   7.579 -0.6197 -0.1058  0.2552
 3708TIP3    H232684   4.442   1.366   7.464  0.1340 -0.1743  0.2881
 3709TIP3   OH232685   2.070   0.351   7.314  0.4025  0.1255 -0.6714
 3709TIP3    H132686   2.124   0.412   7.264  0.3520  0.1995 -0.6350
 3709TIP3    H232687   2.130   0.314   7.380  0.7122 -0.6681 -1.3760
 3710TIP3   OH232688   6.673   3.099   8.202  0.0358  0.5026  0.3324
 3710TIP3    H132689   6.674   3.172   8.265  2.5432 -0.4185  1.4868
 3710TIP3    H232690   6.694   3.022   8.254  1.4318 -0.4301 -1.4966
 3711TIP3   OH232691   5.692   6.120   1.590  0.0032  0.1415 -0.0220
 3711TIP3    H132692   5.671   6.052   1.526 -0.6768 -0.1352  0.4799
 3711TIP3    H232693   5.765   6.083   1.640 -0.7081 -0.4537  0.5933
 3712TIP3   OH232694   5.052   3.940   2.839  0.1807 -0.6887  0.5490
 3712TIP3    H132695   5.134   3.984   2.815 -0.2725 -0.4818 -0.6629
 3712TIP3    H232696   4.999   3.941   2.759 -1.3665 -0.0675  1.5405
 3713TIP3   OH232697   2.355   2.437   7.943 -0.1238 -0.6249 -0.2516
 3713TIP3    H132698   2.284   2.415   7.882 -0.6572 -1.9026  0.7748
 3713TIP3    H232699   2.419   2.367   7.931  1.1315  0.6634 -1.3552
 3714TIP3   OH232700   1.839   4.264   7.853  0.2631  0.0930 -0.4888
 3714TIP3    H132701   1.884   4.263   7.769  0.4188  2.1038 -0.4753
 3714TIP3    H232702   1.908   4.282   7.917 -0.2234  1.1812 -0.2483
 3715TIP3   OH232703   6.613   4.561   8.057 -0.3661  0.4517 -0.2225
 3715TIP3    H132704   6.521   4.533   8.050 -0.3091  0.3454 -0.5657
 3715TIP3    H232705   6.652   4.534   7.974  0.4288 -1.2119  0.6472
 3716TIP3   OH232706   4.036   3.031   1.767 -0.0252 -0.1576 -0.0831
 3716TIP3    H132707   4.020   3.119   1.732  0.3586  0.2759  0.7853
 3716TIP3    H232708   3.968   3.020   1.834  0.2533 -0.3054  0.1738
 3717TIP3   OH232709   5.386   2.452   7.950 -0.7583  0.7234  0.0221
 3717TIP3    H132710   5.448   2.473   8.020 -0.5644 -0.0891  0.1045
 3717TIP3    H232711   5.369   2.536   7.906 -1.0743  1.2879  1.1928
 3718TIP3   OH232712   2.876   3.037   7.323  0.1043  0.6274 -0.1296
 3718TIP3    H132713   2.918   3.121   7.308 -0.7005  0.9975 -0.3491
 3718TIP3    H232714   2.895   2.987   7.243  1.2389  0.3028  0.3165
 3719TIP3   OH232715   4.689   1.087   8.492  0.2207  0.1478 -0.3176
 3719TIP3    H132716   4.649   1.168   8.524  2.5562  2.5790 -2.8699
 3719TIP3    H232717   4.629   1.056   8.424 -0.4327  0.0628  0.2973
 3720TIP3   OH232718   0.637   2.617   2.388 -0.0096 -0.3359  0.5401
 3720TIP3    H132719   0.575   2.546   2.404 -1.5316  0.5841 -0.8651
 3720TIP3    H232720   0.707   2.604   2.451 -0.6945 -2.5471  0.9099
 3721TIP3   OH232721   1.075   6.145   1.247  0.2244  0.6354  0.2480
 3721TIP3    H132722   1.089   6.103   1.332  2.0823  1.6789  0.4996
 3721TIP3    H232723   0.995   6.197   1.260 -1.0746 -1.3033  0.4666
 3722TIP3   OH232724   4.773   0.118   1.588  0.0835 -0.5502 -0.8395
 3722TIP3    H132725   4.750   0.087   1.675  1.0659 -0.9193 -0.7008
 3722TIP3    H232726   4.698   0.172   1.562 -0.7648 -1.4021 -0.2723
 3723TIP3   OH232727   1.178   3.815   8.720  0.8726 -0.4020 -0.1593
 3723TIP3    H132728   1.252   3.756   8.707  2.0515  0.5825  1.6343
 3723TIP3    H232729   1.196   3.858   8.804 -1.6571  0.0198  0.2479
 3724TIP3   OH232730   5.528   3.398   7.387  0.0925  0.1744  0.7284
 3724TIP3    H132731   5.506   3.442   7.304  2.2133  1.6222  0.8595
 3724TIP3    H232732   5.469   3.438   7.451 -0.1309  0.5734  0.2846
 3725TIP3   OH232733   4.519   2.493   8.566  0.0822 -0.2479 -0.7436
 3725TIP3    H132734   4.469   2.503   8.647  3.4324 -0.0351  1.4784
 3725TIP3    H232735   4.559   2.579   8.552  0.6453 -0.6687 -1.8514
 3726TIP3   OH232736   4.088   5.606   1.156  0.0586 -0.1273  0.0961
 3726TIP3    H132737   4.012   5.608   1.213 -0.6316 -1.2954 -0.7349
 3726TIP3    H232738   4.127   5.520   1.171  1.6537  0.7141  1.0370
 3727TIP3   OH232739   4.576   1.514   0.033  0.7141 -0.1814  0.0749
 3727TIP3    H132740   4.545   1.589   0.083 -2.1737  1.0151 -3.0845
 3727TIP3    H232741   4.629   1.552  -0.037  1.0790 -1.3208 -0.2882
 3728TIP3   OH232742   4.709   4.677   0.403  0.1816  0.3109 -0.1548
 3728TIP3    H132743   4.716   4.765   0.441 -0.5929  0.1341  0.4124
 3728TIP3    H232744   4.640   4.634   0.453  0.5328 -0.6234 -0.4406
 3729TIP3   OH232745   6.210   2.491   7.859 -0.5253  0.2505 -0.5792
 3729TIP3    H132746   6.234   2.516   7.770  1.0218 -1.9930 -0.8667
 3729TIP3    H232747   6.168   2.405   7.850 -0.4449  0.0303  0.8295
 3730TIP3   OH232748   5.588   2.062   2.440  0.3501 -0.1055 -0.7822
 3730TIP3    H132749   5.680   2.074   2.415  0.6422  0.9372  0.7130
 3730TIP3    H232750   5.591   2.011   2.521 -0.1433  2.6815  1.1384
 3731TIP3   OH232751   4.377   1.847   0.868 -0.3154  0.1317  1.3940
 3731TIP3    H132752   4.294   1.895   0.856 -0.0252  0.3542  0.1727
 3731TIP3    H232753   4.437   1.888   0.806 -0.1870 -2.1025 -0.0515
 3732TIP3   OH232754   3.208   5.469   1.232  0.7380  0.1796  0.6541
 3732TIP3    H132755   3.295   5.509   1.231  0.7745  0.1795 -1.8059
 3732TIP3    H232756   3.157   5.524   1.291  1.3198  2.8326 -1.1206
 3733TIP3   OH232757   1.342   3.623   7.876  0.1749 -0.0737 -0.0768
 3733TIP3    H132758   1.343   3.634   7.781  1.6353  1.6208  0.0761
 3733TIP3    H232759   1.366   3.531   7.890  0.7898 -0.1161 -1.3338
 3734TIP3   OH232760   1.389   5.213   7.381 -0.4863 -0.2286  0.1893
 3734TIP3    H132761   1.354   5.269   7.311 -0.7617  1.2949  1.4773
 3734TIP3    H232762   1.478   5.193   7.354 -0.1602  1.3850 -0.0461
 3735TIP3   OH232763   3.627   5.830   1.937 -0.2780  0.7546  0.1778
 3735TIP3    H132764   3.549   5.834   1.882  0.5898 -1.9423 -1.4496
 3735TIP3    H232765   3.626   5.742   1.974  0.2894  1.7913  2.9033
 3736TIP3   OH232766   0.702   4.070   1.677  0.4734  0.3410 -0.2110
 3736TIP3    H132767   0.774   4.132   1.662  0.2060  0.8282  0.4924
 3736TIP3    H232768   0.743   3.984   1.670  1.3700  0.6118  1.3289
 3737TIP3   OH232769   4.633   4.655   1.215  0.5577  0.3687  0.0001
 3737TIP3    H132770   4.654   4.741   1.178  1.2631  0.7903  1.3106
 3737TIP3    H232771   4.672   4.657   1.302  2.3375 -2.0508 -0.6587
 3738TIP3   OH232772   5.539   2.933   8.227  0.0206 -0.3296  0.5299
 3738TIP3    H132773   5.516   2.947   8.319 -0.4929  2.0417  0.1047
 3738TIP3    H232774   5.624   2.976   8.216 -0.3182  0.1772 -0.2645
 3739TIP3   OH232775   3.565   4.476   6.903  0.1940 -0.2006 -0.0167
 3739TIP3    H132776   3.649   4.444   6.873  1.0610  1.6265  0.3123
 3739TIP3    H232777   3.515   4.492   6.823  0.6485 -0.0941 -0.2823
 3740TIP3   OH232778   1.032   5.910   8.571 -0.1754 -0.7356  0.5099
 3740TIP3    H132779   0.999   5.998   8.592  0.6576 -0.4464  0.6560
 3740TIP3    H232780   1.011   5.858   8.649  1.5278 -0.0392  1.5162
 3741TIP3   OH232781   5.369   2.627   8.526  0.1249 -0.4968 -0.3078
 3741TIP3    H132782   5.461   2.641   8.550 -0.0452  1.0054 -0.4487
 3741TIP3    H232783   5.327   2.599   8.607  0.6903 -1.1804 -0.2374
 3742TIP3   OH232784   3.896   5.139   0.975  0.0646 -0.9731  0.0203
 3742TIP3    H132785   3.902   5.167   0.884 -1.9179 -0.6989 -0.0723
 3742TIP3    H232786   3.877   5.220   1.023  0.5465 -1.2027  0.6098
 3743TIP3   OH232787   3.271   2.616   1.667 -0.1770  0.1165 -0.1026
 3743TIP3    H132788   3.178   2.595   1.668 -0.7516  2.2940  1.9941
 3743TIP3    H232789   3.274   2.709   1.644  1.3081  0.5110  1.4496
 3744TIP3   OH232790   5.343   4.660   7.485  0.5065 -0.4072  0.2536
 3744TIP3    H132791   5.371   4.587   7.540  2.3516 -0.7303 -1.0020
 3744TIP3    H232792   5.264   4.628   7.442 -0.6096 -0.3730  2.1792
 3745TIP3   OH232793   6.771   4.574   8.746  0.1819  0.0898 -1.1400
 3745TIP3    H132794   6.738   4.623   8.670 -0.0365  0.1510 -1.0061
 3745TIP3    H232795   6.865   4.564   8.729  0.5289  1.8366 -0.4782
 3746TIP3   OH232796   2.928   6.106   1.987  0.4946  0.1837 -0.3493
 3746TIP3    H132797   2.899   6.193   1.960  1.4104 -0.0474 -2.2627
 3746TIP3    H232798   3.011   6.093   1.941  1.2419 -1.0315  1.2494
 3747TIP3   OH232799   6.082   6.688   7.178 -0.2576  0.0230  0.1844
 3747TIP3    H132800   6.046   6.736   7.252 -2.8376  0.6275 -1.3488
 3747TIP3    H232801   6.018   6.620   7.159  0.4621 -0.2844 -1.3415
 3748TIP3   OH232802   1.920   0.344   8.678 -0.2897 -0.7266 -0.4470
 3748TIP3    H132803   1.940   0.282   8.608  4.5687  1.2702 -1.2032
 3748TIP3    H232804   1.922   0.430   8.637 -1.8622  0.3099  1.4307
 3749TIP3   OH232805   6.452   1.367   8.228  0.0752  0.3374 -0.1623
 3749TIP3    H132806   6.411   1.290   8.190 -1.9402  1.6494 -0.8228
 3749TIP3    H232807   6.379   1.424   8.253  1.4499  1.5271  1.4405
 3750TIP3   OH232808   4.254   2.503   8.059 -0.2852  0.2551  0.1761
 3750TIP3    H132809   4.286   2.543   8.140 -0.1959  0.0247  0.2556
 3750TIP3    H232810   4.248   2.576   7.997  0.3203  0.3139  0.1824
 3751TIP3   OH232811   4.162   5.327   1.229 -0.8608 -0.0670 -0.0369
 3751TIP3    H132812   4.230   5.274   1.268 -2.4485 -1.7269  0.6005
 3751TIP3    H232813   4.129   5.274   1.156 -0.7904  1.1672 -1.0071
 3752TIP3   OH232814   3.745   4.879   2.100  0.1820  0.0639  0.1966
 3752TIP3    H132815   3.761   4.803   2.044  0.5676 -0.4528  1.0060
 3752TIP3    H232816   3.651   4.876   2.117  0.0054  0.3833 -0.6304
 3753TIP3   OH232817   6.360   1.220   1.416  0.2716 -0.1583  0.2829
 3753TIP3    H132818   6.452   1.195   1.415  0.3402  0.0110 -2.3061
 3753TIP3    H232819   6.320   1.172   1.344 -1.0982  1.6675 -0.2663
 3754TIP3   OH232820   5.232   6.053   1.219  0.3967  0.2780  0.6491
 3754TIP3    H132821   5.283   6.131   1.196  0.8358 -0.4230 -0.8573
 3754TIP3    H232822   5.141   6.079   1.205  0.5813  0.3049 -0.5876
 3755TIP3   OH232823   0.239   3.330   7.529 -0.2802 -0.9280  0.1280
 3755TIP3    H132824   0.244   3.315   7.435 -1.7389 -1.4474  0.1180
 3755TIP3    H232825   0.166   3.276   7.559 -0.2876 -0.2319  1.4570
 3756TIP3   OH232826   5.281   1.075   2.157 -0.3216  0.5310  0.3378
 3756TIP3    H132827   5.364   1.058   2.201  0.0188 -1.0010 -0.8122
 3756TIP3    H232828   5.305   1.095   2.067 -1.2433 -1.5655 -0.4361
 3757TIP3   OH232829   1.302   2.465   8.361 -0.7600 -0.4789  0.0318
 3757TIP3    H132830   1.240   2.487   8.430 -0.8835 -0.3697 -0.1131
 3757TIP3    H232831   1.254   2.406   8.302 -0.5574 -0.8202  0.2029
 3758TIP3   OH232832   3.024   4.549   0.673  0.1932  0.4156 -0.2573
 3758TIP3    H132833   3.103   4.591   0.705  0.6926  0.6013 -1.6725
 3758TIP3    H232834   2.994   4.605   0.601  0.4686 -1.2310 -1.7207
 3759TIP3   OH232835   4.660   6.030   0.410  0.5723  0.4363 -0.5188
 3759TIP3    H132836   4.670   6.080   0.491  2.8018 -0.9298  0.1637
 3759TIP3    H232837   4.728   6.064   0.352  2.1463 -1.6131 -0.0409
 3760TIP3   OH232838   0.052   2.616   0.706  0.1644 -0.5073 -0.0272
 3760TIP3    H132839  -0.021   2.555   0.697  0.1004 -0.3557 -0.5948
 3760TIP3    H232840   0.058   2.658   0.621  1.2941 -0.9343 -0.1680
 3761TIP3   OH232841   6.233   3.828   8.274 -0.1955 -0.8154 -0.0426
 3761TIP3    H132842   6.209   3.855   8.363 -0.3982 -2.4582  0.4296
 3761TIP3    H232843   6.328   3.822   8.275  0.0139  1.4978 -0.6695
 3762TIP3   OH232844   3.759   1.696   8.283 -0.2152  0.0157 -0.2576
 3762TIP3    H132845   3.807   1.617   8.255  0.8340  0.3839  0.4406
 3762TIP3    H232846   3.820   1.768   8.269  0.0037  0.3461  1.9327
 3763TIP3   OH232847   2.373   6.243   3.201  0.4000  0.3729 -0.5256
 3763TIP3    H132848   2.414   6.157   3.210  1.8357  1.0473 -0.2959
 3763TIP3    H232849   2.354   6.252   3.108 -1.5548 -0.9423 -0.3177
 3764TIP3   OH232850   2.829   3.190   0.834  0.2428 -0.4797  0.0727
 3764TIP3    H132851   2.839   3.097   0.814  0.1073 -0.3731 -0.5251
 3764TIP3    H232852   2.759   3.219   0.775  0.6561  0.1148 -0.1350
 3765TIP3   OH232853   3.633   4.210   1.102 -0.0334 -0.0497  0.4021
 3765TIP3    H132854   3.635   4.256   1.018  1.0381  1.7139  1.3276
 3765TIP3    H232855   3.714   4.236   1.146 -0.3109 -1.3518  1.7876
 3766TIP3   OH232856   2.741   3.881   0.899  0.0794 -0.1492  0.3452
 3766TIP3    H132857   2.652   3.909   0.921 -0.1751 -1.2801  0.7937
 3766TIP3    H232858   2.741   3.787   0.913  0.7472 -0.5024 -1.7642
 3767TIP3   OH232859   3.662   1.380   8.526  0.2174  0.2377  0.1920
 3767TIP3    H132860   3.634   1.320   8.595  0.0794  0.4343  0.3075
 3767TIP3    H232861   3.581   1.403   8.480  0.4945 -1.0938 -1.0117
 3768TIP3   OH232862   0.003   1.500   6.666  0.2834 -0.0661  0.1174
 3768TIP3    H132863  -0.013   1.594   6.656  0.7802  0.0348  0.2727
 3768TIP3    H232864  -0.064   1.458   6.611 -0.2522  0.3634  0.4351
 3769TIP3   OH232865   4.858   3.104   8.239  1.3443  0.2432  0.3695
 3769TIP3    H132866   4.950   3.086   8.221  1.0000 -2.1916  0.6972
 3769TIP3    H232867   4.815   3.101   8.154  1.5211  1.1874  0.2398
 3770TIP3   OH232868   2.778   0.074   2.454  0.1227 -0.2388  0.4608
 3770TIP3    H132869   2.696   0.119   2.476  0.1148 -0.3875  0.7439
 3770TIP3    H232870   2.798   0.021   2.531 -0.1458 -1.1346 -0.0633
 3771TIP3   OH232871   2.811   5.147   1.164 -0.8561 -0.2106  0.2348
 3771TIP3    H132872   2.882   5.097   1.126 -0.5941  0.1806  0.1984
 3771TIP3    H232873   2.790   5.214   1.098  0.1062  0.9437  1.0533
 3772TIP3   OH232874   5.667   6.403   1.600 -0.2313  0.7530 -0.1336
 3772TIP3    H132875   5.634   6.435   1.516  2.6930  0.5107 -1.5348
 3772TIP3    H232876   5.661   6.307   1.593 -0.9529  0.7554  0.3948
 3773TIP3   OH232877   3.454   2.485   2.310  0.1239  0.3247  0.0410
 3773TIP3    H132878   3.395   2.557   2.334  2.0198  0.9778  3.4518
 3773TIP3    H232879   3.401   2.426   2.257 -2.3599  2.7964 -0.4047
 3774TIP3   OH232880   0.723   6.604   2.028  0.4600  0.2573 -0.1417
 3774TIP3    H132881   0.654   6.544   2.001 -1.1678  2.0722 -0.2893
 3774TIP3    H232882   0.725   6.597   2.123 -1.9001  2.0466  0.1531
 3775TIP3   OH232883   1.456   2.719   7.952 -0.2415 -0.1724  0.0316
 3775TIP3    H132884   1.459   2.653   8.021 -0.1984 -0.9416 -0.6899
 3775TIP3    H232885   1.434   2.670   7.873  1.5410  0.3789 -0.8659
 3776TIP3   OH232886   6.125   2.983   8.355  0.4211 -0.2126  0.0168
 3776TIP3    H132887   6.120   3.031   8.437 -1.0223 -0.0141 -0.1582
 3776TIP3    H232888   6.046   2.929   8.354  0.7974 -0.7764 -0.8983
 3777TIP3   OH232889   5.723   2.357   1.976  0.7779  0.2922  0.2672
 3777TIP3    H132890   5.734   2.405   1.894  1.1011 -0.4347 -0.1196
 3777TIP3    H232891   5.784   2.284   1.970  0.8340  0.2497  1.1760
 3778TIP3   OH232892   0.867   1.651   0.972 -0.2058  0.5435 -0.0949
 3778TIP3    H132893   0.788   1.616   0.933 -0.0874  0.6100 -0.3987
 3778TIP3    H232894   0.863   1.745   0.954  0.5948  0.3750 -1.3096
 3779TIP3   OH232895   5.774   1.307   8.594 -0.0082  0.1114  0.0947
 3779TIP3    H132896   5.845   1.247   8.573  0.3375  1.2632 -2.4791
 3779TIP3    H232897   5.807   1.393   8.568 -2.2051  0.7157 -0.9874
 3780TIP3   OH232898   0.319   2.250   0.383 -0.5122 -0.8682 -0.1922
 3780TIP3    H132899   0.295   2.188   0.314 -3.4336 -2.1094  1.7368
 3780TIP3    H232900   0.238   2.297   0.403  0.4527  0.0810  1.7715
 3781TIP3   OH232901   4.871   5.979   1.956  0.4722  0.0021  0.2381
 3781TIP3    H132902   4.797   6.039   1.960 -0.2765 -0.8980  0.2641
 3781TIP3    H232903   4.840   5.900   2.001  1.5663 -0.2674  0.5458
 3782TIP3   OH232904   1.477   3.032   7.027 -0.5038  0.2519 -0.1501
 3782TIP3    H132905   1.408   3.042   7.092 -0.6634  0.7720 -0.3895
 3782TIP3    H232906   1.549   2.988   7.073  0.0398  2.0880  0.8635
 3783TIP3   OH232907   3.288   5.038   0.903  0.3502 -0.7093 -0.0181
 3783TIP3    H132908   3.327   5.110   0.952  0.5707  0.6885 -2.1035
 3783TIP3    H232909   3.317   5.052   0.812 -3.0000 -0.9278 -1.2790
 3784TIP3   OH232910   1.250   1.247   1.004  0.2800  0.3950  0.5543
 3784TIP3    H132911   1.246   1.295   0.921 -5.3292  2.0271  1.3325
 3784TIP3    H232912   1.234   1.156   0.979  0.7073  0.5294 -0.2572
 3785TIP3   OH232913   0.758   1.455   8.050  0.1163 -0.0917  0.0600
 3785TIP3    H132914   0.820   1.465   7.978  0.9728 -0.5807  0.7009
 3785TIP3    H232915   0.672   1.448   8.008  0.4468  0.9524 -0.8337
 3786TIP3   OH232916   3.161   5.535   7.321 -0.1871  0.6174 -0.1461
 3786TIP3    H132917   3.196   5.624   7.322  1.2008  0.1666 -2.1234
 3786TIP3    H232918   3.087   5.539   7.260  1.4217 -0.0207 -2.2559
 3787TIP3   OH232919   1.980   1.987   6.341 -0.9781 -0.2457 -0.2989
 3787TIP3    H132920   2.037   1.960   6.269 -0.7512  1.5158 -0.8355
 3787TIP3    H232921   2.033   2.048   6.392 -1.7950  0.0278  0.2500
 3788TIP3   OH232922   1.910   4.323   1.775 -0.3202  0.5685 -0.8932
 3788TIP3    H132923   1.963   4.336   1.696 -0.1072 -0.3829 -0.9174
 3788TIP3    H232924   1.858   4.245   1.756  2.0300 -1.6637  1.0724
 3789TIP3   OH232925   1.245   0.041   6.566 -0.2141  0.5502  0.2427
 3789TIP3    H132926   1.160  -0.001   6.580  0.9972 -1.2487  3.2088
 3789TIP3    H232927   1.224   0.135   6.561 -2.2878  0.4402  3.5010
 3790TIP3   OH232928   3.359   5.725   8.086 -0.5124  0.4216 -0.2178
 3790TIP3    H132929   3.306   5.646   8.077  0.2706 -0.1198 -0.1902
 3790TIP3    H232930   3.438   5.707   8.035 -0.3640  1.2271 -0.2882
 3791TIP3   OH232931   1.926   3.434   1.017 -0.2029 -0.1310  0.4458
 3791TIP3    H132932   1.974   3.516   1.031 -1.9743  0.8137  1.2137
 3791TIP3    H232933   1.970   3.371   1.074 -0.7851  1.0940  2.3386
 3792TIP3   OH232934   5.304   0.600   1.993 -0.2914  0.1196  0.1617
 3792TIP3    H132935   5.211   0.578   1.986 -0.6300  1.6844 -0.8243
 3792TIP3    H232936   5.314   0.636   2.082 -1.3637  2.8730 -0.7434
 3793TIP3   OH232937   4.243   3.502   0.042  0.1022 -0.1227  0.4843
 3793TIP3    H132938   4.235   3.576   0.103 -0.8844 -0.2154  0.4859
 3793TIP3    H232939   4.177   3.520  -0.026 -1.2560 -1.7481  1.2938
 3794TIP3   OH232940   5.995   1.648   6.977  0.5944 -0.3539  0.2111
 3794TIP3    H132941   6.021   1.704   6.904  2.9797 -0.4051  0.9558
 3794TIP3    H232942   5.977   1.563   6.937 -2.1872  0.5756 -0.8006
 3795TIP3   OH232943   1.725   4.938   7.055 -0.3987 -0.2054 -0.1208
 3795TIP3    H132944   1.756   4.850   7.077 -0.5145  0.0882  1.3309
 3795TIP3    H232945   1.634   4.939   7.084  0.3726  1.2406  2.5918
 3796TIP3   OH232946   0.390   4.715   1.756  0.2346  0.2094  1.1676
 3796TIP3    H132947   0.457   4.662   1.798 -1.4828 -2.4806  0.7655
 3796TIP3    H232948   0.307   4.677   1.786 -1.0635  0.8173 -1.3633
 3797TIP3   OH232949   3.625   0.199   7.926 -0.1829 -0.2682  0.6619
 3797TIP3    H132950   3.532   0.203   7.907  0.1406  1.2119 -0.8584
 3797TIP3    H232951   3.648   0.107   7.919 -1.4155 -0.5634  0.4424
 3798TIP3   OH232952   2.089   3.335   1.287  0.0690 -0.2337 -0.0966
 3798TIP3    H132953   2.016   3.390   1.316  0.3148 -0.9560  2.0505
 3798TIP3    H232954   2.048   3.252   1.264  0.2635 -1.1192  2.4476
 3799TIP3   OH232955   2.232   0.906   1.248 -0.2718  0.0947 -0.4593
 3799TIP3    H132956   2.243   0.909   1.153 -0.3784  0.3437 -0.4646
 3799TIP3    H232957   2.307   0.854   1.279 -0.9088 -1.0640 -0.7841
 3800TIP3   OH232958   0.164   5.869   0.692 -0.4024  0.7584  0.4261
 3800TIP3    H132959   0.078   5.863   0.734 -1.5227  0.7167 -1.7170
 3800TIP3    H232960   0.182   5.780   0.662  0.1669  0.8723  0.4267
 3801TIP3   OH232961   2.531   6.022   6.614 -0.3679 -0.0946 -0.4721
 3801TIP3    H132962   2.571   6.051   6.695  0.9458 -0.5045 -0.9485
 3801TIP3    H232963   2.478   6.096   6.585  0.5939  0.7220 -0.1706
 3802TIP3   OH232964   0.466   5.630   0.648 -0.5467  0.3837  0.2060
 3802TIP3    H132965   0.518   5.709   0.661  0.5384 -0.1530 -0.6584
 3802TIP3    H232966   0.384   5.661   0.610 -1.0673  1.2847  1.9648
 3803TIP3   OH232967   0.862   3.651   0.636 -0.8112 -0.4688  0.5094
 3803TIP3    H132968   0.841   3.603   0.556 -1.8733 -0.1000  0.5531
 3803TIP3    H232969   0.777   3.681   0.669 -0.3480 -0.2678  1.5564
 3804TIP3   OH232970   6.584   1.363   0.369 -0.0098 -0.3445 -0.0776
 3804TIP3    H132971   6.651   1.410   0.418  0.8637 -1.0569 -0.5408
 3804TIP3    H232972   6.626   1.279   0.347 -0.2985  0.0009 -2.1384
 3805TIP3   OH232973   4.656   3.766   1.541  0.3861  0.1146  0.0485
 3805TIP3    H132974   4.702   3.711   1.477 -1.8217 -1.1361 -0.5673
 3805TIP3    H232975   4.585   3.807   1.490 -0.4937  0.3006  1.3844
 3806TIP3   OH232976   4.034   5.165   1.807  0.9913 -0.0105  0.1434
 3806TIP3    H132977   4.066   5.235   1.863  0.0233  0.0811  0.6161
 3806TIP3    H232978   4.047   5.085   1.859  2.6481 -0.2749 -0.6342
 3807TIP3   OH232979   4.740   4.689   8.384  0.0238  0.0918  0.0945
 3807TIP3    H132980   4.678   4.646   8.444 -0.0873 -0.4752 -0.4258
 3807TIP3    H232981   4.686   4.753   8.336 -0.0209  0.0728  0.1186
 3808TIP3   OH232982   2.304   1.169   7.333  0.6278 -0.3076 -0.5637
 3808TIP3    H132983   2.252   1.116   7.393 -0.8232  1.2107 -0.4225
 3808TIP3    H232984   2.360   1.222   7.389 -1.5142  1.9247 -0.3907
 3809TIP3   OH232985   0.025   5.179   8.382 -0.0463  0.1169 -0.0053
 3809TIP3    H132986   0.077   5.109   8.342  0.6853  0.8111 -0.3062
 3809TIP3    H232987   0.026   5.249   8.317  1.2107  1.2990  1.2413
 3810TIP3   OH232988   4.851   5.731   7.941 -0.3010  0.1731  0.1060
 3810TIP3    H132989   4.863   5.735   8.036 -0.3583 -0.3857  0.1392
 3810TIP3    H232990   4.881   5.817   7.909 -0.5804  0.4795  0.6579
 3811TIP3   OH232991   6.234   6.719   7.612 -0.2994  0.1313  0.3702
 3811TIP3    H132992   6.314   6.698   7.659 -0.6031 -1.3941  0.2560
 3811TIP3    H232993   6.164   6.688   7.668 -0.7233 -0.3695 -0.4200
 3812TIP3   OH232994   3.663   5.647   7.202  0.2150  0.1223  0.2548
 3812TIP3    H132995   3.640   5.675   7.291 -1.2367  1.8943 -0.6132
 3812TIP3    H232996   3.589   5.592   7.175  0.4812 -0.1150  0.0094
 3813TIP3   OH232997   1.437   3.114   1.832 -0.0162 -0.1572 -0.1505
 3813TIP3    H132998   1.524   3.077   1.815  0.0259 -0.1659  0.0893
 3813TIP3    H232999   1.404   3.065   1.907  0.7738  1.4830  1.3329
 3814TIP3   OH233000   6.841   6.361   7.446 -0.1167  0.2597  0.4746
 3814TIP3    H133001   6.911   6.312   7.489  1.4283  0.1361 -1.9987
 3814TIP3    H233002   6.766   6.351   7.504  0.8986 -2.6370  1.4789
 3815TIP3   OH233003   1.860   5.927   8.089 -0.4000 -0.1132  0.9667
 3815TIP3    H133004   1.934   5.987   8.080 -1.2800  0.8044 -0.7452
 3815TIP3    H233005   1.805   5.967   8.157  0.0387 -0.1192  1.3300
 3816TIP3   OH233006   6.191   5.533   6.686 -0.2764 -0.0470  0.0189
 3816TIP3    H133007   6.098   5.557   6.684 -0.2559 -0.0027 -1.0306
 3816TIP3    H233008   6.235   5.612   6.718 -0.5214  0.2089 -0.2671
 3817TIP3   OH233009   0.632   1.717   6.589 -0.2302 -0.3010  0.2138
 3817TIP3    H133010   0.668   1.629   6.591 -0.7863 -0.5226  2.4185
 3817TIP3    H233011   0.703   1.774   6.618 -0.6953 -0.3989  1.6381
 3818TIP3   OH233012   4.686   2.413   7.296  0.3016  0.5061 -0.0468
 3818TIP3    H133013   4.694   2.503   7.265  0.7744  0.3958 -0.2700
 3818TIP3    H233014   4.594   2.403   7.320  0.6675  1.7137  2.0739
 3819TIP3   OH233015   1.584   5.950   1.590 -0.3685 -0.0566  0.4872
 3819TIP3    H133016   1.583   5.956   1.686  0.2441 -1.5904  0.6309
 3819TIP3    H233017   1.531   5.873   1.571 -0.4273  0.1996 -0.4136
 3820TIP3   OH233018   6.595   3.910   8.456 -0.3554 -0.0873  0.3682
 3820TIP3    H133019   6.613   3.820   8.483  0.3930  0.2959  1.2026
 3820TIP3    H233020   6.538   3.945   8.525 -0.6531  0.0725  0.0434
 3821TIP3   OH233021   2.485   5.977   7.693 -0.3597 -0.7252 -0.2796
 3821TIP3    H133022   2.469   5.940   7.606 -1.9091 -0.9331  0.0670
 3821TIP3    H233023   2.559   6.037   7.680  0.5055 -1.9721 -1.3846
 3822TIP3   OH233024   0.157   6.525   0.011 -0.8384  0.1737 -0.8343
 3822TIP3    H133025   0.202   6.443  -0.009 -0.8062 -0.6182  1.9379
 3822TIP3    H233026   0.074   6.520  -0.037 -0.6043 -1.2588 -1.1270
 3823TIP3   OH233027   6.235   1.170   2.560 -0.4144 -0.3271 -0.3913
 3823TIP3    H133028   6.185   1.221   2.496 -1.6464  0.2255  0.9512
 3823TIP3    H233029   6.266   1.234   2.624  0.4268 -0.9140 -0.1914
 3824TIP3   OH233030   2.051   1.681   0.654 -0.1189  0.5167  0.8466
 3824TIP3    H133031   2.136   1.701   0.614 -0.7447  1.6704  0.0432
 3824TIP3    H233032   2.066   1.599   0.700  1.4347  0.6882  0.7198
 3825TIP3   OH233033   2.145   1.658   7.840  0.1551 -0.0315 -0.3989
 3825TIP3    H133034   2.112   1.683   7.753 -2.2256 -0.4485  0.3207
 3825TIP3    H233035   2.140   1.739   7.891 -1.9368 -0.5378  0.2988
 3826TIP3   OH233036   5.262   0.344   7.908  0.1914 -0.0680 -0.3410
 3826TIP3    H133037   5.253   0.307   7.821  1.8027  1.0207 -1.0293
 3826TIP3    H233038   5.353   0.327   7.932  0.1277  0.7784  0.5667
 3827TIP3   OH233039   1.885   5.727   2.381 -0.6814  0.1579  0.3141
 3827TIP3    H133040   1.863   5.681   2.462  1.2802 -0.6680  0.4515
 3827TIP3    H233041   1.823   5.693   2.317 -1.2337 -0.3870  1.1106
 3828TIP3   OH233042   4.068   4.494   1.258  0.3945 -0.2065 -0.3404
 3828TIP3    H133043   4.072   4.575   1.207 -0.5969  0.5645  0.7252
 3828TIP3    H233044   4.139   4.440   1.225  1.2989  1.2467 -0.8458
 3829TIP3   OH233045   5.763   1.512   2.319 -0.8641 -0.2859  0.2370
 3829TIP3    H133046   5.820   1.588   2.330  1.7567 -2.2223  0.7978
 3829TIP3    H233047   5.720   1.502   2.405 -0.6102  0.0734  0.4065
 3830TIP3   OH233048   0.562   2.752   8.262  0.1419 -0.1428  0.1105
 3830TIP3    H133049   0.574   2.769   8.169  1.7205  1.3194  0.5413
 3830TIP3    H233050   0.496   2.816   8.290 -0.6941 -0.9041 -0.0724
 3831TIP3   OH233051   1.378   6.525   1.892 -0.2631 -0.2006  0.1428
 3831TIP3    H133052   1.297   6.552   1.934  0.9271  0.7097  1.9791
 3831TIP3    H233053   1.447   6.561   1.948  1.4413  0.9161 -2.4723
 3832TIP3   OH233054   2.245   2.915   2.692 -0.2207  0.3863  0.3405
 3832TIP3    H133055   2.263   3.000   2.730 -1.0866  0.2464  1.1095
 3832TIP3    H233056   2.282   2.852   2.753 -2.6210  0.1201  1.6492
 3833TIP3   OH233057   1.109   5.180   2.694 -0.0766  0.0477 -0.6049
 3833TIP3    H133058   1.022   5.217   2.701 -0.9253 -1.8492 -0.4591
 3833TIP3    H233059   1.095   5.086   2.679  1.9098  0.0547 -3.3040
 3834TIP3   OH233060   3.248   4.553   0.234 -0.0130  1.0642  0.3469
 3834TIP3    H133061   3.167   4.596   0.206 -0.1262 -0.9321 -2.8356
 3834TIP3    H233062   3.219   4.487   0.297 -0.4736  2.1255  1.2793
 3835TIP3   OH233063   4.568   0.963   7.503 -0.2038  0.2427  0.0290
 3835TIP3    H133064   4.514   0.885   7.519  0.4827 -0.5189 -1.2511
 3835TIP3    H233065   4.587   0.997   7.590 -0.2236 -1.2197  0.6220
 3836TIP3   OH233066   5.208   6.347   6.765 -0.3650  0.0251  0.1794
 3836TIP3    H133067   5.230   6.341   6.672  2.1066  0.3256  0.6761
 3836TIP3    H233068   5.198   6.440   6.781 -2.4180 -0.1090 -0.0654
 3837TIP3   OH233069   4.206   4.599   2.566  0.4101  0.1796 -0.5807
 3837TIP3    H133070   4.144   4.664   2.599 -1.6069 -0.6671 -2.4476
 3837TIP3    H233071   4.225   4.627   2.476  1.2640 -0.6297 -0.6722
 3838TIP3   OH233072   1.930   5.160   8.539 -0.1098  0.2001  0.1443
 3838TIP3    H133073   1.885   5.228   8.489  0.2556  0.0821 -0.3587
 3838TIP3    H233074   2.023   5.185   8.536  0.2058 -0.9794 -1.1667
 3839TIP3   OH233075   3.601   1.577   7.760  0.1362  0.3690  0.5429
 3839TIP3    H133076   3.564   1.563   7.672  0.3035 -1.0350  0.6881
 3839TIP3    H233077   3.547   1.648   7.796 -2.3893 -1.4813  0.6823
 3840TIP3   OH233078   0.455   3.018   8.154 -0.4397  0.1455 -0.4053
 3840TIP3    H133079   0.435   3.030   8.061  0.0056  0.7713 -0.4345
 3840TIP3    H233080   0.524   3.082   8.171 -0.1463 -0.3307  0.2332
 3841TIP3   OH233081   0.647   1.242   1.413 -0.3658 -0.3387 -0.2829
 3841TIP3    H133082   0.721   1.295   1.382  0.5658 -1.1673  0.4667
 3841TIP3    H233083   0.601   1.217   1.333 -0.4479  1.0207 -0.6971
 3842TIP3   OH233084   5.587   3.433   1.392  0.4909  0.5289 -0.5031
 3842TIP3    H133085   5.675   3.434   1.356  0.7128  0.4259  0.0192
 3842TIP3    H233086   5.534   3.479   1.328  1.3604  2.6808  0.2440
 3843TIP3   OH233087   0.977   6.235   8.283 -0.4794 -0.3304  0.2461
 3843TIP3    H133088   0.940   6.268   8.202 -0.8683 -0.4149  0.3863
 3843TIP3    H233089   1.068   6.266   8.283 -1.2490  2.1992  1.1457
 3844TIP3   OH233090   2.012   6.820   7.911  0.7269  0.1233  0.0910
 3844TIP3    H133091   2.077   6.869   7.860  0.0710  1.3848  0.4305
 3844TIP3    H233092   1.935   6.816   7.855  0.4680  0.2858  0.4364
 3845TIP3   OH233093   5.839   2.401   8.098  0.3177 -0.4257 -0.4432
 3845TIP3    H133094   5.896   2.379   8.172 -0.1534 -0.2683 -0.0271
 3845TIP3    H233095   5.875   2.352   8.025 -0.0400 -1.7169  0.2076
 3846TIP3   OH233096   6.720   5.988   8.039 -0.1038 -0.4122  0.2020
 3846TIP3    H133097   6.672   5.958   7.963  0.7051 -1.0613 -0.0576
 3846TIP3    H233098   6.663   5.966   8.114 -1.1668  0.7602 -0.2238
 3847TIP3   OH233099   1.727   1.624   1.225 -0.3777  0.2963 -0.0940
 3847TIP3    H133100   1.746   1.570   1.302 -1.7686 -0.4618 -0.2577
 3847TIP3    H233101   1.704   1.561   1.157 -1.7685  1.0549 -0.3684
 3848TIP3   OH233102   2.351   6.017   0.376 -0.5367  0.2427  0.4667
 3848TIP3    H133103   2.305   5.933   0.376 -0.4534  0.1823  1.4636
 3848TIP3    H233104   2.307   6.069   0.443  1.3029 -0.0872  2.0174
 3849TIP3   OH233105   2.364   5.981   1.521 -0.2790 -0.2049  0.1850
 3849TIP3    H133106   2.341   5.938   1.439 -0.0919 -0.8880  0.4807
 3849TIP3    H233107   2.414   5.915   1.569 -1.0374 -0.0819  1.1740
 3850TIP3   OH233108   6.216   4.062   0.148 -0.2578 -0.3551  0.7740
 3850TIP3    H133109   6.159   3.995   0.109 -0.1403  0.2592 -0.5048
 3850TIP3    H233110   6.167   4.143   0.139  1.7094  0.6459 -2.6416
 3851TIP3   OH233111   6.439   5.759   0.762 -0.5440  0.3378  0.0215
 3851TIP3    H133112   6.492   5.791   0.836 -0.8261 -0.5979  0.6536
 3851TIP3    H233113   6.370   5.706   0.804 -0.1573 -0.9867 -0.9548
 3852TIP3   OH233114   2.386   2.314   0.848 -0.7831 -0.7626 -0.1365
 3852TIP3    H133115   2.455   2.316   0.782 -2.9303  0.3296 -2.5168
 3852TIP3    H233116   2.328   2.243   0.819 -1.1740 -1.0848  1.3238
 3853TIP3   OH233117   2.777   5.901   2.510  0.0004 -0.1408 -0.6226
 3853TIP3    H133118   2.860   5.880   2.553 -1.0826  0.4846  1.9605
 3853TIP3    H233119   2.710   5.877   2.574 -1.7296  1.1907 -1.8374
 3854TIP3   OH233120   2.251   3.594   1.699  0.5297  0.1501  0.0685
 3854TIP3    H133121   2.158   3.579   1.716  0.7052 -0.2048  0.7551
 3854TIP3    H233122   2.283   3.511   1.664  0.3478  0.6296 -1.3107
 3855TIP3   OH233123   3.812   3.826   7.708 -0.0970  0.1178 -0.3359
 3855TIP3    H133124   3.771   3.806   7.792 -0.2612 -2.8933 -1.0151
 3855TIP3    H233125   3.740   3.849   7.650 -0.4272 -1.3302 -0.5285
 3856TIP3   OH233126   6.366   1.443   8.597  0.0590  0.2718 -0.4588
 3856TIP3    H133127   6.429   1.499   8.553 -0.5945  1.5821  0.2217
 3856TIP3    H233128   6.364   1.475   8.687  0.8565 -1.9047  0.4071
 3857TIP3   OH233129   0.294   6.646   0.584  0.1543  0.1961  0.2704
 3857TIP3    H133130   0.242   6.682   0.655 -0.9444  0.8315 -0.8335
 3857TIP3    H233131   0.377   6.620   0.626  0.6568  3.1152  1.3052
 3858TIP3   OH233132   6.226   4.764   7.055 -0.0117 -0.6117  0.3103
 3858TIP3    H133133   6.221   4.721   7.140  0.7757 -1.1001  0.1154
 3858TIP3    H233134   6.196   4.699   6.993 -0.7601 -0.1930  0.2293
 3859TIP3   OH233135   6.000   3.526   1.119 -0.4057  0.3591 -0.5361
 3859TIP3    H133136   5.945   3.536   1.196  0.4216  1.9363 -0.1170
 3859TIP3    H233137   6.027   3.434   1.121  0.0971  0.5065  1.3968
 3860TIP3   OH233138   6.436   2.430   0.554 -0.3650  0.0240  0.2340
 3860TIP3    H133139   6.460   2.343   0.585  0.6608  0.2906  0.2418
 3860TIP3    H233140   6.380   2.414   0.478  0.8169 -0.6673 -0.5235
 3861TIP3   OH233141   1.931   0.803   7.522  0.0921 -0.6841  0.0475
 3861TIP3    H133142   1.995   0.785   7.591  0.1054 -3.6059 -0.6261
 3861TIP3    H233143   1.860   0.741   7.538 -0.6175 -0.3736 -1.6715
 3862TIP3   OH233144   5.850   1.013   7.409 -0.5672  0.4621  0.4072
 3862TIP3    H133145   5.832   1.105   7.392 -0.1916  0.4276 -0.1876
 3862TIP3    H233146   5.871   0.976   7.324  2.2804  0.5011  1.0043
 3863TIP3   OH233147   4.563   1.088   0.724 -0.3680  0.1376  0.3804
 3863TIP3    H133148   4.600   1.116   0.640 -0.6985 -0.3821  0.0559
 3863TIP3    H233149   4.494   1.151   0.742 -0.3266  0.2245  0.2416
 3864TIP3   OH233150   6.149   4.111   1.364  0.3472  0.1488 -0.3238
 3864TIP3    H133151   6.190   4.064   1.436 -2.1534 -1.3935  0.2275
 3864TIP3    H233152   6.077   4.160   1.405  1.1628  2.2904 -1.3051
 3865TIP3   OH233153   0.719   1.560   2.023  0.9545 -0.5792 -0.6039
 3865TIP3    H133154   0.751   1.638   1.977 -0.7589  0.9419  0.6287
 3865TIP3    H233155   0.772   1.556   2.103 -0.9840  1.2648  0.8764
 3866TIP3   OH233156   6.519   1.982   7.423  0.6510  0.1420 -0.3141
 3866TIP3    H133157   6.554   2.064   7.458  0.7682 -0.3103  0.6726
 3866TIP3    H233158   6.502   1.929   7.501  0.2463 -0.6343 -0.9270
 3867TIP3   OH233159   6.816   3.504   1.336 -0.1046  0.3033 -0.4880
 3867TIP3    H133160   6.810   3.548   1.251 -1.0843  0.3578 -0.4082
 3867TIP3    H233161   6.789   3.571   1.399 -2.0560 -0.5027 -0.4077
 3868TIP3   OH233162   0.782   4.401   2.137 -0.2835 -0.0380 -0.2489
 3868TIP3    H133163   0.863   4.435   2.101 -1.7961  2.7893 -1.2687
 3868TIP3    H233164   0.739   4.357   2.064 -0.4190 -0.0789 -0.1469
 3869TIP3   OH233165   4.376   1.749   0.021  0.8846 -0.6568 -0.2379
 3869TIP3    H133166   4.424   1.751   0.103  0.6336  1.7850 -0.0736
 3869TIP3    H233167   4.288   1.778   0.044  0.6946 -0.3540 -1.2956
 3870TIP3   OH233168   4.080   1.082   7.760 -0.0209  0.1783  0.2908
 3870TIP3    H133169   4.170   1.064   7.788  0.3200 -0.0958 -0.9519
 3870TIP3    H233170   4.045   0.996   7.737  0.0478  0.5052 -1.0940
 3871TIP3   OH233171   1.210   1.560   8.585 -0.0662 -0.4829 -0.0056
 3871TIP3    H133172   1.218   1.469   8.613 -1.1400 -0.4377  0.5044
 3871TIP3    H233173   1.247   1.611   8.657 -0.5545 -0.4693  0.2370
 3872TIP3   OH233174   6.630   3.442   2.048  0.2138 -0.0238 -0.4746
 3872TIP3    H133175   6.697   3.426   2.114 -0.7070  0.0437  0.5022
 3872TIP3    H233176   6.549   3.413   2.088 -0.6443  1.6841 -0.8693
 3873TIP3   OH233177   5.132   5.599   7.699 -0.5511 -0.3642 -0.0874
 3873TIP3    H133178   5.128   5.505   7.684 -2.6514 -0.2050 -0.7706
 3873TIP3    H233179   5.141   5.637   7.612  0.7861  0.0940  0.2193
 3874TIP3   OH233180   6.095   0.461   1.253 -0.1609  0.3678  0.4711
 3874TIP3    H133181   6.024   0.517   1.286 -0.5288  0.6206 -0.6900
 3874TIP3    H233182   6.096   0.386   1.313 -1.8382  0.0547  0.1704
 3875TIP3   OH233183   0.333   2.758   7.408  0.5247 -0.3791  0.0523
 3875TIP3    H133184   0.347   2.671   7.446 -1.1533  0.2152  2.2718
 3875TIP3    H233185   0.411   2.774   7.355  1.4962 -2.6687  0.6538
 3876TIP3   OH233186   1.112   2.537   0.094  0.1389  0.4775  0.1315
 3876TIP3    H133187   1.022   2.568   0.106 -0.2168 -0.3031 -0.4651
 3876TIP3    H233188   1.145   2.524   0.183 -0.2936  0.8689  0.3538
 3877TIP3   OH233189   1.910   4.134   2.139 -0.6222  0.1420 -0.3052
 3877TIP3    H133190   1.907   4.038   2.146  0.6462  0.0953 -0.1175
 3877TIP3    H233191   1.985   4.159   2.192 -0.8560  1.2413 -0.4780
 3878TIP3   OH233192   4.620   6.365   8.715 -0.1050  0.2923 -0.2634
 3878TIP3    H133193   4.647   6.346   8.805 -0.1665 -0.1926 -0.3438
 3878TIP3    H233194   4.537   6.410   8.724 -1.4451 -2.0458 -0.1339
 3879TIP3   OH233195   1.972   3.946   1.818 -0.1274 -0.0440 -0.7898
 3879TIP3    H133196   2.017   4.029   1.833  1.3971  0.0545 -4.7422
 3879TIP3    H233197   2.022   3.882   1.868  1.3213  0.8289 -1.0815
 3880TIP3   OH233198   0.854   4.878   0.419  0.1672  0.6945  0.7535
 3880TIP3    H133199   0.844   4.858   0.326 -0.2559 -1.9782  1.2674
 3880TIP3    H233200   0.901   4.961   0.421 -0.5963  1.3000 -1.8150
 3881TIP3   OH233201   1.165   1.607   0.253  0.5886  0.5915  0.4239
 3881TIP3    H133202   1.086   1.554   0.250  1.3885 -0.6298  0.0737
 3881TIP3    H233203   1.167   1.644   0.342 -0.7490  1.2761  0.1906
 3882TIP3   OH233204   4.425   3.695   0.635  0.3031 -0.4485  0.6398
 3882TIP3    H133205   4.496   3.750   0.601 -0.5389  0.7327  0.7395
 3882TIP3    H233206   4.454   3.669   0.722  0.6176  0.0320  0.6805
 3883TIP3   OH233207   0.674   2.645   7.639  0.5131 -0.2547  0.3273
 3883TIP3    H133208   0.662   2.564   7.688 -0.6350 -1.5752 -1.9848
 3883TIP3    H233209   0.606   2.703   7.671 -0.4821 -1.2361  0.0426
 3884TIP3   OH233210   2.365   6.264   1.532 -0.3855  0.4354 -0.2859
 3884TIP3    H133211   2.451   6.299   1.510 -0.9818  1.3346 -1.2612
 3884TIP3    H233212   2.365   6.176   1.496  0.0628  0.4891 -0.4194
 3885TIP3   OH233213   3.103   5.503   7.638  0.2255  0.0522 -0.0172
 3885TIP3    H133214   3.035   5.436   7.634 -0.2617  0.5015  0.6903
 3885TIP3    H233215   3.136   5.509   7.548  0.1202 -0.9720 -0.1288
 3886TIP3   OH233216   6.431   1.185   0.075  0.3874  0.0173 -0.4024
 3886TIP3    H133217   6.363   1.141   0.023 -0.1628  0.9142 -0.4657
 3886TIP3    H233218   6.471   1.247   0.014  0.2501  0.5394  0.0328
 3887TIP3   OH233219   1.355   4.961   0.184 -0.1255 -0.0943 -0.2491
 3887TIP3    H133220   1.441   4.998   0.164 -0.2284 -0.4347 -1.4731
 3887TIP3    H233221   1.298   5.036   0.197  0.3942  0.1337  0.7866
 3888TIP3   OH233222   0.054   3.956   1.841  0.4541  0.6892 -0.4003
 3888TIP3    H133223   0.058   3.869   1.801  0.6197  0.2794  0.4941
 3888TIP3    H233224   0.097   4.014   1.777  1.6748 -0.1315 -0.3481
 3889TIP3   OH233225   4.168   0.140   2.051  0.8001 -0.1648  0.1763
 3889TIP3    H133226   4.238   0.202   2.031  1.9974 -1.4585  0.2321
 3889TIP3    H233227   4.164   0.138   2.146  1.4669 -0.9242  0.1940
 3890TIP3   OH233228   4.510   3.708   6.861 -0.6334 -0.4701  0.1048
 3890TIP3    H133229   4.569   3.783   6.866 -0.2057 -0.9155  2.7248
 3890TIP3    H233230   4.424   3.747   6.842 -0.3410  0.6566  0.9815
 3891TIP3   OH233231   3.633   4.351   8.399  0.7052  0.3360  0.2977
 3891TIP3    H133232   3.702   4.333   8.463 -0.0981 -2.4765  0.5149
 3891TIP3    H233233   3.573   4.277   8.408 -0.5522  0.9563 -2.2371
 3892TIP3   OH233234   1.063   6.296   0.477 -0.1269 -0.0156  0.3976
 3892TIP3    H133235   1.093   6.207   0.463 -1.4335 -0.5611  0.9075
 3892TIP3    H233236   1.053   6.332   0.389 -1.2006 -0.9480  0.1145
 3893TIP3   OH233237   6.654   0.101   0.809  0.3087 -0.8049 -0.1707
 3893TIP3    H133238   6.702   0.136   0.884  0.3397 -0.8878 -0.1510
 3893TIP3    H233239   6.722   0.069   0.749  0.2687 -1.7551  0.2644
 3894TIP3   OH233240   4.777   2.184   0.149  0.2538 -0.1403 -0.4369
 3894TIP3    H133241   4.772   2.092   0.125  0.2646 -0.0672 -0.7234
 3894TIP3    H233242   4.845   2.188   0.216  1.2284 -0.1399 -1.4058
 3895TIP3   OH233243   5.333   6.382   0.332 -0.2617  0.4191  0.3443
 3895TIP3    H133244   5.423   6.356   0.313 -0.2966 -0.0986  0.8562
 3895TIP3    H233245   5.326   6.374   0.427 -1.0251 -0.1256  0.2482
 3896TIP3   OH233246   1.894   4.195   0.730  0.1171  0.3869 -0.0220
 3896TIP3    H133247   1.912   4.199   0.636 -0.2817  0.7243 -0.0883
 3896TIP3    H233248   1.928   4.110   0.757  0.3073  0.3193 -0.4561
 3897TIP3   OH233249   4.067   0.317   7.242 -0.0584 -0.2873 -0.0312
 3897TIP3    H133250   4.101   0.279   7.161 -0.5654  0.6933 -0.7298
 3897TIP3    H233251   3.975   0.293   7.243  0.4156 -2.2367  1.4397
 3898TIP3   OH233252   4.822   5.118   0.021 -0.1557 -0.0734 -0.6974
 3898TIP3    H133253   4.879   5.194   0.021 -1.2003  0.7955 -2.6115
 3898TIP3    H233254   4.880   5.043   0.012  0.8886  0.4636  1.1885
 3899TIP3   OH233255   4.801   1.357   7.954 -0.2582 -0.0643 -0.0821
 3899TIP3    H133256   4.858   1.295   8.000 -0.2338 -0.2933 -0.4091
 3899TIP3    H233257   4.760   1.409   8.023  0.5146  0.2528  0.1467
 3900TIP3   OH233258   2.030   2.696   8.306 -0.0210  0.0551  0.0857
 3900TIP3    H133259   1.958   2.637   8.284 -0.8152  1.3519 -0.9594
 3900TIP3    H233260   2.082   2.699   8.226  0.5272  0.0697  0.4426
 3901TIP3   OH233261   1.371   3.073   0.025  0.0799  0.1124  0.5516
 3901TIP3    H133262   1.320   3.010   0.076 -1.8537  0.9287 -0.2907
 3901TIP3    H233263   1.312   3.101  -0.044  1.9029  0.6892 -0.8407
 3902TIP3   OH233264   4.817   5.140   1.579  0.2476  0.5342  0.2919
 3902TIP3    H133265   4.723   5.158   1.573  0.4750  1.5996 -0.3967
 3902TIP3    H233266   4.825   5.047   1.559 -0.7050  0.3091  0.9027
 3903TIP3   OH233267   0.460   2.419   0.635  0.1016 -0.1086 -0.3936
 3903TIP3    H133268   0.518   2.491   0.610 -0.2038  0.1844 -0.2739
 3903TIP3    H233269   0.480   2.349   0.573 -0.5204  0.5443 -1.3668
 3904TIP3   OH233270   6.075   2.576   1.267 -0.3753 -0.1059  0.3366
 3904TIP3    H133271   6.127   2.655   1.282 -0.4256 -0.0732  0.3368
 3904TIP3    H233272   6.109   2.542   1.184 -1.3749  0.7349 -0.4413
 3905TIP3   OH233273   2.957   5.588   0.600  0.3260  0.1001 -0.4590
 3905TIP3    H133274   3.032   5.576   0.541  0.1207 -0.9156 -0.5322
 3905TIP3    H233275   2.914   5.666   0.567  0.6087 -0.0592 -1.2441
 3906TIP3   OH233276   4.531   0.315   2.316 -0.0263 -0.3996  0.1764
 3906TIP3    H133277   4.490   0.340   2.399  1.3542 -0.9196  1.0510
 3906TIP3    H233278   4.621   0.347   2.323  0.0258 -0.1785 -1.2663
 3907TIP3   OH233279   5.798   0.638   6.801  0.0884 -0.2313 -0.1186
 3907TIP3    H133280   5.745   0.704   6.756 -0.9301 -0.6448  0.4287
 3907TIP3    H233281   5.884   0.678   6.810 -0.9907  1.8821  1.9638
 3908TIP3   OH233282   2.931   1.583   0.200  0.1922 -1.0165  0.3151
 3908TIP3    H133283   3.016   1.599   0.242  0.2792  2.3866 -0.8346
 3908TIP3    H233284   2.952   1.525   0.126  1.1026 -1.8917  1.2174
 3909TIP3   OH233285   4.736   0.401   1.725 -0.6415  0.4205  0.0214
 3909TIP3    H133286   4.772   0.404   1.636 -0.2454  0.2359  0.1698
 3909TIP3    H233287   4.658   0.456   1.722 -0.6426  0.3952 -0.4465
 3910TIP3   OH233288   2.282   3.890   7.487 -0.5965  0.2333 -0.5996
 3910TIP3    H133289   2.286   3.921   7.577 -1.7803  0.7675 -0.7144
 3910TIP3    H233290   2.298   3.796   7.493 -1.3187  0.1563  0.2410
 3911TIP3   OH233291   6.529   0.884   1.256  0.3061 -0.2192  0.4446
 3911TIP3    H133292   6.585   0.823   1.303 -1.2707 -2.3282 -0.2933
 3911TIP3    H233293   6.550   0.871   1.163 -0.1311  0.2486  0.2709
 3912TIP3   OH233294   5.152   1.693   7.344  0.2548 -0.6676 -0.0107
 3912TIP3    H133295   5.194   1.774   7.372  1.2705 -0.4187 -2.0191
 3912TIP3    H233296   5.201   1.667   7.266 -1.3262 -2.1420 -0.5738
 3913TIP3   OH233297   4.798   1.513   1.627  0.3587  0.4536  0.3523
 3913TIP3    H133298   4.850   1.588   1.600  0.1854  0.7176  0.7390
 3913TIP3    H233299   4.822   1.443   1.566  0.0304  1.0112 -0.4288
 3914TIP3   OH233300   3.458   2.054   0.731  0.1162 -0.4574  0.5904
 3914TIP3    H133301   3.407   2.120   0.684 -3.6043 -3.2765  0.1650
 3914TIP3    H233302   3.468   2.089   0.819 -1.6646  0.7601  0.3609
 3915TIP3   OH233303   5.643   4.546   7.331 -0.6337 -0.3997 -0.2687
 3915TIP3    H133304   5.712   4.503   7.382 -0.3344 -0.3887 -0.6587
 3915TIP3    H233305   5.572   4.482   7.327 -0.3621 -0.6934 -0.4707
 3916TIP3   OH233306   6.644   0.622   2.000 -0.8129 -0.0884 -0.0671
 3916TIP3    H133307   6.671   0.569   1.925  1.9546  0.7151  0.2341
 3916TIP3    H233308   6.692   0.584   2.074  2.2148  3.3056 -0.0225
 3917TIP3   OH233309   1.012   1.273   2.348 -0.0204  0.6247 -0.8651
 3917TIP3    H133310   1.032   1.180   2.357 -0.7752  0.1319 -3.3764
 3917TIP3    H233311   1.098   1.315   2.345  0.3363 -0.0244 -0.0004
 3918TIP3   OH233312   5.739   0.856   1.223  0.1733 -0.1805 -0.3780
 3918TIP3    H133313   5.652   0.815   1.222  0.5904 -1.1139 -1.6281
 3918TIP3    H233314   5.781   0.821   1.301  0.2739 -1.6727 -1.0643
 3919TIP3   OH233315   6.601   4.958   7.509  0.3894 -0.0520 -0.0076
 3919TIP3    H133316   6.625   4.879   7.459  0.3252 -0.4056  0.5164
 3919TIP3    H233317   6.531   4.929   7.567  0.0305  0.5146 -0.1568
 3920TIP3   OH233318   0.771   0.836   2.478 -0.9723 -0.4360  0.3772
 3920TIP3    H133319   0.712   0.863   2.408 -1.2215 -1.9408 -0.0204
 3920TIP3    H233320   0.836   0.781   2.434  0.4006  0.6984  0.9079
 3921TIP3   OH233321   5.083   5.592   8.118 -0.2502  0.4801 -0.2719
 3921TIP3    H133322   5.024   5.533   8.165  1.3706  1.0226  2.7340
 3921TIP3    H233323   5.083   5.672   8.171  1.0435  1.5119 -1.7425
 3922TIP3   OH233324   1.643   0.636   6.868  0.0096  0.2084  0.7302
 3922TIP3    H133325   1.732   0.624   6.833 -0.7079 -0.2551 -1.0197
 3922TIP3    H233326   1.585   0.610   6.797 -1.5615 -0.8074  2.2870
 3923TIP3   OH233327   5.597   3.119   7.354  0.2231  0.5394  0.5620
 3923TIP3    H133328   5.671   3.128   7.294  0.7316  0.5080  1.1654
 3923TIP3    H233329   5.575   3.208   7.380 -0.9736  0.6710 -0.8027
 3924TIP3   OH233330   1.490   5.154   1.630  0.0180  0.2205 -0.0728
 3924TIP3    H133331   1.531   5.240   1.636  1.5148 -0.5810  3.2901
 3924TIP3    H233332   1.563   5.092   1.636 -1.2180 -1.2563  0.3202
 3925TIP3   OH233333   4.593   0.409   7.250 -0.5279 -0.0442  0.0352
 3925TIP3    H133334   4.643   0.438   7.326 -1.6836  0.5876  0.5726
 3925TIP3    H233335   4.514   0.463   7.251 -0.3157  0.3826 -1.9426
 3926TIP3   OH233336   5.258   1.510   0.437 -0.2783  0.7066 -0.0757
 3926TIP3    H133337   5.240   1.558   0.356 -1.4912 -0.5123 -0.5600
 3926TIP3    H233338   5.173   1.474   0.464  0.2979  0.1936  1.1535
 3927TIP3   OH233339   0.476   0.598   2.321 -0.1413 -0.4946 -0.6200
 3927TIP3    H133340   0.533   0.538   2.369 -2.0652 -1.8191  0.1350
 3927TIP3    H233341   0.500   0.586   2.229  0.4875 -1.3372 -0.3585
 3928TIP3   OH233342   1.768   2.211   0.685  0.7230 -0.0271  0.5372
 3928TIP3    H133343   1.835   2.220   0.753  2.5024  0.8867 -1.2075
 3928TIP3    H233344   1.816   2.181   0.608 -1.0987 -0.3939 -0.5172
 3929TIP3   OH233345   6.498   4.329   8.418 -0.2533 -0.1735  0.5329
 3929TIP3    H133346   6.423   4.356   8.471  0.0157 -0.2039  0.9379
 3929TIP3    H233347   6.569   4.319   8.481  0.6833  2.0215 -0.1048
 3930TIP3   OH233348   3.392   4.237   2.117  0.5064 -0.3381 -0.1271
 3930TIP3    H133349   3.361   4.222   2.207 -0.1075  3.4333  0.4640
 3930TIP3    H233350   3.323   4.202   2.062 -0.8147  0.3450  1.0198
 3931TIP3   OH233351   3.171   5.400   0.967 -0.2900 -0.1843 -0.1007
 3931TIP3    H133352   3.254   5.446   0.950 -0.5178  0.2760  0.0056
 3931TIP3    H233353   3.155   5.415   1.060 -0.2681 -0.6507 -0.0224
 3932TIP3   OH233354   0.214   4.307   0.566  0.3524  0.3681  0.1218
 3932TIP3    H133355   0.242   4.361   0.493  1.5142  0.0950  0.3418
 3932TIP3    H233356   0.267   4.227   0.558  0.7229  0.4577  1.4130
 3933TIP3   OH233357   2.919   4.814   2.009  0.0505 -0.2374  0.0948
 3933TIP3    H133358   2.913   4.903   2.045 -1.8601 -0.1648 -0.2817
 3933TIP3    H233359   2.935   4.758   2.085  2.8748  0.5140  0.1641
 3934TIP3   OH233360   4.309   5.034   8.135  0.4176  0.2311  0.0916
 3934TIP3    H133361   4.343   5.120   8.160  0.3213 -0.1005  1.4318
 3934TIP3    H233362   4.215   5.048   8.120  0.0581  0.0820  1.9304
 3935TIP3   OH233363   0.295   6.632   7.539  0.1497 -0.0397 -0.2088
 3935TIP3    H133364   0.305   6.562   7.474 -2.8779  0.3754 -1.3092
 3935TIP3    H233365   0.295   6.713   7.487  3.2380  0.8860  1.0034
 3936TIP3   OH233366   1.343   4.372   7.631  0.3066 -0.4392  0.2204
 3936TIP3    H133367   1.323   4.305   7.696 -0.6108 -0.1776  0.2198
 3936TIP3    H233368   1.369   4.324   7.553  0.5547 -0.7699  0.5036
 3937TIP3   OH233369   5.330   5.815   6.543 -0.0075  0.3393 -0.3501
 3937TIP3    H133370   5.314   5.869   6.466 -3.7409  2.3419  1.5513
 3937TIP3    H233371   5.365   5.876   6.609 -0.0662 -0.5315  0.5173
 3938TIP3   OH233372   2.322   5.662   2.174 -0.2651  0.1066  0.1248
 3938TIP3    H133373   2.390   5.596   2.185  1.1858  1.4089 -0.6386
 3938TIP3    H233374   2.351   5.735   2.229 -1.4109  0.4145  0.3341
 3939TIP3   OH233375   1.369   6.133   1.701  0.7869 -1.1867  0.2433
 3939TIP3    H133376   1.383   6.098   1.613 -0.8594 -0.2430 -0.4475
 3939TIP3    H233377   1.454   6.169   1.727  0.5715  1.7247 -2.4810
 3940TIP3   OH233378   5.758   0.827   8.243 -0.0892 -0.0465  0.4299
 3940TIP3    H133379   5.703   0.777   8.182  0.5155  0.4576 -0.5583
 3940TIP3    H233380   5.770   0.769   8.318  0.9478 -1.5909 -0.8588
 3941TIP3   OH233381   6.112   1.288   2.337 -0.2288 -0.0267  0.3048
 3941TIP3    H133382   6.111   1.204   2.291  0.2227  0.0604  0.1303
 3941TIP3    H233383   6.151   1.349   2.275 -1.1564  0.4636  0.1926
 3942TIP3   OH233384   0.803   0.064   1.528 -0.2672  0.3699 -0.3711
 3942TIP3    H133385   0.719   0.087   1.488 -0.3507  0.3543 -0.2035
 3942TIP3    H233386   0.833  -0.011   1.477 -0.5968  0.0574 -0.1081
 3943TIP3   OH233387   3.407   3.706   1.232 -0.0224  0.0681 -0.8857
 3943TIP3    H133388   3.370   3.769   1.171  1.1144 -1.1272 -2.9720
 3943TIP3    H233389   3.334   3.648   1.255 -0.5307  0.7093 -0.8677
 3944TIP3   OH233390   2.563   6.507   7.627  0.3331 -0.5647 -0.2039
 3944TIP3    H133391   2.469   6.494   7.613  0.0404  0.7610  0.3749
 3944TIP3    H233392   2.601   6.420   7.616 -1.0478 -1.2653  0.2779
 3945TIP3   OH233393   4.617   5.772   1.880 -0.0152  0.7242  0.5858
 3945TIP3    H133394   4.670   5.781   1.801 -0.8423 -0.0978 -0.0901
 3945TIP3    H233395   4.679   5.749   1.949  0.5012 -0.4985 -0.2434
 3946TIP3   OH233396   6.429   1.392   7.713  1.0357  0.6483  0.6158
 3946TIP3    H133397   6.524   1.397   7.711  1.0823  1.7621  2.7640
 3946TIP3    H233398   6.405   1.415   7.803 -1.2860  0.9230  0.0072
 3947TIP3   OH233399   2.702   0.070   0.134  0.6532 -0.4130 -0.1075
 3947TIP3    H133400   2.611   0.043   0.120  0.4026  1.0092 -1.5781
 3947TIP3    H233401   2.700   0.117   0.217 -0.2827  0.7870 -0.7692
 3948TIP3   OH233402   4.693   2.526   2.183  0.5263 -0.1912  0.4932
 3948TIP3    H133403   4.626   2.458   2.182  0.6157 -0.5429  4.4298
 3948TIP3    H233404   4.659   2.593   2.243  2.3730  1.0969  0.2125
 3949TIP3   OH233405   2.272   5.296   1.583 -0.2913  0.1073 -0.4028
 3949TIP3    H133406   2.352   5.324   1.628 -0.7986 -0.6800  1.0592
 3949TIP3    H233407   2.295   5.298   1.491  2.2270 -2.4346  0.0399
 3950TIP3   OH233408   3.140   3.107   7.812  0.3980 -0.2337  0.2449
 3950TIP3    H133409   3.150   3.091   7.906 -0.0138  0.4856  0.4164
 3950TIP3    H233410   3.183   3.191   7.798  0.1481 -0.1714 -0.1468
 3951TIP3   OH233411   0.460   1.029   7.955 -0.0196  0.2884 -0.4290
 3951TIP3    H133412   0.447   1.034   7.860  0.8113  1.3435 -0.5006
 3951TIP3    H233413   0.398   0.962   7.984 -0.0148 -0.3203 -1.7615
 3952TIP3   OH233414   0.613   2.265   0.394 -0.1693  0.0625 -0.0364
 3952TIP3    H133415   0.531   2.216   0.393 -0.1190 -0.0670  1.0016
 3952TIP3    H233416   0.674   2.211   0.343 -0.0050 -1.1943  1.4095
 3953TIP3   OH233417   2.882   3.626   6.991 -0.2777 -0.2007  0.1623
 3953TIP3    H133418   2.925   3.544   7.014 -0.0308 -0.3734 -0.8829
 3953TIP3    H233419   2.799   3.623   7.039 -0.0301 -0.8046  0.5663
 3954TIP3   OH233420   4.106   6.098   1.826  0.1737 -0.0310 -0.2140
 3954TIP3    H133421   4.108   6.002   1.829  1.9207  0.0018  1.2042
 3954TIP3    H233422   4.156   6.120   1.748 -0.2028 -0.2663 -0.5268
 3955TIP3   OH233423   1.368   2.320   0.935 -0.0457 -0.3682  0.0746
 3955TIP3    H133424   1.417   2.398   0.960  0.0148 -0.4877  0.3429
 3955TIP3    H233425   1.401   2.296   0.849  0.0338 -0.1775  0.0532
 3956TIP3   OH233426   1.652   5.326   1.871 -0.0328  0.1847 -0.2669
 3956TIP3    H133427   1.639   5.237   1.903 -0.7113  1.0757  2.1299
 3956TIP3    H233428   1.582   5.377   1.912  0.7128  1.9539 -1.0627
 3957TIP3   OH233429   2.481   0.224   8.040 -0.5896  0.2147  0.2324
 3957TIP3    H133430   2.513   0.134   8.030 -1.7503 -0.0790 -1.3160
 3957TIP3    H233431   2.396   0.214   8.083 -1.3349  0.4129 -1.1318
 3958TIP3   OH233432   5.773   0.130   8.697  0.0792  0.5432  0.3365
 3958TIP3    H133433   5.811   0.113   8.611 -0.5960  1.6053 -0.1787
 3958TIP3    H233434   5.679   0.136   8.681 -0.0424  0.8516  1.1298
 3959TIP3   OH233435   0.609   5.529   8.708 -0.1811 -0.0457 -0.1937
 3959TIP3    H133436   0.523   5.570   8.719 -0.5685 -0.8370 -0.2139
 3959TIP3    H233437   0.647   5.572   8.631  0.4271  1.9497  1.1125
 3960TIP3   OH233438   2.249   4.585   0.555 -0.3467 -0.7115  0.4356
 3960TIP3    H133439   2.307   4.652   0.519 -0.2105  0.0646  2.0194
 3960TIP3    H233440   2.178   4.578   0.491  0.8542 -0.8424 -0.9593
 3961TIP3   OH233441   2.287   1.582   8.070 -0.3018 -0.3117 -0.5145
 3961TIP3    H133442   2.369   1.623   8.044 -0.8085  0.9015 -0.2996
 3961TIP3    H233443   2.221   1.623   8.013 -0.9562 -0.1525  0.3372
 3962TIP3   OH233444   5.524   0.645   0.746 -0.1298 -0.0189 -0.7022
 3962TIP3    H133445   5.529   0.714   0.813  0.1085 -0.0406 -0.6954
 3962TIP3    H233446   5.548   0.689   0.665  1.4889 -0.3946 -0.4736
 3963TIP3   OH233447   1.378   1.778   6.092  0.1678 -0.2358  0.5654
 3963TIP3    H133448   1.286   1.762   6.112 -0.5773 -0.3370 -2.4387
 3963TIP3    H233449   1.426   1.724   6.155 -1.6945  0.8307  3.0878
 3964TIP3   OH233450   4.337   2.672   7.365 -0.1008  0.1572  0.2121
 3964TIP3    H133451   4.401   2.687   7.295  0.3231 -2.0793  0.0396
 3964TIP3    H233452   4.369   2.594   7.410 -2.0459 -0.2948  0.9144
 3965TIP3   OH233453   5.003   2.900   1.868  0.1444  0.5319  0.0370
 3965TIP3    H133454   4.980   2.885   1.777  0.0929  0.7695  0.0107
 3965TIP3    H233455   5.066   2.971   1.866 -0.9263  1.5278  0.2831
 3966TIP3   OH233456   2.858   2.280   1.058 -0.0317 -0.3645 -0.2791
 3966TIP3    H133457   2.770   2.288   1.093  0.2313 -1.5382  0.7193
 3966TIP3    H233458   2.858   2.198   1.009  0.4512 -0.3032 -0.3913
 3967TIP3   OH233459   4.197   2.680   1.120 -0.4653 -0.5729 -0.7047
 3967TIP3    H133460   4.268   2.743   1.136 -0.8283 -1.0630  4.0088
 3967TIP3    H233461   4.124   2.734   1.090  0.7655  0.4192 -2.0957
 3968TIP3   OH233462   3.810   0.958   2.271  0.3532 -0.0380 -0.1707
 3968TIP3    H133463   3.849   1.033   2.317 -0.0955  0.1421 -0.0712
 3968TIP3    H233464   3.759   0.998   2.200 -1.1749 -0.1419  0.8366
 3969TIP3   OH233465   3.097   1.337   1.806  0.1987  0.2177  0.0414
 3969TIP3    H133466   3.115   1.332   1.712 -2.6457  0.4139 -0.5911
 3969TIP3    H233467   3.024   1.277   1.820  0.5014  0.2700  2.1338
 3970TIP3   OH233468   3.601   6.107   7.552 -0.2619 -0.0325 -0.3366
 3970TIP3    H133469   3.541   6.170   7.592  0.0863 -0.1866  0.4326
 3970TIP3    H233470   3.543   6.042   7.512 -0.6297 -0.5362  0.9622
 3971TIP3   OH233471   3.033   0.959   2.602 -0.3150 -0.2190  0.1275
 3971TIP3    H133472   2.963   0.944   2.539  0.3905 -0.2886 -0.6480
 3971TIP3    H233473   3.091   0.883   2.594 -0.6567 -0.6563  1.4748
 3972TIP3   OH233474   5.167   3.734   1.909  0.0689  0.4741  0.3474
 3972TIP3    H133475   5.186   3.799   1.841  0.0054 -0.4621 -0.5911
 3972TIP3    H233476   5.246   3.680   1.914 -0.2859 -0.0616  0.3183
 3973TIP3   OH233477   5.082   4.759   0.230 -0.4073  0.1609 -0.0048
 3973TIP3    H133478   5.176   4.773   0.240  0.2955 -2.1085 -2.4362
 3973TIP3    H233479   5.054   4.718   0.312  0.3698  2.0619  1.2781
 3974TIP3   OH233480   1.342   3.289   8.441  0.6539  0.1867 -0.0920
 3974TIP3    H133481   1.307   3.291   8.352  0.6939  1.8806 -0.1059
 3974TIP3    H233482   1.280   3.237   8.491  1.5071 -2.2622 -1.4327
 3975TIP3   OH233483   4.534   4.461   7.490  0.3405  0.1012  0.4348
 3975TIP3    H133484   4.552   4.475   7.583  2.8804 -1.5917  0.2936
 3975TIP3    H233485   4.546   4.367   7.477  1.4325  0.4972 -1.8558
 3976TIP3   OH233486   6.210   1.142   0.347 -0.2759 -0.2085 -0.0022
 3976TIP3    H133487   6.304   1.130   0.359 -0.1840  0.7305  0.2665
 3976TIP3    H233488   6.174   1.140   0.436 -0.1031  2.6153  0.2072
 3977TIP3   OH233489   3.767   0.221   1.566 -0.3065  0.1942 -0.5735
 3977TIP3    H133490   3.855   0.245   1.595  0.2146 -2.2676  0.1768
 3977TIP3    H233491   3.772   0.219   1.471 -0.1201  1.8971 -0.6195
 3978TIP3   OH233492   2.025   5.932   0.747 -0.1789 -0.1510 -0.5018
 3978TIP3    H133493   2.092   5.948   0.681  0.1410  1.4477  0.1622
 3978TIP3    H233494   2.065   5.869   0.807  0.4999  0.2924 -0.4753
 3979TIP3   OH233495   0.078   1.291   1.779 -0.0233 -0.4238 -0.3062
 3979TIP3    H133496   0.153   1.231   1.777  0.4193  0.0171  1.2519
 3979TIP3    H233497   0.118   1.378   1.784 -0.6609  0.0445 -2.5528
 3980TIP3   OH233498   2.520   1.848   8.330 -0.0939 -0.7628 -0.0625
 3980TIP3    H133499   2.557   1.933   8.305 -1.2529 -0.4333 -0.7524
 3980TIP3    H233500   2.449   1.870   8.391  0.0344 -1.2940  0.2867
 3981TIP3   OH233501   3.830   4.416   1.420 -0.1966  0.3635  0.0031
 3981TIP3    H133502   3.823   4.325   1.389 -2.5841 -0.0900  1.5892
 3981TIP3    H233503   3.900   4.454   1.367 -0.1687 -1.9490 -1.7944
 3982TIP3   OH233504   6.518   0.859   2.518  0.0156 -1.0599  0.3100
 3982TIP3    H133505   6.599   0.898   2.551 -0.6442  1.3600 -0.7081
 3982TIP3    H233506   6.543   0.816   2.436  0.5415 -1.8068  0.8478
 3983TIP3   OH233507   3.486   5.909   1.283 -0.1425 -0.1222 -0.7955
 3983TIP3    H133508   3.558   5.884   1.225  2.1674  0.2292  1.6951
 3983TIP3    H233509   3.456   5.994   1.249  2.1817  0.8277 -0.7018
 3984TIP3   OH233510   1.671   3.653   8.484 -0.1397  0.0804 -0.0303
 3984TIP3    H133511   1.668   3.652   8.388  0.2638  1.5344 -0.0886
 3984TIP3    H233512   1.589   3.696   8.509 -0.1278 -0.0704  0.2684
 3985TIP3   OH233513   4.511   6.614   6.794  0.8089  0.2633  0.2526
 3985TIP3    H133514   4.514   6.700   6.751 -0.2986  0.3269  0.2735
 3985TIP3    H233515   4.517   6.551   6.722  1.7022  0.3401  0.2425
 3986TIP3   OH233516   5.225   4.130   8.564 -0.3346  0.0712 -0.1423
 3986TIP3    H133517   5.160   4.200   8.560 -0.7211 -0.2681  0.2181
 3986TIP3    H233518   5.269   4.134   8.479 -2.3547 -1.1648 -1.3214
 3987TIP3   OH233519   3.090   2.938   1.859  0.4297 -0.5398  0.7793
 3987TIP3    H133520   3.108   2.937   1.765 -0.6796 -1.6752  0.5490
 3987TIP3    H233521   3.166   2.897   1.899  0.6782 -0.5157  0.3405
 3988TIP3   OH233522   5.713   0.974   1.706  0.2109 -0.6311 -0.2177
 3988TIP3    H133523   5.695   1.029   1.782 -0.0424 -1.3312  0.2420
 3988TIP3    H233524   5.631   0.970   1.658  0.3011 -0.3936 -0.3917
 3989TIP3   OH233525   0.005   3.176   7.563 -0.5024 -0.0686  0.1847
 3989TIP3    H133526  -0.091   3.170   7.563 -0.4915 -0.6727 -1.3200
 3989TIP3    H233527   0.033   3.097   7.610 -0.7406  0.0283  0.4927
 3990TIP3   OH233528   4.796   2.360   1.418  0.1262 -0.4376  0.3060
 3990TIP3    H133529   4.808   2.446   1.458 -1.3802  0.1163 -0.3875
 3990TIP3    H233530   4.879   2.344   1.372  0.9869 -0.0478  1.6516
 3991TIP3   OH233531   0.385   4.510   8.633  0.0748 -0.3407 -0.1133
 3991TIP3    H133532   0.426   4.428   8.605 -0.4861 -2.6545  4.6795
 3991TIP3    H233533   0.455   4.558   8.677 -0.6278 -0.7145  1.4835
 3992TIP3   OH233534   2.231   0.318   2.224 -0.3772  0.0996 -0.0699
 3992TIP3    H133535   2.212   0.231   2.259 -0.5546 -0.8066 -2.2930
 3992TIP3    H233536   2.316   0.310   2.182 -1.6310  0.1439 -2.8117
 3993TIP3   OH233537   1.482   3.867   1.327  0.3339  0.6480 -0.8580
 3993TIP3    H133538   1.461   3.792   1.383  1.8679  2.1911  2.0383
 3993TIP3    H233539   1.559   3.840   1.277  1.2881  0.4357  0.6606
 3994TIP3   OH233540   4.395   1.461   2.425 -0.0011  0.6492  0.0107
 3994TIP3    H133541   4.412   1.552   2.400 -0.1856  0.4174 -1.0121
 3994TIP3    H233542   4.452   1.445   2.499  1.0766  1.1827 -0.6815
 3995TIP3   OH233543   6.826   0.774   0.697 -0.4894  0.1176  0.2722
 3995TIP3    H133544   6.899   0.814   0.650 -0.3591 -1.0355 -0.5809
 3995TIP3    H233545   6.751   0.831   0.679 -0.3382 -0.0392 -1.0089
 3996TIP3   OH233546   6.621   0.472   8.600  0.1809 -0.1438  0.2323
 3996TIP3    H133547   6.707   0.431   8.609  1.1837  2.1175  2.1209
 3996TIP3    H233548   6.559   0.405   8.630  1.4673 -1.2237  0.5617
 3997TIP3   OH233549   5.793   5.013   8.673 -0.4487 -0.3905 -0.1944
 3997TIP3    H133550   5.722   4.962   8.635 -0.5950  0.8252 -1.6218
 3997TIP3    H233551   5.751   5.067   8.740 -0.8946  0.3479 -1.0568
 3998TIP3   OH233552   1.342   2.826   6.904 -0.2837  0.4225 -0.1757
 3998TIP3    H133553   1.262   2.821   6.955 -1.2439  0.3745 -1.6175
 3998TIP3    H233554   1.390   2.900   6.940 -0.8349  0.2751  0.8917
 3999TIP3   OH233555   0.797   0.365   8.672 -0.3227  0.3005 -0.0049
 3999TIP3    H133556   0.772   0.414   8.751  0.0367 -0.6043  0.6778
 3999TIP3    H233557   0.843   0.429   8.618 -0.8090  0.9999  0.3884
 4000TIP3   OH233558   3.016   2.543   1.548  0.1922  0.5128 -0.7602
 4000TIP3    H133559   2.933   2.590   1.555  1.3826  2.5564  0.6984
 4000TIP3    H233560   3.034   2.540   1.454 -2.3527 -1.6422 -1.2894
 4001TIP3   OH233561   0.672   4.611   2.876 -0.2376  0.1956  0.5238
 4001TIP3    H133562   0.747   4.595   2.933 -2.0730 -1.4274  2.6908
 4001TIP3    H233563   0.647   4.702   2.895  3.2470  2.2551 -3.0979
 4002TIP3   OH233564   6.591   1.872   0.939  0.2908  0.1646 -0.5340
 4002TIP3    H133565   6.613   1.964   0.927 -1.6521  0.7464  0.0893
 4002TIP3    H233566   6.664   1.836   0.990  1.3183  1.2069 -1.2290
 4003TIP3   OH233567   4.533   5.373   6.971  0.2829  0.4643 -0.4912
 4003TIP3    H133568   4.610   5.410   7.014 -0.2962  1.1817 -0.0689
 4003TIP3    H233569   4.500   5.443   6.915  0.5574 -0.1987 -1.5285
 4004TIP3   OH233570   0.564   1.604   2.289 -0.8639  0.7580 -0.6199
 4004TIP3    H133571   0.583   1.697   2.291  1.4561  0.3432  0.4015
 4004TIP3    H233572   0.555   1.579   2.381 -0.0067 -0.2504 -0.7853
 4005TIP3   OH233573   6.566   4.929   0.593  0.3853  0.2099  0.2881
 4005TIP3    H133574   6.642   4.915   0.650 -0.8631  0.2451  2.0338
 4005TIP3    H233575   6.580   5.016   0.556  1.3528  0.0732  0.3028
 4006TIP3   OH233576   5.776   0.508   7.440 -0.0087  0.1360  0.1841
 4006TIP3    H133577   5.691   0.551   7.434 -0.9323 -1.6035  0.2911
 4006TIP3    H233578   5.837   0.571   7.400 -1.3389  1.3441 -0.0466
 4007TIP3   OH233579   6.290   3.821   2.352 -0.1829 -0.4823 -0.0244
 4007TIP3    H133580   6.237   3.749   2.387  0.4220 -1.8052 -1.7200
 4007TIP3    H233581   6.225   3.886   2.324 -0.9743 -1.8989 -1.6793
 4008TIP3   OH233582   4.247   0.529   0.402  0.0682  0.7329 -0.0950
 4008TIP3    H133583   4.321   0.468   0.400 -1.3245 -1.0495 -1.9434
 4008TIP3    H233584   4.280   0.609   0.362  1.1914  0.2184 -0.2401
 4009TIP3   OH233585   1.614   5.507   0.558  0.0418 -0.6473  0.1816
 4009TIP3    H133586   1.536   5.546   0.518  0.6073 -0.2208 -0.5280
 4009TIP3    H233587   1.599   5.515   0.653 -0.8442 -0.7165  0.0530
 4010TIP3   OH233588   4.307   0.265   0.767  0.1534  0.0399  0.0106
 4010TIP3    H133589   4.222   0.307   0.782 -0.9569 -2.6178  1.8251
 4010TIP3    H233590   4.369   0.339   0.761 -1.9163  1.9929  1.0272
 4011TIP3   OH233591   6.510   2.212   0.696 -0.3855 -0.1119 -0.2623
 4011TIP3    H133592   6.496   2.118   0.688 -1.2712 -0.1757  1.3991
 4011TIP3    H233593   6.604   2.224   0.688 -0.2446 -1.1606 -0.2746
 4012TIP3   OH233594   4.570   6.339   1.362 -0.2377 -0.1785  0.2635
 4012TIP3    H133595   4.645   6.280   1.369 -0.5579 -0.5468  0.7425
 4012TIP3    H233596   4.495   6.281   1.347 -0.1945  0.3099 -2.2004
 4013TIP3   OH233597   4.431   3.037   0.355 -0.3625 -0.7545  0.6159
 4013TIP3    H133598   4.435   3.062   0.447 -0.8126 -0.0656  0.4552
 4013TIP3    H233599   4.508   3.076   0.315 -0.0915 -1.1719  0.7226
 4014TIP3   OH233600   4.789   1.437   1.039 -0.4907  0.4258  0.2872
 4014TIP3    H133601   4.796   1.364   1.100 -1.3538 -0.3104 -0.4557
 4014TIP3    H233602   4.719   1.411   0.979 -1.0476  2.0098  0.2039
 4015TIP3   OH233603   4.198   4.207   0.754  0.6818  0.1939  0.8508
 4015TIP3    H133604   4.202   4.302   0.746 -1.8460  0.3414  0.4293
 4015TIP3    H233605   4.287   4.177   0.734  1.3209  2.4017  0.0860
 4016TIP3   OH233606   5.152   4.436   2.570  0.0022  0.2437 -0.0957
 4016TIP3    H133607   5.228   4.423   2.626 -0.4870 -0.8815  0.3345
 4016TIP3    H233608   5.134   4.530   2.575  1.2532  0.4941 -0.0778
 4017TIP3   OH233609   5.047   2.967   7.552  0.1483  0.3086 -0.1519
 4017TIP3    H133610   5.115   3.010   7.604  0.2089 -0.2581  0.2329
 4017TIP3    H233611   4.986   3.038   7.531 -0.6589  0.2729  1.9177
 4018TIP3   OH233612   0.426   2.832   1.662 -0.6315  0.1789 -0.4610
 4018TIP3    H133613   0.470   2.917   1.661 -0.0334 -0.0247  2.0943
 4018TIP3    H233614   0.497   2.769   1.676 -1.4815 -0.3265  1.8770
 4019TIP3   OH233615   4.351   4.392   2.398  0.0531 -0.0507  0.0535
 4019TIP3    H133616   4.279   4.403   2.459  1.4496  0.0945  1.7683
 4019TIP3    H233617   4.384   4.304   2.415  0.6465  0.0970 -0.2745
 4020TIP3   OH233618   3.120   6.330   0.640  0.2106  0.3033  0.0168
 4020TIP3    H133619   3.212   6.318   0.664 -0.4013 -0.2130  2.3584
 4020TIP3    H233620   3.071   6.284   0.708 -1.7963 -0.3748 -1.7646
 4021TIP3   OH233621   5.395   6.612   7.378 -0.0289  0.0037  0.0740
 4021TIP3    H133622   5.387   6.607   7.283 -1.2002  1.4867  0.0506
 4021TIP3    H233623   5.312   6.650   7.407  0.0998 -0.8661  1.7458
 4022TIP3   OH233624   2.678   5.784   7.012  0.1611 -0.3216 -0.1090
 4022TIP3    H133625   2.592   5.797   7.052  0.7348  2.2717  0.4314
 4022TIP3    H233626   2.678   5.842   6.936  1.0870 -1.0617 -0.7042
 4023TIP3   OH233627   3.149   3.955   0.220 -0.4068 -0.3076  0.3398
 4023TIP3    H133628   3.177   3.869   0.188 -1.8048 -0.5200 -0.3690
 4023TIP3    H233629   3.094   3.936   0.296  0.9024  0.0859  1.4284
 4024TIP3   OH233630   6.097   5.200   0.767 -0.0136  0.1057 -0.3792
 4024TIP3    H133631   6.116   5.107   0.772  0.4264  0.2414  1.0376
 4024TIP3    H233632   6.066   5.222   0.855  0.6977  1.4589 -0.4436
 4025TIP3   OH233633   1.714   6.647   1.428 -0.0425 -0.0399  0.7332
 4025TIP3    H133634   1.712   6.565   1.478 -1.0265 -0.2577  0.3494
 4025TIP3    H233635   1.625   6.657   1.394  0.2275  0.8796  0.2688
 4026TIP3   OH233636   6.720   2.126   0.994  0.4206 -0.4660  0.1285
 4026TIP3    H133637   6.811   2.101   1.010  0.5731  0.4577  0.8432
 4026TIP3    H233638   6.709   2.206   1.045 -1.2569 -1.4099  1.3250
 4027TIP3   OH233639   1.766   6.356   2.529  0.9271  0.2057  0.3983
 4027TIP3    H133640   1.701   6.288   2.514 -0.8480  2.0269 -0.5204
 4027TIP3    H233641   1.780   6.354   2.624  0.7597 -1.2459  0.4240
 4028TIP3   OH233642   2.224   0.912   8.141  0.0424 -0.6314 -0.8951
 4028TIP3    H133643   2.148   0.872   8.182  0.9849 -1.1880  0.3626
 4028TIP3    H233644   2.216   1.006   8.161  0.3771 -0.8633  0.4173
 4029TIP3   OH233645   1.772   5.416   8.672  0.1819  0.1912  0.0677
 4029TIP3    H133646   1.817   5.501   8.669 -0.2760  0.4149 -1.7630
 4029TIP3    H233647   1.775   5.384   8.582 -4.3748  0.8327 -0.5654
 4030TIP3   OH233648   6.669   0.916   6.717 -0.2487  0.0099  0.0903
 4030TIP3    H133649   6.676   0.829   6.677  0.9746 -0.0124  0.3162
 4030TIP3    H233650   6.757   0.953   6.708 -1.0050  1.6562 -0.9461
 4031TIP3   OH233651   3.341   3.052   8.653  0.1057 -0.3237 -0.0554
 4031TIP3    H133652   3.250   3.027   8.638 -0.3151  1.2105 -0.2735
 4031TIP3    H233653   3.358   3.030   8.744  0.1739 -2.4623 -0.5501
 4032TIP3   OH233654   0.818   5.739   0.667 -0.3329 -0.6686  0.3087
 4032TIP3    H133655   0.912   5.726   0.675 -0.2339  0.5098  1.1755
 4032TIP3    H233656   0.809   5.813   0.607 -0.7040 -0.6351  0.4053
 4033TIP3   OH233657   2.629   6.335   1.447 -0.1054  0.0096  0.4189
 4033TIP3    H133658   2.713   6.289   1.447 -0.2175 -0.2723 -1.4261
 4033TIP3    H233659   2.642   6.410   1.389 -1.0679  0.0783  0.2702
 4034TIP3   OH233660   6.316   1.543   0.966  0.1483  0.8702 -0.0400
 4034TIP3    H133661   6.398   1.520   1.010 -1.0123  0.6893  2.1982
 4034TIP3    H233662   6.294   1.465   0.914 -0.0704 -0.2836  1.7075
 4035TIP3   OH233663   3.423   3.940   7.809 -0.4229  0.1834 -0.3513
 4035TIP3    H133664   3.439   3.911   7.899 -0.0885  2.6649  0.4749
 4035TIP3    H233665   3.328   3.939   7.800 -0.7170  2.9290  1.2459
 4036TIP3   OH233666   5.702   1.516   0.722 -0.1772 -0.4388 -0.2084
 4036TIP3    H133667   5.728   1.607   0.706  1.5601 -0.6242  1.2009
 4036TIP3    H233668   5.671   1.484   0.637  0.0659  1.1925 -0.9459
 4037TIP3   OH233669   4.981   4.947   8.571  0.0479 -0.3130  0.2040
 4037TIP3    H133670   4.910   5.010   8.559 -0.6584 -0.9212  1.0892
 4037TIP3    H233671   5.061   4.996   8.551 -0.6169  0.3482 -0.9231
 4038TIP3   OH233672   3.589   6.694   1.894 -0.8588 -0.4825 -0.2220
 4038TIP3    H133673   3.681   6.696   1.920 -1.1473 -1.8790  1.0425
 4038TIP3    H233674   3.590   6.704   1.799  0.4354  1.7580 -0.0234
 4039TIP3   OH233675   2.667   4.907   1.872  0.1020 -0.1420  0.0116
 4039TIP3    H133676   2.747   4.881   1.918  0.1694  0.8309  0.4850
 4039TIP3    H233677   2.607   4.933   1.942 -0.4672 -0.4088 -0.3670
 4040TIP3   OH233678   1.685   4.010   7.799  0.4547 -0.1947 -0.1468
 4040TIP3    H133679   1.659   4.082   7.856  1.2313  0.1385 -0.2035
 4040TIP3    H233680   1.678   4.046   7.710 -0.8338 -0.7373 -0.2858
 4041TIP3   OH233681   5.601   6.392   8.475  0.1339  0.0245 -0.2364
 4041TIP3    H133682   5.649   6.337   8.414  0.4456  1.1636 -1.0567
 4041TIP3    H233683   5.553   6.454   8.420 -1.0672 -0.0969  0.6175
 4042TIP3   OH233684   3.656   6.408   1.588  0.0042  0.1967  0.1438
 4042TIP3    H133685   3.707   6.488   1.599  1.5063 -0.6016 -0.7459
 4042TIP3    H233686   3.718   6.345   1.553 -1.4015 -1.0802 -0.1209
 4043TIP3   OH233687   4.075   6.208   7.472  0.1732  0.0591 -0.0911
 4043TIP3    H133688   4.022   6.130   7.492  2.0651 -0.9939  1.1308
 4043TIP3    H233689   4.015   6.281   7.484 -1.4000 -1.1452 -0.2428
 4044TIP3   OH233690   2.378   5.625   7.692 -0.0313  0.6688  0.0359
 4044TIP3    H133691   2.296   5.670   7.673 -0.1303 -0.0432 -1.2633
 4044TIP3    H233692   2.364   5.535   7.666  0.3515 -0.0636  2.1332
 4045TIP3   OH233693   0.293   4.699   8.414  0.7172 -0.2493 -0.3824
 4045TIP3    H133694   0.320   4.653   8.493  0.7772 -2.7569 -1.7879
 4045TIP3    H233695   0.236   4.638   8.368  2.3238  0.2468 -3.2734
 4046TIP3   OH233696   0.145   4.566   1.569  0.3167 -0.0923 -0.1768
 4046TIP3    H133697   0.082   4.630   1.601  1.3073  0.7286  0.1663
 4046TIP3    H233698   0.109   4.481   1.596 -1.1886  0.2719 -0.9454
 4047TIP3   OH233699   6.751   1.796   0.583  0.0793 -0.2656 -0.2104
 4047TIP3    H133700   6.828   1.770   0.532 -0.7218 -0.7345 -1.2247
 4047TIP3    H233701   6.778   1.786   0.674  1.3735  0.0510 -0.5400
 4048TIP3   OH233702   2.422   4.193   2.764 -0.2392  0.6349 -0.4511
 4048TIP3    H133703   2.368   4.141   2.704 -1.2058 -0.6713  1.4399
 4048TIP3    H233704   2.361   4.254   2.805  0.5828  2.1584 -1.3963
 4049TIP3   OH233705   5.976   5.734   8.422 -0.1995  0.1052  0.5552
 4049TIP3    H133706   6.024   5.801   8.469 -0.8779  1.3046 -0.3704
 4049TIP3    H233707   5.885   5.746   8.450 -0.2055 -1.0307  1.0492
 4050TIP3   OH233708   4.696   4.643   0.800  0.3952  0.4242  0.2883
 4050TIP3    H133709   4.643   4.625   0.722  1.1293  2.0912 -0.6514
 4050TIP3    H233710   4.641   4.700   0.854  0.0971 -0.2874  0.7454
 4051TIP3   OH233711   0.467   2.467   6.470 -0.2519  0.5814  0.8463
 4051TIP3    H133712   0.492   2.511   6.389  1.0543  1.4234  1.6598
 4051TIP3    H233713   0.372   2.470   6.471 -0.5746 -2.2327 -2.1337
 4052TIP3   OH233714   4.738   4.163   8.643 -0.7018 -0.1010  0.6521
 4052TIP3    H133715   4.754   4.169   8.737 -2.9106 -1.2295  1.1864
 4052TIP3    H233716   4.789   4.087   8.614 -1.2116 -0.6963  1.2824
 4053TIP3   OH233717   5.095   0.420   0.295 -0.0012  0.0660 -0.5627
 4053TIP3    H133718   5.032   0.492   0.300  1.0595  1.0103 -0.4314
 4053TIP3    H233719   5.058   0.360   0.230 -1.0209  0.6025 -0.4943
 4054TIP3   OH233720   1.117   0.234   8.315  0.3033  0.4966  0.0197
 4054TIP3    H133721   1.137   0.326   8.330 -1.0589  1.7180 -4.4309
 4054TIP3    H233722   1.047   0.214   8.377  0.5092  2.4699  0.9454
 4055TIP3   OH233723   3.008   0.638   1.413 -0.2239  0.0174  0.0929
 4055TIP3    H133724   3.056   0.569   1.458  0.4977 -1.2579 -2.4995
 4055TIP3    H233725   2.917   0.624   1.439  0.3139  0.4540  2.4839
 4056TIP3   OH233726   5.813   6.098   0.501 -0.0060 -0.3479 -0.3202
 4056TIP3    H133727   5.766   6.104   0.584  1.4461  0.8817  0.4716
 4056TIP3    H233728   5.893   6.051   0.522  1.3260  1.7032 -0.5150
 4057TIP3   OH233729   5.148   5.764   7.925  0.2598  0.0566  0.1323
 4057TIP3    H133730   5.147   5.719   7.840  1.0330  0.5707 -0.1627
 4057TIP3    H233731   5.089   5.713   7.980  0.9537 -1.2141 -0.2493
 4058TIP3   OH233732   5.292   6.218   2.666 -0.0813  0.0245 -0.5085
 4058TIP3    H133733   5.225   6.256   2.722  2.1121 -1.4507  3.5112
 4058TIP3    H233734   5.251   6.139   2.631 -1.3142  0.6047 -0.4334
 4059TIP3   OH233735   3.579   0.210   0.464 -0.1437  0.7854  0.0010
 4059TIP3    H133736   3.539   0.278   0.518  0.5159  0.6042  0.7220
 4059TIP3    H233737   3.646   0.171   0.520 -1.0421 -1.0009 -0.1019
 4060TIP3   OH233738   6.208   6.585   8.189 -0.1746 -0.8004  0.1769
 4060TIP3    H133739   6.157   6.604   8.268  0.2741  0.4412  0.1960
 4060TIP3    H233740   6.273   6.521   8.218 -0.3813 -0.7937  0.6706
 4061TIP3   OH233741   3.064   5.266   7.213  0.4583  0.0543  0.2306
 4061TIP3    H133742   2.988   5.224   7.174 -2.4606  2.6533  2.5137
 4061TIP3    H233743   3.078   5.345   7.161  1.0721  0.0056  0.3125
 4062TIP3   OH233744   3.657   2.195   8.691  0.0350  0.0576 -0.1394
 4062TIP3    H133745   3.714   2.168   8.762 -0.8026 -0.8754  0.1946
 4062TIP3    H233746   3.606   2.268   8.728  0.1875  0.1203 -0.0529
 4063TIP3   OH233747   4.472   4.897   7.094  0.1643 -0.0225 -0.2186
 4063TIP3    H133748   4.510   4.985   7.099 -0.3416  0.2102 -0.3928
 4063TIP3    H233749   4.396   4.901   7.154 -0.2034 -0.1604 -0.6719
 4064TIP3   OH233750   2.881   3.293   2.834  0.4819 -0.0722  0.3152
 4064TIP3    H133751   2.800   3.341   2.852  0.4427  0.8098 -1.8667
 4064TIP3    H233752   2.866   3.205   2.870 -1.2843  0.1968  0.3036
 4065TIP3   OH233753   6.841   1.945   0.087  0.5594  0.1380 -0.7718
 4065TIP3    H133754   6.779   1.901   0.146  1.9104  0.3464  0.8556
 4065TIP3    H233755   6.865   1.877   0.024  1.9100 -1.2654  1.1555
 4066TIP3   OH233756   6.610   1.619   6.433  0.3636 -0.5788 -0.7960
 4066TIP3    H133757   6.693   1.655   6.464  0.4533 -0.9210 -0.6396
 4066TIP3    H233758   6.547   1.690   6.445  0.4086 -0.6856  0.1010
 4067TIP3   OH233759   5.587   6.723   1.760  0.0124  0.0548 -0.5740
 4067TIP3    H133760   5.504   6.731   1.713 -3.8436  0.6410  5.2235
 4067TIP3    H233761   5.628   6.809   1.751 -1.5298  0.7597 -1.2679
 4068TIP3   OH233762   5.907   1.171   1.600  0.0483 -0.1733  0.0357
 4068TIP3    H133763   5.842   1.229   1.560  1.0951  1.2704  0.3640
 4068TIP3    H233764   5.855   1.099   1.636 -1.1949  0.0435 -1.2373
 4069TIP3   OH233765   5.642   1.154   0.045  0.1548 -0.1475 -0.0266
 4069TIP3    H133766   5.693   1.176   0.123  3.5688 -0.6761 -1.9022
 4069TIP3    H233767   5.650   1.232  -0.011 -0.8193 -0.4138 -0.5566
 4070TIP3   OH233768   2.282   5.753   0.402 -0.4556 -0.0194  0.4920
 4070TIP3    H133769   2.337   5.693   0.453 -0.0653  0.0342  0.1350
 4070TIP3    H233770   2.192   5.724   0.421 -0.2889 -0.4197  0.6918
 4071TIP3   OH233771   5.189   0.389   7.210  0.3123  0.4918  0.3605
 4071TIP3    H133772   5.108   0.383   7.261  0.5044  0.7942  0.7038
 4071TIP3    H233773   5.219   0.298   7.202 -0.2864  0.3276 -0.1453
 4072TIP3   OH233774   1.238   5.438   8.358 -0.1422  0.7651  0.0044
 4072TIP3    H133775   1.328   5.407   8.351 -0.2415 -0.0630  1.7348
 4072TIP3    H233776   1.228   5.462   8.450 -2.4440 -1.7297  0.5196
 4073TIP3   OH233777   5.710   1.659   1.959 -0.5741  0.5586 -0.3530
 4073TIP3    H133778   5.778   1.726   1.956  0.0323 -0.0731 -0.9918
 4073TIP3    H233779   5.654   1.685   2.032  1.2478  0.2409  1.2371
 4074TIP3   OH233780   1.150   3.818   2.274 -0.5056 -0.0180  0.2845
 4074TIP3    H133781   1.148   3.910   2.246  0.4662 -0.4413 -1.3150
 4074TIP3    H233782   1.089   3.814   2.348 -0.6970  1.8721  0.2822
 4075TIP3   OH233783   3.294   3.679   0.912  0.2600 -0.2925 -0.4144
 4075TIP3    H133784   3.293   3.761   0.961 -2.7186 -1.1028  1.1771
 4075TIP3    H233785   3.241   3.698   0.834 -0.0004 -0.5271 -0.2987
 4076TIP3   OH233786   2.318   1.037   8.544  0.1343  0.1220 -0.2095
 4076TIP3    H133787   2.371   1.035   8.624  0.2632  1.5370 -0.2404
 4076TIP3    H233788   2.372   0.993   8.478  0.5481  0.0475  0.1712
 4077TIP3   OH233789   3.092   0.177   0.848 -0.6646  0.6898 -0.2047
 4077TIP3    H133790   3.009   0.131   0.862 -0.3437  0.0912 -0.2052
 4077TIP3    H233791   3.151   0.139   0.914 -0.4403  1.2317 -0.0919
 4078TIP3   OH233792   0.542   4.746   8.743  0.4191 -0.6410  0.2847
 4078TIP3    H133793   0.544   4.827   8.794 -0.4181 -1.1094  1.0995
 4078TIP3    H233794   0.583   4.768   8.660 -0.6602  0.8924  0.1211
 4079TIP3   OH233795   4.507   3.639   0.905  0.6544  0.0608  0.0061
 4079TIP3    H133796   4.495   3.671   0.994 -0.2557  0.5763 -0.2946
 4079TIP3    H233797   4.601   3.619   0.900  1.0647  1.6932  0.5328
 4080TIP3   OH233798   6.346   3.794   0.662  0.1879 -0.0456 -0.1133
 4080TIP3    H133799   6.270   3.830   0.706 -0.5867 -1.2901 -0.3719
 4080TIP3    H233800   6.337   3.821   0.571 -0.2881 -0.7010 -0.2678
 4081TIP3   OH233801   1.216   0.562   0.479 -0.4715 -0.0678  0.1237
 4081TIP3    H133802   1.182   0.476   0.455  1.6853 -1.4821  1.7751
 4081TIP3    H233803   1.164   0.589   0.554  0.2942 -1.0272  1.0256
 4082TIP3   OH233804   1.041   3.075   7.841  0.5454 -0.0748 -0.2887
 4082TIP3    H133805   0.993   2.995   7.861  0.2838  0.2708  0.4913
 4082TIP3    H233806   0.978   3.145   7.854  0.7781  0.2613 -0.9533
 4083TIP3   OH233807   1.067   4.625   1.805 -0.5621  0.3160 -0.5383
 4083TIP3    H133808   1.097   4.712   1.782  1.5007 -0.6213 -1.6806
 4083TIP3    H233809   1.086   4.616   1.898  0.8700  0.4765 -0.8011
 4084TIP3   OH233810   3.663   3.420   7.818  0.1367  0.1279 -0.3051
 4084TIP3    H133811   3.618   3.486   7.765 -1.9019  0.2683  1.4309
 4084TIP3    H233812   3.664   3.341   7.764 -1.5674  0.3489 -0.7168
 4085TIP3   OH233813   4.054   1.803   2.477 -0.1574 -0.1258  0.1888
 4085TIP3    H133814   3.968   1.779   2.510  0.2556 -1.1521  0.5777
 4085TIP3    H233815   4.077   1.883   2.523 -1.6946  1.2589 -1.3179
 4086TIP3   OH233816   0.992   4.480   1.434  0.6889 -0.1853  0.6376
 4086TIP3    H133817   0.959   4.561   1.393 -0.1160 -0.6811  0.2876
 4086TIP3    H233818   1.088   4.490   1.431  0.6356  1.7395  2.5981
 4087TIP3   OH233819   5.690   3.234   0.400  0.5293 -0.4687  0.0213
 4087TIP3    H133820   5.602   3.202   0.383  0.7855 -0.8330 -0.6466
 4087TIP3    H233821   5.688   3.326   0.374 -0.1057  0.0010  1.5996
 4088TIP3   OH233822   0.511   0.846   1.094  0.7239 -0.0631  0.2402
 4088TIP3    H133823   0.537   0.826   1.004  0.4634 -0.4679  0.2520
 4088TIP3    H233824   0.441   0.911   1.085  0.2261 -0.6100  0.1193
 4089TIP3   OH233825   5.775   4.511   8.380  0.5051 -0.2505 -0.3763
 4089TIP3    H133826   5.680   4.521   8.383  0.1883 -2.7694  0.8136
 4089TIP3    H233827   5.795   4.495   8.288 -0.0188  1.4755 -0.8306
 4090TIP3   OH233828   4.638   6.206   1.035 -0.2202 -0.3825  0.5375
 4090TIP3    H133829   4.700   6.234   1.103 -0.6803  0.7875  0.5051
 4090TIP3    H233830   4.595   6.287   1.008  0.7460 -0.6321 -1.9660
 4091TIP3   OH233831   4.517   1.250   7.749  0.6294  0.3256 -0.0123
 4091TIP3    H133832   4.603   1.264   7.710  1.3797 -0.7420  1.1881
 4091TIP3    H233833   4.519   1.160   7.781 -1.4299 -0.1986 -1.1234
 4092TIP3   OH233834   5.316   4.260   2.275  0.3659  0.0644 -0.5963
 4092TIP3    H133835   5.301   4.176   2.317  0.1989  0.3748 -0.0195
 4092TIP3    H233836   5.230   4.289   2.246  0.1655  0.7335  0.5770
 4093TIP3   OH233837   5.951   0.949   1.849  0.0872 -0.7480  0.5104
 4093TIP3    H133838   5.858   0.960   1.868 -0.3726 -1.1244 -1.3291
 4093TIP3    H233839   5.992   1.031   1.877 -0.7001 -0.7855  1.8262
 4094TIP3   OH233840   1.596   5.145   1.043 -0.2959 -0.1224 -0.5762
 4094TIP3    H133841   1.599   5.084   0.970  0.9658 -0.8299  0.0439
 4094TIP3    H233842   1.683   5.185   1.046 -0.7608  0.9244 -0.3042
 4095TIP3   OH233843   1.074   5.936   1.488 -0.1059  0.1677  0.2746
 4095TIP3    H133844   1.011   5.960   1.555  0.8132 -0.4605  1.3960
 4095TIP3    H233845   1.035   5.860   1.444 -0.7356  0.6136  0.0467
 4096TIP3   OH233846   5.866   2.831   1.459  0.0048  0.3391  0.5030
 4096TIP3    H133847   5.959   2.824   1.437 -0.1963  0.6272 -0.4737
 4096TIP3    H233848   5.836   2.910   1.413 -0.3864  1.1293  2.0399
 4097TIP3   OH233849   2.314   6.524   1.180  0.9201 -0.1734 -0.2081
 4097TIP3    H133850   2.363   6.489   1.254  2.0019  2.3817  0.3701
 4097TIP3    H233851   2.253   6.454   1.157  1.7974 -1.7381  1.8988
 4098TIP3   OH233852   3.502   0.565   1.558 -0.0835  0.4163  0.0026
 4098TIP3    H133853   3.505   0.660   1.573  1.5516  0.5150 -0.7266
 4098TIP3    H233854   3.577   0.547   1.501  0.5865 -1.5195  1.3673
 4099TIP3   OH233855   0.356   0.964   0.525 -0.1311  0.6253  0.4487
 4099TIP3    H133856   0.375   0.926   0.612 -0.4120 -0.1734  0.1702
 4099TIP3    H233857   0.263   0.945   0.510  0.5476 -1.8273 -1.2411
 4100TIP3   OH233858   0.172   4.251   1.023  0.3480 -0.2334 -0.3508
 4100TIP3    H133859   0.198   4.303   0.947 -2.0179 -0.2123 -1.2424
 4100TIP3    H233860   0.120   4.180   0.986 -1.9053  0.4497  1.2864
 4101TIP3   OH233861   1.066   1.579   1.319 -0.3439  0.7096  0.1204
 4101TIP3    H133862   1.108   1.601   1.403 -0.4615  0.8263  0.1497
 4101TIP3    H233863   1.127   1.519   1.276 -0.6822 -0.0361  0.6639
 4102TIP3   OH233864   4.017   6.566   3.133  0.1020  0.3245  0.6599
 4102TIP3    H133865   4.052   6.537   3.217 -0.5803  0.4161  0.9809
 4102TIP3    H233866   4.090   6.556   3.072  1.2261  2.1436  1.6377
 4103TIP3   OH233867   2.098   2.680   0.500 -0.3722 -0.7683 -0.0822
 4103TIP3    H133868   2.028   2.696   0.564  1.2435 -0.2250  1.6426
 4103TIP3    H233869   2.097   2.757   0.443  1.8821  1.7949  2.9769
 4104TIP3   OH233870   5.215   3.266   1.574  0.1591  0.0609 -0.1686
 4104TIP3    H133871   5.275   3.287   1.645 -0.8082  1.1261  0.3545
 4104TIP3    H233872   5.142   3.220   1.616 -0.4981  0.8414 -0.4259
 4105TIP3   OH233873   1.140   4.549   7.119 -0.6073  0.0714 -0.5292
 4105TIP3    H133874   1.152   4.496   7.040  1.4827 -0.2021 -0.0775
 4105TIP3    H233875   1.116   4.487   7.187  1.6905 -0.3547 -0.0358
 4106TIP3   OH233876   4.214   2.982   8.533 -0.0018  0.2843  0.5799
 4106TIP3    H133877   4.168   3.047   8.479 -0.4531  1.0941  1.9101
 4106TIP3    H233878   4.306   3.010   8.529  0.0684 -0.0174 -0.2367
 4107TIP3   OH233879   0.186   6.183   7.589  0.3557 -0.2935  0.2673
 4107TIP3    H133880   0.153   6.221   7.671 -0.0012  0.3617 -0.1758
 4107TIP3    H233881   0.282   6.185   7.600  0.4021  1.6613 -0.1318
 4108TIP3   OH233882   4.454   5.239   7.782  0.3862  0.0120  0.3647
 4108TIP3    H133883   4.460   5.145   7.798 -1.1064 -0.1267  0.2504
 4108TIP3    H233884   4.419   5.246   7.693 -0.5897  0.6422  0.7838
 4109TIP3   OH233885   3.636   6.540   1.027  0.6925 -0.2716  0.2133
 4109TIP3    H133886   3.664   6.478   1.094  2.0478 -2.6736 -2.3510
 4109TIP3    H233887   3.718   6.581   0.997  0.0599  1.0888  0.2894
 4110TIP3   OH233888   2.817   1.172   0.686  0.1552 -0.2006 -0.3469
 4110TIP3    H133889   2.807   1.101   0.750 -0.9903  1.3302  1.3081
 4110TIP3    H233890   2.911   1.191   0.686  0.2640 -0.6695  0.4062
 4111TIP3   OH233891   4.490   1.286   1.729 -0.3912  0.2643 -0.0135
 4111TIP3    H133892   4.530   1.341   1.796  0.3517  2.0285 -1.7974
 4111TIP3    H233893   4.432   1.345   1.681 -1.3978 -1.0991 -0.5267
 4112TIP3   OH233894   0.598   4.287   6.724  0.3500 -0.5079 -0.2465
 4112TIP3    H133895   0.541   4.231   6.670  0.3144 -1.3481  0.6249
 4112TIP3    H233896   0.539   4.354   6.759 -0.0437 -1.1483  0.3414
 4113TIP3   OH233897   5.519   1.881   0.547 -0.0279 -0.1238  0.1279
 4113TIP3    H133898   5.563   1.879   0.632 -0.6809  1.0401  0.5186
 4113TIP3    H233899   5.435   1.839   0.562  1.3183 -3.5727 -0.9292
 4114TIP3   OH233900   1.916   0.910   1.685 -0.3842 -0.5408 -0.2858
 4114TIP3    H133901   1.926   0.961   1.765 -1.6924 -1.2693  0.3766
 4114TIP3    H233902   1.947   0.822   1.709 -1.5574 -0.9727 -0.3153
 4115TIP3   OH233903   5.496   6.406   0.738  0.1245  0.7171 -0.3586
 4115TIP3    H133904   5.417   6.360   0.711  0.4793 -0.0746 -0.0705
 4115TIP3    H233905   5.508   6.475   0.672 -1.7352  1.9603  0.5101
 4116TIP3   OH233906   4.031   3.974   2.161  0.1344 -0.1983  0.2064
 4116TIP3    H133907   4.008   3.884   2.138  2.5752 -0.7826 -0.2665
 4116TIP3    H233908   4.122   3.969   2.191 -0.0168  1.9613  1.2724
 4117TIP3   OH233909   3.452   2.256   1.958  0.0396 -0.2559  0.1415
 4117TIP3    H133910   3.433   2.223   2.046  3.1722 -0.9879  0.6439
 4117TIP3    H233911   3.423   2.347   1.960 -0.5549 -0.4476  1.6997
 4118TIP3   OH233912   0.615   1.675   8.343  0.4222  0.3522 -0.1446
 4118TIP3    H133913   0.663   1.597   8.317  0.9231  0.4376  0.5030
 4118TIP3    H233914   0.544   1.642   8.399  0.5168  0.3445 -0.0297
 4119TIP3   OH233915   1.622   1.426   7.454  0.0288 -0.1688 -0.0119
 4119TIP3    H133916   1.593   1.510   7.488  0.0357  0.0857 -0.6074
 4119TIP3    H233917   1.556   1.403   7.388  0.8208  0.1202 -0.9417
 4120TIP3   OH233918   4.298   6.823   8.578  0.4983 -0.1187  0.6171
 4120TIP3    H133919   4.371   6.830   8.639 -1.0457  1.5326  2.4524
 4120TIP3    H233920   4.221   6.848   8.631 -0.9541  1.2779 -1.9744
 4121TIP3   OH233921   5.657   5.636   6.546 -0.4803  0.4872  0.0564
 4121TIP3    H133922   5.717   5.638   6.472 -1.5972  1.2848 -0.8623
 4121TIP3    H233923   5.641   5.729   6.566  2.9594  0.5044  3.9969
 4122TIP3   OH233924   1.235   1.679   7.414  0.1358 -0.4072  0.5133
 4122TIP3    H133925   1.197   1.719   7.493  0.0273 -0.5155  0.5160
 4122TIP3    H233926   1.321   1.648   7.443  0.1491 -0.3318  0.5562
 4123TIP3   OH233927   0.984   2.815   1.609  0.3952  0.0205  0.3577
 4123TIP3    H133928   0.981   2.873   1.685  1.1835  1.4029 -0.6066
 4123TIP3    H233929   1.076   2.817   1.582  0.1782 -0.6670 -0.4574
 4124TIP3   OH233930   2.745   0.338   1.697 -0.1335  0.2844  0.2448
 4124TIP3    H133931   2.767   0.366   1.786  1.0016 -2.6179  1.0218
 4124TIP3    H233932   2.697   0.256   1.710  0.0608 -0.2011 -1.8201
 4125TIP3   OH233933   1.134   4.109   2.190  0.2498 -0.2322 -0.2290
 4125TIP3    H133934   1.063   4.088   2.130 -1.5175  0.6503  1.4496
 4125TIP3    H233935   1.162   4.197   2.165  0.3832 -0.3645 -0.5464
 4126TIP3   OH233936   5.241   2.854   1.588  0.3085 -0.3548  0.7212
 4126TIP3    H133937   5.147   2.864   1.577  0.3375 -2.1630 -2.4687
 4126TIP3    H233938   5.274   2.944   1.596 -1.5432  0.4335  0.0155
 4127TIP3   OH233939   1.836   0.545   2.282 -0.2141  0.3146  0.2395
 4127TIP3    H133940   1.747   0.536   2.316  0.3102  1.5125  2.0450
 4127TIP3    H233941   1.825   0.589   2.198 -1.3835 -0.6555 -0.1512
 4128TIP3   OH233942   2.389   2.726   8.363 -0.1782  0.2427 -0.5807
 4128TIP3    H133943   2.365   2.695   8.276 -1.9044  0.7214 -0.3094
 4128TIP3    H233944   2.308   2.725   8.413  0.5937  0.8649  0.7567
 4129TIP3   OH233945   4.164   2.914   2.683 -0.3301  0.3450 -0.4234
 4129TIP3    H133946   4.256   2.886   2.693 -0.6763 -0.2609  1.6376
 4129TIP3    H233947   4.168   3.010   2.682  0.2729  0.3526  0.7289
 4130TIP3   OH233948   1.609   1.705   5.934 -0.2728  0.6209 -0.4085
 4130TIP3    H133949   1.656   1.656   6.002  0.2005  0.1067 -1.0997
 4130TIP3    H233950   1.517   1.682   5.947 -0.0932 -0.1890 -0.5053
 4131TIP3   OH233951   1.832   4.076   6.376 -0.0378 -0.0342  0.0018
 4131TIP3    H133952   1.909   4.020   6.377 -0.0734 -0.1376 -1.5973
 4131TIP3    H233953   1.768   4.029   6.323  0.2122  1.8164 -2.0999
 4132TIP3   OH233954   5.946   6.647   0.461 -0.1371 -0.3304  0.3459
 4132TIP3    H133955   6.005   6.703   0.411  0.6464  0.0332  1.6491
 4132TIP3    H233956   5.874   6.706   0.487  0.1506 -0.1801  0.8102
 4133TIP3   OH233957   4.410   1.159   8.045 -0.5958  0.0221  0.2874
 4133TIP3    H133958   4.353   1.235   8.031  1.0245  1.2009 -0.2487
 4133TIP3    H233959   4.494   1.197   8.071 -0.0664 -1.6577  1.1260
 4134TIP3   OH233960   3.845   6.157   7.720  0.0346 -0.4322 -0.5722
 4134TIP3    H133961   3.820   6.085   7.779 -2.3279  0.2804 -0.5966
 4134TIP3    H233962   3.819   6.126   7.633 -1.0462  0.4297 -0.5766
 4135TIP3   OH233963   2.115   2.632   7.518 -1.0125  0.4352  0.2450
 4135TIP3    H133964   2.083   2.624   7.428  0.1585 -0.3261 -0.1337
 4135TIP3    H233965   2.037   2.630   7.572 -1.7889  1.5298 -0.7845
 4136TIP3   OH233966   2.086   1.544   7.030  0.2709  0.4963 -0.1963
 4136TIP3    H133967   2.118   1.523   6.942  0.2603  0.2374 -0.1389
 4136TIP3    H233968   2.048   1.462   7.062  1.4096  0.2263  0.5388
 4137TIP3   OH233969   1.729   5.991   2.553  0.4409 -0.3677 -0.2831
 4137TIP3    H133970   1.666   6.063   2.551  0.0510 -0.7177 -0.5531
 4137TIP3    H233971   1.691   5.924   2.497  0.9785 -0.6434 -0.3220
 4138TIP3   OH233972   4.210   0.394   8.272 -0.2325 -0.1878  0.3129
 4138TIP3    H133973   4.139   0.411   8.210  1.1187  0.2162 -1.1865
 4138TIP3    H233974   4.202   0.464   8.336  0.0212  1.0853 -0.9930
 4139TIP3   OH233975   5.109   3.402   1.985  0.1850 -0.5527 -0.0789
 4139TIP3    H133976   5.200   3.430   1.980 -0.2431  0.8341 -0.4402
 4139TIP3    H233977   5.097   3.376   2.077  0.5297  0.7648  0.3621
 4140TIP3   OH233978   6.798   3.963   7.404  0.0930 -0.2765 -0.1643
 4140TIP3    H133979   6.821   3.871   7.395  0.0183 -0.2684 -0.4513
 4140TIP3    H233980   6.851   4.007   7.337 -0.1544 -0.1604 -0.2857
 4141TIP3   OH233981   3.689   3.380   0.440 -0.5610  1.3191  0.0300
 4141TIP3    H133982   3.686   3.355   0.532 -0.6668 -0.0417 -0.3306
 4141TIP3    H233983   3.763   3.331   0.404 -1.5214  0.5732 -0.9687
 4142TIP3   OH233984   3.986   3.918   1.547 -0.2692  0.5242  0.5110
 4142TIP3    H133985   3.916   3.853   1.549  0.8800 -0.8063  2.9818
 4142TIP3    H233986   4.054   3.881   1.604  3.4253  0.7030 -3.2769
 4143TIP3   OH233987   4.971   5.301   0.945  0.3727  0.5174  0.6340
 4143TIP3    H133988   5.002   5.316   1.034 -1.1743  1.4415  1.0507
 4143TIP3    H233989   4.925   5.382   0.921  0.7987  0.3110 -1.0300
 4144TIP3   OH233990   0.866   1.398   1.338 -0.0203 -0.1014  0.0582
 4144TIP3    H133991   0.905   1.484   1.350 -0.9042  0.3471 -0.1965
 4144TIP3    H233992   0.896   1.369   1.251  0.2796 -0.0540  0.1465
 4145TIP3   OH233993   1.123   1.313   8.661  0.1690  0.0277 -0.9541
 4145TIP3    H133994   1.036   1.334   8.695  0.9420 -2.3309  3.2375
 4145TIP3    H233995   1.108   1.280   8.573 -2.9561  0.9374 -0.8786
 4146TIP3   OH233996   0.248   0.608   8.385 -0.3611  0.0214 -0.1277
 4146TIP3    H133997   0.289   0.528   8.418 -0.4417 -0.2627 -0.7012
 4146TIP3    H233998   0.269   0.608   8.291 -2.3252 -0.5527 -0.6159
 4147TIP3   OH233999   6.795   3.714   6.939 -0.1632  0.3263 -0.3256
 4147TIP3    H134000   6.780   3.779   6.871 -0.3316  0.4605 -0.1579
 4147TIP3    H234001   6.840   3.642   6.893 -0.4318  0.3395 -0.6152
 4148TIP3   OH234002   5.873   3.387   0.522  0.4649 -0.9531  0.0979
 4148TIP3    H134003   5.925   3.334   0.581  1.6069 -1.4277 -1.2728
 4148TIP3    H234004   5.843   3.325   0.454  2.6116  0.2156 -2.0630
 4149TIP3   OH234005   3.524   5.833   2.780 -0.0319 -0.3246  0.0310
 4149TIP3    H134006   3.593   5.846   2.715  1.0330 -2.6875  0.5807
 4149TIP3    H234007   3.564   5.857   2.863 -0.4067 -0.1657  0.1689
 4150TIP3   OH234008   1.934   0.610   8.579 -0.7854  0.2517  0.3493
 4150TIP3    H134009   1.997   0.669   8.538  0.0609 -0.4506  0.6005
 4150TIP3    H234010   1.879   0.579   8.507 -1.2403  1.3228  0.2176
 4151TIP3   OH234011   3.664   2.987   8.185 -0.2137  0.2335  0.4552
 4151TIP3    H134012   3.627   3.024   8.264  2.0098  1.6483  0.9513
 4151TIP3    H234013   3.681   3.063   8.129 -0.4462 -0.5950 -0.7804
 4152TIP3   OH234014   4.050   5.717   2.950  0.4695 -0.2443 -0.0712
 4152TIP3    H134015   4.069   5.690   2.860  1.9805 -0.3831  0.2650
 4152TIP3    H234016   4.081   5.644   3.004 -0.4144 -0.1559  0.5770
 4153TIP3   OH234017   0.852   1.385   0.004 -0.2133  0.0389 -0.3947
 4153TIP3    H134018   0.866   1.443  -0.071  0.9555  0.8868  0.4479
 4153TIP3    H234019   0.757   1.381   0.013 -0.3440  0.8133 -1.2405
 4154TIP3   OH234020   4.595   5.430   7.621  0.4922  0.6748 -0.0441
 4154TIP3    H134021   4.558   5.395   7.702  0.8249  0.5499  0.0581
 4154TIP3    H234022   4.684   5.456   7.645  1.0785 -0.6354 -0.6879
 4155TIP3   OH234023   5.342   3.678   1.608 -0.0901  0.6634 -0.3934
 4155TIP3    H134024   5.326   3.584   1.615 -1.7130  0.7270 -2.3179
 4155TIP3    H234025   5.394   3.687   1.527  3.1112  1.2085  1.5318
 4156TIP3   OH234026   4.197   6.773   0.202 -0.0803 -0.2627 -0.2167
 4156TIP3    H134027   4.263   6.705   0.213 -1.4389 -1.5886  0.1153
 4156TIP3    H234028   4.243   6.855   0.217  1.4791 -1.1425 -0.0450
 4157TIP3   OH234029   2.905   1.157   1.849  0.4382  0.0490 -0.0543
 4157TIP3    H134030   2.958   1.104   1.908 -0.3220  1.1478  1.6762
 4157TIP3    H234031   2.882   1.097   1.778  1.7418 -1.1834  0.5073
 4158TIP3   OH234032   1.371   2.705   8.471 -0.1402 -0.4159 -0.5569
 4158TIP3    H134033   1.404   2.782   8.424 -1.8495 -0.1304 -1.3972
 4158TIP3    H234034   1.353   2.641   8.402 -0.6311 -0.8053 -0.0738
 4159TIP3   OH234035   2.320   5.510   8.705 -0.0298  0.1938  0.1916
 4159TIP3    H134036   2.327   5.579   8.771 -0.6151 -1.7163  2.3690
 4159TIP3    H234037   2.409   5.501   8.671  0.2869  1.2011  0.7029
 4160TIP3   OH234038   6.412   2.140   1.480 -0.5564 -0.4025 -0.4208
 4160TIP3    H134039   6.333   2.105   1.438 -1.5445  1.5951 -0.3431
 4160TIP3    H234040   6.446   2.204   1.417 -0.3084  0.3958  0.4896
 4161TIP3   OH234041   4.706   2.818   8.171  0.5358 -0.3229 -0.1935
 4161TIP3    H134042   4.760   2.741   8.189  2.1793  0.2119 -2.3524
 4161TIP3    H234043   4.763   2.892   8.191  0.1948  0.2758 -1.3814
 4162TIP3   OH234044   3.038   0.852   1.660  0.4803  0.3376  0.1072
 4162TIP3    H134045   3.042   0.767   1.618 -0.0664 -0.7121  2.0478
 4162TIP3    H234046   3.127   0.867   1.693  0.1354 -0.4377  1.4619
 4163TIP3   OH234047   2.541   6.568   0.199  0.1804 -0.1765  0.1906
 4163TIP3    H134048   2.517   6.619   0.276 -0.7278  0.1486 -0.2862
 4163TIP3    H234049   2.628   6.533   0.218  1.1741  2.1822  0.2036
 4164TIP3   OH234050   5.038   5.435   6.724 -0.0771 -0.4215 -0.1430
 4164TIP3    H134051   4.975   5.499   6.757  1.7546  1.1032  0.5530
 4164TIP3    H234052   5.027   5.359   6.782 -0.1815  0.4237  0.9690
 4165TIP3   OH234053   3.684   1.107   0.651  0.1700  0.5403 -0.0544
 4165TIP3    H134054   3.633   1.054   0.713  0.9606  1.8795  1.8508
 4165TIP3    H234055   3.711   1.045   0.583 -2.1526 -0.6409  0.0041
 4166TIP3   OH234056   0.010   3.687   0.374 -0.5834  0.0600 -0.0966
 4166TIP3    H134057   0.037   3.692   0.466 -0.2558  0.1633 -0.1956
 4166TIP3    H234058   0.091   3.669   0.327 -0.8638 -0.7204 -0.2956
 4167TIP3   OH234059   3.750   2.954   0.442 -0.1027  0.7514 -0.2095
 4167TIP3    H134060   3.804   3.030   0.464 -1.5958  2.4151 -1.9200
 4167TIP3    H234061   3.755   2.947   0.347 -2.0384  0.3260 -0.3265
 4168TIP3   OH234062   4.440   2.558   2.328  0.1197 -0.4665 -0.3269
 4168TIP3    H134063   4.412   2.576   2.238  1.0874  0.4403 -0.4619
 4168TIP3    H234064   4.439   2.462   2.334  0.5370 -0.5606 -1.4695
 4169TIP3   OH234065   0.168   3.127   1.452 -0.5496 -0.1905 -0.3109
 4169TIP3    H134066   0.092   3.185   1.441  0.0776  0.3357 -2.0818
 4169TIP3    H234067   0.228   3.177   1.508 -1.0562 -0.1765  0.2302
 4170TIP3   OH234068   4.367   3.391   8.536  0.3722  0.2353 -0.1417
 4170TIP3    H134069   4.347   3.432   8.621 -0.0039  1.1750 -0.6653
 4170TIP3    H234070   4.425   3.319   8.557  0.6842  0.7635  0.8767
 4171TIP3   OH234071   1.092   5.891   8.301 -0.2217  0.1490 -0.0667
 4171TIP3    H134072   1.075   5.888   8.395  0.6308 -1.0714  0.0697
 4171TIP3    H234073   1.179   5.932   8.294 -0.6835  1.1071 -0.3994
 4172TIP3   OH234074   1.058   1.015   7.829 -0.6396 -0.2685 -0.5095
 4172TIP3    H134075   1.049   1.072   7.753 -1.0831  0.0417 -0.2265
 4172TIP3    H234076   1.145   1.035   7.865 -0.2260 -0.7614 -1.2071
 4173TIP3   OH234077   6.314   2.973   1.808 -0.4099  0.1829  0.4867
 4173TIP3    H134078   6.359   3.023   1.875  1.9615 -0.9675 -0.1488
 4173TIP3    H234079   6.311   3.031   1.732 -1.3841  0.7875  0.9621
 4174TIP3   OH234080   0.210   2.963   8.491 -0.3556 -0.2322  0.0629
 4174TIP3    H134081   0.157   2.975   8.412 -1.2056 -0.4772  0.5879
 4174TIP3    H234082   0.170   3.020   8.556  0.2608 -0.1296  0.3602
 4175TIP3   OH234083   4.344   0.992   7.830  0.6459  0.0213 -0.2650
 4175TIP3    H134084   4.425   0.953   7.797  0.0974 -1.2563 -0.1594
 4175TIP3    H234085   4.372   1.048   7.903  1.8314  2.5507 -2.4853
 4176TIP3   OH234086   0.360   5.657   7.197 -0.4530  0.7122  0.5826
 4176TIP3    H134087   0.445   5.615   7.185 -0.4412  0.2210  2.1795
 4176TIP3    H234088   0.362   5.732   7.138  0.5832 -0.0010 -0.3358
 4177TIP3   OH234089   2.013   5.019   7.001  0.6222  0.1571 -0.7342
 4177TIP3    H134090   1.922   5.042   6.983  0.7366  0.4108 -1.0023
 4177TIP3    H234091   2.011   4.975   7.086  0.1818 -0.3029 -0.9848
 4178TIP3   OH234092   5.684   5.909   1.903 -0.0950  0.2763  0.1518
 4178TIP3    H134093   5.663   5.835   1.846  0.0862  0.5409 -0.2612
 4178TIP3    H234094   5.719   5.869   1.983 -1.5974 -0.1649  0.6369
 4179TIP3   OH234095   1.502   4.272   1.793  0.2505 -0.1638  0.1122
 4179TIP3    H134096   1.422   4.324   1.785  1.3112  1.2519 -3.5994
 4179TIP3    H234097   1.563   4.328   1.840  0.1099  0.2620 -0.2040
 4180TIP3   OH234098   5.627   3.482   0.319 -0.4396  0.8194  0.2060
 4180TIP3    H134099   5.695   3.546   0.338 -0.1239  0.3153  0.7795
 4180TIP3    H234100   5.607   3.496   0.226  2.3934 -0.8410 -0.7643
 4181TIP3   OH234101   5.756   1.263   7.437 -0.3632  0.5916 -0.2618
 4181TIP3    H134102   5.775   1.345   7.482 -0.1752  0.9027 -0.8919
 4181TIP3    H234103   5.667   1.240   7.465 -0.3313  0.8916  0.0910
 4182TIP3   OH234104   4.045   2.542   0.253 -0.0766  0.1858  0.2295
 4182TIP3    H134105   4.061   2.457   0.213 -1.0026 -0.6067  1.4652
 4182TIP3    H234106   3.951   2.541   0.274  0.3437  0.5741  2.3200
 4183TIP3   OH234107   1.037   6.701   6.988 -0.2617  0.4925  0.4868
 4183TIP3    H134108   1.032   6.648   6.908 -1.0564 -1.7391  1.9319
 4183TIP3    H234109   1.011   6.788   6.960  1.5428  0.3036 -2.1057
 4184TIP3   OH234110   3.522   5.655   0.179 -0.0657  0.2487  0.0308
 4184TIP3    H134111   3.582   5.730   0.184  1.0669 -0.6787  1.3016
 4184TIP3    H234112   3.571   5.583   0.220 -1.5706 -0.8882 -0.0945
 4185TIP3   OH234113   2.746   6.754   8.484  0.0205 -0.3738  0.3887
 4185TIP3    H134114   2.815   6.785   8.543  2.0222 -1.4682 -1.2670
 4185TIP3    H234115   2.739   6.661   8.503 -0.9706 -0.2917  0.4661
 4186TIP3   OH234116   4.651   2.755   7.525 -0.0476 -0.0308 -0.2089
 4186TIP3    H134117   4.643   2.698   7.602  0.6832 -2.4374 -1.8170
 4186TIP3    H234118   4.569   2.741   7.477  0.3002 -0.0218 -0.8075
 4187TIP3   OH234119   1.494   2.321   6.752 -0.0830  0.0118  0.7486
 4187TIP3    H134120   1.500   2.414   6.733  1.0161 -0.3293 -0.7924
 4187TIP3    H234121   1.473   2.281   6.667  0.4567 -1.2212  1.1725
 4188TIP3   OH234122   3.825   2.967   0.192  0.3652  0.4683 -0.1943
 4188TIP3    H134123   3.796   2.914   0.118  0.4088  2.8476 -2.0277
 4188TIP3    H234124   3.921   2.963   0.188  0.3680  0.6191 -0.3045
 4189TIP3   OH234125   4.639   2.735   0.341 -0.2056 -0.4919  0.4736
 4189TIP3    H134126   4.572   2.666   0.345 -1.6084  0.8449  0.6710
 4189TIP3    H234127   4.634   2.778   0.426 -0.8878  1.2425 -0.3933
 4190TIP3   OH234128   0.341   5.736   1.819  0.3955  0.1296 -0.1088
 4190TIP3    H134129   0.392   5.817   1.822  0.3014  0.2412 -1.0771
 4190TIP3    H234130   0.343   5.711   1.726  0.2821 -0.8811  0.1542
 4191TIP3   OH234131   0.912   0.564   8.494  0.4422  1.3702  0.3790
 4191TIP3    H134132   0.970   0.552   8.569  0.9316  0.1163 -0.1648
 4191TIP3    H234133   0.971   0.570   8.419 -0.0871 -1.7268 -0.4186
 4192TIP3   OH234134   3.664   5.732   1.613  0.2568  0.2714 -0.6173
 4192TIP3    H134135   3.729   5.663   1.623 -0.6165 -0.5763 -0.6299
 4192TIP3    H234136   3.580   5.687   1.621 -0.3412  1.2134 -1.3318
 4193TIP3   OH234137   1.907   5.136   1.617  0.3362  0.2408  0.2436
 4193TIP3    H134138   1.922   5.045   1.592  0.7885 -0.2208  2.1064
 4193TIP3    H234139   1.930   5.141   1.709 -1.3134  1.8538  0.6428
 4194TIP3   OH234140   6.250   3.285   1.392 -0.0602  0.0232 -0.1254
 4194TIP3    H134141   6.196   3.359   1.418  0.1147  0.4024 -0.8242
 4194TIP3    H234142   6.323   3.324   1.345 -1.7126 -0.7267 -3.6397
 4195TIP3   OH234143   2.105   2.882   7.822  0.0678  0.1797 -0.4879
 4195TIP3    H134144   2.136   2.816   7.883  0.2762 -0.3551 -1.1604
 4195TIP3    H234145   2.116   2.965   7.869 -1.4047 -0.3312  0.8583
 4196TIP3   OH234146   1.638   0.549   1.628  0.3662  0.3462 -0.1789
 4196TIP3    H134147   1.553   0.514   1.652  0.6389  1.2249  2.2600
 4196TIP3    H234148   1.683   0.474   1.588 -0.5900 -0.9038  0.9842
 4197TIP3   OH234149   0.391   5.897   0.061  0.1295  0.9263 -0.3390
 4197TIP3    H134150   0.359   5.892   0.151  0.3011 -0.0562 -0.3274
 4197TIP3    H234151   0.486   5.885   0.069  0.1020  0.4640 -0.6854
 4198TIP3   OH234152   2.388   5.354   0.392 -0.2446 -0.4368  0.0993
 4198TIP3    H134153   2.388   5.266   0.430 -0.3562 -0.5298 -0.1182
 4198TIP3    H234154   2.307   5.358   0.341  0.5468 -0.7877 -1.2344
 4199TIP3   OH234155   1.739   3.849   1.106  0.1597  0.1234 -0.1189
 4199TIP3    H134156   1.833   3.835   1.114  0.7359  2.5066 -1.6924
 4199TIP3    H234157   1.721   3.926   1.161 -1.2513 -1.3369  1.5871
 4200TIP3   OH234158   6.047   6.668   8.408 -0.3763 -0.1712 -0.6655
 4200TIP3    H134159   6.044   6.763   8.417  0.6624  0.1410 -2.9352
 4200TIP3    H234160   6.024   6.635   8.495 -0.0255  2.1410  0.3802
 4201TIP3   OH234161   0.615   1.145   1.969 -0.0389 -0.4580 -0.1075
 4201TIP3    H134162   0.555   1.072   1.986 -1.0598  0.4405  0.2587
 4201TIP3    H234163   0.602   1.205   2.042 -0.6335  1.0053 -1.3501
 4202TIP3   OH234164   6.640   3.625   2.321 -0.1041 -0.5505  0.0537
 4202TIP3    H134165   6.586   3.566   2.373 -0.4330 -0.4680 -0.1871
 4202TIP3    H234166   6.667   3.694   2.382 -0.1153 -0.6959  0.2210
 4203TIP3   OH234167   2.780   6.065   8.000  0.0628 -0.0594  0.4603
 4203TIP3    H134168   2.782   6.040   7.907  0.7723  1.6915 -0.0430
 4203TIP3    H234169   2.745   6.154   8.000 -0.8178 -0.3749  1.9902
 4204TIP3   OH234170   5.314   1.892   8.030  0.1887 -0.0408  0.0317
 4204TIP3    H134171   5.399   1.917   8.066  0.7003 -2.2537  0.5475
 4204TIP3    H234172   5.320   1.914   7.937  0.0365  2.8394  0.6051
 4205TIP3   OH234173   5.219   1.923   6.792  0.2863 -0.4217 -0.4760
 4205TIP3    H134174   5.243   1.910   6.700 -2.1894  2.6141 -1.7247
 4205TIP3    H234175   5.285   1.983   6.826 -0.9369  1.6446 -1.5622
 4206TIP3   OH234176   2.696   3.726   1.520 -0.1247 -0.4251  0.2412
 4206TIP3    H134177   2.656   3.784   1.586  0.0754 -1.7451  1.5768
 4206TIP3    H234178   2.671   3.765   1.436 -0.3825  1.3286  1.0780
 4207TIP3   OH234179   3.701   0.713   2.386 -0.2722 -0.4392 -0.2585
 4207TIP3    H134180   3.626   0.730   2.442  0.3293 -0.2194  0.5037
 4207TIP3    H234181   3.720   0.798   2.345  1.1063  0.2014  1.5253
 4208TIP3   OH234182   0.843   0.745   2.003 -0.1160  0.0196  0.1648
 4208TIP3    H134183   0.918   0.714   1.953  1.6464  0.4306  2.3826
 4208TIP3    H234184   0.812   0.822   1.955  1.0696  0.0203 -0.6365
 4209TIP3   OH234185   5.081   6.772   0.403 -0.6246  0.1920  0.1603
 4209TIP3    H134186   5.074   6.717   0.325  2.9243  0.0114 -0.1642
 4209TIP3    H234187   5.175   6.786   0.415 -1.0876  1.2383  3.7404
 4210TIP3   OH234188   3.212   5.807   7.366  0.2293  0.2207  0.0185
 4210TIP3    H134189   3.214   5.860   7.286  1.2411  0.2958  0.0756
 4210TIP3    H234190   3.144   5.847   7.420  0.8020  1.3258 -0.0425
 4211TIP3   OH234191   4.312   5.164   1.405  0.0894  0.6592 -0.1980
 4211TIP3    H134192   4.287   5.144   1.495  0.0190 -0.4929 -0.4650
 4211TIP3    H234193   4.323   5.079   1.363 -0.6867  1.1785 -1.5132
 4212TIP3   OH234194   6.709   5.336   1.893 -0.0758 -0.1935 -0.0921
 4212TIP3    H134195   6.718   5.311   1.985  1.2850  0.8744  0.0851
 4212TIP3    H234196   6.745   5.425   1.888  1.6879 -0.9338 -1.9999
 4213TIP3   OH234197   1.384   0.798   7.023 -0.6610 -0.2439  0.0133
 4213TIP3    H134198   1.361   0.856   7.096 -0.9396  0.6312 -0.7471
 4213TIP3    H234199   1.319   0.817   6.956  0.5757  0.2128 -1.1101
 4214TIP3   OH234200   0.111   4.406   7.193  0.2774 -0.6103  0.0929
 4214TIP3    H134201   0.124   4.423   7.100 -1.6434  1.4305  0.1268
 4214TIP3    H234202   0.016   4.401   7.204  0.4021  0.3698  2.1159
 4215TIP3   OH234203   2.772   4.838   7.162  0.5528  0.4588 -0.2572
 4215TIP3    H134204   2.776   4.851   7.257 -0.1455 -1.8540  0.1590
 4215TIP3    H234205   2.681   4.855   7.139 -0.2401 -2.5100  0.2088
 4216TIP3   OH234206   5.369   5.074   8.225 -0.3231 -0.2003 -0.0044
 4216TIP3    H134207   5.312   4.997   8.231 -0.2777 -0.4265 -1.8632
 4216TIP3    H234208   5.401   5.087   8.315 -0.6705 -2.0902  0.4430
 4217TIP3   OH234209   3.787   4.254   8.624 -0.0902  0.4260 -0.6461
 4217TIP3    H134210   3.868   4.205   8.612 -1.4774 -1.8728 -1.1855
 4217TIP3    H234211   3.731   4.196   8.675 -0.5836  2.9617  1.9510
 4218TIP3   OH234212   4.972   2.767   7.753  0.3361 -0.3330  0.3272
 4218TIP3    H134213   4.888   2.791   7.792  0.7289 -0.3846  1.2349
 4218TIP3    H234214   4.983   2.828   7.680  0.8144  1.5987  1.9129
 4219TIP3   OH234215   0.601   0.169   8.588 -0.4946 -0.0305 -0.1146
 4219TIP3    H134216   0.663   0.242   8.587 -0.5291 -0.0049 -0.3504
 4219TIP3    H234217   0.619   0.121   8.507  0.4687 -1.0653  0.6699
 4220TIP3   OH234218   4.958   1.557   0.239 -0.4810  0.3451  0.2528
 4220TIP3    H134219   4.916   1.625   0.291 -1.3759 -1.3498  1.8329
 4220TIP3    H234220   4.938   1.475   0.284  0.7058 -0.9855 -1.4784
 4221TIP3   OH234221   0.119   0.562   7.498  0.5786 -0.3616  0.2576
 4221TIP3    H134222   0.183   0.491   7.496  0.0277 -0.8749  0.3635
 4221TIP3    H234223   0.035   0.517   7.512  0.4884  0.4886  2.9176
 4222TIP3   OH234224   0.527   3.258   7.006 -0.3327 -0.0360  0.7983
 4222TIP3    H134225   0.504   3.214   7.088 -0.1883 -0.8466  0.4143
 4222TIP3    H234226   0.471   3.217   6.940  2.2108 -2.2354 -0.2029
 4223TIP3   OH234227   1.275   5.313   1.739 -0.0938 -0.4588 -0.2577
 4223TIP3    H134228   1.345   5.264   1.694  1.5361  0.9838  0.5743
 4223TIP3    H234229   1.204   5.250   1.748  1.2198 -2.1105 -0.8488
 4224TIP3   OH234230   3.558   4.547   1.238  0.7983  0.5044  0.2961
 4224TIP3    H134231   3.595   4.635   1.231  0.5785  0.8757  2.8211
 4224TIP3    H234232   3.610   4.505   1.307  0.7107 -1.2593 -0.6761
 4225TIP3   OH234233   6.675   0.987   0.601  0.1077 -0.4953  0.7483
 4225TIP3    H134234   6.590   1.012   0.565 -0.1178 -1.7529  0.3879
 4225TIP3    H234235   6.669   1.010   0.694 -0.1109  0.6843  0.4634
 4226TIP3   OH234236   4.743   6.295   7.339  0.1230  0.0259 -0.3696
 4226TIP3    H134237   4.713   6.375   7.382 -0.6098 -0.0324 -0.7523
 4226TIP3    H234238   4.665   6.239   7.336  1.3283 -2.1959  3.1044
 4227TIP3   OH234239   4.009   4.767   2.634  0.1938 -0.2602  0.4792
 4227TIP3    H134240   4.060   4.841   2.666  1.4528 -0.1800 -1.4980
 4227TIP3    H234241   3.943   4.752   2.701  0.6387  1.8997  1.4842
 4228TIP3   OH234242   5.962   5.319   1.613 -0.3155 -0.3862  0.1764
 4228TIP3    H134243   5.879   5.358   1.641 -0.5663 -1.1422  0.5133
 4228TIP3    H234244   6.025   5.350   1.678 -0.2516  0.5167 -0.3114
 4229TIP3   OH234245   5.385   6.240   1.533  0.0462 -0.0240 -1.1658
 4229TIP3    H134246   5.297   6.203   1.523  0.1345 -0.1318 -1.5748
 4229TIP3    H234247   5.440   6.166   1.556 -0.2252  0.2911  0.5813
 4230TIP3   OH234248   3.976   1.662   1.446  0.4622 -0.0129 -0.1309
 4230TIP3    H134249   4.037   1.589   1.452 -1.2025 -1.4754 -0.2111
 4230TIP3    H234250   4.008   1.715   1.373  1.9763 -0.3762  0.2475
 4231TIP3   OH234251   2.530   0.188   6.679 -0.3057 -0.3351  0.1718
 4231TIP3    H134252   2.605   0.224   6.727  1.4607 -0.6751 -2.1863
 4231TIP3    H234253   2.458   0.248   6.699  0.7301  0.3885  1.9793
 4232TIP3   OH234254   0.061   1.586   2.196  0.5300 -0.2502 -0.0443
 4232TIP3    H134255   0.022   1.557   2.278  1.9245 -0.0876  0.7133
 4232TIP3    H234256  -0.013   1.611   2.141 -0.4586 -0.9538  0.9344
 4233TIP3   OH234257   3.661   5.914   3.005  0.0204 -0.3471 -0.2532
 4233TIP3    H134258   3.627   5.964   3.079 -1.6334 -1.8374  0.0624
 4233TIP3    H234259   3.751   5.944   2.996 -0.9733  3.0981 -0.4692
 4234TIP3   OH234260   3.344   6.156   1.109  0.3762  0.0700  0.0908
 4234TIP3    H134261   3.369   6.123   1.023 -0.9648  0.1107 -0.3287
 4234TIP3    H234262   3.302   6.081   1.152  2.5753 -0.4903  1.4101
 4235TIP3   OH234263   2.246   3.166   0.120 -0.8317 -0.2086  0.4463
 4235TIP3    H134264   2.198   3.127   0.047 -1.2642 -1.5849  1.4382
 4235TIP3    H234265   2.179   3.184   0.186 -0.7788  2.8781 -0.1587
 4236TIP3   OH234266   1.011   1.668   8.146 -0.3923 -0.4094  0.3450
 4236TIP3    H134267   0.941   1.682   8.082 -1.7697 -2.4004  1.3045
 4236TIP3    H234268   1.005   1.743   8.205 -0.4756  0.3707 -0.6226
 4237TIP3   OH234269   3.508   6.225   1.721 -0.2074 -0.2261 -0.6219
 4237TIP3    H134270   3.496   6.174   1.642  0.1404  0.0447 -0.8527
 4237TIP3    H234271   3.565   6.298   1.695 -0.0666 -0.1488 -0.1236
 4238TIP3   OH234272   5.999   0.795   0.258  0.6091  0.4435  0.6259
 4238TIP3    H134273   6.016   0.780   0.351 -1.2726  2.5477  1.3793
 4238TIP3    H234274   5.911   0.762   0.244  1.1011 -0.4166 -0.6068
 4239TIP3   OH234275   1.914   1.865   2.005  0.1944 -0.2991 -0.9914
 4239TIP3    H134276   1.867   1.903   1.931  0.2495 -0.6469 -1.2040
 4239TIP3    H234277   1.846   1.847   2.070  0.2803  1.1041 -0.4743
 4240TIP3   OH234278   1.449   0.087   7.559 -0.1721  0.0056  0.6120
 4240TIP3    H134279   1.521   0.037   7.598 -0.4927 -2.0748 -1.2806
 4240TIP3    H234280   1.477   0.103   7.469 -0.8215  1.8632  0.7065
 4241TIP3   OH234281   4.748   5.925   8.285  0.3175 -0.0425 -0.2241
 4241TIP3    H134282   4.835   5.887   8.277  0.2203  0.2348 -3.9890
 4241TIP3    H234283   4.761   6.005   8.336  2.2697 -0.0351 -0.6731
 4242TIP3   OH234284   4.545   5.103   0.013 -0.8563  0.2691 -0.0143
 4242TIP3    H134285   4.515   5.192  -0.006 -0.5650  0.5737  0.9128
 4242TIP3    H234286   4.640   5.107   0.007 -0.7419  0.4087  1.5702
 4243TIP3   OH234287   5.007   4.365   8.095 -0.1355 -0.9862 -0.0736
 4243TIP3    H134288   4.987   4.301   8.163 -0.1369 -0.2163  0.6596
 4243TIP3    H234289   4.976   4.449   8.130  1.0937 -0.3524 -0.4267
 4244TIP3   OH234290   3.211   6.269   8.656 -0.1261  0.1470  0.1692
 4244TIP3    H134291   3.130   6.274   8.605  0.1354 -0.9176 -0.3851
 4244TIP3    H234292   3.194   6.324   8.733 -0.9746  0.7882 -0.4579
 4245TIP3   OH234293   1.993   3.484   1.787 -0.3758 -0.3368 -0.1460
 4245TIP3    H134294   2.057   3.428   1.830 -1.8704 -1.1172  1.1537
 4245TIP3    H234295   1.922   3.492   1.851 -0.9769  1.6154 -0.9998
 4246TIP3   OH234296   1.649   3.157   2.147  0.3196  0.0434 -0.2922
 4246TIP3    H134297   1.670   3.091   2.080  0.3814  0.5445 -0.7770
 4246TIP3    H234298   1.563   3.132   2.179 -0.4294  0.6948 -1.7117
 4247TIP3   OH234299   1.765   1.667   1.791 -0.1020 -0.0760 -0.2256
 4247TIP3    H134300   1.702   1.606   1.753 -0.1330  0.4282 -0.9931
 4247TIP3    H234301   1.712   1.726   1.845 -0.1334 -0.3750  0.0824
 4248TIP3   OH234302   4.474   1.009   8.309  0.4292  0.4869  0.5244
 4248TIP3    H134303   4.407   1.078   8.312  0.5744  0.6673 -0.1944
 4248TIP3    H234304   4.531   1.035   8.237  1.4216  0.4660  1.2878
 4249TIP3   OH234305   3.506   0.747   7.981  0.2942 -0.3289 -0.1530
 4249TIP3    H134306   3.583   0.775   7.933  1.0230 -1.6977  0.1622
 4249TIP3    H234307   3.495   0.812   8.050  0.2629  0.6913 -1.0937
 4250TIP3   OH234308   4.434   2.084   2.024  0.4492 -0.4606 -0.1003
 4250TIP3    H134309   4.357   2.027   2.021  0.2980 -0.2551 -0.1232
 4250TIP3    H234310   4.455   2.100   1.932 -0.0257  0.2174 -0.0971
 4251TIP3   OH234311   5.198   2.551   7.354  0.2956 -0.2216 -0.7096
 4251TIP3    H134312   5.106   2.553   7.381 -0.2742  2.7151 -2.3928
 4251TIP3    H234313   5.197   2.499   7.273  0.6220 -2.1790  0.4651
 4252TIP3   OH234314   1.490   1.618   6.267 -0.5819 -0.0407 -0.3779
 4252TIP3    H134315   1.580   1.592   6.248 -0.1210 -0.1986  1.7420
 4252TIP3    H234316   1.473   1.582   6.355 -2.0571  1.5866  0.0585
 4253TIP3   OH234317   6.318   6.789   7.291 -0.3325  0.1078 -0.5595
 4253TIP3    H134318   6.289   6.766   7.379 -0.9190  0.0287 -0.7669
 4253TIP3    H234319   6.258   6.742   7.233  0.1956 -0.0310 -1.0025
 4254TIP3   OH234320   1.666   1.777   0.350 -0.1894  0.2078 -0.1216
 4254TIP3    H134321   1.718   1.781   0.430  0.7313  1.0073 -0.7428
 4254TIP3    H234322   1.670   1.685   0.323  2.0196  0.4625 -0.8491
 4255TIP3   OH234323   3.435   1.791   2.793 -0.1097 -0.0607  0.8561
 4255TIP3    H134324   3.362   1.747   2.749  1.5026 -1.6636 -0.3407
 4255TIP3    H234325   3.434   1.880   2.757  1.0392 -1.2441 -2.4700
 4256TIP3   OH234326   2.970   5.060   0.218 -0.0133 -0.2750 -0.0731
 4256TIP3    H134327   2.911   5.004   0.167 -2.1880  0.2570  1.6739
 4256TIP3    H234328   2.945   5.149   0.194  0.3998 -0.0388  0.3632
 4257TIP3   OH234329   3.262   1.195   1.111 -0.3366  0.0057 -0.2737
 4257TIP3    H134330   3.233   1.270   1.163  0.4331 -0.9315  1.6385
 4257TIP3    H234331   3.188   1.175   1.054 -0.1700  2.8152 -1.6163
 4258TIP3   OH234332   1.990   1.535   1.882 -0.0529 -0.0020  0.0102
 4258TIP3    H134333   1.912   1.571   1.841 -0.1105  1.0031  0.9491
 4258TIP3    H234334   2.055   1.605   1.875  0.4514 -0.4502  0.1374
 4259TIP3   OH234335   2.442   4.511   7.919  0.5108  0.6473  0.1758
 4259TIP3    H134336   2.457   4.461   7.838 -1.5596 -0.4712  0.4125
 4259TIP3    H234337   2.435   4.445   7.987  2.1489  1.5818  1.3316
 4260TIP3   OH234338   2.423   5.834   2.382 -0.8432  0.3966 -0.1060
 4260TIP3    H134339   2.394   5.860   2.469  2.6249  0.4157  1.1960
 4260TIP3    H234340   2.454   5.916   2.342  3.8523 -0.2858  1.4458
 4261TIP3   OH234341   5.365   4.181   8.329  0.2330  0.0472 -0.8546
 4261TIP3    H134342   5.385   4.251   8.267  1.0478 -0.6782 -1.4308
 4261TIP3    H234343   5.332   4.109   8.274 -0.4040 -0.1026 -0.2913
 4262TIP3   OH234344   5.791   4.167   0.487  0.4671 -0.4489  0.2856
 4262TIP3    H134345   5.884   4.145   0.496  0.4864 -0.0832  1.0208
 4262TIP3    H234346   5.745   4.092   0.526  0.3614 -1.5521 -1.7639
 4263TIP3   OH234347   0.269   2.184   8.636  0.2545  0.3351  0.3299
 4263TIP3    H134348   0.261   2.095   8.602 -0.8394 -0.2814  2.0543
 4263TIP3    H234349   0.206   2.235   8.585  0.1293 -0.1101  0.0368
 4264TIP3   OH234350   4.930   2.597   7.386  0.5223 -0.1087  0.1130
 4264TIP3    H134351   4.932   2.620   7.293  0.0618 -0.8883 -0.1049
 4264TIP3    H234352   4.846   2.629   7.417  0.4922 -0.2246  0.1531
 4265TIP3   OH234353   3.109   3.694   6.781  0.0129  0.2941  0.0279
 4265TIP3    H134354   3.078   3.740   6.859 -1.3681 -0.5030 -0.0137
 4265TIP3    H234355   3.073   3.744   6.708  0.5381  0.5162 -0.0813
 4266TIP3   OH234356   6.195   6.821   6.931  0.0126 -0.6825 -0.1853
 4266TIP3    H134357   6.192   6.751   6.866 -1.3957  0.4505 -1.4278
 4266TIP3    H234358   6.147   6.787   7.006 -1.0811 -0.8897 -0.9595
 4267TIP3   OH234359   1.367   2.998   7.302  0.1180 -0.4030  0.4705
 4267TIP3    H134360   1.286   2.962   7.339 -0.1334  0.5750  0.8989
 4267TIP3    H234361   1.435   2.976   7.365  0.1072 -0.8124  0.3418
 4268TIP3   OH234362   3.978   6.669   7.809 -0.6690  0.5303 -0.1112
 4268TIP3    H134363   3.902   6.702   7.761 -1.9466 -1.0206  0.7496
 4268TIP3    H234364   3.941   6.615   7.879  1.2290 -1.2078 -0.3382
 4269TIP3   OH234365   4.427   2.644   0.747  0.3006  0.2310 -0.1141
 4269TIP3    H134366   4.377   2.710   0.796 -1.1098 -1.1824  0.4561
 4269TIP3    H234367   4.484   2.604   0.813  0.1145 -0.0609 -0.1249
 4270TIP3   OH234368   1.850   1.064   0.717  0.5308 -0.7541 -0.2652
 4270TIP3    H134369   1.827   1.015   0.638  0.7618 -1.1349 -0.0970
 4270TIP3    H234370   1.802   1.020   0.787 -0.0297 -0.1438 -0.2535
 4271TIP3   OH234371   1.852   5.259   1.073  0.6247 -0.5298  0.3474
 4271TIP3    H134372   1.875   5.320   1.003 -0.5054 -0.7486 -0.2488
 4271TIP3    H234373   1.867   5.308   1.154 -0.3184  0.5719 -0.1196
 4272TIP3   OH234374   5.447   0.254   2.752 -0.1113  0.5766 -0.3164
 4272TIP3    H134375   5.441   0.159   2.756  1.8530  0.4413  2.0213
 4272TIP3    H234376   5.540   0.272   2.733 -0.6333  2.0576 -1.7309
 4273TIP3   OH234377   5.902   5.527   0.547  0.0682 -0.8136 -0.2094
 4273TIP3    H134378   5.893   5.480   0.464 -1.4336 -1.0410  0.0514
 4273TIP3    H234379   5.932   5.614   0.522  2.2858 -1.6649 -0.7488
 4274TIP3   OH234380   2.805   6.095   3.194  0.5123 -0.3078 -0.2675
 4274TIP3    H134381   2.734   6.037   3.220  1.0950 -0.7865  0.3093
 4274TIP3    H234382   2.862   6.041   3.140  0.7284 -0.0922 -0.2580
 4275TIP3   OH234383   5.199   1.476   7.869 -0.1362  0.1810 -0.1705
 4275TIP3    H134384   5.105   1.469   7.885 -0.4612 -0.5267 -2.0965
 4275TIP3    H234385   5.233   1.390   7.893 -0.1197  0.1462 -0.3209
 4276TIP3   OH234386   3.454   4.009   2.315  0.2429  0.5568  0.1714
 4276TIP3    H134387   3.506   4.013   2.395 -1.3292 -0.0611  1.2888
 4276TIP3    H234388   3.363   4.003   2.346 -0.5577  2.0674 -1.6855
 4277TIP3   OH234389   2.378   2.414   0.088 -0.4720 -0.2173  0.1500
 4277TIP3    H134390   2.360   2.500   0.049  0.4403  0.3990  1.0507
 4277TIP3    H234391   2.401   2.433   0.179  2.1251 -1.1525 -0.2324
 4278TIP3   OH234392   2.932   6.613   1.448 -0.3255  0.0626 -0.0576
 4278TIP3    H134393   2.932   6.704   1.477  0.4229  0.1639 -0.3507
 4278TIP3    H234394   2.840   6.594   1.428 -0.6152  0.4837  0.8182
 4279TIP3   OH234395   1.955   0.511   1.041  0.1893  0.2027  0.6665
 4279TIP3    H134396   2.039   0.556   1.053 -0.7325  2.5179 -0.7234
 4279TIP3    H234397   1.895   0.557   1.101 -0.4106 -0.3736  0.5183
 4280TIP3   OH234398   2.404   1.440   0.539  0.0493 -0.0128  0.0598
 4280TIP3    H134399   2.390   1.452   0.633  0.4610  1.7992 -0.0798
 4280TIP3    H234400   2.495   1.465   0.524 -0.2052  0.3857 -0.9305
 4281TIP3   OH234401   2.909   3.583   1.717  0.0736 -0.4868 -0.0439
 4281TIP3    H134402   2.949   3.507   1.758 -1.3607 -0.3674  1.6367
 4281TIP3    H234403   2.858   3.547   1.644 -1.1118 -1.2354  1.1199
 4282TIP3   OH234404   1.937   4.995   1.879 -0.4723 -0.1336 -0.2729
 4282TIP3    H134405   1.946   4.934   1.805 -2.3040 -2.1560  1.0608
 4282TIP3    H234406   1.930   4.939   1.956 -0.5805  1.8463  1.2372
 4283TIP3   OH234407   0.114   5.411   1.614  0.1389  0.4180  0.0915
 4283TIP3    H134408   0.152   5.419   1.527 -0.4205 -0.0296 -0.2023
 4283TIP3    H234409   0.091   5.319   1.622 -0.2127  0.5408  0.5399
 4284TIP3   OH234410   6.102   6.515   0.962  0.0375 -0.2659  0.3790
 4284TIP3    H134411   6.175   6.501   0.901 -0.8006 -1.6748 -0.3419
 4284TIP3    H234412   6.088   6.610   0.961 -0.2311 -0.2809 -1.9807
 4285TIP3   OH234413   3.834   2.703   0.703  0.3987  0.0967 -0.0291
 4285TIP3    H134414   3.907   2.642   0.690  0.0242 -0.3582 -0.0213
 4285TIP3    H234415   3.871   2.788   0.681  0.6753 -0.2464 -0.9771
 4286TIP3   OH234416   2.888   6.459   0.967 -0.3640 -0.3203 -0.0601
 4286TIP3    H134417   2.961   6.510   0.934  1.6041 -1.9457  1.5393
 4286TIP3    H234418   2.828   6.524   1.005  1.6884  0.9256  1.2326
 4287TIP3   OH234419   2.061   3.397   2.248 -0.6577 -0.1660  0.0491
 4287TIP3    H134420   2.147   3.364   2.274 -1.0358 -0.0925  1.4890
 4287TIP3    H234421   2.034   3.340   2.176  1.1533  0.6541 -1.3673
 4288TIP3   OH234422   1.420   1.761   0.609 -0.2272 -0.3786 -0.3763
 4288TIP3    H134423   1.468   1.678   0.607 -0.8961 -0.7863  0.0528
 4288TIP3    H234424   1.477   1.821   0.656  0.4325 -0.4829 -1.0257
 4289TIP3   OH234425   3.607   3.956   1.012 -0.4787 -0.1300 -0.1019
 4289TIP3    H134426   3.522   3.941   1.054  0.3924 -0.8121  1.4916
 4289TIP3    H234427   3.632   4.044   1.040  0.5158 -0.9229  1.6435
 4290TIP3   OH234428   5.879   0.327   1.885  0.2367  0.2099  0.1185
 4290TIP3    H134429   5.972   0.329   1.863  0.1721  0.6079 -0.1329
 4290TIP3    H234430   5.872   0.381   1.964  0.1474  0.5860 -0.1461
 4291TIP3   OH234431   1.146   4.335   7.342 -0.6266 -0.3874 -0.4813
 4291TIP3    H134432   1.191   4.404   7.391 -0.9769 -1.0330  0.7941
 4291TIP3    H234433   1.174   4.254   7.383  0.1411 -1.0761 -2.2570
 4292TIP3   OH234434   0.140   3.594   2.597  0.2410  0.0358  0.3067
 4292TIP3    H134435   0.094   3.510   2.592  0.5744 -0.1843  0.8544
 4292TIP3    H234436   0.071   3.658   2.612 -0.0162 -0.1378 -0.1156
 4293TIP3   OH234437   0.652   4.993   2.773 -0.2170 -0.1413 -0.0313
 4293TIP3    H134438   0.601   4.957   2.847 -0.9559 -0.1353 -0.5219
 4293TIP3    H234439   0.735   5.019   2.812 -0.6589  0.0216  0.8399
 4294TIP3   OH234440   2.707   1.440   7.167  0.2655 -0.3172 -0.0509
 4294TIP3    H134441   2.790   1.401   7.196  0.6298  0.9720  0.7377
 4294TIP3    H234442   2.713   1.443   7.072  1.3406  0.1884  0.0212
 4295TIP3   OH234443   6.748   2.321   7.509  0.1724 -0.6868  0.1841
 4295TIP3    H134444   6.834   2.334   7.548  1.4028  0.2823 -2.5664
 4295TIP3    H234445   6.765   2.277   7.426 -1.8597  0.3590 -0.8777
 4296TIP3   OH234446   3.177   3.551   2.100 -0.3688  0.4382  0.4131
 4296TIP3    H134447   3.251   3.529   2.157 -0.7657 -1.2973  0.3141
 4296TIP3    H234448   3.116   3.598   2.157 -0.8623 -1.4614  1.5244
 4297TIP3   OH234449   1.753   3.378   7.954 -0.0252 -0.3576  0.0881
 4297TIP3    H134450   1.768   3.306   7.894  0.2458 -0.5573  0.3912
 4297TIP3    H234451   1.713   3.337   8.031  0.6117 -0.2642  0.4725
 4298TIP3   OH234452   5.735   3.944   1.941  0.3785 -0.4465  0.5272
 4298TIP3    H134453   5.815   3.990   1.967  0.1940 -0.3418  0.9152
 4298TIP3    H234454   5.664   3.994   1.981  0.0828 -0.2407 -0.2432
 4299TIP3   OH234455   4.826   2.529   0.302  0.6198 -0.3076  0.2105
 4299TIP3    H134456   4.910   2.548   0.344  0.0859 -0.1498  1.2261
 4299TIP3    H234457   4.767   2.596   0.335  0.1671 -0.2225 -0.7539
 4300TIP3   OH234458   0.657   5.688   1.598 -0.1885 -0.1374 -0.0122
 4300TIP3    H134459   0.564   5.684   1.573  0.8534 -0.9409 -4.8090
 4300TIP3    H234460   0.680   5.597   1.618 -0.2636 -0.0330  0.5688
 4301TIP3   OH234461   2.723   5.429   6.831 -0.3666  0.5618  0.8949
 4301TIP3    H134462   2.781   5.356   6.808 -1.6262 -0.5680  1.1332
 4301TIP3    H234463   2.700   5.469   6.748 -0.9512 -0.3696  0.5840
 4302TIP3   OH234464   1.985   2.776   1.891 -0.2360 -0.4290  0.0214
 4302TIP3    H134465   2.072   2.808   1.866 -0.2891 -0.8102 -0.6918
 4302TIP3    H234466   1.952   2.732   1.812 -1.9671  1.5455 -0.4604
 4303TIP3   OH234467   2.374   6.743   8.396  0.1098  0.3938  0.5624
 4303TIP3    H134468   2.349   6.655   8.423 -0.3091  0.6751  1.1222
 4303TIP3    H234469   2.445   6.730   8.333  1.5055 -0.2880  2.1858
 4304TIP3   OH234470   6.604   6.394   7.637  0.0468 -0.0430 -0.8512
 4304TIP3    H134471   6.623   6.479   7.677  2.0135 -0.0325 -1.6935
 4304TIP3    H234472   6.599   6.333   7.711 -2.7685  0.9454 -0.0979
 4305TIP3   OH234473   0.563   4.764   8.311 -0.0139 -0.2542 -0.0311
 4305TIP3    H134474   0.472   4.766   8.339 -0.6036  0.2384 -1.8208
 4305TIP3    H234475   0.586   4.671   8.312 -0.4335 -0.3607  0.6821
 4306TIP3   OH234476   0.099   4.677   7.661  0.0044  0.2421 -0.1378
 4306TIP3    H134477   0.131   4.599   7.615 -0.1545  1.7031 -2.8819
 4306TIP3    H234478   0.174   4.706   7.713  0.4766 -0.9500 -0.1086
 4307TIP3   OH234479   4.673   4.459   0.190  0.2587 -0.2284 -0.1723
 4307TIP3    H134480   4.707   4.491   0.274 -0.4962 -0.7860  0.3616
 4307TIP3    H234481   4.631   4.376   0.211  1.4930 -1.2018 -1.4037
 4308TIP3   OH234482   1.833   4.833   7.685  0.5415  0.4941  0.4124
 4308TIP3    H134483   1.863   4.877   7.605 -2.6138  3.0438  0.4267
 4308TIP3    H234484   1.835   4.901   7.752 -1.1887 -0.2829  1.3259
 4309TIP3   OH234485   1.116   3.014   8.165 -0.2714  0.3515 -0.3877
 4309TIP3    H134486   1.188   2.967   8.123 -0.0250  0.4614 -0.0965
 4309TIP3    H234487   1.037   2.974   8.130 -0.0869  1.0579 -1.6723
 4310TIP3   OH234488   0.507   1.076   0.333  0.2655 -0.1618 -0.3922
 4310TIP3    H134489   0.442   1.032   0.388 -0.4231  0.9918 -0.2491
 4310TIP3    H234490   0.516   1.020   0.257  0.1008 -1.0113  0.2026
 4311TIP3   OH234491   1.613   3.860   0.465 -0.4027 -0.1222  0.5825
 4311TIP3    H134492   1.606   3.810   0.384 -1.0331  0.9642 -0.0482
 4311TIP3    H234493   1.659   3.940   0.440  1.3443 -0.6916  1.7432
 4312TIP3   OH234494   6.206   4.728   1.175  0.3215 -0.0135  0.2520
 4312TIP3    H134495   6.260   4.649   1.174  0.0574 -0.1962 -1.0946
 4312TIP3    H234496   6.116   4.696   1.166  0.2447  0.4430 -0.7817
 4313TIP3   OH234497   4.784   0.456   2.269  0.7881  0.6143 -0.5356
 4313TIP3    H134498   4.721   0.514   2.228 -1.5227 -0.3516  1.4157
 4313TIP3    H234499   4.811   0.395   2.200  0.4165  1.7029 -1.6612
 4314TIP3   OH234500   3.982   6.569   0.125  0.1780 -0.0871  0.5645
 4314TIP3    H134501   3.936   6.499   0.171  0.4773  0.7185  2.1649
 4314TIP3    H234502   3.984   6.641   0.187  1.1227  0.8653 -0.5209
 4315TIP3   OH234503   4.748   4.610   1.458 -0.1689  0.2867 -0.5583
 4315TIP3    H134504   4.834   4.630   1.422 -0.6623  1.8807 -0.9585
 4315TIP3    H234505   4.753   4.636   1.549  0.0616 -0.5747 -0.3163
 4316TIP3   OH234506   3.353   2.521   1.415  0.2189 -0.2595  0.9260
 4316TIP3    H134507   3.315   2.539   1.501  0.0124  0.2612  0.7284
 4316TIP3    H234508   3.422   2.587   1.406  0.1179 -0.1998  0.6105
 4317TIP3   OH234509   5.672   5.150   8.268 -0.0091  0.2015  0.1331
 4317TIP3    H134510   5.606   5.174   8.334  0.4798  1.9017  0.0633
 4317TIP3    H234511   5.732   5.225   8.267  2.3382 -1.5765  0.6802
 4318TIP3   OH234512   2.391   5.955   8.511  0.6909 -0.7935 -0.0300
 4318TIP3    H134513   2.318   6.002   8.470 -1.1028 -0.1424  3.5003
 4318TIP3    H234514   2.444   5.924   8.438 -0.9347  2.1411 -2.7099
 4319TIP3   OH234515   3.919   4.512   7.720 -0.1521 -0.1200 -0.1938
 4319TIP3    H134516   3.979   4.587   7.716  1.2231 -1.1970 -0.5352
 4319TIP3    H234517   3.934   4.466   7.637  0.6684 -1.9632  0.9273
 4320TIP3   OH234518   5.894   3.322   1.980 -0.1239 -0.1126  0.3752
 4320TIP3    H134519   5.983   3.311   1.946 -0.0716  0.4388  0.3268
 4320TIP3    H234520   5.899   3.291   2.070 -0.1291 -1.0496  0.0732
 4321TIP3   OH234521   5.141   2.530   0.979  0.2547  0.2178  0.1956
 4321TIP3    H134522   5.068   2.467   0.973 -0.2719  0.6403  1.6172
 4321TIP3    H234523   5.218   2.480   0.952 -0.6827  0.0657 -2.4441
 4322TIP3   OH234524   3.180   1.530   0.614  0.3717  0.2139  0.6150
 4322TIP3    H134525   3.208   1.622   0.610  0.5161  0.2151  1.3835
 4322TIP3    H234526   3.244   1.483   0.561  0.2615  0.5664  0.1669
 4323TIP3   OH234527   5.057   3.349   8.326 -0.0404 -0.7332 -0.3711
 4323TIP3    H134528   4.980   3.380   8.373 -0.6857 -0.7824 -1.3748
 4323TIP3    H234529   5.072   3.415   8.259  0.3488 -1.1028 -0.6511
 4324TIP3   OH234530   0.482   4.896   1.146  0.7729  0.0636 -0.2413
 4324TIP3    H134531   0.533   4.972   1.174  0.9865 -0.1430 -0.0702
 4324TIP3    H234532   0.420   4.881   1.218  1.0942 -0.2582 -0.0316
 4325TIP3   OH234533   5.731   6.812   0.492 -0.1415 -0.1946  0.3005
 4325TIP3    H134534   5.672   6.854   0.430  1.8472  1.1793 -0.8012
 4325TIP3    H234535   5.756   6.882   0.553 -0.7867 -1.1202  1.6691
 4326TIP3   OH234536   0.357   5.421   1.767  0.1346  0.9188  0.0076
 4326TIP3    H134537   0.375   5.484   1.837  1.0327  0.5353  0.1459
 4326TIP3    H234538   0.267   5.438   1.740 -0.4360  0.6693  1.6729
 4327TIP3   OH234539   1.495   6.360   8.614 -0.0330 -0.0790 -0.2547
 4327TIP3    H134540   1.488   6.415   8.693 -3.1709 -2.0537  1.0606
 4327TIP3    H234541   1.446   6.407   8.547 -1.5341 -0.5288  0.4731
 4328TIP3   OH234542   1.345   5.775   1.196  0.2106 -0.0721 -0.4465
 4328TIP3    H134543   1.335   5.689   1.239 -0.7895  0.1301 -0.2527
 4328TIP3    H234544   1.431   5.806   1.225 -0.1175 -0.2810  0.8053
 4329TIP3   OH234545   1.506   5.166   0.063  0.5589  0.4075  0.7378
 4329TIP3    H134546   1.587   5.123   0.035  0.0845  1.5850 -2.9287
 4329TIP3    H234547   1.453   5.171  -0.016 -2.5850  0.9014  2.7224
 4330TIP3   OH234548   0.861   4.856   0.146  0.1440 -0.5172  0.4743
 4330TIP3    H134549   0.955   4.850   0.131 -0.0957  0.6153 -1.9289
 4330TIP3    H234550   0.822   4.809   0.073 -1.1463  1.4735 -0.2010
 4331TIP3   OH234551   0.945   5.159   8.434 -0.1289  0.4287  0.3964
 4331TIP3    H134552   0.852   5.134   8.437  0.2118 -1.1742 -0.8977
 4331TIP3    H234553   0.945   5.244   8.390 -1.0952  1.3492  2.0573
 4332TIP3   OH234554   4.478   2.717   8.035 -0.4162  0.6700 -0.1525
 4332TIP3    H134555   4.509   2.626   8.038 -2.4253 -0.0479  0.6216
 4332TIP3    H234556   4.535   2.763   8.097 -0.0961 -0.3254  0.3241
 4333TIP3   OH234557   1.629   2.914   0.207  0.5616  0.0042 -0.0110
 4333TIP3    H134558   1.629   3.009   0.194  3.3529 -0.0262 -0.8609
 4333TIP3    H234559   1.577   2.880   0.134 -1.7965  0.8663  1.1577
 4334TIP3   OH234560   1.667   2.237   1.117  0.1711  0.0607 -0.1525
 4334TIP3    H134561   1.633   2.195   1.196 -0.7693 -1.0894 -1.1323
 4334TIP3    H234562   1.591   2.276   1.076  0.4351 -0.3596 -1.0787
 4335TIP3   OH234563   1.651   0.871   0.831 -0.2150  0.2618 -0.1624
 4335TIP3    H134564   1.579   0.825   0.788  0.4555 -0.4530 -0.5623
 4335TIP3    H234565   1.637   0.856   0.925 -0.2778 -0.3690 -0.2644
 4336TIP3   OH234566   0.434   4.885   2.481  0.4489  0.2202  0.1523
 4336TIP3    H134567   0.387   4.822   2.425 -1.0230  2.5173 -1.3625
 4336TIP3    H234568   0.401   4.867   2.569  0.2043 -1.2378 -0.2053
 4337TIP3   OH234569   2.596   0.443   0.034  0.0912 -0.0523 -0.1000
 4337TIP3    H134570   2.615   0.533   0.008  0.4788 -0.1351 -0.1104
 4337TIP3    H234571   2.593   0.394  -0.048  0.2949 -0.1256 -0.0640
 4338TIP3   OH234572   0.115   6.807   7.122  0.4446  0.2982 -0.3297
 4338TIP3    H134573   0.181   6.872   7.100  0.5911  0.2767  0.0376
 4338TIP3    H234574   0.127   6.737   7.058  0.1975  0.6887 -0.8108
 4339TIP3   OH234575   1.121   3.431   6.822 -0.2103  0.1513  0.1042
 4339TIP3    H134576   1.093   3.516   6.857  0.7888  0.8442 -0.7022
 4339TIP3    H234577   1.047   3.400   6.771 -1.3139 -0.3997  1.9579
 4340TIP3   OH234578   3.768   0.384   1.099  0.0636  0.3040  0.5532
 4340TIP3    H134579   3.687   0.345   1.066  1.1985 -0.6024 -1.3925
 4340TIP3    H234580   3.740   0.460   1.150 -1.9344  2.2190 -3.0234
 4341TIP3   OH234581   5.169   2.826   8.434  0.6545 -0.5025 -0.5958
 4341TIP3    H134582   5.117   2.784   8.366  1.7405 -1.0138 -1.1321
 4341TIP3    H234583   5.238   2.763   8.454  0.9835  0.0985  0.2006
 4342TIP3   OH234584   1.376   3.553   8.432  0.1689  0.2870  0.2880
 4342TIP3    H134585   1.395   3.460   8.433  2.3489  0.6549 -0.5306
 4342TIP3    H234586   1.378   3.576   8.339 -0.2626  1.1511  0.4848
 4343TIP3   OH234587   0.608   1.851   0.780 -0.2544  0.6764 -0.1739
 4343TIP3    H134588   0.558   1.920   0.736 -1.2112 -0.0060 -0.1844
 4343TIP3    H234589   0.694   1.890   0.795  0.4126  0.7070 -3.3205
 4344TIP3   OH234590   5.438   1.811   1.686  0.5651 -0.6299 -0.1510
 4344TIP3    H134591   5.417   1.725   1.722 -1.7868  0.0973  0.4079
 4344TIP3    H234592   5.464   1.794   1.596  1.5147 -2.0317  0.3625
 4345TIP3   OH234593   5.980   5.264   8.651  0.3298 -0.4162  0.6863
 4345TIP3    H134594   5.906   5.320   8.628  1.2324  0.2861 -0.6678
 4345TIP3    H234595   5.977   5.192   8.588  1.8541  0.6314 -0.6739
 4346TIP3   OH234596   1.475   5.652   8.116  0.4700 -0.6197 -0.1494
 4346TIP3    H134597   1.385   5.655   8.150  0.3803 -0.7230 -0.3822
 4346TIP3    H234598   1.466   5.626   8.025  0.6859  0.1180 -0.3811
 4347TIP3   OH234599   3.981   6.138   1.265 -0.0620 -0.2104 -0.5323
 4347TIP3    H134600   4.039   6.062   1.265  0.1378 -0.0581 -0.4437
 4347TIP3    H234601   3.908   6.113   1.209 -0.7156 -1.0141  0.6214
 4348TIP3   OH234602   4.114   3.465   1.062 -0.4454 -0.4360 -1.0928
 4348TIP3    H134603   4.161   3.533   1.014  1.0267  0.0633  0.8962
 4348TIP3    H234604   4.051   3.513   1.116 -1.5442 -0.9200 -1.9134
 4349TIP3   OH234605   0.437   6.292   1.732 -0.2432 -0.0633 -0.8688
 4349TIP3    H134606   0.485   6.324   1.656  1.4987 -0.5445 -0.0157
 4349TIP3    H234607   0.428   6.368   1.789  0.2014 -0.1516 -0.6818
 4350TIP3   OH234608   5.921   4.448   7.560  0.7085  0.0226  0.5649
 4350TIP3    H134609   5.920   4.487   7.472 -1.3149  0.0003  0.5256
 4350TIP3    H234610   5.909   4.522   7.619  0.0071 -0.1816  0.6853
 4351TIP3   OH234611   1.232   4.157   7.000 -0.0094  0.3947 -0.3197
 4351TIP3    H134612   1.263   4.237   7.042 -1.0984 -0.1200  1.5521
 4351TIP3    H234613   1.275   4.157   6.914  1.7384  1.8496  0.4915
 4352TIP3   OH234614   4.959   0.079   6.985 -0.3452  0.1945  0.3561
 4352TIP3    H134615   4.941   0.001   7.038  1.5622 -1.6530 -1.4502
 4352TIP3    H234616   5.050   0.067   6.956 -0.6245  2.1349 -1.5692
 4353TIP3   OH234617   5.456   4.272   1.224  0.1060 -0.0891 -0.3101
 4353TIP3    H134618   5.486   4.240   1.309  0.0811 -1.7480 -0.8785
 4353TIP3    H234619   5.360   4.265   1.228  0.1073 -0.2098 -0.4851
 4354TIP3   OH234620   3.455   3.147   0.441 -0.2965  0.0294  0.3471
 4354TIP3    H134621   3.420   3.236   0.434 -0.3028 -0.0643 -1.4003
 4354TIP3    H234622   3.488   3.140   0.530 -0.1620  1.8431  0.4692
 4355TIP3   OH234623   0.692   0.874   0.578  0.0381  0.2275  0.3619
 4355TIP3    H134624   0.637   0.854   0.653  0.3240 -0.0403  0.5064
 4355TIP3    H234625   0.680   0.967   0.562  0.4884  0.4267  1.1566
 4356TIP3   OH234626   6.686   2.100   8.645  0.6670 -0.3347  0.4709
 4356TIP3    H134627   6.754   2.153   8.605  1.5359 -1.9683 -0.3411
 4356TIP3    H234628   6.724   2.074   8.730  0.1913  0.4292  0.9242
 4357TIP3   OH234629   6.201   0.318   8.323 -0.0809  0.3040  0.4829
 4357TIP3    H134630   6.115   0.279   8.340 -0.3001  0.3238 -0.5089
 4357TIP3    H234631   6.259   0.279   8.388 -0.9596  0.7545  1.5744
 4358TIP3   OH234632   1.408   6.197   0.443  0.2197 -0.7312 -0.3971
 4358TIP3    H134633   1.478   6.179   0.380 -0.8634 -1.2161 -1.5193
 4358TIP3    H234634   1.337   6.234   0.389 -1.1923 -2.2808  0.2960
 4359TIP3   OH234635   6.640   4.900   1.617  0.2335 -0.1658 -0.0484
 4359TIP3    H134636   6.670   4.923   1.529  0.5309 -0.3296  0.0089
 4359TIP3    H234637   6.637   4.983   1.665 -0.0891 -0.0539 -0.2582
 4360TIP3   OH234638   0.042   1.983   7.070  0.1461 -0.3974  0.2580
 4360TIP3    H134639   0.004   1.921   7.007  2.6039 -0.9906 -0.7859
 4360TIP3    H234640   0.012   2.069   7.041  0.6071 -0.7337 -1.3141
 4361TIP3   OH234641   0.121   1.090   8.559 -0.3932 -0.4206 -0.2266
 4361TIP3    H134642   0.107   1.035   8.482  1.7481 -0.6115 -0.5408
 4361TIP3    H234643   0.109   1.180   8.528  0.5499 -0.4920 -0.8100
 4362TIP3   OH234644   5.957   0.673   7.273 -0.4485  0.0709  0.1096
 4362TIP3    H134645   5.994   0.677   7.185  0.0644  1.1562  0.3649
 4362TIP3    H234646   6.032   0.683   7.332 -0.8528 -0.0948  0.6651
 4363TIP3   OH234647   1.828   0.494   8.348 -0.5746  0.1257  0.3186
 4363TIP3    H134648   1.773   0.529   8.277 -0.0433 -0.2514 -0.2968
 4363TIP3    H234649   1.812   0.400   8.345  0.3594 -0.0243 -0.0954
 4364TIP3   OH234650   2.540   2.792   1.180  0.2088 -0.3873 -0.2004
 4364TIP3    H134651   2.573   2.851   1.112  0.4533 -0.2428  0.0383
 4364TIP3    H234652   2.582   2.823   1.260 -1.7377  0.8453  0.4121
 4365TIP3   OH234653   5.310   1.135   8.225  0.2496 -0.2651 -0.1681
 4365TIP3    H134654   5.278   1.194   8.293 -0.2159  1.1532 -1.5577
 4365TIP3    H234655   5.395   1.103   8.258  0.9211  1.8560  0.2767
 4366TIP3   OH234656   1.157   3.101   2.163 -0.1882  0.0964 -0.8050
 4366TIP3    H134657   1.150   3.064   2.075 -1.1584 -0.5047 -0.4857
 4366TIP3    H234658   1.145   3.195   2.151 -1.7632 -0.1218 -1.1665
 4367TIP3   OH234659   6.450   6.385   8.011 -0.5429 -0.0859  0.7708
 4367TIP3    H134660   6.456   6.381   8.106 -2.7570  0.7382  1.0046
 4367TIP3    H234661   6.373   6.334   7.989 -0.4029  0.2201 -0.5249
 4368TIP3   OH234662   0.779   1.849   8.764  0.0397 -0.5440  0.2349
 4368TIP3    H134663   0.811   1.809   8.844  0.9804  0.7432  0.5364
 4368TIP3    H234664   0.851   1.839   8.702 -0.2370 -0.5085 -0.0977
 4369TIP3   OH234665   2.182   3.076   7.982  0.1235 -0.6071 -0.1721
 4369TIP3    H134666   2.181   3.129   8.062 -1.8042  1.5549 -1.4623
 4369TIP3    H234667   2.271   3.086   7.947 -0.1943  2.0399 -0.4269
 4370TIP3   OH234668   0.977   0.473   0.770 -0.6103  0.4774  0.0957
 4370TIP3    H134669   1.014   0.389   0.742  0.5148 -0.0918  2.9479
 4370TIP3    H234670   0.890   0.451   0.803 -0.6422  0.6000  0.0930
 4371TIP3   OH234671   6.222   4.403   1.501  0.6038  0.4174 -0.1371
 4371TIP3    H134672   6.149   4.377   1.444  0.3106  0.6323  0.1370
 4371TIP3    H234673   6.218   4.341   1.574  0.4159  0.7091  0.1020
 4372TIP3   OH234674   6.314   5.097   7.537  1.2010 -0.1406  0.1992
 4372TIP3    H134675   6.326   5.102   7.632 -3.6268 -2.7036  1.2655
 4372TIP3    H234676   6.246   5.163   7.519  0.3329 -1.3182 -0.9779
 4373TIP3   OH234677   4.028   1.774   1.703 -0.0247  0.2233  0.4183
 4373TIP3    H134678   4.059   1.691   1.739 -0.2949 -0.4499 -0.8424
 4373TIP3    H234679   3.974   1.749   1.628  1.7767  1.5671 -1.4360
 4374TIP3   OH234680   2.105   6.592   7.133  0.0868  0.2859  0.3380
 4374TIP3    H134681   2.079   6.680   7.108 -0.4063 -0.0299 -0.2810
 4374TIP3    H234682   2.200   6.593   7.131  0.0761  0.6937 -0.0632
 4375TIP3   OH234683   6.213   0.893   7.980  0.6090 -0.5961 -0.1880
 4375TIP3    H134684   6.278   0.826   8.001 -0.1008 -1.2735 -0.1249
 4375TIP3    H234685   6.129   0.853   8.001  0.2381  0.8984  1.4962
 4376TIP3   OH234686   5.252   2.160   8.262  0.1524 -0.3602 -1.0561
 4376TIP3    H134687   5.277   2.248   8.293 -0.8044 -0.6941  0.8762
 4376TIP3    H234688   5.247   2.168   8.167 -1.5022  2.1610 -0.8586
 4377TIP3   OH234689   6.129   1.701   0.291  0.6148 -0.4404  0.5506
 4377TIP3    H134690   6.072   1.697   0.368  1.3000  0.3584  1.1206
 4377TIP3    H234691   6.217   1.713   0.326  1.0171 -0.6682 -0.3445
 4378TIP3   OH234692   3.865   1.563   1.779  0.3413 -0.3160 -0.0177
 4378TIP3    H134693   3.855   1.611   1.861 -0.0060 -0.3900 -0.0153
 4378TIP3    H234694   3.798   1.598   1.721 -0.4169 -1.3035  0.2304
 4379TIP3   OH234695   5.606   0.663   1.892 -0.7323 -0.2929 -0.4479
 4379TIP3    H134696   5.637   0.674   1.981  0.0850  1.3272 -0.8920
 4379TIP3    H234697   5.519   0.705   1.891  0.1702  1.6732 -0.8862
 4380TIP3   OH234698   4.740   0.314   7.862  0.4974 -0.3954 -1.0482
 4380TIP3    H134699   4.775   0.401   7.880  1.0885 -0.0305 -3.5689
 4380TIP3    H234700   4.671   0.328   7.796 -1.1123 -1.6205  0.2670
 4381TIP3   OH234701   5.642   5.954   8.333 -0.0679  0.0983 -0.1813
 4381TIP3    H134702   5.650   5.861   8.357 -0.5773  0.1773  0.3132
 4381TIP3    H234703   5.694   5.962   8.253  0.9089 -0.3784  0.3847
 4382TIP3   OH234704   2.776   2.232   2.396 -0.2688 -0.3366  0.0230
 4382TIP3    H134705   2.856   2.191   2.431  0.2648 -1.0341 -1.9189
 4382TIP3    H234706   2.803   2.322   2.375 -0.3045 -0.2462  0.3460
 4383TIP3   OH234707   5.672   1.976   1.808  0.1818 -0.6233  0.1879
 4383TIP3    H134708   5.749   2.031   1.822 -0.6069  0.3317  0.9276
 4383TIP3    H234709   5.700   1.911   1.743  0.7454  1.5003 -1.8357
 4384TIP3   OH234710   6.145   6.795   1.828  0.7712  0.0561 -0.2594
 4384TIP3    H134711   6.144   6.779   1.922 -0.6163  1.1175 -0.0656
 4384TIP3    H234712   6.198   6.874   1.818  1.0982 -0.1800 -0.3925
 4385TIP3   OH234713   0.301   4.978   7.502  0.3195  0.0558  0.1137
 4385TIP3    H134714   0.385   5.022   7.485 -0.1364  0.7918 -0.2934
 4385TIP3    H234715   0.239   5.050   7.514 -0.4925 -0.4737 -0.8002
 4386TIP3   OH234716   4.574   1.342   0.880  0.2460 -1.0828 -0.2344
 4386TIP3    H134717   4.526   1.411   0.834 -0.8982 -0.7692  1.3243
 4386TIP3    H234718   4.507   1.298   0.932  1.2797 -2.1692  0.2170
 4387TIP3   OH234719   4.158   1.620   7.176  0.1300  0.3345 -0.3335
 4387TIP3    H134720   4.171   1.708   7.143 -0.6828  0.1259 -1.2822
 4387TIP3    H234721   4.242   1.576   7.164  0.1753  0.6105 -1.0543
 4388TIP3   OH234722   3.658   4.669   7.977 -0.3848 -0.0454  0.0367
 4388TIP3    H134723   3.661   4.758   7.943 -0.5133  0.6112  1.6817
 4388TIP3    H234724   3.655   4.679   8.072 -0.3692 -1.8064  0.2572
 4389TIP3   OH234725   1.915   0.977   1.085  0.2585 -0.4762 -0.3673
 4389TIP3    H134726   1.970   0.931   1.022 -0.8127 -2.0805 -0.1811
 4389TIP3    H234727   1.973   1.042   1.124  1.4508 -0.7371 -1.6288
 4390TIP3   OH234728   4.974   2.944   1.598 -0.2112  0.7276  0.2323
 4390TIP3    H134729   4.958   3.038   1.597  1.0823  0.9779  1.1162
 4390TIP3    H234730   4.907   2.908   1.540 -1.0359  2.1328  0.2702
 4391TIP3   OH234731   1.780   6.547   0.943 -0.1960 -0.4067 -0.2226
 4391TIP3    H134732   1.786   6.544   0.847 -1.4518  0.8099 -0.3792
 4391TIP3    H234733   1.718   6.478   0.965 -1.8626  0.8984 -0.5648
 4392TIP3   OH234734   1.402   1.629   0.969 -0.4140  0.0668  0.3119
 4392TIP3    H134735   1.427   1.619   0.877 -0.4645  0.7662  0.2095
 4392TIP3    H234736   1.312   1.598   0.972 -0.8130  1.1319 -0.1323
 4393TIP3   OH234737   1.733   4.201   6.592 -0.4322  0.0112 -0.4712
 4393TIP3    H134738   1.716   4.135   6.659 -0.2997  0.4439 -0.0083
 4393TIP3    H234739   1.770   4.152   6.519  1.3725 -0.2037  0.5287
 4394TIP3   OH234740   4.517   3.801   8.376 -0.2339 -0.3832  0.1753
 4394TIP3    H134741   4.471   3.815   8.293 -0.1731 -0.4269  0.1342
 4394TIP3    H234742   4.448   3.802   8.443 -0.1840  0.6111  0.2291
 4395TIP3   OH234743   3.515   4.864   0.695  0.2288  0.0836  0.4102
 4395TIP3    H134744   3.465   4.945   0.682 -2.7038 -1.8456 -1.4734
 4395TIP3    H234745   3.585   4.868   0.629 -0.4973  0.6684 -0.3460
 4396TIP3   OH234746   4.799   6.585   7.212  0.2781 -0.3576 -0.3311
 4396TIP3    H134747   4.730   6.615   7.153  0.5978 -1.0733 -1.0954
 4396TIP3    H234748   4.762   6.594   7.300  0.0352  1.3645 -0.5784
 4397TIP3   OH234749   1.299   0.397   0.137  0.3591  0.1146 -0.1094
 4397TIP3    H134750   1.209   0.371   0.155 -0.0037  1.1981 -0.3063
 4397TIP3    H234751   1.320   0.461   0.206  0.7840  0.2818 -0.3854
 4398TIP3   OH234752   6.444   2.979   1.256  0.1823 -0.1111  0.2543
 4398TIP3    H134753   6.524   2.943   1.217  0.0866  0.2375 -0.2843
 4398TIP3    H234754   6.436   3.066   1.217 -0.0742  0.1381  0.8501
 4399TIP3   OH234755   6.590   1.166   7.195  0.0906 -0.7521 -0.9176
 4399TIP3    H134756   6.568   1.074   7.208  1.2952 -0.8930  0.4174
 4399TIP3    H234757   6.675   1.163   7.150  0.3941 -0.3013 -0.3785
 4400TIP3   OH234758   0.608   2.998   0.280 -0.3162 -0.9925 -0.0601
 4400TIP3    H134759   0.599   3.003   0.375 -0.9071  0.6378 -0.1678
 4400TIP3    H234760   0.533   2.945   0.251 -0.0976 -1.5468  0.3832
 4401TIP3   OH234761   3.993   0.486   0.285  0.3599 -0.1681 -0.0193
 4401TIP3    H134762   4.082   0.508   0.311  0.4222 -0.8463  0.3667
 4401TIP3    H234763   4.003   0.430   0.209  0.2345  0.3533 -0.4238
 4402TIP3   OH234764   0.079   1.644   8.321  0.1788 -0.0933  0.0707
 4402TIP3    H134765   0.143   1.712   8.300 -0.2798  0.5462  0.7014
 4402TIP3    H234766   0.042   1.619   8.237 -0.2864  1.0852 -0.0919
 4403TIP3   OH234767   3.654   3.475   1.692  0.0644 -0.9037  0.4573
 4403TIP3    H134768   3.564   3.487   1.662  0.6554  1.3224 -0.6598
 4403TIP3    H234769   3.698   3.430   1.621 -0.1789 -2.1809  1.0900
 4404TIP3   OH234770   3.340   6.585   1.930  0.9864  0.4282 -0.4570
 4404TIP3    H134771   3.426   6.626   1.939  0.1086  2.3237 -0.2045
 4404TIP3    H234772   3.314   6.604   1.840  0.6115  0.3534 -0.3660
 4405TIP3   OH234773   4.926   4.677   1.695  0.1348 -0.1601 -0.2771
 4405TIP3    H134774   4.892   4.764   1.676 -1.0361 -0.5308 -0.0031
 4405TIP3    H234775   4.851   4.629   1.731  1.0631 -0.9007  0.7823
 4406TIP3   OH234776   0.110   2.925   1.254 -0.5758  0.0521 -0.2938
 4406TIP3    H134777   0.171   2.966   1.316 -1.7664  3.3533 -1.1005
 4406TIP3    H234778   0.153   2.934   1.169 -0.3081 -1.6923 -0.3893
 4407TIP3   OH234779   1.455   4.064   2.145  0.2323 -0.1482  0.0024
 4407TIP3    H134780   1.364   4.068   2.176  0.2694  2.0907  0.0163
 4407TIP3    H234781   1.501   4.016   2.214 -1.0276 -1.9543 -0.3487
 4408TIP3   OH234782   0.709   1.077   2.602  0.0705 -0.3653 -0.3405
 4408TIP3    H134783   0.748   0.994   2.575 -0.7750 -0.8007 -0.2336
 4408TIP3    H234784   0.636   1.053   2.658 -0.8905  0.4101 -1.2176
 4409TIP3   OH234785   2.274   0.641   2.605 -0.6752  0.4141 -0.3851
 4409TIP3    H134786   2.244   0.568   2.660  1.6750 -0.8650 -0.6915
 4409TIP3    H234787   2.270   0.607   2.516  0.6638  0.5475 -0.5136
 4410TIP3   OH234788   1.415   1.803   8.467 -0.2407 -0.1717 -0.2566
 4410TIP3    H134789   1.349   1.743   8.431 -0.7568 -0.1824  0.6706
 4410TIP3    H234790   1.478   1.746   8.512 -0.1874 -0.0885 -0.2254
 4411TIP3   OH234791   5.464   2.234   7.340  0.6024  0.2943  0.1959
 4411TIP3    H134792   5.385   2.283   7.320  0.6383  0.6860  0.9963
 4411TIP3    H234793   5.502   2.214   7.254 -0.6202 -0.3443 -0.2108
 4412TIP3   OH234794   0.564   0.682   1.809 -0.2090  0.0184  0.2175
 4412TIP3    H134795   0.530   0.766   1.779 -1.2902 -0.7336 -0.7483
 4412TIP3    H234796   0.618   0.703   1.885 -1.6988  1.4094  0.9268
 4413TIP3   OH234797   1.713   1.984   8.136  0.1480  0.3864  0.2586
 4413TIP3    H134798   1.698   1.899   8.178  0.7851 -0.0786 -0.4084
 4413TIP3    H234799   1.780   2.026   8.190 -1.2188  1.1211  1.4388
 4414TIP3   OH234800   3.658   0.456   8.033 -0.5500  0.1300 -0.1632
 4414TIP3    H134801   3.649   0.361   8.027 -0.1345 -0.0893  2.0183
 4414TIP3    H234802   3.725   0.478   7.969 -0.4502 -1.0776 -0.4964
 4415TIP3   OH234803   3.900   6.842   2.939 -0.3018  0.4452  0.1965
 4415TIP3    H134804   3.896   6.873   3.030 -1.5655 -1.3232  0.8025
 4415TIP3    H234805   3.876   6.918   2.887 -0.7338  1.1906  1.4318
 4416TIP3   OH234806   3.082   4.891   2.545 -0.2652 -0.6345  0.3557
 4416TIP3    H134807   3.070   4.970   2.597  0.2332 -0.7933  0.7222
 4416TIP3    H234808   3.172   4.863   2.564  0.2203 -0.2490 -1.2149
 4417TIP3   OH234809   6.251   4.679   0.841  0.0829 -0.1782  0.4754
 4417TIP3    H134810   6.270   4.613   0.908  0.9908  0.6559  1.0601
 4417TIP3    H234811   6.157   4.696   0.851 -0.0550 -0.9789  0.6726
 4418TIP3   OH234812   3.968   4.514   1.643 -0.6750  0.1880  0.0206
 4418TIP3    H134813   3.988   4.440   1.699  1.4448  0.4032 -0.3565
 4418TIP3    H234814   3.922   4.476   1.568  0.9540 -0.8977 -0.4873
 4419TIP3   OH234815   6.479   1.829   7.630 -0.3856  0.1256 -0.2465
 4419TIP3    H134816   6.410   1.853   7.693 -2.0253  1.7037 -2.4731
 4419TIP3    H234817   6.454   1.743   7.598 -0.8562  0.3217 -0.4128
 4420TIP3   OH234818   0.875   6.726   8.086 -0.2118  0.0581 -0.2121
 4420TIP3    H134819   0.834   6.807   8.055  0.4651  0.4037 -0.2421
 4420TIP3    H234820   0.901   6.681   8.006 -1.0715 -0.4549 -0.2102
 4421TIP3   OH234821   5.057   3.049   0.161  0.0675 -0.1444 -0.1285
 4421TIP3    H134822   5.107   3.032   0.082 -0.3405  0.3059 -0.4886
 4421TIP3    H234823   4.998   2.974   0.170  1.6783 -1.3410  1.0209
 4422TIP3   OH234824   2.482   1.813   7.628 -1.1166 -0.6896  0.6505
 4422TIP3    H134825   2.456   1.902   7.603 -1.0673 -0.6352  0.7913
 4422TIP3    H234826   2.471   1.762   7.548  2.1573  0.1218 -0.4848
 4423TIP3   OH234827   0.305   5.138   0.499 -0.1589 -0.8283  0.3292
 4423TIP3    H134828   0.231   5.084   0.527  0.9857 -1.0263  3.3852
 4423TIP3    H234829   0.379   5.077   0.495  0.1551 -0.3990 -1.4249
 4424TIP3   OH234830   6.093   3.848   8.051  0.2376  0.5932 -0.3235
 4424TIP3    H134831   6.136   3.872   8.132  2.3049  0.6872 -1.3899
 4424TIP3    H234832   6.098   3.752   8.048 -1.3197  0.4425  0.3751
 4425TIP3   OH234833   6.520   4.494   2.472 -0.2008 -0.3777  0.1572
 4425TIP3    H134834   6.540   4.586   2.491 -0.2657 -0.0852 -1.0845
 4425TIP3    H234835   6.459   4.468   2.541 -1.2707  0.9377 -0.2498
 4426TIP3   OH234836   4.579   5.158   7.126  0.1923  0.5373 -0.3806
 4426TIP3    H134837   4.563   5.232   7.067 -0.7223  1.7484  1.2856
 4426TIP3    H234838   4.529   5.179   7.205 -0.1591 -1.9161  0.1411
 4427TIP3   OH234839   1.888   6.553   0.369  0.3113 -0.3790 -0.7410
 4427TIP3    H134840   1.877   6.469   0.414 -0.4067 -0.0409 -0.2586
 4427TIP3    H234841   1.803   6.597   0.379  0.4568  0.1223 -1.5778
 4428TIP3   OH234842   3.927   2.766   1.038  0.4965 -0.2298  0.4050
 4428TIP3    H134843   3.845   2.782   0.991 -0.3132 -0.1528  1.7837
 4428TIP3    H234844   3.913   2.681   1.081  1.8037 -1.0347 -0.6978
 4429TIP3   OH234845   5.900   5.718   1.680 -0.5950 -0.0756 -0.2399
 4429TIP3    H134846   5.837   5.698   1.611 -0.8361  0.6484 -0.2383
 4429TIP3    H234847   5.902   5.814   1.684  0.0885 -0.0950  0.1415
 4430TIP3   OH234848   0.209   1.411   6.905 -0.3175 -0.1720 -0.1329
 4430TIP3    H134849   0.147   1.350   6.866  0.7006 -0.0151 -2.1402
 4430TIP3    H234850   0.160   1.493   6.915 -0.6935 -0.3157 -0.8013
 4431TIP3   OH234851   5.976   1.125   8.531 -0.8826  0.1685  0.8595
 4431TIP3    H134852   5.976   1.038   8.573 -0.0729  0.8695  2.3912
 4431TIP3    H234853   5.963   1.106   8.438 -0.3323 -1.6252  1.1049
 4432TIP3   OH234854   6.566   6.383   8.493 -0.2313 -0.7026  0.0632
 4432TIP3    H134855   6.653   6.396   8.530  0.0679 -1.4287 -0.3700
 4432TIP3    H234856   6.522   6.325   8.556 -0.5357 -0.0307  0.4751
 4433TIP3   OH234857   6.200   0.696   2.396 -0.4852 -0.3647 -0.4917
 4433TIP3    H134858   6.166   0.720   2.310 -1.9284  0.3127  0.2377
 4433TIP3    H234859   6.205   0.779   2.444  1.0476 -0.6261 -0.1551
 4434TIP3   OH234860   0.960   5.827   0.201 -0.1705  0.2842  0.3472
 4434TIP3    H134861   0.989   5.785   0.281  1.2202  2.5240  1.1141
 4434TIP3    H234862   0.974   5.761   0.132  0.6571 -0.9294  1.6282
 4435TIP3   OH234863   1.066   4.253   2.439 -0.1946  0.0697 -0.1666
 4435TIP3    H134864   1.039   4.275   2.529 -3.4053 -2.4771 -0.3401
 4435TIP3    H234865   1.124   4.178   2.449 -0.6437 -0.2861 -0.2099
 4436TIP3   OH234866   1.858   5.819   2.014  0.2124  0.5063  0.0873
 4436TIP3    H134867   1.785   5.781   2.063 -1.6611  1.3526 -1.8896
 4436TIP3    H234868   1.899   5.880   2.075 -0.3169 -0.4466  1.4449
 4437TIP3   OH234869   0.688   2.643   1.106  0.4916 -0.4170  0.5665
 4437TIP3    H134870   0.601   2.605   1.090  1.0610 -1.7993  0.5683
 4437TIP3    H234871   0.711   2.686   1.024 -0.5749  0.8005  0.8758
 4438TIP3   OH234872   6.136   3.013   0.057  0.3517 -0.0969  0.0294
 4438TIP3    H134873   6.136   2.925   0.094 -0.6489 -0.2521 -0.3116
 4438TIP3    H234874   6.121   3.071   0.131  1.9464 -0.1216  0.4076
 4439TIP3   OH234875   3.871   5.284   1.509 -0.2568 -0.0749  0.1507
 4439TIP3    H134876   3.856   5.261   1.600 -0.5032 -0.1044  0.1035
 4439TIP3    H234877   3.831   5.213   1.459 -2.4041  1.1655 -0.0360
 4440TIP3   OH234878   4.814   3.136   8.498 -0.2324  0.1060 -0.1253
 4440TIP3    H134879   4.763   3.215   8.515 -0.0117  0.3894 -0.7487
 4440TIP3    H234880   4.808   3.123   8.404 -0.2942 -0.6460 -0.0257
 4441TIP3   OH234881   1.235   4.333   0.013 -0.4951 -0.3754  0.1052
 4441TIP3    H134882   1.202   4.332   0.103  0.0681 -0.5183  0.3182
 4441TIP3    H234883   1.251   4.425  -0.005 -0.1226 -0.3903  0.3406
 4442TIP3   OH234884   1.404   1.487   0.260  0.1149 -0.1843  0.1531
 4442TIP3    H134885   1.399   1.514   0.351 -1.6612 -0.0322  0.0562
 4442TIP3    H234886   1.319   1.513   0.223 -0.1903 -2.4425 -0.8967
 4443TIP3   OH234887   0.634   4.580   0.766  0.0544  0.2781 -0.6663
 4443TIP3    H134888   0.682   4.605   0.845 -0.8196 -1.5614  0.5012
 4443TIP3    H234889   0.610   4.664   0.725  2.5628  1.2701 -0.3220
 4444TIP3   OH234890   1.456   2.950   8.364 -0.1429  0.3531  0.3364
 4444TIP3    H134891   1.491   3.017   8.422 -0.3365 -0.1838  1.0869
 4444TIP3    H234892   1.458   2.990   8.277  1.8717  0.5226  0.4140
 4445TIP3   OH234893   6.048   1.839   6.786 -0.2878 -0.3471  0.1677
 4445TIP3    H134894   6.025   1.928   6.759  1.3214 -0.0375 -0.2855
 4445TIP3    H234895   6.130   1.820   6.740  0.2537 -1.4541  1.5088
 4446TIP3   OH234896   1.015   4.901   7.645 -0.6550  0.5233 -0.1667
 4446TIP3    H134897   1.053   4.928   7.561 -0.3988  0.2697 -0.1363
 4446TIP3    H234898   1.004   4.983   7.694 -0.1315  0.6012 -0.1736
 4447TIP3   OH234899   2.213   2.078   0.809 -0.5221  0.4514 -0.0950
 4447TIP3    H134900   2.272   2.016   0.852 -0.2186  1.0153  0.3106
 4447TIP3    H234901   2.150   2.022   0.762  0.5447 -0.1555 -0.8408
 4448TIP3   OH234902   3.004   3.115   6.942 -0.0631  0.6972 -0.4932
 4448TIP3    H134903   2.970   3.095   6.855  1.4728 -1.2048 -0.7421
 4448TIP3    H234904   2.986   3.036   6.993  1.2320  0.8085  0.1753
 4449TIP3   OH234905   3.334   4.560   1.632 -0.1065 -0.3754  0.6332
 4449TIP3    H134906   3.264   4.608   1.587 -1.1191  0.4422  2.9644
 4449TIP3    H234907   3.415   4.593   1.591 -0.9047  1.4099  0.3707
 4450TIP3   OH234908   6.710   5.521   8.498 -0.2419  0.1746  0.1885
 4450TIP3    H134909   6.767   5.477   8.562 -1.9792 -0.4262  1.3861
 4450TIP3    H234910   6.686   5.603   8.540 -0.2919  0.4147 -0.3037
 4451TIP3   OH234911   1.907   2.088   0.449  0.2161 -0.1300  0.6836
 4451TIP3    H134912   1.899   2.008   0.398 -0.1886  0.2373  0.1614
 4451TIP3    H234913   1.901   2.159   0.384  0.8884  0.3183  1.0925
 4452TIP3   OH234914   6.587   6.842   8.072 -0.4928  0.4324  0.5115
 4452TIP3    H134915   6.513   6.796   8.032  0.3323  0.1635 -0.7640
 4452TIP3    H234916   6.615   6.904   8.004 -0.3814  1.4690  1.4872
 4453TIP3   OH234917   3.652   3.944   8.327  0.2537  0.1086 -0.0445
 4453TIP3    H134918   3.742   3.932   8.357 -0.2663 -2.5731  0.7258
 4453TIP3    H234919   3.610   3.860   8.344 -2.0653  0.8571 -1.5952
 4454TIP3   OH234920   2.705   4.459   1.299 -0.6116 -0.3035 -0.4064
 4454TIP3    H134921   2.717   4.537   1.353 -1.5748 -0.3093 -0.1657
 4454TIP3    H234922   2.642   4.406   1.348 -0.8621 -0.6856 -1.1304
 4455TIP3   OH234923   2.474   2.131   7.655  0.0879  0.0306  0.1318
 4455TIP3    H134924   2.419   2.115   7.578 -1.3933  2.3477  0.6070
 4455TIP3    H234925   2.549   2.180   7.622 -0.2319  0.4726  0.0461
 4456TIP3   OH234926   2.211   1.034   7.673 -0.1478 -0.2811 -0.0432
 4456TIP3    H134927   2.299   1.071   7.660 -0.1311 -0.2213  0.2408
 4456TIP3    H234928   2.152   1.104   7.646 -0.1277  0.2662  1.2987
 4457TIP3   OH234929   4.861   1.029   1.589 -0.3810  0.0518  0.4893
 4457TIP3    H134930   4.771   1.042   1.558 -0.2547  0.3752  0.2534
 4457TIP3    H234931   4.859   1.057   1.680 -0.7685 -0.9492  0.8085
 4458TIP3   OH234932   4.133   5.442   0.457 -0.5594 -0.2253 -0.2839
 4458TIP3    H134933   4.222   5.475   0.469 -0.7829 -0.3763  2.2756
 4458TIP3    H234934   4.077   5.506   0.501 -1.1979 -2.6338  2.7664
 4459TIP3   OH234935   4.323   1.533   8.136  0.0268 -0.0376  0.5892
 4459TIP3    H134936   4.346   1.626   8.128 -4.6344  1.4679  1.5880
 4459TIP3    H234937   4.303   1.506   8.046 -0.7453  0.6391  0.5478
 4460TIP3   OH234938   5.437   6.524   1.339  0.2937  0.5810  0.6442
 4460TIP3    H134939   5.373   6.457   1.361 -0.0855  1.5103  2.6167
 4460TIP3    H234940   5.492   6.485   1.271 -1.9268 -0.4898 -0.6154
 4461TIP3   OH234941   0.663   5.892   0.091  0.6626 -0.2146  0.4012
 4461TIP3    H134942   0.739   5.886   0.033  0.7115  1.3534  0.2368
 4461TIP3    H234943   0.678   5.972   0.142 -0.3140 -0.5151  1.2028
 4462TIP3   OH234944   3.204   5.967   1.249 -0.3925 -0.5299  0.1651
 4462TIP3    H134945   3.182   5.878   1.221  0.1545 -0.8375  0.6924
 4462TIP3    H234946   3.189   5.968   1.343 -3.1667  0.7779 -0.1951
 4463TIP3   OH234947   1.056   3.706   1.242 -0.1382 -0.1325  0.2646
 4463TIP3    H134948   1.089   3.791   1.272 -0.0238 -0.1554  0.2075
 4463TIP3    H234949   0.990   3.728   1.176  1.9980 -0.0627 -2.0158
 4464TIP3   OH234950   3.040   2.716   2.394  0.0965 -0.3136  0.4061
 4464TIP3    H134951   2.961   2.770   2.396  1.1267  1.2536  0.4158
 4464TIP3    H234952   3.064   2.704   2.486  1.0474  1.0722  0.3727
 4465TIP3   OH234953   5.353   1.773   8.623 -0.7835  0.1935  0.2747
 4465TIP3    H134954   5.387   1.801   8.708  1.0413 -1.7169  0.2526
 4465TIP3    H234955   5.389   1.835   8.560  0.5859 -0.3007  0.5551
 4466TIP3   OH234956   5.449   5.173   7.156 -0.1414  0.5330  0.3504
 4466TIP3    H134957   5.371   5.221   7.128  0.4838  0.7300 -1.1022
 4466TIP3    H234958   5.441   5.087   7.114  1.1258  1.0529 -0.9879
 4467TIP3   OH234959   1.322   5.695   7.630 -0.0112 -0.1738  0.1121
 4467TIP3    H134960   1.270   5.650   7.563  1.3418  1.4362 -2.2073
 4467TIP3    H234961   1.265   5.766   7.660 -0.1332 -0.0259 -0.4472
 4468TIP3   OH234962   4.124   1.096   1.728 -0.1842  0.4526  0.0757
 4468TIP3    H134963   4.103   1.110   1.820 -0.2470  2.1249 -0.1569
 4468TIP3    H234964   4.048   1.129   1.681 -0.4278 -0.9754 -0.5889
 4469TIP3   OH234965   4.911   6.075   8.666  0.1310 -0.8898  0.0974
 4469TIP3    H134966   4.995   6.122   8.665  1.7288 -3.5283  0.6627
 4469TIP3    H234967   4.870   6.098   8.583  1.8836 -0.3110 -0.6562
 4470TIP3   OH234968   6.724   5.347   0.909 -0.6718 -0.3368  0.1279
 4470TIP3    H134969   6.819   5.336   0.899 -0.5449  0.3147  0.5497
 4470TIP3    H234970   6.712   5.362   1.003 -1.1540 -0.0859  0.0269
 4471TIP3   OH234971   6.267   2.417   1.490 -0.0511  0.1951 -0.0103
 4471TIP3    H134972   6.344   2.419   1.432  0.2761 -2.2430  0.2055
 4471TIP3    H234973   6.193   2.426   1.431  0.3561  0.5647 -0.4769
 4472TIP3   OH234974   5.528   2.646   0.885 -0.0660 -0.1267 -0.1680
 4472TIP3    H134975   5.481   2.721   0.922 -1.1278 -0.2184 -1.2947
 4472TIP3    H234976   5.536   2.665   0.792  1.7746 -0.3291 -0.0997
 4473TIP3   OH234977   3.388   2.429   2.654 -0.8245 -0.2032  0.1532
 4473TIP3    H134978   3.313   2.473   2.694 -0.2140 -1.0134  2.3215
 4473TIP3    H234979   3.359   2.339   2.640 -0.3177 -0.4842  0.8732
 4474TIP3   OH234980   5.881   1.095   8.248 -0.1495  0.1244 -0.1220
 4474TIP3    H134981   5.815   1.159   8.273 -0.8099 -0.4585 -0.3526
 4474TIP3    H234982   5.831   1.016   8.226  0.5832 -0.1764 -0.7624
 4475TIP3   OH234983   0.776   3.874   2.308  0.2125  0.4891  0.5137
 4475TIP3    H134984   0.751   3.952   2.259 -0.4770  0.9592  1.5665
 4475TIP3    H234985   0.713   3.870   2.380  1.0337 -0.3116  1.2148
 4476TIP3   OH234986   3.922   3.626   1.138 -0.3142 -0.0127 -0.5280
 4476TIP3    H134987   3.980   3.701   1.154 -0.6672 -0.0537  1.0548
 4476TIP3    H234988   3.835   3.658   1.162 -0.2505 -1.3876  1.7867
 4477TIP3   OH234989   6.429   5.643   0.025  0.5965 -0.4643  0.3814
 4477TIP3    H134990   6.425   5.690   0.109 -2.8976 -1.2622  0.8174
 4477TIP3    H234991   6.450   5.552   0.050  1.0648 -0.4007  0.2216
 4478TIP3   OH234992   1.951   1.859   0.288  0.3010 -0.7641 -0.1519
 4478TIP3    H134993   1.967   1.906   0.207 -0.7512  0.1439  0.1504
 4478TIP3    H234994   1.872   1.807   0.270 -0.2632 -0.1379  0.4397
 4479TIP3   OH234995   3.042   4.514   7.712 -0.3833 -0.2773  0.2810
 4479TIP3    H134996   3.060   4.496   7.804 -0.0846 -0.6781  0.1477
 4479TIP3    H234997   2.953   4.550   7.711 -0.4418 -0.4097  0.7063
 4480TIP3   OH234998   5.304   5.522   2.030 -0.1618 -0.1503 -0.5498
 4480TIP3    H134999   5.296   5.433   1.994 -1.8357 -0.0958 -0.3858
 4480TIP3    H235000   5.216   5.558   2.024  0.7545  2.0297 -1.8891
 4481TIP3   OH235001   2.485   1.352   1.531  0.4473 -0.2956  0.0454
 4481TIP3    H135002   2.505   1.258   1.521  1.7436  0.1237 -1.7349
 4481TIP3    H235003   2.492   1.368   1.625 -2.7381 -2.5665  0.8354
 4482TIP3   OH235004   3.910   0.485   2.101 -0.1644 -0.1931 -0.2899
 4482TIP3    H135005   3.921   0.580   2.101  0.0455 -0.1328 -3.3179
 4482TIP3    H235006   3.959   0.456   2.177  1.7308  1.9612 -0.5815
 4483TIP3   OH235007   4.501   0.437   1.286 -0.0604  0.6630  0.1263
 4483TIP3    H135008   4.526   0.468   1.373  1.6416 -1.7935  0.6070
 4483TIP3    H235009   4.424   0.382   1.302  0.0553  0.4724  0.0221
 4484TIP3   OH235010   0.919   6.103   0.786 -0.0266 -0.9682  0.2354
 4484TIP3    H135011   0.936   6.193   0.811  0.4573 -1.0403  0.1871
 4484TIP3    H235012   0.836   6.106   0.739  0.2981 -0.4474 -0.3202
 4485TIP3   OH235013   2.189   3.327   1.919 -0.1073  0.1395  0.1637
 4485TIP3    H135014   2.139   3.299   1.995 -2.3328  0.4558 -1.0860
 4485TIP3    H235015   2.280   3.311   1.942 -0.6131  1.1042  3.2453
 4486TIP3   OH235016   4.138   3.620   7.990 -0.3739  0.6398 -0.0329
 4486TIP3    H135017   4.134   3.672   7.909  0.0348 -1.2462 -1.3320
 4486TIP3    H235018   4.054   3.575   7.994 -0.0765  0.0868  0.1291
 4487TIP3   OH235019   2.535   4.507   8.323 -0.0976 -0.0764 -0.0067
 4487TIP3    H135020   2.525   4.412   8.329 -0.9597  0.0085 -0.0423
 4487TIP3    H235021   2.531   4.537   8.414 -0.6160  0.0010 -0.0540
 4488TIP3   OH235022   4.934   6.800   7.920 -0.2207  0.2001  0.7745
 4488TIP3    H135023   4.908   6.851   7.997  0.8014  0.9680  0.6470
 4488TIP3    H235024   4.993   6.858   7.872  1.5377 -1.3108  0.9624
 4489TIP3   OH235025   3.592   3.122   2.866 -0.0754  0.2676 -0.2544
 4489TIP3    H135026   3.662   3.142   2.927  1.3915 -0.7283 -1.5304
 4489TIP3    H235027   3.566   3.207   2.830 -1.4118  0.9588  2.1036
 4490TIP3   OH235028   0.316   6.514   1.187 -0.9587 -0.4495  0.1525
 4490TIP3    H135029   0.344   6.524   1.096 -2.2778 -1.6302 -0.4103
 4490TIP3    H235030   0.381   6.456   1.227  0.2150  0.9024  0.2880
 4491TIP3   OH235031   3.125   1.905   1.331 -0.0987 -0.7051 -0.1157
 4491TIP3    H135032   3.202   1.881   1.280 -0.4055 -3.1309  0.4623
 4491TIP3    H235033   3.051   1.887   1.272 -0.3223  1.4537 -0.6114
 4492TIP3   OH235034   4.098   1.550   7.895 -0.0224  0.2787  0.6169
 4492TIP3    H135035   4.026   1.550   7.833  1.0382 -0.7787 -0.6787
 4492TIP3    H235036   4.106   1.459   7.923  0.8730  0.3612  0.6666
 4493TIP3   OH235037   4.702   1.474   7.263 -0.1169 -0.2376 -0.3681
 4493TIP3    H135038   4.754   1.394   7.255 -0.2985 -0.7711  2.5986
 4493TIP3    H235039   4.763   1.545   7.241  0.9792 -1.0363  0.0102
 4494TIP3   OH235040   6.829   4.400   1.200  0.5198  0.5724 -0.0293
 4494TIP3    H135041   6.843   4.433   1.288  2.2124 -0.5046  0.1435
 4494TIP3    H235042   6.895   4.444   1.147  1.5032 -0.9963 -0.1581
 4495TIP3   OH235043   6.777   0.772   7.041 -0.6924 -0.4677  0.6791
 4495TIP3    H135044   6.830   0.840   7.000 -0.2938 -0.5167  1.0951
 4495TIP3    H235045   6.748   0.717   6.969 -2.9917  1.4343  0.0006
 4496TIP3   OH235046   6.253   1.636   1.494  0.2285 -0.3360  0.1401
 4496TIP3    H135047   6.299   1.651   1.411  0.6933 -0.7250  0.3244
 4496TIP3    H235048   6.314   1.667   1.561 -0.0586 -0.2239  0.3513
 4497TIP3   OH235049   0.929   1.831   8.555 -0.1034 -0.4041 -0.3580
 4497TIP3    H135050   1.023   1.823   8.574 -0.3883 -2.2302  0.4907
 4497TIP3    H235051   0.926   1.866   8.466  1.4226 -1.5586 -0.9116
 4498TIP3   OH235052   3.723   2.755   2.119 -0.1732 -0.0466  0.2066
 4498TIP3    H135053   3.726   2.664   2.151  1.2417  0.0523  0.4055
 4498TIP3    H235054   3.648   2.793   2.165  0.0650 -0.7302  1.2117
 4499TIP3   OH235055   1.541   3.545   1.323  0.2970 -0.2831 -0.4493
 4499TIP3    H135056   1.449   3.558   1.297  0.2216  0.6059  0.2252
 4499TIP3    H235057   1.590   3.553   1.241 -0.2854 -1.6145 -0.9576
 4500TIP3   OH235058   5.476   6.669   7.820 -0.1625 -0.3105 -0.1517
 4500TIP3    H135059   5.556   6.631   7.855 -0.2668  0.1707  0.6408
 4500TIP3    H235060   5.432   6.707   7.897 -0.2510  1.0484 -0.8444
 4501TIP3   OH235061   4.347   4.918   8.726 -0.2268  0.0317  0.0016
 4501TIP3    H135062   4.414   4.982   8.751  0.8212 -0.9465 -0.2265
 4501TIP3    H235063   4.314   4.950   8.642  0.6005  0.0589 -0.3246
 4502TIP3   OH235064   5.623   0.425   6.583 -0.0326 -1.0310  0.3348
 4502TIP3    H135065   5.654   0.335   6.593 -2.1676 -1.6922  1.6260
 4502TIP3    H235066   5.568   0.441   6.660 -0.6326  0.9859 -0.4340
 4503TIP3   OH235067   6.414   0.244   0.542  0.2306  0.2726 -0.1737
 4503TIP3    H135068   6.363   0.297   0.481 -0.5901 -0.3704 -0.0630
 4503TIP3    H235069   6.444   0.306   0.609 -1.0610  0.5401  0.1786
 4504TIP3   OH235070   5.186   0.982   7.398 -0.0216 -0.2590 -0.0813
 4504TIP3    H135071   5.128   0.913   7.430  1.1136 -1.3940 -0.4094
 4504TIP3    H235072   5.126   1.051   7.368 -1.2062 -1.5187 -0.7155
 4505TIP3   OH235073   1.734   0.738   1.133 -0.4621 -0.3291 -0.0436
 4505TIP3    H135074   1.695   0.820   1.164  0.8618  1.2157 -2.1855
 4505TIP3    H235075   1.819   0.765   1.097 -0.7897 -2.3197 -2.5511
 4506TIP3   OH235076   4.161   2.514   2.715  0.1375 -0.3697  0.3319
 4506TIP3    H135077   4.170   2.426   2.678  0.6384 -0.2082  0.0661
 4506TIP3    H235078   4.067   2.532   2.710  0.1614 -0.4546 -0.6459
 4507TIP3   OH235079   3.265   0.362   1.185  0.0349 -0.0176  0.2409
 4507TIP3    H135080   3.356   0.346   1.208 -0.4170 -1.9591  0.8684
 4507TIP3    H235081   3.265   0.449   1.144  2.0209  0.3473  0.9272
 4508TIP3   OH235082   6.148   1.492   1.767  0.3090  0.2157  0.1358
 4508TIP3    H135083   6.142   1.413   1.713 -1.6749  0.6091 -0.3046
 4508TIP3    H235084   6.223   1.477   1.824  1.9721 -0.6157 -2.0923
 4509TIP3   OH235085   2.279   0.828   7.883 -0.3626  0.1309  0.0621
 4509TIP3    H135086   2.287   0.850   7.976  2.2533 -2.4926  0.6361
 4509TIP3    H235087   2.335   0.892   7.838 -1.0560  0.9545  0.3432
 4510TIP3   OH235088   5.254   5.278   1.500  0.0791 -0.7360  0.2351
 4510TIP3    H135089   5.212   5.348   1.451 -0.1947 -0.7791  0.4055
 4510TIP3    H235090   5.189   5.252   1.566  1.1424  0.6778  1.9475
 4511TIP3   OH235091   5.207   1.608   8.285  0.1124  0.0332 -0.2004
 4511TIP3    H135092   5.208   1.578   8.376 -0.7350 -0.1064 -0.2205
 4511TIP3    H235093   5.299   1.621   8.262  0.3373  0.0002  0.6509
 4512TIP3   OH235094   0.164   1.028   7.696  0.4854  0.4854  0.5437
 4512TIP3    H135095   0.087   1.078   7.671  1.9363  2.5920 -0.0340
 4512TIP3    H235096   0.164   1.031   7.792 -1.7538 -2.2579  0.7388
 4513TIP3   OH235097   0.291   2.593   7.138  0.1154 -0.7349  0.7364
 4513TIP3    H135098   0.298   2.631   7.050  1.2978  1.2499  1.6207
 4513TIP3    H235099   0.247   2.660   7.190 -0.3918 -1.8015  1.7260
 4514TIP3   OH235100   3.227   3.468   8.149  0.6558 -0.1955 -0.1696
 4514TIP3    H135101   3.309   3.473   8.197  0.1530 -0.1608  0.7245
 4514TIP3    H235102   3.248   3.497   8.061  1.5996 -0.2065  0.0436
 4515TIP3   OH235103   3.835   2.980   2.030  0.3280  0.0571  0.0365
 4515TIP3    H135104   3.782   2.996   1.952 -1.4484 -0.3944  1.0882
 4515TIP3    H235105   3.815   2.889   2.054  0.5964  0.2877  1.1870
 4516TIP3   OH235106   1.641   5.492   7.985  0.0400  0.5199 -0.1895
 4516TIP3    H135107   1.610   5.519   8.072 -0.1831  1.4996 -0.5557
 4516TIP3    H235108   1.560   5.476   7.936  0.1518  0.7873 -0.4604
 4517TIP3   OH235109   2.563   3.673   8.316  0.8362 -0.4019  0.1542
 4517TIP3    H135110   2.561   3.612   8.242  0.2441  0.4318 -0.5369
 4517TIP3    H235111   2.568   3.759   8.275  3.6052 -0.0138  1.1276
 4518TIP3   OH235112   0.732   4.200   7.531  0.5293 -0.0899 -0.4177
 4518TIP3    H135113   0.687   4.275   7.493 -0.7892 -0.2269  0.7649
 4518TIP3    H235114   0.666   4.131   7.533  1.2441 -0.7772 -0.0101
 4519TIP3   OH235115   0.642   5.585   7.052 -0.1002  0.0275  0.3220
 4519TIP3    H135116   0.567   5.549   7.005 -0.6331  3.3967 -1.7142
 4519TIP3    H235117   0.700   5.620   6.984  1.9733  0.0170  1.9687
 4520TIP3   OH235118   3.270   5.211   1.284 -0.1945  0.4287  0.6378
 4520TIP3    H135119   3.193   5.260   1.254 -0.2355  0.2522  0.4483
 4520TIP3    H235120   3.338   5.277   1.296 -0.1967  0.5118  0.2121
 4521TIP3   OH235121   5.492   4.401   7.661 -0.3134 -0.1470  0.5872
 4521TIP3    H135122   5.585   4.393   7.639 -0.7513  0.7410 -1.9014
 4521TIP3    H235123   5.487   4.482   7.712 -0.0619  1.6794 -2.0984
 4522TIP3   OH235124   2.922   1.565   0.641  0.6058 -0.3634  1.3068
 4522TIP3    H135125   3.010   1.539   0.615  0.3832  2.3153 -3.0927
 4522TIP3    H235126   2.933   1.651   0.682  0.0588  0.9225 -1.0543
 4523TIP3   OH235127   4.446   0.654   8.309  0.4725 -0.0728  0.3767
 4523TIP3    H135128   4.423   0.711   8.235 -0.2446  1.0254  1.3959
 4523TIP3    H235129   4.456   0.567   8.270  0.1082  0.4623 -1.0021
 4524TIP3   OH235130   4.124   6.141   0.679 -0.3392  0.0027  0.3194
 4524TIP3    H135131   4.154   6.223   0.719  0.0939  0.1185 -0.2205
 4524TIP3    H235132   4.047   6.166   0.628  0.6765  0.4141 -1.1094
 4525TIP3   OH235133   3.322   4.640   2.183 -0.3782 -0.0785 -0.3665
 4525TIP3    H135134   3.283   4.680   2.261  1.5432 -0.4852  0.8415
 4525TIP3    H235135   3.306   4.546   2.194  0.2358 -0.1706 -0.2682
 4526TIP3   OH235136   5.017   1.416   0.521  0.3077  0.3226 -0.1524
 4526TIP3    H135137   4.948   1.438   0.583  1.3852  0.2661  1.1069
 4526TIP3    H235138   5.013   1.321   0.512 -0.4520  0.4151 -0.9208
 4527TIP3   OH235139   4.401   1.433   1.272  0.4165 -0.1546  0.3778
 4527TIP3    H135140   4.411   1.471   1.359 -0.1803 -0.2618  0.4957
 4527TIP3    H235141   4.423   1.341   1.284  0.3435 -0.1676  0.4139
 4528TIP3   OH235142   1.041   0.158   7.709  0.0841  0.2753  0.2473
 4528TIP3    H135143   1.019   0.211   7.786  1.8962  0.2671  0.8259
 4528TIP3    H235144   0.958   0.119   7.682 -0.7331  0.8953  1.7360
 4529TIP3   OH235145   1.363   0.267   0.538 -0.4079 -0.2757  0.2971
 4529TIP3    H135146   1.325   0.211   0.605  1.4480 -1.4370  0.4252
 4529TIP3    H235147   1.287   0.306   0.494 -1.7003  0.6680  3.1083
 4530TIP3   OH235148   3.088   4.990   8.541  0.0035 -0.3213  0.0332
 4530TIP3    H135149   3.066   5.050   8.613  2.1625  0.1869  0.3270
 4530TIP3    H235150   3.148   4.927   8.580  1.3823  0.0781 -1.3267
 4531TIP3   OH235151   0.742   6.240   0.464  0.0225  0.2675  0.2523
 4531TIP3    H135152   0.662   6.238   0.411  1.1374  0.7741 -1.5248
 4531TIP3    H235153   0.733   6.319   0.517 -0.0714  1.0850 -0.9415
 4532TIP3   OH235154   3.820   4.285   0.850  0.4362  0.1909 -0.6449
 4532TIP3    H135155   3.878   4.361   0.855  0.9817 -0.2712  3.2802
 4532TIP3    H235156   3.732   4.322   0.855  0.6618  0.6525  0.1423
 4533TIP3   OH235157   3.522   3.187   8.019 -0.0652 -0.0619  0.0155
 4533TIP3    H135158   3.518   3.249   8.092  1.4577  0.2470 -0.1139
 4533TIP3    H235159   3.480   3.108   8.051  0.0829  0.2645  1.0402
 4534TIP3   OH235160   3.240   1.119   8.672  0.0085  0.5235  0.4450
 4534TIP3    H135161   3.211   1.038   8.629 -2.1092  0.4911  1.7805
 4534TIP3    H235162   3.234   1.099   8.765 -0.2471  2.1129  0.7893
 4535TIP3   OH235163   1.882   2.821   1.358  0.3752  0.0418 -0.2145
 4535TIP3    H135164   1.921   2.766   1.290 -1.4204 -2.3542  0.5613
 4535TIP3    H235165   1.953   2.836   1.420  1.2829 -0.1609 -1.1778
 4536TIP3   OH235166   4.707   4.554   7.943  0.3506 -0.4647 -0.0577
 4536TIP3    H135167   4.740   4.504   7.868 -0.0570 -0.1548 -0.4459
 4536TIP3    H235168   4.680   4.638   7.906 -0.3469 -0.5061  0.3514
 4537TIP3   OH235169   0.172   1.200   0.352  0.4513  0.0145  0.3846
 4537TIP3    H135170   0.121   1.255   0.411  1.0188  0.3581  0.5618
 4537TIP3    H235171   0.182   1.117   0.399  1.2152  0.4093  0.9440
 4538TIP3   OH235172   6.434   4.964   1.365  0.2294 -0.0770 -0.4690
 4538TIP3    H135173   6.442   5.016   1.285  0.6615  0.3039 -0.1882
 4538TIP3    H235174   6.475   4.880   1.344  1.3913  0.4227 -0.3121
 4539TIP3   OH235175   2.496   5.918   0.997 -0.1840 -0.3673  0.0082
 4539TIP3    H135176   2.587   5.935   1.024 -0.1937  0.0586 -0.2115
 4539TIP3    H235177   2.446   5.990   1.034 -0.4496 -0.6435  0.1942
 4540TIP3   OH235178   5.807   3.014   0.238  0.0478  0.4484 -0.0245
 4540TIP3    H135179   5.779   3.032   0.149 -0.6280  1.9030  0.4661
 4540TIP3    H235180   5.786   3.093   0.287  2.0953  0.3946  1.0533
 4541TIP3   OH235181   0.462   5.255   7.890  0.0948  0.4117 -0.0265
 4541TIP3    H135182   0.468   5.238   7.984 -0.4967 -1.5605 -0.3003
 4541TIP3    H235183   0.370   5.276   7.876  0.4119  1.8832 -0.0171
 4542TIP3   OH235184   3.188   2.039   2.659 -0.2919 -0.3534 -0.0996
 4542TIP3    H135185   3.192   2.050   2.754 -0.7073  0.7899 -0.2035
 4542TIP3    H235186   3.270   2.076   2.627  0.2097 -1.4523 -0.1476
 4543TIP3   OH235187   0.548   2.496   0.213 -0.0589  0.5188  0.6845
 4543TIP3    H135188   0.575   2.418   0.261  1.9334  1.4568  1.1540
 4543TIP3    H235189   0.561   2.473   0.121  0.1302  0.1637  0.7972
 4544TIP3   OH235190   2.547   4.952   0.200  0.2869 -0.1124 -0.0479
 4544TIP3    H135191   2.548   4.967   0.105 -1.3476 -0.3730 -0.1415
 4544TIP3    H235192   2.476   4.890   0.213  0.1270  0.3502  1.4126
 4545TIP3   OH235193   2.167   2.300   7.438 -0.2126  0.0274 -0.1531
 4545TIP3    H135194   2.224   2.302   7.361 -1.5328 -0.1013 -1.1658
 4545TIP3    H235195   2.218   2.344   7.506  0.6637  0.9019 -1.3238
 4546TIP3   OH235196   6.791   3.912   6.749 -0.5209  0.4325 -0.6549
 4546TIP3    H135197   6.758   3.883   6.663  0.0946  2.4857 -1.6376
 4546TIP3    H235198   6.719   3.960   6.788 -0.5460  0.1374 -0.3312
 4547TIP3   OH235199   6.452   4.849   7.728  0.2936 -0.2142  0.1513
 4547TIP3    H135200   6.388   4.782   7.750  1.4968 -0.9253  1.7026
 4547TIP3    H235201   6.420   4.929   7.770 -1.1070  0.2383 -1.6429
 4548TIP3   OH235202   6.194   0.830   1.727 -0.4139  0.4238 -0.0709
 4548TIP3    H135203   6.277   0.840   1.775 -0.7546  0.2275  0.5736
 4548TIP3    H235204   6.131   0.881   1.777 -0.6829  0.5882 -0.5691
 4549TIP3   OH235205   1.956   2.173   8.718  0.0987  0.2586  0.2901
 4549TIP3    H135206   1.940   2.172   8.812  0.2493 -0.3098  0.3107
 4549TIP3    H235207   1.881   2.126   8.680  0.6384 -0.5614  0.2243
 4550TIP3   OH235208   1.197   6.078   7.943  0.4566 -0.1577  0.4746
 4550TIP3    H135209   1.260   6.008   7.960  1.2887  0.2489 -0.7721
 4550TIP3    H235210   1.138   6.041   7.877  0.8159  0.2505 -0.0848
 4551TIP3   OH235211   1.609   0.606   2.715 -0.1309  0.5403 -0.2785
 4551TIP3    H135212   1.638   0.671   2.779  1.4638  0.0645 -0.4663
 4551TIP3    H235213   1.689   0.556   2.693 -0.5309  0.8800 -2.8596
 4552TIP3   OH235214   4.212   2.797   1.708 -0.0949  0.1214  0.1470
 4552TIP3    H135215   4.162   2.724   1.745 -0.9175  0.1346 -0.8985
 4552TIP3    H235216   4.151   2.871   1.710  0.2593  0.4249 -0.1049
 4553TIP3   OH235217   0.584   0.534   8.754  0.3651 -0.1521 -0.0230
 4553TIP3    H135218   0.604   0.562   8.665  0.1160 -0.4433 -0.1699
 4553TIP3    H235219   0.504   0.482   8.746  0.9759 -1.1593  0.2048
 4554TIP3   OH235220   2.113   6.526   2.382  0.4698 -0.0258  0.4389
 4554TIP3    H135221   2.055   6.473   2.437  0.2459  0.5310  0.7479
 4554TIP3    H235222   2.058   6.550   2.307  1.0910 -1.6885 -0.6031
 4555TIP3   OH235223   4.246   6.595   7.809  0.6054 -0.2342  0.7527
 4555TIP3    H135224   4.235   6.565   7.900 -0.0378  2.1752  1.5331
 4555TIP3    H235225   4.158   6.618   7.780  0.5870 -2.2192 -1.0359
 4556TIP3   OH235226   0.146   6.213   0.125 -0.0286 -0.0730 -0.4174
 4556TIP3    H135227   0.171   6.289   0.177  0.2702 -0.3519 -0.1480
 4556TIP3    H235228   0.193   6.224   0.042  0.0457  0.0164 -0.3640
 4557TIP3   OH235229   4.328   2.623   8.302  0.0848 -0.1232 -0.1055
 4557TIP3    H135230   4.376   2.703   8.283 -0.4030 -0.0560 -1.1209
 4557TIP3    H235231   4.240   2.654   8.327  0.2876 -0.2849  0.8423
 4558TIP3   OH235232   5.739   5.373   2.038  0.3429  0.3284  0.0161
 4558TIP3    H135233   5.824   5.373   1.994  0.0471 -0.3168 -0.5657
 4558TIP3    H235234   5.745   5.302   2.102  0.0737 -0.0534 -0.3738
 4559TIP3   OH235235   1.491   3.131   6.663 -0.3698 -0.0730 -0.0386
 4559TIP3    H135236   1.399   3.122   6.689  0.0253 -1.4709  1.0354
 4559TIP3    H235237   1.507   3.225   6.663 -1.3564  0.1344  1.4578
 4560TIP3   OH235238   2.671   2.039   2.217  0.1103 -0.0481 -0.1746
 4560TIP3    H135239   2.583   2.031   2.255  0.5177 -0.4975  0.6905
 4560TIP3    H235240   2.712   2.109   2.267  0.5908 -0.5250  0.1057
 4561TIP3   OH235241   4.382   1.028   1.674 -0.4797 -0.2794  0.3577
 4561TIP3    H135242   4.287   1.027   1.685 -0.4085  0.0959  1.0566
 4561TIP3    H235243   4.407   1.120   1.679 -0.2610 -0.1801 -1.6831
 4562TIP3   OH235244   5.923   0.207   7.882  0.0143  0.0763 -0.2121
 4562TIP3    H135245   5.909   0.289   7.834 -2.3974 -0.3721 -0.3817
 4562TIP3    H235246   5.848   0.200   7.941  0.5665 -1.6317  0.3540
 4563TIP3   OH235247   6.743   6.409   8.733  0.5769 -0.1745 -0.5312
 4563TIP3    H135248   6.684   6.473   8.772  2.9790  1.3320  0.8747
 4563TIP3    H235249   6.732   6.331   8.787 -0.8415 -0.2846 -0.9401
 4564TIP3   OH235250   5.907   2.955   6.905 -0.0381 -0.6909  0.6833
 4564TIP3    H135251   5.850   2.920   6.974  1.3074  0.4554  2.4668
 4564TIP3    H235252   5.877   3.046   6.894 -0.4096 -0.9357 -0.4767
 4565TIP3   OH235253   4.728   0.350   0.298 -0.9053  0.2983 -0.6489
 4565TIP3    H135254   4.770   0.350   0.212  0.2486 -0.6335 -0.1161
 4565TIP3    H235255   4.774   0.281   0.346  0.7912  2.9413  1.8286
 4566TIP3   OH235256   1.428   2.592   7.717  0.6808  0.5520  0.5130
 4566TIP3    H135257   1.401   2.622   7.630 -3.1798 -0.3996  1.2189
 4566TIP3    H235258   1.467   2.506   7.702  0.4203  0.5720 -0.2962
 4567TIP3   OH235259   6.677   2.565   7.372  0.2035  0.3429  0.1578
 4567TIP3    H135260   6.680   2.536   7.281 -0.2535  0.1816  0.1882
 4567TIP3    H235261   6.710   2.490   7.422 -1.6115 -0.4408  0.2931
 4568TIP3   OH235262   3.003   0.718   6.837 -0.3640  0.1971 -0.7952
 4568TIP3    H135263   3.095   0.696   6.851 -0.6624 -0.4749  0.2058
 4568TIP3    H235264   2.960   0.633   6.825 -0.8098  0.5234 -1.5950
 4569TIP3   OH235265   4.468   5.482   8.221  0.0867  0.7668 -0.2849
 4569TIP3    H135266   4.511   5.568   8.217  0.7462  0.5000  0.8400
 4569TIP3    H235267   4.521   5.431   8.281 -0.9831 -0.0592 -0.0147
 4570TIP3   OH235268   3.509   2.007   8.189 -0.1027 -0.0918 -0.3094
 4570TIP3    H135269   3.506   1.928   8.243 -0.2734  0.3999  0.4139
 4570TIP3    H235270   3.461   2.072   8.240  0.9771  0.7831 -0.3695
 4571TIP3   OH235271   0.123   6.092   8.095 -0.3787  0.4275 -0.5115
 4571TIP3    H135272   0.062   6.022   8.073 -1.2139 -0.2604  3.2741
 4571TIP3    H235273   0.068   6.168   8.112 -0.1122  0.2572  1.3213
 4572TIP3   OH235274   5.338   6.654   1.613  0.3017 -0.3312  0.0408
 4572TIP3    H135275   5.278   6.723   1.640  1.2875  0.4305  0.3304
 4572TIP3    H235276   5.301   6.622   1.531 -0.8533 -0.3399  0.5311
 4573TIP3   OH235277   5.166   2.872   7.317 -0.2030  0.2740  0.0799
 4573TIP3    H135278   5.082   2.910   7.346 -1.6360 -2.7748  0.2935
 4573TIP3    H235279   5.203   2.833   7.395  0.9973  0.7446 -0.2266
 4574TIP3   OH235280   0.069   4.870   8.052 -0.0122  1.0030  0.2647
 4574TIP3    H135281   0.002   4.887   7.987  0.6027  2.1453 -0.1000
 4574TIP3    H235282   0.137   4.823   8.005 -0.5770 -0.2330  0.6551
 4575TIP3   OH235283   2.621   2.102   0.975  0.3049 -0.6848  0.1797
 4575TIP3    H135284   2.622   2.028   1.036 -4.1725 -0.4445  0.9079
 4575TIP3    H235285   2.540   2.148   0.996  1.2136  2.4882 -2.5454
 4576TIP3   OH235286   5.629   3.589   0.655 -0.4612  0.0038  0.9048
 4576TIP3    H135287   5.657   3.638   0.732 -2.4176 -0.0231  1.6845
 4576TIP3    H235288   5.697   3.522   0.643  1.6633  2.0947  0.5102
 4577TIP3   OH235289   2.063   1.596   8.327  0.1446  0.5374 -0.8881
 4577TIP3    H135290   2.015   1.513   8.336  0.1050  0.6690  0.2222
 4577TIP3    H235291   2.093   1.596   8.236  0.2582 -0.7606 -0.8737
 4578TIP3   OH235292   0.801   5.964   8.224  0.3843 -0.1267 -0.4270
 4578TIP3    H135293   0.890   5.985   8.253 -0.4227  1.7959  0.9347
 4578TIP3    H235294   0.796   5.868   8.229  3.2991 -0.6177 -3.6429
 4579TIP3   OH235295   6.391   0.793   1.017  0.0209  0.2252  0.0515
 4579TIP3    H135296   6.407   0.719   0.960 -0.1150 -0.6911  1.1576
 4579TIP3    H235297   6.299   0.785   1.042 -0.1536  1.1060 -0.2754
 4580TIP3   OH235298   4.336   2.115   8.117  0.5532  0.5268 -0.5102
 4580TIP3    H135299   4.410   2.120   8.178 -0.0781  1.0633  0.2299
 4580TIP3    H235300   4.258   2.113   8.173  0.0145 -2.7808 -1.1458
 4581TIP3   OH235301   4.206   4.665   7.113 -0.0198 -0.0175 -0.0577
 4581TIP3    H135302   4.200   4.759   7.096  2.5609  0.2095 -0.2228
 4581TIP3    H235303   4.185   4.656   7.205 -1.4617  0.5389 -0.3128
 4582TIP3   OH235304   5.113   0.136   0.627 -0.2186  0.1499 -0.1909
 4582TIP3    H135305   5.198   0.114   0.667 -0.5715  1.0579  1.1097
 4582TIP3    H235306   5.048   0.106   0.691 -0.8141  1.2042 -0.2811
 4583TIP3   OH235307   1.735   3.322   0.805  0.6251 -0.4215 -0.5114
 4583TIP3    H135308   1.653   3.364   0.830  0.8922 -0.2447  0.1018
 4583TIP3    H235309   1.798   3.352   0.871  1.5993  0.8527 -1.9374
 4584TIP3   OH235310   0.545   1.293   2.206  0.2451  0.5509  0.1166
 4584TIP3    H135311   0.608   1.266   2.273 -0.3594  1.8139  1.2541
 4584TIP3    H235312   0.467   1.241   2.224  0.6323 -0.3390 -0.7049
 4585TIP3   OH235313   0.654   3.127   1.016 -0.0961  0.6804  0.1267
 4585TIP3    H135314   0.692   3.057   1.070 -2.4020  0.8373  2.1145
 4585TIP3    H235315   0.703   3.205   1.039 -0.5950  0.6015  1.5461
 4586TIP3   OH235316   2.632   2.502   0.402  0.3510 -0.1165 -0.5035
 4586TIP3    H135317   2.665   2.557   0.473 -0.2361 -1.0469  0.5160
 4586TIP3    H235318   2.566   2.556   0.359  1.0474  0.6321 -0.6472
 4587TIP3   OH235319   6.051   5.461   8.386  0.0367 -0.2101 -0.1507
 4587TIP3    H135320   6.004   5.541   8.406  0.3407  0.0269 -0.3845
 4587TIP3    H235321   6.143   5.481   8.408  0.2417 -0.2274 -0.9636
 4588TIP3   OH235322   4.623   5.125   1.134 -0.4804  0.5588  0.0192
 4588TIP3    H135323   4.708   5.102   1.171 -1.2000  2.1951  2.9488
 4588TIP3    H235324   4.599   5.207   1.176 -3.4561  0.2394 -0.8097
 4589TIP3   OH235325   1.679   1.108   1.414  0.1554  0.8709  0.2473
 4589TIP3    H135326   1.737   1.126   1.340 -1.0931 -0.0471 -0.9827
 4589TIP3    H235327   1.694   1.016   1.435  0.9397  1.2614  1.5811
 4590TIP3   OH235328   2.869   6.443   2.477 -0.0269  0.0146  0.1022
 4590TIP3    H135329   2.925   6.478   2.546 -0.6348 -0.2879  0.7574
 4590TIP3    H235330   2.927   6.387   2.426  0.2342 -0.4285  0.8696
 4591TIP3   OH235331   6.476   5.866   8.671 -0.1461 -0.9305 -0.1087
 4591TIP3    H135332   6.475   5.776   8.704  1.6622 -0.8540  0.2431
 4591TIP3    H235333   6.547   5.909   8.719 -0.2180  0.3705 -1.1042
 4592TIP3   OH235334   4.197   4.197   7.832  0.2721 -0.2508 -0.4794
 4592TIP3    H135335   4.191   4.110   7.873 -1.1900 -1.7979 -3.6961
 4592TIP3    H235336   4.291   4.217   7.833  0.7248 -2.1884 -0.2699
 4593TIP3   OH235337   6.663   5.910   0.351 -0.3607 -0.5641 -0.3642
 4593TIP3    H135338   6.641   6.002   0.362  1.0341 -0.2536  0.0727
 4593TIP3    H235339   6.751   5.911   0.313  0.1114 -1.7043  0.6248
 4594TIP3   OH235340   0.936   6.369   0.767  0.2259 -0.1654  0.1418
 4594TIP3    H135341   1.008   6.364   0.704 -0.5655 -1.1334 -0.7067
 4594TIP3    H235342   0.888   6.449   0.743 -0.9694 -1.3254 -1.5072
 4595TIP3   OH235343   6.820   2.303   2.142 -0.0850  0.5568  0.3625
 4595TIP3    H135344   6.865   2.343   2.216 -0.4678 -0.4046  1.1480
 4595TIP3    H235345   6.730   2.292   2.172  0.2963 -2.2541  0.8370
 4596TIP3   OH235346   1.729   1.788   7.267  0.2793 -0.0350 -0.0951
 4596TIP3    H135347   1.635   1.791   7.284  0.6869  1.3494  2.2212
 4596TIP3    H235348   1.770   1.805   7.351  2.6430 -0.6159 -1.0441
 4597TIP3   OH235349   2.184   3.515   2.492  0.0517 -0.5095  0.2354
 4597TIP3    H135350   2.091   3.535   2.497  0.0901 -0.3318  0.2556
 4597TIP3    H235351   2.188   3.422   2.470 -0.1425 -0.2211 -1.1026
 4598TIP3   OH235352   1.123   4.805   0.207  0.0616  0.7703  0.1577
 4598TIP3    H135353   1.157   4.726   0.248 -0.8418 -0.2887 -1.0549
 4598TIP3    H235354   1.199   4.861   0.195  0.6028  0.4272  1.7076
 4599TIP3   OH235355   2.123   0.019   8.586 -0.2611  0.1525 -0.2120
 4599TIP3    H135356   2.215   0.001   8.606 -0.7657 -1.1970  1.0892
 4599TIP3    H235357   2.113  -0.007   8.495  0.3494 -1.0090  0.0326
 4600TIP3   OH235358   5.502   5.370   2.163 -0.0077  0.0139  0.0850
 4600TIP3    H135359   5.592   5.386   2.135  0.9706  0.2685  2.9724
 4600TIP3    H235360   5.475   5.291   2.116  0.8250  1.2301 -2.5748
 4601TIP3   OH235361   0.639   6.637   7.258 -0.3443  0.5919 -0.0626
 4601TIP3    H135362   0.731   6.654   7.234  0.0691 -1.5227 -0.1732
 4601TIP3    H235363   0.589   6.663   7.181  0.3314  0.2941 -0.6142
 4602TIP3   OH235364   6.109   3.474   0.766  0.6020 -0.3727  0.3162
 4602TIP3    H135365   6.152   3.395   0.800 -1.2018 -1.5088  0.1054
 4602TIP3    H235366   6.097   3.456   0.672  0.7918  0.4718  0.1212
 4603TIP3   OH235367   5.085   1.817   0.758 -0.0479 -0.4507  0.1134
 4603TIP3    H135368   5.161   1.818   0.817 -0.1188  1.9140  0.2623
 4603TIP3    H235369   5.012   1.790   0.814  0.0526  0.8726  0.9538
 4604TIP3   OH235370   1.089   5.427   0.850  0.4654 -0.2400 -0.1401
 4604TIP3    H135371   1.130   5.356   0.800 -1.2531 -0.4599 -1.3061
 4604TIP3    H235372   1.150   5.444   0.922  2.7383 -0.3643 -1.9111
 4605TIP3   OH235373   0.678   3.016   8.389 -0.3142 -0.1756  0.6420
 4605TIP3    H135374   0.722   2.938   8.423 -1.1392 -1.7528 -1.6629
 4605TIP3    H235375   0.587   3.007   8.417 -0.1036  0.8276  1.7189
 4606TIP3   OH235376   3.491   0.719   6.929  0.5584 -0.6236  0.2881
 4606TIP3    H135377   3.437   0.797   6.922  2.1664  0.6651  1.4658
 4606TIP3    H235378   3.524   0.705   6.840 -0.6698 -0.6686 -0.1677
 4607TIP3   OH235379   3.707   4.810   2.500  0.2513  0.2485 -0.1779
 4607TIP3    H135380   3.745   4.872   2.562  1.6538  0.8090 -1.5478
 4607TIP3    H235381   3.622   4.848   2.477  0.3722  0.7973  0.2812
 4608TIP3   OH235382   3.321   0.866   0.055 -0.0835  0.5773  0.2825
 4608TIP3    H135383   3.240   0.837   0.097 -0.6795  0.0713 -1.1337
 4608TIP3    H235384   3.305   0.851  -0.039  1.9187 -0.2373  0.0338
 4609TIP3   OH235385   2.978   0.414   1.572 -0.9063 -0.7628  0.2964
 4609TIP3    H135386   3.031   0.420   1.652  0.2298 -1.9030 -0.3397
 4609TIP3    H235387   2.888   0.410   1.603 -0.4159 -3.1453  1.6799
 4610TIP3   OH235388   5.983   4.741   8.162 -0.1299 -0.8799 -0.3664
 4610TIP3    H135389   5.956   4.833   8.152  1.2614 -0.2289  1.3865
 4610TIP3    H235390   5.909   4.691   8.128 -1.3202  0.8826 -0.5094
 4611TIP3   OH235391   2.653   5.816   1.392  0.0965  0.6161 -0.4543
 4611TIP3    H135392   2.741   5.789   1.368 -0.2752 -2.4389  1.0743
 4611TIP3    H235393   2.660   5.843   1.483 -0.5326  0.2340 -0.2847
 4612TIP3   OH235394   5.501   3.917   0.409 -0.4773  0.7133  0.0575
 4612TIP3    H135395   5.498   4.004   0.370  0.5000  0.9101  0.3750
 4612TIP3    H235396   5.453   3.861   0.348 -0.1171  1.2592 -0.7403
 4613TIP3   OH235397   6.118   5.336   0.111  0.6737 -0.1101 -0.2310
 4613TIP3    H135398   6.107   5.313   0.019  0.5300  0.3756 -0.3367
 4613TIP3    H235399   6.074   5.420   0.120 -4.2231 -2.4876  1.4500
 4614TIP3   OH235400   3.544   5.646   7.894  0.0932  0.2105 -0.4171
 4614TIP3    H135401   3.626   5.598   7.895 -0.4000 -0.6687  1.5815
 4614TIP3    H235402   3.482   5.588   7.850  0.4674  0.8203 -1.8073
 4615TIP3   OH235403   6.774   4.256   0.581  0.2502  0.0397  0.2962
 4615TIP3    H135404   6.862   4.294   0.581 -0.3877  1.5990 -0.2162
 4615TIP3    H235405   6.741   4.271   0.670  0.6870 -1.0487  0.6563
 4616TIP3   OH235406   4.308   4.697   2.290 -0.5780 -0.3379 -0.1127
 4616TIP3    H135407   4.359   4.618   2.309 -0.4130 -0.2973 -0.3798
 4616TIP3    H235408   4.369   4.754   2.243 -1.5416 -1.2373 -2.5776
 4617TIP3   OH235409   5.926   6.779   8.045  0.5064  0.7625 -0.0892
 4617TIP3    H135410   5.992   6.846   8.027  0.1268  1.5959  1.4426
 4617TIP3    H235411   5.951   6.743   8.130 -0.1142 -0.0306 -0.2308
 4618TIP3   OH235412   6.471   1.605   7.330  0.6351  1.1485 -0.7095
 4618TIP3    H135413   6.548   1.652   7.362  1.3883  0.6598 -1.7507
 4618TIP3    H235414   6.397   1.648   7.373  1.2886  3.2548 -1.5247
 4619TIP3   OH235415   0.513   4.958   0.464 -0.5036 -0.1346 -0.1638
 4619TIP3    H135416   0.526   4.870   0.429  0.6862 -1.1220  2.4776
 4619TIP3    H235417   0.564   5.015   0.408 -0.3891 -1.2868 -1.2589
 4620TIP3   OH235418   6.646   2.561   0.616  0.0924 -0.1106 -0.1806
 4620TIP3    H135419   6.576   2.508   0.578 -0.3200  0.0355  0.3571
 4620TIP3    H235420   6.651   2.638   0.559 -1.2038  0.5842  0.6183
 4621TIP3   OH235421   0.308   0.035   8.570 -0.1740 -0.0953 -0.1592
 4621TIP3    H135422   0.391   0.021   8.525  0.1176 -0.1104  0.3916
 4621TIP3    H235423   0.275  -0.054   8.587 -0.7989 -0.1063 -1.2736
 4622TIP3   OH235424   4.589   4.035   2.238 -0.3546  0.1240  0.2601
 4622TIP3    H135425   4.606   4.000   2.326  0.9980 -2.7989 -1.0217
 4622TIP3    H235426   4.530   3.972   2.198  0.1940  0.6220 -1.4146
 4623TIP3   OH235427   0.566   2.777   6.744  0.0992 -0.4210 -0.0826
 4623TIP3    H135428   0.546   2.829   6.666  0.8423 -0.4860 -0.3221
 4623TIP3    H235429   0.519   2.695   6.732 -2.5081  0.7808  1.0853
 4624TIP3   OH235430   6.687   0.627   2.473  0.1473  0.4627 -0.0610
 4624TIP3    H135431   6.728   0.596   2.392 -0.0290  2.0098 -0.7753
 4624TIP3    H235432   6.743   0.699   2.501 -0.5774  0.8403  0.4356
 4625TIP3   OH235433   4.060   6.389   1.163 -0.0744  0.3162  0.0883
 4625TIP3    H135434   4.101   6.426   1.241  0.0391 -0.6563  0.5011
 4625TIP3    H235435   4.049   6.296   1.183 -1.3596  0.3126 -0.4919
 4626TIP3   OH235436   3.900   6.277   8.049 -0.0514 -0.3618  0.8674
 4626TIP3    H135437   3.871   6.186   8.051 -1.8615  0.1683  0.5801
 4626TIP3    H235438   3.927   6.292   7.959 -1.5428 -0.1173  0.4410
 4627TIP3   OH235439   0.702   4.060   0.562  0.8000 -0.4763  0.2096
 4627TIP3    H135440   0.688   4.141   0.612  0.8415 -1.0369  1.1453
 4627TIP3    H235441   0.666   4.079   0.475  0.2155  0.3235  0.6154
 4628TIP3   OH235442   0.840   0.169   7.347  0.0553 -0.9254 -0.4734
 4628TIP3    H135443   0.756   0.213   7.358  0.4163 -0.3590  0.1273
 4628TIP3    H235444   0.832   0.122   7.264 -0.5027 -0.0647 -0.9273
 4629TIP3   OH235445   3.111   0.695   0.456  0.1217 -0.3216  0.1107
 4629TIP3    H135446   3.028   0.646   0.457  0.2173 -0.4930 -0.0724
 4629TIP3    H235447   3.094   0.772   0.509 -0.3286 -0.0798 -0.3667
 4630TIP3   OH235448   1.625   0.829   8.243  0.5851  0.1280  0.0739
 4630TIP3    H135449   1.693   0.848   8.307 -1.1258 -1.5122  2.5858
 4630TIP3    H235450   1.653   0.748   8.200  0.7362  0.0313  0.3529
 4631TIP3   OH235451   1.905   2.014   8.318  0.1801  0.1267 -0.1730
 4631TIP3    H135452   1.981   1.968   8.353  0.1950  0.6785  0.5476
 4631TIP3    H235453   1.931   2.106   8.316 -0.0498  0.1823 -1.0698
 4632TIP3   OH235454   2.177   0.501   8.684 -0.1233 -0.6182 -1.0336
 4632TIP3    H135455   2.123   0.577   8.663  0.6258  0.2802  0.1586
 4632TIP3    H235456   2.176   0.448   8.605 -0.2467  0.8878 -2.0772
 4633TIP3   OH235457   0.182   6.783   0.783 -0.6091  0.2083  0.4085
 4633TIP3    H135458   0.120   6.828   0.726  0.5494  0.8439 -0.3853
 4633TIP3    H235459   0.200   6.846   0.853 -0.8157  0.0387  0.6175
 4634TIP3   OH235460   6.005   1.181   8.008  0.3424  0.0475 -0.4489
 4634TIP3    H135461   5.930   1.177   7.948  1.0138  0.8383 -1.3785
 4634TIP3    H235462   5.968   1.163   8.094 -0.6804 -0.9701 -1.0665
 4635TIP3   OH235463   2.082   6.096   8.060  0.2798 -0.4785 -0.3155
 4635TIP3    H135464   2.067   6.187   8.088  0.9025 -0.3445 -0.4138
 4635TIP3    H235465   2.164   6.099   8.011  0.6003 -1.1955  0.1638
 4636TIP3   OH235466   2.748   5.498   1.563 -0.0088  0.4258  0.2094
 4636TIP3    H135467   2.732   5.446   1.642  2.8707  0.2390  0.7623
 4636TIP3    H235468   2.768   5.433   1.496  1.4351  0.7074  0.3485
 4637TIP3   OH235469   5.420   3.044   1.659 -0.1628 -0.3725  0.2215
 4637TIP3    H135470   5.453   3.134   1.662  0.9203 -0.7821  1.5620
 4637TIP3    H235471   5.448   3.012   1.573  0.1977  0.2896  0.0790
 4638TIP3   OH235472   1.140   4.827   8.618 -0.1252 -0.2036 -0.5645
 4638TIP3    H135473   1.235   4.840   8.618 -0.3236  1.4758 -0.5384
 4638TIP3    H235474   1.119   4.802   8.527  0.6542 -3.8650  0.0903
 4639TIP3   OH235475   2.027   4.850   7.212 -0.2182  0.2661  0.2399
 4639TIP3    H135476   1.975   4.772   7.189 -2.3095  2.0131 -1.3624
 4639TIP3    H235477   2.115   4.830   7.179  0.1370 -2.5234  2.4829
 4640TIP3   OH235478   5.398   5.080   7.742 -0.4840  0.3805  0.4677
 4640TIP3    H135479   5.464   5.119   7.685 -0.5506 -1.0594 -0.6535
 4640TIP3    H235480   5.393   4.989   7.714 -0.6045 -0.3792  2.7153
 4641TIP3   OH235481   5.038   3.142   7.855  0.2552  0.3113  0.1038
 4641TIP3    H135482   4.968   3.196   7.890  1.5209  1.2655  1.2547
 4641TIP3    H235483   5.065   3.087   7.929  1.6999  1.0129  0.1236
 4642TIP3   OH235484   5.452   4.230   7.426  0.3522  0.1656 -0.5339
 4642TIP3    H135485   5.454   4.314   7.380 -0.8178  0.6701  0.2649
 4642TIP3    H235486   5.535   4.227   7.474  0.2298  1.0956 -0.2201
 4643TIP3   OH235487   4.047   0.345   0.033 -0.0198 -0.3448  0.0628
 4643TIP3    H135488   4.063   0.250   0.038 -1.8936 -0.6279  2.4653
 4643TIP3    H235489   3.999   0.356  -0.050  4.8339 -0.5233 -3.2031
 4644TIP3   OH235490   1.778   4.104   8.494 -0.5137 -0.1085  0.2747
 4644TIP3    H135491   1.851   4.057   8.454  0.4346  1.3753  0.1886
 4644TIP3    H235492   1.717   4.120   8.421  1.1370  2.4476 -0.6732
 4645TIP3   OH235493   4.050   4.106   1.017 -0.0404 -0.3869 -0.6451
 4645TIP3    H135494   4.005   4.190   1.026  2.0546  0.6726  0.7180
 4645TIP3    H235495   4.075   4.102   0.925 -0.5005  0.2971 -0.8101
 4646TIP3   OH235496   1.391   4.877   2.100 -0.4714 -0.3428  0.0873
 4646TIP3    H135497   1.360   4.955   2.145  1.1978  0.1815  0.4280
 4646TIP3    H235498   1.390   4.809   2.167 -2.5979 -0.8410 -0.3899
 4647TIP3   OH235499   6.346   4.532   1.975  0.0272  0.8152  0.0411
 4647TIP3    H135500   6.316   4.616   2.009  0.1763  0.8326  0.1294
 4647TIP3    H235501   6.365   4.549   1.883  0.9293  1.1023  0.2773
 4648TIP3   OH235502   5.097   6.602   1.465 -0.2233 -0.1115 -0.0355
 4648TIP3    H135503   5.082   6.647   1.381  1.3654  0.7199  0.0925
 4648TIP3    H235504   5.075   6.667   1.531  3.1107  1.0009  0.1581
 4649TIP3   OH235505   0.122   0.402   1.871  0.4771  0.2125  0.1324
 4649TIP3    H135506   0.152   0.490   1.848  2.6777 -0.0426  1.6679
 4649TIP3    H235507   0.161   0.345   1.804  1.8743  0.1096  0.9801
 4650TIP3   OH235508   0.539   0.364   1.904  0.0599 -0.2855 -0.1082
 4650TIP3    H135509   0.623   0.366   1.951  0.3672  0.1916 -0.6670
 4650TIP3    H235510   0.563   0.369   1.812 -0.5146 -1.7658 -0.3652
 4651TIP3   OH235511   3.874   1.491   7.739 -0.0046  0.0138  0.1868
 4651TIP3    H135512   3.860   1.415   7.682 -0.2763  0.6126 -0.5682
 4651TIP3    H235513   3.787   1.511   7.774 -0.0808  0.4429 -0.2327
 4652TIP3   OH235514   2.439   5.677   7.320 -0.2195  0.0934  0.1334
 4652TIP3    H135515   2.443   5.668   7.225  0.4882  0.6909  0.1016
 4652TIP3    H235516   2.495   5.607   7.353  1.9545  1.6784  0.0025
 4653TIP3   OH235517   4.054   5.480   1.820 -0.2432 -0.8541 -0.0047
 4653TIP3    H135518   3.996   5.500   1.894  1.4109  0.8977  0.9205
 4653TIP3    H235519   4.138   5.461   1.861  0.4083 -1.0752 -1.4074
 4654TIP3   OH235520   3.999   2.624   1.435 -0.5222  0.1565 -0.7234
 4654TIP3    H135521   3.922   2.574   1.410 -2.1727  2.0774  0.3108
 4654TIP3    H235522   4.009   2.609   1.529  0.1068  0.3004 -0.7569
 4655TIP3   OH235523   5.079   6.235   0.375 -0.0537  0.5692  0.3482
 4655TIP3    H135524   5.023   6.208   0.448 -2.0347  0.5427 -1.1031
 4655TIP3    H235525   5.077   6.331   0.378 -1.5950  0.6032 -0.6621
 4656TIP3   OH235526   4.477   1.465   2.058  0.0887 -0.1451 -0.0312
 4656TIP3    H135527   4.552   1.408   2.040 -1.0420 -1.7501  0.1931
 4656TIP3    H235528   4.478   1.528   1.986 -0.4095 -2.3400 -2.0665
 4657TIP3   OH235529   1.557   5.032   1.927  0.4585  0.2416 -0.1436
 4657TIP3    H135530   1.502   4.973   1.979 -1.0459  0.0746 -1.8223
 4657TIP3    H235531   1.578   4.981   1.848 -0.0470  1.5811 -1.1783
 4658TIP3   OH235532   6.175   2.519   1.014  0.1915  0.1107  0.3173
 4658TIP3    H135533   6.090   2.522   0.970  1.1930  0.8791 -1.7082
 4658TIP3    H235534   6.238   2.507   0.943  1.8771  0.8054  1.6297
 4659TIP3   OH235535   3.081   0.935   0.607 -0.3200  0.1939  0.2014
 4659TIP3    H135536   3.074   1.030   0.596  1.8057  0.3195 -0.4928
 4659TIP3    H235537   2.995   0.908   0.638 -2.0324  1.9060 -2.6174
 4660TIP3   OH235538   0.236   0.994   7.126 -0.0681 -0.1480 -0.2745
 4660TIP3    H135539   0.203   0.974   7.039  0.1680 -0.2371 -0.3439
 4660TIP3    H235540   0.199   0.926   7.182 -0.2241 -0.0876 -0.3034
 4661TIP3   OH235541   2.159   3.276   7.773  0.4562  0.1622  0.6256
 4661TIP3    H135542   2.096   3.331   7.820 -1.3397 -1.4431  0.2387
 4661TIP3    H235543   2.160   3.194   7.822  0.7196 -0.5302 -0.5064
 4662TIP3   OH235544   3.301   2.300   0.706 -0.6542 -0.5171 -0.2544
 4662TIP3    H135545   3.238   2.349   0.653 -1.0737 -2.2134 -1.4185
 4662TIP3    H235546   3.246   2.254   0.770 -0.2098  0.9670  1.2603
 4663TIP3   OH235547   3.253   3.157   7.416 -0.0119 -0.0679 -0.2107
 4663TIP3    H135548   3.299   3.238   7.438  0.8748 -0.5589 -0.2548
 4663TIP3    H235549   3.283   3.134   7.329  0.2603 -0.8061  0.0689
 4664TIP3   OH235550   3.382   6.437   0.320  0.5475  0.2047  0.5862
 4664TIP3    H135551   3.464   6.484   0.309 -0.4114  1.6047 -1.2090
 4664TIP3    H235552   3.348   6.466   0.404  1.1322  0.8591  0.6064
 4665TIP3   OH235553   6.825   0.206   0.112  0.2503  0.4790  0.3061
 4665TIP3    H135554   6.894   0.225   0.049  1.5273 -0.9086  1.2215
 4665TIP3    H235555   6.835   0.113   0.131 -1.3838  0.4182  1.0772
 4666TIP3   OH235556   3.956   4.307   1.821 -0.2130  0.2031  0.5144
 4666TIP3    H135557   3.999   4.303   1.907 -2.2300 -1.1034  1.5499
 4666TIP3    H235558   3.976   4.222   1.781 -1.9447 -0.5379  1.1298
 4667TIP3   OH235559   3.155   0.720   0.972  0.3181  0.0793  0.6414
 4667TIP3    H135560   3.200   0.774   0.906  0.4161 -0.6562  0.0953
 4667TIP3    H235561   3.089   0.672   0.922  1.2502 -1.4654  0.8453
 4668TIP3   OH235562   2.596   3.475   8.131  0.1450 -0.2793 -0.1953
 4668TIP3    H135563   2.538   3.482   8.055 -0.7739 -1.3828  0.3755
 4668TIP3    H235564   2.586   3.385   8.160 -0.9987  0.5940  2.3737
 4669TIP3   OH235565   1.271   4.772   2.552  0.2816 -0.2374 -0.2931
 4669TIP3    H135566   1.272   4.798   2.644 -0.2541  0.1007 -0.3754
 4669TIP3    H235567   1.195   4.713   2.545 -1.1228  1.5681 -0.9832
 4670TIP3   OH235568   4.405   2.842   0.157  0.3394  0.4430  0.5940
 4670TIP3    H135569   4.443   2.816   0.241 -0.2411 -0.2760  0.6418
 4670TIP3    H235570   4.313   2.858   0.176  0.3230  0.8195  0.2040
 4671TIP3   OH235571   1.230   2.203   1.614  0.3641 -0.0337 -0.1373
 4671TIP3    H135572   1.313   2.224   1.657  0.2334 -1.9143  1.1728
 4671TIP3    H235573   1.163   2.241   1.670  0.2897  0.0763 -0.3013
 4672TIP3   OH235574   3.828   0.404   0.499 -0.8254  0.5977 -0.7368
 4672TIP3    H135575   3.870   0.414   0.413 -0.9575 -0.7133 -0.9714
 4672TIP3    H235576   3.739   0.436   0.485 -1.0283 -0.1837 -1.2560
 4673TIP3   OH235577   1.107   2.646   7.118  0.5087  0.0889 -0.5348
 4673TIP3    H135578   1.134   2.621   7.029  1.3871 -0.7477 -0.0589
 4673TIP3    H235579   1.121   2.740   7.121  0.3223  0.1551 -1.3292
 4674TIP3   OH235580   1.515   3.744   7.171 -0.5615  0.0952 -0.3015
 4674TIP3    H135581   1.444   3.688   7.140 -0.6800  0.2445 -0.3051
 4674TIP3    H235582   1.592   3.716   7.123 -0.0066 -1.8442  1.5643
 4675TIP3   OH235583   6.007   6.531   7.511  0.7474  0.7959  0.1553
 4675TIP3    H135584   6.077   6.465   7.509 -0.5186 -0.5890 -0.7709
 4675TIP3    H235585   5.991   6.545   7.605 -2.0759 -3.8520  0.7150
 4676TIP3   OH235586   0.460   6.253   0.951 -0.2485 -0.4568 -0.0444
 4676TIP3    H135587   0.458   6.230   1.044  0.1641 -0.9694 -0.1611
 4676TIP3    H235588   0.372   6.284   0.932  0.0926  1.2983  0.9335
 4677TIP3   OH235589   5.631   1.562   0.457 -0.0201 -0.0013  0.6679
 4677TIP3    H135590   5.545   1.535   0.490  0.1068 -0.6549  0.4767
 4677TIP3    H235591   5.614   1.590   0.367 -0.3514  1.6987  1.2206
 4678TIP3   OH235592   4.823   4.857   7.445  0.0163  0.0109 -0.4156
 4678TIP3    H135593   4.730   4.836   7.458  0.0047  0.8428  1.0358
 4678TIP3    H235594   4.822   4.933   7.386 -0.2636  0.4167  0.1020
 4679TIP3   OH235595   3.240   0.625   6.912  0.3694  0.2185 -0.3359
 4679TIP3    H135596   3.318   0.666   6.949 -0.0648  0.5364  0.2234
 4679TIP3    H235597   3.272   0.542   6.876  1.1422  0.7709 -0.9623
 4680TIP3   OH235598   3.788   5.952   1.773  0.2599 -0.0014  0.2029
 4680TIP3    H135599   3.763   5.897   1.848  2.5202 -1.7079 -0.1845
 4680TIP3    H235600   3.759   5.902   1.697  0.1390  0.5701 -0.1304
 4681TIP3   OH235601   3.958   4.778   1.467  0.7500 -0.5202  0.3124
 4681TIP3    H135602   3.870   4.797   1.433  1.2158  4.2508  1.0787
 4681TIP3    H235603   3.944   4.762   1.560  0.5585 -1.2483  0.1588
 4682TIP3   OH235604   5.882   4.259   7.789 -0.0476 -0.1340 -0.6373
 4682TIP3    H135605   5.902   4.345   7.754 -0.3664  0.1878 -0.0360
 4682TIP3    H235606   5.964   4.209   7.778  0.3319  0.4316 -0.4167
 4683TIP3   OH235607   3.505   2.188   1.286 -0.0421 -0.0415  0.0346
 4683TIP3    H135608   3.471   2.250   1.221 -0.4399 -0.9776 -0.6773
 4683TIP3    H235609   3.539   2.243   1.356 -1.7887  0.9453  0.1414
 4684TIP3   OH235610   3.033   1.028   0.090  0.6693  0.0063 -0.1899
 4684TIP3    H135611   2.943   1.045   0.115  1.0251  0.6843  0.6842
 4684TIP3    H235612   3.056   0.947   0.135  0.7608  0.2912  0.2777
 4685TIP3   OH235613   2.358   0.130   2.024  0.8536 -0.2445 -0.1644
 4685TIP3    H135614   2.302   0.053   2.009  1.1063 -0.2584 -1.0820
 4685TIP3    H235615   2.434   0.095   2.071  0.1425 -0.2411  1.0082
 4686TIP3   OH235616   4.202   0.363   7.477  0.9761  0.0363  0.5037
 4686TIP3    H135617   4.273   0.304   7.502  2.3903  1.1284 -0.7516
 4686TIP3    H235618   4.158   0.319   7.405  0.1218 -0.8016  1.5112
 4687TIP3   OH235619   5.335   2.724   0.551  0.1455  0.4176 -0.4537
 4687TIP3    H135620   5.390   2.777   0.607  2.7361 -1.3494 -1.1548
 4687TIP3    H235621   5.289   2.665   0.611  0.5295  0.6042  0.0261
 4688TIP3   OH235622   2.607   3.806   7.843 -0.4070  0.4919 -0.1140
 4688TIP3    H135623   2.688   3.835   7.802  0.3837 -0.7276  0.5021
 4688TIP3    H235624   2.636   3.758   7.921 -1.6268 -1.1104 -0.5786
 4689TIP3   OH235625   4.360   1.196   0.968 -0.5373 -0.1570 -0.3891
 4689TIP3    H135626   4.403   1.118   1.001  0.2926  0.5015  0.1185
 4689TIP3    H235627   4.275   1.198   1.012  0.1216  0.1338  0.8951
 4690TIP3   OH235628   2.665   2.906   1.920  0.2550  0.0100  0.0417
 4690TIP3    H135629   2.736   2.919   1.982 -1.2468  2.3664  1.4433
 4690TIP3    H235630   2.671   2.980   1.859 -0.2940 -0.4188 -0.5602
 4691TIP3   OH235631   6.398   0.559   7.235  0.2224  0.5509  0.0529
 4691TIP3    H135632   6.435   0.502   7.303 -0.9862 -0.0261  0.2470
 4691TIP3    H235633   6.475   0.597   7.192  1.1467 -2.1989 -0.9550
 4692TIP3   OH235634   4.473   0.121   1.238 -0.2961  0.0416 -0.1847
 4692TIP3    H135635   4.518   0.170   1.307 -1.2728 -0.3447  0.7603
 4692TIP3    H235636   4.433   0.187   1.182 -0.3813  0.3477  0.2369
 4693TIP3   OH235637   1.190   3.925   1.087  0.2995 -0.8075 -0.4509
 4693TIP3    H135638   1.221   3.836   1.100  1.2555 -0.3902  0.2689
 4693TIP3    H235639   1.220   3.973   1.165 -0.4444  0.0752 -0.6859
 4694TIP3   OH235640   0.879   2.167   8.736 -0.4488  0.1940 -0.0189
 4694TIP3    H135641   0.839   2.081   8.724  1.4104 -0.4713 -2.1193
 4694TIP3    H235642   0.928   2.182   8.655  0.9196  2.3396  1.1181
 4695TIP3   OH235643   2.213   1.990   0.386  0.1072 -0.4381 -0.7057
 4695TIP3    H135644   2.175   1.942   0.312 -1.0166  0.3669 -0.6753
 4695TIP3    H235645   2.209   1.928   0.459  2.0122 -1.5479 -1.4669
 4696TIP3   OH235646   6.194   1.244   1.616  0.2616 -0.1617 -0.6436
 4696TIP3    H135647   6.111   1.200   1.594 -0.3183  1.0391 -0.9168
 4696TIP3    H235648   6.250   1.229   1.540  0.0230 -0.3058 -0.7943
 4697TIP3   OH235649   4.899   4.286   1.857  0.0558 -0.0593 -0.1214
 4697TIP3    H135650   4.899   4.294   1.761 -1.0131 -0.0071 -0.1333
 4697TIP3    H235651   4.806   4.282   1.880  0.3127 -0.5412  0.8802
 4698TIP3   OH235652   4.231   6.338   7.275  0.4289  0.0858 -0.2790
 4698TIP3    H135653   4.197   6.302   7.193 -0.8391  0.4396  0.0681
 4698TIP3    H235654   4.173   6.303   7.343 -0.0846  1.7477  0.1983
 4699TIP3   OH235655   2.211   5.032   6.680  0.1420 -0.5531  0.1139
 4699TIP3    H135656   2.132   4.999   6.638  0.0195  0.2559 -0.3189
 4699TIP3    H235657   2.281   4.978   6.645 -0.1011 -0.6254 -0.2623
 4700TIP3   OH235658   6.621   5.554   0.723 -0.5017 -0.1664 -0.6462
 4700TIP3    H135659   6.654   5.506   0.799  0.4291  0.2835 -0.7483
 4700TIP3    H235660   6.545   5.601   0.757  0.4649  0.7996  0.3011
 4701TIP3   OH235661   5.464   1.632   0.851 -0.0557  0.5953 -0.6603
 4701TIP3    H135662   5.556   1.603   0.848 -0.2551 -0.6884  2.2985
 4701TIP3    H235663   5.418   1.570   0.794  0.4833 -0.8907  0.4592
 4702TIP3   OH235664   0.814   3.221   7.892  0.1842 -0.3835 -0.4086
 4702TIP3    H135665   0.729   3.264   7.886 -0.0199 -0.9095 -1.6802
 4702TIP3    H235666   0.797   3.139   7.938  0.4295  0.4896  1.3061
 4703TIP3   OH235667   0.253   1.353   0.661  0.1392 -0.2692 -0.0332
 4703TIP3    H135668   0.173   1.306   0.639  0.8071 -1.2089 -0.5512
 4703TIP3    H235669   0.303   1.356   0.580 -0.8124  3.3943 -0.6322
 4704TIP3   OH235670   3.820   0.111   0.608 -0.1156 -0.5578  0.0207
 4704TIP3    H135671   3.892   0.098   0.546  0.5129 -0.7827  0.7883
 4704TIP3    H235672   3.820   0.205   0.625 -0.2138 -0.5123 -0.2221
 4705TIP3   OH235673   1.042   4.043   0.914  0.2972 -0.0623  0.0151
 4705TIP3    H135674   1.081   4.022   0.999  1.2537  0.8419 -0.1651
 4705TIP3    H235675   1.058   3.966   0.860  1.1077 -0.0366  0.2051
 4706TIP3   OH235676   5.498   2.390   1.156  0.4861 -0.5951 -0.6675
 4706TIP3    H135677   5.459   2.415   1.239 -0.4793  0.4533 -1.4051
 4706TIP3    H235678   5.572   2.450   1.145  0.2779 -0.3621 -0.8133
 4707TIP3   OH235679   2.182   5.082   1.329  0.4645  0.1429 -0.3270
 4707TIP3    H135680   2.150   5.045   1.247 -0.5214 -0.4552  0.3118
 4707TIP3    H235681   2.174   5.011   1.392  1.3185  0.5639  0.2811
 4708TIP3   OH235682   2.933   4.473   0.323  0.8288 -0.2867  0.0905
 4708TIP3    H135683   2.862   4.437   0.270  1.3633 -0.4554 -0.5242
 4708TIP3    H235684   2.892   4.545   0.371  0.7722  1.3135 -2.1877
 4709TIP3   OH235685   1.406   2.396   0.443 -0.1266  0.4491  0.1189
 4709TIP3    H135686   1.466   2.407   0.369  0.7550 -1.1071  0.5650
 4709TIP3    H235687   1.334   2.344   0.409  0.1392 -0.0242  0.2717
 4710TIP3   OH235688   3.194   5.243   1.903 -0.1739 -0.1984 -0.1977
 4710TIP3    H135689   3.184   5.205   1.815 -2.1682 -0.9628  0.3002
 4710TIP3    H235690   3.169   5.335   1.892 -0.1265 -0.2165 -0.4758
 4711TIP3   OH235691   2.662   1.859   7.220  0.7454  0.4318 -0.1513
 4711TIP3    H135692   2.609   1.830   7.146 -1.4510 -0.2792  1.5755
 4711TIP3    H235693   2.634   1.949   7.236  1.0800  0.5255 -0.0766
 4712TIP3   OH235694   2.497   0.322   0.776 -0.2933 -0.1060  0.1827
 4712TIP3    H135695   2.484   0.413   0.751 -0.8232 -0.1798  0.1726
 4712TIP3    H235696   2.408   0.287   0.784 -0.0873 -0.8791 -0.7608
 4713TIP3   OH235697   5.581   1.248   6.851 -0.0517 -1.0085  0.2558
 4713TIP3    H135698   5.573   1.256   6.756  1.2961  2.0000  0.2586
 4713TIP3    H235699   5.512   1.306   6.885  1.0662 -0.0647  0.9886
 4714TIP3   OH235700   5.414   6.039   2.009  0.6579  0.0226 -0.0469
 4714TIP3    H135701   5.448   6.012   1.923  0.2093 -2.5914  0.5070
 4714TIP3    H235702   5.328   5.998   2.015  0.4923  0.5283  1.4725
 4715TIP3   OH235703   0.343   2.667   0.482 -0.2536 -0.1915  0.0922
 4715TIP3    H135704   0.254   2.689   0.453 -0.2445 -0.6304 -0.2745
 4715TIP3    H235705   0.356   2.720   0.561 -0.7787  0.0026  0.0526
 4716TIP3   OH235706   0.071   5.867   6.929 -0.1478  0.5819 -0.2452
 4716TIP3    H135707   0.166   5.868   6.938 -0.2383  0.1476  0.8871
 4716TIP3    H235708   0.054   5.814   6.852  0.5537  1.4486 -1.0268
 4717TIP3   OH235709   5.807   3.214   6.949 -0.2804 -0.0863 -0.8979
 4717TIP3    H135710   5.727   3.163   6.933  0.3368 -1.5059  0.2659
 4717TIP3    H235711   5.776   3.301   6.973 -1.3781  0.1068 -2.8250
 4718TIP3   OH235712   6.213   3.962   7.236  0.2552  0.6375  0.2232
 4718TIP3    H135713   6.132   3.930   7.276 -0.4133  2.6655  0.6103
 4718TIP3    H235714   6.282   3.933   7.296 -0.4011  0.6355  0.9937
 4719TIP3   OH235715   0.991   1.828   1.291  0.0512  0.3958 -0.2712
 4719TIP3    H135716   1.009   1.739   1.324  0.3724  0.5417 -0.0514
 4719TIP3    H235717   0.906   1.850   1.329  0.3992  0.5462  0.4491
 4720TIP3   OH235718   4.874   0.872   2.847 -0.2656  0.1338 -0.0701
 4720TIP3    H135719   4.808   0.941   2.851  0.1409  0.4887  2.2916
 4720TIP3    H235720   4.837   0.800   2.898 -0.0106 -0.8000 -1.1573
 4721TIP3   OH235721   4.246   4.461   8.712 -0.4909  0.0487  0.0881
 4721TIP3    H135722   4.317   4.525   8.718 -0.2282 -0.2662  0.3629
 4721TIP3    H235723   4.166   4.513   8.720 -0.3077  0.4688 -0.7339
 4722TIP3   OH235724   0.690   4.120   2.192  0.6002  0.3023 -0.2973
 4722TIP3    H135725   0.775   4.121   2.148 -0.0174 -0.0861 -1.5292
 4722TIP3    H235726   0.628   4.095   2.124 -0.1470 -2.2343  1.2011
 4723TIP3   OH235727   2.900   3.820   2.552  0.0203 -0.6544  0.2445
 4723TIP3    H135728   2.871   3.731   2.531 -0.5054 -0.6299  0.8129
 4723TIP3    H235729   2.902   3.822   2.648 -0.8032  0.1968  0.2640
 4724TIP3   OH235730   5.304   5.700   2.563  0.0486  0.1523 -0.5242
 4724TIP3    H135731   5.376   5.746   2.607 -1.0982  0.2131  1.3875
 4724TIP3    H235732   5.227   5.717   2.617 -0.9319 -1.9487 -1.1332
 4725TIP3   OH235733   2.795   2.220   0.498  0.3818 -0.1665  0.5745
 4725TIP3    H135734   2.739   2.198   0.572  0.5357  1.1785  1.1009
 4725TIP3    H235735   2.738   2.268   0.438  0.5015 -0.4236  0.2516
 4726TIP3   OH235736   4.759   0.349   1.241 -0.2348 -0.2019  0.8314
 4726TIP3    H135737   4.810   0.406   1.300  0.5824  0.9842 -0.9192
 4726TIP3    H235738   4.671   0.386   1.242 -0.0071  0.3499  0.6334
 4727TIP3   OH235739   0.210   4.201   8.443 -0.7123 -0.2113  0.8603
 4727TIP3    H135740   0.128   4.154   8.427 -0.8298  0.5910 -1.1636
 4727TIP3    H235741   0.262   4.185   8.365  0.9599 -0.4102  1.9539
 4728TIP3   OH235742   5.592   0.994   8.563  0.2642 -0.7380 -0.0643
 4728TIP3    H135743   5.664   1.020   8.620 -0.5304 -1.0354  1.0965
 4728TIP3    H235744   5.530   1.067   8.567  0.9493  0.0234 -1.9296
 4729TIP3   OH235745   5.510   2.094   0.333  0.1735 -0.2781  0.2463
 4729TIP3    H135746   5.592   2.132   0.366  0.6848  0.0306 -1.3152
 4729TIP3    H235747   5.471   2.164   0.280 -0.3316 -0.9448 -0.2771
 4730TIP3   OH235748   5.164   2.544   7.021 -0.2776 -0.5777 -0.1054
 4730TIP3    H135749   5.164   2.463   7.072 -0.0736  0.0434  0.9320
 4730TIP3    H235750   5.072   2.559   6.999 -0.3470 -0.9526 -0.0759
 4731TIP3   OH235751   0.575   4.744   1.542  0.1690  0.4331  0.3190
 4731TIP3    H135752   0.499   4.769   1.595 -0.2379  1.6740 -0.7738
 4731TIP3    H235753   0.629   4.691   1.600 -2.0847 -1.5243  0.7876
 4732TIP3   OH235754   2.747   5.393   8.483  0.5211 -0.6572 -0.0193
 4732TIP3    H135755   2.822   5.334   8.477  2.0847  1.3485 -2.7601
 4732TIP3    H235756   2.694   5.372   8.406 -1.7626 -1.9083  1.7687
 4733TIP3   OH235757   5.805   4.093   0.820  0.1609 -0.2580 -0.3441
 4733TIP3    H135758   5.768   4.155   0.882  1.5987 -1.8840  2.2810
 4733TIP3    H235759   5.732   4.072   0.761 -1.3702  1.0770  0.9918
 4734TIP3   OH235760   6.810   0.398   1.250  0.4214  0.0269 -0.2895
 4734TIP3    H135761   6.752   0.445   1.309  0.8872 -2.2584  2.1826
 4734TIP3    H235762   6.890   0.385   1.301  1.5482 -0.4966 -2.1132
 4735TIP3   OH235763   0.607   5.311   8.355 -0.2678 -0.2332  0.0512
 4735TIP3    H135764   0.555   5.354   8.423  0.8023  0.8505  0.2298
 4735TIP3    H235765   0.671   5.378   8.329  1.8872 -1.9023  0.7812
 4736TIP3   OH235766   3.464   0.791   2.750  0.2417  0.0504 -0.2292
 4736TIP3    H135767   3.412   0.768   2.827  2.3656 -2.5956  0.5902
 4736TIP3    H235768   3.545   0.828   2.786  1.3667 -1.4476 -1.1106
 4737TIP3   OH235769   5.567   5.003   1.820 -0.4469 -0.0644  0.0892
 4737TIP3    H135770   5.523   5.080   1.783 -0.6777 -0.1868  0.1085
 4737TIP3    H235771   5.505   4.969   1.884  0.6837  1.2519  2.0143
 4738TIP3   OH235772   5.065   1.983   8.167  0.4200  0.1586 -0.0807
 4738TIP3    H135773   5.123   2.046   8.210 -0.0481  0.1782  0.5318
 4738TIP3    H235774   5.124   1.930   8.112  1.0294  0.0989  0.6148
 4739TIP3   OH235775   4.809   3.117   0.524  0.6301 -0.5493 -0.0151
 4739TIP3    H135776   4.833   3.038   0.477  3.0424  0.1389 -0.0646
 4739TIP3    H235777   4.738   3.090   0.582 -0.1567 -2.1731 -1.6322
 4740TIP3   OH235778   4.627   0.031   7.147  0.5948  0.4583 -0.2922
 4740TIP3    H135779   4.599   0.070   7.065 -1.1002 -1.2558 -0.6000
 4740TIP3    H235780   4.638  -0.062   7.127  0.2331  0.0213  1.3907
 4741TIP3   OH235781   6.472   1.028   6.313  0.1299 -0.1755 -0.2515
 4741TIP3    H135782   6.446   0.942   6.348 -0.8663 -0.0913 -0.7495
 4741TIP3    H235783   6.390   1.076   6.303  0.5487  0.3842 -1.1660
 4742TIP3   OH235784   6.654   2.815   0.951 -0.5283 -0.5090  0.4537
 4742TIP3    H135785   6.685   2.878   1.016  1.8221  1.5249 -2.3511
 4742TIP3    H235786   6.620   2.869   0.880 -0.0340 -2.4603 -1.3448
 4743TIP3   OH235787   3.543   2.316   8.103  0.0131  0.3853  0.2638
 4743TIP3    H135788   3.600   2.315   8.180 -0.3250  0.2456  0.5161
 4743TIP3    H235789   3.574   2.391   8.051  3.3563 -2.1574 -1.8615
 4744TIP3   OH235790   1.627   3.833   8.015 -0.2226 -0.2790  0.0474
 4744TIP3    H135791   1.659   3.744   8.029 -0.7784 -0.2903  1.4979
 4744TIP3    H235792   1.680   3.867   7.943 -0.8117 -2.1659 -1.3522
 4745TIP3   OH235793   2.010   6.192   8.690  0.1122 -0.4882  0.1465
 4745TIP3    H135794   2.033   6.218   8.601  1.2039  1.8314  1.0321
 4745TIP3    H235795   1.920   6.222   8.702  0.4852  0.6245  0.2930
 4746TIP3   OH235796   5.853   1.944   8.255  0.0788 -0.7042  0.2196
 4746TIP3    H135797   5.797   1.901   8.190 -0.2017 -0.7397  0.4821
 4746TIP3    H235798   5.812   1.923   8.339  0.5002 -0.7514  0.4174
 4747TIP3   OH235799   6.802   5.010   1.392  0.0899  0.2042 -0.4758
 4747TIP3    H135800   6.812   5.069   1.317  0.6005  0.6583 -0.0609
 4747TIP3    H235801   6.834   4.926   1.361  3.2085  1.0625  0.0910
 4748TIP3   OH235802   2.865   0.526   7.906 -0.3989  0.3086  0.3641
 4748TIP3    H135803   2.776   0.497   7.886 -0.6522  0.5914  1.0596
 4748TIP3    H235804   2.866   0.618   7.880 -0.3849  0.3692  0.5763
 4749TIP3   OH235805   6.280   1.717   8.473 -0.1871 -0.3480 -0.4395
 4749TIP3    H135806   6.294   1.787   8.410  1.4212 -0.3694 -0.1379
 4749TIP3    H235807   6.236   1.760   8.547  1.1391  0.4558 -0.0871
 4750TIP3   OH235808   0.381   5.966   8.168 -0.5869 -0.0548  0.0794
 4750TIP3    H135809   0.298   6.013   8.167 -1.2845 -1.1962 -1.6055
 4750TIP3    H235810   0.393   5.937   8.077  1.6695  0.0760  0.2762
 4751TIP3   OH235811   6.436   2.880   1.502 -0.0975 -0.2579  0.2435
 4751TIP3    H135812   6.525   2.899   1.533  1.0991 -2.2495 -1.7201
 4751TIP3    H235813   6.439   2.901   1.408 -1.0943 -2.1727 -0.2454
 4752TIP3   OH235814   3.177   5.221   2.199  0.2790 -0.0783  0.5635
 4752TIP3    H135815   3.234   5.282   2.245  0.9718 -1.6632  1.9230
 4752TIP3    H235816   3.223   5.204   2.116  0.3960  0.7206  0.4548
 4753TIP3   OH235817   4.051   0.027   0.476 -0.0527  0.2569  0.1093
 4753TIP3    H135818   4.119   0.050   0.540  2.0148 -0.9326 -1.5479
 4753TIP3    H235819   4.092   0.040   0.391 -2.2522  0.3863 -1.0092
 4754TIP3   OH235820   0.925   4.069   8.735 -0.3097  0.3408 -0.1455
 4754TIP3    H135821   0.967   4.002   8.681 -0.0452  0.9302 -0.6818
 4754TIP3    H235822   0.936   4.150   8.686  0.7554  1.0650  1.2086
 4755TIP3   OH235823   0.245   3.492   1.388 -0.0245  0.3550 -0.1093
 4755TIP3    H135824   0.252   3.587   1.379 -0.1128  0.3880  0.1550
 4755TIP3    H235825   0.152   3.473   1.374  0.0261  0.2842 -0.3583
 4756TIP3   OH235826   1.967   1.418   1.277  0.0421  0.6111 -0.2834
 4756TIP3    H135827   2.043   1.475   1.265  0.8705 -0.0623  1.4088
 4756TIP3    H235828   1.936   1.439   1.366 -0.9065 -0.1193 -0.4290
 4757TIP3   OH235829   6.759   4.656   0.254  0.3586 -0.0439 -0.3804
 4757TIP3    H135830   6.732   4.748   0.260 -1.5646 -0.4768 -1.5934
 4757TIP3    H235831   6.805   4.649   0.171  0.2094 -0.2381 -0.4488
 4758TIP3   OH235832   1.298   4.162   8.324 -0.2098  0.1704  0.3455
 4758TIP3    H135833   1.317   4.074   8.290 -0.3207  0.4082 -0.3522
 4758TIP3    H235834   1.254   4.206   8.251  1.7162  1.4989 -0.0814
 4759TIP3   OH235835   3.744   5.603   0.556 -0.5049 -0.1604 -0.2617
 4759TIP3    H135836   3.831   5.643   0.558 -0.4224 -0.3522  1.8640
 4759TIP3    H235837   3.696   5.646   0.625 -2.0739 -0.2130 -1.2704
 4760TIP3   OH235838   0.024   1.648   7.107  0.1985 -0.5305  0.1862
 4760TIP3    H135839  -0.054   1.602   7.077 -0.5817  0.9897 -0.2391
 4760TIP3    H235840   0.076   1.660   7.028  0.8200 -1.4275  0.4472
 4761TIP3   OH235841   2.448   2.852   0.604  0.1591  0.1131  0.2158
 4761TIP3    H135842   2.503   2.929   0.590  1.1038 -0.1348  2.1798
 4761TIP3    H235843   2.496   2.780   0.562 -0.5440  0.4969 -1.3001
 4762TIP3   OH235844   6.666   2.108   7.903  0.4294 -0.2891 -0.1405
 4762TIP3    H135845   6.616   2.182   7.870 -2.1223 -1.6316  0.4685
 4762TIP3    H235846   6.755   2.121   7.869 -0.6272  1.4872 -2.4282
 4763TIP3   OH235847   4.110   1.232   2.599 -0.4749 -0.4618 -0.1643
 4763TIP3    H135848   4.182   1.220   2.660 -1.3985  0.2882  1.1244
 4763TIP3    H235849   4.042   1.276   2.650 -1.1021  0.6530 -1.8564
 4764TIP3   OH235850   1.793   1.443   8.704  0.1772 -1.0074  0.5064
 4764TIP3    H135851   1.850   1.369   8.725  1.5961 -0.5141 -1.3389
 4764TIP3    H235852   1.835   1.486   8.630 -1.7147  0.4360  0.1780
 4765TIP3   OH235853   2.627   0.701   8.732 -0.0361  0.1284 -0.5946
 4765TIP3    H135854   2.608   0.738   8.646  0.8766  1.6510 -0.1728
 4765TIP3    H235855   2.575   0.753   8.793  3.1960  2.6604  0.2918
 4766TIP3   OH235856   3.259   0.188   0.402 -0.1513  0.1715 -0.1964
 4766TIP3    H135857   3.176   0.171   0.448  0.7707 -2.8647  0.5659
 4766TIP3    H235858   3.309   0.243   0.462 -0.2643 -0.9661  0.9783
 4767TIP3   OH235859   4.353   6.742   7.390 -0.0545 -0.4344 -0.4879
 4767TIP3    H135860   4.312   6.686   7.324  2.7965 -1.9276 -1.1809
 4767TIP3    H235861   4.406   6.681   7.443  1.4716  1.3252  0.1327
 4768TIP3   OH235862   3.454   0.033   7.705  0.3826 -0.3198 -0.3319
 4768TIP3    H135863   3.430  -0.055   7.678  1.0522 -0.7608  0.4785
 4768TIP3    H235864   3.397   0.051   7.780  0.0368  0.0678 -0.6766
 4769TIP3   OH235865   1.292   5.195   8.635 -0.2080 -0.4915 -0.4823
 4769TIP3    H135866   1.215   5.142   8.658 -1.0194  0.7361 -0.2947
 4769TIP3    H235867   1.287   5.271   8.693  1.7626 -0.8978  0.2897
 4770TIP3   OH235868   1.586   5.541   6.734 -0.2200 -0.5087 -0.3030
 4770TIP3    H135869   1.576   5.465   6.791 -0.2010 -0.0888  0.2725
 4770TIP3    H235870   1.524   5.606   6.769  2.2828  1.1007  1.5707
 4771TIP3   OH235871   3.463   6.790   0.585  0.8009  0.5297 -0.2710
 4771TIP3    H135872   3.445   6.819   0.675  1.1644  1.6137 -0.5343
 4771TIP3    H235873   3.454   6.869   0.532 -1.3201 -0.4483 -1.4902
 4772TIP3   OH235874   0.032   6.261   7.807  0.2282 -0.2060  0.0760
 4772TIP3    H135875   0.067   6.257   7.896 -0.1755 -1.1284  0.1953
 4772TIP3    H235876  -0.063   6.266   7.818  0.2095  0.4067 -0.2917
 4773TIP3   OH235877   1.050   3.960   7.083  0.2497  0.2323  0.6736
 4773TIP3    H135878   1.098   3.917   7.154  0.9358  0.5143  0.3918
 4773TIP3    H235879   1.112   4.023   7.047  0.2493 -0.5591 -0.7845
 4774TIP3   OH235880   0.841   6.258   1.259 -1.0434  0.2732  0.1062
 4774TIP3    H135881   0.811   6.272   1.169 -1.9035  1.8567  0.5985
 4774TIP3    H235882   0.762   6.264   1.312 -0.2339  2.0993  1.2076
 4775TIP3   OH235883   2.981   4.711   6.846 -0.1741 -0.4074 -0.4833
 4775TIP3    H135884   3.003   4.727   6.938  0.6561 -1.3375 -0.4951
 4775TIP3    H235885   2.973   4.798   6.808 -0.4004 -0.0073  0.4419
 4776TIP3   OH235886   5.982   4.249   1.068 -0.2006  0.2386  0.0671
 4776TIP3    H135887   5.933   4.179   1.025  0.0862  0.8405 -1.3136
 4776TIP3    H235888   6.074   4.227   1.052 -0.0790  0.2907  0.6862
 4777TIP3   OH235889   5.691   0.880   0.477  0.3820 -0.1089 -0.5337
 4777TIP3    H135890   5.597   0.862   0.472  0.5547 -1.5267  0.5360
 4777TIP3    H235891   5.725   0.811   0.534  1.9788  0.7703 -0.3703
 4778TIP3   OH235892   3.673   1.086   0.158 -0.6119 -0.3600  0.8962
 4778TIP3    H135893   3.735   1.158   0.152  0.0204 -0.8690  1.2271
 4778TIP3    H235894   3.727   1.008   0.171 -1.2887 -0.8834  0.6545
 4779TIP3   OH235895   3.438   1.848   1.807 -0.7225 -0.2705 -0.9599
 4779TIP3    H135896   3.449   1.814   1.895  0.0198  0.1983 -0.8641
 4779TIP3    H235897   3.387   1.781   1.761 -3.1504  0.4769  0.4397
 4780TIP3   OH235898   2.065   5.450   8.219 -0.5619 -0.3401  0.0687
 4780TIP3    H135899   2.147   5.414   8.184 -1.4267 -0.6167 -1.7712
 4780TIP3    H235900   2.039   5.517   8.155 -1.5945  0.0057  0.8263
 4781TIP3   OH235901   3.218   0.087   1.087  0.4109 -0.3795  0.1042
 4781TIP3    H135902   3.240   0.174   1.121 -0.9017 -0.1027  0.2817
 4781TIP3    H235903   3.265   0.027   1.145 -0.0449  0.1602  1.0590
 4782TIP3   OH235904   2.111   4.169   2.309 -0.0823 -0.0180  0.3120
 4782TIP3    H135905   2.082   4.247   2.356 -1.4402 -0.7185  0.7083
 4782TIP3    H235906   2.165   4.121   2.372  0.6785  0.5389  0.0975
 4783TIP3   OH235907   6.716   1.904   8.358  0.2677  0.1012  0.1403
 4783TIP3    H135908   6.629   1.939   8.339 -0.2861  0.1369  2.3757
 4783TIP3    H235909   6.774   1.980   8.354 -0.1943  0.4944  0.7648
 4784TIP3   OH235910   6.143   4.934   1.369  0.7210  0.4272 -0.1956
 4784TIP3    H135911   6.219   4.946   1.427 -0.3045  0.7908  1.1154
 4784TIP3    H235912   6.171   4.865   1.308  2.2674  0.8791 -0.0429
 4785TIP3   OH235913   6.237   0.881   0.236  0.1437  0.0374 -0.1674
 4785TIP3    H135914   6.149   0.844   0.244 -0.2436  0.2091 -2.7987
 4785TIP3    H235915   6.228   0.971   0.269 -0.6458  0.0253 -0.3303
 4786TIP3   OH235916   3.926   1.568   0.813 -0.5161  0.0617  0.2942
 4786TIP3    H135917   3.898   1.477   0.804  0.3454 -0.2466  0.6192
 4786TIP3    H235918   3.914   1.588   0.906  0.0418  0.0212  0.3775
 4787TIP3   OH235919   0.230   5.531   1.120  0.0424 -0.2570 -0.1064
 4787TIP3    H135920   0.227   5.480   1.039  0.8356 -0.8576  0.2220
 4787TIP3    H235921   0.279   5.610   1.098 -1.3129  0.4587 -0.6556
 4788TIP3   OH235922   1.080   4.801   7.210 -0.3710  0.0569  0.1061
 4788TIP3    H135923   1.116   4.718   7.178  1.2619  1.1849 -1.1416
 4788TIP3    H235924   1.099   4.801   7.304 -1.0665 -1.2854  0.2683
 4789TIP3   OH235925   4.542   4.896   0.225  0.3773 -0.1886  1.2910
 4789TIP3    H135926   4.583   4.963   0.171 -1.2710 -1.0919 -1.2652
 4789TIP3    H235927   4.614   4.841   0.255  1.3774  0.4817  0.1752
 4790TIP3   OH235928   2.536   2.238   7.919  0.0168  0.1688  0.3868
 4790TIP3    H135929   2.502   2.190   7.844  0.4987  1.6246 -0.8195
 4790TIP3    H235930   2.621   2.271   7.890  0.2459  0.6835  1.5949
 4791TIP3   OH235931   4.705   3.672   8.198 -1.2398 -0.2238 -0.4575
 4791TIP3    H135932   4.674   3.750   8.244  0.7495  0.2063  0.2488
 4791TIP3    H235933   4.678   3.686   8.107 -0.2424  1.6911 -0.5014
 4792TIP3   OH235934   6.826   2.234   6.699  0.0417 -0.4804  0.5825
 4792TIP3    H135935   6.838   2.140   6.712  2.6972  0.0161  2.7437
 4792TIP3    H235936   6.896   2.274   6.751 -2.0690  2.7705  1.2063
 4793TIP3   OH235937   6.170   0.164   7.765  0.1578 -0.1335  0.0150
 4793TIP3    H135938   6.080   0.153   7.734  0.2267  0.5651 -0.4409
 4793TIP3    H235939   6.224   0.149   7.688  0.3575  1.0047 -0.0786
 4794TIP3   OH235940   2.388   3.153   0.842  0.6807 -0.3354 -0.3219
 4794TIP3    H135941   2.297   3.136   0.865  1.1227 -1.1133  0.9974
 4794TIP3    H235942   2.410   3.234   0.887  0.3150  0.5138 -1.6310
 4795TIP3   OH235943   3.843   5.534   1.647  0.1978  0.0719 -0.0727
 4795TIP3    H135944   3.787   5.457   1.658 -0.2317  0.3210 -0.5097
 4795TIP3    H235945   3.923   5.512   1.695  0.4270 -1.0042 -0.8979
 4796TIP3   OH235946   4.578   5.647   7.979  0.0382 -0.2450  0.5293
 4796TIP3    H135947   4.637   5.679   7.912 -0.7534  2.0628  0.8585
 4796TIP3    H235948   4.502   5.614   7.931 -1.2117  2.7962  0.1875
 4797TIP3   OH235949   1.352   0.430   7.412 -0.1808 -0.0490 -0.0829
 4797TIP3    H135950   1.328   0.342   7.441 -1.0110  0.3130  0.3473
 4797TIP3    H235951   1.295   0.448   7.338  1.0084 -0.4366 -1.1304
 4798TIP3   OH235952   2.449   5.947   7.384 -0.4018 -0.1243 -0.0602
 4798TIP3    H135953   2.463   5.853   7.373  0.3319 -0.0007 -0.2312
 4798TIP3    H235954   2.458   5.983   7.295  0.3429  0.2291  0.1495
 4799TIP3   OH235955   2.060   4.671   7.588  0.1920  0.4042  0.3182
 4799TIP3    H135956   2.101   4.740   7.535  2.8138  0.2542  1.9499
 4799TIP3    H235957   1.974   4.707   7.612  0.8833  2.4846 -0.0950
 4800TIP3   OH235958   0.357   4.085   7.934  0.3662 -0.1457 -0.2979
 4800TIP3    H135959   0.451   4.091   7.952  0.8068  0.6360 -2.5248
 4800TIP3    H235960   0.344   3.995   7.903  0.0437 -0.7461  1.4660
 4801TIP3   OH235961   2.431   3.272   8.519 -0.2181  0.0839 -0.3384
 4801TIP3    H135962   2.447   3.330   8.445 -0.7621 -1.4899 -1.7331
 4801TIP3    H235963   2.350   3.306   8.558 -0.2151  0.6043 -0.7695
 4802TIP3   OH235964   3.624   2.505   7.898 -0.4265  0.2048 -0.0937
 4802TIP3    H135965   3.589   2.520   7.810  0.4613  0.9459 -0.3464
 4802TIP3    H235966   3.579   2.569   7.953  0.9055  1.6155 -0.5385
 4803TIP3   OH235967   0.611   0.872   8.283  0.5212  0.2849  0.1760
 4803TIP3    H135968   0.575   0.820   8.211  1.6363  1.4253 -1.2786
 4803TIP3    H235969   0.577   0.830   8.362 -2.3869  0.1304 -1.0082
 4804TIP3   OH235970   2.254   6.532   0.225  0.4340 -0.5914 -0.0047
 4804TIP3    H135971   2.230   6.449   0.266  1.1789 -0.5403  0.5615
 4804TIP3    H235972   2.347   6.542   0.245  0.1574  0.8085  0.6960
 4805TIP3   OH235973   0.536   2.090   6.829 -0.2523 -0.3998  0.3051
 4805TIP3    H135974   0.601   2.022   6.847  0.7471  0.5320  0.3183
 4805TIP3    H235975   0.559   2.124   6.742 -1.1604 -0.5374 -0.0013
 4806TIP3   OH235976   5.399   3.999   0.979 -0.5053  0.3014  0.6217
 4806TIP3    H135977   5.394   3.992   1.075 -1.9790  2.3452  0.7648
 4806TIP3    H235978   5.470   4.061   0.963  0.8591 -1.3014  0.2694
 4807TIP3   OH235979   4.016   5.674   0.566 -0.2170  0.2629 -0.4511
 4807TIP3    H135980   4.002   5.697   0.658  0.8101  0.0894 -0.2463
 4807TIP3    H235981   4.105   5.703   0.547 -0.1845 -0.3094 -1.2065
 4808TIP3   OH235982   3.850   2.188   0.575 -0.3013 -0.4854  0.0031
 4808TIP3    H135983   3.924   2.185   0.636 -0.3442 -1.6842  0.0312
 4808TIP3    H235984   3.800   2.266   0.601  0.1803 -0.4659  0.9089
 4809TIP3   OH235985   4.336   2.327   8.383 -0.6651  0.2884  0.3588
 4809TIP3    H135986   4.351   2.403   8.326 -0.6053 -2.5343 -3.8920
 4809TIP3    H235987   4.251   2.342   8.422 -0.8046  2.3817 -0.6401
 4810TIP3   OH235988   2.757   6.042   8.553  0.0229  0.2235  0.7074
 4810TIP3    H135989   2.833   6.099   8.550  0.0399  0.1672 -1.1367
 4810TIP3    H235990   2.708   6.062   8.473 -1.3384 -0.5026  1.3109
 4811TIP3   OH235991   6.040   1.799   7.649 -0.0564 -0.1829 -0.4755
 4811TIP3    H135992   6.015   1.858   7.720 -0.2743  0.3048 -0.9498
 4811TIP3    H235993   6.098   1.735   7.690 -0.2149  0.0702  0.1496
 4812TIP3   OH235994   6.425   0.205   7.245  0.4909 -0.2957  0.0774
 4812TIP3    H135995   6.379   0.128   7.278 -1.2871  0.8999  0.5533
 4812TIP3    H235996   6.386   0.222   7.159  2.0113 -0.8223 -0.7600
 4813TIP3   OH235997   3.330   5.247   8.451  0.2228  0.4639  0.0223
 4813TIP3    H135998   3.368   5.211   8.531 -1.8190 -2.0513 -0.0287
 4813TIP3    H235999   3.332   5.175   8.388 -0.1783  1.7308 -1.5167
 4814TIP3   OH236000   4.032   3.322   0.018  0.1217 -0.2173  0.1595
 4814TIP3    H136001   4.001   3.294   0.104  1.9794  0.5106  1.1133
 4814TIP3    H236002   4.121   3.353   0.033 -0.0551  1.4340 -1.7415
 4815TIP3   OH236003   1.866   2.115   2.647  0.8332  0.1954 -0.3728
 4815TIP3    H136004   1.808   2.177   2.604 -0.7313 -0.7469  0.2609
 4815TIP3    H236005   1.949   2.161   2.657  0.0777  1.7352 -0.9771
 4816TIP3   OH236006   0.055   2.316   0.558  0.2160 -0.0911 -0.8094
 4816TIP3    H136007   0.049   2.220   0.558 -0.5330 -0.0804 -2.2870
 4816TIP3    H236008   0.022   2.342   0.472  1.5433  1.4279 -0.9157
 4817TIP3   OH236009   6.644   0.174   0.396  0.0084 -0.1613 -0.5027
 4817TIP3    H136010   6.645   0.242   0.328  0.8604  2.2274  1.7246
 4817TIP3    H236011   6.566   0.193   0.448  0.3504 -0.7995  0.2646
 4818TIP3   OH236012   6.103   5.318   7.554 -0.3950 -0.5355 -0.0360
 4818TIP3    H136013   6.176   5.357   7.602  0.8445 -3.2471  0.4410
 4818TIP3    H236014   6.038   5.298   7.621 -1.2453  1.0411 -0.3438
 4819TIP3   OH236015   3.283   3.192   8.297  0.0886  0.0669 -0.1879
 4819TIP3    H136016   3.302   3.279   8.333 -2.3164  0.9094 -0.7550
 4819TIP3    H236017   3.261   3.139   8.373  0.3473  0.3008  0.0530
 4820TIP3   OH236018   4.844   5.034   0.916  0.0599 -0.3504 -0.2926
 4820TIP3    H136019   4.918   5.094   0.906 -0.4814  0.5053  0.6685
 4820TIP3    H236020   4.789   5.051   0.839 -0.8994  1.6022  0.7382
 4821TIP3   OH236021   3.169   2.118   0.892 -0.6754 -0.0442  0.1091
 4821TIP3    H136022   3.073   2.124   0.892 -0.5957  2.4962 -0.9987
 4821TIP3    H236023   3.188   2.044   0.834 -1.9614 -0.1157 -0.2522
 4822TIP3   OH236024   6.093   0.284   7.473 -0.0671 -0.0788 -0.2005
 4822TIP3    H136025   6.064   0.313   7.387  0.7575 -0.5633 -0.6488
 4822TIP3    H236026   6.012   0.277   7.524 -0.6221 -0.3841 -1.1042
 4823TIP3   OH236027   4.231   6.590   7.198  0.2608 -0.6098 -0.3564
 4823TIP3    H136028   4.138   6.612   7.206  0.0799 -1.6315  0.5526
 4823TIP3    H236029   4.237   6.500   7.229  1.3887 -0.9511 -1.4927
 4824TIP3   OH236030   6.708   6.541   8.046  0.2739  0.4214  0.1608
 4824TIP3    H136031   6.618   6.547   8.016  0.4277  0.4504 -0.3016
 4824TIP3    H236032   6.760   6.576   7.973  0.4182  4.4042  1.8895
 4825TIP3   OH236033   2.231   3.666   7.616  0.5839  0.4432 -0.1228
 4825TIP3    H136034   2.238   3.573   7.595  0.1305  0.7422 -1.7440
 4825TIP3    H236035   2.140   3.679   7.643  0.8308  0.2997  0.8075
 4826TIP3   OH236036   0.130   4.330   7.923 -0.0407 -0.4016 -0.0420
 4826TIP3    H136037   0.198   4.323   7.856 -0.9231  1.2665 -1.1619
 4826TIP3    H236038   0.129   4.244   7.965 -0.3968 -2.0091 -3.0801
 4827TIP3   OH236039   1.082   4.851   8.354  0.1938 -0.4655  0.6056
 4827TIP3    H136040   1.140   4.927   8.354  0.3591 -0.5605  1.8178
 4827TIP3    H236041   1.017   4.870   8.287 -0.2106  1.1056  1.3836
 4828TIP3   OH236042   5.116   3.866   0.565  0.2227  0.1190 -0.6648
 4828TIP3    H136043   5.100   3.951   0.523  0.1397 -0.2575 -1.4151
 4828TIP3    H236044   5.129   3.887   0.657  0.2212  0.9514 -0.8436
 4829TIP3   OH236045   3.665   3.907   0.758 -0.2951  0.4691 -0.2191
 4829TIP3    H136046   3.736   3.970   0.750 -1.0783  1.4765  0.4278
 4829TIP3    H236047   3.626   3.926   0.844  0.4853 -2.0132  0.7865
 4830TIP3   OH236048   6.506   6.496   0.774  0.1605  0.4186  0.2324
 4830TIP3    H136049   6.553   6.491   0.857 -0.8732  1.2817  0.8922
 4830TIP3    H236050   6.535   6.419   0.725 -0.8562 -1.3433  2.2593
 4831TIP3   OH236051   1.719   4.165   1.654 -0.3745 -0.5919  0.2727
 4831TIP3    H136052   1.698   4.195   1.566  0.6918  0.7065  0.4261
 4831TIP3    H236053   1.643   4.188   1.706 -0.4456 -0.1062 -0.0442
 4832TIP3   OH236054   6.186   1.743   1.125  0.5834 -0.5919  0.2591
 4832TIP3    H136055   6.228   1.827   1.105  0.1053  0.0509  1.7982
 4832TIP3    H236056   6.186   1.696   1.042  1.0579  0.8404 -0.5910
 4833TIP3   OH236057   6.791   5.375   0.580  0.5812  0.0191  0.3965
 4833TIP3    H136058   6.720   5.436   0.601 -0.1361 -0.6378 -0.0422
 4833TIP3    H236059   6.839   5.365   0.662  1.3092  1.8967  0.2451
 4834TIP3   OH236060   2.310   0.409   1.459  0.2611 -0.3558  0.2415
 4834TIP3    H136061   2.377   0.353   1.422 -0.2473 -2.1330  1.8211
 4834TIP3    H236062   2.349   0.443   1.540 -0.9054 -2.0485  1.6012
 4835TIP3   OH236063   6.660   0.441   1.733 -0.5092 -0.0603  0.1534
 4835TIP3    H136064   6.711   0.369   1.770  1.3944  0.9176 -0.4352
 4835TIP3    H236065   6.580   0.400   1.700 -0.6366 -1.5006  2.0595
 4836TIP3   OH236066   4.457   0.410   8.750 -0.3888  0.1053 -0.0938
 4836TIP3    H136067   4.438   0.368   8.666 -2.1360 -0.4255  0.5035
 4836TIP3    H236068   4.453   0.338   8.814  1.5089  0.3915  0.4108
 4837TIP3   OH236069   0.853   5.085   6.903 -0.5466 -0.0231 -0.8950
 4837TIP3    H136070   0.780   5.145   6.890 -1.4463 -1.0109 -0.5007
 4837TIP3    H236071   0.824   5.002   6.865  0.0182 -0.6698  0.0414
 4838TIP3   OH236072   2.277   1.572   1.505 -0.3081 -0.3742  0.4563
 4838TIP3    H136073   2.346   1.506   1.508  1.3847  1.1724 -1.1631
 4838TIP3    H236074   2.308   1.642   1.563 -0.6865  0.2040 -0.0267
 4839TIP3   OH236075   2.001   5.984   8.378  0.2642  0.1104 -0.3638
 4839TIP3    H136076   1.919   5.938   8.395 -0.0118  0.3454 -1.0167
 4839TIP3    H236077   2.068   5.934   8.424 -0.2124 -0.2259 -0.0350
 4840TIP3   OH236078   5.986   5.898   1.308  0.6561  0.6832  0.1668
 4840TIP3    H136079   5.964   5.806   1.324  1.0013  0.9248  2.2761
 4840TIP3    H236080   5.903   5.945   1.320  0.8673  0.8414  1.0632
 4841TIP3   OH236081   5.590   3.771   0.872 -0.2877  0.2320 -0.0306
 4841TIP3    H136082   5.665   3.774   0.932  0.3744  1.0556 -0.8626
 4841TIP3    H236083   5.530   3.837   0.905 -0.4906 -0.1756  0.4279
 4842TIP3   OH236084   5.449   1.942   8.394 -0.1253  0.1745  0.0492
 4842TIP3    H136085   5.374   1.981   8.349 -0.5801 -0.6783  0.0495
 4842TIP3    H236086   5.504   2.017   8.417 -0.9317  0.8083 -0.0173
 4843TIP3   OH236087   4.899   4.231   8.292  0.9305  0.2243  0.7688
 4843TIP3    H136088   4.877   4.139   8.308  0.0581 -0.2252 -2.4191
 4843TIP3    H236089   4.928   4.263   8.377  2.1117 -3.2112  1.8409
 4844TIP3   OH236090   0.910   5.132   7.162  0.1900  0.2046 -0.0155
 4844TIP3    H136091   0.843   5.200   7.154 -0.6233 -0.6133 -0.4265
 4844TIP3    H236092   0.906   5.085   7.078 -0.1245 -1.1025  0.7075
 4845TIP3   OH236093   2.462   0.674   1.132 -0.6263 -0.0118  0.1826
 4845TIP3    H136094   2.518   0.707   1.062  1.4796  0.5180  2.0209
 4845TIP3    H236095   2.521   0.659   1.205 -2.7237 -0.6502  1.8426
 4846TIP3   OH236096   4.999   1.816   1.158  0.1876 -0.3702 -0.1225
 4846TIP3    H136097   5.002   1.749   1.090  0.8108 -0.2087 -0.2655
 4846TIP3    H236098   5.045   1.778   1.233  2.8141  0.7678 -1.0370
 4847TIP3   OH236099   1.210   1.218   1.577  0.2791  0.3965 -0.0298
 4847TIP3    H136100   1.117   1.239   1.566  0.4257  2.4109  1.8760
 4847TIP3    H236101   1.210   1.139   1.630 -0.3236 -0.1205 -0.7711
 4848TIP3   OH236102   2.429   0.881   0.547  0.1790 -0.4310  0.6144
 4848TIP3    H136103   2.499   0.820   0.525  0.0955 -0.3901  0.2272
 4848TIP3    H236104   2.352   0.848   0.500  0.5826  1.0169 -1.1487
 4849TIP3   OH236105   0.122   0.075   1.377  0.4390 -0.0397  0.6905
 4849TIP3    H136106   0.038   0.086   1.421 -0.0175  0.6784 -0.3158
 4849TIP3    H236107   0.108   0.003   1.315 -0.0578  1.2951 -0.8310
 4850TIP3   OH236108   4.745   5.172   0.291  0.7601 -0.3836  0.2502
 4850TIP3    H136109   4.806   5.246   0.289  0.0810  0.1659 -0.9496
 4850TIP3    H236110   4.752   5.133   0.204 -1.6801  0.6043 -0.4603
 4851TIP3   OH236111   2.086   0.273   1.077 -0.2969 -0.2285 -0.3764
 4851TIP3    H136112   2.035   0.351   1.054  1.6325  1.5075  0.8788
 4851TIP3    H236113   2.049   0.244   1.160  1.3089  1.6487  1.0660
 4852TIP3   OH236114   2.628   0.191   0.994 -0.1121  0.1154 -0.0027
 4852TIP3    H136115   2.571   0.114   1.004  0.1304 -0.2041 -0.9472
 4852TIP3    H236116   2.592   0.238   0.919  0.8387 -0.0753 -0.5914
 4853TIP3   OH236117   1.779   4.327   6.864 -0.0805  0.1549  0.6694
 4853TIP3    H136118   1.842   4.294   6.929  1.2160  0.0610 -0.5604
 4853TIP3    H236119   1.817   4.300   6.780  0.5817  3.8825 -0.4097
 4854TIP3   OH236120   1.621   2.315   7.425 -0.3667 -0.1942 -0.2136
 4854TIP3    H136121   1.602   2.222   7.416 -0.0890 -0.1681 -1.3406
 4854TIP3    H236122   1.624   2.331   7.519  0.2603 -1.4714  0.0054
 4855TIP3   OH236123   0.532   3.022   7.641 -0.3076  0.3260  0.3244
 4855TIP3    H136124   0.551   3.079   7.566  3.1642  0.0795  0.8311
 4855TIP3    H236125   0.452   2.975   7.616  0.1859  0.9296 -2.8170
 4856TIP3   OH236126   5.015   4.578   1.431  0.6484  0.4213 -0.3425
 4856TIP3    H136127   5.085   4.564   1.495  0.6531 -0.5270 -0.5323
 4856TIP3    H236128   4.982   4.490   1.412  1.2455  0.5610 -2.2895
 4857TIP3   OH236129   6.174   4.372   0.054 -0.4717 -0.0039  0.1928
 4857TIP3    H136130   6.130   4.457   0.045  0.4081  0.7166  2.0822
 4857TIP3    H236131   6.144   4.339   0.139 -0.4059 -1.3645 -0.2935
 4858TIP3   OH236132   3.097   0.524   7.494  0.7500 -0.6220 -0.0377
 4858TIP3    H136133   3.049   0.495   7.571  0.4787 -2.5001 -0.8694
 4858TIP3    H236134   3.183   0.550   7.528 -0.1961  1.0527  1.2100
 4859TIP3   OH236135   6.780   3.409   1.792  0.5776 -0.4404  0.1722
 4859TIP3    H136136   6.709   3.428   1.730  1.6795  2.2647 -0.4054
 4859TIP3    H236137   6.738   3.411   1.878 -0.0737  1.2235 -0.1528
 4860TIP3   OH236138   2.945   3.593   8.739 -0.7083 -0.4465 -0.6089
 4860TIP3    H136139   2.973   3.635   8.658 -1.2491 -0.7863 -0.9786
 4860TIP3    H236140   2.969   3.501   8.728 -0.4703 -0.4314 -0.2348
 4861TIP3   OH236141   6.537   2.025   7.137  0.6066 -0.2109 -0.2984
 4861TIP3    H136142   6.521   1.933   7.113  2.4484 -0.4804 -0.5806
 4861TIP3    H236143   6.565   2.021   7.229  0.0697  0.1617 -0.1080
 4862TIP3   OH236144   2.799   4.696   0.998 -0.2998 -0.2032  0.1472
 4862TIP3    H136145   2.857   4.707   1.073 -2.3084 -1.6697  2.0158
 4862TIP3    H236146   2.831   4.617   0.954  1.8652  1.5087 -1.6333
 4863TIP3   OH236147   4.716   2.227   8.610  0.3448 -0.1119 -0.3918
 4863TIP3    H136148   4.727   2.201   8.702  0.4300 -0.9137 -0.6156
 4863TIP3    H236149   4.804   2.217   8.572  0.4588  0.8826 -0.4058
 4864TIP3   OH236150   3.082   2.004   1.792 -0.1067 -0.5833 -0.2159
 4864TIP3    H136151   3.100   2.096   1.813  0.4557 -0.2716 -1.8869
 4864TIP3    H236152   3.166   1.960   1.802 -0.1625 -0.7144 -0.3189
 4865TIP3   OH236153   1.497   1.220   0.164  0.1284 -0.3861  0.1484
 4865TIP3    H136154   1.590   1.241   0.165  0.3095 -0.5139 -3.0376
 4865TIP3    H236155   1.454   1.296   0.202  1.4717  0.0403  0.8680
 4866TIP3   OH236156   2.103   1.641   0.138 -0.7694 -0.3516 -0.5103
 4866TIP3    H136157   2.008   1.637   0.130 -0.6060 -0.3239 -3.9891
 4866TIP3    H236158   2.123   1.734   0.146 -1.0201 -0.2891 -0.6083
 4867TIP3   OH236159   1.134   6.225   7.109  0.5070 -0.5083 -0.8980
 4867TIP3    H136160   1.194   6.264   7.172 -0.0173 -0.6161 -0.3194
 4867TIP3    H236161   1.120   6.294   7.044 -0.6387  0.4145  0.2703
 4868TIP3   OH236162   3.744   0.304   7.684  0.1966  0.8357  0.2567
 4868TIP3    H136163   3.662   0.275   7.724 -0.8832  0.4141 -2.0602
 4868TIP3    H236164   3.770   0.231   7.628  2.1494  1.0036  0.8676
 4869TIP3   OH236165   1.144   4.890   7.923 -0.4954 -0.4443 -0.0326
 4869TIP3    H136166   1.095   4.927   7.851  1.9813  0.2885 -1.4680
 4869TIP3    H236167   1.139   4.956   7.993 -1.7333 -0.5327 -0.0150
 4870TIP3   OH236168   1.036   3.575   7.381  0.6073  0.2164 -0.2670
 4870TIP3    H136169   1.106   3.513   7.363  1.4463  1.0029  0.2460
 4870TIP3    H236170   0.974   3.562   7.309  1.3401 -0.3889 -0.8040
 4871TIP3   OH236171   4.321   5.577   7.839 -0.3945  0.4152  0.7285
 4871TIP3    H136172   4.324   5.662   7.794 -4.1688  1.1203  1.4453
 4871TIP3    H236173   4.285   5.517   7.774 -0.6124  0.1185  1.1181
 4872TIP3   OH236174   1.457   1.849   7.268 -0.3331  0.7138  0.3737
 4872TIP3    H136175   1.444   1.811   7.181 -0.5294  0.4557  0.5151
 4872TIP3    H236176   1.369   1.868   7.299 -0.2406  1.2229  0.3332
 4873TIP3   OH236177   1.946   0.993   2.224 -0.0625 -0.2612 -0.0519
 4873TIP3    H136178   1.981   0.915   2.267  1.8396  0.7377  0.3594
 4873TIP3    H236179   1.964   1.064   2.285 -1.0897  0.6100 -0.7288
 4874TIP3   OH236180   2.776   3.319   2.048 -0.1822 -0.4496  0.3896
 4874TIP3    H136181   2.706   3.254   2.058  0.2656 -0.8878  0.6949
 4874TIP3    H236182   2.735   3.402   2.072 -0.6862 -0.6566  0.2563
 4875TIP3   OH236183   4.235   3.262   0.887  0.2928  0.0933 -0.1978
 4875TIP3    H136184   4.237   3.315   0.807 -1.2507 -1.1534 -1.1216
 4875TIP3    H236185   4.185   3.314   0.949 -0.0346  0.3201 -0.6464
 4876TIP3   OH236186   5.889   5.418   7.708  0.2056  0.5351 -0.4043
 4876TIP3    H136187   5.831   5.360   7.757  0.0177  0.5368 -0.6208
 4876TIP3    H236188   5.836   5.494   7.687 -0.4127 -0.3811 -2.4586
 4877TIP3   OH236189   0.859   4.294   1.594 -0.3094  0.0935 -0.2095
 4877TIP3    H136190   0.934   4.317   1.539 -0.5866 -2.6010 -1.8757
 4877TIP3    H236191   0.785   4.291   1.533 -0.7311 -2.4267  0.3311
 4878TIP3   OH236192   2.865   3.226   1.533  0.2018 -0.0323 -0.5936
 4878TIP3    H136193   2.789   3.208   1.588  1.4284  1.0376  1.5726
 4878TIP3    H236194   2.850   3.316   1.502  0.1507 -0.1625 -0.9528
 4879TIP3   OH236195   3.606   3.258   8.282  0.0932 -0.2915  0.3691
 4879TIP3    H136196   3.697   3.262   8.312  0.6441  1.5074 -1.2930
 4879TIP3    H236197   3.555   3.292   8.355  0.9070 -0.0311  0.8291
 4880TIP3   OH236198   0.418   5.081   8.162  0.3480  0.6533  0.4166
 4880TIP3    H136199   0.445   4.994   8.132  1.3301  1.6896 -1.9714
 4880TIP3    H236200   0.333   5.067   8.204 -0.1085 -1.3238 -1.0191
 4881TIP3   OH236201   0.943   4.289   0.339  0.0390  0.1109  0.0725
 4881TIP3    H136202   0.916   4.377   0.366  0.8495  0.3296  0.1992
 4881TIP3    H236203   1.025   4.303   0.290 -0.8997 -0.3620 -1.7261
 4882TIP3   OH236204   2.351   5.306   8.227 -0.1101  0.2611 -0.0408
 4882TIP3    H136205   2.299   5.254   8.287  1.0016 -0.6382  0.1779
 4882TIP3    H236206   2.383   5.244   8.161 -0.7366  1.1052 -1.1832
 4883TIP3   OH236207   1.903   1.417   7.441 -0.3163  0.4956 -0.1545
 4883TIP3    H136208   1.914   1.456   7.354 -1.2256  2.0781  0.4223
 4883TIP3    H236209   1.809   1.404   7.450 -0.1446 -0.6437  0.2070
 4884TIP3   OH236210   1.612   1.773   8.268 -0.2040 -0.6773  0.0895
 4884TIP3    H136211   1.594   1.686   8.233 -1.0437  0.1023 -1.5091
 4884TIP3    H236212   1.529   1.801   8.306 -1.1378  0.9041 -2.8208
 4885TIP3   OH236213   0.439   4.187   1.700 -0.4062  0.1143  0.4248
 4885TIP3    H136214   0.535   4.184   1.701 -0.4162 -0.3085  0.3987
 4885TIP3    H236215   0.413   4.106   1.656 -0.7199  1.7290 -2.5741
 4886TIP3   OH236216   3.724   4.492   1.795  0.5736  0.2796 -0.1615
 4886TIP3    H136217   3.794   4.434   1.827  1.5736 -0.0180 -2.6216
 4886TIP3    H236218   3.644   4.455   1.831  1.6241  0.6414  2.7759
 4887TIP3   OH236219   3.522   1.428   1.744  0.1974  0.1992  0.3028
 4887TIP3    H136220   3.530   1.476   1.662  0.4862  0.4572  0.4805
 4887TIP3    H236221   3.530   1.494   1.812 -0.5940  0.0617  0.5382
 4888TIP3   OH236222   4.773   3.558   2.001 -0.8768  0.7547  0.6437
 4888TIP3    H136223   4.861   3.551   2.039 -0.4467 -1.0530 -0.5729
 4888TIP3    H236224   4.786   3.605   1.919 -1.1468  0.9776  0.7269
 4889TIP3   OH236225   2.875   2.977   2.092  0.9597  0.0489 -0.1278
 4889TIP3    H136226   2.945   2.984   2.027 -0.5021  3.2990 -1.5826
 4889TIP3    H236227   2.900   3.038   2.161  0.2927  0.0908  0.0842
 4890TIP3   OH236228   1.954   4.234   8.699 -0.3936  0.7725 -0.3738
 4890TIP3    H136229   1.901   4.206   8.624  1.2712 -0.9832 -0.9781
 4890TIP3    H236230   1.925   4.324   8.716 -3.5347 -0.0606 -0.6250
 4891TIP3   OH236231   1.418   0.073   0.314 -0.0763 -0.1326 -0.4940
 4891TIP3    H136232   1.431   0.126   0.393 -0.7903  1.5033 -1.4398
 4891TIP3    H236233   1.500   0.081   0.266  0.7610 -1.9966  0.5278
 4892TIP3   OH236234   2.991   2.847   0.423 -0.6079  0.6656  0.3202
 4892TIP3    H136235   3.081   2.874   0.405  0.1401 -1.8969 -0.1964
 4892TIP3    H236236   2.944   2.861   0.341  0.2598 -1.2994 -0.5831
 4893TIP3   OH236237   5.281   3.968   8.156 -0.1801  0.2391  0.3331
 4893TIP3    H136238   5.313   3.880   8.178  0.9190  1.0845  2.3823
 4893TIP3    H236239   5.315   3.983   8.067 -0.0444 -1.2306  0.0998
 4894TIP3   OH236240   6.285   3.364   7.092 -0.3805  0.5931  0.4286
 4894TIP3    H136241   6.347   3.414   7.039  1.1229 -1.4803  0.1312
 4894TIP3    H236242   6.259   3.290   7.037 -0.6953 -0.2628  1.6766
 4895TIP3   OH236243   5.400   0.128   1.810  0.1288  0.5693 -0.0283
 4895TIP3    H136244   5.380   0.059   1.873  1.3217  1.0665  0.9398
 4895TIP3    H236245   5.416   0.205   1.864  0.2903  1.2311 -1.0009
 4896TIP3   OH236246   4.300   0.145   0.385 -0.2070  0.0042  0.2058
 4896TIP3    H136247   4.339   0.190   0.310 -1.3464 -0.6874 -0.8268
 4896TIP3    H236248   4.320   0.202   0.459  0.0363  1.2517 -0.7729
 4897TIP3   OH236249   0.539   2.814   8.560 -0.1794 -0.0383  0.4079
 4897TIP3    H136250   0.534   2.885   8.625 -0.0091  0.3119  0.0443
 4897TIP3    H236251   0.631   2.812   8.535 -0.5185  0.9394 -1.0336
 4898TIP3   OH236252   6.632   5.113   1.773  0.3359 -0.5475 -0.1904
 4898TIP3    H136253   6.546   5.121   1.814  0.3104 -1.2262 -0.0935
 4898TIP3    H236254   6.690   5.164   1.830  0.4362 -2.0614  1.1452
 4899TIP3   OH236255   3.927   5.925   0.357 -0.0658 -0.0483  0.1552
 4899TIP3    H136256   3.901   5.920   0.449 -2.3063 -2.2877 -0.4585
 4899TIP3    H236257   3.987   5.851   0.345 -0.8044 -0.5788 -0.4089
 4900TIP3   OH236258   3.664   6.086   0.145  0.1315  0.2051 -0.1539
 4900TIP3    H136259   3.705   6.168   0.119  2.5446 -0.4904  1.2048
 4900TIP3    H236260   3.601   6.068   0.075  0.6401  2.4124 -1.2635
 4901TIP3   OH236261   1.060   0.060   1.227  0.9077 -0.0847 -0.2980
 4901TIP3    H136262   1.089   0.133   1.281  2.2037 -1.2211  0.6268
 4901TIP3    H236263   1.053   0.096   1.139  1.8082  1.0759  0.0820
 4902TIP3   OH236264   4.426   5.876   7.897  0.4116 -0.6179 -0.2918
 4902TIP3    H136265   4.414   5.949   7.958 -2.3751  0.0854 -1.5648
 4902TIP3    H236266   4.402   5.799   7.948  1.4208 -0.4604  0.4622
 4903TIP3   OH236267   4.786   2.503   0.680 -0.2968  0.2610 -0.3997
 4903TIP3    H136268   4.732   2.467   0.751 -0.1874  1.9020  0.5812
 4903TIP3    H236269   4.741   2.476   0.600 -1.8342  0.4415  0.3566
 4904TIP3   OH236270   0.202   0.246   8.735 -0.3039  0.2470  0.2306
 4904TIP3    H136271   0.282   0.268   8.784  0.6657 -1.7012 -0.3435
 4904TIP3    H236272   0.232   0.183   8.670 -2.2595 -0.1660 -0.3138
 4905TIP3   OH236273   1.733   5.106   6.806 -0.1292  0.2776 -0.3963
 4905TIP3    H136274   1.655   5.162   6.803 -0.6352 -0.4232 -0.9434
 4905TIP3    H236275   1.724   5.056   6.887  1.4100  2.4498  1.2019
 4906TIP3   OH236276   2.002   3.792   1.434 -0.2438 -0.0179 -0.2580
 4906TIP3    H136277   1.981   3.700   1.449 -0.1265 -0.1504 -0.8463
 4906TIP3    H236278   2.015   3.829   1.521 -1.6681 -0.2280  0.0710
 4907TIP3   OH236279   4.107   4.162   1.608  1.0318  0.5399  0.1531
 4907TIP3    H136280   4.130   4.171   1.515  0.9427  0.2070  0.1008
 4907TIP3    H236281   4.051   4.085   1.612  0.2635  1.0878  0.3450
 4908TIP3   OH236282   3.730   3.986   1.665 -0.3620  0.1160 -0.3226
 4908TIP3    H136283   3.757   3.984   1.573  1.0231  1.3674  0.0227
 4908TIP3    H236284   3.645   4.029   1.664 -0.8607 -0.8291 -1.1020
 4909TIP3   OH236285   6.481   1.751   7.074  0.1472 -0.1576  0.2470
 4909TIP3    H136286   6.527   1.690   7.016 -1.3338 -0.2318 -0.9031
 4909TIP3    H236287   6.475   1.704   7.157  0.6550 -0.8230 -0.0778
 4910TIP3   OH236288   3.361   0.467   2.776  0.3232  0.2715  0.5096
 4910TIP3    H136289   3.430   0.413   2.814  0.3462 -0.3830 -0.4235
 4910TIP3    H236290   3.283   0.412   2.778 -0.1719  0.9766  1.4804
 4911TIP3   OH236291   3.464   2.788   1.136 -0.1617 -0.2943 -0.0691
 4911TIP3    H136292   3.391   2.848   1.150 -0.1643 -0.8120  2.7543
 4911TIP3    H236293   3.423   2.704   1.119 -0.1616 -0.0656 -1.3105
 4912TIP3   OH236294   6.665   2.309   1.465  0.2157 -0.1810  0.6783
 4912TIP3    H136295   6.651   2.392   1.511  0.1048  0.3777 -0.3522
 4912TIP3    H236296   6.758   2.308   1.444  0.0386  0.1126 -0.1268
 4913TIP3   OH236297   5.392   1.129   1.115  0.1149 -0.7174  0.1346
 4913TIP3    H136298   5.428   1.079   1.188  0.5774 -1.9842 -0.9134
 4913TIP3    H236299   5.421   1.081   1.037  1.2632  1.6547 -0.9719
 4914TIP3   OH236300   3.170   5.890   2.035 -0.1947 -0.0526  0.0280
 4914TIP3    H136301   3.163   5.960   1.971 -2.0190 -0.2508 -0.0458
 4914TIP3    H236302   3.102   5.827   2.009  1.7503 -2.1734 -0.2712
 4915TIP3   OH236303   6.451   6.755   1.302  0.0655 -0.4545  0.1984
 4915TIP3    H136304   6.388   6.823   1.324 -0.3912 -0.8412  0.0990
 4915TIP3    H236305   6.527   6.775   1.356 -0.7214 -0.9031  1.5277
 4916TIP3   OH236306   5.114   6.806   1.701 -0.0049 -0.2047 -0.2440
 4916TIP3    H136307   5.080   6.892   1.726 -0.0857 -0.0470 -0.8803
 4916TIP3    H236308   5.109   6.754   1.781  1.1917  0.7352  0.4725
 4917TIP3   OH236309   1.115   3.303   0.016  0.1631 -0.3386 -0.0264
 4917TIP3    H136310   1.192   3.358   0.030  0.5105 -0.7378 -0.3346
 4917TIP3    H236311   1.133   3.256  -0.065 -0.2965 -0.6225  0.0293
 4918TIP3   OH236312   2.283   1.791   0.565  0.5647 -0.0190  0.0148
 4918TIP3    H136313   2.363   1.781   0.513  1.4068  1.0117  1.0442
 4918TIP3    H236314   2.315   1.809   0.654 -0.8182  0.0340  0.5152
 4919TIP3   OH236315   5.660   3.950   0.623 -0.5113  0.3853  0.3342
 4919TIP3    H136316   5.624   3.889   0.688  0.4469  1.1144  1.5903
 4919TIP3    H236317   5.639   3.910   0.539 -0.0727 -1.6088  1.1056
 4920TIP3   OH236318   3.524   0.816   7.481  0.6304 -0.2502 -0.2451
 4920TIP3    H136319   3.537   0.836   7.388  2.9373  0.2271  0.1153
 4920TIP3    H236320   3.606   0.845   7.523  0.0947 -1.5000  1.7696
 4921TIP3   OH236321   1.921   3.912   8.327 -0.4071 -0.1875  0.5624
 4921TIP3    H136322   1.975   3.927   8.250  0.3632  0.0678  1.1414
 4921TIP3    H236323   1.912   3.816   8.331  0.3277 -0.2596  0.6702
 4922TIP3   OH236324   4.568   6.498   1.907 -0.3390 -0.6312  0.2445
 4922TIP3    H136325   4.568   6.516   1.813  0.0234 -2.5341 -0.1752
 4922TIP3    H236326   4.656   6.522   1.936 -1.1643  2.2860  0.6807
 4923TIP3   OH236327   1.712   2.672   7.578  0.4012 -0.1978 -0.2387
 4923TIP3    H136328   1.635   2.621   7.551  0.0905  0.4197 -0.5386
 4923TIP3    H236329   1.705   2.754   7.528  0.6759  0.3067  0.5412
 4924TIP3   OH236330   4.300   4.886   7.307  0.4529 -0.0411  0.1109
 4924TIP3    H136331   4.263   4.808   7.349 -0.9135 -0.0967 -1.1502
 4924TIP3    H236332   4.225   4.945   7.294  1.2265  0.8946 -0.2444
 4925TIP3   OH236333   2.958   6.078   7.029 -0.1809  0.4210  0.7628
 4925TIP3    H136334   2.898   6.112   6.962 -0.6319 -2.1396 -0.2621
 4925TIP3    H236335   3.044   6.110   7.002 -0.5123  0.3782 -0.4292
 4926TIP3   OH236336   5.883   0.569   1.351 -0.2489  0.5942  0.1220
 4926TIP3    H136337   5.809   0.621   1.385 -0.4679  0.0628  0.4850
 4926TIP3    H236338   5.873   0.572   1.256 -1.4511 -0.4284  0.1694
 4927TIP3   OH236339   4.702   6.826   8.433  0.6225  0.0046 -0.4496
 4927TIP3    H136340   4.702   6.742   8.480  1.7032  0.8755  1.2114
 4927TIP3    H236341   4.679   6.803   8.343  1.2563 -2.1237 -0.1327
 4928TIP3   OH236342   5.030   0.840   7.124  0.5189  0.0971 -0.1775
 4928TIP3    H136343   4.960   0.787   7.163  1.0802  0.9078  2.0726
 4928TIP3    H236344   5.007   0.845   7.031 -1.8481 -0.5198  0.3053
 4929TIP3   OH236345   1.182   1.245   7.206  0.8450  0.5961  0.4632
 4929TIP3    H136346   1.145   1.177   7.263 -1.7906  1.8049  0.3231
 4929TIP3    H236347   1.151   1.222   7.118 -1.2755  2.6462  0.5977
 4930TIP3   OH236348   5.901   3.472   0.124 -0.1476  0.2311  0.2217
 4930TIP3    H136349   5.825   3.529   0.120 -0.0503  0.3326 -0.1646
 4930TIP3    H236350   5.976   3.529   0.105  0.1544  0.3731  1.7162
 4931TIP3   OH236351   5.004   0.030   6.441 -0.2449  0.3213 -0.3799
 4931TIP3    H136352   4.916   0.065   6.438 -0.8276 -1.0276  0.0622
 4931TIP3    H236353   4.992  -0.064   6.454  1.2724  0.2736  1.0499
 4932TIP3   OH236354   0.171   5.386   2.313  0.0235 -0.1981 -0.0155
 4932TIP3    H136355   0.147   5.327   2.384 -0.5451  0.9707  0.7949
 4932TIP3    H236356   0.266   5.395   2.320 -0.0321 -0.0823  0.6051
 4933TIP3   OH236357   3.152   4.978   7.241 -0.1173 -0.2809 -0.5158
 4933TIP3    H136358   3.133   5.065   7.204 -0.0675  0.1736  0.4975
 4933TIP3    H236359   3.236   4.988   7.284 -0.3766 -0.6724  0.0982
 4934TIP3   OH236360   1.989   2.283   8.333 -0.0227 -0.4366 -0.0220
 4934TIP3    H136361   2.042   2.303   8.410 -0.0697 -1.0788  0.1776
 4934TIP3    H236362   2.053   2.278   8.261  0.1604 -0.9423  0.1712
 4935TIP3   OH236363   2.797   4.101   1.550 -0.0683  0.5002  0.5389
 4935TIP3    H136364   2.721   4.047   1.575 -1.0166  0.9673 -1.2106
 4935TIP3    H236365   2.797   4.100   1.455  0.6431  2.5766  0.4732
 4936TIP3   OH236366   5.899   4.650   1.162  0.0613 -0.3068 -0.1883
 4936TIP3    H136367   5.816   4.603   1.155 -0.0634 -0.4464  1.6646
 4936TIP3    H236368   5.875   4.735   1.198  0.8274 -0.8243  1.6372
 4937TIP3   OH236369   2.781   4.241   3.039 -0.0670  0.0557 -0.0278
 4937TIP3    H136370   2.828   4.319   3.067  0.1987  0.2817 -1.0455
 4937TIP3    H236371   2.840   4.168   3.057 -0.6222 -0.0254  1.6509
 4938TIP3   OH236372   0.613   3.155   7.363  0.3080 -0.0361  0.0478
 4938TIP3    H136373   0.642   3.069   7.332 -0.6581 -0.0227 -0.9486
 4938TIP3    H236374   0.693   3.208   7.363  0.6883 -0.5951 -0.5582
 4939TIP3   OH236375   0.186   4.069   1.637  0.2150  0.2858  0.3333
 4939TIP3    H136376   0.209   4.154   1.674 -0.0553  0.5234 -0.0399
 4939TIP3    H236377   0.179   4.085   1.543 -0.2688 -0.0534  0.3085
 4940TIP3   OH236378   5.815   3.714   1.023 -0.5358 -0.9098  0.7561
 4940TIP3    H136379   5.800   3.682   0.934 -0.9130  0.5831  0.2533
 4940TIP3    H236380   5.894   3.668   1.052  1.0775  0.4065 -1.3022
 4941TIP3   OH236381   2.017   5.500   1.164 -0.1004  0.6232  0.4132
 4941TIP3    H136382   2.006   5.575   1.222 -0.5571  0.5217  0.4587
 4941TIP3    H236383   2.022   5.425   1.223  0.8176  0.6598  0.3942
 4942TIP3   OH236384   2.402   3.738   1.511 -0.7993 -0.3954 -0.1286
 4942TIP3    H136385   2.478   3.763   1.563  0.1164 -1.9900 -0.6608
 4942TIP3    H236386   2.336   3.714   1.576  0.0419 -1.5391  0.3277
 4943TIP3   OH236387   2.420   1.795   1.622  0.2090  0.2976  0.2269
 4943TIP3    H136388   2.440   1.889   1.621  2.1158  0.0876  3.2114
 4943TIP3    H236389   2.498   1.754   1.585  0.6230 -0.1562  1.5410
 4944TIP3   OH236390   3.558   0.719   0.986  0.6953 -0.0755 -0.3722
 4944TIP3    H136391   3.568   0.658   0.914 -0.9179 -1.1727  0.2797
 4944TIP3    H236392   3.474   0.695   1.027  0.6317  1.7451  0.6856
 4945TIP3   OH236393   1.329   1.976   0.093  0.0051 -0.4179 -0.5275
 4945TIP3    H136394   1.294   2.065   0.103  2.1602  0.4290  0.2384
 4945TIP3    H236395   1.379   1.961   0.174  0.6401 -1.8588 -1.1581
 4946TIP3   OH236396   1.986   2.015   1.115  0.2092 -0.4696 -0.7753
 4946TIP3    H136397   1.933   2.025   1.036  1.4925 -2.8593 -2.0797
 4946TIP3    H236398   1.985   2.101   1.156 -3.3734 -0.0056 -1.4875
 4947TIP3   OH236399   4.362   6.068   8.111  0.3171  0.3903  0.0943
 4947TIP3    H136400   4.340   6.152   8.071  0.3171  0.3462 -0.0003
 4947TIP3    H236401   4.412   6.091   8.189  2.1257  0.4476 -1.0170
 4948TIP3   OH236402   1.741   2.007   0.958  0.5667 -0.7745  0.4868
 4948TIP3    H136403   1.692   2.081   0.993 -0.1004 -1.1148  0.2723
 4948TIP3    H236404   1.709   1.931   1.007 -1.7079 -1.5736 -2.0221
 4949TIP3   OH236405   6.738   4.464   2.315 -0.2487  0.0653 -0.1611
 4949TIP3    H136406   6.694   4.421   2.242 -0.8172  0.5011 -0.0887
 4949TIP3    H236407   6.671   4.470   2.383 -0.2321  1.1741 -0.2209
 4950TIP3   OH236408   6.785   5.787   8.635 -0.0356 -0.3804  0.8741
 4950TIP3    H136409   6.824   5.734   8.704 -2.0082 -1.9537  0.8636
 4950TIP3    H236410   6.717   5.838   8.680  0.5738  0.7635  0.5455
 4951TIP3   OH236411   2.689   2.611   1.613 -0.2524 -0.3053  0.2471
 4951TIP3    H136412   2.662   2.576   1.698  1.3721 -2.0828  0.0797
 4951TIP3    H236413   2.631   2.567   1.550 -0.7756  0.2482  0.3308
 4952TIP3   OH236414   4.023   0.894   1.103  0.6097  0.3900 -0.2436
 4952TIP3    H136415   4.080   0.958   1.146 -0.6586  0.3323  1.6891
 4952TIP3    H236416   4.057   0.887   1.014  2.1334  2.0947  0.1358
 4953TIP3   OH236417   3.160   4.136   1.417 -1.0383 -0.1941 -0.4695
 4953TIP3    H136418   3.202   4.050   1.421 -0.2478  0.2326  1.4182
 4953TIP3    H236419   3.117   4.137   1.332 -0.0117 -1.9602 -1.0709
 4954TIP3   OH236420   2.156   4.952   0.386 -0.5472 -0.1868  0.6335
 4954TIP3    H136421   2.065   4.959   0.358 -0.6459  1.3548  1.2406
 4954TIP3    H236422   2.179   4.860   0.369 -2.1595 -0.5828  0.3652
 4955TIP3   OH236423   4.176   5.033   8.486  0.2543 -0.4564  0.3710
 4955TIP3    H136424   4.119   5.095   8.531  0.5987 -0.3879  0.7221
 4955TIP3    H236425   4.118   4.984   8.428 -0.0803 -0.0589  0.3648
 4956TIP3   OH236426   0.863   5.173   0.511 -0.2426  0.4645 -0.1058
 4956TIP3    H136427   0.835   5.260   0.540 -2.7140 -0.2084 -0.2523
 4956TIP3    H236428   0.884   5.126   0.592  0.8176  1.0764 -0.0094
 4957TIP3   OH236429   6.272   0.127   8.522 -0.2215 -0.1165  0.2299
 4957TIP3    H136430   6.336   0.058   8.504 -2.5007 -2.1569 -0.6287
 4957TIP3    H236431   6.197   0.104   8.467 -1.9323  1.7929  1.6579
 4958TIP3   OH236432   3.849   5.303   0.690 -0.2895 -0.0605  0.2648
 4958TIP3    H136433   3.874   5.213   0.671  0.4389  0.5121 -1.6980
 4958TIP3    H236434   3.764   5.314   0.646  0.0713  0.4778 -0.3034
 4959TIP3   OH236435   2.082   1.213   0.931 -0.2901  0.6931  0.4880
 4959TIP3    H136436   2.136   1.208   1.011 -0.5012  2.1940  0.7430
 4959TIP3    H236437   1.994   1.231   0.963 -0.7996 -0.8007  0.0111
 4960TIP3   OH236438   0.836   5.476   2.438 -0.0170 -0.2423 -0.9820
 4960TIP3    H136439   0.746   5.455   2.462  0.7625 -2.4109  0.3060
 4960TIP3    H236440   0.883   5.481   2.521  0.9233  1.8163 -1.5587
 4961TIP3   OH236441   1.998   3.749   1.122 -0.8348 -0.3776 -0.0113
 4961TIP3    H136442   2.051   3.775   1.046 -0.2717  1.7299  1.0392
 4961TIP3    H236443   2.061   3.740   1.193 -1.2272 -3.1879  0.1191
 4962TIP3   OH236444   2.385   5.059   2.035 -0.0591  0.5729  0.0954
 4962TIP3    H136445   2.357   5.087   2.122 -1.3463  0.6855 -0.3280
 4962TIP3    H236446   2.411   4.968   2.046  1.6500  1.1217  0.9611
 4963TIP3   OH236447   0.981   3.974   8.063 -0.2264  0.3396 -0.0106
 4963TIP3    H136448   0.988   3.879   8.073  0.9080  0.2646 -1.2513
 4963TIP3    H236449   1.001   4.009   8.150  2.7462 -0.4614 -0.2800
 4964TIP3   OH236450   1.951   1.392   0.545 -0.3030 -0.1296  0.4549
 4964TIP3    H136451   2.008   1.390   0.622 -0.1777 -0.4113  0.3573
 4964TIP3    H236452   2.011   1.399   0.471 -0.2562 -2.2065  0.2261
 4965TIP3   OH236453   3.020   0.430   7.040 -0.1963 -0.4850  0.1785
 4965TIP3    H136454   3.003   0.336   7.046 -1.0021 -0.4186 -0.9092
 4965TIP3    H236455   2.988   0.455   6.954 -0.4324  0.8834  0.6470
 4966TIP3   OH236456   1.066   5.659   0.391 -0.5459  0.2783  0.0203
 4966TIP3    H136457   1.062   5.685   0.483  1.6282  1.0290 -0.0498
 4966TIP3    H236458   1.120   5.580   0.391 -1.2168 -0.1970 -0.5514
 4967TIP3   OH236459   0.234   4.116   2.277  0.5083  0.1506  0.0353
 4967TIP3    H136460   0.254   4.094   2.186  0.1701 -0.8466  0.1819
 4967TIP3    H236461   0.139   4.105   2.284  0.7794 -2.0737  1.0503
 4968TIP3   OH236462   5.215   3.920   1.711  0.2202 -0.1591  0.3006
 4968TIP3    H136463   5.239   3.840   1.663  2.9565  0.6294  0.1922
 4968TIP3    H236464   5.160   3.968   1.649 -0.7145 -1.5304  0.0230
 4969TIP3   OH236465   6.778   4.241   7.543  0.1303  0.0443  0.1271
 4969TIP3    H136466   6.684   4.230   7.554  0.0885 -0.7098 -0.8615
 4969TIP3    H236467   6.804   4.170   7.484  1.1212  0.9193 -0.5287
 4970TIP3   OH236468   2.630   4.710   0.715  0.0669  0.3237  0.7395
 4970TIP3    H136469   2.694   4.765   0.760  0.7818  0.2184 -0.0934
 4970TIP3    H236470   2.595   4.652   0.782  0.3515  0.8464  1.3440
 4971TIP3   OH236471   2.663   1.421   1.319 -0.1995 -0.0835 -0.8526
 4971TIP3    H136472   2.598   1.440   1.386 -0.2610 -0.9729 -0.6504
 4971TIP3    H236473   2.695   1.507   1.291  0.5592  0.2973  1.0363
 4972TIP3   OH236474   0.044   5.805   2.371  0.3312  0.7930  0.6382
 4972TIP3    H136475   0.087   5.727   2.407 -1.5533  0.9814  3.7095
 4972TIP3    H236476   0.115   5.870   2.364  1.4030 -0.3001  0.9213
 4973TIP3   OH236477   1.546   1.519   8.536 -0.3912  0.4453  0.0612
 4973TIP3    H136478   1.640   1.525   8.521 -0.6906 -0.1275 -2.3452
 4973TIP3    H236479   1.538   1.480   8.623  1.5545  1.6690  0.8483
 4974TIP3   OH236480   3.425   0.553   8.183 -0.4436  0.0611  0.2319
 4974TIP3    H136481   3.477   0.544   8.263  1.7809 -2.0063 -1.3121
 4974TIP3    H236482   3.482   0.601   8.123 -2.3857  2.3030  0.0418
 4975TIP3   OH236483   5.789   0.646   7.801  0.2461  0.1562 -0.0422
 4975TIP3    H136484   5.872   0.599   7.809  0.9730  1.3874  0.0489
 4975TIP3    H236485   5.738   0.595   7.739  1.0040 -0.7280  0.0425
 4976TIP3   OH236486   0.894   1.153   8.038  0.1672 -0.4024 -0.3979
 4976TIP3    H136487   0.857   1.074   8.000 -0.1930  0.4304 -1.8748
 4976TIP3    H236488   0.986   1.152   8.012  0.6219 -1.2094  1.1275
 4977TIP3   OH236489   5.209   1.686   2.420 -0.2266 -0.1116 -0.4677
 4977TIP3    H136490   5.236   1.761   2.368 -0.0504 -0.6282 -1.1360
 4977TIP3    H236491   5.136   1.718   2.473  1.1958  1.1217  0.8521
 4978TIP3   OH236492   3.482   4.980   2.654  0.0937 -0.2893 -0.0952
 4978TIP3    H136493   3.538   5.056   2.636  0.1764 -0.3344 -0.0317
 4978TIP3    H236494   3.451   4.993   2.743 -1.5893  0.7273 -0.7963
 4979TIP3   OH236495   6.793   0.271   6.699 -0.9018 -0.1204 -0.6356
 4979TIP3    H136496   6.843   0.189   6.710 -0.8216 -0.4748 -2.9810
 4979TIP3    H236497   6.707   0.242   6.667 -2.0730  0.5862  1.7025
 4980TIP3   OH236498   2.016   5.627   1.409  0.1001 -0.7139  0.1246
 4980TIP3    H136499   2.029   5.645   1.502  0.2804  0.8843 -0.1952
 4980TIP3    H236500   1.929   5.586   1.406  1.2595 -3.5143  1.2791
 4981TIP3   OH236501   3.452   4.022   0.610  0.1205  0.1062  0.2830
 4981TIP3    H136502   3.534   3.977   0.629  0.0563 -0.2355 -0.2184
 4981TIP3    H236503   3.407   4.027   0.694  0.6288  0.2574  0.5573
 4982TIP3   OH236504   5.788   1.234   7.002 -0.2090 -0.5099 -0.2439
 4982TIP3    H136505   5.707   1.230   6.951 -0.1309 -2.4953 -0.2947
 4982TIP3    H236506   5.847   1.289   6.950 -0.9026 -0.5815 -1.1256
 4983TIP3   OH236507   5.758   0.509   7.061  0.4270  0.1606  0.0798
 4983TIP3    H136508   5.827   0.531   6.999 -1.4558  0.4248 -2.0603
 4983TIP3    H236509   5.725   0.593   7.092  0.7781  0.0456  0.7804
 4984TIP3   OH236510   0.998   0.902   1.588  0.0058 -0.0601  0.1414
 4984TIP3    H136511   1.066   0.838   1.565  1.7551  1.7926 -0.2239
 4984TIP3    H236512   0.984   0.952   1.507 -2.5773 -0.9877 -0.0701
 4985TIP3   OH236513   4.668   3.831   0.573 -0.0706  0.0880 -0.3955
 4985TIP3    H136514   4.736   3.790   0.626 -1.0832 -1.0218  0.0855
 4985TIP3    H236515   4.710   3.910   0.537  0.6962  0.7583  1.8461
 4986TIP3   OH236516   0.783   2.901   7.206  0.2265 -0.1348  0.0691
 4986TIP3    H136517   0.818   2.854   7.281 -0.7326  0.0682  0.6640
 4986TIP3    H236518   0.849   2.968   7.187  0.3498 -0.0091  0.9076
 4987TIP3   OH236519   5.144   3.360   0.904 -0.2623 -0.0292 -0.0033
 4987TIP3    H136520   5.060   3.316   0.911  0.0421 -0.4016  1.8347
 4987TIP3    H236521   5.161   3.395   0.992  1.9938 -0.9379  0.0077
 4988TIP3   OH236522   6.645   6.058   1.486  0.1562 -0.1444 -0.9958
 4988TIP3    H136523   6.680   5.969   1.489 -1.3182 -0.7421 -0.8697
 4988TIP3    H236524   6.596   6.068   1.567  0.8896  1.0538 -0.6784
 4989TIP3   OH236525   2.202   4.141   1.896  0.1469  0.2129  0.2151
 4989TIP3    H136526   2.274   4.091   1.857 -1.1417 -2.1576  0.7158
 4989TIP3    H236527   2.179   4.206   1.829  1.7398  0.0256 -0.5596
 4990TIP3   OH236528   3.116   2.032   7.386 -0.2234 -0.4453  0.0211
 4990TIP3    H136529   3.201   2.016   7.427 -0.6016 -0.8324  0.6749
 4990TIP3    H236530   3.121   2.122   7.355  0.3446 -0.3913  0.2596
 4991TIP3   OH236531   4.230   5.755   6.798  0.1182 -0.3380  0.2143
 4991TIP3    H136532   4.283   5.792   6.869  0.2700 -0.3342  0.0976
 4991TIP3    H236533   4.266   5.668   6.784 -1.6798 -1.4813  2.0697
 4992TIP3   OH236534   0.476   1.620   7.559 -0.1852  0.8855  0.0843
 4992TIP3    H136535   0.491   1.680   7.486 -1.2125  1.1138  0.0377
 4992TIP3    H236536   0.562   1.585   7.580  0.0338  0.2683 -1.7021
 4993TIP3   OH236537   1.978   0.531   0.131 -0.3355  0.4512 -0.0009
 4993TIP3    H136538   2.066   0.545   0.166 -0.2761  1.8598 -0.6074
 4993TIP3    H236539   1.991   0.469   0.059  0.1903  0.7176 -0.1459
 4994TIP3   OH236540   3.824   0.567   1.496  0.2405 -0.3904  0.4486
 4994TIP3    H136541   3.784   0.561   1.409 -0.0522  0.1561  0.5395
 4994TIP3    H236542   3.846   0.659   1.506 -0.3952 -0.3132  1.2426
 4995TIP3   OH236543   2.956   6.744   2.629 -0.4497 -0.1675 -0.0546
 4995TIP3    H136544   3.004   6.703   2.701 -0.1123  1.0276  0.4232
 4995TIP3    H236545   2.876   6.778   2.670 -0.2825  0.4654 -0.2376
 4996TIP3   OH236546   2.894   2.698   2.143 -0.8154 -0.0701 -0.1072
 4996TIP3    H136547   2.939   2.674   2.224  0.5726 -0.4439 -0.9437
 4996TIP3    H236548   2.900   2.794   2.139  1.5204 -0.1724 -1.0082
 4997TIP3   OH236549   3.484   6.181   0.396  0.6550  0.1456  0.1054
 4997TIP3    H136550   3.530   6.107   0.356 -1.7784 -1.2952 -0.2381
 4997TIP3    H236551   3.466   6.240   0.323 -0.7301 -0.8147 -0.3735
 4998TIP3   OH236552   6.242   1.175   6.300 -0.0008  0.3053  0.5946
 4998TIP3    H136553   6.171   1.124   6.338 -1.2069  1.7943  0.3935
 4998TIP3    H236554   6.214   1.266   6.308  1.8777  0.9338  0.4912
 4999TIP3   OH236555   0.834   5.728   2.860  0.3886  0.0122  0.4108
 4999TIP3    H136556   0.858   5.819   2.875  0.9306  0.4393 -2.4689
 4999TIP3    H236557   0.739   5.725   2.873  0.2596  1.1825 -0.1091
 5000TIP3   OH236558   0.623   2.200   1.237 -0.3098 -0.1114  0.1139
 5000TIP3    H136559   0.682   2.178   1.164  0.5249 -0.6529  0.9290
 5000TIP3    H236560   0.577   2.279   1.208 -0.0207 -0.3353 -1.0123
 5001TIP3   OH236561   4.346   0.526   7.299 -0.2537  0.1165 -0.0312
 5001TIP3    H136562   4.321   0.615   7.324  3.4065  0.6586  2.3876
 5001TIP3    H236563   4.288   0.470   7.351 -2.1329  1.0140 -1.0637
 5002TIP3   OH236564   5.513   4.601   1.367 -0.7061 -0.7359 -0.6247
 5002TIP3    H136565   5.455   4.649   1.308 -1.8956 -1.5966 -0.2045
 5002TIP3    H236566   5.462   4.524   1.394  0.1323 -0.8391  0.8066
 5003TIP3   OH236567   6.192   5.216   0.324 -0.0094 -0.3597  0.9818
 5003TIP3    H136568   6.255   5.284   0.345  0.3141 -0.6525  0.9745
 5003TIP3    H236569   6.145   5.248   0.247  1.1318 -0.7770  0.0831
 5004TIP3   OH236570   4.451   2.574   0.044 -0.2974 -0.3827 -0.3509
 5004TIP3    H136571   4.427   2.525   0.123  0.9850 -0.3354  0.0992
 5004TIP3    H236572   4.442   2.666   0.069  0.2085 -0.3660 -0.2080
 5005TIP3   OH236573   5.967   1.475   0.230  0.0908  0.1276 -0.2196
 5005TIP3    H136574   6.026   1.541   0.266  0.0371 -0.9960  2.1672
 5005TIP3    H236575   6.024   1.413   0.186  0.4574  0.2573  0.0687
 5006TIP3   OH236576   6.839   1.493   0.444 -0.8024  0.0866  0.1859
 5006TIP3    H136577   6.868   1.559   0.506  0.1919  0.2428 -0.4295
 5006TIP3    H236578   6.872   1.524   0.359 -2.8831  0.3591 -0.5995
 5007TIP3   OH236579   4.045   1.755   2.207 -0.0787 -0.0263 -0.3944
 5007TIP3    H136580   4.037   1.791   2.296 -0.6101 -0.7543 -0.1366
 5007TIP3    H236581   4.113   1.688   2.215  1.4655  1.4021 -1.0435
 5008TIP3   OH236582   3.191   4.038   2.409 -0.3791  0.5256 -0.1602
 5008TIP3    H136583   3.168   4.119   2.455 -1.6746  0.1594 -0.1076
 5008TIP3    H236584   3.151   4.049   2.322  1.1724  0.7814 -0.8787
 5009TIP3   OH236585   5.893   4.647   1.736  0.5669 -0.3147  0.0089
 5009TIP3    H136586   5.955   4.659   1.664  1.0824  0.7000  0.5986
 5009TIP3    H236587   5.901   4.726   1.788 -0.9184 -0.3476  0.3512
 5010TIP3   OH236588   1.689   1.621   7.857 -0.4743  0.6254  0.0068
 5010TIP3    H136589   1.712   1.712   7.878 -1.0216  1.2222 -1.7846
 5010TIP3    H236590   1.774   1.577   7.849 -0.1350  1.3496 -0.5633
 5011TIP3   OH236591   0.436   5.070   2.983 -0.2861 -0.0884 -0.6007
 5011TIP3    H136592   0.489   5.072   3.063  2.1308  0.1571 -2.1130
 5011TIP3    H236593   0.419   4.977   2.968 -1.6641 -0.0762  0.7247
 5012TIP3   OH236594   6.067   3.846   1.267  0.3815 -0.1405 -0.8627
 5012TIP3    H136595   6.002   3.882   1.326  0.3783 -1.3865 -0.0604
 5012TIP3    H236596   6.148   3.892   1.289  0.2586 -0.2028 -0.2610
 5013TIP3   OH236597   2.407   5.090   7.915  0.0634  0.0104  0.4331
 5013TIP3    H136598   2.403   5.184   7.935 -0.7969  0.2225 -0.6414
 5013TIP3    H236599   2.450   5.085   7.830 -1.9114 -0.3803 -0.5842
 5014TIP3   OH236600   4.212   6.166   1.589  0.1826  0.0258  0.4619
 5014TIP3    H136601   4.268   6.173   1.512  0.7260  1.3305  0.9376
 5014TIP3    H236602   4.129   6.131   1.556  0.1599  1.2320 -0.8478
 5015TIP3   OH236603   3.682   1.213   1.440  0.6132  0.1585 -0.5991
 5015TIP3    H136604   3.723   1.140   1.394  1.1278 -0.5563  0.9073
 5015TIP3    H236605   3.625   1.255   1.375  2.5758  0.2656 -2.3469
 5016TIP3   OH236606   1.833   1.846   1.321 -0.0064  0.0188 -0.4051
 5016TIP3    H136607   1.784   1.782   1.269 -0.9085  1.2021 -1.0476
 5016TIP3    H236608   1.891   1.889   1.257 -1.0786  1.4387 -0.4511
 5017TIP3   OH236609   1.927   1.526   7.997  0.0550  0.2470 -0.0195
 5017TIP3    H136610   1.989   1.482   8.054  0.2047  0.6058  0.1003
 5017TIP3    H236611   1.980   1.592   7.950  0.2176 -0.9418 -1.5913
 5018TIP3   OH236612   1.411   2.148   7.146  0.4467  0.3355  0.1934
 5018TIP3    H136613   1.355   2.190   7.080 -0.8364 -2.3772 -0.5962
 5018TIP3    H236614   1.466   2.088   7.096  0.6091 -0.5931  1.4406
 5019TIP3   OH236615   5.008   4.839   7.756 -0.4575 -0.1486  0.2733
 5019TIP3    H136616   5.102   4.825   7.765  0.0855  1.0333 -2.5641
 5019TIP3    H236617   4.980   4.773   7.692 -1.1969  0.7054 -0.3055
 5020TIP3   OH236618   2.797   0.531   2.127 -0.3818  0.4873 -0.3918
 5020TIP3    H136619   2.860   0.527   2.055  1.8348  0.1684  1.4379
 5020TIP3    H236620   2.809   0.618   2.164 -1.5764  0.6851 -0.4469
 5021TIP3   OH236621   1.110   0.318   1.342 -0.0540  0.7668  0.3253
 5021TIP3    H136622   1.200   0.349   1.350 -0.0795  0.7629  0.6523
 5021TIP3    H236623   1.064   0.390   1.299 -0.0443  1.0590  0.7958
 5022TIP3   OH236624   2.370   0.090   2.323  0.4580 -0.4165 -0.0847
 5022TIP3    H136625   2.448   0.045   2.290  0.5385 -1.5156  1.4722
 5022TIP3    H236626   2.304   0.021   2.330 -0.4499  0.3658 -0.7133
 5023TIP3   OH236627   2.823   4.411   2.086 -0.1110  0.1089 -0.3786
 5023TIP3    H136628   2.738   4.399   2.128  1.4903 -0.0499  3.2009
 5023TIP3    H236629   2.858   4.323   2.075  0.6307  0.2722  0.6010
 5024TIP3   OH236630   3.981   6.562   8.221 -0.2776 -0.3877 -0.1643
 5024TIP3    H136631   3.971   6.476   8.262 -0.0065 -0.8145 -0.9772
 5024TIP3    H236632   3.905   6.570   8.163 -1.3457  0.7487  1.3127
 5025TIP3   OH236633   1.636   3.555   8.207 -0.0910  0.1425  0.1505
 5025TIP3    H136634   1.633   3.463   8.184 -0.5083  0.4203 -0.9691
 5025TIP3    H236635   1.545   3.586   8.198  0.1318  0.7754 -0.0285
 5026TIP3   OH236636   2.201   1.202   2.282  0.0230 -0.0946  0.0354
 5026TIP3    H136637   2.129   1.203   2.345  0.4860 -1.9248  0.6726
 5026TIP3    H236638   2.209   1.292   2.252 -1.2437  0.5152  1.4239
 5027TIP3   OH236639   5.484   3.496   7.802 -0.3062  0.2425 -0.7702
 5027TIP3    H136640   5.445   3.501   7.715 -0.2656  0.0728 -0.7980
 5027TIP3    H236641   5.484   3.403   7.824  1.1573  0.1068 -1.2544
 5028TIP3   OH236642   5.722   6.554   8.233  0.4645 -0.3187 -0.0000
 5028TIP3    H136643   5.722   6.633   8.289  0.7541 -0.5219  0.2921
 5028TIP3    H236644   5.629   6.534   8.220  0.2389  1.7606 -2.4983
 5029TIP3   OH236645   0.441   1.854   1.456  0.0387  0.4377 -0.0089
 5029TIP3    H136646   0.366   1.913   1.443 -0.7028 -0.4659  0.0468
 5029TIP3    H236647   0.515   1.912   1.469 -0.8994  1.3860  1.3946
 5030TIP3   OH236648   6.498   2.753   7.835 -0.2112 -0.4404  0.3191
 5030TIP3    H136649   6.450   2.777   7.914  0.7224  0.9896  0.4995
 5030TIP3    H236650   6.439   2.774   7.763 -0.6021 -0.5797  0.5983
 5031TIP3   OH236651   6.006   2.162   8.269  0.2481  0.1108  0.1319
 5031TIP3    H136652   6.082   2.117   8.307  1.7025  1.8074 -0.6442
 5031TIP3    H236653   5.943   2.091   8.252  2.1576 -1.5493 -0.4242
 5032TIP3   OH236654   3.258   2.614   2.005  0.2467 -0.0033 -0.2276
 5032TIP3    H136655   3.209   2.543   1.964  0.1947 -0.3060  0.3594
 5032TIP3    H236656   3.270   2.587   2.096 -1.3192  1.5294  0.4855
 5033TIP3   OH236657   4.777   5.063   1.928 -0.0260  0.0754  0.1939
 5033TIP3    H136658   4.689   5.052   1.890 -0.2048  1.7807  0.0300
 5033TIP3    H236659   4.760   5.084   2.020  0.1449  1.4912 -0.0864
 5034TIP3   OH236660   2.929   6.074   1.211  0.4435 -0.1317 -0.0139
 5034TIP3    H136661   2.910   6.166   1.195 -0.1901 -0.1837  0.4335
 5034TIP3    H236662   3.021   6.064   1.184  0.4863  0.5984 -0.1642
 5035TIP3   OH236663   0.606   4.370   1.053 -0.0601  0.0578 -0.2146
 5035TIP3    H136664   0.681   4.423   1.080  0.8125 -0.7861 -0.9252
 5035TIP3    H236665   0.584   4.402   0.965  1.4924 -1.7444 -1.3441
 5036TIP3   OH236666   6.576   3.328   1.578 -0.5395 -0.0224  0.1335
 5036TIP3    H136667   6.532   3.364   1.501 -0.3089 -0.2021 -0.0814
 5036TIP3    H236668   6.637   3.263   1.544 -0.1974  0.1309  0.4387
 5037TIP3   OH236669   0.721   1.552   7.448 -0.0611 -0.0614 -0.2284
 5037TIP3    H136670   0.736   1.646   7.439 -0.1767  0.3701  2.8324
 5037TIP3    H236671   0.791   1.511   7.397  1.1193  1.7248 -0.1339
 5038TIP3   OH236672   6.360   5.397   0.401 -0.1857  0.4685 -0.1565
 5038TIP3    H136673   6.405   5.479   0.383  0.3599  0.6566  1.8238
 5038TIP3    H236674   6.305   5.416   0.478  0.9482 -1.3062  1.1838
 5039TIP3   OH236675   0.093   2.775   2.352 -0.3491 -0.3197 -0.1840
 5039TIP3    H136676   0.082   2.779   2.447  2.2922 -0.5131  0.1887
 5039TIP3    H236677   0.040   2.700   2.325 -0.8044 -0.5207  1.1780
 5040TIP3   OH236678   0.800   6.095   0.216 -0.0363  0.6694  0.0693
 5040TIP3    H136679   0.844   6.030   0.271  0.4538  0.3324 -0.7043
 5040TIP3    H236680   0.776   6.164   0.277  1.3993  0.7835  0.5663
 5041TIP3   OH236681   1.112   1.102   1.840 -0.2611 -0.3486 -0.6461
 5041TIP3    H136682   1.049   1.153   1.891  0.4480  0.8744 -0.9435
 5041TIP3    H236683   1.059   1.036   1.796 -0.9599 -1.0866  1.2147
 5042TIP3   OH236684   6.208   1.522   8.244  0.0750  0.3262  0.4307
 5042TIP3    H136685   6.201   1.565   8.329  0.8655  1.1835  0.0792
 5042TIP3    H236686   6.122   1.532   8.204  0.4243  2.2000  0.0800
 5043TIP3   OH236687   4.698   6.707   1.473 -0.4628 -0.2891 -0.2491
 5043TIP3    H136688   4.748   6.787   1.457 -1.6597  0.7891  1.0843
 5043TIP3    H236689   4.611   6.738   1.499 -1.2328 -2.0557 -0.5595
 5044TIP3   OH236690   3.660   6.356   0.022 -0.0309  0.1633 -0.1604
 5044TIP3    H136691   3.708   6.377   0.102  1.3521 -2.2268 -0.2503
 5044TIP3    H236692   3.596   6.426   0.013  0.9798  1.4818  2.0338
 5045TIP3   OH236693   2.354   3.456   0.145  0.0293  0.2853 -0.5284
 5045TIP3    H136694   2.347   3.361   0.133  0.5944  0.1022  0.4549
 5045TIP3    H236695   2.327   3.493   0.061  0.8196 -0.7720 -1.2752
 5046TIP3   OH236696   5.179   5.639   1.275  0.2509 -0.2475 -0.9380
 5046TIP3    H136697   5.266   5.600   1.266 -0.2042 -2.0030  1.3269
 5046TIP3    H236698   5.141   5.635   1.187  2.4465  0.6532 -1.9872
 5047TIP3   OH236699   0.660   5.334   7.167  0.4757 -0.4004  0.4524
 5047TIP3    H136700   0.664   5.430   7.166 -0.9619 -0.2843  1.7040
 5047TIP3    H236701   0.613   5.311   7.087 -0.0036  0.0086  0.6123
 5048TIP3   OH236702   6.303   4.146   2.706  0.3823  0.1805 -0.3785
 5048TIP3    H136703   6.207   4.152   2.712  0.5648  3.6708  2.6818
 5048TIP3    H236704   6.319   4.056   2.678 -3.7547 -0.6902 -0.6735
 5049TIP3   OH236705   4.946   4.402   8.539  0.0749 -0.1208 -0.5498
 5049TIP3    H136706   4.871   4.384   8.596  0.8799  1.4822  1.0858
 5049TIP3    H236707   4.940   4.495   8.520  0.6880 -0.3321 -1.9027
 5050TIP3   OH236708   6.096   1.421   7.446  0.2628  0.2936 -0.0742
 5050TIP3    H136709   6.108   1.502   7.495 -2.1684  1.1517 -0.7167
 5050TIP3    H236710   6.063   1.358   7.511 -0.0057  0.5163  0.0087
 5051TIP3   OH236711   6.004   2.741   1.793  0.3352 -0.4471 -0.9204
 5051TIP3    H136712   5.915   2.740   1.759  0.1216 -1.3015 -0.3692
 5051TIP3    H236713   5.994   2.719   1.886  1.0178  0.5813 -0.5832
 5052TIP3   OH236714   4.898   4.770   0.022  0.2428 -0.2133  0.5221
 5052TIP3    H136715   4.965   4.762   0.091  1.6578  0.6736 -0.6799
 5052TIP3    H236716   4.929   4.842  -0.033 -2.1928  0.8239  0.3828
 5053TIP3   OH236717   0.980   0.813   7.320 -0.3815  0.1586 -0.1003
 5053TIP3    H136718   1.030   0.788   7.242  0.5455 -0.4735  0.6794
 5053TIP3    H236719   0.890   0.824   7.288 -0.2754 -1.3831 -1.0282
 5054TIP3   OH236720   1.531   2.676   0.717 -0.6243 -0.2722  0.0309
 5054TIP3    H136721   1.611   2.673   0.664 -1.6159 -2.5988 -1.4874
 5054TIP3    H236722   1.555   2.632   0.799 -0.5619 -1.8915 -0.8207
 5055TIP3   OH236723   1.888   5.270   7.351 -0.3946  0.6034  0.0641
 5055TIP3    H136724   1.849   5.345   7.396  1.4119  0.6036  1.8294
 5055TIP3    H236725   1.832   5.254   7.276 -2.2175  2.1795  1.0033
 5056TIP3   OH236726   3.662   2.775   1.772  0.3886 -0.0809  0.2789
 5056TIP3    H136727   3.661   2.821   1.688 -1.5353  0.5581  0.5910
 5056TIP3    H236728   3.630   2.840   1.835 -0.2818 -1.1858  1.1165
 5057TIP3   OH236729   4.225   1.508   0.126  0.2393  0.3210  0.4867
 5057TIP3    H136730   4.308   1.549   0.101  0.5345 -0.1965  0.6078
 5057TIP3    H236731   4.180   1.494   0.042  0.8679 -0.6385  0.2840
 5058TIP3   OH236732   5.900   2.508   2.186  0.0904  0.0614 -0.3945
 5058TIP3    H136733   5.821   2.456   2.197 -0.1411  0.4228 -0.3252
 5058TIP3    H236734   5.970   2.444   2.176 -0.2400 -0.2615 -0.6668
 5059TIP3   OH236735   1.138   3.695   2.714 -0.1935  0.3525  0.3063
 5059TIP3    H136736   1.059   3.738   2.679 -0.2684 -1.1732 -1.5853
 5059TIP3    H236737   1.113   3.603   2.723  1.3233 -0.1374 -0.1955
 5060TIP3   OH236738   1.906   0.580   2.622  0.0263  0.0359  0.0671
 5060TIP3    H136739   1.970   0.538   2.679  1.4101 -0.9034 -2.0741
 5060TIP3    H236740   1.895   0.519   2.549 -2.2897  0.8273 -0.3163
 5061TIP3   OH236741   4.630   2.436   1.192  0.0011 -0.3051 -0.8165
 5061TIP3    H136742   4.660   2.388   1.269 -0.9298 -0.4267 -0.5059
 5061TIP3    H236743   4.677   2.519   1.195 -1.1106  0.3186  0.7491
 5062TIP3   OH236744   5.922   5.533   8.065  0.3034 -0.0064  0.1461
 5062TIP3    H136745   6.007   5.490   8.067 -0.2680 -1.2085 -0.0593
 5062TIP3    H236746   5.910   5.558   7.973 -0.5213 -1.9306 -0.3240
 5063TIP3   OH236747   6.088   3.670   7.387 -0.1780  0.1126 -0.1347
 5063TIP3    H136748   6.177   3.640   7.404 -0.6311 -1.8879 -0.9735
 5063TIP3    H236749   6.033   3.596   7.412 -1.8329  2.0958  2.5198
 5064TIP3   OH236750   6.511   4.595   0.068  0.1817 -0.0050 -0.3490
 5064TIP3    H136751   6.487   4.505   0.090  0.3849 -0.0166 -0.1771
 5064TIP3    H236752   6.601   4.590   0.038 -0.2716 -0.0760 -1.7642
 5065TIP3   OH236753   5.565   2.822   7.972  0.1098  0.1291  0.2628
 5065TIP3    H136754   5.536   2.864   8.052  0.1176  0.5492  0.0509
 5065TIP3    H236755   5.485   2.794   7.928 -0.1794  3.0232 -1.2686
 5066TIP3   OH236756   6.752   4.411   0.868 -0.0899 -0.1441  0.2154
 5066TIP3    H136757   6.803   4.491   0.855 -1.1074  0.3287 -1.0859
 5066TIP3    H236758   6.818   4.343   0.883  0.9167  0.5278 -1.0000
 5067TIP3   OH236759   4.627   6.055   7.788  0.1151  0.3875  0.5080
 5067TIP3    H136760   4.669   6.052   7.874  0.6463 -1.2188  0.2158
 5067TIP3    H236761   4.536   6.030   7.804 -0.2192  1.7114  0.8162
 5068TIP3   OH236762   5.710   4.836   1.249 -0.8459 -0.7063 -0.2525
 5068TIP3    H136763   5.635   4.805   1.301 -0.6968  0.2746  0.5615
 5068TIP3    H236764   5.670   4.882   1.176 -1.0483 -1.4782 -0.6403
 5069TIP3   OH236765   3.131   0.817   8.207  0.2905  0.0172 -0.2206
 5069TIP3    H136766   3.131   0.735   8.255 -3.4569 -1.1542 -1.8599
 5069TIP3    H236767   3.172   0.796   8.123  0.2679  0.1383 -0.2618
 5070TIP3   OH236768   4.756   5.432   0.714 -0.0645  0.3644  0.5920
 5070TIP3    H136769   4.741   5.347   0.757  2.5511  0.3050  1.5740
 5070TIP3    H236770   4.761   5.495   0.786  1.2492  0.7870  0.1638
 5071TIP3   OH236771   0.424   1.347   1.590 -0.0244  0.0285 -0.3492
 5071TIP3    H136772   0.370   1.421   1.560 -0.9933 -1.2062 -1.7468
 5071TIP3    H236773   0.493   1.340   1.525 -0.8167 -1.2300 -1.0794
 5072TIP3   OH236774   3.836   5.878   2.218  0.1014 -0.0434 -0.0787
 5072TIP3    H136775   3.887   5.904   2.295  0.6269  0.6291 -0.6439
 5072TIP3    H236776   3.775   5.951   2.204  0.3994  0.1026 -0.6359
 5073TIP3   OH236777   5.855   2.123   2.428 -0.0470 -0.1880  0.2336
 5073TIP3    H136778   5.909   2.080   2.494 -0.0111 -1.0235 -0.3285
 5073TIP3    H236779   5.821   2.201   2.472  2.5168  1.0036  0.2738
 5074TIP3   OH236780   0.296   5.392   8.463 -0.6517  0.7717  0.0921
 5074TIP3    H136781   0.294   5.313   8.516 -1.7147 -0.2996 -1.4804
 5074TIP3    H236782   0.270   5.462   8.523 -1.5938 -0.3565  1.0459
 5075TIP3   OH236783   1.356   4.215   1.537 -0.1374 -0.5899 -0.5844
 5075TIP3    H136784   1.400   4.293   1.503  0.1564 -0.7645 -0.6038
 5075TIP3    H236785   1.391   4.204   1.625  1.5430 -2.0184 -1.3866
 5076TIP3   OH236786   6.526   6.218   2.215 -0.1627  0.1317 -0.6941
 5076TIP3    H136787   6.445   6.235   2.263 -0.8658 -0.5404 -1.6076
 5076TIP3    H236788   6.590   6.198   2.284 -0.4652  1.7341  0.1038
 5077TIP3   OH236789   2.636   2.402   0.128 -0.7910  0.3148 -0.6661
 5077TIP3    H136790   2.548   2.388   0.091 -0.7652 -0.4789 -0.4266
 5077TIP3    H236791   2.621   2.412   0.222 -0.8065  1.9223 -0.8044
 5078TIP3   OH236792   2.880   1.090   2.774 -0.0230 -0.0650  0.4541
 5078TIP3    H136793   2.886   1.156   2.705  1.4679  0.7459  1.3204
 5078TIP3    H236794   2.957   1.035   2.760  0.1058 -0.0914  1.2636
 5079TIP3   OH236795   3.490   0.010   2.102  0.1456  0.0583 -0.0264
 5079TIP3    H136796   3.516   0.096   2.070  0.1311  1.1212  2.6368
 5079TIP3    H236797   3.512  -0.049   2.029  1.9724  2.0126 -1.1939
 5080TIP3   OH236798   1.862   2.627   7.822  0.3991  0.8319  0.7553
 5080TIP3    H136799   1.878   2.714   7.860  0.1575  0.3018  2.0914
 5080TIP3    H236800   1.801   2.644   7.749  0.4126  1.7870  0.9525
 5081TIP3   OH236801   0.187   0.414   6.768 -0.2773  0.4442 -0.8617
 5081TIP3    H136802   0.199   0.495   6.718 -0.9743  0.7469 -0.5556
 5081TIP3    H236803   0.101   0.381   6.741 -0.7852  0.7488  0.2874
 5082TIP3   OH236804   4.090   0.674   1.244  0.0586  0.2195  0.0972
 5082TIP3    H136805   4.065   0.587   1.215  1.8127 -0.4923  0.6019
 5082TIP3    H236806   4.035   0.733   1.192 -1.7786 -1.1697  0.3626
 5083TIP3   OH236807   1.703   0.664   1.853 -0.9808  0.6460 -0.6720
 5083TIP3    H136808   1.768   0.726   1.821  0.8801 -0.4257  0.8689
 5083TIP3    H236809   1.689   0.604   1.779  0.5580  0.3044 -0.7210
 5084TIP3   OH236810   2.472   6.121   8.715  0.1114  0.6082 -0.5118
 5084TIP3    H136811   2.394   6.169   8.746 -0.3940 -1.4102  1.5788
 5084TIP3    H236812   2.441   6.070   8.640 -0.6911 -0.3678  0.4567
 5085TIP3   OH236813   4.566   4.155   1.508 -0.3895 -0.4961 -0.4393
 5085TIP3    H136814   4.517   4.136   1.589  0.2811 -1.3129 -0.2105
 5085TIP3    H236815   4.565   4.250   1.501  0.7393 -0.3091  1.3123
 5086TIP3   OH236816   3.022   1.531   1.455 -0.3859 -0.5131 -0.3768
 5086TIP3    H136817   3.003   1.556   1.365 -0.7729 -0.0199 -0.1686
 5086TIP3    H236818   3.013   1.613   1.504 -0.3924 -0.8184  0.1396
 5087TIP3   OH236819   5.915   5.550   1.907 -0.5554  0.0766  0.8937
 5087TIP3    H136820   5.869   5.621   1.862 -0.3715  0.6817  1.6384
 5087TIP3    H236821   5.986   5.593   1.954 -0.7631 -0.5191  1.7898
 5088TIP3   OH236822   3.013   3.758   1.084  0.0813  0.5009  0.0865
 5088TIP3    H136823   3.024   3.838   1.136 -2.0387  1.0781 -0.2483
 5088TIP3    H236824   3.022   3.787   0.993  0.8626  0.0535  0.0164
 5089TIP3   OH236825   6.157   6.266   1.572 -0.4623 -0.6303  0.5141
 5089TIP3    H136826   6.240   6.307   1.596 -0.5039  0.7754 -1.5023
 5089TIP3    H236827   6.091   6.332   1.592 -0.8344 -0.7981 -0.1436
 5090TIP3   OH236828   1.973   2.489   7.332  0.1610 -0.7495  0.4722
 5090TIP3    H136829   1.998   2.479   7.241  0.0657  2.9871 -0.1211
 5090TIP3    H236830   2.033   2.432   7.380  1.8918 -0.9181 -1.7335
 5091TIP3   OH236831   6.181   0.166   2.088 -0.0404 -0.4691 -0.2882
 5091TIP3    H136832   6.195   0.072   2.080  1.0266 -0.3759  0.4126
 5091TIP3    H236833   6.257   0.198   2.136  0.9170  1.1400 -2.6785
 5092TIP3   OH236834   1.118   0.828   7.560 -0.3398  0.2262  0.0697
 5092TIP3    H136835   1.096   0.797   7.472  0.7470  0.0181 -0.1546
 5092TIP3    H236836   1.190   0.890   7.546 -0.1413  0.1785  0.8127
 5093TIP3   OH236837   1.196   5.448   0.428 -0.0113 -0.0784 -0.0362
 5093TIP3    H136838   1.130   5.391   0.389 -0.1805 -0.3393  0.6070
 5093TIP3    H236839   1.275   5.393   0.433 -0.0088 -0.0668  0.0485
 5094TIP3   OH236840   1.965   0.074   2.908 -0.0310 -0.1051 -0.0925
 5094TIP3    H136841   1.982  -0.019   2.891  0.1028  0.2137 -1.8800
 5094TIP3    H236842   1.997   0.119   2.830  0.3744  1.5152  0.9590
 5095TIP3   OH236843   1.823   6.246   0.385 -0.3304 -0.3257 -0.2710
 5095TIP3    H136844   1.775   6.170   0.351 -0.2131 -0.5790  0.1232
 5095TIP3    H236845   1.758   6.297   0.431 -0.3951 -0.2218 -0.4755
 5096TIP3   OH236846   4.826   5.540   7.737 -0.5246 -0.1085 -0.5444
 5096TIP3    H136847   4.890   5.561   7.669 -0.9307 -0.1235 -0.9358
 5096TIP3    H236848   4.833   5.611   7.800 -0.0671 -0.1524 -0.5465
 5097TIP3   OH236849   6.626   6.386   1.748 -0.5460  0.1836 -0.4559
 5097TIP3    H136850   6.721   6.392   1.748 -0.4171 -0.8273 -2.3264
 5097TIP3    H236851   6.604   6.364   1.657 -2.7128  2.4612 -0.5880
 5098TIP3   OH236852   3.038   0.285   8.736  0.2769  0.4545 -0.2641
 5098TIP3    H136853   3.032   0.347   8.808  0.9063 -0.0991  0.2858
 5098TIP3    H236854   3.098   0.217   8.768 -1.9217 -1.5196 -0.0375
 5099TIP3   OH236855   6.118   6.429   7.968  0.4610  0.2920  0.4673
 5099TIP3    H136856   6.047   6.386   8.016  2.1497 -0.4137  2.5012
 5099TIP3    H236857   6.152   6.495   8.029  1.8754  0.2645 -0.2433
 5100TIP3   OH236858   3.253   0.080   1.640  0.4517 -0.2779  0.0497
 5100TIP3    H136859   3.302   0.162   1.639  1.1080 -0.6624 -0.8327
 5100TIP3    H236860   3.213   0.077   1.726  1.4382  0.3734  0.5512
 5101TIP3   OH236861   0.307   2.519   8.099  0.6232 -0.7684  0.1315
 5101TIP3    H136862   0.261   2.596   8.066  0.0390 -1.3923 -0.5360
 5101TIP3    H236863   0.325   2.466   8.021 -0.3148 -2.0206  0.7297
 5102TIP3   OH236864   2.962   6.775   0.155 -0.4023  0.5110  0.1620
 5102TIP3    H136865   2.878   6.821   0.149 -0.9366 -0.5193 -0.6553
 5102TIP3    H236866   3.027   6.841   0.129 -1.1597  0.8127 -1.0564
 5103TIP3   OH236867   4.277   6.492   0.551  0.0488  0.3761  0.0422
 5103TIP3    H136868   4.331   6.521   0.478 -0.6646 -0.9719 -1.0702
 5103TIP3    H236869   4.324   6.416   0.586  0.3763  1.0025  0.9885
 5104TIP3   OH236870   3.364   4.699   8.175 -0.0120  0.0168 -0.4080
 5104TIP3    H136871   3.407   4.641   8.112  0.4957 -2.6174  2.1308
 5104TIP3    H236872   3.435   4.728   8.233 -0.6435  1.3843 -0.2853
 5105TIP3   OH236873   5.577   2.479   8.169  0.0080  0.2218 -0.2774
 5105TIP3    H136874   5.579   2.546   8.238  0.9451 -2.1553  2.1519
 5105TIP3    H236875   5.669   2.454   8.158 -0.1873  0.1758 -2.0753
 5106TIP3   OH236876   4.289   0.006   0.667 -0.1888  0.1397  0.0670
 5106TIP3    H136877   4.295   0.094   0.705 -0.6672 -0.0181  0.5037
 5106TIP3    H236878   4.361   0.004   0.603 -0.0377  0.7720  0.2037
 5107TIP3   OH236879   3.536   0.496   0.438 -0.1358 -0.6328 -0.0850
 5107TIP3    H136880   3.606   0.535   0.386  0.3185  1.0478  1.6635
 5107TIP3    H236881   3.467   0.563   0.440 -0.4107 -0.9272  0.8879
 5108TIP3   OH236882   0.425   3.301   1.490 -0.0265  0.4341  0.3994
 5108TIP3    H136883   0.462   3.245   1.422  1.3578  0.7094  0.8937
 5108TIP3    H236884   0.357   3.352   1.445  0.6576  0.3986 -0.7028
 5109TIP3   OH236885   3.713   3.767   2.593  0.2375 -0.4328  0.3180
 5109TIP3    H136886   3.665   3.846   2.571 -0.2249 -0.5999  0.7024
 5109TIP3    H236887   3.648   3.696   2.586  0.7732 -0.8475 -0.5366
 5110TIP3   OH236888   1.072   3.056   0.765  0.3914 -0.4479  0.1957
 5110TIP3    H136889   1.146   3.070   0.706  0.5540  2.0981  0.8790
 5110TIP3    H236890   1.045   2.965   0.750  2.7059 -0.9770 -1.1302
 5111TIP3   OH236891   4.941   3.764   8.456 -0.2840  0.4218 -0.0205
 5111TIP3    H136892   4.961   3.798   8.369  2.6791 -0.6555  0.1322
 5111TIP3    H236893   4.932   3.669   8.443 -1.7000  0.4341  0.6157
 5112TIP3   OH236894   3.871   2.947   2.365 -0.2259 -1.0374  0.1069
 5112TIP3    H136895   3.931   2.890   2.412  2.8968 -0.9117 -3.3111
 5112TIP3    H236896   3.791   2.895   2.354  1.7744 -4.0884 -1.1277
 5113TIP3   OH236897   5.166   2.262   2.001 -0.4031 -0.0389 -0.5335
 5113TIP3    H136898   5.179   2.311   2.082 -0.6770 -1.4695  0.4085
 5113TIP3    H236899   5.162   2.329   1.933 -0.9843  1.2496  0.7244
 5114TIP3   OH236900   6.504   4.305   7.571 -0.3346 -0.3213  0.3235
 5114TIP3    H136901   6.526   4.397   7.553  1.1268 -0.2592  2.0707
 5114TIP3    H236902   6.427   4.287   7.517  0.1894  1.5090 -1.1166
 5115TIP3   OH236903   4.081   3.272   2.733  0.3132  0.3383  0.1383
 5115TIP3    H136904   3.998   3.243   2.693  1.2092 -0.4553 -1.2195
 5115TIP3    H236905   4.088   3.364   2.707 -0.7013  0.7802  1.2937
 5116TIP3   OH236906   0.077   3.688   7.384 -0.4270  0.0326  0.3801
 5116TIP3    H136907   0.041   3.602   7.408  1.0421 -0.6633  0.1502
 5116TIP3    H236908   0.100   3.679   7.292 -0.1685  0.6485  0.3854
 5117TIP3   OH236909   3.024   4.237   7.662 -0.4167 -0.1964  0.0419
 5117TIP3    H136910   3.037   4.328   7.686  1.1582 -0.1340 -0.8930
 5117TIP3    H236911   3.080   4.224   7.585 -1.4230 -1.6711 -0.4888
 5118TIP3   OH236912   6.840   3.010   0.391 -0.0302  0.2248  0.0729
 5118TIP3    H136913   6.807   3.034   0.305 -1.2925  1.5416  0.8709
 5118TIP3    H236914   6.839   3.093   0.440  0.3734 -0.5522  1.4376
 5119TIP3   OH236915   5.008   0.770   8.128 -0.1032  0.0683 -0.3866
 5119TIP3    H136916   5.053   0.829   8.188 -0.1480 -0.6765  0.3935
 5119TIP3    H236917   5.077   0.715   8.092 -0.1313  0.2447 -0.7152
 5120TIP3   OH236918   1.981   6.259   2.387  0.0496 -0.4426 -0.1248
 5120TIP3    H136919   1.899   6.282   2.430 -0.3047 -0.3107 -0.8557
 5120TIP3    H236920   1.989   6.165   2.398  0.6755 -0.2423  1.4471
 5121TIP3   OH236921   6.496   1.337   0.804  0.3808  0.2783 -0.2800
 5121TIP3    H136922   6.442   1.290   0.867  0.2596  1.4141  0.4776
 5121TIP3    H236923   6.433   1.383   0.748  0.5196  0.0241 -0.6530
 5122TIP3   OH236924   0.233   1.463   2.557  0.4094 -0.2097  0.1734
 5122TIP3    H136925   0.293   1.401   2.515  0.8109  0.8713 -0.9257
 5122TIP3    H236926   0.231   1.538   2.498 -4.2192 -1.2261 -1.3534
 5123TIP3   OH236927   1.190   4.585   8.335 -0.7103  0.0809 -0.2771
 5123TIP3    H136928   1.167   4.678   8.330  2.7817  1.2318  1.6658
 5123TIP3    H236929   1.260   4.575   8.270  1.2460 -0.2750  1.7796
 5124TIP3   OH236930   3.688   3.125   8.550  0.1315 -0.9732 -0.2980
 5124TIP3    H136931   3.763   3.182   8.568  0.0090 -0.4462 -1.3327
 5124TIP3    H236932   3.623   3.148   8.616  0.4727 -0.6346 -0.0771
 5125TIP3   OH236933   5.856   2.021   8.590  0.3686 -0.3142  0.3993
 5125TIP3    H136934   5.947   1.999   8.573  0.6346  1.0354 -0.0068
 5125TIP3    H236935   5.807   1.941   8.567  1.3895 -0.8846  0.1608
 5126TIP3   OH236936   1.743   5.590   7.088  0.1556  0.4349  0.2937
 5126TIP3    H136937   1.805   5.578   7.017 -0.6866  1.3068 -0.6241
 5126TIP3    H236938   1.673   5.643   7.050  0.2108  1.8665  2.0856
 5127TIP3   OH236939   6.731   1.560   2.414  0.0516  0.0751  0.4120
 5127TIP3    H136940   6.691   1.647   2.421 -0.3893 -0.0992  0.0848
 5127TIP3    H236941   6.726   1.524   2.503 -1.8075 -0.4971  0.1183
 5128TIP3   OH236942   3.290   3.164   0.901  0.3220 -0.0806 -0.6165
 5128TIP3    H136943   3.213   3.114   0.928  0.4833 -0.5089 -0.9343
 5128TIP3    H236944   3.274   3.252   0.934  0.4299 -0.5326  0.6825
 5129TIP3   OH236945   2.568   0.779   8.432  0.0540  0.2703 -0.2432
 5129TIP3    H136946   2.655   0.767   8.393  0.8837  1.6882  1.1012
 5129TIP3    H236947   2.527   0.847   8.379 -0.9651 -1.5463 -1.9345
 5130TIP3   OH236948   1.561   1.895   7.745  0.5550  0.2989 -0.5799
 5130TIP3    H136949   1.497   1.948   7.697  1.4828  0.4665 -1.6787
 5130TIP3    H236950   1.507   1.835   7.798 -0.4966  1.9092  0.2441
 5131TIP3   OH236951   6.806   0.046   7.476  0.3703  0.2870 -0.6981
 5131TIP3    H136952   6.762  -0.032   7.443 -2.4377  2.1424 -1.7201
 5131TIP3    H236953   6.762   0.065   7.559  0.0190  1.5320 -1.1481
 5132TIP3   OH236954   6.776   5.686   0.502 -0.4094  0.3715  0.3941
 5132TIP3    H136955   6.723   5.765   0.509 -1.5311 -0.2646 -0.5532
 5132TIP3    H236956   6.733   5.623   0.561  1.1253  0.7489  2.0346
 5133TIP3   OH236957   5.997   5.125   7.836 -0.0271 -0.2232 -0.8533
 5133TIP3    H136958   6.000   5.136   7.932 -1.1148 -2.5034 -0.5002
 5133TIP3    H236959   5.913   5.163   7.811 -0.8942 -1.8541 -0.5189
 5134TIP3   OH236960   5.071   1.810   7.015  0.1928 -0.3449 -0.0731
 5134TIP3    H136961   5.101   1.856   6.937 -2.0150 -0.5338 -1.1041
 5134TIP3    H236962   5.129   1.734   7.021  1.6078  0.6741 -0.4014
 5135TIP3   OH236963   1.678   5.007   8.619  0.1404 -0.4203  0.5264
 5135TIP3    H136964   1.625   4.996   8.540 -2.5301  0.8420  1.9552
 5135TIP3    H236965   1.766   5.027   8.588 -0.0271 -3.0460 -2.0302
 5136TIP3   OH236966   3.042   6.397   2.735 -0.3809 -0.6151  0.3115
 5136TIP3    H136967   3.107   6.410   2.804 -0.3860  0.2409  0.1638
 5136TIP3    H236968   3.024   6.303   2.736 -0.1253 -0.6571  1.2378
 5137TIP3   OH236969   5.339   0.123   2.403 -0.2430 -0.0576 -0.1989
 5137TIP3    H136970   5.398   0.117   2.478  1.3098 -0.3639 -1.3922
 5137TIP3    H236971   5.359   0.046   2.350 -0.8758  0.4656 -1.2388
 5138TIP3   OH236972   5.123   5.342   0.667  0.1628  0.1937 -0.4780
 5138TIP3    H136973   5.068   5.328   0.744 -0.4607  2.6721 -0.3903
 5138TIP3    H236974   5.212   5.343   0.701  0.1692 -1.9768 -0.3326
 5139TIP3   OH236975   6.509   3.851   2.199 -0.1710  0.3649  0.1352
 5139TIP3    H136976   6.545   3.765   2.220  0.5435  0.3933 -0.8875
 5139TIP3    H236977   6.426   3.855   2.247 -0.9750 -1.4984 -0.9762
 5140TIP3   OH236978   3.586   0.005   1.662 -0.0233  0.0011  0.0444
 5140TIP3    H136979   3.517  -0.006   1.597  1.8693 -0.4140 -2.0415
 5140TIP3    H236980   3.655   0.052   1.615  1.6258 -0.7327  1.6040
 5141TIP3   OH236981   5.440   0.827   8.399  0.0024  0.1037  0.5272
 5141TIP3    H136982   5.523   0.862   8.431 -0.6394  0.2589  2.1668
 5141TIP3    H236983   5.418   0.758   8.461 -0.8501 -0.2741 -0.1787
 5142TIP3   OH236984   2.229   3.808   1.957  0.3075 -0.2247  0.2404
 5142TIP3    H136985   2.198   3.763   2.036  1.5937  1.2446  1.6811
 5142TIP3    H236986   2.294   3.748   1.920  0.3089 -0.5707  0.7856
 5143TIP3   OH236987   2.590   3.107   8.676 -0.0691  0.5245 -0.5792
 5143TIP3    H136988   2.537   3.175   8.634 -2.0469  0.1251  1.1651
 5143TIP3    H236989   2.663   3.155   8.716 -0.5445  1.3958 -0.7402
 5144TIP3   OH236990   6.233   4.157   1.088 -0.5138  0.0870  0.2459
 5144TIP3    H136991   6.205   4.162   1.180  0.4455  1.1803  0.5060
 5144TIP3    H236992   6.307   4.096   1.089 -0.8963 -0.3797  0.0925
 5145TIP3   OH236993   5.544   1.003   6.987  0.5169  0.1503 -0.3394
 5145TIP3    H136994   5.560   1.056   7.065 -0.0963 -1.6922  1.0931
 5145TIP3    H236995   5.537   1.067   6.916  3.7753  1.7518  0.5821
 5146TIP3   OH236996   1.244   5.585   1.762  0.1214  0.6152 -0.0308
 5146TIP3    H136997   1.227   5.491   1.761  0.0706  0.5999  1.1780
 5146TIP3    H236998   1.164   5.624   1.727 -0.1338  0.2377  0.1263
 5147TIP3   OH236999   5.760   2.952   6.565 -0.0117 -0.1399 -0.1879
 5147TIP3    H137000   5.726   2.875   6.520  0.5235 -1.0002  0.8486
 5147TIP3    H237001   5.711   2.957   6.647  0.8884 -0.1811  0.3663
 5148TIP3   OH237002   3.352   1.620   0.335 -0.3132  1.3985 -0.3003
 5148TIP3    H137003   3.267   1.663   0.331 -0.2505  1.4621 -1.0116
 5148TIP3    H237004   3.413   1.690   0.358 -0.3946  1.4232 -0.1534
 5149TIP3   OH237005   3.683   6.151   6.711  0.1201 -0.6649 -0.2386
 5149TIP3    H137006   3.724   6.208   6.777 -0.4007 -0.2577 -0.2596
 5149TIP3    H237007   3.738   6.161   6.633 -0.1911  0.1237 -0.3644
 5150TIP3   OH237008   4.965   2.334   0.954 -0.3224 -0.1177  0.3847
 5150TIP3    H137009   4.871   2.341   0.972  0.2326  2.2469  3.2308
 5150TIP3    H237010   4.977   2.246   0.919 -3.7555  0.0248 -1.5122
 5151TIP3   OH237011   5.598   0.823   0.935 -0.3621  0.5059 -0.0617
 5151TIP3    H137012   5.577   0.789   1.022 -0.6218 -0.9719 -0.6671
 5151TIP3    H237013   5.533   0.892   0.920 -1.7982 -0.7855  0.0104
 5152TIP3   OH237014   0.769   6.304   1.663 -0.5117 -0.3616  0.2195
 5152TIP3    H137015   0.755   6.228   1.719  1.1548 -2.0663 -1.5001
 5152TIP3    H237016   0.864   6.319   1.665 -0.8022  1.7767  0.5763
 5153TIP3   OH237017   2.579   4.296   2.166  0.0953  0.4133  0.1091
 5153TIP3    H137018   2.609   4.273   2.078 -0.8766  2.8731 -0.9451
 5153TIP3    H237019   2.484   4.283   2.163  0.2116 -0.9905  1.3410
 5154TIP3   OH237020   3.996   0.832   6.860 -0.6571 -0.1856 -0.5140
 5154TIP3    H137021   3.926   0.864   6.803 -1.6697  0.6728  1.1250
 5154TIP3    H237022   3.955   0.823   6.946  0.3816 -2.9591 -0.1734
 5155TIP3   OH237023   5.539   6.552   6.906 -0.2119  0.1220  0.5190
 5155TIP3    H137024   5.576   6.467   6.879  0.9833  0.7984 -0.0677
 5155TIP3    H237025   5.552   6.608   6.830 -2.1801  0.5167  0.4144
 5156TIP3   OH237026   2.044   1.952   0.640  0.1975  0.6218  0.0589
 5156TIP3    H137027   2.028   1.858   0.628  0.5600  0.2052  2.4064
 5156TIP3    H237028   1.996   1.993   0.568  0.1604 -1.3553 -1.1248
 5157TIP3   OH237029   3.697   5.286   8.066  0.3585  0.5829  0.2120
 5157TIP3    H137030   3.637   5.325   8.129  0.1480  0.2695  0.2121
 5157TIP3    H237031   3.728   5.359   8.013 -0.9123  0.6180 -0.5350
 5158TIP3   OH237032   5.072   6.658   7.086  0.6071  0.4053 -0.2612
 5158TIP3    H137033   5.159   6.638   7.119 -0.2170 -0.3692  1.5316
 5158TIP3    H237034   5.012   6.616   7.147 -1.0254 -0.9419 -2.6455
 5159TIP3   OH237035   5.853   3.458   8.395  0.0210 -0.0838 -0.1105
 5159TIP3    H137036   5.843   3.379   8.341  0.8023 -1.1337  1.2132
 5159TIP3    H237037   5.883   3.525   8.334 -0.2382 -0.9263 -1.1981
 5160TIP3   OH237038   0.704   2.726   1.411  0.3057 -0.2603  0.7321
 5160TIP3    H137039   0.763   2.656   1.386  0.1417 -0.5121  1.0436
 5160TIP3    H237040   0.701   2.783   1.334  0.1923 -0.7596  0.3611
 5161TIP3   OH237041   5.444   3.777   8.557  0.0027 -0.3415 -0.5074
 5161TIP3    H137042   5.475   3.687   8.550  0.9112 -0.1051  0.2495
 5161TIP3    H237043   5.368   3.772   8.614  0.3322 -0.5757 -0.0835
 5162TIP3   OH237044   4.206   0.555   8.746  0.6092 -0.0655  0.8644
 5162TIP3    H137045   4.138   0.488   8.759  1.6367 -1.6447 -1.2620
 5162TIP3    H237046   4.288   0.506   8.746  1.3015  0.8471 -2.3135
 5163TIP3   OH237047   1.308   1.710   0.006  0.1093  0.3693  0.6122
 5163TIP3    H137048   1.350   1.786   0.046  0.3561  0.2867  0.5147
 5163TIP3    H237049   1.311   1.642   0.074 -0.4413  0.5557  0.8265
 5164TIP3   OH237050   0.736   1.784   8.051 -0.0066 -0.0349  0.2371
 5164TIP3    H137051   0.657   1.731   8.039  2.6400 -4.6893  0.9470
 5164TIP3    H237052   0.765   1.804   7.962  1.0803 -3.7758 -0.4299
 5165TIP3   OH237053   0.689   3.799   1.988 -0.2072  0.1936 -0.5247
 5165TIP3    H137054   0.782   3.782   2.008 -0.3954 -0.6872 -0.3735
 5165TIP3    H237055   0.657   3.717   1.953 -0.9912  0.4388 -0.3871
 5166TIP3   OH237056   5.418   1.418   0.625  0.5486 -0.4159  0.1242
 5166TIP3    H137057   5.367   1.433   0.546  1.6421  0.5628 -0.4338
 5166TIP3    H237058   5.365   1.358   0.678 -1.3453  0.8613 -0.2381
 5167TIP3   OH237059   4.504   5.685   8.496 -0.4339 -0.1764 -0.4019
 5167TIP3    H137060   4.508   5.696   8.401 -1.8885  0.6349 -0.3992
 5167TIP3    H237061   4.413   5.661   8.514 -0.5505  1.1073  0.9018
 5168TIP3   OH237062   0.647   5.251   6.883  0.0642 -0.5287 -0.7173
 5168TIP3    H137063   0.642   5.334   6.835 -2.5462 -0.1460  0.0334
 5168TIP3    H237064   0.555   5.224   6.893  0.5602 -1.3969  2.6569
 5169TIP3   OH237065   3.302   3.910   1.034  0.0394 -0.1082 -0.0882
 5169TIP3    H137066   3.245   3.965   1.086 -0.7744 -0.4252 -0.6250
 5169TIP3    H237067   3.306   3.953   0.949  0.2168 -0.3413 -0.1990
 5170TIP3   OH237068   0.640   4.128   0.304  0.3035  0.2696 -0.8472
 5170TIP3    H137069   0.637   4.221   0.281 -1.1997  0.1936 -1.0498
 5170TIP3    H237070   0.592   4.085   0.234 -0.4813 -0.4673  0.1202
 5171TIP3   OH237071   4.156   6.253   2.265 -0.0277 -0.4460  0.2524
 5171TIP3    H137072   4.094   6.283   2.331 -1.3935  3.2050 -2.3968
 5171TIP3    H237073   4.105   6.196   2.208  0.9405 -2.8893  1.6382
 5172TIP3   OH237074   3.216   4.244   0.153  0.4080 -0.0535  0.0981
 5172TIP3    H137075   3.200   4.156   0.121  2.3852 -0.1350 -0.8102
 5172TIP3    H237076   3.174   4.247   0.239 -1.8896 -1.0119 -0.9181
 5173TIP3   OH237077   1.968   6.673   2.692  0.1702 -0.0488  0.3895
 5173TIP3    H137078   1.906   6.616   2.738 -1.2945 -0.3053 -1.7645
 5173TIP3    H237079   2.052   6.628   2.698 -0.4261 -1.1197  0.9784
 5174TIP3   OH237080   3.737   1.972   1.213 -0.1047  0.3825 -0.2750
 5174TIP3    H137081   3.678   2.046   1.228 -1.8188 -1.0249  0.2651
 5174TIP3    H237082   3.811   1.988   1.272 -1.9419  0.0986  2.2324
 5175TIP3   OH237083   2.178   4.979   0.753  0.6193 -0.0875 -0.7325
 5175TIP3    H137084   2.263   4.973   0.797  0.8974  2.8453 -0.6876
 5175TIP3    H237085   2.118   5.009   0.821 -0.8071 -3.0576 -0.5024
 5176TIP3   OH237086   4.699   3.605   0.415  0.1758  0.0174  0.0366
 5176TIP3    H137087   4.720   3.658   0.492 -0.0019  0.4476 -0.2078
 5176TIP3    H237088   4.617   3.643   0.382 -0.8414 -1.4114  0.7862
 5177TIP3   OH237089   0.764   4.297   0.671  0.0555  0.3091  0.0629
 5177TIP3    H137090   0.854   4.294   0.703  0.7717 -0.1790 -1.8443
 5177TIP3    H237091   0.722   4.365   0.724  1.5723  0.6521  0.8929
 5178TIP3   OH237092   3.072   1.466   1.000  0.1247  0.1151 -0.3713
 5178TIP3    H137093   3.048   1.557   0.985  0.4637  0.1843 -0.5046
 5178TIP3    H237094   3.101   1.463   1.091  1.1703  0.3788 -0.6789
 5179TIP3   OH237095   5.435   4.978   8.635  0.0619  0.1065 -0.1241
 5179TIP3    H137096   5.441   5.049   8.571  0.1251  0.4363  0.2464
 5179TIP3    H237097   5.405   5.020   8.716 -0.1254 -0.3251  0.0372
 5180TIP3   OH237098   5.256   0.868   2.391  0.4123  0.0923  0.3475
 5180TIP3    H137099   5.179   0.844   2.442  0.2536  1.2107  0.6769
 5180TIP3    H237100   5.326   0.874   2.456  0.7464 -0.7583  0.0735
 5181TIP3   OH237101   3.008   5.684   2.615 -0.0712 -0.0317 -0.0613
 5181TIP3    H137102   2.941   5.632   2.659  0.2826 -0.4552 -0.0076
 5181TIP3    H237103   3.022   5.760   2.671 -1.8921  1.0940 -1.0214
 5182TIP3   OH237104   3.857   0.139   7.504  0.1608 -0.1838 -0.1430
 5182TIP3    H137105   3.933   0.081   7.511  0.1093 -0.2708 -0.2854
 5182TIP3    H237106   3.865   0.178   7.417 -0.6065 -1.1209 -0.6510
 5183TIP3   OH237107   6.042   3.708   8.555  0.3452  0.0834  0.0358
 5183TIP3    H137108   6.068   3.616   8.563  0.7193  0.2777  1.4490
 5183TIP3    H237109   6.020   3.720   8.463 -0.6283 -1.6615  0.0059
 5184TIP3   OH237110   1.980   4.230   0.473  0.9273  0.0572 -0.1274
 5184TIP3    H137111   1.983   4.321   0.444  1.0941 -0.2984 -1.3133
 5184TIP3    H237112   2.048   4.186   0.422  1.0664 -0.6764  0.6561
 5185TIP3   OH237113   6.842   4.898   7.194 -0.2363 -0.0568  0.9068
 5185TIP3    H137114   6.849   4.864   7.283  2.0296 -0.4902  0.6236
 5185TIP3    H237115   6.865   4.991   7.201 -0.0303 -0.0963  0.7629
 5186TIP3   OH237116   4.911   4.280   7.317 -0.0401  0.2883  0.4126
 5186TIP3    H137117   4.969   4.316   7.384 -0.0907 -0.5729  0.9381
 5186TIP3    H237118   4.967   4.228   7.260 -0.4640 -2.0450  1.9604
 5187TIP3   OH237119   2.961   0.476   0.919 -0.7114 -0.3041  0.3849
 5187TIP3    H137120   3.026   0.436   0.862  0.8916  2.5115  0.0601
 5187TIP3    H237121   2.965   0.426   1.000  1.9447 -0.1910  0.3947
 5188TIP3   OH237122   0.545   0.121   1.409  0.1853  0.0799  0.6305
 5188TIP3    H137123   0.500   0.204   1.398 -0.0875 -0.0749  0.5601
 5188TIP3    H237124   0.484   0.056   1.372 -0.9633 -0.5187  3.3294
 5189TIP3   OH237125   3.889   5.695   2.008  0.5886 -0.3546  0.2535
 5189TIP3    H137126   3.806   5.651   1.988  1.0751 -0.6114 -1.3543
 5189TIP3    H237127   3.864   5.772   2.059 -0.5452 -0.9543  0.6318
 5190TIP3   OH237128   2.724   1.442   7.549 -0.2719 -0.2800  0.8032
 5190TIP3    H137129   2.753   1.499   7.620  0.4367  1.5548 -0.8654
 5190TIP3    H237130   2.660   1.494   7.502  0.4735 -0.8104 -0.8564
 5191TIP3   OH237131   4.318   0.048   7.089 -0.2209 -0.2328 -0.2356
 5191TIP3    H137132   4.402   0.021   7.124  0.2093  0.5154 -0.6612
 5191TIP3    H237133   4.258   0.043   7.163  0.3889  0.0733  0.2879
 5192TIP3   OH237134   4.381   0.751   0.255 -0.5481  0.0095 -0.0796
 5192TIP3    H137135   4.468   0.721   0.228 -0.6252 -0.7428  0.4775
 5192TIP3    H237136   4.398   0.829   0.308 -0.1254 -0.7402  0.9160
 5193TIP3   OH237137   2.167   5.002   7.909 -0.0856  0.3995  0.3517
 5193TIP3    H137138   2.260   5.001   7.885 -0.0356 -1.2287  0.5485
 5193TIP3    H237139   2.153   4.921   7.957 -1.8898  0.0025 -0.7411
 5194TIP3   OH237140   5.580   1.728   2.196 -0.2084 -0.4578  0.0826
 5194TIP3    H137141   5.532   1.665   2.250 -0.5012 -0.3865 -0.0954
 5194TIP3    H237142   5.641   1.771   2.257  0.3044 -1.2199  0.1216
 5195TIP3   OH237143   3.151   3.213   0.179  0.2504 -0.2216  0.0313
 5195TIP3    H137144   3.104   3.232   0.260  4.4667  0.0379  2.7257
 5195TIP3    H237145   3.133   3.120   0.161 -1.3407 -0.0815  0.7852
 5196TIP3   OH237146   1.932   5.143   8.214  0.1299  0.3727  0.5457
 5196TIP3    H137147   1.895   5.164   8.129  1.6555 -0.4144 -0.3589
 5196TIP3    H237148   1.884   5.198   8.276 -2.4559 -0.5494 -0.5172
 5197TIP3   OH237149   5.135   3.490   7.711 -0.1836  0.3312 -0.2079
 5197TIP3    H137150   5.060   3.488   7.651 -1.1503 -0.2374  0.9906
 5197TIP3    H237151   5.100   3.528   7.791  1.7126  3.6226 -0.7610
 5198TIP3   OH237152   4.853   1.666   8.351  0.2542 -0.1509 -0.2399
 5198TIP3    H137153   4.928   1.611   8.331  1.6480  0.8363  1.9560
 5198TIP3    H237154   4.877   1.753   8.319 -0.0639  0.1199  0.2458
 5199TIP3   OH237155   0.650   0.203   7.816 -0.2824 -0.0442  0.1731
 5199TIP3    H137156   0.671   0.290   7.782  1.4659  0.1561  1.5580
 5199TIP3    H237157   0.698   0.143   7.759  2.6517  0.2892  2.0225
 5200TIP3   OH237158   4.096   2.178   1.565  0.1559  0.4936 -0.4327
 5200TIP3    H137159   4.171   2.233   1.543 -0.6277  0.5610 -3.3523
 5200TIP3    H237160   4.134   2.097   1.596  1.4259  1.0141 -0.5722
 5201TIP3   OH237161   2.447   2.356   2.766 -0.2168 -0.4449  0.0114
 5201TIP3    H137162   2.534   2.337   2.801 -0.9959 -0.5523  2.0336
 5201TIP3    H237163   2.452   2.330   2.674  1.5040 -1.6388  0.3913
 5202TIP3   OH237164   2.231   0.572   1.004 -0.8846 -0.5177 -0.6225
 5202TIP3    H137165   2.266   0.495   1.047  0.6196 -0.2564 -1.3192
 5202TIP3    H237166   2.288   0.644   1.031 -1.6893  0.1955 -0.7405
 5203TIP3   OH237167   1.231   0.802   8.519 -0.0160 -0.0618 -0.1088
 5203TIP3    H137168   1.164   0.869   8.510 -1.5415 -1.4770  0.2532
 5203TIP3    H237169   1.244   0.794   8.613 -0.2787 -0.6900 -0.1258
 5204TIP3   OH237170   2.961   1.962   2.024  0.5606 -0.4043  0.1706
 5204TIP3    H137171   3.003   1.977   1.939  0.9232 -2.0498  0.0147
 5204TIP3    H237172   3.027   1.989   2.088  0.8127 -0.4471 -0.0705
 5205TIP3   OH237173   2.654   1.605   8.230 -0.7451  0.6298  0.5633
 5205TIP3    H137174   2.604   1.667   8.284  0.3721  2.2115 -0.1361
 5205TIP3    H237175   2.666   1.651   8.147 -2.8220 -1.9049 -1.3090
 5206TIP3   OH237176   4.529   5.636   0.247  0.6283  0.3944 -0.0038
 5206TIP3    H137177   4.554   5.680   0.166 -1.4300  0.8705 -0.4497
 5206TIP3    H237178   4.590   5.669   0.312  0.8857  1.7758 -0.9045
 5207TIP3   OH237179   3.722   2.416   2.240 -0.7238  0.5557  0.7586
 5207TIP3    H137180   3.633   2.444   2.260 -0.3608  0.5520  2.4956
 5207TIP3    H237181   3.774   2.444   2.315  0.3468 -1.3857  0.7926
 5208TIP3   OH237182   2.038   3.981   6.937  0.3376  0.1527  0.1035
 5208TIP3    H137183   2.118   3.930   6.927 -0.4941 -1.0954 -0.5236
 5208TIP3    H237184   2.039   4.042   6.863  1.2923  1.0088  0.8014
 5209TIP3   OH237185   4.492   4.759   8.056  0.1403 -0.2022  0.0053
 5209TIP3    H137186   4.445   4.842   8.066  0.0766 -0.4627  2.7472
 5209TIP3    H237187   4.452   4.701   8.121  0.0817 -2.4772 -1.9489
 5210TIP3   OH237188   3.839   0.200   1.306  0.4978  0.4444 -0.2447
 5210TIP3    H137189   3.831   0.116   1.262  2.5314  0.3284 -0.4997
 5210TIP3    H237190   3.796   0.262   1.247  1.1679 -0.0632 -1.3012
 5211TIP3   OH237191   5.342   2.635   1.698  0.4245 -0.3992  0.5281
 5211TIP3    H137192   5.315   2.725   1.682 -0.0584 -0.5776  0.3241
 5211TIP3    H237193   5.422   2.624   1.646 -1.3397 -1.1022 -2.2282
 5212TIP3   OH237194   6.685   3.638   0.153  0.0808 -0.3599  0.7607
 5212TIP3    H137195   6.738   3.656   0.231  1.9954  0.2595 -0.6242
 5212TIP3    H237196   6.710   3.706   0.091 -0.9433 -1.2145 -0.6355
 5213TIP3   OH237197   6.294   0.702   6.696  0.2745  0.1019 -0.0667
 5213TIP3    H137198   6.358   0.631   6.702  0.1977 -0.0654 -1.0082
 5213TIP3    H237199   6.252   0.688   6.611  0.6537  1.5979 -0.5288
 5214TIP3   OH237200   1.529   6.208   1.348  0.2957 -0.1924 -0.0176
 5214TIP3    H137201   1.445   6.163   1.356 -0.9041  1.5221 -1.9843
 5214TIP3    H237202   1.591   6.139   1.327 -0.9079 -1.2963 -0.1021
 5215TIP3   OH237203   1.217   0.326   1.928  0.2010  0.3360 -0.2388
 5215TIP3    H137204   1.300   0.293   1.963 -0.0298  0.2484  0.2376
 5215TIP3    H237205   1.189   0.260   1.865  0.1418  0.0060  0.1256
 5216TIP3   OH237206   5.819   2.627   7.162 -0.6752  0.1614 -0.5528
 5216TIP3    H137207   5.763   2.563   7.206  0.9514 -0.4151  0.7615
 5216TIP3    H237208   5.761   2.701   7.145 -2.0406 -0.7334 -0.0074
 5217TIP3   OH237209   4.352   3.931   0.069 -0.2089 -0.5053  0.1197
 5217TIP3    H137210   4.333   4.020   0.041 -2.6596 -0.6885  0.9946
 5217TIP3    H237211   4.442   3.934   0.101 -0.4922  1.8328  0.8301
 5218TIP3   OH237212   2.113   0.789   1.442  0.4081 -0.2200 -0.1207
 5218TIP3    H137213   2.040   0.842   1.476 -0.6553 -0.6109 -1.6791
 5218TIP3    H237214   2.140   0.834   1.362  0.0204 -1.5586 -1.0370
 5219TIP3   OH237215   5.653   2.391   2.231 -0.1797  0.2042  0.1392
 5219TIP3    H137216   5.681   2.377   2.141 -0.3186  1.1630 -0.0681
 5219TIP3    H237217   5.577   2.334   2.242 -1.4842  1.6273 -1.0439
 5220TIP3   OH237218   1.572   0.149   2.541 -0.4196  0.2123  0.1891
 5220TIP3    H137219   1.515   0.089   2.494  0.3714 -0.8396  0.5343
 5220TIP3    H237220   1.661   0.122   2.517 -0.0150  2.4335 -1.1387
 5221TIP3   OH237221   2.882   0.055   0.990 -0.3568  0.4867  0.3432
 5221TIP3    H137222   2.799   0.101   0.974 -1.9039 -1.8571  1.0263
 5221TIP3    H237223   2.885   0.043   1.085  0.3304 -0.1943  0.2501
 5222TIP3   OH237224   2.576   4.715   1.124 -0.2380  0.1701  0.0872
 5222TIP3    H137225   2.660   4.694   1.082 -0.1189  0.7568  0.0263
 5222TIP3    H237226   2.586   4.805   1.155 -0.2930 -0.2742  1.4583
 5223TIP3   OH237227   1.665   0.491   0.535  0.1144  0.5064  0.2101
 5223TIP3    H137228   1.740   0.516   0.590  0.8996 -0.1925 -0.5109
 5223TIP3    H237229   1.653   0.398   0.552 -0.4154  0.5470  0.0875
 5224TIP3   OH237230   1.739   2.052   8.556  0.1245  0.2399 -0.0670
 5224TIP3    H137231   1.662   1.996   8.553  0.9016 -0.8390 -1.6027
 5224TIP3    H237232   1.786   2.032   8.475  1.0511  2.2638 -0.1004
 5225TIP3   OH237233   6.240   5.607   0.870 -0.5460  0.0049 -0.4835
 5225TIP3    H137234   6.233   5.562   0.954 -1.1009  0.4434 -0.2865
 5225TIP3    H237235   6.233   5.537   0.805  1.3172 -0.5246 -0.1778
 5226TIP3   OH237236   3.081   3.029   2.513  0.2162  0.1075  0.5466
 5226TIP3    H137237   3.101   2.992   2.599  0.1079 -0.5001  0.3155
 5226TIP3    H237238   3.003   2.982   2.485  0.5363 -0.0371 -0.0997
 5227TIP3   OH237239   0.001   2.260   7.052 -0.1413  0.3976 -0.1961
 5227TIP3    H137240   0.064   2.306   6.996  0.1830  0.3919  0.1587
 5227TIP3    H237241  -0.059   2.329   7.082 -0.7340  0.2922 -1.0903
 5228TIP3   OH237242   5.018   1.524   8.119 -0.3019  0.1007  0.2373
 5228TIP3    H137243   4.977   1.474   8.189 -0.0521  1.1502  1.1756
 5228TIP3    H237244   5.108   1.538   8.149  0.8883 -2.2971 -1.8526
 5229TIP3   OH237245   2.882   4.646   1.796 -0.4069  0.2905 -0.3467
 5229TIP3    H137246   2.878   4.724   1.851 -0.1316  1.0021 -1.3078
 5229TIP3    H237247   2.967   4.607   1.815 -0.2497  0.6158 -0.3759
 5230TIP3   OH237248   5.746   5.664   0.847 -0.1378 -0.0454  0.1641
 5230TIP3    H137249   5.680   5.669   0.916 -0.0479 -2.1889  0.4815
 5230TIP3    H237250   5.826   5.695   0.889 -0.5369  0.7820  0.3369
 5231TIP3   OH237251   4.412   1.450   8.385  0.2512  0.5907  0.8098
 5231TIP3    H137252   4.370   1.456   8.299 -1.5128  1.8445  1.6962
 5231TIP3    H237253   4.380   1.527   8.432  0.9740 -0.2116  2.6853
 5232TIP3   OH237254   5.130   6.686   7.407 -0.0949  0.0498 -0.1325
 5232TIP3    H137255   5.115   6.637   7.488  2.4278 -0.2172  0.2536
 5232TIP3    H237256   5.050   6.673   7.356 -0.8246 -1.6970  1.3387
 5233TIP3   OH237257   0.764   6.383   0.996 -0.4423 -0.3755  0.0699
 5233TIP3    H137258   0.806   6.359   0.913  0.4997 -1.3464  0.8123
 5233TIP3    H237259   0.670   6.379   0.977 -0.2464  0.6296 -1.2787
 5234TIP3   OH237260   2.481   3.207   2.523  0.1553  0.4365 -0.1703
 5234TIP3    H137261   2.539   3.141   2.486 -0.0203  0.6887 -0.9013
 5234TIP3    H237262   2.518   3.291   2.494 -2.0722  0.5597 -2.9815
 5235TIP3   OH237263   1.487   4.032   7.159 -0.6348  0.3068 -0.2508
 5235TIP3    H137264   1.492   3.937   7.167 -0.1086  0.4926  2.6463
 5235TIP3    H237265   1.413   4.047   7.100 -1.9387 -1.8723  0.6927
 5236TIP3   OH237266   1.637   0.306   1.952 -0.6352 -0.4924  0.7456
 5236TIP3    H137267   1.578   0.380   1.963 -0.8896 -1.0654  4.1216
 5236TIP3    H237268   1.585   0.230   1.976  0.6099 -1.3692  0.7739
 5237TIP3   OH237269   0.081   6.748   0.143  0.2729 -0.3844  0.2657
 5237TIP3    H137270   0.090   6.661   0.104  0.1881 -1.1239  1.8205
 5237TIP3    H237271   0.159   6.758   0.197  0.8622  1.0131 -0.7560
 5238TIP3   OH237272   4.739   5.537   8.569 -0.3637 -0.0408 -0.1438
 5238TIP3    H137273   4.698   5.623   8.573 -0.0001  0.1197  0.3980
 5238TIP3    H237274   4.735   5.512   8.477 -2.2931 -0.3511  0.0002
 5239TIP3   OH237275   5.235   0.083   6.908  0.1162 -0.0852 -0.2255
 5239TIP3    H137276   5.209   0.058   6.819  1.2697  0.4501 -0.7223
 5239TIP3    H237277   5.326   0.110   6.900 -0.1786  1.3234  0.8612
 5240TIP3   OH237278   0.081   4.596   2.428 -0.3979 -0.2322 -0.0773
 5240TIP3    H137279   0.001   4.550   2.402 -0.3403  0.0038 -0.6823
 5240TIP3    H237280   0.070   4.613   2.521 -0.9102 -0.4876 -0.0896
 5241TIP3   OH237281   6.697   0.651   7.378 -0.5712  0.3884  0.1952
 5241TIP3    H137282   6.727   0.611   7.297 -0.4924  0.8261  0.0054
 5241TIP3    H237283   6.620   0.600   7.403 -0.4526  0.0978 -0.0195
 5242TIP3   OH237284   0.246   0.616   1.353  0.3233  0.4475  0.4092
 5242TIP3    H137285   0.174   0.561   1.321  0.5562 -0.5960  1.6437
 5242TIP3    H237286   0.207   0.668   1.423  0.9952 -0.8513  1.7741
 5243TIP3   OH237287   6.413   5.963   7.935 -0.1294  0.3186 -0.0566
 5243TIP3    H137288   6.427   5.869   7.952 -0.0467  0.6064  1.6325
 5243TIP3    H237289   6.406   6.002   8.022 -0.8376  1.7946 -0.7464
 5244TIP3   OH237290   3.231   2.488   7.643  0.4341  0.0002 -0.0855
 5244TIP3    H137291   3.326   2.488   7.641  0.6152  2.9830  1.9438
 5244TIP3    H237292   3.207   2.409   7.690  1.9312 -0.4623 -0.0680
 5245TIP3   OH237293   5.662   4.534   1.109  0.2305  0.5027  0.2744
 5245TIP3    H137294   5.648   4.439   1.110  1.4477  0.3158  0.4433
 5245TIP3    H237295   5.622   4.564   1.191 -0.5299  0.2125  0.0264
 5246TIP3   OH237296   5.843   5.353   8.257  0.1139 -0.4684  0.3419
 5246TIP3    H137297   5.839   5.407   8.178  0.3429 -0.3330  0.4208
 5246TIP3    H237298   5.934   5.360   8.286 -0.0413 -0.2679  0.7930
 5247TIP3   OH237299   0.076   5.489   8.672  0.3588  0.0178 -0.4954
 5247TIP3    H137300   0.078   5.534   8.756 -0.1853 -1.3336  0.2911
 5247TIP3    H237301   0.099   5.398   8.693 -1.2448 -0.6820 -1.5438
 5248TIP3   OH237302   3.575   6.453   6.413  0.1827 -0.5781 -0.4301
 5248TIP3    H137303   3.541   6.503   6.487 -1.3811 -1.9126 -0.1732
 5248TIP3    H237304   3.661   6.423   6.442  1.0402  1.6314 -0.4855
 5249TIP3   OH237305   1.654   2.965   0.822  0.3500  0.1819  0.5540
 5249TIP3    H137306   1.616   2.989   0.737  1.0205  0.8212  0.4271
 5249TIP3    H237307   1.621   3.031   0.883 -2.1052 -1.6012  1.3624
 5250TIP3   OH237308   3.987   1.270   1.348 -0.2662 -0.6934  0.3407
 5250TIP3    H137309   3.908   1.285   1.297  1.1083  0.2794 -1.5983
 5250TIP3    H237310   3.970   1.311   1.433 -0.1363  4.0296 -1.6197
 5251TIP3   OH237311   6.048   6.794   0.237  0.2445 -0.5273 -0.6953
 5251TIP3    H137312   5.962   6.777   0.200  0.3039 -0.8091 -0.7037
 5251TIP3    H237313   6.093   6.845   0.170 -0.6039  1.3788  0.1068
 5252TIP3   OH237314   3.102   0.084   7.890  0.3116  0.2620 -0.0708
 5252TIP3    H137315   3.068   0.124   7.811 -1.9410  0.7656  1.0737
 5252TIP3    H237316   3.133  -0.002   7.862  0.2493  0.7172 -1.6119
 5253TIP3   OH237317   1.989   0.846   7.836 -0.2438  0.1427 -0.0288
 5253TIP3    H137318   1.940   0.928   7.841  0.9298  0.8520  0.1947
 5253TIP3    H237319   2.080   0.872   7.844  0.0807 -1.3347  1.9171
 5254TIP3   OH237320   5.921   2.791   8.332 -0.0975 -0.4843  0.1148
 5254TIP3    H137321   5.849   2.796   8.269  0.0901 -0.5624 -0.1097
 5254TIP3    H237322   5.983   2.729   8.292  0.8897  0.8585 -0.5225
 5255TIP3   OH237323   6.834   5.201   0.384  0.0546  0.3452  0.8662
 5255TIP3    H137324   6.920   5.196   0.424  0.5366  3.8780  0.6168
 5255TIP3    H237325   6.781   5.250   0.447  0.0259  3.4668 -1.3619
 5256TIP3   OH237326   5.013   3.656   2.125 -0.3787  0.0392 -0.5255
 5256TIP3    H137327   5.071   3.683   2.197 -2.0724  0.8099  0.6287
 5256TIP3    H237328   5.067   3.664   2.047  1.8121 -1.6777  0.7005
 5257TIP3   OH237329   5.329   5.163   0.906 -0.1245  0.4212 -0.3301
 5257TIP3    H137330   5.250   5.142   0.858  0.4562  0.7796 -1.4917
 5257TIP3    H237331   5.318   5.122   0.992 -1.0869 -0.4322 -0.8506
 5258TIP3   OH237332   3.850   3.643   1.525  0.0978 -0.3883  0.4537
 5258TIP3    H137333   3.760   3.665   1.500  1.2212  2.4686 -1.6242
 5258TIP3    H237334   3.860   3.551   1.499 -1.2076  0.2352 -2.7826
 5259TIP3   OH237335   5.027   2.079   1.105  0.2634 -0.6431  0.4798
 5259TIP3    H137336   5.033   1.984   1.113  0.0290 -0.7731 -0.7547
 5259TIP3    H237337   5.067   2.099   1.021 -1.4584  0.1365 -0.2020
 5260TIP3   OH237338   3.783   5.866   6.770 -0.3929 -0.2496 -0.0456
 5260TIP3    H137339   3.721   5.939   6.767 -1.1215 -0.8838 -1.2163
 5260TIP3    H237340   3.728   5.789   6.781  0.3238 -0.6902  0.5202
 5261TIP3   OH237341   2.455   4.881   2.761  0.0529  0.0231 -0.1839
 5261TIP3    H137342   2.395   4.887   2.835  0.0311  0.8333 -0.2627
 5261TIP3    H237343   2.457   4.969   2.724  0.1213 -0.3464 -1.1054
 5262TIP3   OH237344   5.945   2.279   7.563  0.0314  0.6013 -0.0767
 5262TIP3    H137345   5.953   2.313   7.474 -1.1311 -0.5084 -0.6406
 5262TIP3    H237346   5.866   2.320   7.598  0.1866  0.6267  0.2484
 5263TIP3   OH237347   0.215   5.879   1.553 -0.1256 -0.4795  0.5312
 5263TIP3    H137348   0.211   5.965   1.596  3.3062  0.7706 -1.2474
 5263TIP3    H237349   0.244   5.899   1.464  0.3293 -3.4739 -0.0765
 5264TIP3   OH237350   3.225   4.403   2.256 -0.3077 -0.2241  0.0486
 5264TIP3    H137351   3.197   4.347   2.183  0.4901 -2.6479  1.4867
 5264TIP3    H237352   3.148   4.407   2.313 -0.2103 -0.3068  0.1874
 5265TIP3   OH237353   3.716   1.310   0.400 -0.1676 -0.1392  0.1848
 5265TIP3    H137354   3.768   1.283   0.324 -0.5462 -0.8912  0.1873
 5265TIP3    H237355   3.630   1.271   0.385 -0.2268 -0.3421  1.0259
 5266TIP3   OH237356   4.199   1.829   8.347 -0.4201  0.1207 -0.3857
 5266TIP3    H137357   4.131   1.770   8.314 -1.6288  0.0951  1.9391
 5266TIP3    H237358   4.161   1.916   8.339 -0.7105  0.1163  0.8225
 5267TIP3   OH237359   3.679   2.223   7.673  0.0868 -0.2994 -0.4031
 5267TIP3    H137360   3.671   2.170   7.594 -3.3226 -0.8781  0.1704
 5267TIP3    H237361   3.653   2.311   7.646  2.0671  0.2786 -0.5481
 5268TIP3   OH237362   4.145   0.818   1.483  0.4453 -0.1296 -0.0522
 5268TIP3    H137363   4.226   0.862   1.457  0.2328 -0.2441 -0.9125
 5268TIP3    H237364   4.134   0.747   1.419 -0.1569 -0.3276  0.2618
 5269TIP3   OH237365   0.796   5.277   2.242 -0.0520 -0.1148 -0.4729
 5269TIP3    H137366   0.735   5.212   2.277  0.2130  0.0094  0.2453
 5269TIP3    H237367   0.808   5.339   2.314 -1.6008  1.6912 -1.6602
 5270TIP3   OH237368   4.712   3.957   1.738 -0.1305 -0.5892  0.1601
 5270TIP3    H137369   4.715   4.048   1.707  0.9851 -0.0968  1.6420
 5270TIP3    H237370   4.683   3.907   1.661 -1.7669  1.1203 -0.4189
 5271TIP3   OH237371   5.374   6.687   6.583  0.4565 -0.3073  0.5193
 5271TIP3    H137372   5.397   6.604   6.540 -0.2537 -0.7248  0.9075
 5271TIP3    H237373   5.446   6.703   6.644  2.0126  0.8482 -1.5282
 5272TIP3   OH237374   4.743   2.099   7.968  0.1422  0.4097  0.4944
 5272TIP3    H137375   4.713   2.151   7.893 -0.7635 -0.2924  0.3496
 5272TIP3    H237376   4.834   2.125   7.979  0.8470 -0.6876 -1.9500
 5273TIP3   OH237377   6.587   4.692   0.758  0.0085  0.0693 -0.5025
 5273TIP3    H137378   6.509   4.644   0.784  1.4144 -1.1408  1.8529
 5273TIP3    H237379   6.611   4.655   0.673 -0.5239 -1.4288 -0.0274
 5274TIP3   OH237380   1.019   3.005   1.821  0.0749  0.5972  0.2433
 5274TIP3    H137381   0.957   3.047   1.882 -2.2861 -1.0470 -0.8559
 5274TIP3    H237382   1.086   3.071   1.806 -1.7622  2.7938  1.0362
 5275TIP3   OH237383   0.009   1.098   1.581 -0.2635  0.3519 -0.1044
 5275TIP3    H137384   0.031   1.177   1.631 -0.4112  0.5274 -0.3177
 5275TIP3    H237385   0.073   1.034   1.610 -1.2236  0.0084  1.4100
 5276TIP3   OH237386   1.175   3.340   0.347 -0.0471 -0.1535 -0.1210
 5276TIP3    H137387   1.105   3.290   0.306  0.5715  0.5778 -2.1744
 5276TIP3    H237388   1.170   3.426   0.306  0.3926  0.7737  1.6513
 5277TIP3   OH237389   6.320   3.469   7.766 -0.5618 -0.0134 -0.3147
 5277TIP3    H137390   6.338   3.558   7.737 -1.5993 -0.4401 -2.4894
 5277TIP3    H237391   6.403   3.437   7.800  0.0419  1.4808 -0.3421
 5278TIP3   OH237392   0.033   2.696   1.368  0.0196  0.4706 -0.2519
 5278TIP3    H137393   0.055   2.768   1.309  0.3208  0.0295 -0.6866
 5278TIP3    H237394  -0.062   2.688   1.360  0.1517 -0.1669 -1.3775
 5279TIP3   OH237395   5.009   5.912   7.336 -0.4510  0.4824 -0.2571
 5279TIP3    H137396   5.000   5.935   7.244  3.0432  1.0264 -0.5816
 5279TIP3    H237397   5.092   5.866   7.342 -1.0808 -0.5079  2.5001
 5280TIP3   OH237398   2.170   3.850   0.917  0.2615 -0.1026  0.2547
 5280TIP3    H137399   2.098   3.835   0.855  0.2755 -0.1313  0.2459
 5280TIP3    H237400   2.175   3.946   0.924  1.1732 -0.0538 -0.8540
 5281TIP3   OH237401   3.447   0.011   7.366  0.2378 -0.1989  0.4265
 5281TIP3    H137402   3.486   0.013   7.453 -0.4007  2.1475  0.7093
 5281TIP3    H237403   3.518   0.038   7.307  0.5981 -1.5419  0.2125
 5282TIP3   OH237404   5.445   1.795   1.395 -0.0803 -0.1370 -0.3829
 5282TIP3    H137405   5.448   1.747   1.312 -2.6746  0.1506 -0.7327
 5282TIP3    H237406   5.515   1.859   1.388  0.3511 -0.7229 -1.9568
 5283TIP3   OH237407   3.678   4.387   8.097 -0.2122 -0.4971  0.0727
 5283TIP3    H137408   3.582   4.387   8.103 -0.3525 -0.8743 -1.7101
 5283TIP3    H237409   3.707   4.367   8.186 -1.8087 -1.0560  0.5078
 5284TIP3   OH237410   1.817   5.505   0.352 -0.4750  0.6423 -0.1068
 5284TIP3    H137411   1.760   5.490   0.428  0.3498  2.4096  0.9031
 5284TIP3    H237412   1.764   5.477   0.277 -1.9098  0.3581  0.9716
 5285TIP3   OH237413   4.088   4.856   0.697  0.1596  0.0248 -0.3090
 5285TIP3    H137414   4.136   4.938   0.685  1.0504 -0.1517  1.5954
 5285TIP3    H237415   4.157   4.791   0.713 -0.5745 -0.9407 -1.0056
 5286TIP3   OH237416   3.535   5.327   7.721 -0.3739 -0.0549 -0.6563
 5286TIP3    H137417   3.516   5.373   7.640  1.8141  0.1822 -1.1062
 5286TIP3    H237418   3.469   5.357   7.783 -1.0455  1.0702 -1.8855
 5287TIP3   OH237419   2.255   3.488   8.652  0.0496 -0.7539  0.1037
 5287TIP3    H137420   2.314   3.557   8.624 -0.6349 -0.0744  0.3228
 5287TIP3    H237421   2.185   3.487   8.587 -0.5509 -0.4471  0.7293
 5288TIP3   OH237422   0.412   1.230   2.548  0.7654 -0.3795  0.2105
 5288TIP3    H137423   0.409   1.149   2.599 -2.0536 -0.8518 -0.5493
 5288TIP3    H237424   0.423   1.201   2.458 -1.5186 -0.0808 -0.2202
 5289TIP3   OH237425   0.335   4.055   2.533  0.1434 -1.0932  0.5142
 5289TIP3    H137426   0.329   4.068   2.439 -1.7092  1.6389  0.8943
 5289TIP3    H237427   0.252   4.015   2.558 -0.1405 -0.1487  1.1595
 5290TIP3   OH237428   4.043   1.393   1.933  0.3037 -0.4144  0.2835
 5290TIP3    H137429   4.012   1.387   2.023 -0.6099  1.9290  0.1964
 5290TIP3    H237430   3.964   1.399   1.880  0.7691 -3.3770 -0.9126
 5291TIP3   OH237431   1.468   2.236   0.676  0.1398  0.5533 -0.2178
 5291TIP3    H137432   1.563   2.227   0.672  0.0015 -0.7121 -1.7776
 5291TIP3    H237433   1.445   2.282   0.596 -0.6606 -0.6064 -0.6878
 5292TIP3   OH237434   3.065   2.961   8.317  0.0558 -0.1205 -0.2217
 5292TIP3    H137435   3.026   3.031   8.369  1.0552  0.7886 -0.6549
 5292TIP3    H237436   3.068   2.885   8.376 -0.6524  0.3230  0.3887
 5293TIP3   OH237437   3.116   0.908   7.221  0.6440 -0.2465 -0.1762
 5293TIP3    H137438   3.117   0.935   7.129  2.4567 -0.2389 -0.1819
 5293TIP3    H237439   3.118   0.813   7.218 -1.4242 -0.3438 -0.1165
 5294TIP3   OH237440   6.553   4.895   7.094  0.7092 -0.0960 -0.5063
 5294TIP3    H137441   6.582   4.860   7.179  1.2849 -0.5840 -0.8963
 5294TIP3    H237442   6.624   4.954   7.068  0.6755 -0.1869 -0.7965
 5295TIP3   OH237443   3.049   1.742   7.605  0.1947 -0.7473  0.4404
 5295TIP3    H137444   3.132   1.729   7.560 -0.2188 -2.0246  0.0052
 5295TIP3    H237445   3.073   1.780   7.690  1.2699 -1.6493  0.5556
 5296TIP3   OH237446   0.085   4.840   8.674 -0.7444  0.3668  0.2139
 5296TIP3    H137447   0.041   4.922   8.651 -0.7963 -0.0153 -1.1536
 5296TIP3    H237448   0.031   4.771   8.635 -2.3180 -0.6108  3.8013
 5297TIP3   OH237449   5.241   6.503   0.994 -0.1303  0.3490  0.3580
 5297TIP3    H137450   5.221   6.536   0.906 -0.5854  0.1174  0.3694
 5297TIP3    H237451   5.260   6.582   1.045 -1.8229  0.6756  0.5388
 5298TIP3   OH237452   4.639   6.703   2.709  0.0396 -0.7475 -0.9959
 5298TIP3    H137453   4.666   6.649   2.636  1.6991  1.5363 -2.1992
 5298TIP3    H237454   4.706   6.771   2.715 -1.7660  1.0340  0.5523
 5299TIP3   OH237455   5.078   0.677   0.584 -0.4691 -0.3999 -0.0953
 5299TIP3    H137456   5.066   0.668   0.489  2.2240 -0.0478 -0.5487
 5299TIP3    H237457   5.123   0.597   0.611 -2.2134 -1.0171  1.1470
 5300TIP3   OH237458   0.691   5.131   7.765 -0.1532  0.6372  0.2168
 5300TIP3    H137459   0.663   5.135   7.674 -1.0281 -0.9964  0.3613
 5300TIP3    H237460   0.615   5.158   7.816 -0.8958 -1.8246  0.5411
 5301TIP3   OH237461   6.684   2.481   7.820  0.2451  0.1211 -0.4617
 5301TIP3    H137462   6.646   2.567   7.798  0.3360  0.0525 -0.8989
 5301TIP3    H237463   6.624   2.418   7.780 -0.6809 -0.0826  1.1726
 5302TIP3   OH237464   4.050   0.389   1.476  0.0847  0.0820 -0.3018
 5302TIP3    H137465   4.038   0.376   1.382 -1.1119 -0.7976 -0.0485
 5302TIP3    H237466   3.981   0.451   1.500  1.0138  1.0769 -0.1659
 5303TIP3   OH237467   5.402   5.478   0.350  0.5690  0.3004  0.2410
 5303TIP3    H137468   5.401   5.533   0.273 -0.9932  0.7398  0.5377
 5303TIP3    H237469   5.462   5.406   0.328 -0.3456  0.0626 -1.6291
 5304TIP3   OH237470   6.377   5.331   1.040 -0.1683 -0.0923  0.0401
 5304TIP3    H137471   6.462   5.343   0.999  0.8539 -2.0035  1.4271
 5304TIP3    H237472   6.386   5.251   1.091 -2.1042  0.8246  2.0046
 5305TIP3   OH237473   2.901   4.935   0.446 -0.5136  0.4963  0.0893
 5305TIP3    H137474   2.938   4.970   0.364  0.9128  1.4808  1.0955
 5305TIP3    H237475   2.972   4.946   0.510 -0.6897 -2.5379  0.9358
 5306TIP3   OH237476   6.699   6.448   1.020  0.2742  0.7131  0.5998
 5306TIP3    H137477   6.677   6.383   1.086 -1.2325 -0.0531 -0.5984
 5306TIP3    H237478   6.694   6.532   1.066 -0.0881  0.1561  1.5937
 5307TIP3   OH237479   2.357   3.699   7.855 -0.1512  0.4924 -0.6768
 5307TIP3    H137480   2.296   3.709   7.782 -0.4701  0.8710 -0.3626
 5307TIP3    H237481   2.442   3.726   7.820 -0.5159  1.7927 -0.5855
 5308TIP3   OH237482   4.862   3.527   6.910 -0.6575 -0.1295  0.6060
 5308TIP3    H137483   4.887   3.592   6.844  1.9924 -1.5071  0.1265
 5308TIP3    H237484   4.767   3.520   6.902 -0.7522  2.0428 -0.8471
 5309TIP3   OH237485   3.849   5.628   1.371 -0.2982 -0.1750 -0.3892
 5309TIP3    H137486   3.788   5.691   1.410  2.3072  1.0906  2.0091
 5309TIP3    H237487   3.878   5.574   1.445  1.0206 -1.1360 -1.5557
 5310TIP3   OH237488   4.710   1.419   0.289  0.0311 -0.1084 -0.6015
 5310TIP3    H137489   4.624   1.411   0.247 -0.1625 -0.5322 -0.1312
 5310TIP3    H237490   4.699   1.487   0.355  0.1726  0.1346 -0.8275
 5311TIP3   OH237491   4.748   0.754   0.865  1.2160  0.0847  0.2099
 5311TIP3    H137492   4.743   0.679   0.806  1.2329 -0.7187  1.2035
 5311TIP3    H237493   4.664   0.798   0.854  1.1625 -0.1295 -0.3037
 5312TIP3   OH237494   5.809   0.420   0.382 -0.1781 -0.0279  0.1454
 5312TIP3    H137495   5.883   0.387   0.434 -0.4301 -1.7648 -0.5467
 5312TIP3    H237496   5.787   0.349   0.323 -2.9815  0.0912  0.8969
 5313TIP3   OH237497   2.534   4.089   7.858  0.4224 -0.2734  0.5995
 5313TIP3    H137498   2.614   4.129   7.825  0.6254 -1.6257 -0.6262
 5313TIP3    H237499   2.562   4.005   7.893 -0.5899 -1.2623 -0.8562
 5314TIP3   OH237500   2.383   1.124   1.686  0.1306  0.3755 -0.0026
 5314TIP3    H137501   2.331   1.126   1.606 -0.0754 -2.7443 -0.0642
 5314TIP3    H237502   2.318   1.115   1.756  0.2168  4.2647  0.7866
 5315TIP3   OH237503   5.033   2.449   0.128 -0.1231  0.5372 -0.3789
 5315TIP3    H137504   4.938   2.461   0.129 -0.0797  0.9033 -0.5272
 5315TIP3    H237505   5.068   2.538   0.131  0.2237  0.3709  1.3292
 5316TIP3   OH237506   3.265   6.695   0.211  0.3327  0.1783 -0.8909
 5316TIP3    H137507   3.181   6.651   0.194 -1.1977  2.1326  1.0391
 5316TIP3    H237508   3.311   6.635   0.271  0.3079 -0.8422 -1.8495
 5317TIP3   OH237509   6.181   2.199   1.861 -0.3093  0.3709 -0.3764
 5317TIP3    H137510   6.268   2.193   1.899  0.1211 -0.0091 -1.3725
 5317TIP3    H237511   6.178   2.128   1.796 -0.3042  2.1202 -2.3883
 5318TIP3   OH237512   1.871   4.569   1.079  0.3978  0.2085 -0.5872
 5318TIP3    H137513   1.931   4.549   1.007  0.7063  0.2448 -0.3432
 5318TIP3    H237514   1.919   4.630   1.135  0.1289  0.2501 -0.3969
 5319TIP3   OH237515   0.198   6.505   8.326  0.3559  0.2852 -0.4928
 5319TIP3    H137516   0.256   6.429   8.326  0.5451  0.4264  0.4362
 5319TIP3    H237517   0.110   6.468   8.337 -0.0468 -0.1181 -3.9189
 5320TIP3   OH237518   2.264   2.250   0.370  0.4261 -0.5090 -1.1264
 5320TIP3    H137519   2.183   2.299   0.354  0.7088  0.0896 -0.7814
 5320TIP3    H237520   2.237   2.158   0.372 -0.8906 -0.2127  2.5272
 5321TIP3   OH237521   1.081   5.672   8.742  0.2668 -0.2598 -0.2595
 5321TIP3    H137522   1.028   5.595   8.721  1.2382 -0.9153 -0.3801
 5321TIP3    H237523   1.159   5.663   8.687  0.3502  0.8668 -0.3452
 5322TIP3   OH237524   3.058   1.740   0.927 -0.0607  0.2172 -0.7703
 5322TIP3    H137525   3.009   1.794   0.865  0.6302  0.2310 -1.3203
 5322TIP3    H237526   3.150   1.761   0.909  0.2458 -1.4048 -1.2467
 5323TIP3   OH237527   5.903   3.356   7.835 -0.6983  0.1769  0.1279
 5323TIP3    H137528   5.847   3.401   7.898  1.1980 -0.8666  2.7362
 5323TIP3    H237529   5.856   3.274   7.816 -1.9763  1.1372 -1.0610
 5324TIP3   OH237530   5.049   0.526   1.928  0.3219  0.2887  0.1087
 5324TIP3    H137531   5.069   0.562   1.842  0.0824  0.9116  0.3071
 5324TIP3    H237532   5.031   0.434   1.912  0.1062  0.4382 -0.5366
 5325TIP3   OH237533   3.057   3.715   1.541 -1.0014  0.1485  0.5306
 5325TIP3    H137534   2.987   3.664   1.584 -1.8401 -0.0482 -1.0053
 5325TIP3    H237535   3.011   3.768   1.476 -0.0389  2.2667  1.5057
 5326TIP3   OH237536   0.086   6.581   6.970 -0.2417  0.3447 -0.6662
 5326TIP3    H137537   0.070   6.574   7.065  1.0088 -2.0769 -0.5629
 5326TIP3    H237538   0.002   6.559   6.930  0.0368 -2.0617 -0.0834
 5327TIP3   OH237539   1.310   4.801   0.729  0.7711 -0.1930  0.0145
 5327TIP3    H137540   1.259   4.741   0.674  0.4314 -1.3366  1.4938
 5327TIP3    H237541   1.400   4.769   0.723  0.8705  0.1582 -0.4550
 5328TIP3   OH237542   0.137   4.406   8.625 -0.2830 -0.5582 -0.2621
 5328TIP3    H137543   0.156   4.332   8.568  0.0486 -0.2352 -0.5741
 5328TIP3    H237544   0.218   4.457   8.625 -0.6313 -0.0073 -0.3311
 5329TIP3   OH237545   1.499   0.810   7.787 -0.8152  0.2074 -0.1110
 5329TIP3    H137546   1.575   0.756   7.764 -1.1361 -0.6520  0.7834
 5329TIP3    H237547   1.425   0.749   7.789 -1.6959  1.1655 -1.7137
 5330TIP3   OH237548   3.468   0.534   7.822 -0.0137  0.6424 -0.3400
 5330TIP3    H137549   3.471   0.464   7.887  0.1186  0.3528 -0.6564
 5330TIP3    H237550   3.522   0.603   7.859  0.4465  0.2933 -0.3504
 5331TIP3   OH237551   2.429   4.959   8.157 -0.3877  0.0064  0.0079
 5331TIP3    H137552   2.406   4.989   8.069  0.7215  0.2964 -0.1953
 5331TIP3    H237553   2.474   4.876   8.143  0.6187  0.5026  0.2199
 5332TIP3   OH237554   0.645   2.185   6.562 -0.3404 -0.7585 -0.5654
 5332TIP3    H137555   0.729   2.194   6.516  0.8356 -3.1385  0.9643
 5332TIP3    H237556   0.607   2.273   6.559  2.3668  0.4847 -0.9686
 5333TIP3   OH237557   2.180   5.242   7.092  0.4003 -0.2045 -0.5242
 5333TIP3    H137558   2.214   5.172   7.148  2.0087  1.0777  0.1728
 5333TIP3    H237559   2.161   5.314   7.152 -0.8306  0.1454 -1.2869
 5334TIP3   OH237560   2.237   5.576   1.566 -0.2954 -0.0486  0.0208
 5334TIP3    H137561   2.194   5.511   1.511  1.7282 -0.4394 -1.1785
 5334TIP3    H237562   2.329   5.573   1.541  0.1627  2.0800  1.1546
 5335TIP3   OH237563   2.968   4.333   1.352  0.0907 -0.7431 -0.3013
 5335TIP3    H137564   2.890   4.379   1.322 -1.9836 -3.2582  0.8359
 5335TIP3    H237565   2.994   4.278   1.278 -0.6891 -1.6505  0.0825
 5336TIP3   OH237566   5.564   1.536   7.319  0.0748 -0.0011 -0.0748
 5336TIP3    H137567   5.557   1.508   7.411  0.0671 -0.9318 -0.3514
 5336TIP3    H237568   5.488   1.497   7.277 -0.1061  0.7127 -0.4107
 5337TIP3   OH237569   4.260   4.790   1.454  0.7184  0.0412 -0.3026
 5337TIP3    H137570   4.167   4.814   1.461  0.3236 -1.0100 -1.5717
 5337TIP3    H237571   4.288   4.828   1.371  0.8552 -1.3624 -0.9278
 5338TIP3   OH237572   5.413   0.724   8.136 -0.7078  0.1062 -0.6930
 5338TIP3    H137573   5.436   0.761   8.222  0.7224  1.9007 -1.7694
 5338TIP3    H237574   5.494   0.731   8.085 -0.9462 -2.7684 -1.6435
 5339TIP3   OH237575   5.714   5.607   7.845 -0.1097 -1.2106  0.1838
 5339TIP3    H137576   5.637   5.665   7.846  0.1715 -0.7944  1.9890
 5339TIP3    H237577   5.695   5.541   7.912 -0.4782 -3.3641 -1.9156
 5340TIP3   OH237578   0.615   6.410   8.552 -0.2390  0.0027  0.1038
 5340TIP3    H137579   0.579   6.342   8.610 -0.1010  0.8239  1.1796
 5340TIP3    H237580   0.606   6.491   8.602  0.9959  0.5582 -0.5484
 5341TIP3   OH237581   3.762   6.389   1.264  0.6974 -0.3344  0.2602
 5341TIP3    H137582   3.749   6.322   1.331  0.2110 -0.4571  0.0445
 5341TIP3    H237583   3.857   6.398   1.258  0.7558 -0.6637  0.6274
 5342TIP3   OH237584   0.446   3.112   0.870  0.0334  0.3625  0.2331
 5342TIP3    H137585   0.534   3.113   0.908 -0.4791  0.1113  1.5036
 5342TIP3    H237586   0.417   3.203   0.873 -0.9452  0.0696  2.9028
 5343TIP3   OH237587   3.345   6.561   0.913  0.2466  0.4420  0.4508
 5343TIP3    H137588   3.427   6.545   0.867 -0.4078 -0.5188 -0.4214
 5343TIP3    H237589   3.371   6.576   1.004  1.2889 -1.1443  0.4463
 5344TIP3   OH237590   0.030   4.130   0.827  0.3334  0.1018 -0.5311
 5344TIP3    H137591   0.063   4.091   0.746 -0.2685  0.4622 -0.9575
 5344TIP3    H237592  -0.061   4.152   0.808  0.0530 -0.2008  0.3884
 5345TIP3   OH237593   3.292   5.578   1.862  0.1591 -0.4116  0.5064
 5345TIP3    H137594   3.297   5.594   1.956 -1.1025 -0.0580  0.5236
 5345TIP3    H237595   3.206   5.538   1.848 -0.0783  0.4411 -0.6257
 5346TIP3   OH237596   3.537   4.547   8.723 -0.3084  0.4425  0.4702
 5346TIP3    H137597   3.522   4.642   8.722  0.2625  0.5318  0.2058
 5346TIP3    H237598   3.596   4.531   8.650  1.8117  0.2506  2.1354
 5347TIP3   OH237599   6.623   1.761   8.684  0.7459 -0.1380 -0.0342
 5347TIP3    H137600   6.532   1.742   8.706  0.4913  2.5457  1.6545
 5347TIP3    H237601   6.674   1.717   8.753  0.5674  0.2050  0.3209
 5348TIP3   OH237602   4.813   2.044   0.868 -0.1802  0.2376 -0.2840
 5348TIP3    H137603   4.733   2.096   0.866  0.1539  1.0414  2.3263
 5348TIP3    H237604   4.810   1.999   0.952  2.8097  1.6302  0.7485
 5349TIP3   OH237605   4.441   0.198   0.162  0.3774 -0.1146 -0.1968
 5349TIP3    H137606   4.515   0.196   0.223  0.1336 -2.5594  0.0970
 5349TIP3    H237607   4.447   0.117   0.113 -2.1969 -0.5012 -0.0432
 5350TIP3   OH237608   5.120   6.041   2.577 -0.0112  0.2839  0.1420
 5350TIP3    H137609   5.059   6.049   2.650 -0.7750 -0.4560 -0.3930
 5350TIP3    H237610   5.087   5.967   2.526  0.7318  0.5359 -0.7368
 5351TIP3   OH237611   0.550   0.862   1.530 -0.5602  0.1881  0.4615
 5351TIP3    H137612   0.538   0.783   1.478 -2.3736 -0.0379  1.1416
 5351TIP3    H237613   0.644   0.873   1.536 -0.2933 -0.9620 -1.0717
 5352TIP3   OH237614   1.476   6.092   0.051 -0.0141  0.4600 -0.5521
 5352TIP3    H137615   1.409   6.131   0.107 -0.8156  0.6411 -1.5998
 5352TIP3    H237616   1.444   6.107  -0.038  1.7207  1.1004 -1.1147
 5353TIP3   OH237617   1.210   1.837   1.899 -1.1443 -0.2699 -0.5926
 5353TIP3    H137618   1.215   1.904   1.967 -2.0160  1.0844 -1.8039
 5353TIP3    H237619   1.146   1.774   1.933 -1.0903  0.0401  0.1137
 5354TIP3   OH237620   5.852   2.996   1.255 -0.0728 -0.3715 -0.2663
 5354TIP3    H137621   5.853   2.999   1.159 -1.1316  0.4925 -0.2694
 5354TIP3    H237622   5.918   3.060   1.281  0.6231 -1.0166 -0.4069
 5355TIP3   OH237623   0.481   3.151   1.275 -0.0418 -0.0222 -0.3207
 5355TIP3    H137624   0.445   3.215   1.214 -0.9698 -1.2421 -1.0711
 5355TIP3    H237625   0.512   3.079   1.220  1.4595 -0.0231  0.4754
 5356TIP3   OH237626   2.906   0.542   1.868 -0.0431 -0.3852 -0.2672
 5356TIP3    H137627   2.910   0.638   1.864  1.7772 -0.3979  0.1576
 5356TIP3    H237628   2.997   0.514   1.854 -0.7294 -2.1246 -1.6948
 5357TIP3   OH237629   3.232   2.426   8.042 -0.0317 -0.8335  0.1453
 5357TIP3    H137630   3.261   2.491   7.978 -0.2862 -1.6235 -0.7889
 5357TIP3    H237631   3.290   2.438   8.117  0.8411 -0.4826 -0.5764
 5358TIP3   OH237632   4.750   4.337   2.982  0.3459 -0.7142 -0.5606
 5358TIP3    H137633   4.778   4.327   3.073  0.5131 -0.2139 -0.5547
 5358TIP3    H237634   4.723   4.429   2.976 -0.2769 -0.9126 -0.8454
 5359TIP3   OH237635   6.190   6.000   1.533 -0.0592 -0.4011 -0.1597
 5359TIP3    H137636   6.197   6.095   1.537  2.8126 -0.4749 -0.6891
 5359TIP3    H237637   6.110   5.983   1.484 -0.7084  1.7226  0.0613
 5360TIP3   OH237638   0.269   2.642   1.137  0.2014 -0.1307  0.4508
 5360TIP3    H137639   0.220   2.634   1.219 -0.6748  1.9642  0.1932
 5360TIP3    H237640   0.203   2.656   1.070  1.0329  0.7000 -0.2295
 5361TIP3   OH237641   6.251   3.241   0.846  0.7341 -0.6251 -0.0084
 5361TIP3    H137642   6.336   3.278   0.872 -0.3231  0.8823  1.4792
 5361TIP3    H237643   6.274   3.172   0.784  3.1779 -1.4666  1.6566
 5362TIP3   OH237644   4.772   1.341   7.683 -1.1084  0.0995 -0.6126
 5362TIP3    H137645   4.855   1.372   7.646 -1.1617  0.2927 -0.5718
 5362TIP3    H237646   4.789   1.335   7.777  0.0518 -3.4509 -0.8927
 5363TIP3   OH237647   6.437   5.190   7.047  0.0496 -0.0061 -0.0754
 5363TIP3    H137648   6.527   5.223   7.036 -0.6034  1.5826 -1.0140
 5363TIP3    H237649   6.411   5.220   7.135 -0.2643  1.3632 -0.6180
 5364TIP3   OH237650   6.150   1.298   0.118  0.2695 -0.4225 -0.4826
 5364TIP3    H137651   6.216   1.357   0.083  1.1434 -1.1240 -0.0517
 5364TIP3    H237652   6.200   1.231   0.165 -0.6641 -1.7423 -1.3053
 5365TIP3   OH237653   4.347   3.887   7.876  0.3265  0.2785  0.3734
 5365TIP3    H137654   4.412   3.939   7.829 -0.3431  0.5400 -0.2918
 5365TIP3    H237655   4.317   3.822   7.813 -0.0722  0.1774  0.6613
 5366TIP3   OH237656   0.986   0.072   1.892 -0.2548 -0.1650 -0.5256
 5366TIP3    H137657   1.061   0.019   1.864  0.1319 -1.1246  2.0443
 5366TIP3    H237658   0.989   0.068   1.988 -3.5174 -0.1377 -0.3148
 5367TIP3   OH237659   4.244   2.804   2.313  0.9391 -0.1759 -0.3461
 5367TIP3    H137660   4.219   2.801   2.221  1.5905  1.5112 -0.6169
 5367TIP3    H237661   4.161   2.793   2.360  0.4542 -0.0639 -1.1493
 5368TIP3   OH237662   5.429   0.865   1.955  0.7571 -1.0398  0.1354
 5368TIP3    H137663   5.416   0.830   2.043  2.5435 -1.9483  0.0878
 5368TIP3    H237664   5.514   0.910   1.960 -0.1991  0.9247 -0.5456
 5369TIP3   OH237665   3.467   4.923   1.681 -0.4310  0.0867 -0.2476
 5369TIP3    H137666   3.485   4.865   1.754 -0.4932 -0.2163 -0.4725
 5369TIP3    H237667   3.409   4.990   1.717  1.3038  1.2418  0.5707
 5370TIP3   OH237668   0.138   1.823   1.859 -0.0299  0.0587 -0.0216
 5370TIP3    H137669   0.121   1.789   1.770  1.6639 -0.2764 -0.2588
 5370TIP3    H237670   0.141   1.918   1.848 -2.6882  0.2410  0.2508
 5371TIP3   OH237671   4.566   5.328   8.622 -0.3604  0.0693 -0.5174
 5371TIP3    H137672   4.473   5.353   8.626 -0.0970  1.0774 -0.2098
 5371TIP3    H237673   4.612   5.412   8.626  0.5484 -0.3580 -1.6130
 5372TIP3   OH237674   0.130   1.873   7.426  0.3036  0.5973  0.2355
 5372TIP3    H137675   0.168   1.851   7.341 -0.0124  1.0179 -0.0162
 5372TIP3    H237676   0.182   1.822   7.489  0.9103  0.7246 -0.1527
 5373TIP3   OH237677   3.318   3.062   1.168  0.2163  0.2390  0.4285
 5373TIP3    H137678   3.284   3.129   1.226  0.2886 -1.5398  2.6744
 5373TIP3    H237679   3.383   3.108   1.114 -1.4720  2.4249  0.1000
 5374TIP3   OH237680   0.905   1.420   0.734  0.3477  0.6812 -0.5419
 5374TIP3    H137681   0.826   1.462   0.769  1.8536  0.9004  2.9660
 5374TIP3    H237682   0.909   1.336   0.779  0.4833 -0.7836 -3.1224
 5375TIP3   OH237683   1.102   0.781   1.038 -0.4755 -0.3129 -0.2287
 5375TIP3    H137684   1.076   0.766   0.947 -1.4966 -1.3942  0.2139
 5375TIP3    H237685   1.019   0.789   1.085  0.0306  1.7903  0.3920
 5376TIP3   OH237686   1.387   1.379   0.606 -0.1416  0.4125 -0.7138
 5376TIP3    H137687   1.346   1.413   0.685 -0.5471 -0.3276 -0.6008
 5376TIP3    H237688   1.317   1.375   0.541 -0.5568 -1.8858 -0.2031
 5377TIP3   OH237689   2.571   4.257   7.240 -0.4373 -0.0393 -0.1664
 5377TIP3    H137690   2.635   4.272   7.310 -2.2419 -0.4346  1.6609
 5377TIP3    H237691   2.568   4.161   7.231  1.2760  0.0071 -2.3562
 5378TIP3   OH237692   4.359   3.345   0.429 -0.0058  0.1878  0.1418
 5378TIP3    H137693   4.264   3.354   0.434  0.0841  0.9513  0.7023
 5378TIP3    H237694   4.380   3.369   0.339 -0.3653 -0.1885 -0.0452
 5379TIP3   OH237695   2.879   3.542   1.211  0.0209  0.1912  0.4412
 5379TIP3    H137696   2.882   3.492   1.129  0.0756  0.4846  0.2634
 5379TIP3    H237697   2.896   3.632   1.184 -1.4458  0.5300  0.5758
 5380TIP3   OH237698   0.076   3.263   1.114  0.0167 -0.7417  0.1711
 5380TIP3    H137699   0.138   3.194   1.089  1.4172  0.8166 -0.8026
 5380TIP3    H237700   0.131   3.339   1.135 -1.5437  0.6138 -0.4526
 5381TIP3   OH237701   4.641   3.063   2.639  0.3086 -0.5987 -1.0357
 5381TIP3    H137702   4.570   3.020   2.590 -0.7296  0.0777 -0.1731
 5381TIP3    H237703   4.632   3.030   2.728 -1.9529  2.8840  0.2441
 5382TIP3   OH237704   2.541   5.724   7.928 -0.3933  0.0835 -0.0536
 5382TIP3    H137705   2.568   5.645   7.974  0.6902  0.8134  0.6233
 5382TIP3    H237706   2.525   5.696   7.838 -0.3720 -0.9624  0.2631
 5383TIP3   OH237707   3.114   1.392   6.893  0.4303 -0.1905  0.5973
 5383TIP3    H137708   3.141   1.472   6.938 -0.7591  0.6295 -0.1113
 5383TIP3    H237709   3.194   1.361   6.849  0.8660  0.6840  0.7634
 5384TIP3   OH237710   4.484   4.237   8.533 -0.2257 -0.3921  0.2571
 5384TIP3    H137711   4.556   4.184   8.568  0.8754  1.5878  1.1434
 5384TIP3    H237712   4.516   4.327   8.537 -1.7783  0.3278 -1.7985
 5385TIP3   OH237713   3.717   0.275   2.259  0.2198  0.1827  0.0674
 5385TIP3    H137714   3.725   0.337   2.332  2.3482 -2.0029  1.8477
 5385TIP3    H237715   3.791   0.295   2.202 -1.3211  1.7466 -1.4697
 5386TIP3   OH237716   1.543   5.328   1.255  0.3844  0.3075 -0.1156
 5386TIP3    H137717   1.569   5.265   1.188 -0.2834  1.5982 -1.6532
 5386TIP3    H237718   1.584   5.296   1.335  0.0861 -2.0545 -0.8235
 5387TIP3   OH237719   3.416   6.079   8.766  0.2517 -0.3938  0.5421
 5387TIP3    H137720   3.391   6.147   8.703  1.5380  0.9782  1.4401
 5387TIP3    H237721   3.344   6.076   8.828 -1.3686 -2.2564 -1.2727
 5388TIP3   OH237722   5.272   3.063   7.154 -0.0621  0.4642 -0.5954
 5388TIP3    H137723   5.252   2.993   7.218  0.6548  1.0082  0.2411
 5388TIP3    H237724   5.255   3.144   7.202  2.3771  0.9333 -0.4123
 5389TIP3   OH237725   1.817   1.510   1.483  0.7229  0.0812 -0.1128
 5389TIP3    H137726   1.730   1.521   1.523  0.6990  0.3535 -0.2397
 5389TIP3    H237727   1.872   1.576   1.526  0.4638  1.0345 -1.2052
 5390TIP3   OH237728   1.882   1.025   1.943  0.1254  0.2426  0.0861
 5390TIP3    H137729   1.931   1.047   2.023 -1.4197 -0.8573  1.4081
 5390TIP3    H237730   1.790   1.038   1.967 -0.3268  1.3514 -2.0222
 5391TIP3   OH237731   1.615   5.520   0.836  0.0137 -0.6124  0.6409
 5391TIP3    H137732   1.708   5.495   0.838  0.1227 -0.3501 -0.3984
 5391TIP3    H237733   1.615   5.613   0.858 -0.1206 -0.8692  1.7582
 5392TIP3   OH237734   4.463   1.378   7.178  0.1026 -0.3235 -0.2369
 5392TIP3    H137735   4.516   1.427   7.241 -0.0693 -2.2607  1.5281
 5392TIP3    H237736   4.453   1.438   7.104  1.5366  1.5227  0.9524
 5393TIP3   OH237737   2.027   1.152   7.423  0.4630 -0.6669 -0.1047
 5393TIP3    H137738   2.002   1.203   7.501  1.2378 -1.4899  0.7038
 5393TIP3    H237739   1.947   1.150   7.370  0.8441  2.8273 -1.0330
 5394TIP3   OH237740   5.359   5.448   0.784 -0.1665 -0.1841 -0.3709
 5394TIP3    H137741   5.359   5.544   0.776 -3.2079 -0.0832 -0.1045
 5394TIP3    H237742   5.388   5.431   0.873  1.6152  0.3712 -0.8003
 5395TIP3   OH237743   6.631   2.597   0.234  0.5971 -0.0111 -0.4844
 5395TIP3    H137744   6.695   2.666   0.215 -0.0089  0.4787 -0.7720
 5395TIP3    H237745   6.546   2.639   0.221  0.2189 -1.0419 -1.4754
 5396TIP3   OH237746   6.131   6.190   0.358 -0.0573  0.1388  0.7461
 5396TIP3    H137747   6.166   6.169   0.445 -1.0355  0.9615  1.3617
 5396TIP3    H237748   6.045   6.229   0.375 -1.6068 -2.3400 -0.7244
 5397TIP3   OH237749   0.326   2.175   2.061 -0.2042  0.1422  0.1261
 5397TIP3    H137750   0.345   2.089   2.097 -1.6582 -0.2459  0.0217
 5397TIP3    H237751   0.260   2.212   2.119  0.2350  1.1054  0.0417
 5398TIP3   OH237752   0.688   3.436   1.217  0.3615  0.5480  0.4169
 5398TIP3    H137753   0.650   3.521   1.241  0.4606  0.5791  0.4683
 5398TIP3    H237754   0.691   3.438   1.121 -1.4135 -0.1890  0.3165
 5399TIP3   OH237755   4.827   2.240   1.973  0.1940 -0.1942 -0.5874
 5399TIP3    H137756   4.835   2.256   1.879 -1.3923 -1.5352 -0.9906
 5399TIP3    H237757   4.874   2.313   2.013  1.8165 -0.1582 -2.4060
 5400TIP3   OH237758   1.153   2.835   7.368  0.2474 -0.0190 -0.1363
 5400TIP3    H137759   1.110   2.814   7.286  0.4982  0.7251 -0.4737
 5400TIP3    H237760   1.098   2.795   7.435 -0.6089  0.3431 -0.5956
 5401TIP3   OH237761   5.664   0.029   8.014  0.3715 -0.5393  0.0937
 5401TIP3    H137762   5.604  -0.025   7.962 -0.2855  0.1934  0.0774
 5401TIP3    H237763   5.745  -0.022   8.017  0.9318  0.0141 -2.8690
 5402TIP3   OH237764   2.871   4.173   8.264 -0.1465 -0.1191 -0.3005
 5402TIP3    H137765   2.890   4.233   8.192 -0.0068 -0.7793 -0.8222
 5402TIP3    H237766   2.784   4.138   8.245  0.1554 -0.7787 -0.4937
 5403TIP3   OH237767   0.325   2.956   7.122  0.4102  0.6144  0.1729
 5403TIP3    H137768   0.257   2.906   7.167  0.8607 -0.7321 -0.5485
 5403TIP3    H237769   0.294   2.963   7.032  0.8485  0.6912  0.0232
 5404TIP3   OH237770   3.691   1.120   8.234  0.0629 -0.2545  0.9221
 5404TIP3    H137771   3.636   1.130   8.312  0.5134  0.5345  1.1585
 5404TIP3    H237772   3.698   1.209   8.200 -1.2062 -0.7570 -0.7886
 5405TIP3   OH237773   3.800   6.741   6.877  0.0461 -0.1646 -0.3756
 5405TIP3    H137774   3.788   6.797   6.954 -1.4757 -2.4520  1.1627
 5405TIP3    H237775   3.833   6.658   6.913  0.5364 -0.8834 -2.3618
 5406TIP3   OH237776   5.546   3.041   1.009  0.3224 -0.5692  0.4487
 5406TIP3    H137777   5.452   3.058   1.009  0.0227 -2.0196  1.2409
 5406TIP3    H237778   5.571   3.039   1.101  1.2186  0.1775  0.2354
 5407TIP3   OH237779   1.575   2.053   2.506 -0.2721  0.2969 -0.1072
 5407TIP3    H137780   1.509   1.990   2.535  0.6898  0.2135  2.1102
 5407TIP3    H237781   1.653   2.001   2.490 -0.6768  0.3753 -2.8707
 5408TIP3   OH237782   4.458   2.926   7.699 -0.0339  0.1628 -0.5960
 5408TIP3    H137783   4.381   2.870   7.702  0.3191 -0.3317 -0.6666
 5408TIP3    H237784   4.464   2.956   7.609  0.2457 -0.3499 -0.7484
 5409TIP3   OH237785   6.706   5.227   7.462 -0.3263 -0.1103 -0.0172
 5409TIP3    H137786   6.687   5.134   7.474  2.0442 -0.6018  0.3758
 5409TIP3    H237787   6.795   5.238   7.494 -0.6618  2.3941  0.2716
 5410TIP3   OH237788   4.552   2.940   2.862  0.0255 -0.4248  0.2315
 5410TIP3    H137789   4.615   2.893   2.917  0.9150 -0.1012 -0.4889
 5410TIP3    H237790   4.467   2.921   2.902  0.7306  0.9770  2.5936
 5411TIP3   OH237791   3.051   0.357   2.114  0.6825 -0.0469 -0.0792
 5411TIP3    H137792   3.022   0.354   2.205  0.3792 -1.6122 -0.1978
 5411TIP3    H237793   3.122   0.421   2.113  0.0748  0.6847  1.0586
 5412TIP3   OH237794   0.445   3.623   0.717  0.0320 -0.2247 -0.0576
 5412TIP3    H137795   0.372   3.683   0.733 -0.0842 -0.5203  0.5510
 5412TIP3    H237796   0.519   3.680   0.694  0.3209  0.2688  1.9498
 5413TIP3   OH237797   2.924   4.510   8.522  0.3586  0.7949  0.0544
 5413TIP3    H137798   2.867   4.585   8.539 -1.0506 -0.1919 -0.1505
 5413TIP3    H237799   2.865   4.436   8.513  1.7453 -0.5245  1.0530
 5414TIP3   OH237800   4.593   2.016   2.514 -0.5293 -0.5492  0.1525
 5414TIP3    H137801   4.504   1.986   2.531 -0.6622  0.4208  1.3047
 5414TIP3    H237802   4.648   1.966   2.574 -1.0449  3.1824  4.2646
 5415TIP3   OH237803   2.863   1.186   7.648  0.1443  0.4038  0.2024
 5415TIP3    H137804   2.821   1.116   7.599  1.1584  0.7895 -1.2614
 5415TIP3    H237805   2.812   1.264   7.628 -0.5013  0.2709  1.2060
 5416TIP3   OH237806   4.972   3.831   1.501  0.1074  0.0383  0.2609
 5416TIP3    H137807   4.989   3.920   1.533  2.4853 -0.8216  1.5933
 5416TIP3    H237808   5.010   3.829   1.413 -2.1275  0.9759 -0.8114
 5417TIP3   OH237809   0.310   0.519   8.721 -0.2680  0.9193 -0.0588
 5417TIP3    H137810   0.264   0.601   8.705 -2.1599  0.2187  1.3553
 5417TIP3    H237811   0.240   0.454   8.734  1.0097 -0.0430  3.1001
 5418TIP3   OH237812   1.407   3.982   7.595 -0.2965  0.5055  0.1442
 5418TIP3    H137813   1.393   3.950   7.684  0.4078  2.0465  0.8533
 5418TIP3    H237814   1.489   3.942   7.568  0.9939  2.1887  1.3210
 5419TIP3   OH237815   1.933   3.150   1.788  0.4599  0.2141  0.4805
 5419TIP3    H137816   1.887   3.222   1.745 -1.2098  0.0831  1.9557
 5419TIP3    H237817   2.011   3.136   1.734 -0.7034  1.1170 -1.5441
 5420TIP3   OH237818   5.873   3.308   0.848 -0.1589  0.3876  0.3489
 5420TIP3    H137819   5.857   3.402   0.861 -0.2692  0.2168  1.4907
 5420TIP3    H237820   5.963   3.294   0.877  0.7730  0.5687 -2.1760
 5421TIP3   OH237821   1.997   6.032   1.425  0.7246  0.0175  0.6627
 5421TIP3    H137822   1.980   6.060   1.515 -1.9127 -0.2551  0.3419
 5421TIP3    H237823   2.069   5.970   1.432  0.2109 -0.4188  2.6759
 5422TIP3   OH237824   5.639   0.906   2.936  0.5423  0.0416  0.0111
 5422TIP3    H137825   5.666   0.815   2.947 -0.7990 -0.7773 -2.6322
 5422TIP3    H237826   5.633   0.918   2.841  1.5773  3.2078  0.2204
 5423TIP3   OH237827   4.296   6.805   1.875 -0.1150 -0.1286 -0.1328
 5423TIP3    H137828   4.245   6.820   1.954  1.4165 -0.5458  0.9832
 5423TIP3    H237829   4.299   6.710   1.865  1.9407 -0.2404  0.9227
 5424TIP3   OH237830   2.423   1.823   6.600 -0.0638 -0.3991 -0.1472
 5424TIP3    H137831   2.485   1.884   6.641 -1.5395  1.4375 -0.5017
 5424TIP3    H237832   2.448   1.737   6.635 -0.6371  0.8796  4.0326
 5425TIP3   OH237833   4.137   6.037   8.638  0.0830 -0.2180  0.6177
 5425TIP3    H137834   4.225   6.026   8.601  0.3536 -1.2167  1.5200
 5425TIP3    H237835   4.106   5.948   8.653  0.4258  0.1072  3.7703
 5426TIP3   OH237836   5.484   4.166   1.468  0.5104  0.1420  0.3119
 5426TIP3    H137837   5.431   4.238   1.502  0.5228  2.5951 -4.1822
 5426TIP3    H237838   5.540   4.141   1.542 -2.4677  1.6759  3.3666
 5427TIP3   OH237839   4.766   1.424   1.901 -0.1659 -0.1160 -0.2541
 5427TIP3    H137840   4.830   1.477   1.950 -0.1932 -0.8185  0.5582
 5427TIP3    H237841   4.744   1.478   1.825 -0.6966  1.3550  0.8830
 5428TIP3   OH237842   5.556   1.489   1.807 -0.1296  0.5950 -0.1511
 5428TIP3    H137843   5.550   1.440   1.889 -0.0905  0.2204 -0.3678
 5428TIP3    H237844   5.621   1.557   1.824  1.2176 -0.5673 -0.3931
 5429TIP3   OH237845   0.757   0.925   0.124  0.5182  0.0420 -0.0730
 5429TIP3    H137846   0.731   0.918   0.033 -1.3401  0.4158  0.3830
 5429TIP3    H237847   0.769   0.835   0.154 -0.2249 -0.1444 -0.3291
 5430TIP3   OH237848   2.143   5.284   7.954 -0.6507  0.3596 -0.7390
 5430TIP3    H137849   2.145   5.189   7.939  3.5319  0.0209  0.6890
 5430TIP3    H237850   2.185   5.321   7.877  2.1553  0.4865  0.7406
 5431TIP3   OH237851   5.048   5.265   1.716 -0.3720  0.0240 -0.6862
 5431TIP3    H137852   5.011   5.262   1.804 -1.8694 -1.4164 -1.2932
 5431TIP3    H237853   4.991   5.207   1.665  0.6554  0.5565 -2.5245
 5432TIP3   OH237854   0.326   6.773   8.238  0.5444 -0.4798 -0.3778
 5432TIP3    H137855   0.381   6.710   8.193 -0.0861 -1.5789  0.3371
 5432TIP3    H237856   0.281   6.722   8.305  0.0120  0.7330  0.2286
 5433TIP3   OH237857   1.499   6.812   6.570  0.1399  0.2663  0.1673
 5433TIP3    H137858   1.539   6.898   6.582 -0.3802  0.7151 -1.1909
 5433TIP3    H237859   1.405   6.829   6.566  0.0799 -0.2453 -0.9352
 5434TIP3   OH237860   4.994   0.759   0.114 -0.0607 -0.1563 -0.0497
 5434TIP3    H137861   4.948   0.709   0.046  2.1391 -2.9955  0.3501
 5434TIP3    H237862   5.087   0.741   0.098  0.6709  1.3771  2.0604
 5435TIP3   OH237863   1.289   0.071   6.272 -0.3703 -0.6051 -0.1257
 5435TIP3    H137864   1.293   0.166   6.285  2.0600 -0.7992  1.2926
 5435TIP3    H237865   1.258   0.037   6.356 -1.1167 -1.1036 -0.5894
 5436TIP3   OH237866   6.337   0.188   7.539 -0.8234  0.1641 -0.7934
 5436TIP3    H137867   6.405   0.231   7.486 -1.3335  1.6885 -0.2450
 5436TIP3    H237868   6.255   0.216   7.499 -1.1932  0.6501  0.3038
 5437TIP3   OH237869   1.972   3.227   2.050 -0.0588 -0.5564 -0.5319
 5437TIP3    H137870   1.959   3.144   2.095  1.3403  0.0515  1.1000
 5437TIP3    H237871   1.991   3.203   1.959 -1.2608 -1.8995 -0.4586
 5438TIP3   OH237872   0.746   4.257   7.153  0.3260 -0.0192 -0.0294
 5438TIP3    H137873   0.744   4.165   7.180  0.0596  0.0500  0.1941
 5438TIP3    H237874   0.680   4.263   7.085 -0.3622  0.2147  0.6467
 5439TIP3   OH237875   6.002   6.358   8.728  0.4606 -0.3918 -0.1588
 5439TIP3    H137876   5.921   6.317   8.699  1.8266 -1.3542 -2.9446
 5439TIP3    H237877   6.055   6.286   8.762  1.0785 -0.2000 -0.6883
 5440TIP3   OH237878   6.587   2.565   0.889  0.2187  0.0823 -0.4720
 5440TIP3    H137879   6.624   2.651   0.912  2.4586 -0.6427 -1.1267
 5440TIP3    H237880   6.612   2.553   0.797 -2.2387 -0.2448 -1.1700
 5441TIP3   OH237881   6.640   5.940   8.353 -0.5446 -0.1289 -0.1666
 5441TIP3    H137882   6.718   5.884   8.351 -0.1093  0.2011  2.5439
 5441TIP3    H237883   6.615   5.942   8.446 -1.7881  2.4736 -0.4614
 5442TIP3   OH237884   5.097   2.764   0.846 -0.3062 -0.3036 -0.5253
 5442TIP3    H137885   5.089   2.681   0.892  2.3160 -0.6370 -0.5208
 5442TIP3    H237886   5.020   2.768   0.789 -1.4981 -1.7760  0.8956
 5443TIP3   OH237887   3.077   2.120   2.960 -0.3954 -0.1811  0.2682
 5443TIP3    H137888   3.098   2.053   3.025  0.4861  0.2376  0.4408
 5443TIP3    H237889   2.982   2.114   2.949 -0.3416 -1.4531  0.2752
 5444TIP3   OH237890   4.161   0.948   6.621 -0.3503  0.2291  0.7585
 5444TIP3    H137891   4.194   1.007   6.688 -1.3662 -0.8815  2.3281
 5444TIP3    H237892   4.068   0.939   6.641 -0.4783 -0.8869 -0.2199
 5445TIP3   OH237893   5.839   3.325   1.687 -0.2040 -0.7455 -0.0522
 5445TIP3    H137894   5.889   3.390   1.737 -1.7715  0.4855 -0.0406
 5445TIP3    H237895   5.904   3.287   1.628  0.5542  1.6322 -0.8608
 5446TIP3   OH237896   1.329   2.831   0.841  0.0492  0.0056 -0.0532
 5446TIP3    H137897   1.244   2.816   0.800 -0.6500  0.3003  1.2463
 5446TIP3    H237898   1.392   2.793   0.779 -1.0537 -0.7248 -0.7661
 5447TIP3   OH237899   5.599   2.177   8.025  0.5030  0.4197  0.3809
 5447TIP3    H137900   5.612   2.242   8.094  3.2329  1.0656 -0.6224
 5447TIP3    H237901   5.637   2.218   7.946  0.6691 -1.6712 -0.6818
 5448TIP3   OH237902   2.360   4.436   0.080  0.7050  0.5851  0.4484
 5448TIP3    H137903   2.376   4.523   0.117  0.4748  0.7300  0.2121
 5448TIP3    H237904   2.264   4.429   0.077  0.7203  0.5687 -0.0940
 5449TIP3   OH237905   0.051   6.513   0.372  0.3290  0.0458 -0.1955
 5449TIP3    H137906  -0.026   6.551   0.332  0.9398  0.9431 -0.5493
 5449TIP3    H237907   0.082   6.580   0.433  0.7572 -0.3591  0.0417
 5450TIP3   OH237908   5.894   5.989   1.738 -0.3960 -0.1570  0.8005
 5450TIP3    H137909   5.963   6.050   1.762 -1.2108  0.9219  0.4814
 5450TIP3    H237910   5.846   5.973   1.820 -0.1746 -0.3755  0.8867
 5451TIP3   OH237911   4.921   4.429   0.617  0.1073  0.5067  0.4075
 5451TIP3    H137912   4.999   4.391   0.658  1.0908  1.3510 -0.5894
 5451TIP3    H237913   4.923   4.521   0.645 -0.9244  0.3759  0.9219
 5452TIP3   OH237914   3.624   3.557   0.219  0.4419  0.8499  0.3147
 5452TIP3    H137915   3.534   3.523   0.220  0.5241  0.4132 -1.9728
 5452TIP3    H237916   3.669   3.506   0.287 -0.4467 -0.7261 -0.2196
 5453TIP3   OH237917   2.003   5.985   2.507  0.7099  0.1967  0.7984
 5453TIP3    H137918   1.915   5.985   2.543  0.9226  1.7711  1.4157
 5453TIP3    H237919   2.008   5.905   2.455 -1.3909  0.5411 -0.0291
 5454TIP3   OH237920   4.361   0.275   7.911 -0.4837  0.3439  0.0358
 5454TIP3    H137921   4.267   0.286   7.898 -0.4046  0.9496 -0.0423
 5454TIP3    H237922   4.370   0.241   8.000 -0.6864  1.7418  0.6020
 5455TIP3   OH237923   4.236   6.399   0.102 -0.0537 -0.5108  0.2067
 5455TIP3    H137924   4.207   6.447   0.179 -0.1623  0.8275 -0.6279
 5455TIP3    H237925   4.155   6.369   0.061 -0.0215 -0.7960  0.3535
 5456TIP3   OH237926   6.721   2.836   8.329 -0.3523 -0.2591  0.4122
 5456TIP3    H137927   6.779   2.782   8.382  0.2921 -0.3703 -0.3951
 5456TIP3    H237928   6.690   2.779   8.259 -0.8925 -0.0092  0.4363
 5457TIP3   OH237929   0.885   3.238   1.285 -0.6641  0.1529  0.1124
 5457TIP3    H137930   0.816   3.304   1.281  0.1199  1.0290  0.4755
 5457TIP3    H237931   0.864   3.177   1.215 -1.8542  0.3479  0.2807
 5458TIP3   OH237932   6.190   3.283   7.330 -0.2449 -0.4527 -0.2898
 5458TIP3    H137933   6.206   3.350   7.264  3.5214  0.0800  0.9022
 5458TIP3    H237934   6.097   3.263   7.323 -1.4349  4.3203 -1.2025
 5459TIP3   OH237935   1.961   2.034   2.325  0.0086 -0.2590 -0.5462
 5459TIP3    H137936   1.878   2.081   2.323  1.2022  2.0994  0.5805
 5459TIP3    H237937   1.944   1.953   2.278 -2.3358  1.0858 -2.2639
 5460TIP3   OH237938   1.068   1.576   2.676 -0.0990  0.2594 -0.1776
 5460TIP3    H137939   1.004   1.505   2.680  1.4019 -1.1095  0.8682
 5460TIP3    H237940   1.145   1.536   2.635  1.4866  0.6393  2.2459
 5461TIP3   OH237941   2.013   6.591   0.121 -0.4028 -0.0261  0.3132
 5461TIP3    H137942   2.100   6.588   0.160 -0.8663  5.6021  2.7862
 5461TIP3    H237943   1.953   6.579   0.195 -1.4873  2.9936  0.0404
 5462TIP3   OH237944   1.357   3.554   8.167 -0.3470 -0.6456 -0.7389
 5462TIP3    H137945   1.325   3.464   8.160  1.4500 -1.2777 -1.3164
 5462TIP3    H237946   1.362   3.585   8.077  0.5900 -0.5547 -0.6662
 5463TIP3   OH237947   2.469   5.582   0.536 -0.5570 -0.3060 -0.0912
 5463TIP3    H137948   2.425   5.503   0.504 -1.6865 -0.1971  1.0840
 5463TIP3    H237949   2.555   5.552   0.565 -0.8706 -1.0563  0.0854
 5464TIP3   OH237950   0.711   2.481   8.707  0.1282  0.5281 -0.6663
 5464TIP3    H137951   0.656   2.403   8.707  0.0359  0.5765  0.1541
 5464TIP3    H237952   0.706   2.515   8.618  1.4078 -1.2535 -1.4718
 5465TIP3   OH237953   4.091   4.157   7.588 -0.2647 -0.4882  0.1243
 5465TIP3    H137954   4.154   4.131   7.521 -0.3735 -3.1936  0.9811
 5465TIP3    H237955   4.144   4.170   7.667 -0.4385  0.1960  0.1342
 5466TIP3   OH237956   2.588   4.984   8.416  0.5635  0.1001 -0.1309
 5466TIP3    H137957   2.509   4.952   8.372 -0.2317  0.6380  0.8589
 5466TIP3    H237958   2.627   5.044   8.352  1.2395 -1.6095 -1.3864
 5467TIP3   OH237959   4.271   4.388   7.420  0.7416  0.4691  0.6517
 5467TIP3    H137960   4.359   4.388   7.457  1.4906 -1.0151 -1.0454
 5467TIP3    H237961   4.280   4.348   7.334 -1.4396  1.1817  0.0199
 5468TIP3   OH237962   4.403   6.727   2.874 -1.0512 -0.5635 -0.5710
 5468TIP3    H137963   4.424   6.717   2.967  1.5561  0.4031 -0.9516
 5468TIP3    H237964   4.476   6.684   2.828 -1.1463  0.8228 -2.1295
 5469TIP3   OH237965   3.423   4.192   8.089  0.0772 -0.2891 -0.3989
 5469TIP3    H137966   3.482   4.116   8.095  1.2252  0.6325  0.3188
 5469TIP3    H237967   3.400   4.212   8.179 -1.0467 -0.3828 -0.6497
 5470TIP3   OH237968   6.504   3.364   7.988  0.0711  0.2801 -0.5639
 5470TIP3    H137969   6.410   3.348   7.990  0.2214 -1.0222 -2.3240
 5470TIP3    H237970   6.544   3.278   7.998  1.0209  0.4821 -2.3032
 5471TIP3   OH237971   1.203   2.217   0.357  0.4026 -0.2540 -0.2472
 5471TIP3    H137972   1.250   2.133   0.356  0.0700 -0.4382 -1.8415
 5471TIP3    H237973   1.164   2.224   0.270 -2.1584  0.1253  0.8446
 5472TIP3   OH237974   3.464   1.457   8.330 -0.6185 -0.4339 -0.5819
 5472TIP3    H137975   3.371   1.443   8.312 -0.7756 -0.3747  0.1859
 5472TIP3    H237976   3.486   1.537   8.281 -1.2081  0.1091  0.0298
 5473TIP3   OH237977   6.478   0.665   7.743  0.5264  0.0095  0.1087
 5473TIP3    H137978   6.485   0.607   7.819  1.3924  0.1796  0.1785
 5473TIP3    H237979   6.510   0.750   7.775 -1.3073  0.7043  0.1792
 5474TIP3   OH237980   3.848   0.900   8.357  0.2712  0.3359 -0.0801
 5474TIP3    H137981   3.794   0.975   8.331  0.3424  0.8604  1.2450
 5474TIP3    H237982   3.841   0.840   8.283 -0.2537  1.3948 -0.9243
 5475TIP3   OH237983   2.108   5.705   0.903 -0.4035  0.1925  0.1852
 5475TIP3    H137984   2.070   5.675   0.821 -3.1516 -0.1421  1.4827
 5475TIP3    H237985   2.165   5.632   0.931 -0.5490 -0.2777 -0.7001
 5476TIP3   OH237986   1.422   5.313   0.315  0.3463  0.1874  0.1267
 5476TIP3    H137987   1.363   5.318   0.240  0.3547  0.2318  0.1229
 5476TIP3    H237988   1.480   5.239   0.296 -0.2858 -0.4265  0.5456
 5477TIP3   OH237989   0.884   2.458   1.146 -0.5164 -0.5031 -0.4996
 5477TIP3    H137990   0.807   2.512   1.126 -0.0602  0.6420  0.6741
 5477TIP3    H237991   0.877   2.441   1.240  0.0565 -1.4003 -0.6046
 5478TIP3   OH237992   2.888   0.188   7.270  0.5380 -0.2531 -0.3988
 5478TIP3    H137993   2.961   0.186   7.209  0.7359 -0.5045 -0.1525
 5478TIP3    H237994   2.861   0.280   7.273  0.7819 -0.1780 -0.5593
 5479TIP3   OH237995   2.852   1.856   3.073  0.5609  0.3628  0.1238
 5479TIP3    H137996   2.840   1.938   3.026 -1.6530  0.0531  0.0145
 5479TIP3    H237997   2.941   1.860   3.107  0.5260  2.7779  0.1005
 5480TIP3   OH237998   1.808   1.174   7.251  0.4196 -0.6479 -0.0682
 5480TIP3    H137999   1.743   1.105   7.240 -1.9636  1.5388 -0.6819
 5480TIP3    H238000   1.757   1.255   7.254  2.9467  1.0429  1.9055
 5481TIP3   OH238001   2.207   6.493   2.996  0.0235 -0.0356  0.5485
 5481TIP3    H138002   2.131   6.451   3.037  0.6509 -1.7634  0.0554
 5481TIP3    H238003   2.264   6.420   2.972  1.1022  1.1266 -0.5649
 5482TIP3   OH238004   1.025   1.377   1.947 -0.0089  0.5141  0.1340
 5482TIP3    H138005   0.963   1.310   1.976  0.3489 -0.0553 -0.3880
 5482TIP3    H238006   1.019   1.376   1.852  0.4185  0.8228  0.1010
 5483TIP3   OH238007   5.284   4.828   7.696 -0.3483 -0.8222  0.5462
 5483TIP3    H138008   5.328   4.764   7.751 -0.3376 -0.1911  1.3065
 5483TIP3    H238009   5.311   4.808   7.607  1.3096 -0.5940  0.9690
 5484TIP3   OH238010   3.430   5.260   6.942 -0.0415  0.1444  0.1312
 5484TIP3    H138011   3.523   5.282   6.948 -0.2473  2.8879 -3.3346
 5484TIP3    H238012   3.427   5.179   6.892  0.4321 -0.4374  1.0081
 5485TIP3   OH238013   4.217   2.262   0.629  0.5635  0.0976  0.5422
 5485TIP3    H138014   4.195   2.349   0.596  1.6673  0.7597  1.4659
 5485TIP3    H238015   4.267   2.222   0.558 -0.8971 -0.2535 -0.3385
 5486TIP3   OH238016   0.220   4.230   1.877 -0.2197 -0.0781 -0.2104
 5486TIP3    H138017   0.228   4.145   1.921  2.6565  0.5761  0.7727
 5486TIP3    H238018   0.308   4.248   1.844 -0.9370  2.1611 -1.0871
 5487TIP3   OH238019   6.512   4.933   2.927  0.0254 -0.0165  0.1828
 5487TIP3    H138020   6.492   5.026   2.934  1.8872  0.5425 -1.0808
 5487TIP3    H238021   6.520   4.903   3.017 -1.2116  0.8731  0.6199
 5488TIP3   OH238022   4.018   3.859   8.714 -0.1715 -0.0776  0.3398
 5488TIP3    H138023   4.029   3.768   8.687 -1.8337  0.0307 -0.8871
 5488TIP3    H238024   4.012   3.854   8.809  0.2809 -1.1895  0.3320
 5489TIP3   OH238025   2.904   6.334   7.585  0.5288  0.0811 -0.5587
 5489TIP3    H138026   2.819   6.316   7.625  1.1427  1.3889  1.5057
 5489TIP3    H238027   2.913   6.268   7.517 -1.3479 -1.2274  0.3684
 5490TIP3   OH238028   4.558   5.312   2.059  0.0862  0.1048 -0.0963
 5490TIP3    H138029   4.547   5.285   1.968  1.8221 -0.1715 -0.2691
 5490TIP3    H238030   4.606   5.239   2.100  1.8432  1.3972  0.2833
 5491TIP3   OH238031   5.986   3.599   1.875  0.1268  0.2073  0.6767
 5491TIP3    H138032   6.021   3.602   1.785  0.0506 -0.2377  0.6312
 5491TIP3    H238033   6.033   3.669   1.920 -0.0337  0.6197  0.2190
 5492TIP3   OH238034   1.340   0.969   0.931 -0.9565 -0.1278  0.1093
 5492TIP3    H138035   1.377   1.015   0.856  0.5178  2.6279  2.3245
 5492TIP3    H238036   1.396   0.893   0.943 -0.1799  0.3161 -0.6106
 5493TIP3   OH238037   1.841   1.620   0.134 -0.7572  0.5046  0.3062
 5493TIP3    H138038   1.791   1.665   0.066 -3.1950 -0.4777  1.3131
 5493TIP3    H238039   1.836   1.527   0.110  3.0844  0.4807 -1.0401
 5494TIP3   OH238040   6.129   3.574   7.995 -0.1572 -0.1363 -0.5654
 5494TIP3    H138041   6.208   3.593   7.944 -2.1159  0.8921 -3.4914
 5494TIP3    H238042   6.125   3.478   7.998  2.8743 -0.3793  2.7422
 5495TIP3   OH238043   2.799   1.436   2.829 -0.1871 -0.0084  0.2252
 5495TIP3    H138044   2.737   1.384   2.778  1.1052 -1.5580  0.1581
 5495TIP3    H238045   2.874   1.449   2.771  0.0730  0.7773  0.7161
 5496TIP3   OH238046   1.272   3.418   2.242  0.2167  0.2590 -1.0957
 5496TIP3    H138047   1.185   3.436   2.206 -0.5119  1.1586  0.9541
 5496TIP3    H238048   1.256   3.357   2.313  1.3673 -0.1196 -1.1463
 5497TIP3   OH238049   4.101   0.071   8.762 -0.2717 -0.5324  0.1177
 5497TIP3    H138050   4.005   0.068   8.766 -0.3137 -1.3585 -0.8785
 5497TIP3    H238051   4.129   0.001   8.821 -0.3342 -1.0203 -0.4135
 5498TIP3   OH238052   1.616   5.213   0.557  0.1267 -0.0316 -0.4409
 5498TIP3    H138053   1.522   5.208   0.539  0.2037  1.1282 -1.3563
 5498TIP3    H238054   1.633   5.307   0.568  1.1667 -0.2314 -0.2398
 5499TIP3   OH238055   3.591   4.095   7.047  0.0297  0.3000 -0.0104
 5499TIP3    H138056   3.686   4.101   7.037 -0.0211 -0.1188 -0.8140
 5499TIP3    H238057   3.572   4.002   7.043 -0.4880  0.4218 -0.6456
 5500TIP3   OH238058   3.926   3.566   1.811  0.2862  0.1969  0.1933
 5500TIP3    H138059   3.842   3.577   1.766 -0.4133 -1.4241  1.0277
 5500TIP3    H238060   3.991   3.598   1.748 -1.0312  3.7008  0.3731
 5501TIP3   OH238061   0.257   0.964   1.598  0.0277  0.6492 -0.1848
 5501TIP3    H138062   0.352   0.956   1.585  0.1017  0.8327  0.2156
 5501TIP3    H238063   0.226   0.874   1.599  0.3368  0.5365  0.6085
 5502TIP3   OH238064   5.049   0.401   1.351 -0.2826 -0.2692 -0.1110
 5502TIP3    H138065   5.119   0.358   1.302 -0.8058 -0.6309 -0.5423
 5502TIP3    H238066   5.018   0.334   1.412 -0.8439 -0.3781 -0.5215
 5503TIP3   OH238067   6.783   3.391   7.884 -0.3090  0.3260  0.1431
 5503TIP3    H138068   6.792   3.406   7.978  0.3766  0.6793  0.0302
 5503TIP3    H238069   6.789   3.296   7.873  0.2333  0.3281  0.4005
 5504TIP3   OH238070   4.720   6.115   8.067  0.4316  0.1379 -0.1066
 5504TIP3    H138071   4.811   6.138   8.081  1.0445 -1.6841 -0.7939
 5504TIP3    H238072   4.706   6.037   8.120 -0.7387  0.4188  0.0206
 5505TIP3   OH238073   2.689   6.004   8.280 -0.0784  0.0212  0.7250
 5505TIP3    H138074   2.775   5.966   8.265 -0.8219 -0.6412 -2.5046
 5505TIP3    H238075   2.630   5.929   8.289 -0.5998  0.4713  1.2054
 5506TIP3   OH238076   1.700   2.183   2.255  0.5153  0.7593  0.0848
 5506TIP3    H138077   1.738   2.253   2.202 -0.0138  2.0455  1.3404
 5506TIP3    H238078   1.670   2.227   2.335 -0.5372 -0.7698  0.5777
 5507TIP3   OH238079   1.681   1.368   8.060 -0.2660  0.3106 -0.1502
 5507TIP3    H138080   1.765   1.401   8.027 -0.3126 -1.2828 -2.0320
 5507TIP3    H238081   1.675   1.279   8.027 -2.2235 -0.0056  0.8901
 5508TIP3   OH238082   2.093   0.469   7.721  0.0221  0.5690 -0.3230
 5508TIP3    H138083   2.159   0.485   7.654  2.1757 -3.8575  0.3555
 5508TIP3    H238084   2.034   0.405   7.681 -0.3072  0.0003  1.0308
 5509TIP3   OH238085   6.132   0.733   1.095 -0.7016 -0.6521 -0.3409
 5509TIP3    H138086   6.109   0.643   1.116 -2.9722  0.0656  0.5785
 5509TIP3    H238087   6.058   0.785   1.128  1.2549  1.7083  0.6520
 5510TIP3   OH238088   3.970   0.898   8.672 -0.3727 -0.2170  0.2010
 5510TIP3    H138089   3.999   0.825   8.617 -0.3021  0.2955 -0.4491
 5510TIP3    H238090   3.998   0.874   8.760 -1.9371 -1.8289  0.3171
 5511TIP3   OH238091   1.360   1.581   7.722 -0.1973  0.0567  0.3482
 5511TIP3    H138092   1.396   1.602   7.636 -0.3718 -0.0103  0.2581
 5511TIP3    H238093   1.279   1.632   7.728  0.3159  0.8301  0.8762
 5512TIP3   OH238094   4.394   6.041   0.603  0.2144  0.2062 -0.0650
 5512TIP3    H138095   4.447   5.991   0.665  1.6269  1.1905 -0.4219
 5512TIP3    H238096   4.314   6.060   0.650  1.9113  2.4058  2.1772
 5513TIP3   OH238097   2.886   5.095   7.090  0.8094 -0.5015 -0.1632
 5513TIP3    H138098   2.791   5.103   7.083  0.9412  0.6921 -0.8251
 5513TIP3    H238099   2.902   5.001   7.081 -0.0593 -0.4559 -3.8775
 5514TIP3   OH238100   6.049   1.961   0.820  0.1682  0.5418 -0.2878
 5514TIP3    H138101   6.009   1.883   0.859 -1.6186  2.7064  2.6979
 5514TIP3    H238102   6.140   1.959   0.848 -0.3649  0.4864  1.5686
 5515TIP3   OH238103   0.082   2.736   0.430 -0.1507 -0.2869 -0.2560
 5515TIP3    H138104   0.083   2.684   0.350 -0.7695  1.2682 -1.3354
 5515TIP3    H238105   0.061   2.825   0.400  0.2521  0.4653  1.5669
 5516TIP3   OH238106   1.198   3.217   1.772 -0.5020 -0.9781 -0.3619
 5516TIP3    H138107   1.289   3.188   1.766 -0.5784 -1.1676 -0.6029
 5516TIP3    H238108   1.186   3.273   1.695 -0.3827 -0.3801  0.0480
 5517TIP3   OH238109   1.028   0.474   1.091 -0.3531 -0.3024 -0.1612
 5517TIP3    H138110   1.103   0.423   1.061 -1.3398 -1.3249 -0.9813
 5517TIP3    H238111   1.064   0.561   1.108  1.3162 -1.1738  1.0198
 5518TIP3   OH238112   4.842   0.500   1.482  0.2449  0.3857  0.2973
 5518TIP3    H138113   4.925   0.488   1.435 -0.5415 -0.2084 -0.9888
 5518TIP3    H238114   4.863   0.564   1.551  2.4611 -1.7446  1.8189
 5519TIP3   OH238115   1.250   0.671   8.096  0.2537 -0.2280 -0.1602
 5519TIP3    H138116   1.275   0.581   8.074 -0.5869 -0.9056  1.4691
 5519TIP3    H238117   1.168   0.685   8.049  0.8488  0.0387 -1.1492
 5520TIP3   OH238118   4.200   2.855   1.400 -0.4205  0.2861  0.3822
 5520TIP3    H138119   4.143   2.925   1.431 -1.8283 -0.0810 -1.2075
 5520TIP3    H238120   4.145   2.776   1.402 -0.0695 -0.0507 -1.3660
 5521TIP3   OH238121   0.260   0.685   2.185  0.3320  0.3720 -0.4507
 5521TIP3    H138122   0.256   0.781   2.188  0.0782  0.3580 -0.3333
 5521TIP3    H238123   0.337   0.663   2.238  1.2866  0.5782 -1.7203
 5522TIP3   OH238124   1.418   1.560   8.071 -0.1726  0.4142 -0.0151
 5522TIP3    H138125   1.432   1.654   8.073  0.0806  0.3834 -0.2190
 5522TIP3    H238126   1.396   1.536   8.161  0.6433  0.5387  0.2261
 5523TIP3   OH238127   6.834   0.796   2.239 -0.0995  0.0688 -0.4674
 5523TIP3    H138128   6.825   0.701   2.232 -2.0251  0.0744  0.9792
 5523TIP3    H238129   6.925   0.814   2.216  0.4212 -2.1721 -0.3418
 5524TIP3   OH238130   4.562   2.288   2.430  0.2180  0.1724  0.0909
 5524TIP3    H138131   4.558   2.201   2.470 -1.0531  1.0106  1.9336
 5524TIP3    H238132   4.633   2.333   2.477 -0.2906  0.6843  0.3861
 5525TIP3   OH238133   2.371   1.389   7.016 -0.0025  0.3240  0.0321
 5525TIP3    H138134   2.290   1.392   6.965 -0.5885  0.5838  0.9498
 5525TIP3    H238135   2.346   1.423   7.102  0.7763 -0.8219  0.7350
 5526TIP3   OH238136   5.760   1.852   1.057 -0.2460 -0.2302  0.2143
 5526TIP3    H138137   5.789   1.868   1.147 -1.8302 -2.8645  1.3260
 5526TIP3    H238138   5.711   1.769   1.062  0.6764 -1.1608 -3.3209
 5527TIP3   OH238139   6.650   6.532   1.488 -0.3207 -0.0594  0.4868
 5527TIP3    H138140   6.629   6.481   1.410 -0.3936  2.0171 -0.9349
 5527TIP3    H238141   6.734   6.497   1.518  0.3243 -0.1202 -1.2516
 5528TIP3   OH238142   5.922   2.206   0.424  0.4816 -0.1771  0.1255
 5528TIP3    H138143   5.839   2.253   0.430 -1.1320 -2.5356 -1.6917
 5528TIP3    H238144   5.930   2.161   0.508  0.4361  0.7675  0.6561
 5529TIP3   OH238145   2.587   0.814   7.725  0.0210  0.1522  0.0901
 5529TIP3    H138146   2.558   0.775   7.808  0.3893 -1.7927 -0.6396
 5529TIP3    H238147   2.683   0.818   7.733  0.1083 -0.6371 -0.4665
 5530TIP3   OH238148   1.780   1.255   0.160 -0.0334  0.3945 -0.4367
 5530TIP3    H138149   1.869   1.282   0.180  0.0680  0.2409 -0.6710
 5530TIP3    H238150   1.789   1.165   0.128 -0.0739  0.9077 -1.9819
 5531TIP3   OH238151   6.262   0.867   6.426 -0.2565 -0.0677 -0.2244
 5531TIP3    H138152   6.228   0.778   6.424 -0.6617  0.0851 -1.6382
 5531TIP3    H238153   6.192   0.919   6.464 -0.1804 -0.2826  0.2186
 5532TIP3   OH238154   4.302   4.024   8.449  0.0531  0.1336  0.0634
 5532TIP3    H138155   4.235   4.068   8.501  0.9561  0.3367  1.0910
 5532TIP3    H238156   4.364   4.093   8.426 -0.4678  0.1107 -1.5726
 5533TIP3   OH238157   1.559   6.070   8.064  0.3661 -0.3879  0.0447
 5533TIP3    H138158   1.607   6.025   8.134  1.3824 -0.0904 -0.4458
 5533TIP3    H238159   1.513   6.000   8.018  0.8292 -0.7688  0.1457
 5534TIP3   OH238160   1.106   4.951   1.986 -0.7341  0.0120  0.3376
 5534TIP3    H138161   1.087   4.859   2.004  2.4066 -0.5366  1.5261
 5534TIP3    H238162   1.074   4.997   2.063 -0.7279 -0.3370  0.5532
 5535TIP3   OH238163   3.157   1.809   0.311  0.0009 -0.1117 -0.2907
 5535TIP3    H138164   3.074   1.844   0.278 -0.9137 -0.0391  1.9269
 5535TIP3    H238165   3.190   1.876   0.370  0.6241 -0.9873  0.3881
 5536TIP3   OH238166   3.757   2.016   0.353  0.0880 -0.4914 -0.3322
 5536TIP3    H138167   3.799   2.059   0.428 -1.1047 -1.4120  0.9087
 5536TIP3    H238168   3.826   2.010   0.287  0.9603  1.0579  0.3772
 5537TIP3   OH238169   2.572   6.301   7.441 -0.1684  0.3066 -0.3174
 5537TIP3    H138170   2.483   6.297   7.408 -0.9835  0.3476  1.7362
 5537TIP3    H238171   2.623   6.251   7.378 -1.8096 -0.5421 -1.0264
 5538TIP3   OH238172   2.566   2.536   0.789  1.1069  0.2195 -0.2590
 5538TIP3    H138173   2.470   2.537   0.785  1.1393  0.3073 -1.2682
 5538TIP3    H238174   2.586   2.522   0.882  0.1210 -0.7663 -0.1730
 5539TIP3   OH238175   3.631   3.805   0.506 -0.1170 -0.0416  0.0568
 5539TIP3    H138176   3.639   3.815   0.601  0.0174 -0.2091  0.0637
 5539TIP3    H238177   3.554   3.749   0.495  0.7433 -1.2879  0.1358
 5540TIP3   OH238178   5.087   3.376   2.268 -0.6983 -0.7187 -0.2068
 5540TIP3    H138179   5.026   3.418   2.328 -0.9905 -0.1788 -0.8738
 5540TIP3    H238180   5.163   3.354   2.323  0.0482  1.8846 -0.0490
 5541TIP3   OH238181   3.158   1.191   0.310  0.3870  0.6415 -0.3497
 5541TIP3    H138182   3.122   1.120   0.257  1.2626  0.5404 -0.8326
 5541TIP3    H238183   3.191   1.254   0.246 -1.3480  2.0192  0.0480
 5542TIP3   OH238184   4.734   3.725   7.569 -0.2893 -0.0381 -0.2762
 5542TIP3    H138185   4.724   3.630   7.571  0.5165 -0.1195  0.0649
 5542TIP3    H238186   4.645   3.758   7.554 -0.3416 -0.9018 -2.2290
 5543TIP3   OH238187   0.269   2.318   7.206  0.0452 -0.4562 -0.3630
 5543TIP3    H138188   0.341   2.296   7.147  0.9636 -1.8204  1.1816
 5543TIP3    H238189   0.256   2.412   7.195  1.6303 -0.3065 -1.1508
 5544TIP3   OH238190   5.989   1.796   0.059 -0.5399  0.6487 -0.1127
 5544TIP3    H138191   5.976   1.890   0.072  2.3939  1.4085 -1.7362
 5544TIP3    H238192   6.015   1.763   0.145 -0.9636  1.4470  0.3339
 5545TIP3   OH238193   0.319   0.430   2.540 -0.7342  0.2378  0.1063
 5545TIP3    H138194   0.340   0.499   2.477 -1.3725  0.8215  0.5249
 5545TIP3    H238195   0.395   0.427   2.599  0.1448 -0.7259 -1.0145
 5546TIP3   OH238196   0.200   1.451   8.690 -0.4557  0.5604 -0.3930
 5546TIP3    H138197   0.237   1.392   8.756  0.7106  0.4648 -1.1163
 5546TIP3    H238198   0.261   1.525   8.686 -1.4291  1.3930 -0.1437
 5547TIP3   OH238199   5.330   6.251   0.596  0.1548  0.6554 -0.0193
 5547TIP3    H138200   5.313   6.189   0.666 -1.1791  1.3783  0.3387
 5547TIP3    H238201   5.287   6.213   0.519  1.1786  0.1143 -0.3482
 5548TIP3   OH238202   5.822   5.236   0.584  0.0997 -0.3835  0.1212
 5548TIP3    H138203   5.892   5.180   0.551 -2.3138 -2.8943 -1.2614
 5548TIP3    H238204   5.776   5.266   0.505 -0.6421  0.8004  0.9737
 5549TIP3   OH238205   3.965   1.923   8.606 -0.1490 -0.0854 -0.0375
 5549TIP3    H138206   3.942   1.895   8.695  1.1145  1.3560  0.8028
 5549TIP3    H238207   3.988   1.843   8.560 -0.2120 -0.8024  1.1353
 5550TIP3   OH238208   6.731   5.922   0.700 -0.5131  0.0136 -0.0528
 5550TIP3    H138209   6.680   5.960   0.629  1.5975  0.2605 -1.5432
 5550TIP3    H238210   6.689   5.953   0.780 -1.3534  2.0173 -1.2017
 5551TIP3   OH238211   3.520   6.388   2.013  0.3033 -0.1992 -0.2049
 5551TIP3    H138212   3.600   6.437   1.995  0.5911 -0.7045 -0.3369
 5551TIP3    H238213   3.449   6.446   1.986  0.6917 -0.9392 -3.2079
 5552TIP3   OH238214   3.392   1.744   2.101  0.5135  0.5152  0.2778
 5552TIP3    H138215   3.311   1.775   2.139  0.0182 -2.4899  1.9033
 5552TIP3    H238216   3.459   1.763   2.167  0.3393 -0.9907  0.9227
 5553TIP3   OH238217   3.616   4.755   8.251  0.5632 -0.5007  0.4527
 5553TIP3    H138218   3.691   4.711   8.291  1.5973 -0.0632 -0.9311
 5553TIP3    H238219   3.645   4.845   8.240 -0.9415  0.1936  1.7682
 5554TIP3   OH238220   4.210   4.942   2.720 -0.6915 -0.1711  0.3099
 5554TIP3    H138221   4.247   4.893   2.794  0.7091  0.9554  0.3909
 5554TIP3    H238222   4.184   5.026   2.758  2.4226  1.4858 -0.8331
 5555TIP3   OH238223   6.587   0.324   0.167  0.1897  0.3728  0.2470
 5555TIP3    H138224   6.525   0.309   0.095  0.0608 -0.1774  0.4630
 5555TIP3    H238225   6.668   0.283   0.137 -0.0750 -0.5275  0.7126
 5556TIP3   OH238226   0.890   3.960   7.397  0.0509 -0.5990 -0.1426
 5556TIP3    H138227   0.907   4.017   7.322  1.3932 -0.3441  0.3363
 5556TIP3    H238228   0.796   3.945   7.394  0.0969 -0.8192 -2.0463
 5557TIP3   OH238229   0.711   4.846   1.797  0.2569 -0.2020 -0.0817
 5557TIP3    H138230   0.731   4.792   1.873  0.4199  0.3136  0.2399
 5557TIP3    H238231   0.666   4.922   1.832  0.2197 -0.0226 -0.5121
 5558TIP3   OH238232   2.181   1.599   1.263  0.1043  0.2674  0.3012
 5558TIP3    H138233   2.194   1.693   1.248 -1.3813  0.7128  1.4872
 5558TIP3    H238234   2.192   1.589   1.358 -1.0204 -0.5081  0.3689
 5559TIP3   OH238235   0.913   5.085   0.768  0.1689  0.4791  0.0299
 5559TIP3    H138236   0.994   5.050   0.806  0.1701  0.6734  0.2118
 5559TIP3    H238237   0.843   5.037   0.813  0.1993 -0.4306 -0.8723
 5560TIP3   OH238238   0.422   3.120   8.485 -0.1226 -0.1727 -0.1822
 5560TIP3    H138239   0.395   3.194   8.431  1.1108  0.4330 -0.0210
 5560TIP3    H238240   0.346   3.062   8.487 -1.2460  1.2460 -0.0312
 5561TIP3   OH238241   0.560   5.169   1.240 -0.2183 -0.4430 -0.6782
 5561TIP3    H138242   0.633   5.158   1.301 -0.7451  2.0478  0.5376
 5561TIP3    H238243   0.590   5.235   1.177 -0.9320 -0.3949 -0.9858
 5562TIP3   OH238244   2.607   0.375   7.836 -0.2625  0.4792  0.0747
 5562TIP3    H138245   2.523   0.417   7.817  0.4785  3.4159  2.5237
 5562TIP3    H238246   2.590   0.320   7.912 -0.7638 -2.4094 -1.9431
 5563TIP3   OH238247   0.646   1.940   7.109 -0.2460 -0.0218  0.4401
 5563TIP3    H138248   0.695   2.014   7.073  1.9171 -0.4913  2.2397
 5563TIP3    H238249   0.632   1.882   7.034  1.4564  0.4088 -0.2577
 5564TIP3   OH238250   1.991   1.727   2.481  0.0604  0.5631 -0.5286
 5564TIP3    H138251   2.070   1.734   2.535  0.6028  1.3467 -1.3996
 5564TIP3    H238252   2.021   1.744   2.392 -1.2781  2.1274 -0.7409
 5565TIP3   OH238253   4.466   3.411   0.182  0.2326 -0.3840  0.2002
 5565TIP3    H138254   4.398   3.400   0.116  0.1097 -0.8273  0.3948
 5565TIP3    H238255   4.477   3.505   0.190  0.2873 -0.3334 -0.4887
 5566TIP3   OH238256   6.277   1.949   7.770  0.3539  0.7303  0.1774
 5566TIP3    H138257   6.199   1.960   7.824  0.3922  0.1131  0.3629
 5566TIP3    H238258   6.256   1.993   7.687 -0.1415  0.6721  0.2724
 5567TIP3   OH238259   0.962   5.653   1.100  0.5765 -0.1966 -0.0624
 5567TIP3    H138260   0.954   5.698   1.184 -1.2111 -1.7461  0.6770
 5567TIP3    H238261   0.909   5.705   1.040  2.5269  1.3855 -0.5131
 5568TIP3   OH238262   6.656   2.632   8.157 -0.1063  0.1883  0.0867
 5568TIP3    H138263   6.692   2.544   8.150 -1.1606 -0.1574 -1.5159
 5568TIP3    H238264   6.561   2.620   8.146 -0.3101  1.4772  0.2876
 5569TIP3   OH238265   2.708   6.367   0.779  0.6149  0.3069  0.5272
 5569TIP3    H138266   2.772   6.398   0.843  0.4485  2.1138 -0.1255
 5569TIP3    H238267   2.729   6.416   0.699 -0.9976  0.2482  0.0405
 5570TIP3   OH238268   0.092   5.651   0.128  0.6105  0.7220 -0.4927
 5570TIP3    H138269   0.155   5.653   0.200  0.3080  0.3699 -0.2128
 5570TIP3    H238270   0.015   5.607   0.165  0.3188  0.8636 -0.9237
 5571TIP3   OH238271   0.273   2.960   7.579  0.0086  0.1534 -0.2297
 5571TIP3    H138272   0.289   2.896   7.509  2.3558  1.0832 -0.6673
 5571TIP3    H238273   0.256   3.042   7.532  0.7533  0.6023  0.2646
 5572TIP3   OH238274   1.431   6.013   7.668 -0.3948  0.4213  0.0652
 5572TIP3    H138275   1.424   5.982   7.578  1.5961 -2.1938  0.6666
 5572TIP3    H238276   1.448   6.107   7.660  0.1133  0.1935 -2.3027
 5573TIP3   OH238277   5.283   0.388   8.711 -0.1100 -0.3744  0.5678
 5573TIP3    H138278   5.297   0.307   8.761  1.4954 -0.6654 -0.3081
 5573TIP3    H238279   5.197   0.376   8.670  0.4852 -2.0645 -0.2949
 5574TIP3   OH238280   4.514   2.263   0.153 -0.2618  0.0851  0.0564
 5574TIP3    H138281   4.481   2.233   0.069  1.2869 -0.3423 -0.4280
 5574TIP3    H238282   4.608   2.274   0.140 -0.1246  0.9113  1.4734
 5575TIP3   OH238283   1.042   6.712   0.392  0.1673 -0.0495 -0.0736
 5575TIP3    H138284   1.048   6.669   0.307  0.4265  1.2202 -0.7181
 5575TIP3    H238285   0.990   6.791   0.376 -0.7060 -0.3461  1.1768
 5576TIP3   OH238286   0.878   2.400   1.420  0.2914 -0.0473 -0.3386
 5576TIP3    H138287   0.924   2.418   1.502  1.1380  0.2937 -0.8715
 5576TIP3    H238288   0.900   2.309   1.400  1.6709  0.4301 -1.1452
 5577TIP3   OH238289   3.407   6.341   7.972  0.0793 -0.1677  0.0512
 5577TIP3    H138290   3.444   6.273   8.028 -1.9401 -1.6338 -0.3028
 5577TIP3    H238291   3.327   6.368   8.016 -0.0580  0.7350 -0.7128
 5578TIP3   OH238292   3.428   5.083   1.951  0.3108 -0.2969  0.0181
 5578TIP3    H138293   3.354   5.144   1.945 -0.5238 -1.1685  1.0943
 5578TIP3    H238294   3.393   5.007   1.998  0.9525 -2.1971 -2.3842
 5579TIP3   OH238295   2.194   6.778   6.615 -0.3309 -0.0631  0.2318
 5579TIP3    H138296   2.109   6.751   6.580 -0.7458  2.0921 -0.6243
 5579TIP3    H238297   2.173   6.829   6.693  0.2415 -0.2572  0.5173
 5580TIP3   OH238298   4.971   3.518   0.456 -0.0030 -0.1132  0.4960
 5580TIP3    H138299   4.988   3.468   0.377  0.2554 -0.1490  0.5737
 5580TIP3    H238300   4.881   3.549   0.446 -0.2199 -0.7302  0.5241
 5581TIP3   OH238301   0.223   5.452   0.238 -0.0624 -0.7730 -0.0959
 5581TIP3    H138302   0.268   5.471   0.320 -1.1150 -0.5879  0.4505
 5581TIP3    H238303   0.236   5.358   0.225 -3.7594 -1.9158  2.7581
 5582TIP3   OH238304   5.805   2.241   8.425 -1.1950 -0.2790 -0.3707
 5582TIP3    H138305   5.870   2.228   8.355  0.1051 -0.5095  0.8249
 5582TIP3    H238306   5.824   2.172   8.488 -1.9159  0.3065  0.5124
 5583TIP3   OH238307   3.878   6.651   0.398  0.5585  0.4696 -0.3123
 5583TIP3    H138308   3.823   6.649   0.477  0.8203 -1.4538 -0.1314
 5583TIP3    H238309   3.923   6.735   0.402  0.1510  0.6431  1.2956
 5584TIP3   OH238310   5.552   6.135   7.740 -0.4827 -0.4973  0.1632
 5584TIP3    H138311   5.588   6.049   7.761 -0.2293  0.1165  2.4950
 5584TIP3    H238312   5.588   6.193   7.806 -2.3736  0.9910 -0.0173
 5585TIP3   OH238313   2.345   6.782   7.783 -0.0412  0.2034 -0.6363
 5585TIP3    H138314   2.276   6.719   7.802 -1.7684  1.6581 -1.7621
 5585TIP3    H238315   2.405   6.775   7.857 -0.5351 -2.2180 -0.3802
 5586TIP3   OH238316   5.342   4.052   7.670  0.0435 -0.2450  0.2208
 5586TIP3    H138317   5.376   4.008   7.748 -2.1131 -0.3790  1.1467
 5586TIP3    H238318   5.341   4.145   7.694 -0.2711 -0.2449  0.2046
 5587TIP3   OH238319   5.073   4.845   1.017 -0.2315 -0.0459 -0.2906
 5587TIP3    H138320   5.063   4.820   1.109  0.8138 -0.9280 -0.3874
 5587TIP3    H238321   5.083   4.940   1.018 -0.2522 -0.0464  0.5031
 5588TIP3   OH238322   0.192   3.534   7.981 -0.5149 -0.0155  0.7971
 5588TIP3    H138323   0.143   3.556   7.902 -0.6023 -1.7118  0.3494
 5588TIP3    H238324   0.282   3.518   7.950 -0.9344 -2.5405  0.6796
 5589TIP3   OH238325   1.508   1.475   1.898  0.6655  0.0884  0.1825
 5589TIP3    H138326   1.470   1.538   1.836 -0.4024  0.5388  1.2523
 5589TIP3    H238327   1.437   1.456   1.959  0.4631 -3.3746 -0.9712
 5590TIP3   OH238328   0.226   3.745   7.621 -0.1045 -0.0077  0.4644
 5590TIP3    H138329   0.147   3.717   7.576  0.1129  1.3903 -0.8790
 5590TIP3    H238330   0.211   3.838   7.640  0.5104 -0.1506  1.7763
 5591TIP3   OH238331   3.592   3.781   2.295 -0.4046  0.9324  0.1156
 5591TIP3    H138332   3.677   3.824   2.299 -1.2772  3.0342 -1.7670
 5591TIP3    H238333   3.529   3.853   2.293 -2.1563 -0.5409  0.0249
 5592TIP3   OH238334   1.477   5.531   1.947  0.2406 -0.2698  0.5532
 5592TIP3    H138335   1.460   5.589   2.021  1.9448  0.6750  0.2521
 5592TIP3    H238336   1.408   5.552   1.883  1.2426  2.0089  0.1492
 5593TIP3   OH238337   4.993   0.828   7.605  0.1290  0.1996 -0.2841
 5593TIP3    H138338   4.905   0.821   7.568 -0.7118  0.3683  1.5954
 5593TIP3    H238339   5.013   0.740   7.637  0.6316  0.1856 -0.6151
 5594TIP3   OH238340   4.797   3.777   0.986 -0.0102  0.1439 -0.2369
 5594TIP3    H138341   4.714   3.736   1.009  0.5684 -1.7224 -1.2437
 5594TIP3    H238342   4.772   3.859   0.943 -1.2424  0.5064  1.0940
 5595TIP3   OH238343   2.617   0.098   1.838  0.0924  0.4151 -0.2048
 5595TIP3    H138344   2.626   0.009   1.871  1.9139  0.5108 -0.3512
 5595TIP3    H238345   2.612   0.089   1.743  0.6012  0.4674 -0.2420
 5596TIP3   OH238346   3.420   4.233   7.749  0.2457  0.0436  0.4600
 5596TIP3    H138347   3.333   4.219   7.787 -0.0500 -1.8928 -0.7677
 5596TIP3    H238348   3.472   4.159   7.779 -0.0494 -1.6872 -2.8254
 5597TIP3   OH238349   3.608   1.087   2.124  0.0140  0.0237 -0.1264
 5597TIP3    H138350   3.590   1.044   2.040 -2.5066  0.9554 -0.1653
 5597TIP3    H238351   3.562   1.171   2.118  1.6857  1.1142  1.3607
 5598TIP3   OH238352   3.728   6.690   0.621  0.1301  0.0345 -0.6463
 5598TIP3    H138353   3.638   6.722   0.617  0.0302  0.1635  1.4778
 5598TIP3    H238354   3.780   6.768   0.641  0.4149 -0.3818  0.3185
 5599TIP3   OH238355   5.413   5.820   8.669 -0.0499 -0.1562  0.1492
 5599TIP3    H138356   5.340   5.863   8.624 -0.3063 -0.5066  0.2223
 5599TIP3    H238357   5.488   5.835   8.612 -0.1410  0.3606  0.1595
 5600TIP3   OH238358   5.343   6.705   0.534 -0.0639  0.0230 -0.1492
 5600TIP3    H138359   5.408   6.693   0.464  1.6558 -1.1830  1.5359
 5600TIP3    H238360   5.377   6.778   0.586  0.5426 -1.2369  1.3049
 5601TIP3   OH238361   6.344   3.186   1.631 -1.0836  0.3704  0.4939
 5601TIP3    H138362   6.408   3.256   1.632 -2.3504  1.6008 -0.6424
 5601TIP3    H238363   6.295   3.198   1.549 -0.6869 -2.4649 -0.2729
 5602TIP3   OH238364   4.201   4.936   0.199 -0.2084 -0.0892 -0.0329
 5602TIP3    H138365   4.246   4.904   0.121  0.0407 -0.7910  0.3887
 5602TIP3    H238366   4.265   4.927   0.269 -1.3791 -2.4805  0.8748
 5603TIP3   OH238367   4.276   1.631   2.139 -0.5735  0.4591  0.2677
 5603TIP3    H138368   4.309   1.684   2.211  0.8239  4.1922 -2.7754
 5603TIP3    H238369   4.345   1.567   2.122  0.7547  1.8597  0.1280
 5604TIP3   OH238370   1.587   1.256   0.439 -0.1702  0.3994  0.1772
 5604TIP3    H138371   1.614   1.165   0.456  0.6653  0.3655 -1.1886
 5604TIP3    H238372   1.535   1.280   0.516  1.1265 -0.6159  1.4233
 5605TIP3   OH238373   3.607   4.820   0.943 -0.0078  0.1684 -0.3563
 5605TIP3    H138374   3.527   4.791   0.987 -0.3338  0.5366 -0.6875
 5605TIP3    H238375   3.577   4.845   0.855  0.4511  0.4328 -0.4393
 5606TIP3   OH238376   0.849   0.333   1.782 -0.1960  0.1515  0.2598
 5606TIP3    H138377   0.893   0.248   1.777 -0.5629 -0.1100  1.1556
 5606TIP3    H238378   0.812   0.335   1.871  0.8412  1.7616  0.7002
 5607TIP3   OH238379   4.701   4.536   1.797  0.0303  0.4492 -0.0498
 5607TIP3    H138380   4.711   4.477   1.872  1.7023  2.2589  1.2405
 5607TIP3    H238381   4.614   4.575   1.808  0.4824  1.1184  1.3018
 5608TIP3   OH238382   6.604   0.241   8.367 -0.1727 -0.5083  0.1102
 5608TIP3    H138383   6.686   0.237   8.319  0.9172 -1.5808  1.9629
 5608TIP3    H238384   6.575   0.150   8.373  0.2483 -0.5332  2.2891
 5609TIP3   OH238385   1.024   6.390   1.611  0.2530  0.2619 -0.1335
 5609TIP3    H138386   1.103   6.344   1.638  0.1807  0.1490 -0.1152
 5609TIP3    H238387   1.046   6.428   1.526  0.6891  1.1538  0.3690
 5610TIP3   OH238388   3.321   5.514   0.055 -0.4471 -0.4009  0.2216
 5610TIP3    H138389   3.387   5.567   0.099 -0.7133 -0.8058  1.1402
 5610TIP3    H238390   3.343   5.519  -0.038  0.1548  0.4421  0.4032
 5611TIP3   OH238391   1.991   3.069   1.179 -0.3459 -0.0573  0.2619
 5611TIP3    H138392   2.032   2.986   1.203 -1.3227 -0.5766  0.1578
 5611TIP3    H238393   1.898   3.050   1.172 -0.5970  1.0585  0.2747
 5612TIP3   OH238394   3.019   0.412   2.464  0.1121 -0.2796  0.2456
 5612TIP3    H138395   3.033   0.477   2.534 -0.6151 -0.4592  0.5666
 5612TIP3    H238396   3.098   0.358   2.466  0.5782  0.3849  0.1999
 5613TIP3   OH238397   0.149   5.201   7.463 -0.1460 -0.0443  0.2110
 5613TIP3    H138398   0.130   5.175   7.372 -1.7971  0.5428  0.3511
 5613TIP3    H238399   0.156   5.296   7.459 -2.8082  0.2809  1.0385
 5614TIP3   OH238400   5.676   6.211   2.416  0.0762 -0.4613 -0.0022
 5614TIP3    H138401   5.630   6.197   2.499  0.6532  2.5272  0.9268
 5614TIP3    H238402   5.737   6.282   2.433  2.2309 -1.5711 -2.2948
 5615TIP3   OH238403   2.472   0.282   0.479 -0.4019 -0.7327 -0.0006
 5615TIP3    H138404   2.445   0.353   0.538 -1.4675 -0.7837 -0.4101
 5615TIP3    H238405   2.395   0.226   0.472 -0.3837 -0.5828 -1.6642
 5616TIP3   OH238406   1.505   2.519   8.162  0.2384  0.2579 -0.2229
 5616TIP3    H138407   1.435   2.456   8.179  0.0063  0.4969 -0.2879
 5616TIP3    H238408   1.577   2.490   8.219 -0.3159  0.6946  0.7362
 5617TIP3   OH238409   5.743   1.935   0.239 -0.0320 -0.1778 -0.2987
 5617TIP3    H138410   5.763   2.015   0.190  1.4784  0.6757  1.5976
 5617TIP3    H238411   5.826   1.907   0.276 -0.9640 -1.2564  1.0867
 5618TIP3   OH238412   3.880   2.344   1.449  0.4182  0.3820 -0.3091
 5618TIP3    H138413   3.788   2.354   1.424  0.1383 -2.2134 -0.5740
 5618TIP3    H238414   3.922   2.307   1.372  1.1328 -0.7333  0.5847
 5619TIP3   OH238415   2.533   0.934   1.265 -0.1969  0.1246  0.1819
 5619TIP3    H138416   2.537   0.849   1.309  1.5245  0.6643  1.1294
 5619TIP3    H238417   2.559   0.915   1.175 -0.7811 -0.4959  0.1333
 5620TIP3   OH238418   5.289   4.367   8.157 -0.6305  0.3082 -0.3820
 5620TIP3    H138419   5.295   4.446   8.210 -0.7188  0.1115 -0.0741
 5620TIP3    H238420   5.203   4.371   8.115 -0.9254  0.0390  0.1817
 5621TIP3   OH238421   3.410   2.199   1.608  0.0210 -0.2174  0.1519
 5621TIP3    H138422   3.391   2.220   1.700 -1.7021  0.0359 -0.2282
 5621TIP3    H238423   3.327   2.214   1.563  0.1831 -2.5797 -1.0860
 5622TIP3   OH238424   1.095   0.503   1.727 -0.5156  0.1849  0.1108
 5622TIP3    H138425   1.155   0.458   1.786  0.5137  3.2966  1.6218
 5622TIP3    H238426   1.015   0.450   1.729  0.7609 -1.8242  1.2618
 5623TIP3   OH238427   5.284   5.547   6.668  0.3268 -0.2849 -0.4766
 5623TIP3    H138428   5.296   5.618   6.604 -0.4633  1.3605  1.1187
 5623TIP3    H238429   5.200   5.508   6.645  0.3351 -0.1100 -0.8113
 5624TIP3   OH238430   2.905   2.099   8.082  0.3200 -0.1875  0.2275
 5624TIP3    H138431   2.992   2.095   8.124 -0.2282 -0.2200  1.3947
 5624TIP3    H238432   2.909   2.175   8.025  1.9653 -1.6043 -1.7044
 5625TIP3   OH238433   5.391   4.746   1.181  0.1701 -0.0763 -0.0986
 5625TIP3    H138434   5.387   4.722   1.088  3.3634  0.5585 -0.5053
 5625TIP3    H238435   5.361   4.837   1.183 -1.0506 -0.4515 -0.2740
 5626TIP3   OH238436   1.362   6.759   1.514  0.6812  0.4172  0.2371
 5626TIP3    H138437   1.388   6.683   1.462 -0.2316  0.8381 -0.8815
 5626TIP3    H238438   1.441   6.784   1.562  0.9630 -1.3015  0.7265
 5627TIP3   OH238439   6.274   0.782   7.350 -0.0728 -0.1428 -0.1455
 5627TIP3    H138440   6.338   0.754   7.415  0.8229  2.8467  0.4277
 5627TIP3    H238441   6.294   0.729   7.272  2.3055 -0.1607  0.4014
 5628TIP3   OH238442   5.722   3.067   8.736  0.0687 -0.0915  0.2158
 5628TIP3    H138443   5.651   3.128   8.717  0.9953  1.3106  1.0748
 5628TIP3    H238444   5.797   3.100   8.688  0.7203 -0.2466  1.0857
 5629TIP3   OH238445   2.869   0.658   0.118  0.0306  0.3408 -0.0330
 5629TIP3    H138446   2.854   0.657   0.024  1.0428  1.2037 -0.2171
 5629TIP3    H238447   2.804   0.721   0.151  1.3329  1.9959 -0.4948
 5630TIP3   OH238448   1.506   2.834   8.702  0.2368 -0.3206 -0.1765
 5630TIP3    H138449   1.478   2.797   8.618  0.1245  2.1481 -1.2987
 5630TIP3    H238450   1.467   2.921   8.704  0.4366 -0.2306  2.3729
 5631TIP3   OH238451   1.990   3.706   0.330 -0.0054 -0.1946  0.4161
 5631TIP3    H138452   1.953   3.712   0.242 -1.7949 -0.0365  1.1375
 5631TIP3    H238453   2.046   3.629   0.328 -1.7386 -1.4907 -0.2898
 5632TIP3   OH238454   1.775   1.882   2.558 -0.2724  0.2215  0.2463
 5632TIP3    H138455   1.827   1.948   2.604  0.9700 -0.3424 -0.2822
 5632TIP3    H238456   1.839   1.813   2.537 -0.7803  0.4497 -2.3018
 5633TIP3   OH238457   0.179   1.533   1.845  0.1373  0.1364  0.2557
 5633TIP3    H138458   0.261   1.527   1.895  1.3054  1.6930 -1.3455
 5633TIP3    H238459   0.161   1.627   1.841 -0.7173 -0.0586 -0.9627
 5634TIP3   OH238460   1.238   6.708   7.350  0.6135  0.1487 -0.1864
 5634TIP3    H138461   1.216   6.797   7.377  0.0452 -0.3782  1.1749
 5634TIP3    H238462   1.269   6.717   7.260 -0.7070  1.5343 -0.5315
 5635TIP3   OH238463   2.092   6.024   2.015  0.5138 -0.1679 -0.2326
 5635TIP3    H138464   2.100   5.968   2.092 -1.7540 -0.2736 -0.0113
 5635TIP3    H238465   2.085   6.113   2.051  1.8633  0.0608 -0.4765
 5636TIP3   OH238466   1.696   2.487   7.232  0.4740 -0.6798 -0.4455
 5636TIP3    H138467   1.761   2.513   7.297  0.6591 -2.3883  0.1083
 5636TIP3    H238468   1.635   2.431   7.281 -0.7200 -0.1208 -1.2366
 5637TIP3   OH238469   5.016   4.702   8.447 -0.1237 -0.2702 -1.5170
 5637TIP3    H138470   4.986   4.760   8.516  0.0395 -3.0746  1.1247
 5637TIP3    H238471   4.935   4.672   8.404 -0.3843 -0.0506 -1.1843
 5638TIP3   OH238472   6.281   2.521   1.772  0.0569  0.4116 -0.0995
 5638TIP3    H138473   6.339   2.460   1.728  0.0413 -1.4081  2.1905
 5638TIP3    H238474   6.194   2.503   1.736  0.1589 -0.4921  0.0948
 5639TIP3   OH238475   5.566   6.374   1.139 -0.2276  0.2596  0.1971
 5639TIP3    H138476   5.499   6.307   1.126 -0.1563  0.2135  0.0726
 5639TIP3    H238477   5.586   6.406   1.052  3.1965 -2.8854 -0.4348
 5640TIP3   OH238478   1.099   0.541   8.693  0.1786  0.0814  1.2826
 5640TIP3    H138479   1.090   0.500   8.779  0.4622  1.2740  1.8985
 5640TIP3    H238480   1.135   0.628   8.711  0.3913  0.2971 -0.0560
 5641TIP3   OH238481   0.302   4.877   1.376  0.3344 -0.1554 -0.4242
 5641TIP3    H138482   0.360   4.847   1.445  2.0169  1.3633 -1.1035
 5641TIP3    H238483   0.223   4.824   1.386  0.7809 -0.4409  2.2063
 5642TIP3   OH238484   2.615   6.338   8.344 -0.3757 -0.1754 -0.1724
 5642TIP3    H138485   2.663   6.273   8.292 -1.9869 -1.1552 -0.5072
 5642TIP3    H238486   2.584   6.402   8.280  0.1013  0.2110 -0.0185
 5643TIP3   OH238487   1.456   4.526   0.238 -0.0112 -0.9216  0.5006
 5643TIP3    H138488   1.508   4.472   0.178 -0.2509  0.0794 -0.6586
 5643TIP3    H238489   1.520   4.586   0.277 -0.3397  1.0510 -1.7473
 5644TIP3   OH238490   4.804   6.473   1.573  0.0197 -0.1451  0.0348
 5644TIP3    H138491   4.769   6.527   1.502  2.4200  1.7118  0.1291
 5644TIP3    H238492   4.797   6.383   1.540  0.0170  0.5635 -2.0665
 5645TIP3   OH238493   0.280   0.287   1.656  0.0447 -0.6512 -0.3005
 5645TIP3    H138494   0.337   0.296   1.580  0.0752 -2.0348 -0.4679
 5645TIP3    H238495   0.312   0.210   1.702 -0.4651 -0.2962  0.6978
 5646TIP3   OH238496   5.472   0.142   8.639 -0.4559 -0.1765 -0.1342
 5646TIP3    H138497   5.463   0.070   8.702 -1.3096 -0.8757 -1.0189
 5646TIP3    H238498   5.387   0.146   8.595  0.3449 -0.2450 -1.7794
 5647TIP3   OH238499   1.035   4.708   0.559 -0.4239 -0.1149 -0.4933
 5647TIP3    H138500   1.012   4.719   0.651 -1.6408  0.1633 -0.8041
 5647TIP3    H238501   0.983   4.775   0.513  0.9309  0.4398 -1.2943
 5648TIP3   OH238502   6.838   2.251   2.445  0.1331  0.3427  0.1002
 5648TIP3    H138503   6.928   2.222   2.431 -0.2500 -0.0125 -1.8379
 5648TIP3    H238504   6.786   2.171   2.446 -0.3758  0.6532 -0.6707
 5649TIP3   OH238505   1.529   3.098   1.405  0.0459 -0.2417  0.0513
 5649TIP3    H138506   1.593   3.132   1.467  0.4194  2.8914 -1.8553
 5649TIP3    H238507   1.446   3.138   1.430 -0.4477 -1.3359  0.2581
 5650TIP3   OH238508   1.601   4.003   6.767  0.1161  0.1109  0.3488
 5650TIP3    H138509   1.639   3.997   6.855  2.8672 -1.0819 -0.8010
 5650TIP3    H238510   1.550   4.084   6.769  1.9549  1.3626  2.3851
 5651TIP3   OH238511   1.415   5.805   7.222  0.0300 -0.0414  0.0472
 5651TIP3    H138512   1.493   5.810   7.168 -1.4192 -0.3152 -2.2036
 5651TIP3    H238513   1.347   5.848   7.169 -1.0381  1.5777  2.5509
 5652TIP3   OH238514   1.224   4.127   0.405 -0.0465 -0.1912  0.5306
 5652TIP3    H138515   1.249   4.219   0.406  1.4950 -0.5835  0.4907
 5652TIP3    H238516   1.135   4.126   0.441 -0.4840  1.4006 -0.4000
 5653TIP3   OH238517   5.719   6.015   8.083  0.2841 -0.3122 -0.0548
 5653TIP3    H138518   5.724   5.958   8.006  2.8423 -0.3456  0.0527
 5653TIP3    H238519   5.753   6.099   8.053  2.3401 -0.6237  1.2454
 5654TIP3   OH238520   1.148   6.695   0.642 -0.2667  0.0361  0.1925
 5654TIP3    H138521   1.108   6.681   0.557 -0.4433 -0.1060  0.2967
 5654TIP3    H238522   1.209   6.622   0.652 -0.7675 -0.3476  0.4906
 5655TIP3   OH238523   1.315   4.686   1.613 -0.4118  0.1095 -0.0489
 5655TIP3    H138524   1.371   4.709   1.540  0.7818 -1.8791  0.1814
 5655TIP3    H238525   1.352   4.733   1.688  0.9698 -1.1277  0.0877
 5656TIP3   OH238526   1.427   0.465   2.102  0.3741 -0.2002 -0.9190
 5656TIP3    H138527   1.348   0.493   2.148 -0.1847 -0.5465 -1.6465
 5656TIP3    H238528   1.474   0.411   2.165  0.1081  0.1286 -0.4317
 5657TIP3   OH238529   3.191   6.264   7.599 -0.6283  0.1546  0.2177
 5657TIP3    H138530   3.186   6.172   7.626 -0.0574 -0.1207 -0.5946
 5657TIP3    H238531   3.107   6.301   7.627 -0.3607 -0.2954  1.6924
 5658TIP3   OH238532   0.905   1.429   7.265 -0.2246 -0.3519  0.5158
 5658TIP3    H138533   0.896   1.430   7.170 -0.4504  0.8349  0.5329
 5658TIP3    H238534   0.904   1.336   7.289  4.2077 -1.0307 -1.0172
 5659TIP3   OH238535   1.694   4.399   8.481 -0.1311  0.3107  0.1030
 5659TIP3    H138536   1.616   4.384   8.428 -0.7227  0.7294  0.8411
 5659TIP3    H238537   1.761   4.344   8.440 -0.9452 -0.4688 -0.2243
 5660TIP3   OH238538   4.665   4.210   7.453 -0.3327  0.1055  0.6001
 5660TIP3    H138539   4.744   4.251   7.419 -0.6380  0.5992  0.4804
 5660TIP3    H238540   4.693   4.167   7.534 -0.1998  1.3609  1.2347
 5661TIP3   OH238541   3.320   5.046   2.922 -0.2202 -0.0298 -0.1605
 5661TIP3    H138542   3.407   5.049   2.961  1.3176 -1.5696 -3.0813
 5661TIP3    H238543   3.299   5.137   2.902  0.1465  0.4821  1.6547
 5662TIP3   OH238544   1.629   4.637   8.315 -0.1472  1.0982 -0.7874
 5662TIP3    H138545   1.603   4.546   8.325  1.3352  0.7073 -0.1093
 5662TIP3    H238546   1.591   4.665   8.232 -0.9373 -0.0149 -0.8127
 5663TIP3   OH238547   2.414   0.125   0.112  0.2337 -0.5219  0.4287
 5663TIP3    H138548   2.406   0.219   0.126 -0.5695 -0.8753  2.6744
 5663TIP3    H238549   2.404   0.114   0.017 -2.7585  1.3952  0.3911
 5664TIP3   OH238550   0.908   1.335   7.707 -0.5094  0.3419  0.4217
 5664TIP3    H138551   0.929   1.358   7.617 -2.8469  2.0269  0.2053
 5664TIP3    H238552   0.958   1.397   7.760  0.9250 -0.6989  0.3439
 5665TIP3   OH238553   3.100   2.223   1.951  0.5231 -0.6901  0.0520
 5665TIP3    H138554   3.133   2.204   2.039 -1.5335 -1.3140  0.7472
 5665TIP3    H238555   3.138   2.308   1.928  0.9991 -0.4661  1.5803
 5666TIP3   OH238556   0.371   6.220   7.888 -0.6388  0.1408  0.3116
 5666TIP3    H138557   0.341   6.258   7.970  1.7827  0.5878  1.0843
 5666TIP3    H238558   0.374   6.293   7.827 -0.0772  0.3268  0.5572
 5667TIP3   OH238559   6.165   4.617   6.848 -0.4100  0.1606  0.1802
 5667TIP3    H138560   6.158   4.674   6.772  0.0987 -1.9627 -1.5369
 5667TIP3    H238561   6.181   4.530   6.812  0.0714 -0.8945  2.7313
 5668TIP3   OH238562   5.289   0.262   7.635  0.1218 -0.1160 -0.9384
 5668TIP3    H138563   5.271   0.184   7.583 -1.9711  0.7964 -1.6709
 5668TIP3    H238564   5.333   0.322   7.574  0.3530 -0.1403 -0.7988
 5669TIP3   OH238565   3.867   1.809   0.077 -0.0526 -0.1827  0.2521
 5669TIP3    H138566   3.831   1.721   0.069 -0.4689 -0.1140  1.2051
 5669TIP3    H238567   3.790   1.866   0.080  0.1793  0.1219  0.5564
 5670TIP3   OH238568   2.333   4.690   7.638 -0.1617 -0.2361 -0.2910
 5670TIP3    H138569   2.386   4.611   7.641 -1.1444 -0.8876  0.4965
 5670TIP3    H238570   2.245   4.661   7.664 -0.2195  1.3697  1.5048
 5671TIP3   OH238571   1.751   4.653   1.611 -0.6773 -0.3086 -0.0237
 5671TIP3    H138572   1.709   4.612   1.687  1.9211 -2.0010  0.6512
 5671TIP3    H238573   1.690   4.639   1.539 -1.8068 -1.5303  1.1176
 5672TIP3   OH238574   6.269   0.897   2.597  0.2764  0.2671 -0.1464
 5672TIP3    H138575   6.354   0.885   2.556  0.0847 -0.0398 -0.4620
 5672TIP3    H238576   6.248   0.990   2.585  1.0920  0.6190  0.9774
 5673TIP3   OH238577   6.094   6.149   1.815 -0.4758 -0.0932 -0.5458
 5673TIP3    H138578   6.161   6.202   1.857 -2.0516  0.4025  1.4784
 5673TIP3    H238579   6.109   6.161   1.721  0.2904  2.5678 -0.1508
 5674TIP3   OH238580   6.396   2.611   7.373  0.7086  1.1392 -0.6379
 5674TIP3    H138581   6.488   2.619   7.350  0.7274  1.3372 -0.4939
 5674TIP3    H238582   6.363   2.540   7.317  1.0821  0.6783 -0.2830
 5675TIP3   OH238583   6.031   1.161   7.582 -0.2510  0.3729 -0.3826
 5675TIP3    H138584   5.955   1.105   7.566  1.4894 -2.1084 -0.6413
 5675TIP3    H238585   6.097   1.130   7.521  1.5148  1.2633  0.9723
 5676TIP3   OH238586   4.452   4.830   1.748  0.5520 -0.0011  0.0386
 5676TIP3    H138587   4.393   4.763   1.782  1.1043  0.1006  1.2289
 5676TIP3    H238588   4.530   4.825   1.804  1.5393  0.1151 -1.2653
 5677TIP3   OH238589   5.488   0.744   8.703  0.2790  0.0592  0.0805
 5677TIP3    H138590   5.512   0.833   8.677 -0.4026 -0.2226 -1.6642
 5677TIP3    H238591   5.570   0.695   8.702  0.7275  0.7412  1.4909
 5678TIP3   OH238592   6.752   0.228   1.911  0.4196 -0.0591  0.5648
 5678TIP3    H138593   6.835   0.276   1.920 -0.4389  1.2890  1.7433
 5678TIP3    H238594   6.712   0.233   1.997 -2.3392  2.1931 -0.6592
 5679TIP3   OH238595   5.081   3.580   8.147  0.2202  0.6959 -0.2585
 5679TIP3    H138596   5.010   3.565   8.086 -0.6749 -0.2707  0.9709
 5679TIP3    H238597   5.065   3.668   8.182 -1.3279 -0.1104  1.1784
 5680TIP3   OH238598   1.379   3.887   7.898  0.4801 -0.4729 -0.0585
 5680TIP3    H138599   1.369   3.794   7.878 -0.0079 -0.5226  0.3780
 5680TIP3    H238600   1.459   3.892   7.951  0.8435 -0.5608 -0.5965
 5681TIP3   OH238601   2.729   2.999   8.479 -0.8296 -0.2605  0.0652
 5681TIP3    H138602   2.666   2.986   8.408 -0.8337  3.7324 -0.8549
 5681TIP3    H238603   2.676   3.029   8.553 -0.4445 -1.2815  0.7842
 5682TIP3   OH238604   4.921   3.232   7.426 -0.1231  0.2312  0.1942
 5682TIP3    H138605   4.922   3.202   7.335  0.4778  1.9732 -0.4067
 5682TIP3    H238606   4.847   3.185   7.466  0.2004 -1.2923 -0.9027
 5683TIP3   OH238607   1.594   6.322   1.773 -0.0433 -0.0484  0.0995
 5683TIP3    H138608   1.584   6.402   1.824 -1.6738  1.1712 -2.0093
 5683TIP3    H238609   1.672   6.280   1.811 -0.3711  1.4269  2.6386
 5684TIP3   OH238610   2.912   4.635   2.237  0.3397 -0.0435 -0.1944
 5684TIP3    H138611   2.878   4.628   2.326 -0.6958  0.1977 -0.5639
 5684TIP3    H238612   2.902   4.547   2.200  2.0067 -0.5013  0.3366
 5685TIP3   OH238613   5.813   6.315   6.183 -0.4430 -0.4015 -0.0587
 5685TIP3    H138614   5.752   6.277   6.246  1.3342 -2.2163  0.6872
 5685TIP3    H238615   5.881   6.355   6.237 -0.1578  0.2148 -0.8564
 5686TIP3   OH238616   4.653   0.511   7.513  0.2814 -0.3581  0.3014
 5686TIP3    H138617   4.652   0.602   7.544  0.3476 -0.2661  0.0415
 5686TIP3    H238618   4.580   0.470   7.558 -1.0511  0.3524 -1.1064
 5687TIP3   OH238619   3.417   5.540   0.421  0.1464  0.0889 -0.3295
 5687TIP3    H138620   3.472   5.581   0.354  0.1743  1.2223  0.3646
 5687TIP3    H238621   3.406   5.608   0.488  1.0073 -1.3543  1.3436
 5688TIP3   OH238622   5.846   4.987   8.115  0.0961 -0.2275 -0.4945
 5688TIP3    H138623   5.780   5.048   8.149 -0.0337 -0.1056 -0.9530
 5688TIP3    H238624   5.921   5.043   8.095  0.0964 -0.2693 -0.6069
 5689TIP3   OH238625   0.814   1.781   7.778 -0.1642  0.7174 -0.4565
 5689TIP3    H138626   0.777   1.694   7.794 -0.9157  1.4449  2.0551
 5689TIP3    H238627   0.896   1.763   7.732  0.7025 -1.5164  1.7405
 5690TIP3   OH238628   5.076   4.274   7.850  0.1113 -0.1345  0.0737
 5690TIP3    H138629   5.068   4.307   7.940 -1.4219  1.6817 -0.6716
 5690TIP3    H238630   5.167   4.290   7.827  0.3492  0.0102  1.0559
 5691TIP3   OH238631   4.743   5.127   7.746  0.2593  0.2166 -0.1183
 5691TIP3    H138632   4.705   5.097   7.663 -2.6717  0.3371  1.0800
 5691TIP3    H238633   4.722   5.220   7.750  0.2562  0.1865  0.8174
 5692TIP3   OH238634   1.736   0.614   8.091  0.2310  0.5244  0.3926
 5692TIP3    H138635   1.688   0.566   8.024  0.5050 -0.7502  1.0821
 5692TIP3    H238636   1.827   0.614   8.061  0.3596 -0.0778  0.7623
 5693TIP3   OH238637   2.412   0.127   8.555 -0.2987  0.2665  0.1374
 5693TIP3    H138638   2.495   0.168   8.532 -0.0402  0.4601  1.3273
 5693TIP3    H238639   2.405   0.052   8.496  0.3448  0.6858 -0.4932
 5694TIP3   OH238640   1.676   5.990   8.302 -0.0232 -0.1019 -0.1269
 5694TIP3    H138641   1.642   6.062   8.355  1.1533 -0.8622  1.7544
 5694TIP3    H238642   1.657   5.912   8.354  0.1642 -1.0036 -1.3777
 5695TIP3   OH238643   6.525   4.574   7.685  0.1077  0.1100  0.5449
 5695TIP3    H138644   6.595   4.533   7.736  0.1784  1.5177  1.6210
 5695TIP3    H238645   6.570   4.616   7.612  0.2758  0.1937  0.6961
 5696TIP3   OH238646   1.585   5.385   6.962  0.2663 -0.1259 -0.2225
 5696TIP3    H138647   1.657   5.388   7.026  1.5722 -0.1819 -1.6337
 5696TIP3    H238648   1.514   5.434   7.004  1.0198 -0.3040  1.3356
 5697TIP3   OH238649   1.315   5.059   0.501  0.1086  0.0580 -0.4321
 5697TIP3    H138650   1.246   5.060   0.435 -0.0511  0.7231 -0.2599
 5697TIP3    H238651   1.375   4.990   0.471  0.5659  1.0050 -1.8131
 5698TIP3   OH238652   6.080   1.979   0.544  0.2223  0.0359 -0.1808
 5698TIP3    H138653   6.074   1.972   0.639 -0.2988  1.9246 -0.0515
 5698TIP3    H238654   5.995   1.951   0.512  0.8227 -1.9148 -0.2277
 5699TIP3   OH238655   6.033   4.762   7.840 -0.4482  0.3510 -0.5396
 5699TIP3    H138656   6.058   4.853   7.851 -1.2130  0.5591 -0.4482
 5699TIP3    H238657   6.071   4.736   7.756 -1.2497  1.1279 -1.1605
 5700TIP3   OH238658   5.716   2.029   2.125  1.1677  0.1654  0.3949
 5700TIP3    H138659   5.772   2.050   2.050  1.3295 -2.8321 -0.4289
 5700TIP3    H238660   5.776   1.993   2.190  0.4767 -1.2479  0.2728
 5701TIP3   OH238661   0.811   2.859   2.341 -0.3484  0.0891  0.5914
 5701TIP3    H138662   0.800   2.946   2.379  0.5305  0.3892  0.1607
 5701TIP3    H238663   0.806   2.800   2.417  1.6443  0.6977  1.2444
 5702TIP3   OH238664   1.792   5.788   0.673  0.0868  0.2776 -0.3579
 5702TIP3    H138665   1.862   5.845   0.705 -1.1728  1.6619  0.0615
 5702TIP3    H238666   1.726   5.790   0.743 -0.4100 -0.9346 -0.7723
 5703TIP3   OH238667   5.949   5.391   7.215  0.8090  0.4327 -0.2516
 5703TIP3    H138668   5.879   5.326   7.212  1.0560  0.1931 -2.0797
 5703TIP3    H238669   5.906   5.470   7.247 -0.1343  0.0833 -0.6045
 5704TIP3   OH238670   0.120   4.903   0.192  0.7988 -0.8672 -0.0564
 5704TIP3    H138671   0.112   4.869   0.102  0.1878  0.7827 -0.6641
 5704TIP3    H238672   0.176   4.839   0.236  0.2400 -2.2951 -1.3015
 5705TIP3   OH238673   1.098   5.438   7.890 -0.1556  0.1601  0.3643
 5705TIP3    H138674   1.093   5.534   7.886  0.4659  0.1874  0.1149
 5705TIP3    H238675   1.127   5.412   7.803  1.4750 -0.1166  0.9618
 5706TIP3   OH238676   3.102   3.301   1.248  0.7037 -0.0975  0.3645
 5706TIP3    H138677   3.085   3.326   1.157 -0.2507  1.6823  0.9841
 5706TIP3    H238678   3.031   3.243   1.271  1.7753 -1.8128 -0.4455
 5707TIP3   OH238679   4.423   2.976   2.503  0.9432 -0.1489  0.4097
 5707TIP3    H138680   4.377   3.030   2.568 -0.4692 -0.9321  0.0988
 5707TIP3    H238681   4.417   3.026   2.422  0.6260 -0.2561  0.3669
 5708TIP3   OH238682   5.292   2.629   6.808 -0.3900  0.4349  0.0039
 5708TIP3    H138683   5.333   2.550   6.772 -0.1164  0.6517 -0.1657
 5708TIP3    H238684   5.221   2.596   6.863  0.0874  0.0483  0.4022
 5709TIP3   OH238685   6.704   2.433   8.560 -0.4861  0.7578  0.0894
 5709TIP3    H138686   6.742   2.517   8.585 -1.1968  1.9678 -2.5589
 5709TIP3    H238687   6.658   2.403   8.639 -0.3545  2.9050  1.0495
 5710TIP3   OH238688   4.260   0.845   1.984 -0.2350  0.6077  0.2954
 5710TIP3    H138689   4.191   0.906   2.011 -0.7944  0.4154 -0.6810
 5710TIP3    H238690   4.230   0.810   1.900 -0.4409 -1.8324  1.3185
 5711TIP3   OH238691   5.865   3.538   1.387  0.3198 -0.3481 -0.5021
 5711TIP3    H138692   5.957   3.534   1.414 -0.1297 -2.2932  1.0404
 5711TIP3    H238693   5.817   3.560   1.467 -0.6855 -1.2392 -0.8312
 5712TIP3   OH238694   4.609   3.444   6.906  0.2997 -0.1395  0.1049
 5712TIP3    H138695   4.579   3.422   6.995  1.6255  0.8826  0.8351
 5712TIP3    H238696   4.566   3.527   6.887 -0.1546 -0.4646 -0.3205
 5713TIP3   OH238697   2.148   0.824   2.073  0.2092 -0.1887  0.8798
 5713TIP3    H138698   2.143   0.863   2.160 -1.6173  1.5541  0.0651
 5713TIP3    H238699   2.065   0.777   2.063  0.0402  0.3185 -0.2145
 5714TIP3   OH238700   2.016   3.771   0.610  0.1386 -0.1019  0.0458
 5714TIP3    H138701   1.985   3.859   0.628 -2.4149 -0.6083 -1.3012
 5714TIP3    H238702   1.991   3.755   0.518  0.8606 -2.0728  0.1312
 5715TIP3   OH238703   6.720   0.718   8.339  0.7717  0.1797 -0.0337
 5715TIP3    H138704   6.678   0.743   8.421 -1.0389 -0.8255 -0.5960
 5715TIP3    H238705   6.755   0.630   8.356  2.2966  0.8017  0.2668
 5716TIP3   OH238706   0.643   3.422   1.657  0.2467 -0.5675 -0.4021
 5716TIP3    H138707   0.716   3.362   1.674  0.4279 -0.8688 -2.0641
 5716TIP3    H238708   0.589   3.376   1.593 -0.4646  0.3951 -0.5155
 5717TIP3   OH238709   5.500   4.108   0.161 -0.0615  0.0330  0.5359
 5717TIP3    H138710   5.569   4.174   0.156  0.2773 -0.2688  1.1585
 5717TIP3    H238711   5.421   4.154   0.133  0.0779  0.8491  1.4338
 5718TIP3   OH238712   1.277   0.763   6.278 -0.5600 -0.3934 -0.2361
 5718TIP3    H138713   1.265   0.682   6.228 -0.2759 -1.0504  0.7184
 5718TIP3    H238714   1.336   0.816   6.224  0.4699 -1.4623 -0.2184
 5719TIP3   OH238715   3.019   3.659   8.462 -0.6345  0.4127 -0.1843
 5719TIP3    H138716   2.979   3.608   8.392 -1.3984 -0.7381  1.0528
 5719TIP3    H238717   3.027   3.748   8.426 -1.1254 -0.1159 -1.6598
 5720TIP3   OH238718   4.373   1.268   0.385  0.0501 -0.0103 -0.8320
 5720TIP3    H138719   4.305   1.335   0.381 -2.4237 -2.3034 -0.0800
 5720TIP3    H238720   4.390   1.246   0.293 -1.6457 -0.7139 -1.0041
 5721TIP3   OH238721   5.197   4.601   1.675 -0.1433  0.1643  0.5359
 5721TIP3    H138722   5.199   4.542   1.751  0.6765  0.2987  0.6247
 5721TIP3    H238723   5.117   4.652   1.688 -0.0680  0.1161  1.2652
 5722TIP3   OH238724   4.993   4.839   1.313 -0.5585 -0.0954  0.4582
 5722TIP3    H138725   5.059   4.887   1.363  1.9199 -2.2046 -0.5661
 5722TIP3    H238726   5.021   4.748   1.318 -2.7090 -0.9175 -1.1353
 5723TIP3   OH238727   1.981   0.154   1.305  0.7695 -0.2337 -0.2622
 5723TIP3    H138728   1.958   0.153   1.398 -1.7876  0.2135 -0.8032
 5723TIP3    H238729   1.968   0.064   1.276 -1.1820  0.1652 -0.7261
 5724TIP3   OH238730   0.707   6.618   8.371  0.2512  0.0141  0.0859
 5724TIP3    H138731   0.759   6.603   8.292  0.1232  0.4465 -0.0796
 5724TIP3    H238732   0.699   6.531   8.411  2.0166  0.0817  0.6851
 5725TIP3   OH238733   0.631   4.027   2.476  0.3358 -0.0153  0.2263
 5725TIP3    H138734   0.665   4.104   2.431 -0.8772  0.9665  0.9254
 5725TIP3    H238735   0.557   4.060   2.528  2.3586 -0.8091  3.9261
 5726TIP3   OH238736   2.509   3.464   7.565 -0.2436 -0.0237  0.6440
 5726TIP3    H138737   2.536   3.390   7.510  0.2454 -1.5364  2.7688
 5726TIP3    H238738   2.414   3.460   7.566 -0.2428 -0.2076  0.1984
 5727TIP3   OH238739   2.835   1.829   8.044  0.0589  0.5166  0.1169
 5727TIP3    H138740   2.801   1.818   7.956  2.4698 -0.5905 -0.7651
 5727TIP3    H238741   2.871   1.917   8.045 -0.2113  0.6279  0.0862
 5728TIP3   OH238742   1.200   5.959   3.054  0.8632  0.1152  0.4310
 5728TIP3    H138743   1.169   6.048   3.034 -3.3337 -1.5292 -1.4377
 5728TIP3    H238744   1.257   5.937   2.981  0.7205  0.7423  0.1182
 5729TIP3   OH238745   0.178   5.625   0.574  0.4097  0.4647 -0.1317
 5729TIP3    H138746   0.207   5.543   0.535  0.3153  0.3625  0.0128
 5729TIP3    H238747   0.088   5.636   0.543 -0.0926 -0.2266  1.0118
 5730TIP3   OH238748   5.383   2.415   0.925  0.0290  0.9894  0.2555
 5730TIP3    H138749   5.438   2.488   0.897 -2.7652  2.9822 -0.5599
 5730TIP3    H238750   5.408   2.399   1.016  0.4616  3.2631  0.5871
 5731TIP3   OH238751   1.070   3.438   0.738 -0.2412  0.3080 -0.0707
 5731TIP3    H138752   1.088   3.515   0.792  0.8192  0.6964 -0.9526
 5731TIP3    H238753   0.976   3.443   0.719 -0.3326  0.9539  0.5163
 5732TIP3   OH238754   0.056   1.569   7.759  0.4906 -0.0164 -0.2535
 5732TIP3    H138755   0.050   1.663   7.741 -1.6321 -0.2636 -1.1762
 5732TIP3    H238756   0.118   1.537   7.694 -0.9037  0.3739 -1.8675
 5733TIP3   OH238757   2.512   3.094   1.518  0.6909 -0.3152  0.1873
 5733TIP3    H138758   2.574   3.040   1.470  2.2516  1.1523  0.4831
 5733TIP3    H238759   2.451   3.126   1.450  1.5470 -0.0499 -0.4739
 5734TIP3   OH238760   3.963   1.964   0.814  0.1332 -0.2168 -0.3621
 5734TIP3    H138761   3.876   1.935   0.784  0.3919 -0.5482 -0.8033
 5734TIP3    H238762   3.972   1.926   0.901 -1.0085  1.5020  0.5835
 5735TIP3   OH238763   3.182   2.644   0.156  0.1796 -0.4101  0.1518
 5735TIP3    H138764   3.204   2.736   0.141  2.3034 -0.8589  0.2367
 5735TIP3    H238765   3.246   2.614   0.220 -0.3876 -2.0122  0.0190
 5736TIP3   OH238766   2.687   6.761   6.422  0.2415 -0.7000 -0.2156
 5736TIP3    H138767   2.723   6.699   6.485 -2.0818 -1.1225  0.7918
 5736TIP3    H238768   2.604   6.788   6.460  0.7244  2.3350 -1.1093
 5737TIP3   OH238769   1.608   6.353   1.137 -0.0358 -0.3090  0.0068
 5737TIP3    H138770   1.562   6.279   1.177 -0.7739  1.4962  2.7058
 5737TIP3    H238771   1.674   6.378   1.201  0.7932  0.8580 -1.2355
 5738TIP3   OH238772   1.321   4.170   7.843 -0.0382  0.2111 -0.5119
 5738TIP3    H138773   1.363   4.093   7.879 -0.2174  0.5307  0.4136
 5738TIP3    H238774   1.231   4.143   7.825 -0.1100  0.2090 -0.1554
 5739TIP3   OH238775   4.287   1.124   6.785 -0.0231  0.6063 -1.1578
 5739TIP3    H138776   4.367   1.142   6.734  0.3683  0.6491 -0.5432
 5739TIP3    H238777   4.291   1.186   6.857 -0.3042  0.1929 -0.7844
 5740TIP3   OH238778   5.191   2.046   1.849  0.3439  0.4032  0.2854
 5740TIP3    H138779   5.194   2.119   1.910 -0.3016 -0.5395  1.4943
 5740TIP3    H238780   5.129   2.073   1.782 -0.0565  0.8773  0.8417
 5741TIP3   OH238781   1.561   1.815   1.102 -0.6613  0.2643  0.2460
 5741TIP3    H138782   1.506   1.758   1.049  0.3020 -0.7473  0.2894
 5741TIP3    H238783   1.611   1.755   1.158  1.9772  0.9139 -1.2003
 5742TIP3   OH238784   5.037   6.640   0.168  0.7655  0.1837 -0.1758
 5742TIP3    H138785   4.952   6.599   0.185  0.5089  0.3292 -1.0038
 5742TIP3    H238786   5.099   6.568   0.166  0.6097  0.0402  0.1305
 5743TIP3   OH238787   0.838   5.423   0.984  0.3043  0.6763  0.0845
 5743TIP3    H138788   0.908   5.480   1.016  1.2584 -1.3389  1.7973
 5743TIP3    H238789   0.871   5.388   0.901  0.4334  1.2554 -0.1139
 5744TIP3   OH238790   5.428   2.103   1.137 -0.3017 -0.5488 -0.7444
 5744TIP3    H138791   5.333   2.093   1.148 -0.4835  0.1437 -1.5251
 5744TIP3    H238792   5.441   2.198   1.134  0.1602 -0.6414 -2.6011
 5745TIP3   OH238793   1.483   1.650   6.810 -0.2012  0.5578  0.0268
 5745TIP3    H138794   1.518   1.572   6.765 -0.3782  1.4090 -1.6462
 5745TIP3    H238795   1.395   1.661   6.774  0.2968  2.2799 -0.7836
 5746TIP3   OH238796   2.030   0.146   2.629 -0.4970 -0.0839 -0.1151
 5746TIP3    H138797   2.010   0.223   2.576 -0.0528 -0.6994 -1.2045
 5746TIP3    H238798   1.963   0.082   2.605  0.9458 -1.1183 -1.5727
 5747TIP3   OH238799   3.305   1.860   0.882  0.5153  0.2046  0.5875
 5747TIP3    H138800   3.383   1.864   0.937  0.5639 -1.0007  0.6249
 5747TIP3    H238801   3.338   1.834   0.796  0.1989  0.0641  0.5088
 5748TIP3   OH238802   2.096   0.390   1.727  0.7924 -0.0668  0.5545
 5748TIP3    H138803   2.099   0.373   1.821  1.8548 -2.2192  0.1980
 5748TIP3    H238804   2.188   0.383   1.699  0.3022 -1.2996 -0.8927
 5749TIP3   OH238805   6.373   4.916   6.788  0.5178 -0.2463  0.2772
 5749TIP3    H138806   6.454   4.925   6.738  0.7149 -2.5190  0.0741
 5749TIP3    H238807   6.310   4.971   6.741  1.8861  1.4974  0.3951
 5750TIP3   OH238808   5.320   1.604   1.823 -0.0909  0.3662  0.5609
 5750TIP3    H138809   5.389   1.539   1.813  0.1785  0.4258  1.8765
 5750TIP3    H238810   5.242   1.562   1.787  0.7513  0.5892 -1.6399
 5751TIP3   OH238811   6.395   1.434   1.925 -0.0964  0.0633  0.0649
 5751TIP3    H138812   6.389   1.499   1.995 -0.8065 -0.6297  0.6437
 5751TIP3    H238813   6.490   1.425   1.910  0.0900 -0.2839  1.3891
 5752TIP3   OH238814   1.961   3.198   0.205  0.3095  0.2838  0.3145
 5752TIP3    H138815   1.874   3.237   0.202  0.7069  1.3902  1.7603
 5752TIP3    H238816   1.976   3.164   0.117 -0.8267  1.7433 -0.4874
 5753TIP3   OH238817   5.837   1.760   7.967  0.4069  0.1579 -0.0354
 5753TIP3    H138818   5.769   1.782   7.903 -0.9195 -0.5363  1.0593
 5753TIP3    H238819   5.811   1.674   8.001  0.6637  0.7784  1.8965
 5754TIP3   OH238820   6.195   2.606   7.602 -0.5009 -0.0579 -0.3624
 5754TIP3    H138821   6.253   2.596   7.526  0.2853  0.0905  0.2014
 5754TIP3    H238822   6.107   2.611   7.565  0.0099  2.0750 -1.4454
 5755TIP3   OH238823   3.439   5.479   7.127  0.4776 -0.3162  0.0764
 5755TIP3    H138824   3.350   5.467   7.161 -0.2313  1.8579 -0.8268
 5755TIP3    H238825   3.451   5.408   7.065 -1.0196 -0.1150 -0.4811
 5756TIP3   OH238826   0.914   2.053   1.785  0.4493 -0.1223 -0.3471
 5756TIP3    H138827   0.934   2.051   1.879  0.6638  0.1153 -0.3856
 5756TIP3    H238828   0.975   1.989   1.747 -0.5299 -1.1934 -0.1693
 5757TIP3   OH238829   5.976   6.794   7.414 -0.2044 -0.0211  0.2692
 5757TIP3    H138830   5.997   6.708   7.451  1.5291  0.0990 -0.3266
 5757TIP3    H238831   6.017   6.857   7.473 -1.1516  0.4009  0.5003
 5758TIP3   OH238832   0.321   4.959   1.687  0.2725 -0.2021 -0.0628
 5758TIP3    H138833   0.348   4.871   1.713  0.8310  0.1563  0.5998
 5758TIP3    H238834   0.316   5.008   1.769 -0.6967  0.2103 -0.3624
 5759TIP3   OH238835   5.991   0.327   0.007  0.0811  0.0445  0.4207
 5759TIP3    H138836   6.065   0.298   0.060 -0.9050 -2.1079  0.7343
 5759TIP3    H238837   5.926   0.257   0.017 -0.6597  0.1751 -2.6157
 5760TIP3   OH238838   5.970   3.874   0.716 -0.2512 -0.1567 -0.0952
 5760TIP3    H138839   5.910   3.937   0.756 -0.3833 -1.3083  1.6339
 5760TIP3    H238840   6.042   3.866   0.779  1.5785  0.8961 -1.9372
 5761TIP3   OH238841   4.389   0.812   8.109  0.7289 -0.1585 -0.4326
 5761TIP3    H138842   4.311   0.840   8.060 -0.4795 -0.3726  1.2736
 5761TIP3    H238843   4.419   0.892   8.153  1.4047 -0.1114 -0.9628
 5762TIP3   OH238844   1.722   2.055   1.464 -0.0019  0.7803  0.0916
 5762TIP3    H138845   1.783   2.113   1.508  0.7110  0.6952 -0.7576
 5762TIP3    H238846   1.775   1.981   1.435 -0.6669  0.2983  0.0862
 5763TIP3   OH238847   6.534   4.421   0.348  0.7931 -0.0526  0.1745
 5763TIP3    H138848   6.496   4.350   0.296 -3.0182  0.7617  1.4927
 5763TIP3    H238849   6.570   4.482   0.283 -0.7619 -0.6603 -1.3371
 5764TIP3   OH238850   4.339   3.195   2.656 -0.3188  0.3754 -0.5809
 5764TIP3    H138851   4.257   3.243   2.668  0.0823  0.8259  0.5526
 5764TIP3    H238852   4.405   3.250   2.698  0.6639  0.2585 -1.9055
 5765TIP3   OH238853   6.752   1.835   6.844  0.6290 -0.3536 -0.1020
 5765TIP3    H138854   6.662   1.809   6.825  0.5772  0.1628 -0.6186
 5765TIP3    H238855   6.772   1.902   6.778  1.7633 -1.2244 -0.6672
 5766TIP3   OH238856   1.625   0.658   2.128  0.2136  0.0216 -0.2361
 5766TIP3    H138857   1.661   0.662   2.040 -0.3044  1.8925 -0.4168
 5766TIP3    H238858   1.549   0.600   2.121  1.7169 -2.0460 -0.3603
 5767TIP3   OH238859   4.472   6.603   8.424  0.3182 -0.2590  0.2511
 5767TIP3    H138860   4.468   6.651   8.341  0.8870  0.1888  0.4714
 5767TIP3    H238861   4.408   6.647   8.480  1.5951  0.9747  0.8061
 5768TIP3   OH238862   5.655   4.525   2.360  0.5716  0.3015 -0.2807
 5768TIP3    H138863   5.746   4.503   2.339  1.9523  0.8430  4.1856
 5768TIP3    H238864   5.655   4.620   2.370 -0.7111  0.3866 -0.8495
 5769TIP3   OH238865   6.724   0.220   7.804  0.2420  0.0525  0.0068
 5769TIP3    H138866   6.783   0.265   7.864  1.8611 -1.4013 -0.4105
 5769TIP3    H238867   6.637   0.237   7.838  1.0578  0.0825  2.2065
 5770TIP3   OH238868   3.644   1.305   8.047 -0.3083  0.1562 -0.2114
 5770TIP3    H138869   3.578   1.372   8.027  1.0402  2.1691  1.5619
 5770TIP3    H238870   3.618   1.229   7.995 -2.1105  1.9373 -2.1170
 5771TIP3   OH238871   2.972   5.696   1.574 -0.0193 -0.4015 -0.1260
 5771TIP3    H138872   2.945   5.747   1.497  1.2128  1.6216  0.6936
 5771TIP3    H238873   2.895   5.643   1.596 -0.7641 -0.2181 -2.0810
 5772TIP3   OH238874   3.469   2.915   8.440 -0.4616  0.8163 -0.0624
 5772TIP3    H138875   3.554   2.900   8.481 -0.4586  2.0499  0.4360
 5772TIP3    H238876   3.415   2.951   8.510 -1.0556  1.0956 -0.6527
 5773TIP3   OH238877   2.176   1.860   1.486  0.4112  0.1846 -0.6225
 5773TIP3    H138878   2.235   1.822   1.551  0.5442  3.3584  1.2906
 5773TIP3    H238879   2.090   1.824   1.508  0.7515 -0.1741  0.1658
 5774TIP3   OH238880   5.722   6.131   1.246 -0.3878 -0.1679  0.0103
 5774TIP3    H138881   5.795   6.193   1.244 -0.2177 -0.3828 -0.9053
 5774TIP3    H238882   5.689   6.130   1.156 -1.2600 -0.3843  0.3257
 5775TIP3   OH238883   0.732   5.024   2.024 -0.5966  0.3354  0.9733
 5775TIP3    H138884   0.685   4.944   2.049 -0.3225  0.0962  0.7351
 5775TIP3    H238885   0.824   5.002   2.038 -0.3230 -0.1851 -1.2385
 5776TIP3   OH238886   3.581   1.438   1.046  0.0185 -0.0453 -0.3069
 5776TIP3    H138887   3.537   1.489   1.113  0.7437 -0.6885  0.6862
 5776TIP3    H238888   3.512   1.415   0.984 -0.7855  0.0266  0.5481
 5777TIP3   OH238889   4.370   5.800   1.966 -0.2725 -0.6158  0.2972
 5777TIP3    H138890   4.458   5.802   1.930 -0.1841  0.9436  0.5438
 5777TIP3    H238891   4.318   5.856   1.908 -0.7908 -0.4362  0.9175
 5778TIP3   OH238892   4.630   3.940   0.097 -1.1256 -0.5082 -0.5302
 5778TIP3    H138893   4.697   3.915   0.033  0.1899 -1.3782  1.1043
 5778TIP3    H238894   4.639   4.034   0.106 -0.0200 -0.6369 -0.2289
 5779TIP3   OH238895   1.177   6.532   8.142 -0.3936 -0.3503  0.8345
 5779TIP3    H138896   1.120   6.565   8.211 -0.7031 -0.8928  0.8389
 5779TIP3    H238897   1.217   6.611   8.105  0.6691 -0.1268  2.3922
 5780TIP3   OH238898   6.586   3.435   2.513 -0.0640  0.4603  0.4241
 5780TIP3    H138899   6.678   3.409   2.509 -0.5426 -1.2819 -1.1603
 5780TIP3    H238900   6.566   3.442   2.606  2.2407  3.3642  0.8287
 5781TIP3   OH238901   4.981   3.261   0.310  0.4472 -0.0275 -0.0366
 5781TIP3    H138902   4.923   3.224   0.376  0.5738  1.3722  0.9086
 5781TIP3    H238903   5.017   3.185   0.264 -2.1454 -0.9327 -0.7173
 5782TIP3   OH238904   1.257   4.039   6.730  0.8935 -0.1994  0.0500
 5782TIP3    H138905   1.200   3.962   6.731  0.4894  0.0968  1.0551
 5782TIP3    H238906   1.296   4.039   6.642 -0.4286 -0.5659 -0.5589
 5783TIP3   OH238907   4.249   2.078   2.318  0.4733  0.4276 -0.3623
 5783TIP3    H138908   4.288   2.056   2.403  0.3581 -1.2049 -0.6977
 5783TIP3    H238909   4.155   2.081   2.336  0.4259 -0.1928 -0.4635
 5784TIP3   OH238910   3.773   3.568   2.318  0.0388 -0.6467 -0.1377
 5784TIP3    H138911   3.855   3.588   2.363 -0.2253  1.1240 -0.3930
 5784TIP3    H238912   3.711   3.634   2.349 -0.4880 -0.1293 -2.1402
 5785TIP3   OH238913   6.628   1.302   6.881 -0.4461  0.1489 -0.1896
 5785TIP3    H138914   6.711   1.255   6.877 -1.2282 -1.3725  0.5448
 5785TIP3    H238915   6.568   1.241   6.924 -1.6843  1.6022  0.2269
 5786TIP3   OH238916   3.051   2.252   0.102 -0.1834 -0.7206  0.1497
 5786TIP3    H138917   3.027   2.300   0.182  1.8189  0.0677  0.3376
 5786TIP3    H238918   3.115   2.309   0.059  1.2030 -2.5742 -0.3549
 5787TIP3   OH238919   3.032   4.965   8.287 -0.0080 -0.1734 -0.5844
 5787TIP3    H138920   2.956   4.908   8.279 -1.4503  1.4517  0.7466
 5787TIP3    H238921   3.042   4.978   8.381  0.6453  1.2636 -0.8343
 5788TIP3   OH238922   2.706   0.593   1.548  0.4229  0.0959 -0.1584
 5788TIP3    H138923   2.713   0.506   1.587  0.1317 -0.0508 -0.4243
 5788TIP3    H238924   2.616   0.621   1.568 -0.0806 -0.4147 -1.5924
 5789TIP3   OH238925   1.783   6.168   1.936 -0.3722  0.2854  0.3584
 5789TIP3    H138926   1.849   6.229   1.969  1.5382 -1.2156 -0.4962
 5789TIP3    H238927   1.781   6.097   2.000  1.8682 -1.6348 -1.5208
 5790TIP3   OH238928   3.647   4.566   1.537 -0.2258 -0.3660 -0.2960
 5790TIP3    H138929   3.662   4.571   1.632  2.1469 -0.2213 -0.6194
 5790TIP3    H238930   3.721   4.516   1.504 -0.6475  0.1848 -2.1786
 5791TIP3   OH238931   0.264   4.398   0.809  0.1799  0.1619  0.2560
 5791TIP3    H138932   0.251   4.347   0.729  0.3784 -1.2631  1.0908
 5791TIP3    H238933   0.338   4.456   0.789  0.1014 -0.0362 -0.6439
 5792TIP3   OH238934   1.811   2.524   8.633  0.1219 -0.3708 -1.2237
 5792TIP3    H138935   1.752   2.492   8.566  0.9432  2.4948 -3.5233
 5792TIP3    H238936   1.761   2.591   8.679  0.2928 -0.7628 -0.4459
 5793TIP3   OH238937   0.616   5.140   7.512  0.1069  0.2474  0.0017
 5793TIP3    H138938   0.640   5.066   7.456 -1.6025  0.7098 -1.4482
 5793TIP3    H238939   0.576   5.203   7.452  0.2968  1.7772  1.4205
 5794TIP3   OH238940   6.594   4.715   7.288 -0.0987  0.3223  0.2230
 5794TIP3    H138941   6.498   4.723   7.295 -0.1398 -0.8952  1.5132
 5794TIP3    H238942   6.607   4.628   7.250  0.5114  0.6902 -0.4325
 5795TIP3   OH238943   6.064   1.605   0.666  0.6094  0.2127  0.4068
 5795TIP3    H138944   6.007   1.624   0.592  0.7138  1.7975  0.6806
 5795TIP3    H238945   6.011   1.629   0.743  0.1498 -2.3028  0.9408
 5796TIP3   OH238946   4.541   0.611   2.101 -0.1024 -0.0700 -0.5702
 5796TIP3    H138947   4.495   0.621   2.185 -0.1469  0.1747 -0.6238
 5796TIP3    H238948   4.471   0.598   2.037 -0.0691 -0.2440 -0.5705
 5797TIP3   OH238949   2.296   5.345   6.797  0.4515 -0.2275 -0.2738
 5797TIP3    H138950   2.319   5.437   6.812 -0.2115 -0.1316  0.1503
 5797TIP3    H238951   2.332   5.326   6.710  0.8128  0.3554 -0.2590
 5798TIP3   OH238952   5.906   5.146   7.406  0.1137 -0.4495  0.2558
 5798TIP3    H138953   5.968   5.217   7.423  0.2605 -0.6134  0.4089
 5798TIP3    H238954   5.820   5.189   7.406  0.1753 -0.3196  0.6538
 5799TIP3   OH238955   2.995   3.923   8.416  0.1255  0.0291 -0.3922
 5799TIP3    H138956   2.925   3.954   8.473 -1.1621 -2.5038 -0.4504
 5799TIP3    H238957   2.984   3.971   8.335 -0.8507  0.4512 -0.0163
 5800TIP3   OH238958   0.022   4.676   2.146  0.5425 -0.3783 -0.4858
 5800TIP3    H138959   0.047   4.627   2.225 -0.0075 -1.4454 -0.9534
 5800TIP3    H238960  -0.073   4.689   2.156  0.7562  1.0815 -0.1194
 5801TIP3   OH238961   6.420   1.521   7.951 -0.1288 -0.2480 -0.3853
 5801TIP3    H138962   6.500   1.564   7.981  0.6797 -1.4410 -0.7860
 5801TIP3    H238963   6.388   1.474   8.028 -1.8106  2.1048  0.4877
 5802TIP3   OH238964   3.815   0.959   0.442  0.3387 -0.5499 -0.7820
 5802TIP3    H138965   3.762   0.907   0.502  0.5814  0.2266  0.1319
 5802TIP3    H238966   3.905   0.951   0.476  0.0998  2.2667  0.7870
 5803TIP3   OH238967   3.105   2.619   0.975 -0.0913 -0.3463  0.6839
 5803TIP3    H138968   3.162   2.687   0.940 -1.5827  0.9979  0.7322
 5803TIP3    H238969   3.159   2.573   1.039  2.1438 -1.7233 -2.0004
 5804TIP3   OH238970   2.361   2.028   8.513 -0.0996  0.1502  0.2050
 5804TIP3    H138971   2.453   2.004   8.509  0.4573  2.2292 -2.3825
 5804TIP3    H238972   2.349   2.063   8.602  1.5538 -0.2811  0.6325
 5805TIP3   OH238973   3.492   0.927   8.171 -0.7954 -0.4420 -0.1612
 5805TIP3    H138974   3.454   1.014   8.179 -1.1773 -0.7857  2.8891
 5805TIP3    H238975   3.580   0.936   8.209 -1.2581 -1.5741  1.2741
 5806TIP3   OH238976   3.196   0.559   1.842 -0.0862  0.2918  0.0468
 5806TIP3    H138977   3.252   0.534   1.916  0.9247 -0.5313 -0.9638
 5806TIP3    H238978   3.248   0.624   1.794 -0.3002  0.0578 -0.5030
 5807TIP3   OH238979   4.409   2.544   1.626  0.0950  0.6623 -0.0445
 5807TIP3    H138980   4.381   2.539   1.535  0.5339  1.2276 -0.2190
 5807TIP3    H238981   4.364   2.622   1.661 -1.1545 -0.3192  0.6249
 5808TIP3   OH238982   0.293   0.636   1.836 -0.3480 -0.3385 -0.3155
 5808TIP3    H138983   0.287   0.724   1.873 -0.8105 -0.2263 -0.6560
 5808TIP3    H238984   0.387   0.623   1.820 -0.2800  0.0850 -0.2585
 5809TIP3   OH238985   0.140   2.071   1.019 -0.1086 -0.9994  0.1282
 5809TIP3    H138986   0.228   2.100   0.997  0.0727 -0.7251  1.1503
 5809TIP3    H238987   0.147   2.037   1.108 -1.2658  0.1779  0.7117
 5810TIP3   OH238988   1.602   6.109   0.600 -0.3327 -0.0377 -0.4180
 5810TIP3    H138989   1.530   6.145   0.549 -1.3391 -1.3138  0.0251
 5810TIP3    H238990   1.616   6.022   0.564 -0.1042 -0.4180  0.5464
 5811TIP3   OH238991   1.191   3.018   1.479  0.0593 -0.3673  0.0400
 5811TIP3    H138992   1.107   3.056   1.504  0.3289 -0.1651  0.6699
 5811TIP3    H238993   1.213   3.062   1.397 -0.3018 -0.1916  0.0333
 5812TIP3   OH238994   1.625   0.297   7.115 -0.3612 -0.0946 -0.2564
 5812TIP3    H138995   1.618   0.285   7.021 -0.8482 -0.6209 -0.1639
 5812TIP3    H238996   1.717   0.317   7.131 -0.2194 -0.3067 -0.8109
 5813TIP3   OH238997   6.368   1.347   2.730  0.3291  0.4166 -0.2047
 5813TIP3    H138998   6.374   1.328   2.824  1.0493  1.8248  0.0716
 5813TIP3    H238999   6.458   1.341   2.699  0.1150  0.1264 -0.7700
 5814TIP3   OH239000   3.997   5.464   7.803  0.3342  0.3015 -0.6972
 5814TIP3    H139001   4.032   5.551   7.823 -0.9930  0.7575 -0.2545
 5814TIP3    H239002   4.038   5.440   7.720  1.2510  1.0422 -0.4773
 5815TIP3   OH239003   3.825   0.492   7.339 -0.5053 -0.3808 -0.0868
 5815TIP3    H139004   3.822   0.403   7.305 -1.0859 -0.0657 -0.9060
 5815TIP3    H239005   3.765   0.541   7.282 -1.7739  0.1102  1.5896
 5816TIP3   OH239006   1.326   4.629   0.497  0.2553 -0.3715 -0.2276
 5816TIP3    H139007   1.303   4.707   0.446 -0.9291 -0.5365  0.0310
 5816TIP3    H239008   1.402   4.593   0.452  2.5534  2.3739  1.1196
 5817TIP3   OH239009   2.878   1.192   2.516 -0.4414  0.2910 -0.0457
 5817TIP3    H139010   2.784   1.207   2.526 -0.4395  1.3199 -1.2493
 5817TIP3    H239011   2.886   1.140   2.437 -0.0730 -1.2962  0.9995
 5818TIP3   OH239012   5.019   6.058   2.839 -0.3914  0.1007  0.4587
 5818TIP3    H139013   4.941   6.004   2.847 -0.6384  0.1885 -1.0567
 5818TIP3    H239014   4.987   6.148   2.849 -0.9664  0.3300 -2.4359
 5819TIP3   OH239015   2.232   3.747   6.897 -0.4056  0.5840 -0.5184
 5819TIP3    H139016   2.204   3.657   6.881 -1.0775  0.4274  1.2190
 5819TIP3    H239017   2.327   3.746   6.886 -0.6653  0.3588 -3.3347
 5820TIP3   OH239018   5.076   1.170   1.333 -0.2066  0.1331  0.2429
 5820TIP3    H139019   5.084   1.076   1.319 -0.1841 -0.1367  1.8496
 5820TIP3    H239020   5.163   1.197   1.365 -0.1276  0.7524 -0.4796
 5821TIP3   OH239021   3.518   4.329   1.891  0.3249  0.3934  0.6088
 5821TIP3    H139022   3.468   4.292   1.963 -0.0454 -0.5435 -0.0958
 5821TIP3    H239023   3.475   4.295   1.812  0.7366  1.3570 -0.0559
 5822TIP3   OH239024   0.871   2.242   0.234  0.3193  0.4208 -0.4889
 5822TIP3    H139025   0.862   2.157   0.278  2.9597  1.5491  2.6352
 5822TIP3    H239026   0.924   2.223   0.156 -0.3841 -0.9573 -0.6685
 5823TIP3   OH239027   6.137   3.013   6.717 -0.1400 -0.6599 -0.0134
 5823TIP3    H139028   6.207   3.028   6.779 -1.5562  0.1362  1.4594
 5823TIP3    H239029   6.065   2.978   6.770 -0.7927 -1.7239 -1.5172
 5824TIP3   OH239030   0.480   1.445   1.130  0.0758 -0.5077 -0.4216
 5824TIP3    H139031   0.573   1.421   1.142  0.2201 -0.1356 -0.7957
 5824TIP3    H239032   0.475   1.536   1.160  0.1566 -0.0103 -1.8855
 5825TIP3   OH239033   1.571   4.942   8.382 -0.1352  0.0528 -0.1146
 5825TIP3    H139034   1.529   4.975   8.303  0.1881 -1.0939 -0.8027
 5825TIP3    H239035   1.621   4.866   8.351  0.2976 -0.1823  1.1350
 5826TIP3   OH239036   2.646   6.496   7.132  0.3519  0.0555 -0.3971
 5826TIP3    H139037   2.684   6.520   7.217  0.4329 -0.6101 -0.2412
 5826TIP3    H239038   2.572   6.440   7.154  1.7034 -2.0183 -0.7961
 5827TIP3   OH239039   1.689   0.252   8.322 -0.6830 -0.3262  0.2914
 5827TIP3    H139040   1.707   0.194   8.248  0.9344  0.3679  0.1001
 5827TIP3    H239041   1.594   0.248   8.333 -0.8427 -1.2352 -1.1671
 5828TIP3   OH239042   3.191   4.612   1.888 -0.5891 -0.1844 -0.3911
 5828TIP3    H139043   3.164   4.677   1.954  0.0996 -1.7835  1.5360
 5828TIP3    H239044   3.285   4.625   1.878 -0.4542 -0.8390 -0.0264
 5829TIP3   OH239045   5.619   0.402   1.244  0.0668 -0.3851  0.0421
 5829TIP3    H139046   5.689   0.445   1.195 -0.6022  0.7415  0.0269
 5829TIP3    H239047   5.636   0.308   1.233  0.2504 -0.1742 -1.9018
 5830TIP3   OH239048   0.712   0.667   7.052 -0.5328  0.1277  0.1762
 5830TIP3    H139049   0.702   0.581   7.093 -2.6376 -0.2808 -1.0862
 5830TIP3    H239050   0.753   0.649   6.968  1.4643  0.7056  0.9587
 5831TIP3   OH239051   4.385   6.517   2.127  0.2362  0.0838 -0.3669
 5831TIP3    H139052   4.301   6.518   2.082 -0.3218  2.3119  0.5881
 5831TIP3    H239053   4.450   6.529   2.058 -0.4112  0.6561 -0.8890
 5832TIP3   OH239054   4.136   1.419   0.401 -0.3070  0.3457 -0.1904
 5832TIP3    H139055   4.049   1.456   0.415 -0.2757  0.8916 -1.3486
 5832TIP3    H239056   4.141   1.405   0.307  1.5118  2.0181 -0.4128
 5833TIP3   OH239057   2.599   1.094   1.488 -0.0252 -0.2719  0.2397
 5833TIP3    H139058   2.514   1.074   1.529 -1.2203  1.6435 -1.1685
 5833TIP3    H239059   2.588   1.066   1.397  1.9606 -2.7607  0.6541
 5834TIP3   OH239060   5.904   4.399   2.176  0.3924  0.7781 -0.2583
 5834TIP3    H139061   5.944   4.312   2.179  1.0935  1.1115  0.4378
 5834TIP3    H239062   5.948   4.443   2.103 -0.5545  0.2884 -1.1563
 5835TIP3   OH239063   0.541   4.796   3.170  0.6540  0.3239 -0.2536
 5835TIP3    H139064   0.496   4.815   3.088  1.5391  1.2722 -0.5373
 5835TIP3    H239065   0.475   4.752   3.224 -0.0507  0.0386 -1.3167
 5836TIP3   OH239066   4.485   0.969   7.232 -0.0632  0.4114  0.0485
 5836TIP3    H139067   4.539   0.984   7.310 -0.1457 -1.8996  0.6209
 5836TIP3    H239068   4.526   0.894   7.189 -1.1428  0.4572 -1.1139
 5837TIP3   OH239069   0.233   3.931   6.682 -0.0139 -0.6190  0.3492
 5837TIP3    H139070   0.299   3.892   6.741 -0.0867 -1.1334  0.0954
 5837TIP3    H239071   0.149   3.904   6.720 -0.0633 -2.2074 -0.7873
 5838TIP3   OH239072   2.805   0.968   6.816 -0.5030 -0.0621  0.1694
 5838TIP3    H139073   2.839   1.045   6.862 -0.9219 -0.8210  1.8213
 5838TIP3    H239074   2.883   0.914   6.801  0.0209  1.1979 -2.1991
 5839TIP3   OH239075   5.382   3.796   0.199 -0.0271  0.3061  0.1416
 5839TIP3    H139076   5.326   3.853   0.146 -2.9052 -1.0534  1.5015
 5839TIP3    H239077   5.461   3.784   0.146 -0.9577  2.3756 -1.8859
 5840TIP3   OH239078   1.381   0.039   1.261  0.0479 -0.8109  0.3027
 5840TIP3    H139079   1.346   0.011   1.346 -1.3256 -0.4820 -0.1221
 5840TIP3    H239080   1.454   0.097   1.282  2.2917 -3.7417  1.2213
 5841TIP3   OH239081   1.263   4.088   2.567  0.2517  0.4890 -0.3959
 5841TIP3    H139082   1.356   4.072   2.550  0.5782  2.5419 -0.9017
 5841TIP3    H239083   1.246   4.046   2.651  1.6751  0.1768 -0.2375
 5842TIP3   OH239084   6.075   5.136   8.096  0.1693  0.0845  0.2153
 5842TIP3    H139085   6.098   5.225   8.067  2.1956 -0.7575 -0.9828
 5842TIP3    H239086   6.149   5.109   8.151  0.3277 -1.4092 -0.6882
 5843TIP3   OH239087   3.578   2.216   0.946 -0.7000 -0.5522  0.1251
 5843TIP3    H139088   3.661   2.210   0.995  0.5123  2.0006 -1.4124
 5843TIP3    H239089   3.513   2.236   1.013  0.3109 -0.4623  1.1190
 5844TIP3   OH239090   6.306   5.492   8.491 -0.1948 -0.1399  0.2858
 5844TIP3    H139091   6.379   5.505   8.431 -0.4390 -2.7303 -0.6749
 5844TIP3    H239092   6.347   5.463   8.573 -0.0468  0.6318  0.4965
 5845TIP3   OH239093   3.840   5.364   1.209  0.2797 -0.6367  0.3433
 5845TIP3    H139094   3.806   5.277   1.231 -1.6821  0.0703  0.2098
 5845TIP3    H239095   3.854   5.406   1.294 -2.2766  0.1884  0.4322
 5846TIP3   OH239096   6.529   4.171   8.193  0.3004 -0.0316  0.1913
 5846TIP3    H139097   6.501   4.211   8.275 -2.8887 -1.4000 -0.0931
 5846TIP3    H239098   6.517   4.240   8.128 -1.8976 -0.3503  0.2020
 5847TIP3   OH239099   6.130   4.685   1.590  0.2570  0.1586  0.4501
 5847TIP3    H139100   6.138   4.607   1.535  0.5824  1.1328 -0.9579
 5847TIP3    H239101   6.220   4.713   1.605  0.1429  0.2661  0.9414
 5848TIP3   OH239102   6.585   5.039   0.927  0.6541 -0.6704 -0.4197
 5848TIP3    H139103   6.630   5.088   0.858  0.2934 -2.2321 -1.8357
 5848TIP3    H239104   6.498   5.020   0.890 -0.0247 -0.4387  0.9992
 5849TIP3   OH239105   3.220   5.076   0.341  0.0910 -0.2167  0.1887
 5849TIP3    H139106   3.259   5.141   0.284 -0.2099 -0.4816 -0.3205
 5849TIP3    H239107   3.131   5.064   0.309 -0.3767  0.2608  1.2456
 5850TIP3   OH239108   3.217   5.733   0.910  0.4987  0.2860  0.3461
 5850TIP3    H139109   3.213   5.705   0.818 -0.8044  0.1375  0.4360
 5850TIP3    H239110   3.291   5.685   0.946  0.6737 -0.0858 -0.4790
 5851TIP3   OH239111   0.355   0.727   6.962 -0.2540 -0.0003 -0.4745
 5851TIP3    H139112   0.287   0.749   6.899 -0.0437 -0.8957 -1.0386
 5851TIP3    H239113   0.416   0.672   6.913  0.7038  0.5081  0.1091
 5852TIP3   OH239114   1.434   2.577   1.734 -1.1302  0.1242  0.4910
 5852TIP3    H139115   1.427   2.526   1.653 -0.4628 -1.5371  1.4144
 5852TIP3    H239116   1.356   2.633   1.734 -3.4552 -2.8277  0.6431
 5853TIP3   OH239117   6.210   2.038   8.084  0.2613 -0.3149 -0.1410
 5853TIP3    H139118   6.212   2.133   8.095 -1.2256 -0.3759  0.8727
 5853TIP3    H239119   6.303   2.013   8.083  0.7819  1.3176 -2.6237
 5854TIP3   OH239120   5.883   6.462   0.289 -0.6043 -0.5498  0.2377
 5854TIP3    H139121   5.874   6.536   0.348 -0.7288  0.4593 -0.9966
 5854TIP3    H239122   5.977   6.454   0.275 -0.6202 -0.2133 -0.1002
 5855TIP3   OH239123   3.521   2.852   7.775  0.0202  0.2089  0.6814
 5855TIP3    H139124   3.560   2.815   7.696  0.7234  0.5070  0.8839
 5855TIP3    H239125   3.595   2.886   7.825 -0.5683  1.7097  0.6001
 5856TIP3   OH239126   5.846   2.549   0.342  0.1836  0.1475 -0.7295
 5856TIP3    H139127   5.868   2.515   0.429 -3.9911 -0.1951  0.3703
 5856TIP3    H239128   5.900   2.627   0.333  1.0653 -0.0197  1.9989
 5857TIP3   OH239129   1.973   0.668   1.765 -0.0211 -0.0709  0.0123
 5857TIP3    H139130   2.027   0.595   1.735  1.1826  0.7633  0.0913
 5857TIP3    H239131   1.972   0.660   1.861  0.0313 -0.0449  0.0152
 5858TIP3   OH239132   1.308   0.727   0.278  0.3874  0.2380 -0.0875
 5858TIP3    H139133   1.226   0.726   0.328 -0.3535 -1.4493 -1.2454
 5858TIP3    H239134   1.370   0.679   0.332 -0.3941 -1.5340 -0.6898
 5859TIP3   OH239135   3.800   0.716   8.150 -0.1584  0.2229 -0.0636
 5859TIP3    H139136   3.717   0.674   8.127 -0.3564 -0.5822  1.9508
 5859TIP3    H239137   3.864   0.645   8.146 -0.7147 -0.9096  4.7319
 5860TIP3   OH239138   3.932   0.373   3.040 -0.0794  0.1022  0.0400
 5860TIP3    H139139   3.877   0.451   3.028  2.1248  1.8783  0.7781
 5860TIP3    H239140   3.896   0.309   2.978 -1.5610  1.9112 -1.0940
 5861TIP3   OH239141   2.299   2.248   1.938 -0.6551 -0.0554 -0.0780
 5861TIP3    H139142   2.239   2.235   2.012 -0.5161  0.4769  0.1351
 5861TIP3    H239143   2.279   2.336   1.906 -0.2050  0.0042 -0.2039
 5862TIP3   OH239144   5.140   0.413   0.594 -0.0105 -0.5558  0.0192
 5862TIP3    H139145   5.092   0.435   0.514 -0.6329  0.2968  0.6145
 5862TIP3    H239146   5.123   0.319   0.607 -1.0949 -0.3755 -0.0600
 5863TIP3   OH239147   5.236   3.307   7.233  0.4110  0.0187 -0.1241
 5863TIP3    H139148   5.154   3.335   7.192 -0.3557 -1.0006  0.6421
 5863TIP3    H239149   5.301   3.370   7.203 -1.4616  3.7841  2.7856
 5864TIP3   OH239150   1.548   4.801   6.802 -0.3506  0.7559  0.3033
 5864TIP3    H139151   1.460   4.807   6.766 -0.0831  1.4613 -0.2658
 5864TIP3    H239152   1.580   4.892   6.802  0.7292  0.3944 -0.4419
 5865TIP3   OH239153   0.348   3.162   6.833  0.4200 -0.1595 -0.2401
 5865TIP3    H139154   0.308   3.075   6.841  1.3473 -0.5286  0.7509
 5865TIP3    H239155   0.370   3.170   6.741  2.3333 -1.9499 -0.0278
 5866TIP3   OH239156   4.380   5.981   8.487 -0.0603  0.8384  0.3699
 5866TIP3    H139157   4.469   5.952   8.505 -0.1540  1.3929  1.8726
 5866TIP3    H239158   4.390   6.053   8.425  0.4158 -0.0837 -0.6504
 5867TIP3   OH239159   3.871   4.325   2.313 -0.1883  0.2430  0.2607
 5867TIP3    H139160   3.778   4.340   2.294 -0.1277  0.5718  0.2236
 5867TIP3    H239161   3.895   4.394   2.375  0.1728  0.4996 -0.1592
 5868TIP3   OH239162   1.808   2.402   2.165  0.5766  0.8294 -0.4239
 5868TIP3    H139163   1.848   2.481   2.202 -0.5709  1.0071  0.5034
 5868TIP3    H239164   1.808   2.418   2.070  0.7965  1.7460 -0.2844
 5869TIP3   OH239165   5.603   2.841   0.379  0.0388 -0.3240  0.3868
 5869TIP3    H139166   5.657   2.908   0.337 -0.9367  0.0899 -0.2474
 5869TIP3    H239167   5.513   2.863   0.354 -0.3095 -1.8770  0.1361
 5870TIP3   OH239168   2.535   2.222   2.529  0.1389 -0.4793  0.2209
 5870TIP3    H139169   2.527   2.148   2.588  1.9277  1.5315  3.2574
 5870TIP3    H239170   2.609   2.201   2.472  0.4503 -1.1587  0.8693
 5871TIP3   OH239171   5.078   5.467   8.434  0.2676 -0.1126  0.7151
 5871TIP3    H139172   5.161   5.511   8.455  1.3053 -1.5164 -0.2565
 5871TIP3    H239173   5.087   5.379   8.470 -0.8378 -0.2613  0.6537
 5872TIP3   OH239174   5.077   5.378   7.938 -0.2814  0.0286  0.7137
 5872TIP3    H139175   5.137   5.400   7.867 -1.1721 -0.0289 -0.0766
 5872TIP3    H239176   5.086   5.450   8.000 -0.8188  1.0145 -0.3231
 5873TIP3   OH239177   3.165   4.349   1.981  0.6599 -0.2532  0.1616
 5873TIP3    H139178   3.077   4.318   1.961  1.0243 -0.9529 -0.4318
 5873TIP3    H239179   3.158   4.445   1.981 -0.2522 -0.3071  0.9060
 5874TIP3   OH239180   0.777   0.642   0.163 -0.0584 -0.0273 -0.1685
 5874TIP3    H139181   0.762   0.601   0.248  0.8847 -0.4475 -0.1944
 5874TIP3    H239182   0.697   0.622   0.113  0.0532 -1.1908  0.0788
 5875TIP3   OH239183   2.988   3.308   1.834 -0.5386  0.0084 -0.0362
 5875TIP3    H139184   2.935   3.315   1.913 -1.6072 -0.4315 -0.6873
 5875TIP3    H239185   2.967   3.221   1.799  1.0914 -0.4338  0.0041
 5876TIP3   OH239186   4.985   5.832   8.181  0.5581 -0.2246 -0.3654
 5876TIP3    H139187   5.041   5.846   8.257  0.5640 -1.2418 -0.1668
 5876TIP3    H239188   5.032   5.875   8.109 -0.5543  2.7994  0.5574
 5877TIP3   OH239189   6.442   3.551   0.049  0.2440 -0.2195 -0.5413
 5877TIP3    H139190   6.522   3.583   0.091 -0.1617  0.3722 -0.2104
 5877TIP3    H239191   6.472   3.508  -0.031  1.1541 -2.3087  0.8270
 5878TIP3   OH239192   0.759   4.725   2.033 -0.3031 -0.7418 -0.8525
 5878TIP3    H139193   0.745   4.631   2.044 -0.4951 -0.7520 -1.1691
 5878TIP3    H239194   0.847   4.740   2.068 -0.7225 -0.8383  0.2637
 5879TIP3   OH239195   6.243   5.453   1.501  0.4071  0.3123  0.2718
 5879TIP3    H139196   6.317   5.437   1.443  0.5423  0.0707  0.5109
 5879TIP3    H239197   6.255   5.391   1.573 -0.5356 -0.3977 -0.1619
 5880TIP3   OH239198   5.461   2.586   7.454 -0.0239  0.2267  0.0280
 5880TIP3    H139199   5.488   2.670   7.417 -0.8265  0.7873  0.6807
 5880TIP3    H239200   5.374   2.571   7.417 -0.2510  0.1187  0.6032
 5881TIP3   OH239201   2.100   3.792   0.031 -0.4756  0.0091  0.7196
 5881TIP3    H139202   2.138   3.736  -0.037 -0.8228  0.1055  0.4443
 5881TIP3    H239203   2.008   3.768   0.032 -1.3551  2.7471 -1.6239
 5882TIP3   OH239204   0.980   0.184   0.691 -0.4404 -0.3973  0.0640
 5882TIP3    H139205   0.893   0.163   0.658  0.8623 -1.9912 -2.6921
 5882TIP3    H239206   1.033   0.198   0.613  1.7235  0.9974  1.6603
 5883TIP3   OH239207   3.359   0.158   7.948  0.6491 -0.6931 -0.0815
 5883TIP3    H139208   3.369   0.080   8.003  1.4713 -1.0127 -0.6640
 5883TIP3    H239209   3.265   0.174   7.946  0.4857 -1.5706  0.1839
 5884TIP3   OH239210   3.505   3.648   7.735  0.2402 -0.4521  0.0980
 5884TIP3    H139211   3.424   3.625   7.690 -1.9749  1.8385  2.5988
 5884TIP3    H239212   3.540   3.722   7.685 -1.1714  0.8332  0.9331
 5885TIP3   OH239213   1.564   6.410   0.708 -0.5913  0.8630  0.2680
 5885TIP3    H139214   1.586   6.327   0.751 -0.8376  1.4362  1.5357
 5885TIP3    H239215   1.648   6.453   0.693 -0.4098  0.1091 -1.0053
 5886TIP3   OH239216   1.414   1.066   0.694 -0.1371 -0.0367  0.0066
 5886TIP3    H139217   1.480   1.081   0.626  1.4970 -2.1133  1.0287
 5886TIP3    H239218   1.338   1.032   0.646  0.9889 -1.4837 -0.8384
 5887TIP3   OH239219   5.706   5.341   1.695 -0.2129  0.3383 -0.6708
 5887TIP3    H139220   5.666   5.361   1.779  0.6840 -0.6232  0.0051
 5887TIP3    H239221   5.637   5.299   1.644 -0.6956  0.7381 -0.3516
 5888TIP3   OH239222   4.276   4.329   2.671 -0.0786  0.8928  0.4909
 5888TIP3    H139223   4.199   4.271   2.673  1.0730 -0.7663  3.0562
 5888TIP3    H239224   4.239   4.417   2.668 -2.1061  0.1357  1.0764
 5889TIP3   OH239225   0.930   1.129   0.118 -0.1067 -0.6553 -0.6101
 5889TIP3    H139226   0.853   1.073   0.132 -1.2623  1.1241  0.5278
 5889TIP3    H239227   0.904   1.188   0.048  0.0582  0.2317  0.0667
 5890TIP3   OH239228   5.884   1.722   6.519  0.4417 -0.2474  0.0117
 5890TIP3    H139229   5.923   1.638   6.544 -0.8896 -1.1609 -0.8372
 5890TIP3    H239230   5.879   1.718   6.423 -0.7667  0.2769  0.0441
 5891TIP3   OH239231   1.306   6.458   0.627  0.0075 -0.4345 -0.3060
 5891TIP3    H139232   1.387   6.414   0.654  0.4089 -1.3051 -2.7574
 5891TIP3    H239233   1.239   6.390   0.632 -0.4100  0.0379  0.7845
 5892TIP3   OH239234   0.718   1.983   1.378  0.2973  0.2556 -0.1530
 5892TIP3    H139235   0.655   2.045   1.341  0.4968  0.0153 -0.9224
 5892TIP3    H239236   0.799   2.033   1.388  0.1705  0.3892  0.2025
 5893TIP3   OH239237   1.253   2.033   7.345 -0.5808 -0.5561 -0.2919
 5893TIP3    H139238   1.172   2.079   7.323  0.7782  2.4837  0.5104
 5893TIP3    H239239   1.318   2.070   7.286  0.5992 -1.5828  0.3355
 5894TIP3   OH239240   2.600   0.824   0.953  0.3041 -0.0676  0.0101
 5894TIP3    H139241   2.579   0.901   0.901 -0.5950  1.5033  2.4999
 5894TIP3    H239242   2.694   0.811   0.940  0.0789  0.1405 -2.0621
 5895TIP3   OH239243   1.717   2.731   0.935 -0.3124 -0.0466 -0.8978
 5895TIP3    H139244   1.669   2.813   0.931  0.1732  0.2631 -0.4757
 5895TIP3    H239245   1.805   2.753   0.907  0.1268 -0.1710  0.3155
 5896TIP3   OH239246   6.077   3.064   8.085  0.4222 -0.5719  0.7070
 5896TIP3    H139247   6.097   2.984   8.133  0.8704 -1.8864 -1.5406
 5896TIP3    H239248   6.039   3.035   8.003 -1.4965  1.6306  0.7112
 5897TIP3   OH239249   1.785   2.128   7.601 -0.3783  0.3211  0.3341
 5897TIP3    H139250   1.846   2.202   7.594 -1.2104  1.3835  3.1178
 5897TIP3    H239251   1.767   2.103   7.510  2.7915  1.0794 -0.6264
 5898TIP3   OH239252   6.275   0.225   7.033  0.3791 -0.5387 -0.0949
 5898TIP3    H139253   6.285   0.274   6.951 -0.8175 -0.1064 -0.0142
 5898TIP3    H239254   6.241   0.140   7.006 -1.4310  0.0948 -0.0065
 5899TIP3   OH239255   4.011   5.220   8.577  0.4109  0.5070 -0.1374
 5899TIP3    H139256   3.934   5.217   8.634  0.2603  1.1775 -0.3086
 5899TIP3    H239257   3.983   5.269   8.500  0.8613  0.3143 -0.4294
 5900TIP3   OH239258   5.393   1.609   8.004  0.1175  0.4319  0.0889
 5900TIP3    H139259   5.370   1.700   8.024 -2.1495 -0.6008  2.9067
 5900TIP3    H239260   5.312   1.570   7.972  0.8355 -0.7895 -0.3033
 5901TIP3   OH239261   4.794   0.289   0.628  1.1368 -0.0528  0.0090
 5901TIP3    H139262   4.830   0.286   0.717 -2.5103  0.1560  1.6690
 5901TIP3    H239263   4.758   0.377   0.620 -0.5082 -0.7703 -0.8135
 5902TIP3   OH239264   4.199   3.705   0.953 -0.0869  0.6650 -1.2067
 5902TIP3    H139265   4.285   3.685   0.917 -0.6011 -0.4508 -1.8923
 5902TIP3    H239266   4.187   3.799   0.936  1.8497  1.3566  0.8546
 5903TIP3   OH239267   5.380   2.232   2.386 -0.4191 -0.0318 -0.2567
 5903TIP3    H139268   5.456   2.175   2.375  0.2153  0.7167  0.0998
 5903TIP3    H239269   5.382   2.256   2.479 -0.3531  0.9953 -0.5077
 5904TIP3   OH239270   4.026   0.566   7.488  0.4002  0.2834 -0.3835
 5904TIP3    H139271   3.946   0.544   7.440 -0.8990  1.0945  1.2970
 5904TIP3    H239272   4.085   0.492   7.473  0.3699  0.7836 -3.7271
 5905TIP3   OH239273   6.272   3.012   0.697  0.5602 -0.1971  0.2131
 5905TIP3    H139274   6.227   2.931   0.672  0.3621 -0.3965  1.1944
 5905TIP3    H239275   6.276   3.063   0.616 -0.9135 -0.4135 -0.0238
 5906TIP3   OH239276   5.163   6.179   8.669 -0.0102  0.2744  0.0826
 5906TIP3    H139277   5.198   6.167   8.757 -2.2491  0.4861  1.0651
 5906TIP3    H239278   5.220   6.245   8.629  1.2611 -0.0951  1.2182
 5907TIP3   OH239279   3.400   1.247   1.386 -0.2887 -0.5403 -0.1585
 5907TIP3    H139280   3.375   1.220   1.298 -1.4876 -0.0923  0.0178
 5907TIP3    H239281   3.423   1.165   1.431  4.5914 -0.5075 -2.0154
 5908TIP3   OH239282   6.202   5.942   0.055 -0.0146  0.2647 -0.0475
 5908TIP3    H139283   6.132   5.893   0.012 -0.6751  0.5070  0.7237
 5908TIP3    H239284   6.282   5.912   0.012 -0.6437  0.5597 -1.4985
 5909TIP3   OH239285   1.832   0.891   8.399  0.2805 -0.8881 -0.6129
 5909TIP3    H139286   1.917   0.932   8.416  0.1063 -0.8972  0.3195
 5909TIP3    H239287   1.790   0.885   8.485 -1.5234  0.9754 -1.2699
 5910TIP3   OH239288   6.678   5.975   0.031  0.4440  0.5350 -0.4611
 5910TIP3    H139289   6.741   5.976   0.104 -0.0302  0.0308 -0.0387
 5910TIP3    H239290   6.662   6.068   0.012  0.7205  0.6701 -0.0526
 5911TIP3   OH239291   3.110   4.583   2.513 -0.1736  0.8963  0.2724
 5911TIP3    H139292   3.116   4.520   2.585 -0.7674  0.2396 -0.2272
 5911TIP3    H239293   3.018   4.578   2.486  0.2645  0.3685 -1.1851
 5912TIP3   OH239294   4.983   6.141   0.596 -0.3362 -0.0442  0.0919
 5912TIP3    H139295   4.927   6.074   0.634 -1.3315  0.7455  0.0563
 5912TIP3    H239296   4.986   6.210   0.662  0.8825 -0.2168  0.2338
 5913TIP3   OH239297   1.727   4.199   2.399 -0.2890 -0.6143 -0.8110
 5913TIP3    H139298   1.681   4.144   2.462  0.7091 -0.3232  0.1976
 5913TIP3    H239299   1.787   4.140   2.354 -0.8902 -0.7899 -1.4162
 5914TIP3   OH239300   3.599   3.717   1.450 -0.1661  0.2095 -0.3009
 5914TIP3    H139301   3.513   3.701   1.411 -0.0280 -0.5347 -0.3003
 5914TIP3    H239302   3.579   3.752   1.537 -0.4668  0.5273 -0.4929
 5915TIP3   OH239303   4.056   0.235   6.984 -0.6180  0.1040  0.2148
 5915TIP3    H139304   3.972   0.192   6.968 -0.4007  0.5629 -2.6913
 5915TIP3    H239305   4.115   0.197   6.919  0.6773  1.7754  0.3477
 5916TIP3   OH239306   5.165   5.330   2.260  0.3883 -0.2128  0.6314
 5916TIP3    H139307   5.188   5.422   2.248  1.5603 -0.5859 -0.1947
 5916TIP3    H239308   5.193   5.288   2.178  1.8498 -1.6689  1.8226
 5917TIP3   OH239309   0.389   2.198   0.966  0.2632  0.1688  0.1917
 5917TIP3    H139310   0.451   2.259   1.006 -0.0298  0.9768 -0.5530
 5917TIP3    H239311   0.328   2.254   0.918 -1.5555 -0.5279  1.5555
 5918TIP3   OH239312   6.615   2.051   1.276 -0.3914  0.2999 -0.3462
 5918TIP3    H139313   6.618   2.146   1.286 -1.6908  0.2179  1.3419
 5918TIP3    H239314   6.638   2.036   1.185  0.3400  2.1967 -0.5258
 5919TIP3   OH239315   5.160   6.572   8.061 -0.1440  0.5007 -0.3899
 5919TIP3    H139316   5.087   6.632   8.041  0.4109  0.9562 -1.1176
 5919TIP3    H239317   5.139   6.493   8.012 -0.3897  0.4486 -0.2059
 5920TIP3   OH239318   0.179   2.547   6.600 -0.9467  0.4065  0.2463
 5920TIP3    H139319   0.144   2.636   6.607 -0.4090  0.7092 -0.7156
 5920TIP3    H239320   0.103   2.493   6.581 -1.0694  0.9105 -0.7999
 5921TIP3   OH239321   3.851   1.514   3.185  0.1623 -0.2873  0.6038
 5921TIP3    H139322   3.870   1.571   3.111 -1.7952 -0.9511 -0.4788
 5921TIP3    H239323   3.762   1.482   3.169  0.2318 -1.6113  2.4955
 5922TIP3   OH239324   2.833   3.512   1.468 -0.7058  0.3181 -0.1925
 5922TIP3    H139325   2.784   3.591   1.492  0.1214  0.4711  1.0475
 5922TIP3    H239326   2.853   3.525   1.375  0.1964  2.0201  0.1897
 5923TIP3   OH239327   0.774   4.906   1.461  0.4649 -0.6038 -0.0818
 5923TIP3    H139328   0.706   4.839   1.470  1.0159 -1.0561  0.8633
 5923TIP3    H239329   0.831   4.892   1.537  0.0033  1.6324  0.7478
 5924TIP3   OH239330   3.097   2.548   0.465  0.4836 -0.1795  0.2756
 5924TIP3    H139331   3.188   2.541   0.437  0.8954 -1.4458  1.8319
 5924TIP3    H239332   3.088   2.639   0.493  1.0161  0.1757 -0.6482
 5925TIP3   OH239333   5.373   4.352   0.938  0.3132 -0.6193 -0.1286
 5925TIP3    H139334   5.380   4.447   0.934 -0.2515 -0.5595  0.1103
 5925TIP3    H239335   5.451   4.319   0.894 -0.6254 -0.0439 -2.3770
 5926TIP3   OH239336   6.281   0.606   1.546  0.4188 -0.0891 -0.4216
 5926TIP3    H139337   6.236   0.649   1.619  1.5136  0.4328 -0.0345
 5926TIP3    H239338   6.245   0.647   1.468 -0.3423 -0.2428 -0.1601
 5927TIP3   OH239339   3.997   6.453   1.630  0.1641 -0.1202 -0.4128
 5927TIP3    H139340   3.966   6.363   1.636 -1.2016  0.3657  0.4510
 5927TIP3    H239341   4.057   6.462   1.704 -0.2641 -0.1308 -0.0567
 5928TIP3   OH239342   3.498   1.970   8.586  0.2514 -0.1103  0.1840
 5928TIP3    H139343   3.460   1.965   8.674 -2.2419 -0.1448 -0.8340
 5928TIP3    H239344   3.568   2.035   8.594  0.8929 -0.9679  2.4269
 5929TIP3   OH239345   6.235   2.985   2.134  0.1333  0.4601  0.0346
 5929TIP3    H139346   6.148   3.003   2.169 -0.1440 -1.0199  0.1739
 5929TIP3    H239347   6.295   3.018   2.200 -0.2911  1.8502 -0.2386
 5930TIP3   OH239348   5.094   4.665   7.152  0.0423  0.8285 -0.6230
 5930TIP3    H139349   5.179   4.690   7.118  0.7606 -0.8295 -0.1787
 5930TIP3    H239350   5.068   4.737   7.209  1.3044  1.2060 -0.5047
 5931TIP3   OH239351   0.968   6.458   8.653  0.7033 -0.2968  0.8949
 5931TIP3    H139352   0.953   6.390   8.587 -0.3152 -0.2143  1.0189
 5931TIP3    H239353   1.060   6.449   8.676  0.7119 -1.2965  0.5335
 5932TIP3   OH239354   3.802   3.365   1.469 -0.6719 -0.1682  0.2036
 5932TIP3    H139355   3.823   3.372   1.376  0.1242 -1.0172  0.2979
 5932TIP3    H239356   3.883   3.334   1.509 -1.1778 -0.3767  1.0960
 5933TIP3   OH239357   1.461   0.035   6.885 -0.3118  0.3221  0.0570
 5933TIP3    H139358   1.483   0.127   6.874  0.8525  0.0868  0.3088
 5933TIP3    H239359   1.507  -0.009   6.813  1.7264 -0.4133  1.7086
 5934TIP3   OH239360   3.780   5.537   0.988 -0.0922 -0.0739 -0.0247
 5934TIP3    H139361   3.688   5.512   0.980 -0.2030  0.4444 -0.3862
 5934TIP3    H239362   3.808   5.497   1.070 -0.4581 -0.7872 -0.2450
 5935TIP3   OH239363   6.038   0.128   2.465  0.4833  0.3976  0.5740
 5935TIP3    H139364   5.944   0.148   2.463 -0.3133 -2.5283  2.1447
 5935TIP3    H239365   6.068   0.165   2.549  0.3763  0.0784  0.7551
 5936TIP3   OH239366   4.779   6.168   8.407 -0.3938 -0.0847 -0.0504
 5936TIP3    H139367   4.861   6.218   8.409 -0.5771  0.2205  1.2966
 5936TIP3    H239368   4.713   6.230   8.376 -0.7332  0.7734  2.1704
 5937TIP3   OH239369   1.191   0.443   7.818  0.4703 -0.5333  0.2302
 5937TIP3    H139370   1.122   0.448   7.885  0.7624 -0.9442  0.5667
 5937TIP3    H239371   1.244   0.368   7.844  0.1541 -1.1663 -0.8893
 5938TIP3   OH239372   3.126   4.758   7.075  0.5527  0.4316 -0.8737
 5938TIP3    H139373   3.187   4.717   7.136 -1.7514 -3.0134 -0.6016
 5938TIP3    H239374   3.099   4.839   7.119 -0.0590 -1.3059  2.1988
 5939TIP3   OH239375   1.558   6.582   8.032  0.4977 -0.0118  0.4489
 5939TIP3    H139376   1.578   6.601   8.124  2.2844  1.6778 -0.2103
 5939TIP3    H239377   1.467   6.608   8.021  0.2922 -0.1349  1.6873
 5940TIP3   OH239378   2.227   3.569   0.355  0.2495 -0.1087  0.2537
 5940TIP3    H139379   2.295   3.631   0.332  1.9892 -1.0498  2.4165
 5940TIP3    H239380   2.248   3.490   0.305  0.5687 -0.2736  0.6355
 5941TIP3   OH239381   3.416   4.519   0.524  0.3919 -0.4156  0.1311
 5941TIP3    H139382   3.356   4.575   0.573  2.5048  0.1226  2.3083
 5941TIP3    H239383   3.392   4.532   0.432 -1.7884  0.9078  0.8141
 5942TIP3   OH239384   2.640   3.715   7.270  0.1707  0.1193  0.3503
 5942TIP3    H139385   2.613   3.708   7.179 -0.4844 -0.6773  0.5908
 5942TIP3    H239386   2.597   3.795   7.302  0.2988  0.3310 -0.0050
 5943TIP3   OH239387   0.835   0.601   7.434 -0.0335 -0.2059  0.0418
 5943TIP3    H139388   0.887   0.522   7.436  0.3596  0.0529  2.0537
 5943TIP3    H239389   0.899   0.672   7.423 -0.2142 -0.0423  0.0375
 5944TIP3   OH239390   4.653   1.897   8.683  0.4504  0.5512  0.6625
 5944TIP3    H139391   4.613   1.811   8.694  0.4074  0.4293 -0.3167
 5944TIP3    H239392   4.741   1.879   8.651 -0.0116  0.8585 -0.8938
 5945TIP3   OH239393   3.312   2.717   2.318 -0.6093  0.1515 -0.3469
 5945TIP3    H139394   3.317   2.813   2.311 -1.4183  0.1557 -1.0771
 5945TIP3    H239395   3.236   2.702   2.374 -0.4324 -0.0640 -0.1651
 5946TIP3   OH239396   6.064   5.086   1.983  0.3045 -0.7255 -0.2333
 5946TIP3    H139397   6.011   5.134   1.920  0.4387  0.5865  0.6172
 5946TIP3    H239398   6.151   5.124   1.974  0.6112 -1.3904 -0.1133
 5947TIP3   OH239399   0.457   2.888   1.159 -0.1460  0.5522 -0.5079
 5947TIP3    H139400   0.463   2.875   1.065  1.2681 -1.0943 -0.2552
 5947TIP3    H239401   0.391   2.824   1.188  1.4888 -1.0566 -0.1106
 5948TIP3   OH239402   2.660   3.336   0.663  0.7252  0.6980  0.4389
 5948TIP3    H139403   2.583   3.393   0.661  0.4518  0.3138 -1.8815
 5948TIP3    H239404   2.730   3.389   0.626  0.3977 -0.4872 -2.0448
 5949TIP3   OH239405   5.216   3.544   2.690 -0.2650 -0.1686  0.6865
 5949TIP3    H139406   5.198   3.595   2.769  0.6550  0.5745  0.4298
 5949TIP3    H239407   5.149   3.571   2.628 -0.5425 -0.2079  0.9648
 5950TIP3   OH239408   1.303   6.042   1.412  0.0284  0.3529 -0.2598
 5950TIP3    H139409   1.231   6.004   1.462  0.8211  0.1596  0.7626
 5950TIP3    H239410   1.285   6.016   1.322 -1.1534  0.2730 -0.0228
 5951TIP3   OH239411   2.053   1.766   2.214  0.2696 -0.4484  0.2470
 5951TIP3    H139412   2.113   1.703   2.173 -1.8526 -2.6899  0.3902
 5951TIP3    H239413   2.000   1.800   2.142  1.2243  1.0536  0.2102
 5952TIP3   OH239414   5.800   6.683   1.263  0.1976  0.3415 -0.1241
 5952TIP3    H139415   5.718   6.713   1.303  0.3738  0.0875  0.4381
 5952TIP3    H239416   5.854   6.762   1.255 -0.4741  0.7071 -1.4514
 5953TIP3   OH239417   0.381   5.143   2.711  0.3286  0.9385 -0.2976
 5953TIP3    H139418   0.345   5.058   2.682 -0.1586  1.7394 -2.2311
 5953TIP3    H239419   0.384   5.136   2.806 -2.0887 -0.3580 -0.2093
 5954TIP3   OH239420   6.486   2.796   6.412 -0.1594  0.2108  0.2115
 5954TIP3    H139421   6.483   2.890   6.428 -0.1920 -0.1548  2.7498
 5954TIP3    H239422   6.580   2.776   6.408 -0.1284  0.5075 -1.8918
 5955TIP3   OH239423   6.303   2.230   0.877  0.1147  0.5445  0.4912
 5955TIP3    H139424   6.383   2.214   0.827 -1.1506 -0.2284 -1.3909
 5955TIP3    H239425   6.261   2.303   0.832 -2.3407 -1.8127 -1.3577
 5956TIP3   OH239426   1.732   1.326   0.700  0.2763 -0.3819 -0.5770
 5956TIP3    H139427   1.758   1.234   0.697  2.1446  0.0356  0.9079
 5956TIP3    H239428   1.789   1.369   0.637 -0.6149 -0.2016 -1.2914
 5957TIP3   OH239429   4.377   0.341   2.057  0.0004  0.2487 -0.2140
 5957TIP3    H139430   4.328   0.417   2.089  1.6572  1.5497 -0.6110
 5957TIP3    H239431   4.447   0.328   2.121  1.5187  0.9701 -1.6524
 5958TIP3   OH239432   3.661   5.367   1.774 -0.2175  0.0341 -0.5978
 5958TIP3    H139433   3.580   5.361   1.723  0.5186  0.6227 -1.8876
 5958TIP3    H239434   3.684   5.277   1.795 -1.0070 -0.1587 -0.5283
 5959TIP3   OH239435   5.881   6.377   8.118 -0.2976  0.3312  0.6525
 5959TIP3    H139436   5.854   6.439   8.185 -0.0743 -0.1226  1.1640
 5959TIP3    H239437   5.848   6.292   8.148 -0.9718  0.2508 -0.2468
 5960TIP3   OH239438   0.941   6.441   0.232 -0.2871  0.1383 -0.5900
 5960TIP3    H139439   0.961   6.369   0.173  0.9326 -0.4843  0.5371
 5960TIP3    H239440   0.881   6.497   0.182  0.8101 -0.2772 -2.4735
 5961TIP3   OH239441   0.707   5.517   8.018  0.0990 -0.0230  0.1069
 5961TIP3    H139442   0.624   5.552   8.050  0.5631  1.4417 -0.1830
 5961TIP3    H239443   0.691   5.499   7.925  0.1451  0.4818 -0.0066
 5962TIP3   OH239444   4.039   6.684   0.718 -0.6682  0.6746  0.0519
 5962TIP3    H139445   4.052   6.619   0.649 -0.2280 -0.5382  1.2318
 5962TIP3    H239446   4.121   6.733   0.721 -0.2740 -0.0062  0.4530
 5963TIP3   OH239447   5.492   3.419   2.540  0.1681 -0.4216  0.3129
 5963TIP3    H139448   5.542   3.361   2.597 -1.1770 -0.7652  1.2082
 5963TIP3    H239449   5.502   3.506   2.580 -0.0622 -0.5139  0.5754
 5964TIP3   OH239450   0.105   1.935   0.774  0.4738  0.1660 -0.3230
 5964TIP3    H139451   0.108   1.972   0.863 -2.7928 -0.9467  0.4127
 5964TIP3    H239452   0.141   1.847   0.783 -3.1444 -1.4105  0.9839
 5965TIP3   OH239453   0.391   6.792   1.257  0.2046  0.4098 -0.1063
 5965TIP3    H139454   0.419   6.819   1.170 -0.6913 -0.3625 -0.6565
 5965TIP3    H239455   0.309   6.746   1.242 -1.3415  2.5036  1.4251
 5966TIP3   OH239456   5.663   3.674   7.542 -0.0838 -0.3274 -0.1049
 5966TIP3    H139457   5.611   3.593   7.535 -0.6994 -0.1359  1.7937
 5966TIP3    H239458   5.744   3.647   7.586 -0.2081  0.0388  0.3584
 5967TIP3   OH239459   5.169   2.932   8.684  0.2255  0.1142  0.4207
 5967TIP3    H139460   5.145   2.901   8.597 -1.0781  1.5310  0.2423
 5967TIP3    H239461   5.254   2.975   8.672  1.9600 -2.8976  0.6195
 5968TIP3   OH239462   1.423   2.695   7.222  0.0062 -0.0368 -0.2232
 5968TIP3    H139463   1.502   2.748   7.215  0.2680 -0.3364  0.3647
 5968TIP3    H239464   1.352   2.758   7.222  0.1968  0.2028 -1.4207
 5969TIP3   OH239465   0.277   6.112   7.278 -0.1213  0.6968  0.1662
 5969TIP3    H139466   0.331   6.153   7.210 -1.3653  2.6701  0.2988
 5969TIP3    H239467   0.333   6.112   7.356  0.7389 -0.1054 -0.4295
 5970TIP3   OH239468   1.249   3.148   6.771  0.3561 -0.0137 -0.7729
 5970TIP3    H139469   1.205   3.165   6.688 -0.2152 -1.0193 -0.6947
 5970TIP3    H239470   1.185   3.100   6.823  0.4654  1.1675  0.5197
 5971TIP3   OH239471   1.895   0.982   6.218 -0.3658  0.0157 -0.2651
 5971TIP3    H139472   1.827   0.924   6.252  0.7603 -0.3127  1.5337
 5971TIP3    H239473   1.873   1.068   6.252 -1.6271  0.6054 -2.3461
 5972TIP3   OH239474   4.005   0.088   8.236  0.2623 -0.7850  0.4113
 5972TIP3    H139475   4.031   0.136   8.314  0.3024 -0.0606 -0.0398
 5972TIP3    H239476   3.913   0.068   8.250  0.5916 -1.8458  1.2377
 5973TIP3   OH239477   2.214   0.348   0.160  0.5079  0.0949  0.5850
 5973TIP3    H139478   2.159   0.276   0.131 -0.7300  0.5890  1.6456
 5973TIP3    H239479   2.222   0.405   0.083  2.0641 -1.4448 -0.4800
 5974TIP3   OH239480   0.873   3.296   1.752  0.0680  0.3570 -0.2818
 5974TIP3    H139481   0.891   3.238   1.826 -2.1631  1.8687  1.5595
 5974TIP3    H239482   0.938   3.271   1.686  0.7568 -2.5194  1.3278
 5975TIP3   OH239483   3.793   0.853   0.185 -0.1587 -0.2201 -0.2065
 5975TIP3    H139484   3.834   0.885   0.265 -2.7131 -0.1822  1.1949
 5975TIP3    H239485   3.754   0.770   0.210 -0.9964 -0.2085 -1.4135
 5976TIP3   OH239486   1.408   3.354   7.977 -0.0081  0.3667  0.1391
 5976TIP3    H139487   1.503   3.353   7.977 -0.0107  0.0380 -0.2108
 5976TIP3    H239488   1.382   3.266   7.950 -0.4165  0.2834  0.7548
 5977TIP3   OH239489   0.510   0.131   0.840 -0.1377 -0.1463 -0.2247
 5977TIP3    H139490   0.535   0.221   0.822 -0.8757 -0.3180 -2.4997
 5977TIP3    H239491   0.422   0.137   0.877 -0.6058  0.0660 -1.3230
 5978TIP3   OH239492   4.891   2.776   0.667  0.2990 -0.1759  0.3153
 5978TIP3    H139493   4.827   2.840   0.700 -0.8887 -0.8899 -0.5440
 5978TIP3    H239494   4.857   2.691   0.693 -0.4808 -0.7523 -2.3071
 5979TIP3   OH239495   0.504   2.069   0.145 -0.6861  0.0582 -0.0720
 5979TIP3    H139496   0.412   2.044   0.131 -0.6529 -0.4952  0.6038
 5979TIP3    H239497   0.538   2.084   0.057 -0.8455 -1.8947 -0.5286
 5980TIP3   OH239498   4.343   3.210   1.630 -0.3369  0.2189 -0.0472
 5980TIP3    H139499   4.438   3.214   1.641 -0.4759 -0.2047  1.6216
 5980TIP3    H239500   4.315   3.138   1.686 -1.6006 -0.0340 -0.9455
 5981TIP3   OH239501   5.592   4.891   0.347 -0.1452  0.9716  0.6299
 5981TIP3    H139502   5.613   4.812   0.397  0.3472  1.0207  0.5011
 5981TIP3    H239503   5.656   4.893   0.276  0.8792  2.3322  1.5385
 5982TIP3   OH239504   1.661   0.936   8.626 -0.4246 -0.2343 -0.5188
 5982TIP3    H139505   1.616   0.865   8.670  1.0142  0.0924  1.6090
 5982TIP3    H239506   1.599   1.009   8.629 -0.4448 -0.2805  0.8442
 5983TIP3   OH239507   4.714   2.987   1.830 -0.5788 -0.5169 -0.1210
 5983TIP3    H139508   4.712   2.900   1.870 -1.2077 -0.4808 -0.0505
 5983TIP3    H239509   4.772   3.038   1.886 -2.0349 -0.2525  1.2219
 5984TIP3   OH239510   2.338   0.131   1.087 -0.4972  0.0611  0.2739
 5984TIP3    H139511   2.338   0.061   1.153 -0.7186 -0.4556 -0.2678
 5984TIP3    H239512   2.255   0.177   1.101 -1.3525 -1.1002 -0.7253
 5985TIP3   OH239513   3.998   3.038   1.093 -0.0223 -0.0790 -0.4906
 5985TIP3    H139514   4.093   3.028   1.082  0.5066  0.6745  2.6286
 5985TIP3    H239515   3.964   2.949   1.087  1.3018 -0.7589  1.2795
 5986TIP3   OH239516   6.756   3.788   8.119 -0.0012  0.6506  0.1369
 5986TIP3    H139517   6.753   3.766   8.026 -0.0229 -1.7229  0.6490
 5986TIP3    H239518   6.665   3.808   8.142  0.0105  1.2958 -0.3366
 5987TIP3   OH239519   0.461   4.879   0.711 -0.2820 -0.0609  0.4739
 5987TIP3    H139520   0.551   4.875   0.746 -0.8410  0.2210  2.0387
 5987TIP3    H239521   0.471   4.911   0.622  1.0755  1.4755  1.1307
 5988TIP3   OH239522   1.265   4.012   1.354  0.4391  0.1908 -0.4467
 5988TIP3    H139523   1.347   3.965   1.337  0.3576  0.1747 -0.8125
 5988TIP3    H239524   1.291   4.089   1.405  0.4229 -0.8798  1.2610
 5989TIP3   OH239525   2.208   2.293   7.714  0.4986 -0.2008  0.2943
 5989TIP3    H139526   2.113   2.297   7.710  0.5255  0.1957 -0.0446
 5989TIP3    H239527   2.228   2.199   7.716  0.0743 -0.2755  1.3386
 5990TIP3   OH239528   1.370   3.641   1.046  1.0731  0.5173 -0.1573
 5990TIP3    H139529   1.414   3.721   1.017  1.9873  0.1708  0.2109
 5990TIP3    H239530   1.303   3.624   0.981  1.5883  0.9971 -0.8199
 5991TIP3   OH239531   6.541   5.715   7.969  0.1424 -0.1220 -0.1751
 5991TIP3    H139532   6.603   5.665   7.915 -0.5374  0.3630 -1.4469
 5991TIP3    H239533   6.488   5.649   8.013 -1.1440 -0.5808 -2.2963
 5992TIP3   OH239534   2.821   0.186   8.243  0.8318  0.3694 -0.1823
 5992TIP3    H139535   2.768   0.134   8.182  0.4938  1.0592 -0.4828
 5992TIP3    H239536   2.910   0.153   8.231  0.9578  1.2399 -1.8598
 5993TIP3   OH239537   4.018   1.660   8.173 -0.3236 -0.5395  0.2363
 5993TIP3    H139538   4.064   1.594   8.224  0.1058  1.1663  2.1906
 5993TIP3    H239539   4.030   1.633   8.082  0.1134 -2.9104  0.9281
 5994TIP3   OH239540   2.561   5.521   8.249  0.2879 -0.2923  0.0121
 5994TIP3    H139541   2.487   5.461   8.252  0.6597 -0.7309  1.4379
 5994TIP3    H239542   2.557   5.568   8.332  2.5945 -1.6057  0.9695
 5995TIP3   OH239543   3.998   5.114   0.139  0.4768  0.2466 -0.3326
 5995TIP3    H139544   4.075   5.069   0.175 -0.2657 -0.6304  0.1878
 5995TIP3    H239545   3.984   5.073   0.054  0.4559  0.2574 -0.3342
 5996TIP3   OH239546   3.338   5.843   0.285  0.3082  0.1713 -0.2377
 5996TIP3    H139547   3.425   5.836   0.325  0.3398  0.9633 -0.1623
 5996TIP3    H239548   3.325   5.758   0.242  0.7973 -0.2315  0.3867
 5997TIP3   OH239549   4.423   0.925   1.269  0.2211  0.6258 -0.3530
 5997TIP3    H139550   4.478   0.976   1.210 -0.2479  0.5249 -0.8826
 5997TIP3    H239551   4.409   0.842   1.224 -0.3592  0.6462 -0.2287
 5998TIP3   OH239552   4.069   4.116   8.658 -0.3563 -0.1285  0.3817
 5998TIP3    H139553   4.159   4.137   8.683 -0.3741 -0.1048  0.4255
 5998TIP3    H239554   4.057   4.024   8.685 -0.1086 -0.3597 -0.2799
 5999TIP3   OH239555   1.944   1.756   1.559 -0.5516  0.8722 -0.3080
 5999TIP3    H139556   1.886   1.749   1.635 -1.1193  2.9795 -0.5073
 5999TIP3    H239557   1.887   1.787   1.488  0.3146  0.4819 -1.1991
 6000TIP3   OH239558   2.452   0.491   6.987  0.4653  0.3098  0.7317
 6000TIP3    H139559   2.412   0.541   6.915 -1.0527 -2.2000 -0.2948
 6000TIP3    H239560   2.531   0.541   7.009 -0.4623  2.6481 -0.7738
 6001TIP3   OH239561   2.308   4.038   2.558 -0.3759 -0.7139  0.0691
 6001TIP3    H139562   2.255   3.961   2.535 -1.5227  0.1366 -0.2103
 6001TIP3    H239563   2.395   4.017   2.523 -0.7211 -1.7893 -0.2065
 6002TIP3   OH239564   2.946   6.295   8.533 -0.2559  0.5173 -0.4122
 6002TIP3    H139565   2.947   6.335   8.446 -0.0594  0.0669 -0.6205
 6002TIP3    H239566   2.889   6.352   8.585 -0.0813  0.9921 -0.7373
 6003TIP3   OH239567   3.192   6.546   8.427  0.3089  0.5405 -0.0737
 6003TIP3    H139568   3.231   6.509   8.506 -0.9424 -0.3941  0.1329
 6003TIP3    H239569   3.116   6.595   8.458 -3.0867 -3.6419 -0.8860
 6004TIP3   OH239570   1.223   0.762   0.022 -0.5649 -0.0214  0.6383
 6004TIP3    H139571   1.249   0.739   0.111 -2.1125 -1.0392  0.8599
 6004TIP3    H239572   1.184   0.849   0.030  1.3594  0.9125  0.5253
 6005TIP3   OH239573   4.793   4.217   7.949  0.0873  0.4109  0.1621
 6005TIP3    H139574   4.844   4.297   7.937  2.4886 -0.7680  1.8098
 6005TIP3    H239575   4.732   4.238   8.020  0.4714  0.8867  0.3592
 6006TIP3   OH239576   6.822   4.782   7.450  0.3073  0.7806 -0.0310
 6006TIP3    H139577   6.742   4.730   7.444  0.2017  0.8918  0.3794
 6006TIP3    H239578   6.857   4.763   7.536 -0.0183  1.7869  0.3427
 6007TIP3   OH239579   5.010   5.640   1.048  0.4173 -0.9171 -0.1358
 6007TIP3    H139580   4.924   5.666   1.016 -0.0691 -1.0490  0.9920
 6007TIP3    H239581   5.058   5.611   0.970  0.1774  1.1025 -1.0767
 6008TIP3   OH239582   5.252   2.218   7.936  0.0936  0.2314 -0.3343
 6008TIP3    H139583   5.305   2.161   7.881  0.1895 -0.2564  0.2544
 6008TIP3    H239584   5.303   2.298   7.944 -0.2685  0.6081 -1.5823
 6009TIP3   OH239585   6.491   5.384   0.080  0.0743  0.2178 -0.0976
 6009TIP3    H139586   6.435   5.321   0.125 -1.3514  0.6916 -1.1471
 6009TIP3    H239587   6.517   5.339  -0.001  0.6164  0.2814  0.0381
 6010TIP3   OH239588   0.069   3.938   7.834 -0.1116  0.2268  0.2262
 6010TIP3    H139589   0.008   3.866   7.851 -0.2021  0.1766 -0.2954
 6010TIP3    H239590   0.049   4.003   7.902  0.1359 -0.3391  0.8524
 6011TIP3   OH239591   4.402   1.573   7.005 -0.4859 -0.4057  0.0521
 6011TIP3    H139592   4.472   1.639   6.997 -2.2045  1.3743 -1.5180
 6011TIP3    H239593   4.393   1.538   6.916 -1.5854 -0.5960  0.2283
 6012TIP3   OH239594   4.142   0.894   8.328  0.3201 -0.0801 -0.3146
 6012TIP3    H139595   4.064   0.868   8.376 -0.3518  0.4417 -1.1004
 6012TIP3    H239596   4.209   0.830   8.354 -0.5634 -0.9714 -0.1938
 6013TIP3   OH239597   0.538   0.289   0.380 -0.0483 -0.2464 -0.0583
 6013TIP3    H139598   0.528   0.246   0.296 -1.3866 -1.9105  0.8952
 6013TIP3    H239599   0.453   0.331   0.396  0.2104  0.1011  0.4269
 6014TIP3   OH239600   6.386   6.549   0.539 -0.0849  0.2406  0.1784
 6014TIP3    H139601   6.411   6.542   0.631 -1.4601 -1.2795  0.4915
 6014TIP3    H239602   6.389   6.642   0.520 -2.7378  1.0000  2.6984
 6015TIP3   OH239603   3.414   0.377   8.650  0.5543  0.0627 -0.1841
 6015TIP3    H139604   3.360   0.422   8.714 -0.1661  1.2710 -1.5774
 6015TIP3    H239605   3.355   0.359   8.577  1.4661 -0.8067 -0.7325
 6016TIP3   OH239606   4.375   2.682   6.790 -0.2632 -0.4128 -0.1097
 6016TIP3    H139607   4.434   2.607   6.780 -1.5673 -1.6167  0.7116
 6016TIP3    H239608   4.421   2.742   6.848  0.5558 -0.8525 -0.2904
 6017TIP3   OH239609   1.210   1.056   8.737  0.3303  0.2242 -0.2554
 6017TIP3    H139610   1.142   1.025   8.677  0.0256  0.2834  0.0607
 6017TIP3    H239611   1.190   1.149   8.749  0.0385  0.0737  0.4152
 6018TIP3   OH239612   5.809   4.803   0.174  0.4116 -0.2089  0.4555
 6018TIP3    H139613   5.871   4.744   0.132  0.1675 -0.1586  0.0141
 6018TIP3    H239614   5.845   4.891   0.157  0.5435 -0.2077  0.7336
 6019TIP3   OH239615   1.066   1.851   0.147 -0.4521 -0.2552  0.1074
 6019TIP3    H139616   1.144   1.881   0.101 -1.7489  0.3372 -1.8462
 6019TIP3    H239617   1.082   1.758   0.166  0.8277 -0.0564  0.0356
 6020TIP3   OH239618   4.552   4.952   0.855  0.2585 -0.0974 -0.2418
 6020TIP3    H139619   4.587   4.965   0.943 -1.9825 -2.0784  1.0577
 6020TIP3    H239620   4.514   5.037   0.831  0.5539  0.3587  0.8511
 6021TIP3   OH239621   2.344   3.452   7.977 -0.3142 -0.2451  0.3882
 6021TIP3    H139622   2.373   3.537   7.945 -2.2231  1.0767  1.8658
 6021TIP3    H239623   2.255   3.443   7.943  0.0047 -1.9144 -0.1140
 6022TIP3   OH239624   3.059   4.067   1.726 -0.5060  0.3930 -0.4557
 6022TIP3    H139625   3.027   3.977   1.717 -1.2916  0.4594  1.3828
 6022TIP3    H239626   3.149   4.064   1.694 -0.2857 -1.2063  0.2523
 6023TIP3   OH239627   4.576   3.367   1.889  1.0178 -0.1037 -0.1245
 6023TIP3    H139628   4.551   3.412   1.809 -0.0004  0.5914  0.5629
 6023TIP3    H239629   4.651   3.417   1.923  0.2853  0.7246  0.3080
 6024TIP3   OH239630   4.502   5.246   8.056 -0.1429 -0.3916 -0.0600
 6024TIP3    H139631   4.432   5.301   8.090  1.8190  1.1514  1.7462
 6024TIP3    H239632   4.498   5.256   7.961 -0.8248  1.6434  0.1568
 6025TIP3   OH239633   5.141   2.534   8.075 -0.3732  0.3441 -0.4960
 6025TIP3    H139634   5.105   2.545   7.987  2.9317  1.9218 -1.7921
 6025TIP3    H239635   5.185   2.449   8.073 -0.8874  0.0538 -0.0673
 6026TIP3   OH239636   2.237   0.565   2.361  0.0295 -0.0638  0.3057
 6026TIP3    H139637   2.205   0.479   2.334  1.1650  0.0735 -1.6689
 6026TIP3    H239638   2.299   0.590   2.292 -0.3566  2.3861  0.7580
 6027TIP3   OH239639   5.267   4.608   8.300 -0.4560 -0.4602  0.0966
 6027TIP3    H139640   5.332   4.642   8.363 -0.1763  0.4699 -0.6629
 6027TIP3    H239641   5.183   4.633   8.337 -0.2877  0.2255  0.0325
 6028TIP3   OH239642   6.023   3.128   7.527  0.2258 -0.8836 -0.6698
 6028TIP3    H139643   6.072   3.171   7.598 -1.0659  0.5790 -0.6169
 6028TIP3    H239644   6.006   3.040   7.561  0.7531 -0.6327  0.3005
 6029TIP3   OH239645   3.861   0.398   8.264  0.2061 -0.1233  0.2115
 6029TIP3    H139646   3.795   0.417   8.197  0.5504 -0.4607 -0.2343
 6029TIP3    H239647   3.940   0.443   8.233  0.8584 -1.6951 -0.5293
 6030TIP3   OH239648   6.337   2.005   2.077  0.7907 -0.4213  0.2027
 6030TIP3    H139649   6.368   2.095   2.065  1.9262 -0.6721  1.0339
 6030TIP3    H239650   6.418   1.953   2.087  0.1860 -1.6343 -0.8607
 6031TIP3   OH239651   4.129   1.360   8.298  0.1630 -0.4515  0.9455
 6031TIP3    H139652   4.155   1.282   8.348  3.3233 -1.2938 -1.6378
 6031TIP3    H239653   4.118   1.328   8.209 -1.0565  1.6697  0.2736
 6032TIP3   OH239654   3.559   5.705   0.708 -0.2862  0.0723 -0.4490
 6032TIP3    H139655   3.472   5.714   0.667  0.2024  2.8725 -1.1050
 6032TIP3    H239656   3.540   5.679   0.798 -1.9565  1.9667 -0.1790
 6033TIP3   OH239657   3.919   5.321   0.332 -0.0414  0.1104 -0.2191
 6033TIP3    H139658   3.925   5.236   0.288 -0.0027  0.4119 -0.8025
 6033TIP3    H239659   4.010   5.346   0.349 -0.0644 -0.1047  0.2269
 6034TIP3   OH239660   6.114   5.359   1.829 -0.2926 -0.4720 -0.9061
 6034TIP3    H139661   6.190   5.354   1.888 -0.5994 -1.3927 -0.5758
 6034TIP3    H239662   6.069   5.440   1.855 -0.9747 -1.3646  0.8191
 6035TIP3   OH239663   4.386   3.169   8.129 -0.4319  0.5760 -0.1564
 6035TIP3    H139664   4.404   3.119   8.050 -1.9665  1.6422 -1.2608
 6035TIP3    H239665   4.381   3.260   8.098  0.9972  1.2680  1.5459
 6036TIP3   OH239666   1.219   2.413   2.002 -0.4189 -0.2802  0.1058
 6036TIP3    H139667   1.301   2.365   1.992 -0.3425 -0.4291  1.2831
 6036TIP3    H239668   1.174   2.368   2.073 -0.9059  0.6384  0.3929
 6037TIP3   OH239669   3.436   6.256   7.713  0.6347  0.1686 -0.2472
 6037TIP3    H139670   3.346   6.279   7.688  0.6709  1.8910  1.0052
 6037TIP3    H239671   3.451   6.304   7.795  2.4886 -0.5757 -0.1004
 6038TIP3   OH239672   4.868   0.284   0.918 -0.4897 -0.1807 -0.7663
 6038TIP3    H139673   4.922   0.351   0.876 -0.0727 -0.0452 -0.0332
 6038TIP3    H239674   4.804   0.333   0.969  0.2191 -0.3050  0.2929
 6039TIP3   OH239675   6.364   2.696   6.663 -0.0104 -0.2778  0.9173
 6039TIP3    H139676   6.330   2.746   6.588 -2.3232 -0.1355  1.9754
 6039TIP3    H239677   6.449   2.663   6.633  0.5670  2.3136 -0.6599
 6040TIP3   OH239678   0.886   3.602   0.245 -0.2009  0.1631 -0.4375
 6040TIP3    H139679   0.976   3.598   0.278  0.0200 -0.2260 -1.0694
 6040TIP3    H239680   0.881   3.530   0.181 -0.9742  0.1495 -0.3668
 6041TIP3   OH239681   2.706   6.191   7.730  0.0188 -0.1779 -0.0005
 6041TIP3    H139682   2.614   6.200   7.706 -0.0211 -0.2471  0.1289
 6041TIP3    H239683   2.728   6.100   7.709  0.1046 -0.1149 -0.1916
 6042TIP3   OH239684   6.262   3.982   1.599 -0.4253  0.3545  0.4481
 6042TIP3    H139685   6.313   3.974   1.679  0.3335 -1.1305 -0.1254
 6042TIP3    H239686   6.310   3.929   1.535 -1.2291  1.1573 -0.8779
 6043TIP3   OH239687   4.407   6.595   0.308 -0.1704 -0.1372  0.5243
 6043TIP3    H139688   4.416   6.592   0.213  0.6881  0.9313  0.5507
 6043TIP3    H239689   4.495   6.614   0.340 -0.4383 -0.5147  1.5460
 6044TIP3   OH239690   5.651   0.674   8.021 -0.3142 -0.3916  0.0270
 6044TIP3    H139691   5.664   0.587   8.059 -0.8866 -1.1935 -1.5413
 6044TIP3    H239692   5.689   0.668   7.934 -0.3423  0.9507 -0.0982
 6045TIP3   OH239693   1.389   0.510   7.036  0.5723  0.8408 -0.2581
 6045TIP3    H139694   1.429   0.597   7.033  1.3847  0.5000  0.1550
 6045TIP3    H239695   1.445   0.461   7.097 -0.8092  0.5031  0.7846
 6046TIP3   OH239696   0.210   4.475   8.159  0.7876  0.6396 -0.0044
 6046TIP3    H139697   0.201   4.430   8.074  1.3939 -0.8251  0.6609
 6046TIP3    H239698   0.150   4.428   8.217  1.7539  0.3777  0.8154
 6047TIP3   OH239699   2.589   0.044   1.582 -0.2400  0.1739 -0.5828
 6047TIP3    H139700   2.580   0.129   1.538 -0.4137  0.6899  0.4267
 6047TIP3    H239701   2.600  -0.019   1.510 -0.5614  0.9860 -1.3629
 6048TIP3   OH239702   4.835   6.080   0.201 -0.1717 -0.1298  0.0337
 6048TIP3    H139703   4.824   6.048   0.112 -0.3294  0.9115 -0.3297
 6048TIP3    H239704   4.930   6.085   0.213 -0.1563  0.3401 -0.2977
 6049TIP3   OH239705   1.553   2.843   6.724 -0.0030 -0.7343 -0.2875
 6049TIP3    H139706   1.471   2.824   6.769  0.8104 -0.4015  1.4288
 6049TIP3    H239707   1.548   2.937   6.704  0.5754 -0.3488  1.2397
 6050TIP3   OH239708   2.751   6.202   6.870  0.2809  0.8265  0.3320
 6050TIP3    H139709   2.784   6.290   6.851  0.3087  0.5017 -1.2985
 6050TIP3    H239710   2.656   6.209   6.858  0.0283  1.0946  2.2403
 6051TIP3   OH239711   6.252   3.067   7.049 -0.3612 -0.5956  0.6627
 6051TIP3    H139712   6.281   3.080   6.959 -0.7676  1.7439  0.8087
 6051TIP3    H239713   6.324   3.101   7.103 -0.1809 -1.8462  1.2637
 6052TIP3   OH239714   6.181   5.175   1.601  0.4741  0.2414 -0.7202
 6052TIP3    H139715   6.094   5.213   1.592  1.2421  3.0401  1.9495
 6052TIP3    H239716   6.165   5.085   1.628 -1.5749  0.6147 -0.5327
 6053TIP3   OH239717   5.266   3.939   8.754 -0.2545 -0.5265 -0.0534
 6053TIP3    H139718   5.256   4.012   8.694 -1.6872 -1.0057 -0.4197
 6053TIP3    H239719   5.224   3.865   8.711  0.7671 -1.4824  0.5076
 6054TIP3   OH239720   0.345   1.940   8.478  0.0571 -0.1115  0.0159
 6054TIP3    H139721   0.436   1.962   8.499  0.6003 -1.7570 -0.4811
 6054TIP3    H239722   0.348   1.905   8.390 -1.2638  0.8791 -0.4651
 6055TIP3   OH239723   1.181   2.859   7.680 -0.2126 -0.3512 -0.3914
 6055TIP3    H139724   1.166   2.952   7.698  0.9684 -0.4904  1.7049
 6055TIP3    H239725   1.276   2.851   7.672 -0.4109 -0.8161 -4.7606
 6056TIP3   OH239726   6.790   2.480   6.463 -0.2625 -0.1570  0.3356
 6056TIP3    H139727   6.742   2.524   6.392 -2.1419 -0.9989  1.0044
 6056TIP3    H239728   6.762   2.389   6.458  1.9943 -0.9032  0.2441
 6057TIP3   OH239729   1.861   5.279   7.973 -0.1388 -0.1562  0.1445
 6057TIP3    H139730   1.945   5.317   8.000 -0.8694  1.2180  0.6441
 6057TIP3    H239731   1.796   5.340   8.009 -1.3339 -1.0075 -0.5200
 6058TIP3   OH239732   3.112   2.430   2.460 -0.2043 -0.1169 -0.4736
 6058TIP3    H139733   3.173   2.484   2.509  0.1316  0.5314 -1.5755
 6058TIP3    H239734   3.160   2.405   2.381 -1.2074  0.0626 -1.1622
 6059TIP3   OH239735   3.509   1.786   8.373 -0.4886 -0.0991 -0.8196
 6059TIP3    H139736   3.594   1.756   8.341 -0.1425  0.5546 -0.5250
 6059TIP3    H239737   3.523   1.805   8.465 -1.2906 -1.2296 -0.4353
 6060TIP3   OH239738   1.422   3.773   6.630 -0.2545  0.1369 -0.4280
 6060TIP3    H139739   1.420   3.783   6.725 -2.0348 -1.3999 -0.2482
 6060TIP3    H239740   1.432   3.863   6.597  0.5881  0.6848  1.1662
 6061TIP3   OH239741   0.972   4.923   1.713 -0.5563 -0.1347  0.0713
 6061TIP3    H139742   0.891   4.887   1.749 -0.1490 -0.2480  0.8882
 6061TIP3    H239743   1.026   4.942   1.789 -0.3556  1.2631 -0.3825
 6062TIP3   OH239744   0.483   2.089   2.482  0.4568 -0.0386 -0.4639
 6062TIP3    H139745   0.469   2.183   2.471 -0.5012 -0.1707 -0.4614
 6062TIP3    H239746   0.396   2.054   2.499  0.9142 -0.8275  0.3251
 6063TIP3   OH239747   2.521   1.066   7.638  0.4506 -0.3879  0.1915
 6063TIP3    H139748   2.551   0.980   7.666  0.5104 -0.3628  0.2054
 6063TIP3    H239749   2.561   1.079   7.552  1.8164  0.3243  0.8950
 6064TIP3   OH239750   3.509   5.646   6.877  0.3310 -0.7121  0.2727
 6064TIP3    H139751   3.443   5.604   6.821 -1.3492  2.1211 -0.0246
 6064TIP3    H239752   3.500   5.602   6.961 -0.4535 -1.8109 -0.3522
 6065TIP3   OH239753   5.095   5.758   2.745 -0.0327 -0.0790 -0.1021
 6065TIP3    H139754   5.019   5.814   2.762 -0.3060  0.1285 -1.7904
 6065TIP3    H239755   5.058   5.677   2.710  0.4825 -0.3503 -0.0324
 6066TIP3   OH239756   0.779   5.188   3.033 -0.3321 -0.6607  0.9231
 6066TIP3    H139757   0.761   5.223   3.121  0.5882 -1.1539  1.3253
 6066TIP3    H239758   0.746   5.099   3.035 -1.0145 -0.4293  0.4959
 6067TIP3   OH239759   1.089   3.131   7.495  0.1657  0.0109  0.0573
 6067TIP3    H139760   1.021   3.180   7.449  1.8659  2.0391 -0.4888
 6067TIP3    H239761   1.112   3.060   7.435 -1.5810 -0.8568  0.3621
 6068TIP3   OH239762   5.893   3.293   8.673  0.2394 -0.1159  0.9966
 6068TIP3    H139763   5.866   3.305   8.764 -1.4765 -0.1067  0.5196
 6068TIP3    H239764   5.890   3.381   8.636 -1.9142 -0.4665  0.2225
 6069TIP3   OH239765   3.024   5.021   1.009 -0.0988 -0.0540 -0.6939
 6069TIP3    H139766   3.117   5.006   0.995  0.5268  2.0867  0.6037
 6069TIP3    H239767   2.992   5.052   0.925  0.4786 -0.3071 -1.0113
 6070TIP3   OH239768   1.113   3.695   1.804 -0.7983  0.2533 -0.5109
 6070TIP3    H139769   1.185   3.658   1.753  0.7927  0.7964  1.2499
 6070TIP3    H239770   1.034   3.655   1.766  0.4927 -1.2739 -1.7298
 6071TIP3   OH239771   3.902   1.292   8.116  0.5530  0.5968 -0.3526
 6071TIP3    H139772   3.817   1.285   8.072  1.2745 -3.1660 -1.5203
 6071TIP3    H239773   3.884   1.344   8.195 -2.8941 -0.3279 -0.3741
 6072TIP3   OH239774   3.643   5.183   8.428 -0.5053  0.3221  0.0690
 6072TIP3    H139775   3.671   5.091   8.425 -1.6290 -0.0129 -0.5346
 6072TIP3    H239776   3.690   5.219   8.503  1.9043 -0.0754 -1.1446
 6073TIP3   OH239777   0.595   1.440   0.079  0.0917  0.3059  0.6186
 6073TIP3    H139778   0.637   1.486   0.152 -1.7003 -0.2993  2.0974
 6073TIP3    H239779   0.521   1.394   0.119 -0.6460 -0.4649 -1.5148
 6074TIP3   OH239780   0.233   6.333   0.622  0.0624  0.0152 -0.5444
 6074TIP3    H139781   0.193   6.377   0.697 -0.7949 -1.2043 -0.2627
 6074TIP3    H239782   0.242   6.402   0.556  0.0154  0.9069  0.3506
 6075TIP3   OH239783   1.711   3.614   7.851  0.0979  0.1176  0.1475
 6075TIP3    H139784   1.630   3.615   7.799  0.8429 -1.1805 -1.0880
 6075TIP3    H239785   1.713   3.527   7.889  0.2348  0.6222  1.3324
 6076TIP3   OH239786   4.074   6.595   2.343  0.1924  0.0603  0.2838
 6076TIP3    H139787   4.007   6.544   2.297 -0.5300  0.1667  1.1881
 6076TIP3    H239788   4.085   6.551   2.427  0.2845  0.8099  0.6752
 6077TIP3   OH239789   4.464   6.815   1.538 -0.0273 -0.3527  0.7543
 6077TIP3    H139790   4.369   6.800   1.536  0.0232 -0.6544  0.4194
 6077TIP3    H239791   4.473   6.910   1.529 -0.3661 -0.0080  3.3966
 6078TIP3   OH239792   3.894   4.569   2.817 -0.4278  0.2037 -0.2482
 6078TIP3    H139793   3.835   4.644   2.826 -0.2778  0.1834  1.0743
 6078TIP3    H239794   3.861   4.505   2.880  0.9804  0.1814  0.5041
 6079TIP3   OH239795   1.977   5.520   6.932  0.3073  0.6724  1.1122
 6079TIP3    H139796   2.066   5.555   6.946  0.9501 -0.1571 -0.6118
 6079TIP3    H239797   1.989   5.425   6.930 -0.0719  0.5754 -1.8838
 6080TIP3   OH239798   2.940   3.399   0.976 -0.1767 -0.2945  0.6890
 6080TIP3    H139799   2.920   3.315   0.934 -1.2909  0.0436  0.5084
 6080TIP3    H239800   3.027   3.423   0.942  0.0015 -1.2036  0.4831
 6081TIP3   OH239801   2.082   4.084   7.453  0.1472 -0.4496  0.2031
 6081TIP3    H139802   2.153   4.022   7.463 -0.1591 -0.9505 -0.6124
 6081TIP3    H239803   2.069   4.091   7.358  0.8485  1.6373  0.2043
 6082TIP3   OH239804   2.197   0.525   7.117  0.1151 -0.2343  0.4546
 6082TIP3    H139805   2.244   0.585   7.174 -0.3003  0.9575 -0.4196
 6082TIP3    H239806   2.260   0.501   7.049  0.0706 -0.2492  0.4182
 6083TIP3   OH239807   6.775   1.329   0.180 -0.2560  0.6219  0.0369
 6083TIP3    H139808   6.760   1.267   0.109  0.9533 -0.0355  0.3301
 6083TIP3    H239809   6.845   1.290   0.232  0.5310  2.1974  0.2435
 6084TIP3   OH239810   6.746   6.039   2.280 -0.0080  0.1273  0.0264
 6084TIP3    H139811   6.786   5.954   2.298  1.6597  1.1208  1.2305
 6084TIP3    H239812   6.813   6.088   2.233 -0.5481  1.1726  0.3210
 6085TIP3   OH239813   5.276   0.630   7.115  0.0745  0.2948 -0.3889
 6085TIP3    H139814   5.273   0.540   7.145  0.7710  0.1558 -0.7051
 6085TIP3    H239815   5.193   0.668   7.143 -0.9597 -0.8986 -1.6987
 6086TIP3   OH239816   3.357   6.832   8.525  0.1423 -0.6332  0.8288
 6086TIP3    H139817   3.430   6.887   8.552  0.0712 -1.1552  2.1549
 6086TIP3    H239818   3.396   6.766   8.467  0.2614  0.6265 -0.5895
 6087TIP3   OH239819   1.711   4.366   1.001  0.1026 -0.3166  0.5658
 6087TIP3    H139820   1.773   4.429   1.037  0.1239 -0.2889  0.4790
 6087TIP3    H239821   1.703   4.389   0.909  0.0451 -0.3872  0.5528
 6088TIP3   OH239822   6.060   5.575   7.475 -0.2066  0.3222  0.4483
 6088TIP3    H139823   6.050   5.480   7.487 -0.7297  0.2505 -0.4991
 6088TIP3    H239824   5.986   5.600   7.420  0.4013  1.1430 -0.0086
 6089TIP3   OH239825   5.351   6.760   8.046  0.0911  0.1775  0.2499
 6089TIP3    H139826   5.329   6.675   8.084 -0.2822  0.7923  1.4803
 6089TIP3    H239827   5.270   6.811   8.054  1.0000  1.4749  1.9731
 6090TIP3   OH239828   3.408   3.808   2.565 -0.3084 -0.4214 -0.2284
 6090TIP3    H139829   3.455   3.737   2.609 -0.4390  0.5005  1.4828
 6090TIP3    H239830   3.475   3.875   2.549 -0.6519  0.1286  0.5474
 6091TIP3   OH239831   6.728   1.659   1.877 -0.5923 -0.0595  0.7933
 6091TIP3    H139832   6.774   1.587   1.835  0.3315  0.4300  0.9234
 6091TIP3    H239833   6.689   1.621   1.956 -0.3521 -0.4712  0.7142
 6092TIP3   OH239834   1.164   3.110   8.586  0.0471 -0.4668 -0.2674
 6092TIP3    H139835   1.176   3.015   8.583  0.9715 -0.3418 -1.5065
 6092TIP3    H239836   1.096   3.128   8.520  0.6827 -0.1837 -0.8647
 6093TIP3   OH239837   5.175   4.894   8.334 -0.2755 -0.0024  0.4480
 6093TIP3    H139838   5.238   4.865   8.399  0.1739 -0.7287 -0.2905
 6093TIP3    H239839   5.105   4.829   8.336 -1.4984  1.2756  1.9026
 6094TIP3   OH239840   5.174   0.312   6.701 -0.4563  0.4113  0.1539
 6094TIP3    H139841   5.171   0.225   6.660 -0.9785  1.2848 -1.7574
 6094TIP3    H239842   5.086   0.347   6.691 -0.5578  0.7494  1.9307
 6095TIP3   OH239843   3.665   5.045   0.106 -0.2828 -0.0097 -0.3736
 6095TIP3    H139844   3.751   5.079   0.129  0.0940  0.1184 -1.8965
 6095TIP3    H239845   3.661   4.959   0.148  0.2259  0.3389  0.4203
 6096TIP3   OH239846   2.112   1.190   1.213  0.5714  0.0079  0.1114
 6096TIP3    H139847   2.070   1.262   1.260  0.7862 -0.5948  1.2784
 6096TIP3    H239848   2.143   1.132   1.283 -1.2915 -2.2210 -0.8032
 6097TIP3   OH239849   1.665   0.082   0.203 -0.0070 -0.1732  0.1075
 6097TIP3    H139850   1.701   0.035   0.128  0.5102  0.4970 -0.0785
 6097TIP3    H239851   1.674   0.174   0.179  2.6854  0.1898  2.0735
 6098TIP3   OH239852   6.764   6.269   8.126  0.1592 -0.4275 -0.1615
 6098TIP3    H139853   6.728   6.237   8.043 -0.9570 -0.5957  0.3653
 6098TIP3    H239854   6.733   6.359   8.133  2.5384  0.5481 -1.2053
 6099TIP3   OH239855   0.759   1.100   8.348 -0.1436  0.2569  0.1919
 6099TIP3    H139856   0.723   1.022   8.305 -1.6383  1.8593 -1.6739
 6099TIP3    H239857   0.727   1.095   8.438 -0.8699 -0.8868 -0.1166
 6100TIP3   OH239858   5.211   0.668   1.108 -0.1696  0.0572  0.2192
 6100TIP3    H139859   5.206   0.660   1.013  1.9366 -1.1641  0.1452
 6100TIP3    H239860   5.131   0.626   1.140  0.4336 -2.1354 -0.9642
 6101TIP3   OH239861   1.740   6.281   7.311 -0.0070  0.1011 -0.5524
 6101TIP3    H139862   1.785   6.223   7.373 -0.4635  1.2237  0.8893
 6101TIP3    H239863   1.787   6.364   7.317 -1.8931  1.1702  0.6609
 6102TIP3   OH239864   3.020   0.447   0.196 -0.0838 -0.1877 -0.2057
 6102TIP3    H139865   2.955   0.516   0.206 -0.1618 -0.4873  1.8695
 6102TIP3    H239866   3.016   0.398   0.279  0.7004 -2.0378 -1.1940
 6103TIP3   OH239867   5.140   4.981   1.775  0.4051 -0.3088 -0.1625
 6103TIP3    H139868   5.212   4.974   1.837  1.2494 -1.7154 -1.2391
 6103TIP3    H239869   5.071   4.926   1.813  0.9491 -1.2331 -0.4718
 6104TIP3   OH239870   2.192   6.484   1.505  0.2852 -0.4841  0.2119
 6104TIP3    H139871   2.240   6.402   1.513 -1.1737 -1.5295 -1.2106
 6104TIP3    H239872   2.208   6.529   1.588  1.2425 -2.1082  0.9643
 6105TIP3   OH239873   3.798   3.890   6.906  0.0071 -0.0308 -0.0971
 6105TIP3    H139874   3.702   3.883   6.902 -0.0577 -0.7106  1.8366
 6105TIP3    H239875   3.815   3.959   6.970  0.7537 -2.1531  2.1492
 6106TIP3   OH239876   0.440   6.183   6.764  0.2287  0.2836  0.6234
 6106TIP3    H139877   0.487   6.182   6.680  0.5847  2.7765  0.7215
 6106TIP3    H239878   0.364   6.239   6.748  0.5378  1.1601  2.0727
 6107TIP3   OH239879   5.719   0.266   0.943  0.0934  0.0707 -0.5710
 6107TIP3    H139880   5.671   0.219   1.012 -0.8400  0.5835 -0.8584
 6107TIP3    H239881   5.810   0.258   0.969 -0.0051 -2.1306 -0.7455
 6108TIP3   OH239882   3.731   3.619   0.846  0.4418 -0.3512  0.3387
 6108TIP3    H139883   3.771   3.700   0.817 -1.4992  0.0551 -1.4930
 6108TIP3    H239884   3.715   3.631   0.939  0.5137  1.2321  0.1625
 6109TIP3   OH239885   3.823   3.213   7.212  0.1069  0.4969  0.2844
 6109TIP3    H139886   3.791   3.261   7.288  3.0310  1.9115  0.7902
 6109TIP3    H239887   3.824   3.276   7.141  0.3639  0.0850 -0.0880
 6110TIP3   OH239888   2.154   0.621   0.727  0.0022  0.5731  0.3718
 6110TIP3    H139889   2.159   0.618   0.823  1.0638  0.8930  0.3329
 6110TIP3    H239890   2.087   0.687   0.709 -0.5644  0.1523  0.8880
 6111TIP3   OH239891   6.626   3.626   7.165  0.1557 -0.2914  0.1696
 6111TIP3    H139892   6.615   3.579   7.082  1.4183 -0.8925  0.3182
 6111TIP3    H239893   6.627   3.719   7.140 -0.4251 -0.4182 -0.3555
 6112TIP3   OH239894   1.474   4.820   7.159  0.5925  0.3430  0.1062
 6112TIP3    H139895   1.458   4.726   7.154  1.7658  0.0793  0.9541
 6112TIP3    H239896   1.397   4.860   7.117  0.2514 -0.9890 -0.5906
 6113TIP3   OH239897   5.596   6.283   0.390 -0.1377  0.1200  0.0796
 6113TIP3    H139898   5.642   6.356   0.348  0.5430 -0.3652 -0.0319
 6113TIP3    H239899   5.655   6.254   0.459  0.4688 -1.5339 -1.0728
 6114TIP3   OH239900   5.303   1.102   2.570 -0.0321  0.3099 -0.2108
 6114TIP3    H139901   5.368   1.033   2.578 -0.1758  0.1273 -0.5677
 6114TIP3    H239902   5.223   1.064   2.606 -0.4752 -0.2316 -1.6825
 6115TIP3   OH239903   2.952   6.180   7.347  0.0135  0.0895  0.1770
 6115TIP3    H139904   3.045   6.184   7.324 -0.2969 -0.7972 -1.3226
 6115TIP3    H239905   2.906   6.186   7.264 -1.2807  0.1148  0.8687
 6116TIP3   OH239906   5.819   0.585   1.086 -0.3411  0.1557 -0.0456
 6116TIP3    H139907   5.801   0.670   1.045 -1.4972 -0.1750 -0.2636
 6116TIP3    H239908   5.865   0.535   1.018  0.2304  0.5521  0.0404
 6117TIP3   OH239909   3.947   5.682   8.122  0.2424  0.1262 -0.4636
 6117TIP3    H139910   4.015   5.668   8.188 -1.1858 -3.8656  0.4655
 6117TIP3    H239911   3.877   5.727   8.168  0.5242  0.2856 -0.1886
 6118TIP3   OH239912   2.492   0.866   1.689 -0.0487  0.1122  0.9570
 6118TIP3    H139913   2.586   0.882   1.679 -0.1121 -0.2317 -0.4178
 6118TIP3    H239914   2.456   0.951   1.716  0.3159  1.0157 -1.1831
 6119TIP3   OH239915   1.077   1.420   7.509 -0.7167 -0.3076 -0.1166
 6119TIP3    H139916   1.087   1.424   7.414  3.3476  0.2832  0.1535
 6119TIP3    H239917   1.107   1.506   7.540  2.0023 -1.7667  1.7538
 6120TIP3   OH239918   5.881   4.936   7.613 -0.2546 -0.0386  0.2471
 6120TIP3    H139919   5.859   4.992   7.688 -3.1257  1.0653 -1.2664
 6120TIP3    H239920   5.877   4.995   7.537  2.4595 -1.1324 -0.8814
 6121TIP3   OH239921   5.941   0.884   7.724 -0.2253  0.1329  0.4888
 6121TIP3    H139922   6.035   0.900   7.731 -0.4105  0.7795  1.8927
 6121TIP3    H239923   5.921   0.826   7.798 -0.9565  0.1550  0.3157
 6122TIP3   OH239924   5.003   3.860   8.223 -0.3874 -0.1759  0.2018
 6122TIP3    H139925   5.056   3.940   8.222  0.0663 -0.4680  0.4949
 6122TIP3    H239926   4.944   3.869   8.149  0.1780  0.0864 -0.2179
 6123TIP3   OH239927   4.562   3.718   1.168 -0.4763 -0.6331 -0.0357
 6123TIP3    H139928   4.609   3.673   1.237  0.5345 -1.8219 -1.4487
 6123TIP3    H239929   4.588   3.810   1.177  0.6239 -0.9732  0.3884
 6124TIP3   OH239930   2.985   1.401   8.764 -0.4182 -0.2920 -0.6333
 6124TIP3    H139931   3.038   1.322   8.763  0.3280  0.1934 -1.0814
 6124TIP3    H239932   3.020   1.454   8.692 -1.5682  0.0146 -0.9843
 6125TIP3   OH239933   0.525   1.132   1.177 -0.8110 -0.0503  0.0713
 6125TIP3    H139934   0.454   1.118   1.114 -0.9512 -1.0288  0.4295
 6125TIP3    H239935   0.564   1.045   1.189  0.7185  0.5334 -0.4198
 6126TIP3   OH239936   5.411   0.394   6.768 -0.0529 -0.5026  0.1552
 6126TIP3    H139937   5.337   0.366   6.714  0.5138  0.4137 -1.1304
 6126TIP3    H239938   5.446   0.313   6.805 -1.6552 -0.9511  0.7526
 6127TIP3   OH239939   6.592   4.077   0.749  0.1855  0.5651  0.4735
 6127TIP3    H139940   6.507   4.114   0.773 -0.5225 -0.8131  0.2181
 6127TIP3    H239941   6.577   4.034   0.665  1.0055 -0.1212  0.6596
 6128TIP3   OH239942   6.010   2.444   8.392  0.4133  0.2465 -0.0548
 6128TIP3    H139943   6.005   2.349   8.380  0.3159  0.3709 -1.0970
 6128TIP3    H239944   6.063   2.456   8.472  0.2690 -0.6798  0.1856
 6129TIP3   OH239945   5.421   6.695   8.512  0.1157 -0.6181  0.7534
 6129TIP3    H139946   5.472   6.756   8.459  0.4927 -1.3595  0.2454
 6129TIP3    H239947   5.337   6.687   8.468  0.6739 -1.7726 -0.1577
 6130TIP3   OH239948   3.389   6.211   8.448 -0.0558  0.6166 -0.0628
 6130TIP3    H139949   3.319   6.196   8.512  0.6554 -0.9653  0.3982
 6130TIP3    H239950   3.411   6.304   8.457 -1.3193  0.8669  0.5827
 6131TIP3   OH239951   4.837   6.792   6.672 -0.3218  0.0707 -0.3212
 6131TIP3    H139952   4.752   6.814   6.711  0.5214  0.0545  1.6303
 6131TIP3    H239953   4.896   6.862   6.699  0.5982 -0.5930 -0.5484
 6132TIP3   OH239954   3.831   4.504   0.079 -0.1013  0.5552 -0.2485
 6132TIP3    H139955   3.762   4.457   0.126  0.0941 -1.4623 -1.8458
 6132TIP3    H239956   3.852   4.447   0.005  3.5235  0.9070  0.3522
 6133TIP3   OH239957   5.119   0.892   1.862  0.0587 -0.2601  0.0157
 6133TIP3    H139958   5.184   0.831   1.897  0.0007  0.1008  0.7891
 6133TIP3    H239959   5.042   0.878   1.917 -0.6105 -0.8533 -1.0448
 6134TIP3   OH239960   0.651   3.327   0.307  0.3645 -0.2579 -0.4379
 6134TIP3    H139961   0.621   3.236   0.306 -0.7593  0.0888 -2.2897
 6134TIP3    H239962   0.727   3.329   0.250  1.6860 -0.3766  1.2245
 6135TIP3   OH239963   0.869   2.911   0.182 -0.1961 -0.0847  0.2254
 6135TIP3    H139964   0.850   2.817   0.187  0.8780 -0.2839  0.9021
 6135TIP3    H239965   0.785   2.953   0.201 -0.8576 -0.8850 -0.7584
 6136TIP3   OH239966   0.816   0.740   6.406 -0.6904 -0.1053  0.9139
 6136TIP3    H139967   0.864   0.657   6.400  1.9635  1.3697  0.5347
 6136TIP3    H239968   0.731   0.720   6.366  0.2781 -2.3452 -0.2440
 6137TIP3   OH239969   3.988   1.378   1.594 -0.4115  0.0353  0.8079
 6137TIP3    H139970   4.074   1.409   1.565 -1.8742  1.5237 -2.3860
 6137TIP3    H239971   3.945   1.455   1.630 -0.7948 -0.4916  1.5197
 6138TIP3   OH239972   5.637   4.799   7.577  0.2510 -0.3545 -0.0472
 6138TIP3    H139973   5.617   4.773   7.667  0.7002  1.4757  0.6102
 6138TIP3    H239974   5.732   4.812   7.577  0.2410 -0.2628 -0.7655
 6139TIP3   OH239975   0.985   4.050   0.232 -0.2681  0.0713 -0.0539
 6139TIP3    H139976   0.959   4.047   0.140 -1.7567 -2.0945  0.3628
 6139TIP3    H239977   0.934   4.123   0.268 -0.6412  0.1380 -0.6888
 6140TIP3   OH239978   2.943   0.093   2.083 -0.3408  1.2413  1.1848
 6140TIP3    H139979   2.960   0.186   2.098  1.9444  0.9048  1.1250
 6140TIP3    H239980   3.015   0.048   2.128 -1.1068 -0.4815  0.7992
 6141TIP3   OH239981   6.456   6.756   0.900  0.0658 -0.4931 -0.2115
 6141TIP3    H139982   6.517   6.828   0.880 -1.6497  1.1314  0.0602
 6141TIP3    H239983   6.499   6.678   0.866  2.4014  0.5224  0.2177
 6142TIP3   OH239984   5.706   0.302   0.149  0.5904 -0.2493  0.2359
 6142TIP3    H139985   5.739   0.279   0.062  1.2044  1.2421  0.0372
 6142TIP3    H239986   5.635   0.364   0.131  1.6971  1.2341  0.7938
 6143TIP3   OH239987   6.074   1.671   2.390  0.0867  0.4370 -0.1996
 6143TIP3    H139988   6.154   1.625   2.362 -0.0732  0.5164 -0.8069
 6143TIP3    H239989   6.027   1.607   2.442  0.6767  0.4767  0.3976
 6144TIP3   OH239990   0.204   2.110   7.493 -0.1132 -0.0419 -0.0370
 6144TIP3    H139991   0.206   2.016   7.474  2.9997 -0.1964  0.4531
 6144TIP3    H239992   0.151   2.147   7.423 -0.5877 -2.0585 -0.8371
 6145TIP3   OH239993   0.293   4.000   2.031  0.2576  0.2233  0.9569
 6145TIP3    H139994   0.380   3.996   1.992  0.6488  0.3691  1.7937
 6145TIP3    H239995   0.265   3.909   2.039 -0.2574  0.2256 -0.5811
 6146TIP3   OH239996   0.393   3.983   0.204  0.1091 -0.3474 -0.4173
 6146TIP3    H139997   0.299   3.968   0.210  0.3427 -1.8974 -0.0149
 6146TIP3    H239998   0.429   3.937   0.281  1.1207  1.0338 -0.0291
 6147TIP3   OH239999   1.430   2.500   7.008  0.5027  0.0068 -0.0998
 6147TIP3    H140000   1.345   2.529   6.977  2.0478  2.2962 -2.6992
 6147TIP3    H240001   1.433   2.527   7.100 -0.8011  1.8644 -0.5362
 6148TIP3   OH240002   3.157   2.193   7.662  0.2870 -0.3508 -0.4648
 6148TIP3    H140003   3.092   2.187   7.592 -1.4502 -1.3929  1.1155
 6148TIP3    H240004   3.237   2.159   7.623 -0.4251 -0.2004 -2.1537
 6149TIP3   OH240005   2.232   3.237   2.416  0.4723  0.1746  0.0602
 6149TIP3    H140006   2.218   3.144   2.397  1.8538  0.0096 -0.2659
 6149TIP3    H240007   2.308   3.238   2.473  0.4225  1.1138  0.1200
 6150TIP3   OH240008   3.822   0.095   0.236  0.0051  0.0471 -0.7447
 6150TIP3    H140009   3.728   0.075   0.242 -0.0238 -0.3187 -2.1182
 6150TIP3    H240010   3.848   0.063   0.149  1.5340 -0.3649 -0.1697
 6151TIP3   OH240011   3.584   1.884   2.315 -0.6644  0.7928 -0.2603
 6151TIP3    H140012   3.610   1.869   2.224  1.7784  1.2604  0.2638
 6151TIP3    H240013   3.554   1.974   2.317  0.0916  1.0614 -0.4850
 6152TIP3   OH240014   4.935   1.096   8.356  0.0225  0.0345 -0.1742
 6152TIP3    H140015   4.993   1.022   8.371 -1.9293 -1.6131 -0.3127
 6152TIP3    H240016   4.853   1.071   8.399 -1.1638  1.4603 -1.4881
 6153TIP3   OH240017   2.595   0.489   8.163 -0.5087 -0.1587 -0.0798
 6153TIP3    H140018   2.557   0.403   8.147 -0.4437 -0.3412  0.7055
 6153TIP3    H240019   2.689   0.474   8.167 -0.5086 -0.0958  0.2608
 6154TIP3   OH240020   0.084   2.742   8.062 -0.5440  0.7923  0.3243
 6154TIP3    H140021   0.004   2.714   8.107  0.3535 -1.8300  0.4993
 6154TIP3    H240022   0.074   2.709   7.972  0.7567 -0.6617  0.6538
 6155TIP3   OH240023   0.804   0.362   1.372  0.0054 -0.4486 -0.4963
 6155TIP3    H140024   0.797   0.283   1.425 -2.3276 -0.4809 -0.7517
 6155TIP3    H240025   0.783   0.433   1.432  0.6900 -0.1566 -0.5992
 6156TIP3   OH240026   2.173   0.270   0.425 -0.2872  0.0456  0.7017
 6156TIP3    H140027   2.147   0.185   0.388  0.6574 -0.6697  1.6206
 6156TIP3    H240028   2.208   0.319   0.351  0.0004 -0.7131  0.3243
 6157TIP3   OH240029   1.632   2.891   7.432  0.0289  0.5283 -0.3593
 6157TIP3    H140030   1.710   2.946   7.446  0.3332  0.2854 -1.0495
 6157TIP3    H240031   1.622   2.888   7.337 -0.2127 -0.2946 -0.3139
 6158TIP3   OH240032   5.373   3.205   8.067 -0.5030  0.4039  0.0534
 6158TIP3    H140033   5.412   3.230   7.983 -0.3022 -1.1083 -0.3490
 6158TIP3    H240034   5.445   3.169   8.117 -1.3659 -3.5160 -1.1343
 6159TIP3   OH240035   5.014   6.269   7.514  0.1734 -0.0114  0.1332
 6159TIP3    H140036   5.076   6.200   7.489  0.1772  0.1511 -0.3108
 6159TIP3    H240037   4.945   6.222   7.562 -1.0238 -0.7100 -2.1478
 6160TIP3   OH240038   2.017   0.473   2.997 -0.1109  0.0177 -0.3343
 6160TIP3    H140039   1.967   0.451   3.075  0.5600 -0.7825 -0.1236
 6160TIP3    H240040   2.019   0.569   2.997 -3.0697  0.1723 -1.2766
 6161TIP3   OH240041   0.558   2.989   6.545 -0.3217  0.3995 -0.1937
 6161TIP3    H140042   0.642   3.016   6.507  0.4319 -0.0457  1.1186
 6161TIP3    H240043   0.525   3.067   6.589 -0.5697  0.5500 -0.6363
 6162TIP3   OH240044   5.988   1.459   2.507  0.2274 -0.6903  0.2796
 6162TIP3    H140045   6.035   1.391   2.458 -0.5894  0.1307 -1.7285
 6162TIP3    H240046   5.932   1.410   2.567  0.6219 -1.7576 -0.1962
 6163TIP3   OH240047   1.345   6.415   1.641  0.0007 -0.1703 -0.3478
 6163TIP3    H140048   1.371   6.444   1.729 -1.7459  1.3748 -0.2793
 6163TIP3    H240049   1.347   6.319   1.646 -0.8419 -0.1448  1.6568
 6164TIP3   OH240050   1.145   2.876   2.377 -0.4412  0.6361  0.0199
 6164TIP3    H140051   1.100   2.950   2.337 -1.7287  0.6063  1.3257
 6164TIP3    H240052   1.119   2.879   2.469 -0.0369 -1.0923  0.2249
 6165TIP3   OH240053   2.411   4.678   1.655 -0.1558  0.6113 -0.1949
 6165TIP3    H140054   2.405   4.674   1.560 -3.9729  0.9324 -0.1178
 6165TIP3    H240055   2.490   4.730   1.672  2.0521 -1.4753 -2.9999
 6166TIP3   OH240056   4.741   3.428   0.829  0.0338 -0.1274  0.6201
 6166TIP3    H140057   4.689   3.407   0.752  2.0438  0.8330 -1.0857
 6166TIP3    H240058   4.828   3.395   0.810  0.5290 -0.1491  2.6362
 6167TIP3   OH240059   2.169   4.190   8.542 -0.2941 -0.1927  0.0721
 6167TIP3    H140060   2.250   4.207   8.590 -0.6689 -0.4068  0.7931
 6167TIP3    H240061   2.100   4.217   8.602 -0.7561  3.1372 -1.7149
 6168TIP3   OH240062   5.118   0.126   8.050  0.0757 -0.2307 -0.3221
 6168TIP3    H140063   5.139   0.211   8.011 -0.4947  0.3670  0.6310
 6168TIP3    H240064   5.040   0.143   8.102  0.8855 -0.9594  1.1935
 6169TIP3   OH240065   2.054   4.400   1.989 -0.1795  0.2896  0.2981
 6169TIP3    H140066   2.038   4.324   2.045 -1.3822  0.7849  0.6604
 6169TIP3    H240067   2.011   4.378   1.907  2.1006 -0.6965 -0.7224
 6170TIP3   OH240068   3.046   6.348   1.167 -0.5728 -0.3193 -0.5765
 6170TIP3    H140069   3.010   6.419   1.114 -0.1402  0.1411 -0.2780
 6170TIP3    H240070   3.134   6.334   1.131 -0.7822 -0.9472 -0.8551
 6171TIP3   OH240071   1.017   0.975   8.564  0.0078  0.5474  0.1869
 6171TIP3    H140072   0.997   1.037   8.495  0.8251  0.5584 -0.0521
 6171TIP3    H240073   0.945   0.912   8.562 -0.1998  0.8010 -0.3779
 6172TIP3   OH240074   4.069   1.294   7.546 -0.5236  0.2240 -0.6038
 6172TIP3    H140075   3.976   1.302   7.527 -1.4287  1.1189  3.3471
 6172TIP3    H240076   4.076   1.221   7.608  1.0820  1.3078  0.5923
 6173TIP3   OH240077   0.029   4.673   2.696 -0.0799  0.4297  0.0521
 6173TIP3    H140078   0.085   4.697   2.770  0.5278  1.8893 -0.8421
 6173TIP3    H240079  -0.037   4.742   2.692  0.0945  0.5552 -0.9558
 6174TIP3   OH240080   6.032   2.920   7.218  0.4594 -0.5982 -0.1872
 6174TIP3    H140081   6.053   2.827   7.225  1.3488 -0.3539  0.5713
 6174TIP3    H240082   6.104   2.957   7.166 -0.1857 -0.4221 -0.9786
 6175TIP3   OH240083   2.433   6.709   0.960  0.3188 -0.3695 -0.6171
 6175TIP3    H140084   2.396   6.793   0.986  0.5168 -0.2300 -0.7871
 6175TIP3    H240085   2.410   6.650   1.032  2.4366  0.4315  0.8192
 6176TIP3   OH240086   3.746   1.532   0.095 -0.3590  0.2953 -0.3726
 6176TIP3    H140087   3.687   1.549   0.168 -0.3702 -0.1718 -0.2659
 6176TIP3    H240088   3.694   1.549   0.017 -0.8007 -0.6218 -0.2878
 6177TIP3   OH240089   6.190   3.907   0.877  0.3099  0.5816 -0.2385
 6177TIP3    H140090   6.220   3.841   0.940  2.7674  0.7430 -1.1180
 6177TIP3    H240091   6.214   3.991   0.917 -0.0491  0.7914 -0.4565
 6178TIP3   OH240092   5.285   1.664   7.656 -0.2679 -0.1030 -0.2705
 6178TIP3    H140093   5.226   1.729   7.694  0.9853  0.8002  0.1881
 6178TIP3    H240094   5.295   1.598   7.726 -0.4215 -0.0456 -0.1946
 6179TIP3   OH240095   0.393   1.798   8.242 -0.0203 -0.4259  0.3135
 6179TIP3    H140096   0.350   1.734   8.185 -0.9381 -0.6154  1.1744
 6179TIP3    H240097   0.483   1.767   8.250  0.0445 -0.5524 -0.7883
 6180TIP3   OH240098   2.184   4.114   0.821  0.2839 -0.0644 -0.0002
 6180TIP3    H140099   2.248   4.057   0.778 -0.4367 -0.8828 -0.0191
 6180TIP3    H240100   2.203   4.201   0.787 -0.8617 -0.7937 -2.7986
 6181TIP3   OH240101   2.180   0.238   8.208  0.1342 -0.0879  0.0769
 6181TIP3    H140102   2.140   0.306   8.155 -1.0445  0.6998  1.8798
 6181TIP3    H240103   2.175   0.271   8.298  2.9148 -0.9287  0.6412
 6182TIP3   OH240104   1.976   6.493   8.628  0.3562 -0.0545  0.4131
 6182TIP3    H140105   2.020   6.501   8.712 -0.3418 -0.6667  0.8512
 6182TIP3    H240106   1.903   6.554   8.633  0.3959  0.0103  0.2025
 6183TIP3   OH240107   5.197   1.548   8.553 -0.4787 -0.0031 -0.2921
 6183TIP3    H140108   5.111   1.564   8.591  0.6427 -1.0764  3.1479
 6183TIP3    H240109   5.252   1.618   8.590  0.6805 -1.0600  0.0454
 6184TIP3   OH240110   2.778   1.121   0.965 -0.1298 -0.0835  0.0037
 6184TIP3    H140111   2.785   1.068   1.045  0.1208  0.6343  0.4709
 6184TIP3    H240112   2.716   1.190   0.988 -1.8806 -1.1884 -1.1881
 6185TIP3   OH240113   3.202   3.749   0.654  0.3976  0.7275 -0.0564
 6185TIP3    H140114   3.223   3.838   0.624  2.5938 -0.2289 -1.6835
 6185TIP3    H240115   3.166   3.705   0.577 -1.9713  0.4985  1.0846
 6186TIP3   OH240116   1.255   6.248   8.172 -0.2442 -0.0151 -0.1224
 6186TIP3    H140117   1.235   6.193   8.096 -0.0878  1.0558 -0.9469
 6186TIP3    H240118   1.229   6.336   8.146  0.1741  0.4353  0.9317
 6187TIP3   OH240119   1.756   3.895   1.679  0.2598 -0.2733 -0.3190
 6187TIP3    H140120   1.824   3.897   1.746 -1.2694  0.7284  1.3298
 6187TIP3    H240121   1.750   3.986   1.649  0.4954 -0.5973 -1.3648
 6188TIP3   OH240122   5.985   4.832   8.626  0.2378  0.3027  0.5423
 6188TIP3    H140123   5.915   4.888   8.661 -0.6394  0.3103 -1.1028
 6188TIP3    H240124   6.062   4.888   8.625 -0.4221  1.2288 -0.2467
 6189TIP3   OH240125   5.850   3.002   7.944 -0.4177 -0.0236 -0.9303
 6189TIP3    H140126   5.805   2.925   7.976 -0.7884  0.8871  0.8603
 6189TIP3    H240127   5.789   3.074   7.960  0.7430  0.9146 -0.5925
 6190TIP3   OH240128   3.681   4.073   1.941 -0.0148  0.5495 -0.4977
 6190TIP3    H140129   3.634   4.150   1.910 -0.8303  0.5604  0.7130
 6190TIP3    H240130   3.716   4.032   1.861 -0.9330  1.2823 -1.2902
 6191TIP3   OH240131   4.627   3.171   0.240  0.3659 -0.7759  0.0854
 6191TIP3    H140132   4.577   3.253   0.233 -0.4156 -1.2271  0.2651
 6191TIP3    H240133   4.697   3.180   0.175 -1.3346 -1.0924 -1.9355
 6192TIP3   OH240134   6.006   5.759   0.927  0.3806 -0.3026 -1.0157
 6192TIP3    H140135   6.094   5.733   0.899  0.9993 -0.7850  1.1869
 6192TIP3    H240136   6.014   5.852   0.947  0.6056 -0.5051 -0.1226
 6193TIP3   OH240137   0.311   3.530   1.938  0.2574  0.1331  1.0199
 6193TIP3    H140138   0.297   3.596   2.006  1.6868  2.2252 -0.5987
 6193TIP3    H240139   0.314   3.579   1.856 -1.0410 -2.2446 -0.6097
 6194TIP3   OH240140   1.297   6.739   7.085  0.5762  0.2723  0.2151
 6194TIP3    H140141   1.206   6.723   7.059  1.1480 -1.2269 -0.9126
 6194TIP3    H240142   1.332   6.796   7.016  1.0152 -0.6627 -0.3443
 6195TIP3   OH240143   4.352   3.530   1.309  0.0092 -0.2369  0.8214
 6195TIP3    H140144   4.311   3.611   1.281 -0.8976 -0.7043  0.7819
 6195TIP3    H240145   4.366   3.481   1.228  0.5766 -0.1218  0.8427
 6196TIP3   OH240146   1.788   3.197   7.749  0.1038  0.7415 -0.1269
 6196TIP3    H140147   1.733   3.236   7.680 -0.8710 -0.8756 -0.3200
 6196TIP3    H240148   1.815   3.113   7.712  0.7641  0.4894  0.9171
 6197TIP3   OH240149   0.978   4.024   0.504 -0.1560  0.3805 -0.0738
 6197TIP3    H140150   0.888   4.019   0.536  0.2801 -1.3852  1.0171
 6197TIP3    H240151   0.971   4.010   0.410 -0.8588 -2.7219  0.3346
 6198TIP3   OH240152   3.503   6.558   8.690  0.4146  0.1910 -0.3894
 6198TIP3    H140153   3.496   6.571   8.595 -2.0372 -0.1487 -0.3121
 6198TIP3    H240154   3.428   6.605   8.726 -0.1446 -1.7916  1.1559
 6199TIP3   OH240155   0.239   3.276   1.740  0.0145 -0.5531 -0.0786
 6199TIP3    H140156   0.290   3.320   1.807  1.6161 -1.8111 -0.4290
 6199TIP3    H240157   0.151   3.315   1.748  0.8588  1.2997  0.8601
 6200TIP3   OH240158   3.530   0.261   1.977  0.1269 -0.1639  0.1778
 6200TIP3    H140159   3.567   0.242   1.891  0.2306  0.6202  0.0386
 6200TIP3    H240160   3.602   0.299   2.027  0.0908 -0.7029  0.6455
 6201TIP3   OH240161   0.268   1.294   8.210  0.3339 -0.3636 -0.2668
 6201TIP3    H140162   0.230   1.339   8.285  2.4729  0.4627  0.3793
 6201TIP3    H240163   0.299   1.211   8.245  1.9903  0.3247 -0.0235
 6202TIP3   OH240164   0.420   3.632   8.447  0.8373  0.0221  0.9052
 6202TIP3    H140165   0.461   3.548   8.425  1.8206  0.8910 -0.7722
 6202TIP3    H240166   0.391   3.668   8.363 -0.2549  1.0370  1.6798
 6203TIP3   OH240167   5.118   6.210   8.170  0.2329  0.2860 -0.2904
 6203TIP3    H140168   5.142   6.121   8.196  1.2174  0.2490 -1.2392
 6203TIP3    H240169   5.078   6.248   8.248  1.2346 -0.4813  0.6252
 6204TIP3   OH240170   4.175   2.961   0.334  0.4884 -0.1397 -0.0764
 6204TIP3    H140171   4.153   3.029   0.270 -0.7201  0.8756  1.3363
 6204TIP3    H240172   4.266   2.977   0.357  0.7011 -0.0415 -0.9508
 6205TIP3   OH240173   6.393   6.583   7.773 -1.1963  0.2676  0.2348
 6205TIP3    H140174   6.486   6.564   7.759 -1.0324  1.6283 -0.7613
 6205TIP3    H240175   6.387   6.613   7.863 -0.0729  3.2308 -0.5747
 6206TIP3   OH240176   1.577   2.223   8.056  0.3451 -0.1292  0.0283
 6206TIP3    H140177   1.648   2.237   7.993 -0.2324 -0.7988 -0.7895
 6206TIP3    H240178   1.592   2.136   8.092 -0.2198 -0.4044 -0.3780
 6207TIP3   OH240179   3.535   1.066   1.870 -0.1042 -0.3046 -0.1930
 6207TIP3    H140180   3.618   1.110   1.850 -0.9761  2.6745  2.0510
 6207TIP3    H240181   3.467   1.123   1.835 -1.2957 -1.6921 -0.2585
 6208TIP3   OH240182   2.706   3.773   1.257 -0.0861  0.0509  0.2111
 6208TIP3    H140183   2.704   3.686   1.215  0.8660 -0.4108  1.0896
 6208TIP3    H240184   2.659   3.829   1.196 -1.5236 -1.2581  0.0403
 6209TIP3   OH240185   5.718   2.229   1.447  0.3463 -0.1890 -0.5201
 6209TIP3    H140186   5.732   2.269   1.533 -1.9240 -0.5022  0.0654
 6209TIP3    H240187   5.787   2.267   1.392  0.7610  1.4195  0.9930
 6210TIP3   OH240188   2.216   4.941   7.554 -0.0710 -0.2753 -0.0778
 6210TIP3    H140189   2.292   4.998   7.542  1.1743 -1.4448  1.6783
 6210TIP3    H240190   2.246   4.876   7.618 -2.7430 -0.4632  1.0827
 6211TIP3   OH240191   6.465   0.304   7.862 -0.0353  0.0444 -0.1237
 6211TIP3    H140192   6.418   0.322   7.943  0.3179  0.6319 -0.0467
 6211TIP3    H240193   6.410   0.341   7.793 -0.7099 -1.1213 -0.2347
 6212TIP3   OH240194   1.588   6.730   7.202  0.5331  0.9815  0.4954
 6212TIP3    H140195   1.496   6.745   7.178  0.5715 -0.4818 -0.6973
 6212TIP3    H240196   1.610   6.804   7.259 -0.6764  2.7047 -1.1371
 6213TIP3   OH240197   3.354   4.809   1.051 -0.6466  0.0999 -0.2118
 6213TIP3    H140198   3.293   4.835   1.120 -1.9110 -2.5557 -0.2035
 6213TIP3    H240199   3.324   4.856   0.974 -0.5659  1.4393  0.5465
 6214TIP3   OH240200   4.771   3.584   1.357 -0.1233 -0.5124 -0.2572
 6214TIP3    H140201   4.729   3.499   1.368 -0.4448 -0.5424 -1.5481
 6214TIP3    H240202   4.842   3.568   1.295 -0.4431  0.2310 -0.8341
 6215TIP3   OH240203   3.618   6.819   6.687  0.3331 -0.0182 -0.1138
 6215TIP3    H140204   3.680   6.792   6.619  1.3815  0.6072  0.5765
 6215TIP3    H240205   3.664   6.804   6.769 -0.4954  0.3045  0.4169
 6216TIP3   OH240206   0.605   2.697   6.999 -0.1394 -0.0050  0.0588
 6216TIP3    H140207   0.542   2.722   7.067 -0.2464  0.0942 -0.0746
 6216TIP3    H240208   0.574   2.742   6.921  0.1180  0.0698 -0.0013
 6217TIP3   OH240209   5.737   2.187   6.302 -0.0668  0.2089 -0.1744
 6217TIP3    H140210   5.776   2.132   6.370  0.5614  0.2254 -0.5152
 6217TIP3    H240211   5.812   2.225   6.256 -0.3664  3.8119  1.9341
 6218TIP3   OH240212   0.440   5.979   1.885 -0.7140  0.4250  0.5341
 6218TIP3    H140213   0.450   6.072   1.864  0.6518  0.1430 -0.1495
 6218TIP3    H240214   0.407   5.979   1.975 -0.4542  1.5620  0.6486
 6219TIP3   OH240215   3.236   3.081   7.149  0.2341  0.3037  0.0872
 6219TIP3    H140216   3.210   3.126   7.068  0.7944  0.1051 -0.2104
 6219TIP3    H240217   3.184   3.001   7.150 -0.2186  0.5981  0.2335
 6220TIP3   OH240218   1.697   4.687   7.411  0.4811  0.0061 -0.6357
 6220TIP3    H140219   1.749   4.764   7.433  0.7812 -0.0136 -1.2784
 6220TIP3    H240220   1.622   4.692   7.471  0.8725  0.3936 -0.1661
 6221TIP3   OH240221   6.656   3.833   1.265  0.3200  0.5580  0.0030
 6221TIP3    H140222   6.654   3.799   1.176 -0.5186  3.2257 -1.0890
 6221TIP3    H240223   6.697   3.919   1.257  1.3776  0.3627  2.4265
 6222TIP3   OH240224   0.659   6.556   2.286  0.3319 -0.0365  0.0279
 6222TIP3    H140225   0.572   6.588   2.308 -0.4364 -1.6214 -0.5761
 6222TIP3    H240226   0.697   6.532   2.370 -0.4332 -0.8166  0.1626
 6223TIP3   OH240227   2.126   6.232   7.409  0.4123  0.4414 -0.5519
 6223TIP3    H140228   2.141   6.151   7.458 -0.6614  1.8070  2.2238
 6223TIP3    H240229   2.214   6.260   7.383  1.0308 -0.3064  0.6544
 6224TIP3   OH240230   3.465   3.594   0.535 -0.2774 -0.2856  0.3946
 6224TIP3    H140231   3.385   3.542   0.536  0.9535 -2.3004  0.2338
 6224TIP3    H240232   3.526   3.543   0.482  1.1728  1.1075  0.6380
 6225TIP3   OH240233   2.647   2.500   7.906  0.3297 -0.1186  0.0459
 6225TIP3    H140234   2.630   2.548   7.824  0.9217 -0.8859 -0.5415
 6225TIP3    H240235   2.579   2.531   7.966 -0.9753 -0.5393 -1.1636
 6226TIP3   OH240236   5.656   5.267   1.431 -0.0826  0.1869  0.0889
 6226TIP3    H140237   5.728   5.204   1.444 -0.4136 -0.4511 -1.0565
 6226TIP3    H240238   5.579   5.212   1.418 -0.7568  0.8731  1.1239
 6227TIP3   OH240239   4.174   4.648   7.391 -0.2368 -0.2707  0.2056
 6227TIP3    H140240   4.132   4.667   7.474 -0.0878  0.4052  0.1319
 6227TIP3    H240241   4.192   4.554   7.394 -1.5842 -0.5340  0.3007
 6228TIP3   OH240242   6.728   0.472   7.171 -0.0722  0.0289 -0.6795
 6228TIP3    H140243   6.818   0.482   7.142  0.5883  1.4605  1.5568
 6228TIP3    H240244   6.722   0.383   7.204  1.2412  0.5914  1.2071
 6229TIP3   OH240245   1.589   2.397   7.702 -0.4766  0.0404 -0.1490
 6229TIP3    H140246   1.683   2.390   7.714 -0.6930  0.8704  2.5927
 6229TIP3    H240247   1.551   2.334   7.763 -1.6954  1.5176  0.7091
 6230TIP3   OH240248   1.558   4.864   0.448  0.4941 -0.2329  0.0189
 6230TIP3    H140249   1.638   4.831   0.489  0.2479  0.6063  1.2411
 6230TIP3    H240250   1.588   4.939   0.396  0.4705  0.3399  0.8074
 6231TIP3   OH240251   3.989   2.223   1.919 -0.7015 -0.2595  0.2386
 6231TIP3    H140252   4.020   2.132   1.919 -1.1834 -0.4289  0.3292
 6231TIP3    H240253   3.941   2.231   2.001 -1.4307 -0.1921 -0.1882
 6232TIP3   OH240254   3.766   5.120   1.296  0.1183  0.2587 -0.1661
 6232TIP3    H140255   3.827   5.047   1.288  1.4067  1.1677  1.0180
 6232TIP3    H240256   3.693   5.085   1.346  0.4454 -0.3789 -0.1235
 6233TIP3   OH240257   2.438   4.102   8.738 -0.4095  0.1299 -0.4129
 6233TIP3    H140258   2.471   4.160   8.807 -0.1418 -0.1824 -0.2758
 6233TIP3    H240259   2.480   4.018   8.755 -1.3298 -0.2985 -0.1949
 6234TIP3   OH240260   6.150   2.889   1.557 -0.1964 -0.4547  0.0202
 6234TIP3    H140261   6.109   2.835   1.624 -1.1564 -1.1361 -1.0632
 6234TIP3    H240262   6.243   2.889   1.578 -0.4060 -1.1608  0.9824
 6235TIP3   OH240263   2.208   0.915   1.822 -0.0727 -0.1560 -0.3557
 6235TIP3    H140264   2.240   0.839   1.774  2.5731  0.6837 -0.1149
 6235TIP3    H240265   2.171   0.879   1.903  0.6333 -1.2375 -0.4960
 6236TIP3   OH240266   6.646   2.170   0.234 -0.2028  0.6040  0.5897
 6236TIP3    H140267   6.592   2.145   0.309 -1.0806  1.5155  0.2822
 6236TIP3    H240268   6.717   2.222   0.272  1.3904 -1.7863  1.1844
 6237TIP3   OH240269   0.671   2.538   8.438 -0.5048 -0.5467 -0.1954
 6237TIP3    H140270   0.629   2.620   8.412  0.3085  0.0008  0.1948
 6237TIP3    H240271   0.599   2.475   8.441 -1.1594  0.1696 -0.3879
 6238TIP3   OH240272   1.159   5.272   6.921 -0.2111 -0.0455 -0.2952
 6238TIP3    H140273   1.197   5.292   6.835 -0.9695 -1.4943 -1.0042
 6238TIP3    H240274   1.077   5.321   6.923  0.7013  1.5224  0.4306
 6239TIP3   OH240275   1.730   0.672   0.150  0.2331 -0.4572  0.4598
 6239TIP3    H140276   1.815   0.631   0.139  0.3200 -0.5013  1.2803
 6239TIP3    H240277   1.676   0.633   0.081  0.6569 -1.0060  0.4299
 6240TIP3   OH240278   4.242   3.625   2.030 -0.8354 -0.2830 -0.3851
 6240TIP3    H140279   4.167   3.674   1.996  0.4611 -0.2151 -3.4658
 6240TIP3    H240280   4.207   3.538   2.049 -1.8278 -0.0926 -1.2566
 6241TIP3   OH240281   6.042   0.758   6.836  0.4217  0.1233 -0.1582
 6241TIP3    H140282   6.115   0.751   6.775  1.3457  0.9039  0.8220
 6241TIP3    H240283   6.061   0.836   6.888 -0.9848  0.1991  0.2891
 6242TIP3   OH240284   4.612   1.272   1.391 -0.1169  0.1995  0.0373
 6242TIP3    H140285   4.680   1.239   1.332  0.6281 -0.8564  1.4144
 6242TIP3    H240286   4.609   1.208   1.463 -1.3932  1.1177  0.8618
 6243TIP3   OH240287   1.320   5.322   1.070 -0.2557  0.1666  0.3802
 6243TIP3    H140288   1.242   5.356   1.114 -0.9778 -0.5093 -0.3335
 6243TIP3    H240289   1.391   5.335   1.133 -1.1525 -0.2778  1.5166
 6244TIP3   OH240290   2.970   0.018   0.576  0.3753  0.1071  0.6131
 6244TIP3    H140291   2.986  -0.064   0.622 -1.3730 -1.4663 -1.3847
 6244TIP3    H240292   2.887   0.050   0.609 -0.2458 -0.3520 -0.4401
 6245TIP3   OH240293   2.686   0.171   2.091  0.3264  0.1582  0.0203
 6245TIP3    H140294   2.667   0.137   2.004  0.5546 -1.8050  0.6788
 6245TIP3    H240295   2.773   0.135   2.112 -0.2414 -0.4191  1.5166
 6246TIP3   OH240296   0.955   2.075   7.308  0.0782  0.1967  0.1648
 6246TIP3    H140297   1.001   2.114   7.234  0.3501  0.4923  0.4820
 6246TIP3    H240298   0.862   2.086   7.287  0.1507 -0.4353 -0.4946
 6247TIP3   OH240299   6.133   0.448   2.087  0.4046 -0.1093 -0.4113
 6247TIP3    H140300   6.152   0.361   2.121  1.3616  0.4474  0.5365
 6247TIP3    H240301   6.039   0.459   2.100  0.4854 -0.5377  0.6111
 6248TIP3   OH240302   1.896   2.849   8.608 -0.6284  0.3098 -0.1914
 6248TIP3    H140303   1.858   2.883   8.527 -1.1919  1.1908  0.4206
 6248TIP3    H240304   1.984   2.820   8.583 -1.0834 -0.1893 -1.2783
 6249TIP3   OH240305   4.580   3.385   1.402 -0.3894  0.0282 -0.2092
 6249TIP3    H140306   4.502   3.431   1.371 -0.1325  0.3138 -0.4391
 6249TIP3    H240307   4.572   3.297   1.367  0.2183  0.5252 -1.6388
 6250TIP3   OH240308   6.166   4.326   0.316 -0.0653 -0.2972  0.5288
 6250TIP3    H140309   6.188   4.416   0.341 -0.4156 -0.1875  0.4463
 6250TIP3    H240310   6.213   4.272   0.379  0.9752 -0.0908 -0.0479
 6251TIP3   OH240311   3.317   2.236   2.896 -0.1737  0.0248  0.1376
 6251TIP3    H140312   3.244   2.189   2.936 -2.5229  1.9561 -1.6034
 6251TIP3    H240313   3.355   2.173   2.834 -0.9935 -0.6995  0.3504
 6252TIP3   OH240314   3.078   1.145   3.174 -0.2425  0.0695  0.4246
 6252TIP3    H140315   3.090   1.237   3.198 -0.5800 -0.0442  1.0454
 6252TIP3    H240316   2.989   1.141   3.139  0.0477  0.1252 -0.3362
 6253TIP3   OH240317   2.214   1.256   8.378 -0.1123  0.5762  0.4233
 6253TIP3    H140318   2.270   1.234   8.453 -0.8751  2.1713  1.5280
 6253TIP3    H240319   2.262   1.326   8.333  0.5026 -0.6004 -0.8245
 6254TIP3   OH240320   0.869   3.310   8.545  0.6706 -0.3476  0.1245
 6254TIP3    H140321   0.936   3.373   8.519 -0.9635  1.6058  0.3348
 6254TIP3    H240322   0.897   3.227   8.508  2.9275  0.4919 -0.1917
 6255TIP3   OH240323   2.198   5.985   7.559  0.1765  0.1167  0.8845
 6255TIP3    H140324   2.282   5.985   7.512 -0.3120  0.5766  0.0023
 6255TIP3    H240325   2.166   5.896   7.550  0.9545 -0.2977  1.9495
 6256TIP3   OH240326   4.486   1.141   7.015  0.3689  0.0322 -0.1089
 6256TIP3    H140327   4.476   1.227   7.057 -1.5270  0.2971 -1.0072
 6256TIP3    H240328   4.491   1.079   7.088  2.3905  0.9240  0.5694
 6257TIP3   OH240329   0.621   0.368   0.904  0.2008 -0.3206  0.0753
 6257TIP3    H140330   0.676   0.329   0.971 -0.1881 -0.7048  0.1755
 6257TIP3    H240331   0.537   0.382   0.947  0.2922  0.4930 -0.0026
 6258TIP3   OH240332   4.017   0.127   0.879  0.3045  0.2437  0.1094
 6258TIP3    H140333   4.079   0.094   0.944 -0.1559  1.0748  1.0037
 6258TIP3    H240334   4.029   0.222   0.881  0.7144  0.2431 -1.4836
 6259TIP3   OH240335   4.612   5.055   7.473  0.0459 -0.3950  0.5033
 6259TIP3    H140336   4.674   5.064   7.401 -0.6061 -0.9587 -0.1553
 6259TIP3    H240337   4.530   5.090   7.438 -0.1001  0.0125  1.2319
 6260TIP3   OH240338   2.709   4.356   7.840  0.2701 -0.5945 -0.0993
 6260TIP3    H140339   2.619   4.379   7.865 -0.3299 -2.3132 -0.5275
 6260TIP3    H240340   2.703   4.335   7.747  1.2020 -0.3446 -0.2179
 6261TIP3   OH240341   3.129   4.331   8.391 -0.8034 -0.3407  0.3724
 6261TIP3    H140342   3.044   4.365   8.418 -1.2902  0.4469 -1.9268
 6261TIP3    H240343   3.187   4.407   8.394 -0.1134 -0.8760  1.9414
 6262TIP3   OH240344   0.781   6.042   7.968 -0.5196 -0.7172 -0.4284
 6262TIP3    H140345   0.801   6.013   8.057 -0.1537  0.5662 -0.0767
 6262TIP3    H240346   0.759   6.134   7.977 -1.5757 -0.8341 -1.5291
 6263TIP3   OH240347   5.627   3.770   1.383 -0.1108  0.4530 -0.0516
 6263TIP3    H140348   5.618   3.814   1.468 -0.7147 -1.6247  1.0407
 6263TIP3    H240349   5.718   3.739   1.382 -0.1504  0.3375 -0.0862
 6264TIP3   OH240350   6.804   1.103   0.009  0.5567  0.0876 -0.0482
 6264TIP3    H140351   6.808   1.032   0.073  0.7279 -0.3240 -0.5118
 6264TIP3    H240352   6.880   1.089  -0.047 -0.7029 -0.7827 -1.6181
 6265TIP3   OH240353   6.292   4.425   1.028  0.1868 -0.4647 -0.9804
 6265TIP3    H140354   6.332   4.461   1.108  3.3397 -1.1342 -2.1131
 6265TIP3    H240355   6.245   4.347   1.058 -1.4633  1.0347  0.5939
 6266TIP3   OH240356   6.152   1.801   1.709 -0.0696 -0.0328 -0.3224
 6266TIP3    H140357   6.128   1.712   1.684 -0.3737  0.4274 -1.7888
 6266TIP3    H240358   6.171   1.796   1.803  0.2629 -1.7029 -0.4511
 6267TIP3   OH240359   1.985   6.366   8.135  0.8696 -0.3202 -0.0171
 6267TIP3    H140360   2.007   6.452   8.100  2.7593 -0.7805 -0.0545
 6267TIP3    H240361   1.988   6.377   8.230 -2.4067  0.4630  0.1183
 6268TIP3   OH240362   4.645   6.792   2.093  0.2481  0.7306 -0.3587
 6268TIP3    H140363   4.582   6.801   2.164 -2.1225 -2.0373 -1.9041
 6268TIP3    H240364   4.679   6.703   2.103  1.0543  0.8551 -1.7679
 6269TIP3   OH240365   6.662   4.315   8.642 -0.2045  0.4043 -0.5599
 6269TIP3    H140366   6.754   4.341   8.634 -0.2253  0.1685 -1.7692
 6269TIP3    H240367   6.637   4.342   8.730  0.8992  0.8710 -0.3728
 6270TIP3   OH240368   2.329   1.485   7.277 -0.1043 -0.2042 -0.0829
 6270TIP3    H140369   2.367   1.403   7.309  0.8407  0.2666  0.0356
 6270TIP3    H240370   2.379   1.553   7.321 -1.1148  0.4487  0.0831
 6271TIP3   OH240371   3.982   6.339   8.401  0.2383 -0.0653  0.2187
 6271TIP3    H140372   3.974   6.247   8.376  1.0247 -0.0189 -0.2589
 6271TIP3    H240373   3.938   6.346   8.486  1.4795 -1.2067  0.9942
 6272TIP3   OH240374   0.990   6.823   0.070 -0.3641 -0.0665 -0.6223
 6272TIP3    H140375   1.021   6.787  -0.012 -1.1980 -1.6722 -0.2860
 6272TIP3    H240376   0.923   6.761   0.099  0.6995 -0.1938  1.8236
 6273TIP3   OH240377   6.843   6.371   8.469  0.4538 -0.4086  0.3348
 6273TIP3    H140378   6.891   6.289   8.468  1.1326 -0.0173 -0.6580
 6273TIP3    H240379   6.824   6.386   8.562  0.6956 -1.4609  0.5660
 6274TIP3   OH240380   5.001   5.622   7.219  0.1508 -0.0364 -0.3665
 6274TIP3    H140381   5.006   5.681   7.143 -2.3594 -0.3810 -0.8900
 6274TIP3    H240382   5.004   5.535   7.181 -1.4498 -0.2119 -0.1355
 6275TIP3   OH240383   2.635   3.559   2.027  0.3754  0.1921 -0.3103
 6275TIP3    H140384   2.570   3.554   2.097  2.2002  0.3830  1.5152
 6275TIP3    H240385   2.586   3.588   1.950 -2.0555 -1.7401  0.3888
 6276TIP3   OH240386   4.661   1.190   0.427 -0.4967  0.0965  0.3383
 6276TIP3    H140387   4.598   1.259   0.447 -0.9155 -0.5066  1.1648
 6276TIP3    H240388   4.721   1.229   0.363 -0.2211  1.4999  1.4119
 6277TIP3   OH240389   0.514   6.620   8.709 -0.0922  0.1927 -0.3279
 6277TIP3    H140390   0.433   6.620   8.658 -0.5990  1.6013  0.4111
 6277TIP3    H240391   0.486   6.640   8.799  0.5924 -3.6240  0.9110
 6278TIP3   OH240392   0.407   6.491   1.943  0.0286  0.4518  0.5570
 6278TIP3    H140393   0.426   6.564   1.884 -0.6814  1.3335  1.3767
 6278TIP3    H240394   0.336   6.524   1.999 -1.1924 -1.3065  0.1324
 6279TIP3   OH240395   5.375   5.718   0.757 -0.4939  0.1534  0.4725
 6279TIP3    H140396   5.317   5.781   0.801 -0.4895 -0.1239  0.8831
 6279TIP3    H240397   5.458   5.764   0.749 -0.7737  0.5681 -0.1535
 6280TIP3   OH240398   2.520   3.495   1.328  0.3982  0.7146 -0.1868
 6280TIP3    H140399   2.505   3.572   1.274  0.3158  1.1588  0.4546
 6280TIP3    H240400   2.600   3.514   1.377  1.3552 -0.3381 -1.2820
 6281TIP3   OH240401   3.823   6.390   0.270 -0.0714 -0.0675 -0.2508
 6281TIP3    H140402   3.878   6.312   0.271 -0.0987 -0.0813  0.7348
 6281TIP3    H240403   3.797   6.403   0.361  0.7724  1.6875 -0.2134
 6282TIP3   OH240404   4.423   1.533   7.863 -0.0747 -0.1845 -0.7089
 6282TIP3    H140405   4.343   1.522   7.811 -0.5467  0.0296 -0.0391
 6282TIP3    H240406   4.488   1.480   7.818 -1.1938 -2.2995  0.0239
 6283TIP3   OH240407   2.954   3.863   1.344  0.3521 -0.1357  0.2906
 6283TIP3    H140408   2.954   3.950   1.306  1.8700 -0.5752 -0.8123
 6283TIP3    H240409   2.874   3.822   1.312 -0.6848  1.0216  1.3064
 6284TIP3   OH240410   4.590   5.268   2.564  0.3213  0.3145 -0.1180
 6284TIP3    H140411   4.684   5.270   2.580  0.4774 -1.2569 -0.6203
 6284TIP3    H240412   4.553   5.229   2.644  0.1254  0.6002 -0.0660
 6285TIP3   OH240413   1.401   4.887   8.589 -0.3008 -0.0743  0.8958
 6285TIP3    H140414   1.472   4.904   8.652 -0.5269  0.4869  1.0032
 6285TIP3    H240415   1.442   4.896   8.503  0.1380 -1.3762  0.9448
 6286TIP3   OH240416   1.532   2.618   1.282  0.2209  0.5909 -0.9849
 6286TIP3    H140417   1.443   2.635   1.315 -0.1398 -1.6226 -0.6799
 6286TIP3    H240418   1.588   2.677   1.332 -0.6517 -0.6470  1.6609
 6287TIP3   OH240419   2.014   6.611   2.120 -0.1379 -0.2974 -0.1382
 6287TIP3    H140420   2.084   6.671   2.144 -0.1677 -0.3569  0.1058
 6287TIP3    H240421   1.938   6.641   2.171  0.1116 -1.1462  0.7601
 6288TIP3   OH240422   5.925   5.604   6.658 -0.0695 -0.0086  1.0552
 6288TIP3    H140423   5.879   5.685   6.634 -0.0767 -0.5792 -1.0547
 6288TIP3    H240424   5.891   5.539   6.596  2.2083 -0.8959  0.6731
 6289TIP3   OH240425   4.916   2.603   6.969  0.5568  0.1043  0.4505
 6289TIP3    H140426   4.880   2.530   6.919  1.8265 -0.6606  0.6064
 6289TIP3    H240427   4.843   2.632   7.024 -0.0240 -0.9380  0.2673
 6290TIP3   OH240428   5.878   3.604   0.767  0.0191  0.6707 -0.0244
 6290TIP3    H140429   5.888   3.665   0.695  1.5813  2.3566  1.5216
 6290TIP3    H240430   5.967   3.580   0.792 -0.5096 -0.7637  0.6569
 6291TIP3   OH240431   0.842   0.276   1.100  0.1286 -0.2077 -0.2039
 6291TIP3    H140432   0.936   0.298   1.103  0.2426 -0.7196  0.0455
 6291TIP3    H240433   0.812   0.285   1.190 -0.2483  0.7165 -0.4085
 6292TIP3   OH240434   5.864   4.398   8.143  0.2459  0.6707 -0.0330
 6292TIP3    H140435   5.930   4.370   8.206  0.4730  0.1045 -0.5155
 6292TIP3    H240436   5.881   4.345   8.065 -0.4906  0.8427 -0.3194
 6293TIP3   OH240437   6.017   4.108   7.075 -0.1865 -0.2905 -0.3055
 6293TIP3    H140438   5.922   4.103   7.077 -0.1526 -0.9254  0.1047
 6293TIP3    H240439   6.046   4.052   7.147  0.5011 -0.1870 -0.4862
 6294TIP3   OH240440   5.972   2.890   7.669 -0.4066  0.2541  0.1995
 6294TIP3    H140441   5.921   2.927   7.741 -0.5571  0.6390 -0.1000
 6294TIP3    H240442   6.059   2.873   7.706  0.2635  2.6684 -0.1234
 6295TIP3   OH240443   2.386   6.506   2.310 -0.0290  0.1619  0.3906
 6295TIP3    H140444   2.305   6.539   2.350  0.0927  1.6004 -0.4644
 6295TIP3    H240445   2.358   6.433   2.255 -0.6044  0.0187  0.8688
 6296TIP3   OH240446   5.793   2.406   1.678  0.2872  0.5450  0.2672
 6296TIP3    H140447   5.887   2.392   1.691  0.3616  1.1640  0.4406
 6296TIP3    H240448   5.788   2.466   1.604 -0.0267 -0.4097 -0.5146
 6297TIP3   OH240449   6.607   3.865   0.526  0.4256  0.5910  0.1200
 6297TIP3    H140450   6.668   3.812   0.576  0.2744  1.2991  1.0774
 6297TIP3    H240451   6.530   3.809   0.515  1.5506 -0.6693 -1.9365
 6298TIP3   OH240452   0.471   2.293   7.003 -0.1852 -0.8411  0.3169
 6298TIP3    H140453   0.435   2.351   6.936  1.2825  0.6303  0.7366
 6298TIP3    H240454   0.510   2.220   6.955 -2.1324 -1.5851 -0.2167
 6299TIP3   OH240455   1.341   6.516   0.113  0.3010 -0.1056  0.2693
 6299TIP3    H140456   1.437   6.507   0.118  0.3544 -0.6105 -1.3395
 6299TIP3    H240457   1.327   6.608   0.091  0.4644 -0.2188 -0.3285
 6300TIP3   OH240458   3.262   2.659   7.303  0.0310 -0.5814 -0.0823
 6300TIP3    H140459   3.185   2.688   7.254 -0.0297 -2.0796 -0.9325
 6300TIP3    H240460   3.298   2.586   7.251  0.7685 -1.3209  1.3984
 6301TIP3   OH240461   5.559   5.713   1.074 -0.2001 -0.3015 -0.3700
 6301TIP3    H140462   5.512   5.774   1.132  1.1783  0.8872 -0.4428
 6301TIP3    H240463   5.618   5.666   1.132 -0.2487 -0.5501 -0.5230
 6302TIP3   OH240464   2.337   2.690   8.076 -0.1768  0.2475 -0.3033
 6302TIP3    H140465   2.329   2.616   8.016 -1.0634  1.4617 -1.7474
 6302TIP3    H240466   2.408   2.743   8.041  0.0374  0.4195  0.3675
 6303TIP3   OH240467   6.348   3.920   2.600 -0.4137  0.6643  0.2926
 6303TIP3    H140468   6.419   3.865   2.632 -0.5972  0.1027 -0.2491
 6303TIP3    H240469   6.331   3.888   2.511 -0.4656  1.6515 -0.0658
 6304TIP3   OH240470   4.030   4.852   2.188  0.8702  0.1915  0.2071
 6304TIP3    H140471   3.938   4.853   2.163  0.7184  0.7076  0.7532
 6304TIP3    H240472   4.035   4.785   2.257  0.9136  0.1284  0.1431
 6305TIP3   OH240473   2.838   5.674   1.052 -0.6098 -0.0108  0.0771
 6305TIP3    H140474   2.744   5.673   1.031 -0.4909  0.2680 -0.5010
 6305TIP3    H240475   2.878   5.619   0.985 -0.6721 -2.6971  2.1113
 6306TIP3   OH240476   1.353   5.499   7.090 -0.0883  0.0586 -0.0109
 6306TIP3    H140477   1.258   5.493   7.081 -0.1608 -1.6234  1.3561
 6306TIP3    H240478   1.367   5.543   7.174  0.2660 -1.5336  0.8112
 6307TIP3   OH240479   4.612   4.849   0.615 -0.2762 -0.4200  0.3817
 6307TIP3    H140480   4.562   4.875   0.693 -1.6151 -1.3609 -0.1195
 6307TIP3    H240481   4.674   4.921   0.601  0.5356 -0.5905  2.7494
 6308TIP3   OH240482   0.872   5.738   8.019  0.3657 -0.2863  0.2357
 6308TIP3    H140483   0.791   5.686   8.026 -0.2295  0.7282  1.1567
 6308TIP3    H240484   0.859   5.792   7.941  0.0472  0.0526  0.5228
 6309TIP3   OH240485   2.971   5.293   1.611  0.3754 -0.2141  0.2643
 6309TIP3    H140486   2.902   5.227   1.605 -0.7270  0.7752  1.4159
 6309TIP3    H240487   2.972   5.333   1.524 -0.6975 -0.0854  0.2884
 6310TIP3   OH240488   4.141   2.350   2.356  0.0554 -0.8601  0.1905
 6310TIP3    H140489   4.219   2.313   2.314  0.1087 -1.5818  0.9110
 6310TIP3    H240490   4.140   2.312   2.444 -3.0326 -3.7951 -0.8748
 6311TIP3   OH240491   4.494   0.931   1.892 -0.3475  0.0993  0.2481
 6311TIP3    H140492   4.447   0.947   1.811  0.5898 -1.5651 -0.6803
 6311TIP3    H240493   4.427   0.903   1.954 -0.8188 -0.5671 -0.5462
 6312TIP3   OH240494   3.329   0.969   1.456  0.6291 -0.1062 -0.0309
 6312TIP3    H140495   3.319   0.963   1.551  0.5242 -0.0464 -0.0381
 6312TIP3    H240496   3.243   0.995   1.424  0.8473  0.5690 -0.0757
 6313TIP3   OH240497   1.075   3.023   0.415 -0.0601 -0.9201  0.1965
 6313TIP3    H140498   1.053   2.977   0.334  1.3591  1.1869 -1.5061
 6313TIP3    H240499   1.170   3.014   0.422 -0.0181 -0.0421  0.9666
 6314TIP3   OH240500   1.778   5.638   7.796 -0.0348  0.2144  0.5533
 6314TIP3    H140501   1.864   5.604   7.820  0.1578 -0.2525 -0.7273
 6314TIP3    H240502   1.720   5.605   7.865  0.5326 -0.8813  0.5380
 6315TIP3   OH240503   6.005   3.376   6.829 -0.4470  0.7749 -0.3904
 6315TIP3    H140504   5.943   3.308   6.854  0.0098  0.7608  0.7812
 6315TIP3    H240505   6.068   3.333   6.772 -0.8505  0.5154 -0.6422
 6316TIP3   OH240506   4.538   4.741   7.386 -0.3945 -0.3318 -0.1786
 6316TIP3    H140507   4.468   4.795   7.349 -0.5701  1.9162  3.0991
 6316TIP3    H240508   4.494   4.659   7.410 -1.4638  0.2615 -0.0277
 6317TIP3   OH240509   5.169   2.511   0.659  0.1304  0.3458 -0.5347
 6317TIP3    H140510   5.236   2.462   0.708 -0.0135 -0.2340 -0.9122
 6317TIP3    H240511   5.088   2.464   0.676 -0.1872  1.0465 -0.0843
 6318TIP3   OH240512   6.102   2.235   7.792  0.5912  0.5887 -0.2139
 6318TIP3    H140513   6.060   2.235   7.706  1.3934  0.1850 -0.6194
 6318TIP3    H240514   6.059   2.164   7.839  0.5246  0.4553 -0.4737
 6319TIP3   OH240515   6.362   1.132   0.943 -0.2804 -0.4439  0.2731
 6319TIP3    H140516   6.352   1.043   0.910 -2.2355 -0.2294  0.1761
 6319TIP3    H240517   6.276   1.154   0.977  0.1428  1.4577  0.1917
 6320TIP3   OH240518   5.872   0.413   8.543 -0.6746 -0.6222 -0.3524
 6320TIP3    H140519   5.896   0.341   8.484  0.1344  1.0411 -2.1415
 6320TIP3    H240520   5.910   0.388   8.627  0.8081 -1.6383 -1.2701
 6321TIP3   OH240521   3.232   6.210   6.987  0.1516  0.0653  0.3784
 6321TIP3    H140522   3.311   6.240   7.032  0.8964 -1.5189  0.2013
 6321TIP3    H240523   3.264   6.159   6.913 -1.0415 -0.6709  0.3395
 6322TIP3   OH240524   2.376   0.572   7.829 -0.3155 -0.2666  0.2488
 6322TIP3    H140525   2.430   0.621   7.891 -0.8504  0.1317  0.4067
 6322TIP3    H240526   2.291   0.616   7.831 -1.2911 -2.0592  1.4873
 6323TIP3   OH240527   0.071   0.370   7.947  0.5638  0.2250 -0.1219
 6323TIP3    H140528   0.027   0.453   7.926  0.9512  0.4023 -0.2440
 6323TIP3    H240529   0.163   0.394   7.958  1.4863 -0.7153 -4.1063
 6324TIP3   OH240530   3.306   0.928   7.681 -0.0264 -0.0489 -0.3184
 6324TIP3    H140531   3.243   0.976   7.627  1.7343  1.1248 -1.4617
 6324TIP3    H240532   3.383   0.917   7.624  0.1800 -3.0651  0.3895
 6325TIP3   OH240533   5.785   2.728   0.057 -0.1380 -0.0100 -0.1300
 6325TIP3    H140534   5.807   2.820   0.069 -2.1196  0.7318 -1.7641
 6325TIP3    H240535   5.862   2.691   0.013 -0.1617  1.3718 -1.4151
 6326TIP3   OH240536   3.208   5.752   8.571 -0.1877 -0.2187 -0.9311
 6326TIP3    H140537   3.272   5.682   8.558 -1.1847 -0.7332 -3.7740
 6326TIP3    H240538   3.244   5.827   8.524 -1.2143 -0.2519 -1.8081
 6327TIP3   OH240539   4.812   6.569   6.523 -0.5718 -0.9156  0.0490
 6327TIP3    H140540   4.805   6.648   6.576  2.4866 -0.9350  0.6764
 6327TIP3    H240541   4.830   6.600   6.434  1.1404 -0.8318  0.3895
 6328TIP3   OH240542   4.490   4.176   7.006 -0.5012  0.0742  0.0652
 6328TIP3    H140543   4.493   4.195   6.912 -0.9162 -1.7602 -0.3571
 6328TIP3    H240544   4.582   4.165   7.031 -0.2630  2.1285  0.2691
 6329TIP3   OH240545   1.794   0.420   1.290 -0.1837  0.0645  0.1754
 6329TIP3    H140546   1.872   0.466   1.320  0.7504  0.1692 -2.2347
 6329TIP3    H240547   1.827   0.339   1.251 -1.2781  0.0322 -0.7419
 6330TIP3   OH240548   2.293   2.901   1.291 -0.1176  0.4609  1.0632
 6330TIP3    H140549   2.353   2.840   1.248  0.4500  1.7548 -0.0569
 6330TIP3    H240550   2.206   2.869   1.267  0.1760  0.5756 -0.2818
 6331TIP3   OH240551   1.111   4.691   6.886  0.2068 -0.6664  0.3345
 6331TIP3    H140552   1.036   4.638   6.915 -1.4791  1.1657 -0.4024
 6331TIP3    H240553   1.175   4.681   6.956 -0.5982 -2.4930  0.9007
 6332TIP3   OH240554   4.818   3.927   8.039 -0.1882  0.2207  0.0613
 6332TIP3    H140555   4.749   3.875   7.998  0.3569 -1.3905  1.0720
 6332TIP3    H240556   4.814   4.012   7.995 -1.5319 -0.4651 -1.2250
 6333TIP3   OH240557   2.050   6.825   6.996  0.0138 -0.6564  0.3924
 6333TIP3    H140558   2.113   6.886   6.956 -0.4227  0.6841  1.6481
 6333TIP3    H240559   1.967   6.848   6.956  0.1544 -1.8130 -0.5987
 6334TIP3   OH240560   5.937   6.334   7.013 -0.0174 -0.0848  0.1303
 6334TIP3    H140561   5.896   6.279   7.080 -1.4792  0.8329  0.0220
 6334TIP3    H240562   6.031   6.316   7.021 -0.1270  0.1340  2.5529
 6335TIP3   OH240563   3.128   5.667   0.392  0.3539 -0.7807  0.3981
 6335TIP3    H140564   3.098   5.743   0.341  3.4573  0.6977  0.5723
 6335TIP3    H240565   3.140   5.598   0.327  1.7855  0.2988 -0.5609
 6336TIP3   OH240566   5.993   0.451   0.843  0.2385  0.6667  0.1082
 6336TIP3    H140567   6.015   0.420   0.755  2.4003  1.4950  0.2872
 6336TIP3    H240568   5.976   0.545   0.832 -3.9424  0.0435 -0.0584
 6337TIP3   OH240569   4.257   1.490   7.635 -0.5365  0.3894 -1.0966
 6337TIP3    H140570   4.192   1.422   7.619  0.2947 -1.3280  1.9709
 6337TIP3    H240571   4.341   1.448   7.614  0.0640 -0.0212  1.6455
 6338TIP3   OH240572   6.832   1.378   7.322  0.2061  0.3010 -0.0303
 6338TIP3    H140573   6.843   1.319   7.246  0.5110 -0.0927  0.3115
 6338TIP3    H240574   6.773   1.331   7.380 -0.4578  0.8426 -0.2572
 6339TIP3   OH240575   0.244   0.099   1.010 -0.4110  0.1321  0.3491
 6339TIP3    H140576   0.282   0.158   1.075 -0.0689 -1.1753  1.3927
 6339TIP3    H240577   0.198   0.033   1.062 -0.1918 -0.9176 -0.7360
 6340TIP3   OH240578   6.314   1.725   0.720  0.0445  0.1896 -0.5797
 6340TIP3    H140579   6.227   1.691   0.697  0.2166  0.3203 -1.4934
 6340TIP3    H240580   6.343   1.670   0.792 -0.5730 -0.2164 -0.6319
 6341TIP3   OH240581   3.773   0.230   8.445  0.2595 -0.3286  0.1079
 6341TIP3    H140582   3.858   0.193   8.469  0.3182 -0.5708 -0.4357
 6341TIP3    H240583   3.794   0.298   8.381  0.0178 -0.7850 -0.4747
 6342TIP3   OH240584   6.004   2.070   2.201 -0.4889 -0.3553 -0.2511
 6342TIP3    H140585   6.055   2.006   2.251 -1.3120 -1.7365 -1.1248
 6342TIP3    H240586   5.949   2.112   2.267 -0.8687 -1.4731  0.1835
 6343TIP3   OH240587   2.616   5.477   1.193 -0.2358 -0.1870 -0.1177
 6343TIP3    H140588   2.629   5.494   1.100  0.7456 -0.6825 -0.0891
 6343TIP3    H240589   2.557   5.546   1.223  2.0270  1.9845 -0.3953
 6344TIP3   OH240590   1.762   0.712   6.589 -0.2875 -0.3514  0.2198
 6344TIP3    H140591   1.737   0.677   6.504 -1.2221 -1.5041  0.9443
 6344TIP3    H240592   1.702   0.786   6.602 -1.3007 -1.2089  0.5893
 6345TIP3   OH240593   1.431   0.713   7.336  0.3878 -0.2951 -0.1795
 6345TIP3    H140594   1.433   0.629   7.383  2.1971 -0.4803 -0.4846
 6345TIP3    H240595   1.505   0.707   7.275 -0.8686  0.6265 -1.8456
 6346TIP3   OH240596   2.055   6.508   7.668 -0.5754  0.0452  0.1830
 6346TIP3    H140597   1.960   6.512   7.680 -0.6245  0.3101 -0.2322
 6346TIP3    H240598   2.091   6.506   7.756 -0.9334  1.0203  0.3654
 6347TIP3   OH240599   4.750   2.922   1.410  0.6656  0.3907  0.5452
 6347TIP3    H140600   4.676   2.892   1.462  1.1395  0.2661  1.1683
 6347TIP3    H240601   4.724   3.009   1.379 -0.4017 -0.3232 -0.6355
 6348TIP3   OH240602   3.874   4.619   2.080 -0.2221  0.0507 -0.2842
 6348TIP3    H140603   3.779   4.604   2.071  0.0826 -1.7640 -1.0159
 6348TIP3    H240604   3.887   4.634   2.174 -1.0656 -1.2576  0.0673
 6349TIP3   OH240605   4.677   3.137   1.276  0.3941 -0.5017 -0.0595
 6349TIP3    H140606   4.582   3.137   1.280  0.1471 -1.9172 -2.8828
 6349TIP3    H240607   4.700   3.219   1.233  0.3548 -0.6295 -0.3265
 6350TIP3   OH240608   1.709   2.441   1.398  0.2127 -0.3048 -0.2518
 6350TIP3    H140609   1.658   2.503   1.345  1.0200 -0.5089 -1.2987
 6350TIP3    H240610   1.649   2.368   1.413 -1.0374  1.0170  1.6987
 6351TIP3   OH240611   0.077   6.647   7.902  0.0183  0.3425 -0.5274
 6351TIP3    H140612   0.146   6.698   7.860  0.7072  0.0926  0.2862
 6351TIP3    H240613   0.123   6.573   7.941 -0.2426  1.7081  2.6401
 6352TIP3   OH240614   0.424   0.391   8.437  0.1468  0.0985 -0.1413
 6352TIP3    H140615   0.470   0.325   8.488  2.0144  1.5920  0.2319
 6352TIP3    H240616   0.380   0.342   8.367 -0.6685 -1.7537  1.5934
 6353TIP3   OH240617   1.343   4.804   1.839  0.2970  0.1136 -0.4605
 6353TIP3    H140618   1.377   4.788   1.927  1.5621  2.3177 -0.4850
 6353TIP3    H240619   1.296   4.887   1.846 -3.9737 -1.9892 -0.8125
 6354TIP3   OH240620   3.124   4.547   8.708  0.3361  0.2574 -0.3039
 6354TIP3    H140621   3.044   4.525   8.660  0.6294 -0.2149 -0.5838
 6354TIP3    H240622   3.185   4.576   8.640  0.8213 -0.6097 -0.2476
 6355TIP3   OH240623   0.154   1.637   0.625  0.4199 -0.4364  0.4610
 6355TIP3    H140624   0.241   1.672   0.603 -0.7386  0.3752 -3.5321
 6355TIP3    H240625   0.171   1.548   0.654  2.5573 -0.6960 -1.3406
 6356TIP3   OH240626   4.994   0.505   0.827 -0.5826 -0.6301  0.3991
 6356TIP3    H140627   5.088   0.519   0.835 -0.7350  0.6137  0.2105
 6356TIP3    H240628   4.954   0.579   0.872 -1.4517  0.1015 -1.4511
 6357TIP3   OH240629   4.524   3.490   7.578  0.2749  0.5444 -0.5208
 6357TIP3    H140630   4.554   3.429   7.645 -0.2057  0.3957 -0.4393
 6357TIP3    H240631   4.539   3.445   7.495  1.3655  0.9370 -0.5563
 6358TIP3   OH240632   5.661   6.524   0.927  0.7526  0.4619 -0.1701
 6358TIP3    H140633   5.615   6.608   0.921  0.7890  0.7169  2.0849
 6358TIP3    H240634   5.623   6.470   0.858 -0.6151  1.7207 -0.4411
 6359TIP3   OH240635   3.209   6.117   7.963 -0.0052  0.1121  0.2992
 6359TIP3    H140636   3.120   6.147   7.943  0.2156  0.3496 -0.3264
 6359TIP3    H240637   3.248   6.099   7.878  0.1304 -1.2190  0.6211
 6360TIP3   OH240638   6.375   3.166   8.742  0.3113 -0.0193  0.6582
 6360TIP3    H140639   6.332   3.250   8.758 -0.0988  0.4286 -2.2372
 6360TIP3    H240640   6.304   3.102   8.745  0.5542 -0.2379  2.4249
 6361TIP3   OH240641   6.282   1.550   6.937  0.4605 -0.2795 -0.3440
 6361TIP3    H140642   6.262   1.624   6.879 -0.4055 -0.2477 -0.0169
 6361TIP3    H240643   6.229   1.566   7.015  0.1687 -1.3054 -0.3173
 6362TIP3   OH240644   1.438   4.405   0.872  1.1245 -0.1979 -0.2255
 6362TIP3    H140645   1.361   4.462   0.875  0.8328 -0.6160  0.5976
 6362TIP3    H240646   1.402   4.317   0.871  1.5753 -0.4379  1.5194
 6363TIP3   OH240647   5.401   4.462   7.267 -0.1589  0.1229  0.4130
 6363TIP3    H140648   5.325   4.424   7.224  0.9787 -3.0224  0.8632
 6363TIP3    H240649   5.408   4.550   7.232 -1.7852 -0.7970 -2.5536
 6364TIP3   OH240650   1.627   1.075   8.092  0.3619  0.2893  0.0821
 6364TIP3    H140651   1.555   1.115   8.141  1.7428  3.2416 -0.0688
 6364TIP3    H240652   1.634   0.986   8.128 -3.2293 -0.1428  0.1284
 6365TIP3   OH240653   5.870   6.352   1.029 -0.3411  0.7477 -0.4021
 6365TIP3    H140654   5.953   6.373   0.985 -0.4881  1.3478 -0.4099
 6365TIP3    H240655   5.810   6.420   0.998 -0.7879  0.4198 -0.2561
 6366TIP3   OH240656   4.471   4.226   7.834 -0.1080  0.0837  0.0292
 6366TIP3    H140657   4.562   4.223   7.865  0.9093  2.0555 -2.4202
 6366TIP3    H240658   4.468   4.161   7.764 -0.4744  0.3307 -0.1828
 6367TIP3   OH240659   0.299   3.484   6.794 -0.1274 -0.1896  0.0075
 6367TIP3    H140660   0.386   3.525   6.794 -0.4969  0.6282  0.8481
 6367TIP3    H240661   0.317   3.390   6.805  0.6393  0.0179  0.6479
 6368TIP3   OH240662   4.750   4.861   1.109  0.3253  0.0016 -0.7473
 6368TIP3    H140663   4.771   4.889   1.020  0.7841 -1.6818 -1.2002
 6368TIP3    H240664   4.821   4.898   1.162  0.4124  0.4567 -1.1668
 6369TIP3   OH240665   4.017   2.581   7.296 -0.0596 -0.0156  0.6314
 6369TIP3    H140666   3.942   2.574   7.236  1.1195  1.5716 -1.1214
 6369TIP3    H240667   4.062   2.661   7.269  1.3811 -0.0695  2.6985
 6370TIP3   OH240668   3.744   3.778   7.977  0.4346  0.5776  0.2050
 6370TIP3    H140669   3.662   3.811   8.013  1.0587  0.8109  1.4777
 6370TIP3    H240670   3.812   3.834   8.017  1.2598 -0.0485 -0.2876
 6371TIP3   OH240671   4.341   2.839   2.982  0.4567  0.7813  0.2828
 6371TIP3    H140672   4.272   2.857   3.046  1.5314  0.2721  1.6452
 6371TIP3    H240673   4.342   2.744   2.974 -0.2958  0.8820 -1.2477
 6372TIP3   OH240674   4.403   1.768   2.779 -0.5079  0.4049 -0.8816
 6372TIP3    H140675   4.454   1.804   2.851 -1.6225  0.8909 -0.3158
 6372TIP3    H240676   4.403   1.673   2.795 -1.0563  0.5424 -0.0367
 6373TIP3   OH240677   2.047   5.165   7.564 -0.0307 -0.3131  0.2586
 6373TIP3    H140678   2.087   5.081   7.544  2.3110  0.9807 -0.8740
 6373TIP3    H240679   2.021   5.200   7.479 -1.4952 -0.0737  0.7654
 6374TIP3   OH240680   0.638   3.360   8.413 -0.2661  1.0211 -0.2001
 6374TIP3    H140681   0.709   3.343   8.475 -1.0155  0.7654  0.5889
 6374TIP3    H240682   0.625   3.277   8.368 -0.8935  0.7157  0.5246
 6375TIP3   OH240683   0.862   4.347   1.874  0.7268  0.1048  0.5976
 6375TIP3    H140684   0.846   4.341   1.780 -0.3004  0.0847  0.7601
 6375TIP3    H240685   0.943   4.397   1.882  1.2065 -0.5064 -0.3151
 6376TIP3   OH240686   6.099   0.099   0.497 -0.4049  0.2113 -0.8333
 6376TIP3    H140687   6.189   0.068   0.507 -0.4478  0.3656  0.2139
 6376TIP3    H240688   6.077   0.084   0.405  0.2334 -1.0517 -0.7934
 6377TIP3   OH240689   4.890   4.603   8.158 -0.2958  0.1976 -0.4363
 6377TIP3    H140690   4.817   4.588   8.098 -2.1038 -0.6322  1.7911
 6377TIP3    H240691   4.847   4.619   8.243  2.0995  1.3961  0.6442
 6378TIP3   OH240692   4.427   5.154   8.420  0.1360 -0.1427  0.4939
 6378TIP3    H140693   4.342   5.110   8.418  0.6171 -1.0623 -0.2838
 6378TIP3    H240694   4.442   5.173   8.513  0.2397 -2.2991  0.9647
 6379TIP3   OH240695   6.532   6.565   7.216 -0.6269  0.2273  0.5605
 6379TIP3    H140696   6.488   6.631   7.269 -1.2854  0.1825  0.0833
 6379TIP3    H240697   6.480   6.559   7.136  1.1394  1.3664 -0.7612
 6380TIP3   OH240698   5.801   3.033   2.072  0.2632 -0.1361  0.1064
 6380TIP3    H140699   5.827   3.115   2.114  0.0032 -0.6668  1.3418
 6380TIP3    H240700   5.742   2.992   2.134  3.3827 -3.1348  1.4214
 6381TIP3   OH240701   3.861   2.795   8.145  0.0527  0.4486 -0.4424
 6381TIP3    H140702   3.926   2.825   8.081 -0.5295  1.7356 -0.4549
 6381TIP3    H240703   3.805   2.871   8.159  0.1060  0.1577  1.5437
 6382TIP3   OH240704   5.718   5.054   0.771 -0.1132 -0.4428 -0.7237
 6382TIP3    H140705   5.786   4.988   0.755  0.7573  0.4892 -0.9855
 6382TIP3    H240706   5.712   5.103   0.689  1.8292  2.0718  0.4672
 6383TIP3   OH240707   0.422   1.682   0.633  0.4499  0.2742  0.2332
 6383TIP3    H140708   0.499   1.716   0.589 -1.5041  1.4413 -2.5860
 6383TIP3    H240709   0.428   1.715   0.722  2.6913  1.1388 -0.1832
 6384TIP3   OH240710   6.211   0.090   8.024 -0.1087 -0.1832  0.2935
 6384TIP3    H140711   6.195   0.114   7.933  0.4533 -0.9003  0.0006
 6384TIP3    H240712   6.287   0.142   8.049 -0.2312 -0.0249  0.3382
 6385TIP3   OH240713   4.863   0.986   1.994  0.5734  0.3415  0.0484
 6385TIP3    H140714   4.908   0.997   2.077 -2.0683 -0.5424  1.7470
 6385TIP3    H240715   4.795   0.921   2.013 -1.9295  2.1652 -2.0349
 6386TIP3   OH240716   3.943   3.858   8.325 -0.2788 -0.0213  0.1221
 6386TIP3    H140717   4.002   3.836   8.254  0.8206  1.4401  0.5215
 6386TIP3    H240718   3.965   3.948   8.347 -2.1854  0.3291  0.7825
 6387TIP3   OH240719   4.869   4.334   1.591  0.3930 -0.8998  0.3401
 6387TIP3    H140720   4.805   4.405   1.596 -1.4406 -2.5501  1.7400
 6387TIP3    H240721   4.889   4.327   1.498 -0.3340  0.6401  0.0370
 6388TIP3   OH240722   2.293   0.041   0.604 -0.4562 -0.5692  0.2399
 6388TIP3    H140723   2.325  -0.041   0.639  1.7384 -0.2699 -0.8746
 6388TIP3    H240724   2.277   0.024   0.511  0.5725  0.3758 -0.1348
 6389TIP3   OH240725   1.637   1.011   1.107  0.0876 -0.0507  0.2528
 6389TIP3    H140726   1.598   1.040   1.025 -2.3194  0.6160  1.5414
 6389TIP3    H240727   1.730   1.035   1.099 -0.0209 -0.1870 -2.3023
 6390TIP3   OH240728   5.259   5.658   0.503 -0.2410 -0.0654 -0.4159
 6390TIP3    H140729   5.326   5.669   0.570 -1.4792  1.0248  0.6790
 6390TIP3    H240730   5.306   5.618   0.429  1.5342  0.3832  0.4185
 6391TIP3   OH240731   4.274   0.578   2.156  0.2140 -0.0298 -0.1888
 6391TIP3    H140732   4.259   0.653   2.098  1.1691 -0.6127 -1.2247
 6391TIP3    H240733   4.331   0.613   2.225  0.0137  0.3921 -0.2343
 6392TIP3   OH240734   0.901   3.669   8.018 -0.2097  0.2143  0.0849
 6392TIP3    H140735   0.825   3.650   7.963  1.1079 -0.3784 -1.6299
 6392TIP3    H240736   0.868   3.665   8.108 -1.9911 -0.9910 -0.5707
 6393TIP3   OH240737   6.471   0.883   8.511  0.0166 -0.0550  0.6988
 6393TIP3    H140738   6.498   0.972   8.487 -2.7020  0.7506  0.2665
 6393TIP3    H240739   6.436   0.892   8.600  0.4996 -0.9049  0.9929
 6394TIP3   OH240740   0.650   0.481   7.587 -0.1806 -0.2651 -0.1093
 6394TIP3    H140741   0.719   0.513   7.529 -0.2699 -0.2240 -0.1923
 6394TIP3    H240742   0.577   0.540   7.572 -1.4584 -2.2865 -2.5538
 6395TIP3   OH240743   3.688   6.776   7.924  0.5293 -0.5315  0.1963
 6395TIP3    H140744   3.749   6.713   7.964  0.1666 -0.7844  0.3595
 6395TIP3    H240745   3.625   6.722   7.877 -1.1594 -0.4630  2.2232
 6396TIP3   OH240746   3.641   5.708   7.535 -0.2652  0.0747  0.2321
 6396TIP3    H140747   3.733   5.729   7.554 -0.1973 -1.4199  1.8227
 6396TIP3    H240748   3.645   5.618   7.503 -0.9410  0.8903 -2.3582
 6397TIP3   OH240749   6.114   6.448   0.538 -0.5878 -0.3173  0.2995
 6397TIP3    H140750   6.205   6.479   0.536 -0.4472 -0.7004  0.6526
 6397TIP3    H240751   6.062   6.528   0.530 -0.2203 -0.1189 -0.1904
 6398TIP3   OH240752   3.250   2.878   0.908  0.2508  0.0663  0.3739
 6398TIP3    H140753   3.193   2.946   0.944 -0.0564 -0.3942  0.7652
 6398TIP3    H240754   3.334   2.922   0.896 -0.1805  0.7573 -0.2212
 6399TIP3   OH240755   3.620   1.541   1.441  0.6552 -0.3698 -0.2989
 6399TIP3    H140756   3.712   1.516   1.429  1.2941  1.5541  0.3152
 6399TIP3    H240757   3.614   1.629   1.405 -0.9300 -0.4112 -0.1950
 6400TIP3   OH240758   2.909   2.547   7.917  0.2491  0.2776  0.1853
 6400TIP3    H140759   2.816   2.526   7.919  0.0547  1.0261  2.6081
 6400TIP3    H240760   2.914   2.632   7.874 -0.1294  0.0278 -0.3601
 6401TIP3   OH240761   4.194   1.157   8.730  0.6484  0.5291  0.0637
 6401TIP3    H140762   4.211   1.093   8.799 -0.9146  0.1785  0.1646
 6401TIP3    H240763   4.110   1.196   8.754  0.4449  0.9392 -1.2590
 6402TIP3   OH240764   1.084   6.669   2.463  0.2037  0.2234  0.2103
 6402TIP3    H140765   1.102   6.667   2.557 -0.2988 -0.5446  0.2954
 6402TIP3    H240766   1.026   6.745   2.451  0.1389  0.2274  0.5395
 6403TIP3   OH240767   3.850   1.646   2.050  0.0926  0.6144  0.3306
 6403TIP3    H140768   3.820   1.592   2.123  0.9109 -1.0845 -0.5420
 6403TIP3    H240769   3.924   1.695   2.086 -0.2235  0.6507  0.9449
 6404TIP3   OH240770   6.666   5.290   2.185  0.0500  0.0860  0.1312
 6404TIP3    H140771   6.685   5.226   2.254  0.8855 -0.2379 -0.3833
 6404TIP3    H240772   6.570   5.295   2.184 -0.0235 -0.8791  0.4383
 6405TIP3   OH240773   3.622   1.306   2.557 -0.2213  0.2640  0.1784
 6405TIP3    H140774   3.610   1.254   2.636  0.4874 -2.2160 -1.2359
 6405TIP3    H240775   3.675   1.380   2.585 -0.7635 -0.0558  2.1952
 6406TIP3   OH240776   6.220   0.478   7.956 -0.0846 -0.8350 -0.2794
 6406TIP3    H140777   6.147   0.500   7.899 -0.1017 -1.2493 -0.4245
 6406TIP3    H240778   6.182   0.421   8.023  0.3083 -2.0109 -1.0163
 6407TIP3   OH240779   5.817   6.310   7.423 -0.0695  0.2016 -0.3528
 6407TIP3    H140780   5.855   6.394   7.451 -1.1433  0.6306 -0.1383
 6407TIP3    H240781   5.726   6.314   7.453 -0.1998 -0.9462 -0.5593
 6408TIP3   OH240782   6.300   0.913   1.961 -0.6298 -0.4056  1.1119
 6408TIP3    H140783   6.308   0.998   1.919  1.0828 -0.4694  1.2418
 6408TIP3    H240784   6.248   0.930   2.040 -0.1830  0.5547  1.2126
 6409TIP3   OH240785   0.054   5.961   0.209  0.0495  0.0091 -0.0762
 6409TIP3    H140786   0.109   6.031   0.174 -1.0502  0.8021 -0.2787
 6409TIP3    H240787   0.098   5.880   0.182  1.0281  0.6131 -0.3482
 6410TIP3   OH240788   1.738   2.397   6.524 -0.3332 -0.9365 -1.1602
 6410TIP3    H140789   1.789   2.318   6.545 -1.7137 -1.7021 -0.5353
 6410TIP3    H240790   1.664   2.364   6.472  0.1590  0.2445 -2.6916
 6411TIP3   OH240791   2.142   1.056   0.657 -0.4167  0.4845  0.2130
 6411TIP3    H140792   2.228   1.067   0.698 -0.1839 -0.1362 -0.0829
 6411TIP3    H240793   2.079   1.080   0.724 -0.0369 -0.2298  0.8356
 6412TIP3   OH240794   3.116   3.611   7.742 -0.4436  0.7385 -0.0441
 6412TIP3    H140795   3.173   3.604   7.665 -0.0128  0.9972  0.2398
 6412TIP3    H240796   3.137   3.697   7.779  0.7295 -0.1175  1.4217
 6413TIP3   OH240797   1.747   5.477   7.463  0.3716 -0.1083  0.4561
 6413TIP3    H140798   1.658   5.506   7.448  0.1071 -1.8203 -1.9441
 6413TIP3    H240799   1.760   5.484   7.558 -2.1582  0.5237  0.8085
 6414TIP3   OH240800   2.141   0.338   6.410  0.4667 -0.0360  0.5080
 6414TIP3    H140801   2.163   0.427   6.384  1.2116  0.1176  1.6013
 6414TIP3    H240802   2.218   0.286   6.385 -1.1552 -1.0163 -3.0284
 6415TIP3   OH240803   3.726   5.009   8.198  0.2750 -0.1515  0.1873
 6415TIP3    H140804   3.691   5.097   8.206  0.3260 -0.2265  1.3770
 6415TIP3    H240805   3.746   4.999   8.105  0.5837  1.1972  0.1002
 6416TIP3   OH240806   0.375   1.648   8.548  1.4298 -0.3122 -0.0964
 6416TIP3    H140807   0.433   1.680   8.617  0.8060 -0.1176  0.3526
 6416TIP3    H240808   0.339   1.728   8.508 -1.3246 -0.3073  2.0315
 6417TIP3   OH240809   2.688   5.499   8.008  0.2316 -0.1761 -0.2557
 6417TIP3    H140810   2.663   5.526   8.097 -0.9770 -1.3508 -0.2094
 6417TIP3    H240811   2.770   5.452   8.020  0.1702 -0.1705  0.2222
 6418TIP3   OH240812   3.820   3.251   2.620  0.4917 -0.0559  0.1167
 6418TIP3    H140813   3.730   3.244   2.652  0.4727  0.7112  0.2556
 6418TIP3    H240814   3.811   3.268   2.526  0.4469  1.0448  0.3010
 6419TIP3   OH240815   4.152   4.718   8.694 -0.2513 -0.3648  0.6349
 6419TIP3    H140816   4.216   4.788   8.706 -1.9129  1.3212  0.0826
 6419TIP3    H240817   4.131   4.689   8.782 -0.7626  0.9936  0.9726
 6420TIP3   OH240818   2.834   4.049   7.759 -0.3357 -0.0028  0.5353
 6420TIP3    H140819   2.889   4.124   7.733 -0.4826  0.1046  0.5365
 6420TIP3    H240820   2.879   4.012   7.835 -0.8050  0.7047  1.1703
 6421TIP3   OH240821   6.647   1.201   8.048 -0.5898  0.0003 -0.6938
 6421TIP3    H140822   6.578   1.135   8.044  0.0460 -0.6818 -0.5846
 6421TIP3    H240823   6.621   1.259   8.119  0.1812 -1.6696  1.0242
 6422TIP3   OH240824   2.264   3.864   7.165 -0.0550 -0.6226 -0.1792
 6422TIP3    H140825   2.266   3.840   7.072 -2.2829 -1.6338 -0.0480
 6422TIP3    H240826   2.259   3.780   7.211 -1.0917 -0.1038  0.7107
 6423TIP3   OH240827   4.493   0.045   2.285 -0.0675  0.5097 -0.2684
 6423TIP3    H140828   4.445   0.048   2.368 -1.4613  1.0367 -1.0614
 6423TIP3    H240829   4.510   0.136   2.263  1.4575  0.3280  0.0578
 6424TIP3   OH240830   1.024   3.941   1.439  0.2665 -0.1216  0.1999
 6424TIP3    H140831   1.025   3.944   1.535  1.8902  0.9350  0.1825
 6424TIP3    H240832   1.107   3.979   1.413 -1.7218  3.5436 -1.7022
 6425TIP3   OH240833   1.508   3.550   7.678  0.2664  0.1246  0.2660
 6425TIP3    H140834   1.514   3.456   7.659  0.5024  0.1216  0.3498
 6425TIP3    H240835   1.449   3.584   7.611  1.8427  0.2864 -1.1389
 6426TIP3   OH240836   5.685   1.419   1.549 -0.2745  0.0487 -0.6557
 6426TIP3    H140837   5.661   1.452   1.635 -1.7577  0.1536 -1.0838
 6426TIP3    H240838   5.602   1.411   1.502  0.2472 -2.1054 -1.3408
 6427TIP3   OH240839   1.741   6.144   7.067 -0.3927 -0.4043 -0.1172
 6427TIP3    H140840   1.744   6.190   7.151  0.1365 -2.2006  0.8925
 6427TIP3    H240841   1.821   6.171   7.022  0.7972 -1.5966  1.1943
 6428TIP3   OH240842   4.663   2.373   0.935  0.1855 -0.3523  0.1577
 6428TIP3    H140843   4.610   2.294   0.923 -2.4405  0.9398  2.0066
 6428TIP3    H240844   4.629   2.411   1.016 -1.3816  4.5535 -2.3948
 6429TIP3   OH240845   3.390   1.314   0.576  0.7127  0.0241  0.1314
 6429TIP3    H140846   3.423   1.297   0.488  1.0126  0.7578  0.0937
 6429TIP3    H240847   3.363   1.229   0.609  0.5489 -0.2446 -0.6913
 6430TIP3   OH240848   0.471   1.054   7.677 -0.7993  0.1030 -0.0648
 6430TIP3    H140849   0.487   1.146   7.652 -0.2689 -0.2906 -1.2468
 6430TIP3    H240850   0.380   1.039   7.652 -0.5462 -0.0156 -0.9504
 6431TIP3   OH240851   5.763   6.018   0.179  0.0894 -0.2619 -0.1078
 6431TIP3    H140852   5.786   6.074   0.253  1.2732  0.3713 -0.9133
 6431TIP3    H240853   5.668   6.028   0.170 -0.2909 -1.3528  2.0760
 6432TIP3   OH240854   2.521   1.484   8.634 -0.9210 -0.3094 -0.9621
 6432TIP3    H140855   2.597   1.511   8.582 -1.3021 -1.1376 -2.0068
 6432TIP3    H240856   2.449   1.482   8.571 -1.1739 -2.4550 -0.7072
 6433TIP3   OH240857   6.059   6.276   1.281  0.3096 -0.6046 -0.1706
 6433TIP3    H140858   5.971   6.315   1.275  0.1695 -1.0065 -0.7906
 6433TIP3    H240859   6.080   6.279   1.375 -0.5514 -0.9147  0.0435
 6434TIP3   OH240860   2.138   0.158   7.736 -0.0230  0.5527  0.6556
 6434TIP3    H140861   2.203   0.100   7.694 -0.1849  1.3675 -0.7714
 6434TIP3    H240862   2.186   0.240   7.752 -1.2200  2.0261 -2.5950
 6435TIP3   OH240863   2.809   4.589   7.994  0.4786  0.3660 -0.3281
 6435TIP3    H140864   2.771   4.579   7.907 -0.6805  0.6291  0.1270
 6435TIP3    H240865   2.892   4.542   7.990  0.1717 -0.1029 -1.4046
 6436TIP3   OH240866   3.530   0.809   1.342 -0.0122 -0.2577 -0.2368
 6436TIP3    H140867   3.473   0.875   1.382 -0.0190 -1.0194  1.0756
 6436TIP3    H240868   3.612   0.855   1.325 -0.4516  0.4160 -0.5697
 6437TIP3   OH240869   4.905   2.383   1.716  0.0533  0.8611 -0.2779
 6437TIP3    H140870   4.911   2.435   1.635  0.4026 -0.7342 -1.3120
 6437TIP3    H240871   4.996   2.367   1.740 -0.0434 -0.2017 -0.5947
 6438TIP3   OH240872   4.624   4.313   8.156 -0.3429  0.3339  0.5358
 6438TIP3    H140873   4.672   4.292   8.237  0.6980  0.1909 -0.0924
 6438TIP3    H240874   4.636   4.407   8.144 -1.7677  0.6435  1.3185
 6439TIP3   OH240875   1.036   0.491   2.075  0.0973  0.6035 -0.1802
 6439TIP3    H140876   0.944   0.471   2.060  0.3743  0.6949 -2.4674
 6439TIP3    H240877   1.082   0.410   2.051  0.6243  0.5488  0.9521
 6440TIP3   OH240878   0.848   5.450   8.276 -0.2896  0.3373  0.3224
 6440TIP3    H140879   0.835   5.512   8.204  0.0122  0.3307  0.2641
 6440TIP3    H240880   0.896   5.377   8.237 -0.3099  0.2371  0.4829
 6441TIP3   OH240881   6.301   4.999   1.102  0.2539 -0.0396  0.4192
 6441TIP3    H140882   6.296   4.904   1.114  0.3551  0.1500  2.3268
 6441TIP3    H240883   6.286   5.013   1.009 -0.1646 -1.8954  0.1792
 6442TIP3   OH240884   0.553   2.467   1.545  0.1915  0.0130 -0.0047
 6442TIP3    H140885   0.570   2.542   1.602  0.1354 -0.4601  0.6583
 6442TIP3    H240886   0.571   2.498   1.457 -1.7268  1.4012  0.0212
 6443TIP3   OH240887   3.328   0.284   7.641 -0.4981  0.0410  0.3790
 6443TIP3    H140888   3.233   0.273   7.648 -0.7319  1.6052 -0.0470
 6443TIP3    H240889   3.363   0.195   7.650 -1.9075 -0.4026  1.8883
 6444TIP3   OH240890   6.228   0.516   0.609 -0.1249  0.3980  0.4898
 6444TIP3    H140891   6.300   0.554   0.658  0.7739  1.5470 -1.5724
 6444TIP3    H240892   6.162   0.586   0.606 -0.3348  0.1972  0.3893
 6445TIP3   OH240893   1.125   3.651   7.671  0.0887 -0.0636 -0.7236
 6445TIP3    H140894   1.076   3.612   7.598 -1.4533 -0.8417  0.6566
 6445TIP3    H240895   1.127   3.583   7.738  1.8768  0.4783 -0.1874
 6446TIP3   OH240896   0.960   1.409   0.289  0.6138 -0.0446  0.3684
 6446TIP3    H140897   0.904   1.343   0.332 -0.4902  1.4806  1.3838
 6446TIP3    H240898   0.974   1.374   0.201 -0.2950 -1.4385  0.7256
 6447TIP3   OH240899   3.255   1.504   1.951  0.3842  0.0654  0.3032
 6447TIP3    H140900   3.322   1.556   1.906 -0.5680  1.9732  0.9813
 6447TIP3    H240901   3.214   1.453   1.882  1.3282  0.2395 -0.4050
 6448TIP3   OH240902   0.973   4.737   0.837 -0.2033 -0.1580 -0.2044
 6448TIP3    H140903   1.052   4.731   0.891  0.9786 -1.2240 -1.9610
 6448TIP3    H240904   0.902   4.752   0.900  1.1954 -0.6038  1.5575
 6449TIP3   OH240905   4.161   1.093   0.731 -0.4952  0.0292  0.0792
 6449TIP3    H140906   4.202   1.152   0.795  0.6018  0.4315 -0.9558
 6449TIP3    H240907   4.098   1.149   0.684 -0.6343 -0.0379  0.1845
 6450TIP3   OH240908   4.582   5.996   2.256  0.6312  0.4733 -0.1918
 6450TIP3    H140909   4.534   6.058   2.201 -2.5326  0.5760  2.3744
 6450TIP3    H240910   4.533   5.915   2.250  2.6269 -0.7816 -0.6447
 6451TIP3   OH240911   5.379   3.429   8.247 -0.3672 -0.2201  0.1165
 6451TIP3    H140912   5.295   3.459   8.283 -1.0249 -0.5387 -1.0643
 6451TIP3    H240913   5.355   3.352   8.194  0.5031  0.2972 -1.0696
 6452TIP3   OH240914   5.890   1.673   0.461  0.7787  0.0910  0.1644
 6452TIP3    H140915   5.849   1.758   0.480  1.9856 -0.0122  4.2220
 6452TIP3    H240916   5.817   1.615   0.440 -0.4743  1.3806  0.7669
 6453TIP3   OH240917   0.146   1.703   6.853 -0.0130  0.1990 -0.0581
 6453TIP3    H140918   0.197   1.780   6.826 -0.2986 -0.1055 -1.5636
 6453TIP3    H240919   0.055   1.728   6.837 -0.1643 -0.1459  0.2564
 6454TIP3   OH240920   4.117   1.490   2.423  0.0930 -0.2887 -0.9022
 6454TIP3    H140921   4.171   1.569   2.425 -0.1017 -0.1581 -0.7790
 6454TIP3    H240922   4.173   1.421   2.457 -0.1624  0.0529  0.2344
 6455TIP3   OH240923   2.209   2.482   1.104 -0.0192 -0.5574  0.1799
 6455TIP3    H140924   2.228   2.473   1.198  0.8065  2.4800  0.3940
 6455TIP3    H240925   2.280   2.536   1.070 -0.2494 -1.6672 -2.2771
 6456TIP3   OH240926   3.905   3.812   0.530 -0.5390  0.6754 -0.2427
 6456TIP3    H140927   3.899   3.889   0.587 -0.7701  0.4570  0.0321
 6456TIP3    H240928   3.817   3.803   0.494 -0.9886 -0.4402  1.0300
 6457TIP3   OH240929   5.172   4.261   7.463  0.2942  0.7055  0.2340
 6457TIP3    H140930   5.151   4.182   7.513 -0.6829  1.0005  0.3016
 6457TIP3    H240931   5.268   4.263   7.462  0.4044  1.3641  3.1609
 6458TIP3   OH240932   0.328   6.441   7.363 -0.0199  0.3193 -0.1242
 6458TIP3    H140933   0.301   6.370   7.423  2.1748 -0.0859  0.4789
 6458TIP3    H240934   0.421   6.425   7.349 -0.1151  1.4457 -2.3086
 6459TIP3   OH240935   2.214   2.057   7.078  0.0779 -0.2297  0.3506
 6459TIP3    H140936   2.188   2.039   7.169 -1.0240 -0.2847  0.0437
 6459TIP3    H240937   2.131   2.075   7.033  0.6457  0.1368 -0.5720
 6460TIP3   OH240938   2.252   6.240   0.062 -0.5713 -0.2531 -0.7340
 6460TIP3    H140939   2.234   6.254   0.155 -1.1442 -2.4690 -0.4553
 6460TIP3    H240940   2.167   6.218   0.024 -0.0769 -1.0338 -1.4316
 6461TIP3   OH240941   1.772   6.645   1.756  0.4397 -0.4314  0.0709
 6461TIP3    H140942   1.853   6.692   1.779  0.8369 -0.3703 -1.3235
 6461TIP3    H240943   1.800   6.582   1.690 -0.9124  0.7894 -1.7763
 6462TIP3   OH240944   4.638   1.659   8.542  0.2240  0.4843 -0.5606
 6462TIP3    H140945   4.552   1.685   8.507  0.0673 -0.3833 -0.8710
 6462TIP3    H240946   4.696   1.663   8.466  0.4602  1.0933 -0.3446
 6463TIP3   OH240947   5.417   6.088   8.444  0.5536 -0.0545  0.4346
 6463TIP3    H140948   5.509   6.080   8.415 -0.3134  0.9044 -3.1612
 6463TIP3    H240949   5.414   6.170   8.491  1.4097  0.3768 -0.2295
 6464TIP3   OH240950   6.444   5.795   7.216 -0.2684  0.2304 -0.6353
 6464TIP3    H140951   6.452   5.845   7.135 -0.2537  1.8971  0.3289
 6464TIP3    H240952   6.393   5.852   7.274  0.5702 -0.4749  0.8546
 6465TIP3   OH240953   1.700   4.533   0.443  1.0503 -0.1985 -0.3418
 6465TIP3    H140954   1.692   4.600   0.511 -0.7608 -0.2051 -0.5018
 6465TIP3    H240955   1.718   4.452   0.491  0.3653 -0.0983  0.1000
 6466TIP3   OH240956   0.595   5.349   1.015 -0.0731 -0.3432 -0.2213
 6466TIP3    H140957   0.687   5.364   0.992  0.6895  1.7779  3.4040
 6466TIP3    H240958   0.567   5.432   1.055 -2.7112 -1.8298  1.2860
 6467TIP3   OH240959   6.740   0.532   7.748 -0.1461  0.2937 -0.1486
 6467TIP3    H140960   6.668   0.472   7.728  0.2471  0.1684 -1.2218
 6467TIP3    H240961   6.728   0.553   7.841 -0.9200 -0.5892 -0.0330
 6468TIP3   OH240962   4.188   5.445   7.624  0.0416  0.4144  0.1580
 6468TIP3    H140963   4.170   5.475   7.535  1.4931  1.4891  0.1827
 6468TIP3    H240964   4.222   5.356   7.613 -0.0130  0.4520 -0.3415
 6469TIP3   OH240965   1.658   0.168   1.193  0.3734  0.1913 -0.8123
 6469TIP3    H140966   1.645   0.228   1.120 -1.5326 -0.0809 -0.7382
 6469TIP3    H240967   1.686   0.086   1.152 -0.1683  0.1969 -1.2031
 6470TIP3   OH240968   6.745   6.213   1.188  0.9282 -0.2445  0.2111
 6470TIP3    H140969   6.795   6.285   1.226 -1.5801  1.3444  0.7563
 6470TIP3    H240970   6.729   6.154   1.261  0.8883 -0.0689  0.3465
 6471TIP3   OH240971   5.992   0.345   7.219  0.3419 -0.0190 -0.3182
 6471TIP3    H140972   6.049   0.329   7.143 -1.3699 -0.8736 -1.4752
 6471TIP3    H240973   5.936   0.417   7.192  0.7523  0.7323  0.7705
 6472TIP3   OH240974   0.298   5.740   7.454 -0.1711 -0.1547  0.0126
 6472TIP3    H140975   0.359   5.814   7.446 -0.4117 -0.1016 -1.6670
 6472TIP3    H240976   0.287   5.709   7.364  0.1244 -2.4138  0.7051
 6473TIP3   OH240977   4.501   2.146   1.768  0.7798  0.3260  0.4341
 6473TIP3    H140978   4.556   2.068   1.761 -0.2409 -0.2793 -2.0262
 6473TIP3    H240979   4.515   2.193   1.686 -1.3524  0.8153  0.2844
 6474TIP3   OH240980   5.306   3.183   1.283  0.4247  0.3347  0.4295
 6474TIP3    H140981   5.287   3.196   1.376 -1.2346  1.0108  0.0223
 6474TIP3    H240982   5.401   3.196   1.276  0.6915 -0.4461  2.1252
 6475TIP3   OH240983   3.368   1.278   7.669  0.1317 -0.1490 -0.4090
 6475TIP3    H140984   3.397   1.362   7.632  2.6701 -1.0730 -0.7184
 6475TIP3    H240985   3.360   1.220   7.594 -0.7581 -0.4418 -0.1000
 6476TIP3   OH240986   4.452   1.080   8.715 -0.3283 -0.1945  0.7911
 6476TIP3    H140987   4.357   1.086   8.702 -0.5753  0.3544  2.6351
 6476TIP3    H240988   4.489   1.140   8.650 -1.0690 -2.0170 -1.4299
 6477TIP3   OH240989   5.019   2.961   2.166 -0.3116  0.1514 -0.0398
 6477TIP3    H140990   4.992   2.978   2.075  0.3803  0.7804 -0.1312
 6477TIP3    H240991   5.113   2.981   2.167 -0.1653 -0.5442  0.6451
 6478TIP3   OH240992   4.492   5.855   2.814  0.4734  0.0473 -0.2485
 6478TIP3    H140993   4.468   5.791   2.747  1.0123 -0.0064 -0.3869
 6478TIP3    H240994   4.451   5.821   2.894 -1.0913  0.6692 -0.7349
 6479TIP3   OH240995   5.920   4.635   6.470 -0.2954  0.2731 -0.1919
 6479TIP3    H140996   6.006   4.657   6.507 -0.8869 -0.6692  1.8311
 6479TIP3    H240997   5.861   4.701   6.506 -0.7828 -0.3077  0.0820
 6480TIP3   OH240998   0.332   1.288   1.317 -0.3829 -0.1553  0.1682
 6480TIP3    H140999   0.386   1.288   1.237  0.9587  1.7333  0.9953
 6480TIP3    H241000   0.297   1.378   1.321  1.1203  0.3927  2.6498
 6481TIP3   OH241001   3.595   3.929   7.599 -0.0778 -0.1022 -0.4468
 6481TIP3    H141002   3.534   3.923   7.673 -0.4380  0.8297 -0.6440
 6481TIP3    H241003   3.551   3.882   7.528  0.6536 -1.7477  0.1443
 6482TIP3   OH241004   3.328   5.726   0.586  0.0922  0.0902 -0.1097
 6482TIP3    H141005   3.251   5.690   0.541  0.2173 -0.6779  0.2822
 6482TIP3    H241006   3.321   5.820   0.573 -1.0517  0.0552  0.1220
 6483TIP3   OH241007   5.877   2.369   0.111  0.2553  0.2680  0.0391
 6483TIP3    H141008   5.846   2.435   0.174  0.9897  1.7916 -1.1417
 6483TIP3    H241009   5.800   2.314   0.095 -0.2127  0.4410  1.5056
 6484TIP3   OH241010   1.101   5.646   2.461 -0.1913  0.0780 -0.1326
 6484TIP3    H141011   1.122   5.640   2.554  0.2401 -0.2340 -0.2429
 6484TIP3    H241012   1.022   5.699   2.457  0.0578  0.4979  0.3740
 6485TIP3   OH241013   0.417   2.643   7.781 -0.1728 -0.0442 -0.3152
 6485TIP3    H141014   0.323   2.657   7.784 -0.3388 -1.0835 -0.2584
 6485TIP3    H241015   0.427   2.548   7.777  0.8983  0.0207  0.4926
 6486TIP3   OH241016   2.833   3.250   8.232 -0.2926 -0.1240  0.7830
 6486TIP3    H141017   2.761   3.203   8.190 -1.8396  1.9499  0.9589
 6486TIP3    H241018   2.816   3.342   8.212  2.7351  0.4147  0.2498
 6487TIP3   OH241019   3.693   3.657   7.368 -0.5086 -0.2349 -0.5060
 6487TIP3    H141020   3.759   3.726   7.361 -0.9086  0.3267  0.9876
 6487TIP3    H241021   3.618   3.691   7.319 -0.5192  0.1642 -0.2170
 6488TIP3   OH241022   3.582   4.539   7.545 -0.2456 -0.3851 -0.2961
 6488TIP3    H141023   3.657   4.584   7.506  0.8925 -1.5573  0.4381
 6488TIP3    H241024   3.534   4.505   7.470  0.0577  0.2210 -0.7802
 6489TIP3   OH241025   2.545   2.805   7.924 -0.3383 -0.2727 -0.1600
 6489TIP3    H141026   2.609   2.761   7.867 -0.3379 -1.0432  0.4178
 6489TIP3    H241027   2.595   2.875   7.966  0.0129 -0.5912 -0.0456
 6490TIP3   OH241028   3.612   1.789   8.009 -0.2775  0.7846  0.0978
 6490TIP3    H141029   3.644   1.715   8.060  0.9711  0.5239 -0.9993
 6490TIP3    H241030   3.691   1.830   7.973 -1.0970  0.4954 -2.2075
 6491TIP3   OH241031   3.760   4.806   2.840 -0.5126  0.0122 -0.5969
 6491TIP3    H141032   3.669   4.807   2.870 -0.6281  0.5101 -0.9600
 6491TIP3    H241033   3.767   4.880   2.781  0.6315  1.1430  0.8777
 6492TIP3   OH241034   1.046   4.517   7.604  0.1125  0.4623 -0.4520
 6492TIP3    H141035   1.054   4.422   7.601  1.8224  0.5605  0.0282
 6492TIP3    H241036   1.130   4.549   7.572  1.4587  1.7305  3.6536
 6493TIP3   OH241037   2.653   6.574   1.058 -0.4101  0.5476 -1.0620
 6493TIP3    H141038   2.592   6.635   1.017 -1.9861 -1.0682 -1.2478
 6493TIP3    H241039   2.648   6.593   1.152 -1.1992  0.4724 -1.0811
 6494TIP3   OH241040   6.010   0.330   0.539 -0.6234 -0.2575 -0.5216
 6494TIP3    H141041   6.031   0.237   0.540  1.9506  0.2298  1.2209
 6494TIP3    H241042   6.094   0.373   0.522 -1.3919  1.7745  0.5041
 6495TIP3   OH241043   6.537   5.283   8.594  0.1682  0.2781 -0.2252
 6495TIP3    H141044   6.618   5.325   8.566 -1.5828  2.9404 -1.6300
 6495TIP3    H241045   6.529   5.207   8.537  0.7388  1.0664 -1.3884
 6496TIP3   OH241046   1.415   5.888   7.899 -0.4429 -0.0766 -0.4802
 6496TIP3    H141047   1.409   5.932   7.814 -3.0538  1.7063  0.4611
 6496TIP3    H241048   1.351   5.817   7.893 -0.6154  0.0378 -0.0538
 6497TIP3   OH241049   4.859   5.868   0.693  0.5014 -0.3044  0.3666
 6497TIP3    H141050   4.808   5.931   0.745  1.0888 -0.4770  1.1596
 6497TIP3    H241051   4.834   5.783   0.728 -0.4835 -0.5529 -0.8733
 6498TIP3   OH241052   5.192   0.578   3.116  0.4723  0.1514 -0.4824
 6498TIP3    H141053   5.224   0.652   3.064  1.7430 -0.4429 -0.6048
 6498TIP3    H241054   5.131   0.533   3.058  0.4906  0.5195 -0.7933
 6499TIP3   OH241055   2.846   2.269   2.076  0.5390  0.2845 -0.1145
 6499TIP3    H141056   2.907   2.285   2.003  0.1654  3.4159  0.0921
 6499TIP3    H241057   2.886   2.315   2.150 -1.6255  1.8173  0.1969
 6500TIP3   OH241058   3.924   0.657   8.542 -0.4562 -0.2970 -0.7139
 6500TIP3    H141059   3.859   0.726   8.560  1.2542  1.4017 -0.6571
 6500TIP3    H241060   3.894   0.582   8.592 -1.9455  0.6943 -0.0419
 6501TIP3   OH241061   4.898   2.080   1.606 -0.4837  0.3724  0.0646
 6501TIP3    H141062   4.875   2.071   1.513  0.7191  0.7889 -0.2921
 6501TIP3    H241063   4.937   2.166   1.612  1.4968 -0.5102  0.5049
 6502TIP3   OH241064   0.465   3.109   1.711  0.6128  0.2405 -0.0699
 6502TIP3    H141065   0.374   3.131   1.730  1.1788  2.3357  0.5145
 6502TIP3    H241066   0.488   3.166   1.637  2.2112  1.9244  1.6121
 6503TIP3   OH241067   5.532   3.788   7.316  0.8781  0.2225  0.0891
 6503TIP3    H141068   5.568   3.754   7.234 -2.3148  0.2493 -1.4609
 6503TIP3    H241069   5.546   3.717   7.379 -0.1606 -1.5168 -1.5423
 6504TIP3   OH241070   4.500   6.813   8.761  0.0422  0.2752  0.2213
 6504TIP3    H141071   4.590   6.835   8.740 -0.0572  0.0229 -0.5016
 6504TIP3    H241072   4.500   6.717   8.766 -0.1927  0.2741  0.2012
 6505TIP3   OH241073   5.909   5.350   0.349 -0.2628  0.2514  0.1667
 6505TIP3    H141074   5.955   5.391   0.276 -0.3780 -0.5301 -0.3527
 6505TIP3    H241075   5.960   5.272   0.370 -1.1003 -0.3932 -0.1368
 6506TIP3   OH241076   2.966   5.722   8.437 -0.3293 -0.0093  0.1664
 6506TIP3    H141077   3.049   5.722   8.484  0.2562 -0.5605 -0.8547
 6506TIP3    H241078   2.972   5.796   8.377 -0.5074 -0.1480 -0.0249
 6507TIP3   OH241079   5.577   0.106   1.139  0.4097 -0.6153  0.5641
 6507TIP3    H141080   5.595   0.058   1.220 -0.6729  0.0715  1.2470
 6507TIP3    H241081   5.483   0.126   1.145  0.9310  2.1519  0.6395
 6508TIP3   OH241082   5.532   3.299   1.634  0.6650  0.0554 -0.1941
 6508TIP3    H141083   5.618   3.320   1.671  1.3410 -0.6234 -1.3104
 6508TIP3    H241084   5.526   3.351   1.554  1.0715 -1.6109 -1.3692
 6509TIP3   OH241085   1.776   5.464   2.534  0.0743 -0.3946  0.3128
 6509TIP3    H141086   1.784   5.537   2.595  1.1476  0.7434 -1.1079
 6509TIP3    H241087   1.799   5.387   2.585  2.0041  0.6426  1.0910
 6510TIP3   OH241088   3.004   3.624   2.297  0.3412  0.1000 -0.3240
 6510TIP3    H141089   3.060   3.668   2.361 -0.5448  2.0273 -0.8043
 6510TIP3    H241090   2.927   3.597   2.347  1.3427 -2.0513  0.2137
 6511TIP3   OH241091   3.046   1.893   8.591 -0.6287  0.1519  0.2212
 6511TIP3    H141092   3.070   1.941   8.512  2.9477 -0.3224  0.8873
 6511TIP3    H241093   2.962   1.852   8.568  0.1689  0.1253 -3.2649
 6512TIP3   OH241094   3.155   3.262   1.524 -0.3635  0.5366  0.0232
 6512TIP3    H141095   3.160   3.298   1.436  0.4946 -2.7814 -1.4010
 6512TIP3    H241096   3.061   3.255   1.542 -0.5601  0.2163 -1.0843
 6513TIP3   OH241097   2.394   5.930   2.631 -0.0080 -0.0782  0.0168
 6513TIP3    H141098   2.471   5.877   2.649 -0.4659 -0.8000 -0.1113
 6513TIP3    H241099   2.384   5.985   2.709  0.9579  0.4315 -0.2068
 6514TIP3   OH241100   5.259   1.230   7.954 -0.9281  0.0913  0.7535
 6514TIP3    H141101   5.306   1.207   8.034 -1.1096 -1.1786  0.5081
 6514TIP3    H241102   5.170   1.196   7.967 -0.9878 -0.0279  0.0540
 6515TIP3   OH241103   1.420   4.041   6.504 -0.6038  0.0121 -0.1590
 6515TIP3    H141104   1.425   3.971   6.439  1.1509  0.2002 -0.2916
 6515TIP3    H241105   1.486   4.104   6.476 -0.4971  0.5741  1.2570
 6516TIP3   OH241106   2.031   4.503   0.384 -0.7831 -0.8092  0.3457
 6516TIP3    H141107   2.098   4.483   0.319  0.2714  2.0619  0.3838
 6516TIP3    H241108   1.973   4.565   0.341  1.0613  2.7666  2.4761
 6517TIP3   OH241109   0.176   1.851   2.121  0.0040 -0.3521 -0.3149
 6517TIP3    H141110   0.151   1.858   2.029 -0.7039 -0.6674 -0.1552
 6517TIP3    H241111   0.155   1.760   2.144 -0.3075 -0.1340  0.2885
 6518TIP3   OH241112   0.274   0.284   1.271 -0.1315  0.0033  0.2723
 6518TIP3    H141113   0.339   0.315   1.334 -0.9249  0.3215  0.9538
 6518TIP3    H241114   0.235   0.207   1.313 -0.9174  0.4318  0.3448
 6519TIP3   OH241115   0.531   5.985   1.583 -0.7443  0.1372  0.0763
 6519TIP3    H141116   0.504   5.955   1.670  0.8924  0.6330  0.8005
 6519TIP3    H241117   0.512   5.912   1.525  1.6700 -1.7669  1.5060
 6520TIP3   OH241118   2.768   3.264   0.004  0.0105 -0.2840  0.2870
 6520TIP3    H141119   2.851   3.307  -0.018 -0.3400  0.9641  1.3593
 6520TIP3    H241120   2.764   3.265   0.099 -2.3753  1.9535  0.2589
 6521TIP3   OH241121   1.404   4.834   7.819  0.2351  0.7665  1.0393
 6521TIP3    H141122   1.310   4.838   7.806  0.5439  1.1373 -1.6579
 6521TIP3    H241123   1.438   4.912   7.775  2.0649 -1.5548 -2.0476
 6522TIP3   OH241124   3.841   0.070   8.707 -0.0203 -0.0744  0.2566
 6522TIP3    H141125   3.834  -0.022   8.682  0.2365  0.3095 -1.3166
 6522TIP3    H241126   3.760   0.110   8.676  0.8310  0.6559 -1.1142
 6523TIP3   OH241127   5.469   1.772   7.174 -0.7953  0.4921 -0.6269
 6523TIP3    H141128   5.396   1.726   7.133 -0.4789 -0.0277 -0.6074
 6523TIP3    H241129   5.501   1.713   7.241  1.6355 -0.6881 -2.6427
 6524TIP3   OH241130   3.851   5.027   0.672 -0.3957  0.1080 -0.1737
 6524TIP3    H141131   3.902   4.951   0.700 -2.0765 -2.0630 -2.4400
 6524TIP3    H241132   3.867   5.033   0.578 -0.5290  2.4730 -0.0987
 6525TIP3   OH241133   2.457   5.371   7.955  0.0205 -0.0881  0.5914
 6525TIP3    H141134   2.398   5.436   7.994  0.7760  1.7997 -1.2114
 6525TIP3    H241135   2.544   5.401   7.980  0.3440 -1.1144  0.7180
 6526TIP3   OH241136   4.930   5.550   7.489  0.6223  0.2113 -0.1819
 6526TIP3    H141137   4.975   5.466   7.478 -0.1578 -0.1082 -1.1388
 6526TIP3    H241138   4.958   5.602   7.414  0.0422  0.3049 -0.3398
 6527TIP3   OH241139   0.545   1.693   8.758 -0.0274 -0.2084 -0.5485
 6527TIP3    H141140   0.613   1.757   8.777 -1.2629  0.6966  1.2081
 6527TIP3    H241141   0.581   1.609   8.786  0.4548  0.2342  0.1921
 6528TIP3   OH241142   0.470   6.158   7.482  0.0166 -0.3988  0.3668
 6528TIP3    H141143   0.512   6.120   7.559 -0.7653 -2.5980 -0.2309
 6528TIP3    H241144   0.532   6.225   7.452  1.1590 -0.7360  1.8496
 6529TIP3   OH241145   5.674   3.069   0.621 -0.3386  0.4904 -0.3532
 6529TIP3    H141146   5.709   3.141   0.569  0.5768  0.5039  0.2541
 6529TIP3    H241147   5.579   3.074   0.609 -0.1946  0.9727 -1.3681
 6530TIP3   OH241148   2.483   2.711   1.913  0.3216  0.6711  0.3416
 6530TIP3    H141149   2.403   2.744   1.870  1.0039  2.0446  0.0643
 6530TIP3    H241150   2.540   2.788   1.919  1.6517 -0.2985  0.4902
 6531TIP3   OH241151   0.486   4.648   7.863  0.5931  0.3218 -0.1631
 6531TIP3    H141152   0.542   4.580   7.824  0.2061  0.6153 -1.2617
 6531TIP3    H241153   0.456   4.700   7.789 -1.7717 -0.2880  0.2703
 6532TIP3   OH241154   6.315   3.467   2.585  0.0832 -0.0498  0.0480
 6532TIP3    H141155   6.314   3.375   2.559 -0.3715 -0.1428  0.3754
 6532TIP3    H241156   6.393   3.475   2.640  1.2639  0.2401 -1.6205
 6533TIP3   OH241157   3.074   2.756   8.504  0.4729  0.1526 -0.2389
 6533TIP3    H141158   3.014   2.681   8.511  0.5888  0.0274 -0.5305
 6533TIP3    H241159   3.151   2.720   8.459  0.1640  0.6518 -1.1916
 6534TIP3   OH241160   5.255   4.663   0.942 -0.0389 -0.4381 -0.1179
 6534TIP3    H141161   5.227   4.587   0.995  1.9249 -0.8599  0.3933
 6534TIP3    H241162   5.193   4.732   0.965 -0.3572 -1.1657  1.3521
 6535TIP3   OH241163   6.761   0.208   1.032 -0.1214 -0.4164 -0.7888
 6535TIP3    H141164   6.855   0.224   1.024 -0.2557  1.1176  0.2823
 6535TIP3    H241165   6.732   0.266   1.103 -1.5243 -2.3006  0.2733
 6536TIP3   OH241166   4.479   3.081   2.219 -0.0160 -0.1295  0.0878
 6536TIP3    H141167   4.415   3.127   2.273  0.8333 -0.0054  1.0105
 6536TIP3    H241168   4.466   3.117   2.131 -0.8165  0.3137  0.3776
 6537TIP3   OH241169   0.285   0.590   2.830 -0.1590 -0.3928 -0.5041
 6537TIP3    H141170   0.342   0.514   2.841  1.7752  0.7227 -2.1419
 6537TIP3    H241171   0.224   0.565   2.761 -2.4441 -1.9371  1.8886
 6538TIP3   OH241172   3.895   6.426   2.216 -1.0039  0.0971 -0.6116
 6538TIP3    H141173   3.869   6.385   2.133  0.3238 -1.4010 -0.3340
 6538TIP3    H241174   3.899   6.353   2.278  3.0851  0.2346 -0.4871
 6539TIP3   OH241175   1.561   0.499   7.880  0.3431 -0.2804  0.6301
 6539TIP3    H141176   1.534   0.490   7.789 -0.0557  2.6022  0.3763
 6539TIP3    H241177   1.482   0.480   7.931  0.5668 -1.8909  0.4289
 6540TIP3   OH241178   3.519   4.335   0.204  0.3125 -0.8163 -0.2388
 6540TIP3    H141179   3.473   4.258   0.238 -1.6353  0.7843  1.0212
 6540TIP3    H241180   3.578   4.360   0.275 -0.2733 -0.2237  0.0513
 6541TIP3   OH241181   4.173   4.483   8.054  0.6688  0.1890 -0.6837
 6541TIP3    H141182   4.102   4.532   8.012 -1.1729 -1.2606  0.5577
 6541TIP3    H241183   4.239   4.474   7.986 -0.3887  1.4799 -1.9530
 6542TIP3   OH241184   0.271   5.949   1.292  0.8065 -0.2498  0.1861
 6542TIP3    H141185   0.355   5.946   1.247  0.9834  0.1336  0.4806
 6542TIP3    H241186   0.249   6.042   1.295 -0.3006 -0.4402 -1.1030
 6543TIP3   OH241187   0.723   4.737   2.475 -0.6909 -0.1800  0.0720
 6543TIP3    H141188   0.772   4.661   2.509  3.8253  1.1273 -2.6761
 6543TIP3    H241189   0.680   4.704   2.396 -1.4827 -0.5430  0.6367
 6544TIP3   OH241190   2.258   6.734   2.571 -0.2095 -0.1854 -0.5499
 6544TIP3    H141191   2.342   6.745   2.616 -1.2369  0.9265  1.2195
 6544TIP3    H241192   2.236   6.642   2.583  1.0475 -0.6598 -1.6332
 6545TIP3   OH241193   2.006   1.120   1.505  0.1383 -0.0455 -0.5298
 6545TIP3    H141194   1.974   1.046   1.557 -0.6567 -0.8795 -2.1278
 6545TIP3    H241195   1.999   1.195   1.564 -0.3760 -1.0045  0.6780
 6546TIP3   OH241196   3.804   4.742   1.792  0.0327 -0.6241 -0.0223
 6546TIP3    H141197   3.893   4.769   1.768  0.3312  1.3380  2.7844
 6546TIP3    H241198   3.805   4.646   1.783  1.8629 -0.5188 -1.6745
 6547TIP3   OH241199   2.211   5.254   8.580  0.2590 -0.0543 -1.2654
 6547TIP3    H141200   2.253   5.169   8.566  0.3253 -1.1409  3.7678
 6547TIP3    H241201   2.284   5.312   8.603 -0.1495  0.5025 -1.3633
 6548TIP3   OH241202   2.420   3.980   0.688  0.0029  0.2920  0.7324
 6548TIP3    H141203   2.438   4.069   0.658 -0.9966  1.2131  2.6638
 6548TIP3    H241204   2.394   3.933   0.608 -2.2505  2.5128 -0.0032
 6549TIP3   OH241205   2.104   0.021   2.372 -0.4468  0.0840  0.1259
 6549TIP3    H141206   2.131  -0.065   2.405  0.7299  0.2504 -0.3476
 6549TIP3    H241207   2.125   0.082   2.442  1.8395  0.4062 -0.7432
 6550TIP3   OH241208   2.029   4.029   7.195  0.5065  0.7846 -0.2181
 6550TIP3    H141209   2.023   4.023   7.100 -2.0032  0.3548 -0.0985
 6550TIP3    H241210   2.103   3.972   7.218  0.5079  0.0852 -1.8434
 6551TIP3   OH241211   0.133   1.596   0.204 -0.3293 -0.0690  0.1745
 6551TIP3    H141212   0.131   1.509   0.166 -1.0419  0.3037 -0.6660
 6551TIP3    H241213   0.074   1.648   0.150  1.0206  1.2544 -0.1260
 6552TIP3   OH241214   0.697   3.491   6.999  0.4849 -0.2703  0.6638
 6552TIP3    H141215   0.652   3.564   6.957  0.7843  0.1997  1.1472
 6552TIP3    H241216   0.628   3.428   7.019  0.4317 -0.8969 -1.2856
 6553TIP3   OH241217   1.729   4.931   0.880  0.2330 -0.2744  0.2175
 6553TIP3    H141218   1.770   4.994   0.820  0.0995 -0.6154 -0.2422
 6553TIP3    H241219   1.644   4.912   0.839 -0.2004  0.0856  0.9276
 6554TIP3   OH241220   4.659   1.195   8.177  0.3463 -0.2790  0.0821
 6554TIP3    H141221   4.747   1.160   8.163 -0.0242 -0.6478 -1.3922
 6554TIP3    H241222   4.673   1.290   8.183  0.8267 -0.3246 -0.2306
 6555TIP3   OH241223   2.575   1.258   0.790 -0.1779  0.0224  0.1723
 6555TIP3    H141224   2.665   1.235   0.766 -0.1539  0.7232 -0.4592
 6555TIP3    H241225   2.577   1.266   0.885  0.2541 -0.6615  0.2259
 6556TIP3   OH241226   6.160   6.498   0.195  0.2992  0.4424  0.2730
 6556TIP3    H141227   6.130   6.502   0.104  3.0481  0.6003 -0.7038
 6556TIP3    H241228   6.154   6.588   0.226 -0.0605  0.4951  0.0669
 6557TIP3   OH241229   6.838   3.094   0.760  0.0278  0.2780 -0.3896
 6557TIP3    H141230   6.799   3.158   0.819  1.6952  2.1224 -1.1506
 6557TIP3    H241231   6.813   3.125   0.672 -0.6801 -1.2183 -0.7439
 6558TIP3   OH241232   5.060   0.778   8.580  0.3412  0.3867  0.2398
 6558TIP3    H141233   5.122   0.718   8.622  0.9161  1.3903  0.8711
 6558TIP3    H241234   5.099   0.798   8.495  1.0515  1.2267  0.7427
 6559TIP3   OH241235   1.626   6.074   0.290  0.2680  0.7786  0.3909
 6559TIP3    H141236   1.636   5.982   0.315  1.1959  0.8377  0.2796
 6559TIP3    H241237   1.588   6.070   0.202  1.9278  0.4414 -0.3445
 6560TIP3   OH241238   4.417   0.229   8.203  0.1407 -0.0399  0.4736
 6560TIP3    H141239   4.501   0.271   8.223  1.0671 -1.4423 -0.2472
 6560TIP3    H241240   4.351   0.289   8.236  1.4505  0.6449  1.9486
 6561TIP3   OH241241   5.760   6.747   0.086  0.4766 -0.0596 -0.6241
 6561TIP3    H141242   5.750   6.838   0.059  0.2411  0.5034  1.2250
 6561TIP3    H241243   5.706   6.698   0.025 -1.8821  1.3889  0.1916
 6562TIP3   OH241244   6.282   5.923   1.863  0.0447  0.1874 -0.3229
 6562TIP3    H141245   6.284   5.974   1.944 -0.2175  0.2762 -0.3725
 6562TIP3    H241246   6.197   5.943   1.823 -0.1724 -0.4998 -0.2152
 6563TIP3   OH241247   1.969   0.043   0.567  0.0142 -0.5157 -0.2190
 6563TIP3    H141248   1.958   0.038   0.472 -0.4763 -2.6197 -0.0969
 6563TIP3    H241249   1.883   0.022   0.603 -0.0012  0.9745  0.7379
 6564TIP3   OH241250   0.936   0.706   2.298 -0.0556 -0.4932  0.3587
 6564TIP3    H141251   0.913   0.703   2.206  0.2374  0.2973  0.2520
 6564TIP3    H241252   1.032   0.706   2.299 -0.0503 -1.5863  0.7091
 6565TIP3   OH241253   4.429   1.762   0.512  0.4316 -0.2368  0.4460
 6565TIP3    H141254   4.362   1.706   0.551  0.8797 -0.1271  1.3953
 6565TIP3    H241255   4.414   1.848   0.552  0.5423  0.0209 -0.0557
 6566TIP3   OH241256   4.277   2.355   1.785 -0.2497 -0.1106  0.2758
 6566TIP3    H141257   4.338   2.404   1.730 -1.3670  1.3005  0.2253
 6566TIP3    H241258   4.297   2.263   1.768  1.9910  0.2845  0.4348
 6567TIP3   OH241259   1.877   2.567   1.563 -0.4795  0.0931 -1.0033
 6567TIP3    H141260   1.860   2.660   1.555 -0.1313  0.0592 -2.4791
 6567TIP3    H241261   1.800   2.524   1.526 -0.6338 -0.2136 -0.3447
 6568TIP3   OH241262   3.484   3.110   2.559  0.3058  0.3098  0.3899
 6568TIP3    H141263   3.483   3.187   2.616  1.4105  1.1260 -0.6375
 6568TIP3    H241264   3.496   3.145   2.471  1.5986 -1.0576 -0.0348
 6569TIP3   OH241265   2.730   1.523   8.487  0.0167 -0.4468  0.1057
 6569TIP3    H141266   2.732   1.541   8.393  1.3649  0.7504  0.3339
 6569TIP3    H241267   2.811   1.476   8.505 -0.4898 -1.1605  0.6021
 6570TIP3   OH241268   6.047   2.359   7.309 -0.3692 -0.5769  0.5522
 6570TIP3    H141269   6.046   2.284   7.250  1.7343 -0.1111 -0.1368
 6570TIP3    H241270   5.989   2.422   7.268  2.0547  0.2645 -1.8364
 6571TIP3   OH241271   0.653   1.916   0.330  0.0829 -0.1638 -0.1380
 6571TIP3    H141272   0.614   1.935   0.245 -1.0235  0.8247  0.5581
 6571TIP3    H241273   0.742   1.950   0.324 -0.2901  0.7528 -0.5930
 6572TIP3   OH241274   3.574   5.612   8.236  0.0631  0.1702  0.2614
 6572TIP3    H141275   3.489   5.647   8.210 -0.1763  0.5943  1.5584
 6572TIP3    H241276   3.563   5.517   8.232 -0.3147  0.2226 -0.0206
 6573TIP3   OH241277   0.555   1.566   2.548  0.2098  0.2929  0.4399
 6573TIP3    H141278   0.477   1.616   2.569 -0.4714 -0.1417 -0.9477
 6573TIP3    H241279   0.543   1.482   2.593 -0.4009  0.0147 -0.2345
 6574TIP3   OH241280   0.556   5.276   0.057 -0.1031 -0.1384  0.0319
 6574TIP3    H141281   0.468   5.253   0.027 -0.6993  1.8060  0.1901
 6574TIP3    H241282   0.574   5.360   0.015  2.1193 -0.9740 -0.8262
 6575TIP3   OH241283   5.034   4.611   2.821  0.2488  0.5916 -0.6479
 6575TIP3    H141284   5.109   4.553   2.831  0.6782  1.3482  0.8790
 6575TIP3    H241285   5.042   4.646   2.732  1.3579  0.1711 -0.7286
 6576TIP3   OH241286   4.968   5.984   1.025 -0.2173  1.0686 -0.1938
 6576TIP3    H141287   4.901   5.918   1.006  1.6708 -1.3985  1.1782
 6576TIP3    H241288   4.930   6.037   1.096 -0.4077 -0.9336  1.2825
 6577TIP3   OH241289   0.010   3.349   2.210 -0.5135 -0.2644 -0.5609
 6577TIP3    H141290   0.044   3.260   2.212  1.1260  0.3322 -0.3306
 6577TIP3    H241291   0.045   3.390   2.289 -0.0751  0.9901 -1.3802
 6578TIP3   OH241292   3.784   6.534   8.015 -0.2343  0.1132  0.1934
 6578TIP3    H141293   3.825   6.447   8.017  0.0926  0.2652  0.2825
 6578TIP3    H241294   3.700   6.521   8.059  0.3443  0.0972  1.3382
 6579TIP3   OH241295   3.309   3.313   2.987 -0.3511 -0.0381 -0.3749
 6579TIP3    H141296   3.312   3.376   3.059  1.7777  0.2028 -0.6248
 6579TIP3    H241297   3.334   3.364   2.910  3.5191 -1.4705 -0.2795
 6580TIP3   OH241298   1.494   5.540   7.377  0.1766 -0.2535  0.0546
 6580TIP3    H141299   1.516   5.631   7.399 -0.9680  0.0599 -0.0288
 6580TIP3    H241300   1.409   5.526   7.419  1.0335 -1.8008  1.3948
 6581TIP3   OH241301   1.067   4.440   7.917 -0.2579  0.1253  0.0638
 6581TIP3    H141302   1.123   4.499   7.967 -2.1082 -0.0573  2.4985
 6581TIP3    H241303   1.032   4.495   7.846  1.6235  0.6567 -0.5157
 6582TIP3   OH241304   0.080   5.579   7.865  0.3112 -0.6383 -0.3070
 6582TIP3    H141305   0.136   5.637   7.814  0.3425 -1.2703 -1.0085
 6582TIP3    H241306   0.093   5.606   7.956  1.4098 -0.4936 -0.4979
 6583TIP3   OH241307   6.660   4.792   2.451  0.7355 -0.3573  0.2925
 6583TIP3    H141308   6.663   4.887   2.456  1.5431 -0.4366  2.2333
 6583TIP3    H241309   6.657   4.773   2.357  2.3750  1.5451 -0.2260
 6584TIP3   OH241310   6.416   3.715   7.690 -0.3169  0.4014  0.0292
 6584TIP3    H141311   6.385   3.785   7.747 -1.8243  0.0774 -0.3382
 6584TIP3    H241312   6.499   3.748   7.655 -2.1891  3.2829 -2.2433
 6585TIP3   OH241313   4.861   4.417   7.761 -0.0185 -0.1373 -0.0823
 6585TIP3    H141314   4.949   4.382   7.773 -0.2278 -0.8942 -0.6447
 6585TIP3    H241315   4.868   4.474   7.684  0.6003  2.1149  1.5618
 6586TIP3   OH241316   2.689   0.613   6.961  0.0231 -0.3678  0.1947
 6586TIP3    H141317   2.754   0.574   6.903 -0.0152  1.0348 -0.8357
 6586TIP3    H241318   2.730   0.693   6.994 -0.8151  0.0395  0.2907
 6587TIP3   OH241319   0.003   2.738   7.492 -0.4559  0.1965  0.2282
 6587TIP3    H141320  -0.048   2.819   7.488  0.5361  0.8181 -0.0778
 6587TIP3    H241321  -0.050   2.674   7.443 -0.9050  0.8448 -0.1419
 6588TIP3   OH241322   6.794   3.797   8.701  0.1586 -0.2884 -0.4162
 6588TIP3    H141323   6.795   3.719   8.645 -1.5406 -0.3237 -0.4511
 6588TIP3    H241324   6.788   3.870   8.640 -0.6146 -0.2649 -0.3123
 6589TIP3   OH241325   2.462   4.138   7.517 -0.0987  0.3092 -0.2099
 6589TIP3    H141326   2.472   4.218   7.568 -2.3080  0.4523  0.1065
 6589TIP3    H241327   2.402   4.084   7.569  0.3350 -1.0273 -1.0316
 6590TIP3   OH241328   0.836   6.247   7.648  0.0082 -0.5048 -0.2064
 6590TIP3    H141329   0.901   6.197   7.599  0.3939  0.4225 -0.6600
 6590TIP3    H241330   0.870   6.336   7.651 -0.8812 -0.1569  0.2031
 6591TIP3   OH241331   6.763   4.894   7.792 -0.0393  0.3141  0.3158
 6591TIP3    H141332   6.712   4.941   7.725 -0.1640  1.4297  1.1641
 6591TIP3    H241333   6.699   4.838   7.834 -0.0028 -0.2484 -0.3573
 6592TIP3   OH241334   3.740   0.826   7.831 -0.3371 -0.0761  0.2001
 6592TIP3    H141335   3.758   0.814   7.738 -0.7118 -0.2615  0.1510
 6592TIP3    H241336   3.826   0.844   7.870 -0.4629  2.5635 -0.5439
 6593TIP3   OH241337   5.968   5.853   0.216 -0.1475 -0.2238  0.0073
 6593TIP3    H141338   5.900   5.920   0.217  0.4324  0.4264 -1.0751
 6593TIP3    H241339   6.036   5.889   0.159  0.5934 -1.3458  0.1385
 6594TIP3   OH241340   5.437   2.244   8.716  0.3250  0.3729  0.1849
 6594TIP3    H141341   5.370   2.310   8.700 -0.1924 -0.4481 -1.3059
 6594TIP3    H241342   5.491   2.245   8.637  1.3191  0.1549  0.8388
 6595TIP3   OH241343   4.756   2.365   7.656  0.0009  0.8088 -0.1327
 6595TIP3    H141344   4.717   2.450   7.676 -0.6711  0.6274 -0.6386
 6595TIP3    H241345   4.850   2.381   7.657 -0.0372  1.1517  1.5804
 6596TIP3   OH241346   2.617   1.115   8.094 -0.4114  0.5869 -0.1182
 6596TIP3    H141347   2.640   1.137   8.003  1.2401 -2.4471 -0.5919
 6596TIP3    H241348   2.700   1.119   8.141 -0.7546 -0.4122  0.6061
 6597TIP3   OH241349   2.509   3.604   1.081 -0.1820  0.5278 -0.3282
 6597TIP3    H141350   2.454   3.528   1.063  1.8807 -1.3692  0.8167
 6597TIP3    H241351   2.584   3.594   1.022  0.3798  1.3929  0.2125
 6598TIP3   OH241352   3.505   5.359   8.244 -0.3513  0.4130  0.3060
 6598TIP3    H141353   3.495   5.275   8.290 -0.4644 -0.7293 -1.6631
 6598TIP3    H241354   3.415   5.388   8.228 -0.4745 -0.9286 -2.0176
 6599TIP3   OH241355   6.402   5.109   1.935  0.5436  0.4882 -0.5775
 6599TIP3    H141356   6.344   5.077   1.865  2.3314 -1.4620 -1.2902
 6599TIP3    H241357   6.348   5.169   1.985 -2.7965 -2.6202 -0.0006
 6600TIP3   OH241358   6.051   2.724   2.078 -0.4674 -0.1570 -0.3923
 6600TIP3    H141359   6.043   2.788   2.148  1.9813 -0.9317  0.6889
 6600TIP3    H241360   6.009   2.645   2.113  0.6376 -0.5036  0.1927
 6601TIP3   OH241361   2.654   6.099   1.751 -0.3844  0.0901  0.3083
 6601TIP3    H141362   2.686   6.161   1.816  0.4126 -0.2081  0.2071
 6601TIP3    H241363   2.713   6.108   1.677 -1.0531  0.1431 -0.2340
 6602TIP3   OH241364   4.128   0.440   7.790 -0.3617  0.5131  0.5766
 6602TIP3    H141365   4.132   0.420   7.697 -1.1383  1.3392  0.3458
 6602TIP3    H241366   4.068   0.376   7.826 -0.0558  0.1881  0.5113
 6603TIP3   OH241367   4.176   0.281   2.638  0.4477  0.2505  0.5396
 6603TIP3    H141368   4.246   0.343   2.616  1.5508 -0.3155  2.2360
 6603TIP3    H241369   4.133   0.320   2.714 -0.6815  0.2717 -0.0924
 6604TIP3   OH241370   0.481   3.070   7.904 -0.3343 -0.2239  0.1120
 6604TIP3    H141371   0.503   3.161   7.926  2.2422 -0.5536 -0.7703
 6604TIP3    H241372   0.486   3.066   7.809 -1.4642 -1.0831  0.0665
 6605TIP3   OH241373   1.511   3.580   0.674 -0.2751 -0.2545 -0.4444
 6605TIP3    H141374   1.532   3.517   0.743  0.6393  0.1742 -0.3217
 6605TIP3    H241375   1.428   3.549   0.638 -0.8201 -0.4435  0.8970
 6606TIP3   OH241376   3.039   6.674   1.215 -0.2962  0.3003 -0.2040
 6606TIP3    H141377   2.992   6.757   1.205 -1.0784  0.0841  1.3565
 6606TIP3    H241378   3.004   6.636   1.296  0.7343 -1.1039 -0.3776
 6607TIP3   OH241379   0.613   6.214   1.458  0.0972  0.7362 -0.2356
 6607TIP3    H141380   0.679   6.251   1.517 -1.4697  1.0086  1.4397
 6607TIP3    H241381   0.598   6.125   1.492 -1.0276  0.9945 -0.0209
 6608TIP3   OH241382   5.717   4.831   7.269  0.0864 -0.2883  0.3184
 6608TIP3    H141383   5.749   4.741   7.262  0.2036 -0.2004 -0.4275
 6608TIP3    H241384   5.796   4.883   7.281  0.0734 -0.2324  0.1637
 6609TIP3   OH241385   5.441   0.441   7.478  0.2975  0.7436  0.0076
 6609TIP3    H141386   5.468   0.532   7.474  1.7394  0.3483  0.2351
 6609TIP3    H241387   5.457   0.407   7.390 -1.7979  1.0923 -0.5637
 6610TIP3   OH241388   5.063   3.942   1.242  0.2905 -0.0120 -0.6084
 6610TIP3    H141389   5.154   3.969   1.243  0.1965  0.3165  0.4924
 6610TIP3    H241390   5.059   3.872   1.176  1.2182  0.3282 -1.0329
 6611TIP3   OH241391   2.051   4.759   0.638  0.0179  0.1852  0.0552
 6611TIP3    H141392   2.097   4.840   0.660  0.4895 -0.1372  0.2630
 6611TIP3    H241393   2.109   4.689   0.667 -0.8036 -0.2310  0.7371
 6612TIP3   OH241394   0.888   4.275   8.541  0.1185  0.2565 -0.2040
 6612TIP3    H141395   0.962   4.335   8.550  0.5326  0.0083 -1.6491
 6612TIP3    H241396   0.908   4.224   8.462 -1.7293  0.3947 -0.8196
 6613TIP3   OH241397   0.397   4.251   1.204  0.8889  0.0450  0.5332
 6613TIP3    H141398   0.464   4.295   1.153  1.3114 -0.9415  0.2274
 6613TIP3    H241399   0.317   4.262   1.152  1.4903 -1.7938 -0.8860
 6614TIP3   OH241400   2.529   2.839   0.865  0.2838 -0.2813  0.7942
 6614TIP3    H141401   2.513   2.843   0.771  2.7414 -0.7672  0.2921
 6614TIP3    H241402   2.519   2.929   0.895  0.3225  0.0216 -0.0888
 6615TIP3   OH241403   2.738   0.028   8.039 -0.1103  0.0976 -0.3233
 6615TIP3    H141404   2.684  -0.039   7.997  0.7183 -0.5248 -0.4136
 6615TIP3    H241405   2.824   0.020   7.998 -0.1763  1.7359 -0.8787
 6616TIP3   OH241406   1.197   2.839   7.974 -0.4039 -0.0055  0.3351
 6616TIP3    H141407   1.178   2.861   7.883  1.2755 -0.3671 -0.1358
 6616TIP3    H241408   1.273   2.780   7.969 -0.7361 -0.6119  1.9287
 6617TIP3   OH241409   6.701   2.879   2.214  0.2788 -0.5215 -0.1573
 6617TIP3    H141410   6.659   2.858   2.297 -1.4067 -0.3478 -0.9043
 6617TIP3    H241411   6.711   2.795   2.170 -0.3264 -0.4612 -0.4234
 6618TIP3   OH241412   1.490   5.097   6.984  0.0253 -0.0260  0.0568
 6618TIP3    H141413   1.406   5.053   6.998  0.3535 -0.1751  1.8877
 6618TIP3    H241414   1.467   5.188   6.965 -0.5766 -0.3308 -0.7061
 6619TIP3   OH241415   6.774   4.040   7.046  0.0245  0.4391 -0.2126
 6619TIP3    H141416   6.755   4.133   7.041  1.8965  0.9576  1.0178
 6619TIP3    H241417   6.868   4.035   7.063  0.1474 -1.7132 -1.1199
 6620TIP3   OH241418   3.716   0.492   1.789  0.0600  0.1047 -0.5334
 6620TIP3    H141419   3.638   0.510   1.736 -0.1058 -0.2639 -0.4196
 6620TIP3    H241420   3.757   0.417   1.745  0.0920 -0.0015 -0.3253
 6621TIP3   OH241421   0.993   4.290   0.827  0.0423 -0.2657 -0.0399
 6621TIP3    H141422   1.062   4.348   0.794  0.4771 -1.2570 -0.9483
 6621TIP3    H241423   1.032   4.203   0.823 -0.9708 -0.7450  0.2690
 6622TIP3   OH241424   2.139   3.163   1.598 -0.3119  0.7875 -0.2446
 6622TIP3    H141425   2.220   3.196   1.636 -0.3646  0.0239  0.5692
 6622TIP3    H241426   2.125   3.217   1.520 -0.3832  2.6372  0.9986
 6623TIP3   OH241427   0.363   3.371   0.832  0.3488 -0.4262 -1.0831
 6623TIP3    H141428   0.283   3.374   0.779 -0.7638 -1.7690  0.4170
 6623TIP3    H241429   0.366   3.456   0.876 -0.9609 -0.7935 -0.2249
 6624TIP3   OH241430   5.111   2.192   0.088 -0.6321  0.3355 -0.2109
 6624TIP3    H141431   5.044   2.226   0.029 -0.8633 -0.4308 -0.3976
 6624TIP3    H241432   5.127   2.264   0.150 -2.1612  0.2587  0.2955
 6625TIP3   OH241433   2.675   5.585   0.179 -0.8404 -0.0686  0.0425
 6625TIP3    H141434   2.654   5.499   0.217 -1.4216 -0.1390 -0.4267
 6625TIP3    H241435   2.742   5.567   0.113 -0.7268 -0.1166  0.1706
 6626TIP3   OH241436   1.413   0.174   0.006 -0.2179 -0.3134 -0.8307
 6626TIP3    H141437   1.397   0.250   0.061  0.2365 -1.6050  1.1963
 6626TIP3    H241438   1.479   0.203  -0.058  0.2999  0.8622  0.2080
 6627TIP3   OH241439   2.635   4.864   1.592  0.7342 -0.3665 -0.3153
 6627TIP3    H141440   2.583   4.937   1.559 -1.6297 -1.1538  1.4333
 6627TIP3    H241441   2.630   4.871   1.687  1.0566 -2.3712 -0.1019
 6628TIP3   OH241442   5.137   6.597   6.828  0.7825 -0.1233  0.1868
 6628TIP3    H141443   5.144   6.675   6.773 -2.3263 -0.8450 -1.4384
 6628TIP3    H241444   5.094   6.627   6.908 -0.8327 -0.1986 -0.6278
 6629TIP3   OH241445   3.998   3.911   8.016 -0.2292  0.2766 -0.1431
 6629TIP3    H141446   4.052   3.984   8.045 -0.8465  0.4307  0.6536
 6629TIP3    H241447   4.024   3.897   7.925  1.9683 -0.4278  0.5470
 6630TIP3   OH241448   6.295   3.928   0.387  0.3551 -0.5006  0.0407
 6630TIP3    H141449   6.279   3.944   0.294  0.1629 -1.0728 -0.0285
 6630TIP3    H241450   6.274   4.011   0.430  1.5116  0.1071 -0.5406
 6631TIP3   OH241451   3.105   0.774   0.187  0.2107  0.3449 -0.3146
 6631TIP3    H141452   3.038   0.712   0.158  1.7695 -1.7483  0.3453
 6631TIP3    H241453   3.122   0.751   0.279 -0.6989  3.2365  0.6966
 6632TIP3   OH241454   5.984   5.795   8.111  0.0260  0.1300  0.1810
 6632TIP3    H141455   5.982   5.704   8.080 -1.0296  0.1985  0.0269
 6632TIP3    H241456   6.001   5.788   8.205  1.0111 -0.1726 -0.0104
 6633TIP3   OH241457   1.029   5.361   1.485 -0.4325  0.8217  0.0061
 6633TIP3    H141458   0.988   5.389   1.567  1.1499  0.6041  0.9100
 6633TIP3    H241459   1.066   5.275   1.504 -0.0155  0.7823 -0.9309
 6634TIP3   OH241460   3.552   0.911   2.500 -0.1221 -0.0468 -0.3297
 6634TIP3    H141461   3.499   0.898   2.422 -0.3223 -1.6940  0.0387
 6634TIP3    H241462   3.501   0.871   2.571  0.4235  0.6782  0.5016
 6635TIP3   OH241463   4.216   1.147   2.857  0.1426 -0.1575  0.1285
 6635TIP3    H141464   4.248   1.234   2.880  1.9672 -0.8282  0.2939
 6635TIP3    H241465   4.162   1.121   2.933  0.5510  0.3513  0.6003
 6636TIP3   OH241466   3.985   1.670   8.514  0.1262  0.6548  0.0832
 6636TIP3    H141467   4.027   1.584   8.513 -0.3009  0.4456 -0.9160
 6636TIP3    H241468   3.902   1.657   8.467  0.9677  2.0323 -1.9386
 6637TIP3   OH241469   1.397   1.346   7.317  0.3220  0.4781  0.0869
 6637TIP3    H141470   1.313   1.328   7.276  0.3924  3.6432 -1.7809
 6637TIP3    H241471   1.461   1.303   7.259  0.1850  1.5890 -0.9209
 6638TIP3   OH241472   0.886   1.804   1.994  0.0731 -0.5194 -0.1358
 6638TIP3    H141473   0.953   1.746   2.030  0.2227 -2.0994 -2.6764
 6638TIP3    H241474   0.927   1.891   1.993  0.3803 -0.5694  2.4120
 6639TIP3   OH241475   5.636   6.216   1.907 -0.2796 -0.3940  0.5933
 6639TIP3    H141476   5.652   6.147   1.842 -1.2077 -0.4878  0.4604
 6639TIP3    H241477   5.553   6.193   1.948 -0.7347  0.7688  0.3681
 6640TIP3   OH241478   6.587   5.854   7.432 -0.0705  0.4928 -0.2225
 6640TIP3    H141479   6.547   5.823   7.350  0.6641 -0.5962 -0.1849
 6640TIP3    H241480   6.642   5.781   7.461 -1.7041  0.1091  2.2201
 6641TIP3   OH241481   3.116   0.701   2.163  0.2912 -0.6523 -0.2542
 6641TIP3    H141482   3.025   0.704   2.194  0.0819 -0.5219 -0.8608
 6641TIP3    H241483   3.167   0.685   2.241 -0.1007  0.9725  0.3823
 6642TIP3   OH241484   1.428   4.900   1.445 -0.0208  0.7184  0.3001
 6642TIP3    H141485   1.475   4.924   1.525  1.0246  0.2520 -0.1630
 6642TIP3    H241486   1.481   4.935   1.374 -0.5858  0.5346 -0.2264
 6643TIP3   OH241487   5.086   6.320   7.925 -0.7124 -0.1278  0.0678
 6643TIP3    H141488   4.992   6.332   7.910 -0.7853  0.0125  0.6501
 6643TIP3    H241489   5.092   6.264   8.002 -0.3124 -0.2402 -0.0387
 6644TIP3   OH241490   3.102   1.087   1.353 -0.2317 -0.0606  0.4796
 6644TIP3    H141491   3.100   1.030   1.276  0.7789 -0.7411  0.9361
 6644TIP3    H241492   3.018   1.133   1.352  0.0639  0.5214 -1.4635
 6645TIP3   OH241493   6.624   2.868   0.530  0.3820  0.0774  0.0606
 6645TIP3    H141494   6.589   2.891   0.616 -1.2016 -1.0401 -0.2158
 6645TIP3    H241495   6.701   2.923   0.519  0.5838  0.2944  2.1565
 6646TIP3   OH241496   5.995   1.530   8.064 -0.1901  0.4566 -0.1862
 6646TIP3    H141497   6.004   1.438   8.042  2.3986  0.3581  0.9680
 6646TIP3    H241498   5.979   1.574   7.980 -2.2963 -1.0430 -0.6563
 6647TIP3   OH241499   4.737   6.325   2.817 -0.6113 -0.0269 -0.3357
 6647TIP3    H141500   4.771   6.329   2.728 -3.0791  0.7292 -1.3415
 6647TIP3    H241501   4.696   6.238   2.823  0.8789 -0.6973  0.6415
 6648TIP3   OH241502   4.235   0.268   1.041 -0.6021  0.1084  0.1923
 6648TIP3    H141503   4.265   0.283   0.952  3.2550  0.7036  1.4180
 6648TIP3    H241504   4.231   0.173   1.050 -0.0080  0.0332 -0.3090
 6649TIP3   OH241505   5.773   3.153   7.681 -0.4542 -0.8929  0.6322
 6649TIP3    H141506   5.761   3.059   7.676 -0.3768 -0.9384  1.2335
 6649TIP3    H241507   5.841   3.172   7.615  0.0293 -1.3493  0.9927
 6650TIP3   OH241508   5.169   3.469   8.742  0.0067  0.4822  0.1074
 6650TIP3    H141509   5.200   3.421   8.819  0.0280 -0.3853 -0.4276
 6650TIP3    H241510   5.113   3.406   8.696  1.3596  0.3876 -1.4894
 6651TIP3   OH241511   1.622   3.270   8.183 -0.0556  0.0536 -0.0108
 6651TIP3    H141512   1.561   3.198   8.172 -1.5199  0.8928  1.9284
 6651TIP3    H241513   1.698   3.232   8.227  1.0698 -1.0704 -2.7485
 6652TIP3   OH241514   1.786   3.899   7.017 -0.0467  0.4968  0.9194
 6652TIP3    H141515   1.872   3.925   6.984  0.6868 -1.1566  1.4229
 6652TIP3    H241516   1.795   3.805   7.035 -2.5344 -0.1409 -0.8080
 6653TIP3   OH241517   1.335   1.943   7.605 -0.8569 -0.0779  0.2038
 6653TIP3    H141518   1.253   1.908   7.638 -0.5845  0.3857  1.4036
 6653TIP3    H241519   1.318   1.961   7.512 -1.8191 -0.8194  0.2236
 6654TIP3   OH241520   3.575   2.640   8.599  0.4997  0.3303 -0.1959
 6654TIP3    H141521   3.503   2.632   8.538 -0.0412 -1.3073  0.6157
 6654TIP3    H241522   3.576   2.558   8.647  2.9681  0.2474 -0.2396
 6655TIP3   OH241523   3.592   1.461   3.083 -0.0591  0.3307  0.0015
 6655TIP3    H141524   3.557   1.453   2.994 -1.2740  0.4993  0.4514
 6655TIP3    H241525   3.562   1.383   3.128 -1.0729  1.1353  0.7819
 6656TIP3   OH241526   1.012   6.211   0.071 -0.1547  0.3110  0.6551
 6656TIP3    H141527   0.936   6.180   0.121 -0.0703  1.3335  1.4416
 6656TIP3    H241528   0.984   6.207  -0.021 -0.3814 -1.4052  0.7664
 6657TIP3   OH241529   2.568   5.838   1.671 -0.1369 -0.5999  0.5341
 6657TIP3    H141530   2.608   5.773   1.728  1.8580 -0.1583 -0.2559
 6657TIP3    H241531   2.571   5.920   1.721 -1.2129 -0.8036  0.9410
 6658TIP3   OH241532   5.988   1.538   8.514  0.1754  0.1238  0.1767
 6658TIP3    H141533   6.083   1.547   8.525  0.1406 -0.0515  0.6349
 6658TIP3    H241534   5.964   1.611   8.457  0.7750 -0.5890 -1.0265
 6659TIP3   OH241535   5.667   0.458   8.192  0.0862  0.1187 -0.0341
 6659TIP3    H141536   5.693   0.372   8.225 -0.0001  0.2538  0.3916
 6659TIP3    H241537   5.652   0.511   8.271  0.4066  0.6051 -0.2892
 6660TIP3   OH241538   0.812   6.591   0.047 -0.0570 -0.0444  0.3425
 6660TIP3    H141539   0.862   6.557  -0.029 -1.2372 -0.3430 -0.3234
 6660TIP3    H241540   0.726   6.610   0.012 -0.4079  0.5189  1.4770
 6661TIP3   OH241541   1.652   4.204   8.061  0.9598  0.2689 -0.1436
 6661TIP3    H141542   1.574   4.259   8.069  0.5503 -0.3904  0.5659
 6661TIP3    H241543   1.689   4.226   7.975 -0.7490 -0.3859 -1.0780
 6662TIP3   OH241544   6.500   5.788   1.066 -0.0369 -0.3590 -0.2706
 6662TIP3    H141545   6.540   5.734   1.134  0.9661  2.2050  1.3026
 6662TIP3    H241546   6.409   5.801   1.096 -0.2842 -1.1342 -0.6599
 6663TIP3   OH241547   0.244   2.834   0.082 -0.2833  0.0092  0.0624
 6663TIP3    H141548   0.323   2.823   0.135  0.5027 -2.4719 -1.4159
 6663TIP3    H241549   0.260   2.913   0.031  0.3528  0.6377  1.2024
 6664TIP3   OH241550   3.592   4.629   2.140 -0.3209  0.1386 -0.5827
 6664TIP3    H141551   3.611   4.547   2.186  1.4871  1.0679  0.4225
 6664TIP3    H241552   3.498   4.642   2.154 -0.5919 -1.5721 -0.5113
 6665TIP3   OH241553   5.978   6.056   0.902  0.5521 -0.1174 -0.6138
 6665TIP3    H141554   6.046   6.090   0.960  0.9670 -1.1546 -0.4681
 6665TIP3    H241555   5.904   6.115   0.915  1.3537  0.9397 -0.6546
 6666TIP3   OH241556   2.262   5.533   2.444  0.4492 -0.5689  0.3178
 6666TIP3    H141557   2.232   5.536   2.353  1.1078 -2.3831  0.0087
 6666TIP3    H241558   2.204   5.594   2.490  0.1279  0.4142 -1.3001
 6667TIP3   OH241559   5.968   0.667   1.939 -0.5281  0.6106  0.2743
 6667TIP3    H141560   5.957   0.709   1.853 -0.6521 -1.0146 -0.5571
 6667TIP3    H241561   6.027   0.594   1.922 -1.7081 -0.6257  1.2509
 6668TIP3   OH241562   4.931   1.630   2.047  0.1065 -0.0142  0.0904
 6668TIP3    H141563   4.927   1.699   2.113  0.6760 -0.1926  0.3113
 6668TIP3    H241564   4.932   1.676   1.964 -1.0180  0.2057  0.1766
 6669TIP3   OH241565   1.808   5.715   2.646  0.4571 -0.2273  0.0980
 6669TIP3    H141566   1.885   5.751   2.691  1.1037  0.6253 -1.5871
 6669TIP3    H241567   1.759   5.792   2.617  1.8106 -0.5484 -3.5188
 6670TIP3   OH241568   0.996   3.132   8.383  0.3373 -0.6888 -0.3160
 6670TIP3    H141569   0.909   3.124   8.344  0.8597  0.6832 -1.8634
 6670TIP3    H241570   1.056   3.102   8.314  1.2367  0.8852 -0.2592
 6671TIP3   OH241571   4.894   1.924   8.360 -0.0262 -0.2114  0.6715
 6671TIP3    H141572   4.962   1.946   8.296  0.0340 -2.1533  0.0143
 6671TIP3    H241573   4.820   1.980   8.337  0.6208  0.3961  0.0399
 6672TIP3   OH241574   5.159   0.896   8.318 -0.2435  0.1723  0.2046
 6672TIP3    H141575   5.246   0.864   8.343  1.1003 -1.7576 -5.3218
 6672TIP3    H241576   5.177   0.965   8.254 -2.9468  1.8584  1.1138
 6673TIP3   OH241577   5.360   6.280   8.093  0.1145 -0.3017 -0.0359
 6673TIP3    H141578   5.265   6.273   8.103  0.0721  0.7630  0.4652
 6673TIP3    H241579   5.391   6.190   8.091 -0.8251 -0.6536  0.6717
 6674TIP3   OH241580   0.078   1.828   8.599 -0.0884 -0.3312 -0.4750
 6674TIP3    H141581   0.161   1.826   8.645 -0.1164  1.0445 -0.3337
 6674TIP3    H241582   0.088   1.895   8.532 -1.3762  0.5308  0.1462
 6675TIP3   OH241583   1.376   3.683   2.155 -0.0511  0.1248  0.1312
 6675TIP3    H141584   1.293   3.730   2.154  0.2882  0.7182 -0.8392
 6675TIP3    H241585   1.355   3.599   2.197 -0.9249  0.6367  0.7513
 6676TIP3   OH241586   6.452   4.865   8.533 -0.3071  0.6323  0.7156
 6676TIP3    H141587   6.384   4.827   8.478  0.1737  1.7468 -0.7119
 6676TIP3    H241588   6.440   4.823   8.619 -2.0192 -0.0614  0.1824
 6677TIP3   OH241589   5.164   0.014   6.655  0.3520 -0.2382  0.5870
 6677TIP3    H141590   5.108   0.024   6.577  2.1508 -0.6093 -0.8191
 6677TIP3    H241591   5.236  -0.042   6.626  3.2041  2.7342  1.3214
 6678TIP3   OH241592   3.283   6.508   8.168 -0.5736 -0.0216  0.1194
 6678TIP3    H141593   3.267   6.486   8.260  0.1350 -0.0582  0.2369
 6678TIP3    H241594   3.198   6.539   8.136 -0.8568 -0.1250  0.7522
 6679TIP3   OH241595   1.925   3.580   8.237  0.1617  0.7149 -0.2704
 6679TIP3    H141596   1.928   3.636   8.160 -0.8867  1.0437 -0.0940
 6679TIP3    H241597   1.832   3.566   8.252  0.1036  3.2834  2.7996
 6680TIP3   OH241598   5.553   5.064   6.844 -0.3223 -0.1777  0.0726
 6680TIP3    H141599   5.497   5.044   6.768  0.2984 -1.4823 -0.0767
 6680TIP3    H241600   5.500   5.041   6.920 -0.3231 -0.5366 -0.0353
 6681TIP3   OH241601   0.816   0.053   7.101 -0.4253  0.1976  0.4207
 6681TIP3    H141602   0.729   0.070   7.066  0.4529  1.5553 -1.3113
 6681TIP3    H241603   0.874   0.106   7.046  1.3450  0.5148  2.4587
 6682TIP3   OH241604   1.180   3.800   8.356  0.1753  0.2310  0.5390
 6682TIP3    H141605   1.207   3.789   8.447  0.5805 -2.2308  0.1680
 6682TIP3    H241606   1.249   3.854   8.317  0.6785  0.2068  1.3716
 6683TIP3   OH241607   5.441   1.052   0.851 -0.4684  0.2442 -0.0180
 6683TIP3    H141608   5.399   1.103   0.782  0.2114  0.7024 -0.1074
 6683TIP3    H241609   5.533   1.048   0.825  0.4836  3.0973  2.3403
 6684TIP3   OH241610   4.211   5.604   2.286  0.0093  0.8958  0.0810
 6684TIP3    H141611   4.147   5.670   2.312 -0.1100  0.1195  1.9104
 6684TIP3    H241612   4.217   5.545   2.361  1.7867  0.1027 -0.6178
 6685TIP3   OH241613   5.832   1.549   7.251  0.1240 -0.6842  0.3331
 6685TIP3    H141614   5.837   1.531   7.345 -0.1739 -2.4450  0.0468
 6685TIP3    H241615   5.739   1.563   7.234  0.4432  2.8165  0.7688
 6686TIP3   OH241616   3.701   4.174   0.454 -0.4449  0.0356  0.0528
 6686TIP3    H141617   3.721   4.161   0.546  0.6177  0.4658 -0.1039
 6686TIP3    H241618   3.607   4.153   0.446 -0.7189  0.6897  1.3498
 6687TIP3   OH241619   5.129   3.422   1.360 -0.1403  0.7928  0.2471
 6687TIP3    H141620   5.050   3.380   1.326  1.0266  0.9855 -3.0930
 6687TIP3    H241621   5.158   3.366   1.432 -1.1807 -1.5332 -1.0431
 6688TIP3   OH241622   2.437   3.866   0.938 -0.2709 -0.5189  0.2893
 6688TIP3    H141623   2.364   3.803   0.939 -1.5991  0.9391 -0.3914
 6688TIP3    H241624   2.439   3.898   0.847  2.1479 -1.5132 -0.0865
 6689TIP3   OH241625   2.704   3.169   7.696  0.4297  0.0882  0.4823
 6689TIP3    H141626   2.686   3.252   7.742 -1.9294  0.6386 -1.1877
 6689TIP3    H241627   2.754   3.195   7.619 -0.1436 -0.0327  0.0593
 6690TIP3   OH241628   5.043   6.545   2.170 -0.4839  0.3546 -0.5348
 6690TIP3    H141629   4.993   6.494   2.234 -0.4350  0.6180 -0.2847
 6690TIP3    H241630   5.134   6.537   2.199 -0.1112 -1.7205 -2.0719
 6691TIP3   OH241631   1.679   0.911   2.209 -0.2480 -0.1622 -0.0616
 6691TIP3    H141632   1.774   0.924   2.214 -0.0447 -1.8106  0.8454
 6691TIP3    H241633   1.668   0.828   2.163 -1.2697  0.1537 -0.4056
 6692TIP3   OH241634   0.138   2.317   7.680 -0.3163  0.4784  0.3496
 6692TIP3    H141635   0.181   2.233   7.665  1.1342  1.1749  0.3726
 6692TIP3    H241636   0.160   2.339   7.770  1.3994  1.9621 -0.3579
 6693TIP3   OH241637   6.401   5.947   2.546 -0.2175 -0.3176  0.2806
 6693TIP3    H141638   6.449   6.011   2.493  1.3009 -1.1045  0.6674
 6693TIP3    H241639   6.466   5.881   2.569 -1.1675 -0.7016  1.9887
 6694TIP3   OH241640   2.214   3.591   0.630 -0.1513 -0.3793 -0.0729
 6694TIP3    H141641   2.179   3.578   0.542  1.5296  0.2042 -0.8594
 6694TIP3    H241642   2.152   3.651   0.672 -0.8920 -0.5573 -0.8866
 6695TIP3   OH241643   0.792   4.965   7.975 -0.2113  0.1139  0.1229
 6695TIP3    H141644   0.768   5.032   7.911  1.7000 -0.8436 -1.7466
 6695TIP3    H241645   0.709   4.939   8.016 -1.4714  1.0832 -1.6793
 6696TIP3   OH241646   4.759   4.587   2.164  0.1176  0.6022 -0.5765
 6696TIP3    H141647   4.716   4.524   2.221  0.7306 -0.6101 -1.4084
 6696TIP3    H241648   4.806   4.645   2.223 -0.4836  0.3103  0.2124
 6697TIP3   OH241649   2.985   5.258   7.677  0.5711 -0.0958  0.2440
 6697TIP3    H141650   3.052   5.207   7.632 -0.0463  1.2447 -2.3744
 6697TIP3    H241651   2.902   5.226   7.641  0.0306  0.8666  0.5925
 6698TIP3   OH241652   3.990   5.365   8.120 -0.2074  0.5030  0.4480
 6698TIP3    H141653   4.078   5.400   8.108  0.9793 -1.7934  1.5940
 6698TIP3    H241654   3.937   5.406   8.052  1.7303  2.0056 -0.2294
 6699TIP3   OH241655   2.601   6.824   7.108 -0.0780  0.3307  0.3288
 6699TIP3    H141656   2.553   6.896   7.068  0.5413 -0.3090 -1.6629
 6699TIP3    H241657   2.643   6.863   7.185  0.6026  2.2267 -0.9373
 6700TIP3   OH241658   4.389   2.505   1.341  0.5834  0.2112 -0.1844
 6700TIP3    H141659   4.460   2.450   1.309  1.3012  1.0529 -0.0671
 6700TIP3    H241660   4.383   2.577   1.278 -0.3678  0.0026 -0.3558
 6701TIP3   OH241661   3.109   6.653   2.855 -0.2758  0.4159 -1.2081
 6701TIP3    H141662   3.178   6.622   2.796 -0.9511  0.2172 -1.9192
 6701TIP3    H241663   3.117   6.598   2.933  0.8461  0.9046 -0.9622
 6702TIP3   OH241664   4.893   1.670   0.943  0.8012  0.5157 -0.1557
 6702TIP3    H141665   4.806   1.672   0.903  0.4960  0.9394  0.5270
 6702TIP3    H241666   4.903   1.579   0.974  0.3648  0.6122  0.2763
 6703TIP3   OH241667   5.488   6.062   2.568  0.7856 -0.2644  0.3170
 6703TIP3    H141668   5.466   5.983   2.617  1.3416 -0.5591  0.1053
 6703TIP3    H241669   5.419   6.124   2.590  0.3115 -0.8267  0.4414
 6704TIP3   OH241670   3.229   5.358   0.532 -0.2596  0.0555 -0.5518
 6704TIP3    H141671   3.176   5.362   0.453  0.2242  0.4807 -0.8590
 6704TIP3    H241672   3.303   5.415   0.514 -0.5831  0.8398  0.5394
 6705TIP3   OH241673   6.004   0.748   8.070  0.0469  0.8502 -0.0573
 6705TIP3    H141674   6.018   0.654   8.062 -1.2923  0.5128  1.2301
 6705TIP3    H241675   5.926   0.757   8.124  0.2396  2.7134 -0.0112
 6706TIP3   OH241676   3.664   2.102   1.913 -0.4667  0.3429  0.1270
 6706TIP3    H141677   3.574   2.130   1.930 -0.3293  0.3392  0.9178
 6706TIP3    H241678   3.716   2.151   1.977 -0.1239 -1.0951  0.9888
 6707TIP3   OH241679   2.737   2.753   0.549 -0.1831  0.1739 -0.5032
 6707TIP3    H141680   2.790   2.708   0.615  0.6894  1.1990 -0.4869
 6707TIP3    H241681   2.794   2.761   0.474 -0.0802  1.8657 -0.2713
 6708TIP3   OH241682   6.214   6.205   0.619  0.4119 -0.1334  0.2525
 6708TIP3    H141683   6.281   6.190   0.686  2.1833 -0.3360 -1.4936
 6708TIP3    H241684   6.184   6.295   0.635  0.6738 -0.2333  1.4051
 6709TIP3   OH241685   2.113   1.427   0.762 -0.5153 -0.3095  0.5677
 6709TIP3    H141686   2.079   1.364   0.825 -0.0834 -0.8839  0.2362
 6709TIP3    H241687   2.208   1.420   0.770 -0.4567  1.1447  1.3494
 6710TIP3   OH241688   1.080   6.041   2.634 -0.7738  0.1579 -0.3489
 6710TIP3    H141689   1.134   6.120   2.629  0.2001 -0.5014 -0.5663
 6710TIP3    H241690   1.092   5.999   2.549  0.7964 -1.5144  0.6334
 6711TIP3   OH241691   5.824   1.845   2.330 -0.4780  0.2006 -0.1652
 6711TIP3    H141692   5.906   1.815   2.292 -0.6385 -1.7247  0.8820
 6711TIP3    H241693   5.847   1.870   2.420 -0.7824  1.0639 -0.3199
 6712TIP3   OH241694   3.057   1.723   8.235  0.3281  0.3232  0.0584
 6712TIP3    H141695   3.002   1.742   8.160  0.1684 -0.3953 -0.0146
 6712TIP3    H241696   3.016   1.771   8.308 -0.5549 -0.4148  0.0629
 6713TIP3   OH241697   5.958   2.838   0.614  0.4899 -0.1995  0.3648
 6713TIP3    H141698   5.897   2.861   0.684 -0.9779 -1.8918 -0.2773
 6713TIP3    H241699   6.030   2.794   0.659 -0.5352 -1.4480  0.8418
 6714TIP3   OH241700   2.434   1.566   1.119  0.3017 -0.2151  0.4310
 6714TIP3    H141701   2.353   1.584   1.167  1.0647  0.2978  1.5720
 6714TIP3    H241702   2.452   1.474   1.135 -0.5492 -0.5930 -0.6369
 6715TIP3   OH241703   4.744   5.339   1.752 -0.0337  0.0179 -0.3916
 6715TIP3    H141704   4.780   5.275   1.690  0.8005  0.9938 -0.9400
 6715TIP3    H241705   4.804   5.338   1.826  0.2773  0.5290 -0.6301
 6716TIP3   OH241706   3.313   4.698   7.305 -0.0807 -0.3286  0.3843
 6716TIP3    H141707   3.294   4.665   7.393 -0.4958  0.3889  0.5698
 6716TIP3    H241708   3.298   4.623   7.247 -1.4250 -0.3666  0.7519
 6717TIP3   OH241709   0.220   6.144   1.682 -0.2432 -0.2603  0.9591
 6717TIP3    H141710   0.153   6.178   1.742  0.1289  0.0233  1.2164
 6717TIP3    H241711   0.297   6.199   1.698  0.2410 -0.9572  1.0959
 6718TIP3   OH241712   6.073   0.857   8.344  0.0963  0.1033  0.3281
 6718TIP3    H141713   6.072   0.834   8.251 -3.1084  1.2259 -0.0356
 6718TIP3    H241714   6.077   0.773   8.389 -0.2334 -0.5802 -0.8717
 6719TIP3   OH241715   3.340   0.627   7.570 -0.4578  0.0591 -0.1541
 6719TIP3    H141716   3.386   0.595   7.649 -0.5974 -0.1530 -0.1577
 6719TIP3    H241717   3.403   0.685   7.529 -0.9521  1.4180  0.9349
 6720TIP3   OH241718   0.592   0.249   7.443  0.2532 -0.1675 -0.5532
 6720TIP3    H141719   0.628   0.318   7.499 -0.9985  1.0307 -1.1667
 6720TIP3    H241720   0.521   0.212   7.495  0.0214 -0.0304 -0.7687
 6721TIP3   OH241721   5.525   0.470   7.233  0.4963  0.0154 -0.0190
 6721TIP3    H141722   5.604   0.496   7.185 -0.0737  1.7594 -0.0836
 6721TIP3    H241723   5.477   0.552   7.245  0.3648 -0.4156  3.0792
 6722TIP3   OH241724   0.314   3.511   0.505 -0.5905 -0.8715 -0.2362
 6722TIP3    H141725   0.361   3.548   0.580 -0.9923 -0.9326  0.0536
 6722TIP3    H241726   0.313   3.582   0.441  1.9484 -1.6273 -1.2212
 6723TIP3   OH241727   4.853   1.115   0.765 -0.0874  0.0938 -0.1542
 6723TIP3    H141728   4.854   1.158   0.680 -0.1699 -2.1453 -1.3435
 6723TIP3    H241729   4.761   1.113   0.790 -0.3134 -1.1048 -1.0271
 6724TIP3   OH241730   6.676   5.017   8.692  0.2023 -0.9406 -0.2977
 6724TIP3    H141731   6.595   4.967   8.691 -0.7961  0.5829 -0.0088
 6724TIP3    H241732   6.663   5.081   8.762  0.5304  1.0528 -1.9630
 6725TIP3   OH241733   2.685   5.255   2.242  0.1221  0.3878  0.1442
 6725TIP3    H141734   2.742   5.190   2.282  0.5057  0.5465 -0.1363
 6725TIP3    H241735   2.597   5.230   2.270  0.3608  0.3858  0.9274
 6726TIP3   OH241736   5.035   2.269   8.511  0.2306  0.0007 -0.2518
 6726TIP3    H141737   5.024   2.330   8.439  0.5173 -0.3078 -0.5631
 6726TIP3    H241738   5.098   2.204   8.478  1.0046  0.3234  0.5678
 6727TIP3   OH241739   4.658   0.779   8.426  0.3592 -0.3219  0.0874
 6727TIP3    H141740   4.647   0.849   8.490 -1.2266 -0.7573  0.3321
 6727TIP3    H241741   4.569   0.752   8.404  0.9218 -2.5395  0.2974
 6728TIP3   OH241742   4.833   4.872   1.526 -0.1276  0.2716 -0.1502
 6728TIP3    H141743   4.896   4.863   1.455 -0.2726 -1.3324 -0.0939
 6728TIP3    H241744   4.748   4.852   1.487 -0.5827  1.9459 -0.1096
 6729TIP3   OH241745   0.467   4.204   0.010 -0.1650 -0.3474 -0.2721
 6729TIP3    H141746   0.413   4.250   0.075  0.1893 -0.3259  0.0113
 6729TIP3    H241747   0.525   4.272  -0.024  0.1748 -0.5221 -0.0490
 6730TIP3   OH241748   2.385   5.595   1.794  0.3527 -0.2576 -0.2049
 6730TIP3    H141749   2.370   5.617   1.702  0.2002  0.4942 -0.0062
 6730TIP3    H241750   2.479   5.579   1.800  0.2058 -1.3732 -0.7081
 6731TIP3   OH241751   2.356   6.820   1.310 -1.3185  0.0657 -0.0803
 6731TIP3    H141752   2.344   6.726   1.293  0.2667 -0.0398 -0.7992
 6731TIP3    H241753   2.438   6.826   1.358 -1.8769  1.0313  0.7845
 6732TIP3   OH241754   4.854   2.536   8.570  0.2787 -0.6911  0.2306
 6732TIP3    H141755   4.912   2.460   8.577 -1.3032 -1.8508  1.4253
 6732TIP3    H241756   4.788   2.522   8.637 -1.0555  0.8858 -0.6817
 6733TIP3   OH241757   3.077   1.972   0.074  0.6347  0.1095  0.3726
 6733TIP3    H141758   3.044   1.946  -0.012  0.6736  1.2974 -0.0156
 6733TIP3    H241759   3.057   2.066   0.081  1.5235  0.2602  1.2420
 6734TIP3   OH241760   6.065   2.245   1.081  0.7122 -0.4840 -0.2126
 6734TIP3    H141761   6.090   2.303   1.009  1.2376 -1.1709 -0.5984
 6734TIP3    H241762   6.133   2.178   1.082  0.8330 -0.3683  1.0664
 6735TIP3   OH241763   5.454   4.559   0.192  0.0374 -0.3197  0.3928
 6735TIP3    H141764   5.421   4.644   0.165  0.4865 -0.8025 -1.8330
 6735TIP3    H241765   5.376   4.509   0.214 -0.4390 -0.1455 -0.8259
 6736TIP3   OH241766   0.270   2.126   6.418 -0.2876 -0.2140  0.6243
 6736TIP3    H141767   0.284   2.036   6.446  0.5877  0.2865  1.9207
 6736TIP3    H241768   0.340   2.143   6.355  0.1317 -0.1560  1.1013
 6737TIP3   OH241769   0.594   3.167   1.960 -0.8919 -0.3040 -0.5862
 6737TIP3    H141770   0.570   3.155   1.868 -2.9144  0.8494 -0.2639
 6737TIP3    H241771   0.536   3.107   2.007 -0.2155 -0.5161 -0.0068
 6738TIP3   OH241772   4.899   0.895   0.583  0.1540 -0.1394 -0.1392
 6738TIP3    H141773   4.963   0.824   0.590 -2.7750 -2.9816 -0.2931
 6738TIP3    H241774   4.868   0.908   0.673 -0.1309  0.1765 -0.2816
 6739TIP3   OH241775   4.956   1.733   1.548 -0.4777 -0.4269  0.4350
 6739TIP3    H141776   5.019   1.776   1.491  0.3334 -0.7184  1.0906
 6739TIP3    H241777   4.987   1.752   1.637 -0.8222 -1.2995  0.7531
 6740TIP3   OH241778   6.073   3.088   1.370 -0.4445 -0.4914  0.2493
 6740TIP3    H141779   6.157   3.134   1.377 -0.8400  0.5334 -1.1357
 6740TIP3    H241780   6.083   3.010   1.425  0.9417  0.2754  1.1302
 6741TIP3   OH241781   4.421   2.298   2.189 -0.0012  0.1198  0.2056
 6741TIP3    H141782   4.468   2.278   2.270 -1.9006 -1.4889  1.0046
 6741TIP3    H241783   4.436   2.222   2.133 -0.4359  0.2622 -0.1080
 6742TIP3   OH241784   4.439   4.971   7.749  0.3737 -0.5108  0.0719
 6742TIP3    H141785   4.491   4.934   7.677 -0.4335 -0.7379 -0.4213
 6742TIP3    H241786   4.348   4.965   7.717  0.1550  1.0918  0.3534
 6743TIP3   OH241787   0.947   1.740   0.634 -0.2732  0.2850 -0.4972
 6743TIP3    H141788   0.937   1.824   0.588 -2.1214  0.5541  0.3234
 6743TIP3    H241789   0.927   1.760   0.725 -1.1128 -1.1263 -0.3526
 6744TIP3   OH241790   2.709   1.702   2.884 -0.5959  0.8887 -0.0392
 6744TIP3    H141791   2.751   1.742   2.960  0.4498  0.0011 -0.1188
 6744TIP3    H241792   2.746   1.613   2.881 -0.4543  0.9776 -1.7028
 6745TIP3   OH241793   0.244   1.750   0.922 -0.2162 -0.4669  0.1130
 6745TIP3    H141794   0.313   1.796   0.970 -2.3464 -0.1770  3.1719
 6745TIP3    H241795   0.275   1.659   0.919  1.2815  0.0282 -0.6022
 6746TIP3   OH241796   2.425   4.308   0.355  0.3468  0.1623 -0.2301
 6746TIP3    H141797   2.347   4.263   0.322  0.7046  0.1586 -1.0996
 6746TIP3    H241798   2.410   4.400   0.333  0.7100  0.1220 -0.6594
 6747TIP3   OH241799   3.067   1.231   0.567  0.0439 -0.1400 -0.7750
 6747TIP3    H141800   3.144   1.260   0.615 -0.3089  0.5034 -0.5854
 6747TIP3    H241801   3.099   1.207   0.480  1.1060 -3.5326  0.3838
 6748TIP3   OH241802   1.985   5.301   1.357 -0.0047  0.3997 -0.0302
 6748TIP3    H141803   1.962   5.277   1.447 -2.7430  1.6224 -0.3183
 6748TIP3    H241804   2.019   5.220   1.320 -2.2742 -1.1942  1.0830
 6749TIP3   OH241805   2.804   1.983   1.741  0.1730  0.4522  0.1931
 6749TIP3    H141806   2.895   1.989   1.771  0.4609 -0.2463 -0.5109
 6749TIP3    H241807   2.776   2.074   1.733  0.0905  0.6893  2.4877
 6750TIP3   OH241808   0.375   0.141   7.559 -0.2413  0.6975 -0.2077
 6750TIP3    H141809   0.319   0.148   7.636  1.1567 -1.2522  1.0865
 6750TIP3    H241810   0.321   0.094   7.494 -1.2289  1.8493 -0.2454
 6751TIP3   OH241811   2.967   6.123   2.805 -0.0523  0.0928  0.0905
 6751TIP3    H141812   2.875   6.117   2.780  0.5224 -1.8059 -1.8744
 6751TIP3    H241813   2.973   6.073   2.886 -0.7783  0.4651  0.3844
 6752TIP3   OH241814   4.888   3.381   2.539  0.1767 -1.0234  0.4965
 6752TIP3    H141815   4.891   3.364   2.633  1.0028  2.6058  1.2923
 6752TIP3    H241816   4.945   3.457   2.527 -1.0480 -0.4589 -2.7186
 6753TIP3   OH241817   1.929   5.624   7.286  0.0086  0.3826  0.0629
 6753TIP3    H141818   1.860   5.604   7.223  1.1272  0.0168 -1.0821
 6753TIP3    H241819   1.890   5.688   7.346 -2.5150 -2.4258  1.6884
 6754TIP3   OH241820   2.996   0.297   1.150 -0.0742  0.4793 -0.0867
 6754TIP3    H141821   3.078   0.319   1.193  0.8468 -0.0793 -1.5001
 6754TIP3    H241822   3.002   0.203   1.134 -1.6926  0.1174  1.2162
 6755TIP3   OH241823   2.817   4.673   1.524  0.1002 -0.2704 -0.0302
 6755TIP3    H141824   2.743   4.731   1.544  0.5004 -0.2943  1.6900
 6755TIP3    H241825   2.837   4.630   1.608  0.8243 -1.7264 -0.9010
 6756TIP3   OH241826   0.135   2.091   1.827  0.3487 -0.5119  0.1160
 6756TIP3    H141827   0.216   2.138   1.847 -0.2036  0.6518 -0.2308
 6756TIP3    H241828   0.068   2.160   1.828 -0.6835 -1.5007  0.6997
 6757TIP3   OH241829   5.805   1.653   8.685 -0.2157  0.4614 -0.0951
 6757TIP3    H141830   5.855   1.705   8.748 -0.0408  0.6353 -0.3731
 6757TIP3    H241831   5.871   1.598   8.641 -0.1392  1.2307 -0.9901
 6758TIP3   OH241832   5.077   5.669   1.993  0.4268 -0.7286  0.3118
 6758TIP3    H141833   5.057   5.691   2.084 -0.3814  3.4214 -0.6459
 6758TIP3    H241834   4.994   5.681   1.947  1.7045  2.1259 -1.5608
 6759TIP3   OH241835   2.502   3.825   6.889  0.5454  0.2840  0.2512
 6759TIP3    H141836   2.596   3.834   6.907  0.8585  1.0758 -1.6202
 6759TIP3    H241837   2.466   3.911   6.907  0.3230  0.2158  0.1339
 6760TIP3   OH241838   1.602   2.429   0.233 -0.1353  0.4725  0.1572
 6760TIP3    H141839   1.583   2.495   0.166  0.5007 -0.6742 -1.2248
 6760TIP3    H241840   1.614   2.348   0.183  0.6002 -0.3808  1.6545
 6761TIP3   OH241841   5.827   3.961   1.449  0.0625 -0.4442  0.4971
 6761TIP3    H141842   5.836   3.918   1.533  0.4868  1.9770  1.7930
 6761TIP3    H241843   5.848   4.053   1.467 -0.0309  0.1890 -2.2131
 6762TIP3   OH241844   5.754   3.704   0.072  0.3171  0.2570 -0.6454
 6762TIP3    H141845   5.774   3.720   0.165  1.2189  0.7629 -0.9042
 6762TIP3    H241846   5.729   3.790   0.038 -1.3773 -0.1771 -0.5806
 6763TIP3   OH241847   6.212   5.196   8.505  0.3308  0.2024  0.2591
 6763TIP3    H141848   6.255   5.271   8.464  1.2737 -0.9112 -0.8564
 6763TIP3    H241849   6.120   5.224   8.514  0.9688  2.1237  1.4965
 6764TIP3   OH241850   0.650   2.428   7.787 -0.3498 -0.1093  0.2063
 6764TIP3    H141851   0.685   2.350   7.743  1.7690 -0.1263  1.7571
 6764TIP3    H241852   0.630   2.398   7.876 -1.2344  0.7171  0.2999
 6765TIP3   OH241853   4.848   0.318   7.559 -0.4965 -0.1571  0.1318
 6765TIP3    H141854   4.799   0.398   7.539  0.2771  0.4526  0.6107
 6765TIP3    H241855   4.781   0.249   7.560 -1.3983  0.6771  0.9574
 6766TIP3   OH241856   0.031   2.697   8.580 -0.0141  0.1797 -0.4004
 6766TIP3    H141857   0.004   2.770   8.636 -0.9849 -0.4443 -0.0253
 6766TIP3    H241858   0.125   2.689   8.595 -0.1542  0.4009  0.7076
 6767TIP3   OH241859   2.589   0.664   7.963  0.1116 -0.0866 -0.4727
 6767TIP3    H141860   2.599   0.597   8.030 -0.5541  0.8700  0.6292
 6767TIP3    H241861   2.570   0.744   8.012  0.1101  0.7471 -1.7839
 6768TIP3   OH241862   1.018   4.935   2.749  0.2667 -0.3722 -0.0636
 6768TIP3    H141863   0.961   4.864   2.779 -0.6622  0.1437 -0.5509
 6768TIP3    H241864   1.072   4.956   2.825  2.4777 -3.3772 -0.6280
 6769TIP3   OH241865   4.593   0.999   1.493  0.6472  0.3931  0.8174
 6769TIP3    H141866   4.514   1.002   1.547  0.3248  0.2814  0.3614
 6769TIP3    H241867   4.563   0.965   1.409  0.8306  2.0669  0.0387
 6770TIP3   OH241868   3.298   2.656   8.352 -0.1509  0.0579 -0.1255
 6770TIP3    H141869   3.317   2.712   8.277  0.5755 -0.8491 -0.6351
 6770TIP3    H241870   3.301   2.567   8.317 -2.8316 -0.2915  0.3123
 6771TIP3   OH241871   0.373   4.055   0.641 -0.4188 -0.2758 -0.1186
 6771TIP3    H141872   0.431   3.994   0.594  1.0761  2.9085 -2.8299
 6771TIP3    H241873   0.424   4.084   0.716  0.2041  0.0602 -0.6644
 6772TIP3   OH241874   2.607   5.180   1.895  0.3942  0.1977 -0.0518
 6772TIP3    H141875   2.538   5.129   1.936 -1.2974  0.7369 -2.0388
 6772TIP3    H241876   2.662   5.115   1.850  1.1770 -0.2218  1.4425
 6773TIP3   OH241877   1.434   4.487   7.854  0.2796  0.1474 -0.0154
 6773TIP3    H141878   1.506   4.540   7.820 -0.5929  1.1855 -0.3199
 6773TIP3    H241879   1.389   4.455   7.775 -0.2248  0.4236  0.1525
 6774TIP3   OH241880   2.345   0.924   2.562 -0.1139 -0.0121  0.2732
 6774TIP3    H141881   2.314   0.846   2.608  0.6252  0.0340  0.8561
 6774TIP3    H241882   2.438   0.929   2.582 -0.4775  2.0351  1.7744
 6775TIP3   OH241883   4.826   6.556   2.018 -0.3731 -0.3057  0.1543
 6775TIP3    H141884   4.853   6.573   1.928 -0.9810 -0.1169  0.0004
 6775TIP3    H241885   4.907   6.546   2.067 -0.0099  1.1109 -0.1272
 6776TIP3   OH241886   4.610   1.973   2.195  0.3855  0.6271 -0.2900
 6776TIP3    H141887   4.585   1.983   2.286 -0.7703 -1.1693 -0.3463
 6776TIP3    H241888   4.529   1.989   2.146  0.2440 -1.3355 -0.7700
 6777TIP3   OH241889   2.881   3.642   0.254 -0.3812 -0.3493 -0.8602
 6777TIP3    H141890   2.930   3.627   0.173 -0.4621 -1.0124 -0.7931
 6777TIP3    H241891   2.794   3.608   0.235  0.0196 -1.9555  0.0065
 6778TIP3   OH241892   5.214   3.073   1.868 -0.4333  0.3520  0.6650
 6778TIP3    H141893   5.292   3.067   1.813 -0.3300 -1.9021  0.9595
 6778TIP3    H241894   5.247   3.095   1.955  0.3180 -3.1798  1.4340
 6779TIP3   OH241895   3.038   3.378   7.000 -0.1596  0.0530 -0.0894
 6779TIP3    H141896   3.104   3.405   6.935  1.7928 -0.0620  1.7307
 6779TIP3    H241897   3.038   3.282   6.995  2.7824 -0.2300  2.4915
 6780TIP3   OH241898   5.467   2.726   1.199  0.1156  0.2886 -0.6971
 6780TIP3    H141899   5.555   2.691   1.184 -0.1692 -1.3454  0.9662
 6780TIP3    H241900   5.444   2.769   1.117  1.4612 -1.4694 -2.0974
 6781TIP3   OH241901   2.368   0.602   1.938 -0.0492 -0.0521  0.0457
 6781TIP3    H141902   2.460   0.629   1.933  0.1421 -0.2967  1.6435
 6781TIP3    H241903   2.327   0.669   1.991 -0.4660 -0.7250  0.5858
 6782TIP3   OH241904   2.868   5.530   8.749 -0.5737 -0.3107  0.3727
 6782TIP3    H141905   2.838   5.489   8.668 -1.0710  1.3486 -0.3325
 6782TIP3    H241906   2.941   5.586   8.722  0.6597 -1.3355  1.4477
 6783TIP3   OH241907   3.192   6.822   7.308 -0.0092  0.0978 -0.0355
 6783TIP3    H141908   3.184   6.813   7.213 -1.2252 -2.5874  0.2365
 6783TIP3    H241909   3.285   6.812   7.325  0.6714  3.3412 -1.0533
 6784TIP3   OH241910   5.729   4.738   8.570 -0.2198 -0.6029 -0.2290
 6784TIP3    H141911   5.710   4.671   8.636 -0.9248 -0.4677 -0.2799
 6784TIP3    H241912   5.821   4.726   8.549 -0.0589 -0.8480  0.5622
 6785TIP3   OH241913   3.892   2.171   1.069  0.0927  0.2725  0.1951
 6785TIP3    H141914   3.860   2.094   1.022  0.6730  0.1692 -0.0465
 6785TIP3    H241915   3.949   2.134   1.138  0.2680  0.4784  0.1608
 6786TIP3   OH241916   6.637   6.156   1.881 -0.4371 -0.4743 -0.7108
 6786TIP3    H141917   6.730   6.173   1.870 -0.5051 -0.4816 -1.3542
 6786TIP3    H241918   6.594   6.235   1.847 -0.6628 -0.4566 -0.3898
 6787TIP3   OH241919   4.786   4.080   1.341  0.1805 -0.0033 -0.4476
 6787TIP3    H141920   4.712   4.088   1.401 -0.0623 -0.8289 -0.6145
 6787TIP3    H241921   4.792   3.986   1.324  1.7526 -0.0459  0.1679
 6788TIP3   OH241922   6.481   4.449   1.523  0.3535  0.4543  0.1204
 6788TIP3    H141923   6.495   4.418   1.612 -0.1149 -0.6798 -0.1789
 6788TIP3    H241924   6.401   4.404   1.495  0.6659  0.5512 -0.9735
 6789TIP3   OH241925   1.809   2.193   7.219 -0.7899  0.0231 -0.0286
 6789TIP3    H141926   1.822   2.284   7.248 -0.1144 -0.6168  1.8128
 6789TIP3    H241927   1.836   2.194   7.127  1.3834  1.2515  0.5336
 6790TIP3   OH241928   0.767   6.582   1.625  0.0395 -0.8556  0.5767
 6790TIP3    H141929   0.757   6.487   1.634  2.7113 -1.1520  1.2355
 6790TIP3    H241930   0.760   6.598   1.531 -1.6978 -1.4764  0.5586
 6791TIP3   OH241931   5.596   1.190   8.323 -0.0301  0.0110 -1.1267
 6791TIP3    H141932   5.567   1.245   8.395 -0.0566  0.6208 -1.5962
 6791TIP3    H241933   5.601   1.102   8.360 -0.7205  0.2013 -0.5744
 6792TIP3   OH241934   5.069   1.253   7.719  0.3867  0.4025 -0.3445
 6792TIP3    H141935   5.154   1.210   7.706  0.2640 -0.2659  0.8619
 6792TIP3    H241936   5.086   1.346   7.703  1.2847  0.2406 -0.3834
 6793TIP3   OH241937   3.462   3.280   2.331 -0.0154  0.9309 -0.0012
 6793TIP3    H141938   3.378   3.254   2.294  1.4577 -0.8585 -2.3029
 6793TIP3    H241939   3.463   3.376   2.322 -1.8115  1.0050  0.1941
 6794TIP3   OH241940   0.445   2.058   0.650  0.0069 -1.1403  0.3513
 6794TIP3    H141941   0.393   2.007   0.588 -2.7570  1.1998  0.5828
 6794TIP3    H241942   0.386   2.075   0.723  0.9694  1.8073  0.5728
 6795TIP3   OH241943   0.646   4.321   1.404  0.5471 -0.6098  0.3127
 6795TIP3    H141944   0.558   4.348   1.432  0.2004 -2.3119  0.9944
 6795TIP3    H241945   0.684   4.400   1.364 -0.5003  0.7605  1.8835
 6796TIP3   OH241946   5.291   1.750   0.580  0.4826  0.0771 -0.0926
 6796TIP3    H141947   5.299   1.661   0.546  0.9740  0.1704 -0.2313
 6796TIP3    H241948   5.224   1.744   0.648  1.8088 -0.7781  1.1783
 6797TIP3   OH241949   4.728   3.377   8.593 -0.2297  0.4386  0.3432
 6797TIP3    H141950   4.730   3.463   8.635 -1.4278  0.4846  0.3523
 6797TIP3    H241951   4.744   3.316   8.665 -0.6582  0.6016  0.5863
 6798TIP3   OH241952   1.323   2.932   1.209 -0.4506  0.0843  0.5786
 6798TIP3    H141953   1.236   2.967   1.188 -0.0932 -0.2900 -1.7603
 6798TIP3    H241954   1.383   2.982   1.153  0.3323 -2.5677 -1.1173
 6799TIP3   OH241955   6.521   3.005   0.811 -0.7708  0.4437 -0.0209
 6799TIP3    H141956   6.560   3.071   0.754 -0.0870  0.6215  0.6410
 6799TIP3    H241957   6.430   3.000   0.783 -0.7102  1.3114 -0.4005
 6800TIP3   OH241958   1.819   0.055   6.900  0.7956 -0.3588  0.4158
 6800TIP3    H141959   1.753   0.104   6.949 -0.9249 -2.8856  0.8331
 6800TIP3    H241960   1.769  -0.012   6.852  2.8253 -0.6697 -1.4525
 6801TIP3   OH241961   6.711   3.707   1.490  0.1207 -0.3144 -0.3265
 6801TIP3    H141962   6.648   3.722   1.560  0.3893  0.8919 -0.3233
 6801TIP3    H241963   6.684   3.768   1.420  1.9561  1.1030  0.1341
 6802TIP3   OH241964   4.971   6.000   7.955 -0.3592  0.1973 -0.4430
 6802TIP3    H141965   5.067   5.998   7.956 -0.3305  0.7300 -1.6473
 6802TIP3    H241966   4.948   6.047   7.875 -1.6422 -1.9725 -1.4373
 6803TIP3   OH241967   1.446   6.517   1.431 -0.3594  0.6158  0.2406
 6803TIP3    H141968   1.479   6.441   1.385  1.3249  1.4063  0.0594
 6803TIP3    H241969   1.395   6.481   1.503 -2.6198 -0.6483 -1.8456
 6804TIP3   OH241970   0.142   5.332   0.805  0.3460 -0.1145 -0.1348
 6804TIP3    H141971   0.218   5.390   0.800  0.2423  0.0205 -0.1396
 6804TIP3    H241972   0.161   5.274   0.879  0.9122 -0.7287 -0.7474
 6805TIP3   OH241973   3.175   4.588   2.923  0.6057  0.0556 -0.0519
 6805TIP3    H141974   3.147   4.519   2.862  0.5994  0.0636 -0.0581
 6805TIP3    H241975   3.196   4.662   2.866  2.0273 -0.4080 -0.1533
 6806TIP3   OH241976   5.168   3.517   1.114  0.3220 -0.1478 -0.0630
 6806TIP3    H141977   5.243   3.570   1.144  0.3707 -0.4901  0.4494
 6806TIP3    H241978   5.143   3.466   1.192 -0.7531  0.3101 -0.0927
 6807TIP3   OH241979   0.621   4.108   7.886  0.0547 -0.7626 -0.1806
 6807TIP3    H141980   0.666   4.024   7.896  2.1317  0.0439 -1.8836
 6807TIP3    H241981   0.606   4.115   7.791 -0.0582  0.7963 -0.0645
 6808TIP3   OH241982   4.565   5.178   1.484  0.3160  0.1038  0.1743
 6808TIP3    H141983   4.616   5.216   1.413  1.7375  0.0491  1.1202
 6808TIP3    H241984   4.474   5.197   1.461  0.8540  2.0660 -0.5466
 6809TIP3   OH241985   3.346   1.181   8.177  0.5014 -0.5333  0.4438
 6809TIP3    H141986   3.408   1.250   8.201  1.7091 -1.3274 -0.2751
 6809TIP3    H241987   3.345   1.182   8.081 -0.4354 -0.6923  0.4413
 6810TIP3   OH241988   3.085   4.889   1.606  0.3876 -0.1579  0.6602
 6810TIP3    H141989   3.117   4.829   1.540 -0.3631  0.8898 -0.7071
 6810TIP3    H241990   3.104   4.846   1.689 -0.3271 -2.3763 -0.2576
 6811TIP3   OH241991   6.110   2.759   8.054 -0.1717 -0.1462  0.0963
 6811TIP3    H141992   6.145   2.711   8.129 -0.6053  2.6050  2.2030
 6811TIP3    H241993   6.015   2.746   8.060 -0.1765 -0.3064 -0.2919
 6812TIP3   OH241994   3.649   2.461   0.451 -0.3052 -0.1762  0.6758
 6812TIP3    H141995   3.658   2.372   0.416  1.1353 -0.1397  0.8894
 6812TIP3    H241996   3.647   2.449   0.546 -2.8130 -0.1594  0.6918
 6813TIP3   OH241997   3.327   5.447   7.835  0.0245  0.0420 -0.0734
 6813TIP3    H141998   3.257   5.483   7.781  1.0077  1.4873 -0.4493
 6813TIP3    H241999   3.283   5.389   7.897 -1.2924 -0.4724 -1.4393
 6814TIP3   OH242000   2.183   4.148   0.335  0.0764  0.2426  0.4752
 6814TIP3    H142001   2.212   4.057   0.342  1.8502  0.7092 -0.1614
 6814TIP3    H242002   2.117   4.148   0.266 -2.1957 -1.0081  2.5219
 6815TIP3   OH242003   2.432   4.798   2.074 -0.4987  0.8254  0.3300
 6815TIP3    H142004   2.355   4.766   2.027  1.0694  0.5670 -2.2251
 6815TIP3    H242005   2.501   4.734   2.055  1.0183  2.3389  0.4532
 6816TIP3   OH242006   3.519   5.860   8.642 -0.1177  0.7004 -0.0849
 6816TIP3    H142007   3.474   5.932   8.686 -0.1355  1.1411 -0.7968
 6816TIP3    H242008   3.465   5.841   8.565 -0.4228 -0.4775  0.3992
 6817TIP3   OH242009   4.130   3.581   8.400  0.2916  0.0863  0.3729
 6817TIP3    H142010   4.205   3.540   8.355 -0.0943  0.9177 -1.1049
 6817TIP3    H242011   4.116   3.663   8.352 -1.9212 -0.3198  0.2434
 6818TIP3   OH242012   0.651   5.281   2.018  0.1246 -0.5645  0.0744
 6818TIP3    H142013   0.686   5.192   2.012  0.9928 -0.2182 -0.2953
 6818TIP3    H242014   0.709   5.325   2.080 -1.4092 -0.7453  1.7016
 6819TIP3   OH242015   4.281   4.642   0.628 -0.8370  0.8661 -0.3557
 6819TIP3    H142016   4.361   4.591   0.617  1.5033  3.6267  2.1819
 6819TIP3    H242017   4.224   4.586   0.682  0.9718  0.2687  1.0219
 6820TIP3   OH242018   1.161   4.673   1.016 -0.2958 -0.0472  0.2327
 6820TIP3    H142019   1.233   4.737   1.022 -1.3636  1.1688  0.6973
 6820TIP3    H242020   1.144   4.649   1.107 -0.2141 -0.6455  0.0912
 6821TIP3   OH242021   2.669   4.945   1.271  0.4284 -0.2238  0.0085
 6821TIP3    H142022   2.587   4.985   1.243  0.6838  0.8080  0.6513
 6821TIP3    H242023   2.733   5.016   1.263  1.2637 -1.0137 -0.4922
 6822TIP3   OH242024   6.001   4.746   0.926 -0.3917 -0.4141 -0.5035
 6822TIP3    H142025   5.951   4.679   0.973  1.7021 -1.6594  0.0824
 6822TIP3    H242026   5.991   4.825   0.979 -0.3609 -1.0878  0.5424
 6823TIP3   OH242027   1.068   2.652   2.263  0.3962 -0.5201 -0.2404
 6823TIP3    H142028   1.070   2.594   2.340  0.5053 -0.3108 -0.0856
 6823TIP3    H242029   1.078   2.740   2.299  0.5928 -0.4323 -0.5056
 6824TIP3   OH242030   5.357   5.522   1.053  0.1622  0.0159  0.0293
 6824TIP3    H142031   5.396   5.608   1.047  0.1665  0.0813  0.8082
 6824TIP3    H242032   5.417   5.472   1.109  0.9629 -0.9766 -1.6463
 6825TIP3   OH242033   1.316   1.171   8.227 -0.1535  0.3366 -0.2650
 6825TIP3    H142034   1.388   1.200   8.282 -0.8233  0.7188  0.4356
 6825TIP3    H242035   1.317   1.075   8.234  1.1766  0.2406 -1.4392
 6826TIP3   OH242036   1.090   3.510   8.484 -0.0540 -0.2630  0.2060
 6826TIP3    H142037   1.093   3.558   8.567 -1.1632 -0.1633  0.2045
 6826TIP3    H242038   1.177   3.524   8.445  0.1192  0.5768  0.8559
 6827TIP3   OH242039   3.321   3.866   8.061 -0.1378  0.0956 -0.1296
 6827TIP3    H142040   3.252   3.930   8.078  0.0795  0.6668 -1.2849
 6827TIP3    H242041   3.280   3.781   8.076 -0.5742  0.4773  0.9280
 6828TIP3   OH242042   3.563   5.975   1.550 -0.5726 -0.3859 -0.2277
 6828TIP3    H142043   3.498   5.965   1.481 -1.2689 -1.0621  0.4964
 6828TIP3    H242044   3.627   5.906   1.534 -0.6077 -0.3903 -0.3441
 6829TIP3   OH242045   0.500   1.348   7.405  0.1803 -0.5356  0.2813
 6829TIP3    H142046   0.573   1.371   7.462  0.9559  0.4296 -1.0295
 6829TIP3    H242047   0.457   1.432   7.386  0.1620 -0.7786 -0.8173
 6830TIP3   OH242048   1.967   2.782   0.107 -0.4065 -0.1184  0.2003
 6830TIP3    H142049   1.908   2.729   0.161 -1.5305  1.5777  0.7085
 6830TIP3    H242050   1.919   2.797   0.026 -0.2541  0.4020  0.2002
 6831TIP3   OH242051   0.217   5.448   1.378  0.5294 -0.4984  0.6051
 6831TIP3    H142052   0.224   5.481   1.288 -0.1017 -2.4407 -0.2331
 6831TIP3    H242053   0.234   5.354   1.369 -1.5854 -1.1092  2.1875
 6832TIP3   OH242054   4.842   4.184   0.131 -0.1745 -0.8325  0.3893
 6832TIP3    H142055   4.815   4.181   0.223 -0.6635 -1.1372  0.2404
 6832TIP3    H242056   4.933   4.156   0.132  0.3085  0.6524  0.9564
 6833TIP3   OH242057   4.455   4.128   2.441 -0.0213  0.2410 -0.0170
 6833TIP3    H142058   4.482   4.132   2.349  0.7604  1.8957  0.2490
 6833TIP3    H242059   4.516   4.065   2.481  1.1722  1.2422 -0.1842
 6834TIP3   OH242060   1.273   1.929   1.641  0.1073  0.0258  0.0529
 6834TIP3    H142061   1.257   2.023   1.633 -1.5942 -0.3125 -1.2656
 6834TIP3    H242062   1.247   1.908   1.730 -0.4067  0.6703  0.0673
 6835TIP3   OH242063   1.152   2.428   7.294 -0.3426  0.5457 -0.0474
 6835TIP3    H142064   1.174   2.513   7.256  0.8523  0.4905  0.4723
 6835TIP3    H242065   1.093   2.449   7.366 -0.9806  0.8233 -0.6361
 6836TIP3   OH242066   5.719   0.588   8.744  0.2481  0.4362 -0.3461
 6836TIP3    H142067   5.717   0.569   8.838 -1.0881  1.2673 -0.1830
 6836TIP3    H242068   5.801   0.637   8.731  0.5392  0.1411  0.3460
 6837TIP3   OH242069   0.816   2.825   2.980  0.2807 -0.3396 -0.3302
 6837TIP3    H142070   0.813   2.824   2.884 -0.8632  0.2819 -0.3182
 6837TIP3    H242071   0.728   2.798   3.007  0.2032  0.7187  0.5320
 6838TIP3   OH242072   6.782   2.214   6.438  0.1460  0.2218 -0.1570
 6838TIP3    H142073   6.793   2.121   6.421 -0.6736  0.0836  0.0324
 6838TIP3    H242074   6.798   2.223   6.532  0.0032  0.2359 -0.1339
 6839TIP3   OH242075   5.031   5.817   1.722  0.0573 -0.0222  0.1878
 6839TIP3    H142076   5.062   5.854   1.640 -1.9231 -1.6561 -1.3751
 6839TIP3    H242077   4.979   5.887   1.762  1.4601  0.9610  0.3960
 6840TIP3   OH242078   5.944   1.098   0.137  0.1359  0.1162  0.1544
 6840TIP3    H142079   5.964   1.087   0.230  1.4285 -0.6618 -0.1815
 6840TIP3    H242080   5.990   1.179   0.113 -0.0440  0.2182  0.1568
 6841TIP3   OH242081   6.240   6.356   7.640 -0.0049  0.5268 -0.8612
 6841TIP3    H142082   6.292   6.403   7.705  0.3719 -0.4172 -0.4663
 6841TIP3    H242083   6.284   6.272   7.630 -0.6550  0.2592 -1.5750
 6842TIP3   OH242084   5.063   4.496   1.100  0.6198 -0.0127  0.2818
 6842TIP3    H142085   5.059   4.412   1.146  1.0547 -0.7712 -1.0145
 6842TIP3    H242086   4.975   4.510   1.066 -0.5086  1.9077  3.5291
 6843TIP3   OH242087   5.406   5.020   1.144  0.1607 -0.0578  0.2107
 6843TIP3    H142088   5.491   4.999   1.105  1.4597  1.4601  2.0333
 6843TIP3    H242089   5.427   5.047   1.234 -2.1156  1.5166  0.3494
 6844TIP3   OH242090   1.446   3.055   0.974 -0.2205 -0.2014 -0.2186
 6844TIP3    H142091   1.417   2.973   0.932  0.8821 -1.0951  0.6970
 6844TIP3    H242092   1.412   3.124   0.917  0.6447 -1.3307 -2.2088
 6845TIP3   OH242093   5.994   1.207   1.950  0.3717 -0.5989 -0.2846
 6845TIP3    H142094   6.045   1.248   1.880  0.2123 -1.4528 -0.9102
 6845TIP3    H242095   5.941   1.278   1.985  0.0264 -0.2758 -1.4242
 6846TIP3   OH242096   1.276   4.312   2.064  0.2010 -0.0225  0.2173
 6846TIP3    H142097   1.353   4.334   2.011 -0.5558 -2.0682 -1.9039
 6846TIP3    H242098   1.210   4.376   2.037  0.1307 -0.4211 -0.5877
 6847TIP3   OH242099   2.884   5.791   0.213  0.4294 -0.3365  0.6420
 6847TIP3    H142100   2.802   5.745   0.197 -0.0392 -0.1995  2.3722
 6847TIP3    H242101   2.948   5.747   0.157 -0.2029 -2.5016  1.5114
 6848TIP3   OH242102   4.420   1.392   0.649 -0.5196  0.2751  0.0358
 6848TIP3    H142103   4.342   1.417   0.699 -0.8811 -1.6073  0.5111
 6848TIP3    H242104   4.386   1.340   0.576  0.2950 -1.9510  1.1266
 6849TIP3   OH242105   2.227   6.529   8.190  0.5647  0.4383  0.5925
 6849TIP3    H142106   2.246   6.480   8.270 -1.8290 -0.7984  0.4724
 6849TIP3    H242107   2.171   6.601   8.219 -1.9058 -1.0978 -0.1300
 6850TIP3   OH242108   2.255   0.150   6.879 -0.1529 -0.2830 -0.2437
 6850TIP3    H142109   2.282   0.209   6.808 -0.5192  1.1907  0.7809
 6850TIP3    H242110   2.330   0.149   6.939 -0.8996  0.8522  0.7672
 6851TIP3   OH242111   1.639   1.912   0.720 -0.2999  0.8364  0.2298
 6851TIP3    H142112   1.675   1.971   0.785  1.4187 -0.1901  0.2730
 6851TIP3    H242113   1.713   1.858   0.692 -1.5465 -0.5181 -0.6434
 6852TIP3   OH242114   2.457   6.013   7.105  0.6476 -0.7204  0.2835
 6852TIP3    H142115   2.414   5.938   7.064 -1.0771 -0.1019  0.8587
 6852TIP3    H242116   2.398   6.087   7.089  1.1220  0.0276  1.7490
 6853TIP3   OH242117   5.944   5.089   8.425  0.3476  0.3132  0.1961
 6853TIP3    H142118   5.880   5.057   8.488  0.0702  0.1173 -0.1798
 6853TIP3    H242119   5.892   5.133   8.358  0.7994  3.2041  1.6024
 6854TIP3   OH242120   5.776   2.550   1.432 -0.2419 -0.0865  0.4318
 6854TIP3    H142121   5.813   2.629   1.392  1.6479 -2.5370 -3.3453
 6854TIP3    H242122   5.800   2.480   1.372 -3.5654 -3.3323  2.4455
 6855TIP3   OH242123   6.420   5.837   1.420  0.2415  0.2579  0.6576
 6855TIP3    H142124   6.344   5.824   1.364  0.0210 -1.9727  1.3867
 6855TIP3    H242125   6.491   5.790   1.376  0.8786  1.1788  0.6658
 6856TIP3   OH242126   4.160   1.844   1.313  0.4678 -0.2385 -0.0147
 6856TIP3    H142127   4.186   1.845   1.405 -0.5948  1.7962  0.3172
 6856TIP3    H242128   4.235   1.807   1.267  0.6303 -2.2801  1.7394
 6857TIP3   OH242129   4.937   0.039   0.825  0.4193  0.0753  0.0008
 6857TIP3    H142130   4.890  -0.034   0.867  0.1762 -0.0190 -0.4307
 6857TIP3    H242131   4.900   0.117   0.865  0.0583 -0.0078 -0.1638
 6858TIP3   OH242132   2.939   2.712   0.733  0.4380 -0.0714  0.1964
 6858TIP3    H142133   3.029   2.713   0.698  0.8410  0.0694  1.2170
 6858TIP3    H242134   2.918   2.618   0.740  0.1410 -0.1032 -0.9280
 6859TIP3   OH242135   0.425   4.938   7.055  0.0310 -0.4463 -0.2071
 6859TIP3    H142136   0.401   4.848   7.077 -0.0130  0.0554  1.9777
 6859TIP3    H242137   0.498   4.958   7.113  0.2103  0.8442 -0.8515
 6860TIP3   OH242138   5.624   3.917   8.355  0.0031 -0.1686  0.1077
 6860TIP3    H142139   5.655   3.918   8.446 -0.6063  1.6528  0.3301
 6860TIP3    H242140   5.534   3.884   8.361 -0.7081  1.6847  0.4616
 6861TIP3   OH242141   0.100   0.873   0.105 -0.0351 -0.1244 -0.0136
 6861TIP3    H142142   0.130   0.850   0.017  1.6018  0.9575  0.2098
 6861TIP3    H242143   0.158   0.826   0.164 -1.4217 -1.2168  0.5334
 6862TIP3   OH242144   4.672   1.044   2.265  0.0982  0.2276 -0.2780
 6862TIP3    H142145   4.658   0.959   2.306  0.5640  0.0048 -0.5642
 6862TIP3    H242146   4.681   1.105   2.338  0.9466 -0.1679 -0.0409
 6863TIP3   OH242147   2.366   1.467   8.307 -0.2564 -0.2743  0.4835
 6863TIP3    H142148   2.455   1.503   8.309 -0.1640 -0.3054 -1.5657
 6863TIP3    H242149   2.336   1.481   8.218 -2.2260 -0.5432  1.0573
 6864TIP3   OH242150   4.957   2.362   8.270  0.2069 -0.1127  1.1714
 6864TIP3    H142151   4.901   2.417   8.215 -1.0929 -3.0004 -0.6415
 6864TIP3    H242152   5.028   2.336   8.213  0.4623 -0.8219  1.7976
 6865TIP3   OH242153   2.604   1.168   0.400 -0.0222  0.4727 -0.0608
 6865TIP3    H142154   2.517   1.169   0.441 -0.7436 -2.1728 -1.2651
 6865TIP3    H242155   2.652   1.238   0.443 -2.1307  0.7349  2.0804
 6866TIP3   OH242156   1.729   6.240   8.694 -0.0148  0.3893 -0.6957
 6866TIP3    H142157   1.689   6.153   8.695 -1.7468  1.1439  0.8599
 6866TIP3    H242158   1.656   6.301   8.686  0.9025  1.7773  0.6527
 6867TIP3   OH242159   5.183   3.725   8.630 -0.4007 -0.1184 -0.6324
 6867TIP3    H142160   5.152   3.638   8.658 -2.1742  0.0395 -1.9328
 6867TIP3    H242161   5.124   3.749   8.558 -1.4488  3.1529  1.1302
 6868TIP3   OH242162   3.505   5.936   6.888 -0.6764 -0.7890  0.3177
 6868TIP3    H142163   3.501   5.840   6.889  0.6679 -0.9051 -1.2430
 6868TIP3    H242164   3.420   5.963   6.856 -0.4095 -1.5785 -1.1434
 6869TIP3   OH242165   0.016   5.234   8.657  0.4542  0.2578 -0.1073
 6869TIP3    H142166   0.033   5.224   8.563 -2.3802  2.4077 -0.9819
 6869TIP3    H242167  -0.013   5.147   8.685  0.4900 -0.2036 -1.4325
 6870TIP3   OH242168   3.204   0.098   2.791 -0.3127  0.3262 -0.5003
 6870TIP3    H142169   3.259   0.020   2.789 -2.6694 -1.3882 -1.0750
 6870TIP3    H242170   3.116   0.066   2.810 -1.3728  2.8444 -0.7708
 6871TIP3   OH242171   3.594   1.858   0.990  0.4065  0.2062  0.2462
 6871TIP3    H142172   3.654   1.899   1.052  0.9775  1.6973 -1.2304
 6871TIP3    H242173   3.643   1.855   0.908 -1.0534  0.1786 -0.6580
 6872TIP3   OH242174   1.262   0.090   0.751  0.2944 -0.1443 -0.2185
 6872TIP3    H142175   1.322   0.033   0.798  0.3816 -0.3950 -0.6256
 6872TIP3    H242176   1.197   0.031   0.713  0.5241 -0.0069 -0.8488
 6873TIP3   OH242177   3.159   4.514   6.783  0.3624  0.5588 -0.0482
 6873TIP3    H142178   3.097   4.441   6.783  2.3624 -1.2909  1.0579
 6873TIP3    H242179   3.106   4.592   6.798 -1.6259 -0.9860  1.5050
 6874TIP3   OH242180   5.319   1.459   7.457  0.6820  0.1972  0.6478
 6874TIP3    H142181   5.273   1.543   7.456  2.4463  1.2271  1.1292
 6874TIP3    H242182   5.284   1.411   7.382  2.4739  3.0130 -2.2334
 6875TIP3   OH242183   3.869   0.710   7.137 -0.1995 -0.2561  0.2070
 6875TIP3    H142184   3.889   0.774   7.205  1.5621  1.3992 -1.7138
 6875TIP3    H242185   3.940   0.647   7.142 -1.5570 -1.7545  1.6323
 6876TIP3   OH242186   1.416   6.308   7.641  0.6188  0.2222  0.0903
 6876TIP3    H142187   1.455   6.344   7.720  1.8013  0.8988 -0.7751
 6876TIP3    H242188   1.402   6.384   7.584  1.5722 -0.4516 -1.0909
 6877TIP3   OH242189   6.360   6.817   0.435 -0.3170  0.0821 -0.3085
 6877TIP3    H142190   6.425   6.869   0.482  1.7098 -1.1200 -1.6152
 6877TIP3    H242191   6.343   6.867   0.355 -0.3087 -0.0367 -0.3846
 6878TIP3   OH242192   6.606   4.043   1.651  0.0261 -0.0355 -0.1969
 6878TIP3    H142193   6.692   4.076   1.677 -0.3399  0.6542  0.1745
 6878TIP3    H242194   6.551   4.121   1.647 -0.5283 -0.4420 -0.6662
 6879TIP3   OH242195   3.970   6.422   7.612  0.1374 -0.0412  0.3607
 6879TIP3    H142196   3.938   6.509   7.588  1.3259  0.4384  0.4559
 6879TIP3    H242197   3.891   6.367   7.614 -0.4922  0.7815 -0.7724
 6880TIP3   OH242198   2.895   3.157   1.179  0.4904  0.1323  0.1081
 6880TIP3    H142199   2.824   3.216   1.204 -0.4329  0.0151 -1.9827
 6880TIP3    H242200   2.859   3.070   1.193  0.1850  0.0725 -0.9612
 6881TIP3   OH242201   5.598   2.364   7.551 -0.6521 -0.8564 -0.4027
 6881TIP3    H142202   5.546   2.437   7.517  0.1924 -0.0064  0.0799
 6881TIP3    H242203   5.582   2.293   7.489 -0.8087  0.0068 -1.3869
 6882TIP3   OH242204   6.730   1.642   0.135 -0.3104 -0.8938  0.2762
 6882TIP3    H142205   6.706   1.685   0.217 -0.0817  0.2878 -0.2648
 6882TIP3    H242206   6.726   1.548   0.155 -0.1782 -0.6182  1.6521
 6883TIP3   OH242207   2.770   4.298   8.596 -0.8581  0.1909 -0.0325
 6883TIP3    H142208   2.723   4.248   8.528 -3.8921  0.7951  1.4615
 6883TIP3    H242209   2.798   4.231   8.659 -2.4419  0.0298  0.5530
 6884TIP3   OH242210   3.244   2.046   0.473 -0.1400  0.4206  0.2807
 6884TIP3    H142211   3.204   2.106   0.535 -2.5747  0.1247 -0.9087
 6884TIP3    H242212   3.273   2.102   0.401 -2.4735  0.2795 -0.8606
 6885TIP3   OH242213   2.584   1.613   7.366 -0.1151 -0.2855  0.1972
 6885TIP3    H142214   2.605   1.533   7.319  0.3774 -0.3454  0.5148
 6885TIP3    H242215   2.586   1.682   7.299  0.8859 -0.3225  0.1691
 6886TIP3   OH242216   3.964   1.568   1.091  0.0276  0.0299  0.1142
 6886TIP3    H142217   3.927   1.524   1.168 -0.4241 -0.7863 -0.5534
 6886TIP3    H242218   4.053   1.534   1.085 -0.2708 -0.7132 -0.3117
 6887TIP3   OH242219   1.977   5.238   6.789  0.3786 -0.1376 -1.1330
 6887TIP3    H142220   1.887   5.206   6.787  0.1570  0.4874 -1.1396
 6887TIP3    H242221   1.988   5.286   6.707 -0.0123  1.7557 -0.1402
 6888TIP3   OH242222   4.098   1.036   2.092  0.2777 -0.2350  0.4004
 6888TIP3    H142223   4.021   1.065   2.043  0.4236 -1.4207 -0.5890
 6888TIP3    H242224   4.158   1.110   2.090 -1.0637  0.9704  1.7745
 6889TIP3   OH242225   6.038   0.798   2.177  0.2969  0.2157  0.0353
 6889TIP3    H142226   5.968   0.750   2.222  0.7587 -0.5444 -0.0287
 6889TIP3    H242227   6.023   0.780   2.084  0.5891  0.0238  0.0239
 6890TIP3   OH242228   5.349   1.338   0.042  0.3611  0.2660  0.6832
 6890TIP3    H142229   5.359   1.256  -0.007 -0.4392  1.6340 -1.9485
 6890TIP3    H242230   5.437   1.374   0.047  0.1179  2.0220 -3.5393
 6891TIP3   OH242231   3.046   0.803   1.203  0.0619 -0.0238 -0.2394
 6891TIP3    H142232   3.091   0.746   1.141 -0.2063 -1.1334  0.5665
 6891TIP3    H242233   3.029   0.748   1.280 -1.3977  0.7494  0.0403
 6892TIP3   OH242234   6.415   2.879   0.371 -0.4150 -0.2840  0.0752
 6892TIP3    H142235   6.416   2.968   0.405  1.3014  0.3613 -1.5166
 6892TIP3    H242236   6.485   2.835   0.418 -1.8719 -1.1484  1.5606
 6893TIP3   OH242237   5.970   6.629   8.686 -0.4859  0.3866 -0.2084
 6893TIP3    H142238   5.969   6.535   8.704 -0.0616  0.3480 -0.3879
 6893TIP3    H242239   5.908   6.666   8.749 -1.0868 -0.0775 -0.5101
 6894TIP3   OH242240   2.023   1.278   7.700 -0.5199 -0.1482 -0.2054
 6894TIP3    H142241   1.951   1.282   7.763 -0.6457  0.1359 -0.3630
 6894TIP3    H242242   1.999   1.343   7.633  0.8398  1.3730  0.7230
 6895TIP3   OH242243   1.178   6.772   1.744  0.4913 -0.1009  0.2543
 6895TIP3    H142244   1.264   6.759   1.704  0.9532  2.4506  0.1985
 6895TIP3    H242245   1.129   6.821   1.678 -0.6422 -0.5789  0.7244
 6896TIP3   OH242246   4.488   3.138   7.859 -0.5225  0.2374  0.2473
 6896TIP3    H142247   4.557   3.184   7.810 -2.2322  1.2858 -1.3031
 6896TIP3    H242248   4.469   3.061   7.805 -1.7069  0.8555 -0.2521
 6897TIP3   OH242249   4.597   1.703   2.457 -0.1684  0.2428 -0.8196
 6897TIP3    H142250   4.613   1.615   2.493 -0.7920 -0.2922 -1.8194
 6897TIP3    H242251   4.665   1.757   2.497 -0.2258 -0.5285  0.3952
 6898TIP3   OH242252   4.537   2.149   0.929 -0.4366  0.1372  0.3275
 6898TIP3    H142253   4.561   2.064   0.966  0.1512  0.6908  1.2489
 6898TIP3    H242254   4.444   2.158   0.950 -0.9975 -1.0995 -1.4439
 6899TIP3   OH242255   1.573   5.921   1.872  0.0559 -0.3985  0.3953
 6899TIP3    H142256   1.584   5.850   1.936  0.3552 -0.1124  0.6658
 6899TIP3    H242257   1.509   5.979   1.911  0.4316 -0.0890  0.5558
 6900TIP3   OH242258   2.630   3.239   1.279  0.3748  0.0524 -0.0841
 6900TIP3    H142259   2.549   3.201   1.313  1.1842 -1.7691 -0.0426
 6900TIP3    H242260   2.609   3.331   1.263 -1.1852  0.0377  1.5660
 6901TIP3   OH242261   6.771   3.482   7.471  0.6605  0.0199  0.2054
 6901TIP3    H142262   6.801   3.398   7.506 -0.8469 -0.7385 -0.2771
 6901TIP3    H242263   6.680   3.467   7.447  1.0008  1.1318 -2.0037
 6902TIP3   OH242264   0.304   2.698   8.509  0.0274  0.5572  0.2223
 6902TIP3    H142265   0.268   2.787   8.504 -0.2040  0.4245 -0.4485
 6902TIP3    H242266   0.399   2.712   8.516 -0.0330  0.8621  0.5250
 6903TIP3   OH242267   3.498   2.930   0.643  0.2157 -0.4947  0.5022
 6903TIP3    H142268   3.555   2.915   0.718 -1.3408 -5.9547  1.0300
 6903TIP3    H242269   3.554   2.914   0.567  0.4878 -0.8591  0.7760
 6904TIP3   OH242270   1.560   0.567   1.274 -0.2341  0.4299 -0.5298
 6904TIP3    H142271   1.573   0.623   1.198  0.0871  1.7058  0.4364
 6904TIP3    H242272   1.620   0.493   1.260  0.5604  1.1508 -1.0365
 6905TIP3   OH242273   3.564   4.132   1.344  0.2881 -0.0142  0.5464
 6905TIP3    H142274   3.502   4.192   1.385  0.2024 -0.6335  1.3377
 6905TIP3    H242275   3.585   4.174   1.260 -0.3649  0.7316  0.7385
 6906TIP3   OH242276   5.956   4.655   7.364  0.6689  0.0392  0.0624
 6906TIP3    H142277   5.973   4.737   7.319  1.7967 -0.5602 -0.6693
 6906TIP3    H242278   6.010   4.591   7.318 -2.6826 -1.8477 -1.6851
 6907TIP3   OH242279   4.051   4.622   0.431  0.4041  0.3485  0.0261
 6907TIP3    H142280   4.107   4.665   0.495 -1.0021  0.6945  1.0695
 6907TIP3    H242281   3.970   4.673   0.432 -0.4015 -0.8846 -0.4935
 6908TIP3   OH242282   3.139   3.419   8.427  0.1302  0.1895  0.0400
 6908TIP3    H142283   3.143   3.441   8.334 -0.5399  0.3344  0.0403
 6908TIP3    H242284   3.136   3.504   8.471  0.3196  0.1188  0.1885
 6909TIP3   OH242285   0.330   4.641   7.133 -0.2853  0.0025 -0.0227
 6909TIP3    H142286   0.265   4.620   7.067 -0.0955  2.1209 -0.9589
 6909TIP3    H242287   0.280   4.651   7.214 -1.2870  2.1316 -0.8276
 6910TIP3   OH242288   1.414   0.450   1.744  0.3749 -0.6024  0.0305
 6910TIP3    H142289   1.386   0.454   1.835 -2.8160 -0.0320 -0.8806
 6910TIP3    H242290   1.389   0.362   1.715  1.5195 -0.8409 -0.3074
 6911TIP3   OH242291   4.605   6.483   1.071 -0.5602  0.4719 -0.9496
 6911TIP3    H142292   4.610   6.473   1.166  0.9316  1.3147 -0.9123
 6911TIP3    H242293   4.561   6.567   1.058 -1.3408  0.0635 -1.0375
 6912TIP3   OH242294   3.491   3.490   0.859  0.3645 -0.4369  0.0618
 6912TIP3    H142295   3.570   3.537   0.832 -0.0918  0.2763 -0.0829
 6912TIP3    H242296   3.422   3.556   0.854 -0.0532 -0.7707  1.2330
 6913TIP3   OH242297   2.171   5.401   0.235 -0.4623 -0.3499  0.3816
 6913TIP3    H142298   2.087   5.447   0.233 -1.0245 -1.3727 -0.6242
 6913TIP3    H242299   2.225   5.447   0.171  0.7772  2.0487  2.9013
 6914TIP3   OH242300   0.005   4.002   8.414 -0.5390 -0.2721 -0.4627
 6914TIP3    H142301   0.055   3.920   8.408  0.7618  0.5673 -1.9446
 6914TIP3    H242302  -0.086   3.976   8.396 -0.4597 -1.6139  0.8274
 6915TIP3   OH242303   4.818   3.780   8.701 -0.1925 -0.5198  0.0527
 6915TIP3    H142304   4.866   3.766   8.620 -0.4119 -0.4343 -0.0941
 6915TIP3    H242305   4.752   3.711   8.702 -0.0962 -0.6107  0.2312
 6916TIP3   OH242306   0.877   3.116   0.573  0.4344 -0.0225 -0.0269
 6916TIP3    H142307   0.960   3.149   0.606  1.1169  1.5563 -2.9463
 6916TIP3    H242308   0.901   3.049   0.509 -0.7611 -2.0663  1.5223
 6917TIP3   OH242309   2.065   2.934   0.350 -0.6185 -0.2202 -0.7044
 6917TIP3    H142310   2.041   2.929   0.258  1.3765  1.0334 -1.3625
 6917TIP3    H242311   2.023   3.014   0.382  1.3536  1.2284 -1.4997
 6918TIP3   OH242312   6.725   3.216   1.373  0.3156 -1.0950 -0.3604
 6918TIP3    H142313   6.772   3.284   1.324 -0.3793 -0.4733 -0.1840
 6918TIP3    H242314   6.636   3.217   1.336 -0.1545 -0.7680  0.7429
 6919TIP3   OH242315   1.927   5.943   0.348 -0.2324  0.1593 -0.2683
 6919TIP3    H142316   1.871   6.000   0.402 -1.0957 -0.9353  0.0253
 6919TIP3    H242317   1.959   6.001   0.279  0.1698  1.3844  0.8897
 6920TIP3   OH242318   0.451   2.342   7.408  0.1138  0.3021  0.2423
 6920TIP3    H142319   0.369   2.334   7.359  0.3799 -1.6700  0.0133
 6920TIP3    H242320   0.424   2.358   7.499 -0.4393  1.8539 -0.1747
 6921TIP3   OH242321   6.429   3.017   2.335 -0.6113  0.1019  0.2363
 6921TIP3    H142322   6.517   3.054   2.325 -1.0617  0.9067 -1.1337
 6921TIP3    H242323   6.436   2.957   2.409  1.4200 -0.8578 -0.6560
 6922TIP3   OH242324   6.505   3.328   0.910 -0.1327  0.7217 -0.4718
 6922TIP3    H142325   6.601   3.327   0.910 -0.1106 -0.3474  0.9777
 6922TIP3    H242326   6.483   3.421   0.922  0.6931  1.0074 -0.9830
 6923TIP3   OH242327   1.580   3.910   0.177  0.2558 -0.4862  0.2769
 6923TIP3    H142328   1.657   3.939   0.227 -0.6850 -0.2538  1.6520
 6923TIP3    H242329   1.573   3.974   0.106  0.9429 -0.1224  0.5244
 6924TIP3   OH242330   4.118   4.736   1.713 -0.1171  0.1702 -0.1008
 6924TIP3    H142331   4.071   4.653   1.714 -2.7019  1.4522 -2.2428
 6924TIP3    H242332   4.165   4.736   1.629  1.9872 -0.1267  1.0143
 6925TIP3   OH242333   3.405   4.446   6.677 -0.5643  0.5457 -0.0763
 6925TIP3    H142334   3.329   4.477   6.727 -0.3736  1.2340 -0.1950
 6925TIP3    H242335   3.412   4.353   6.698 -1.2340  0.5556  0.2042
 6926TIP3   OH242336   1.858   6.440   7.854  0.2929  0.2906 -0.0998
 6926TIP3    H142337   1.888   6.415   7.941 -0.6732 -2.2769 -0.4205
 6926TIP3    H242338   1.786   6.380   7.835  0.1280  1.1294 -2.4502
 6927TIP3   OH242339   1.028   0.197   1.561  0.6919  0.0594  0.2395
 6927TIP3    H142340   1.073   0.246   1.491  1.3236  0.6786  1.0587
 6927TIP3    H242341   0.956   0.153   1.516  1.2945  0.1452 -0.8773
 6928TIP3   OH242342   4.547   2.461   8.058  0.1095 -0.4758 -0.3187
 6928TIP3    H142343   4.460   2.423   8.045  0.6312 -1.5387 -0.8667
 6928TIP3    H242344   4.601   2.387   8.087  0.7860  0.2140  0.2103
 6929TIP3   OH242345   6.130   2.034   8.591 -0.7027  0.1298 -0.5282
 6929TIP3    H142346   6.202   1.991   8.637 -1.1955 -0.6925 -0.4965
 6929TIP3    H242347   6.114   2.115   8.641  1.0147  0.9690 -1.2771
 6930TIP3   OH242348   1.417   1.819   2.154 -0.5753  0.8402 -0.1997
 6930TIP3    H142349   1.336   1.869   2.147 -0.6298  1.1752  2.0357
 6930TIP3    H242350   1.400   1.755   2.223  0.4083 -0.4640 -1.1199
 6931TIP3   OH242351   6.839   5.867   1.185  0.7447 -0.6480  0.2932
 6931TIP3    H142352   6.915   5.924   1.182  2.1080 -2.4165 -1.4109
 6931TIP3    H242353   6.826   5.849   1.278  0.8528  1.5992  0.7944
 6932TIP3   OH242354   0.293   3.450   0.059 -0.4592 -0.4666 -0.4317
 6932TIP3    H142355   0.313   3.382  -0.005 -0.9657  0.2017 -1.3238
 6932TIP3    H242356   0.247   3.404   0.129  0.2249 -1.2335 -0.4772
 6933TIP3   OH242357   4.447   6.269   0.484 -0.3003 -0.2182  0.6369
 6933TIP3    H142358   4.438   6.259   0.389 -0.9360  1.7512  0.4549
 6933TIP3    H242359   4.446   6.179   0.517  5.2501 -1.4851 -1.5763
 6934TIP3   OH242360   2.578   1.873   0.695 -0.4681 -0.4045 -0.2539
 6934TIP3    H142361   2.534   1.941   0.644 -0.5882 -0.3189 -0.0333
 6934TIP3    H242362   2.616   1.815   0.629  1.3628  0.9547 -0.4922
 6935TIP3   OH242363   1.797   1.506   7.192  0.4882  0.3650  0.6065
 6935TIP3    H142364   1.857   1.531   7.122  1.2432  0.7401  1.3735
 6935TIP3    H242365   1.748   1.585   7.212 -0.2651  0.0644 -0.0033
 6936TIP3   OH242366   2.229   3.870   0.336  0.1539  0.2344 -0.0623
 6936TIP3    H142367   2.154   3.812   0.351 -0.3721  1.1878  1.2058
 6936TIP3    H242368   2.233   3.879   0.241 -0.6600 -0.7080 -0.2067
 6937TIP3   OH242369   2.717   6.669   2.365  0.1432  0.0796 -0.3269
 6937TIP3    H142370   2.756   6.756   2.363  2.3106 -0.8494 -1.0840
 6937TIP3    H242371   2.778   6.616   2.416 -0.8596 -1.1241 -0.3273
 6938TIP3   OH242372   0.697   4.602   1.320 -0.1816  0.4468 -0.3559
 6938TIP3    H142373   0.645   4.630   1.395 -1.4178  0.6845 -1.2828
 6938TIP3    H242374   0.783   4.642   1.335 -0.6175  1.0724  0.5756
 6939TIP3   OH242375   3.955   4.686   7.935  0.6335 -0.6798  0.4677
 6939TIP3    H142376   4.043   4.717   7.912  0.6036 -1.0775 -0.2075
 6939TIP3    H242377   3.899   4.763   7.921  0.6050 -0.9155 -0.9125
 6940TIP3   OH242378   4.306   5.684   7.209  0.2557 -0.2644  0.0975
 6940TIP3    H142379   4.246   5.703   7.136  1.1709 -0.0690 -0.6280
 6940TIP3    H242380   4.376   5.748   7.199  0.9914 -1.0014  0.4537
 6941TIP3   OH242381   0.904   6.565   7.581  0.0289  0.2824 -0.2828
 6941TIP3    H142382   0.972   6.624   7.613 -1.2301  1.2997  0.6403
 6941TIP3    H242383   0.949   6.508   7.518  1.3303  2.1606 -1.1562
 6942TIP3   OH242384   4.064   3.289   1.645  0.1496 -0.4757 -0.0116
 6942TIP3    H142385   4.149   3.246   1.637  0.5581  0.3851 -0.4030
 6942TIP3    H242386   4.078   3.377   1.612 -0.9396 -0.3647 -0.2269
 6943TIP3   OH242387   4.285   0.070   2.519 -0.3035  0.1813 -0.5143
 6943TIP3    H142388   4.369   0.109   2.542  0.4999 -2.2728  1.0570
 6943TIP3    H242389   4.223   0.108   2.581  0.0704  0.4072 -0.2776
 6944TIP3   OH242390   1.545   1.223   0.862  0.3462 -0.0582  0.1737
 6944TIP3    H142391   1.623   1.243   0.809  0.6066  0.3905  0.7105
 6944TIP3    H242392   1.487   1.176   0.803  0.5834  0.5402 -0.5401
 6945TIP3   OH242393   1.856   3.085   8.003  0.0860  0.1310 -0.5051
 6945TIP3    H142394   1.833   3.101   7.912 -1.5476  0.3577 -0.0838
 6945TIP3    H242395   1.819   2.999   8.022  1.3657 -0.4052 -0.3448
 6946TIP3   OH242396   6.740   3.115   8.639 -0.0191  0.0773 -0.3422
 6946TIP3    H142397   6.667   3.158   8.594 -1.2366  1.4390  2.6582
 6946TIP3    H242398   6.816   3.171   8.620 -0.9821  1.9742  1.0322
 6947TIP3   OH242399   0.086   0.175   0.427  0.0693 -0.5729  0.6854
 6947TIP3    H142400   0.138   0.255   0.430  1.2082 -1.0623 -2.3271
 6947TIP3    H242401  -0.003   0.205   0.407  0.4608 -0.0128 -0.2833
 6948TIP3   OH242402   2.227   1.873   1.194  0.1949  0.6440  0.4569
 6948TIP3    H142403   2.192   1.886   1.282 -1.6641  0.0344 -0.1437
 6948TIP3    H242404   2.161   1.911   1.136  0.6758 -0.2681 -0.7363
 6949TIP3   OH242405   2.667   2.906   1.421  0.3675  0.2950  0.2694
 6949TIP3    H142406   2.696   2.868   1.504 -1.1459 -1.4632  0.0573
 6949TIP3    H242407   2.738   2.888   1.360 -0.2471 -2.2564  0.2071
 6950TIP3   OH242408   0.799   5.410   7.524  0.1797  0.5082  0.4869
 6950TIP3    H142409   0.724   5.413   7.465 -0.2300  1.6419  1.0417
 6950TIP3    H242410   0.761   5.415   7.612  0.8949  0.9376  0.7850
 6951TIP3   OH242411   3.157   4.667   1.423 -0.3027 -0.7187  0.5211
 6951TIP3    H142412   3.185   4.716   1.346 -0.5998 -1.8221 -0.3127
 6951TIP3    H242413   3.118   4.587   1.388  0.0461 -1.4984  1.8386
 6952TIP3   OH242414   4.876   6.168   7.729  0.1130 -0.6387 -0.7175
 6952TIP3    H142415   4.795   6.141   7.772 -0.5692 -0.6359 -1.9545
 6952TIP3    H242416   4.862   6.261   7.709  0.4276 -0.6356 -0.9271
 6953TIP3   OH242417   6.699   5.202   0.148 -0.0808  0.7222  0.0596
 6953TIP3    H142418   6.663   5.291   0.149 -2.2055 -0.0421 -1.2088
 6953TIP3    H242419   6.744   5.194   0.232  0.9392  3.2451 -0.1491
 6954TIP3   OH242420   1.645   0.748   0.395  0.0796  0.4794  0.2704
 6954TIP3    H142421   1.634   0.660   0.431 -1.2112  0.4929 -0.0473
 6954TIP3    H242422   1.683   0.734   0.308 -0.4288  0.2067  0.0887
 6955TIP3   OH242423   4.608   2.953   8.737  0.2744  0.1764  0.1534
 6955TIP3    H142424   4.684   2.960   8.795 -0.0837  0.0973  0.6359
 6955TIP3    H242425   4.536   2.929   8.795 -0.1592  0.4357 -0.2777
 6956TIP3   OH242426   5.391   5.618   0.095  0.1796  0.5476 -0.5966
 6956TIP3    H142427   5.384   5.674   0.018 -0.4156 -2.2501 -2.7421
 6956TIP3    H242428   5.368   5.531   0.063  0.0318 -0.7827  2.7558
 6957TIP3   OH242429   3.883   1.289   0.183 -0.0969  0.1479 -0.0292
 6957TIP3    H142430   3.890   1.384   0.190  0.7750  0.1891 -1.1314
 6957TIP3    H242431   3.878   1.272   0.088  0.2654 -0.9215  0.1279
 6958TIP3   OH242432   2.933   4.158   1.944 -0.2241 -0.0147 -0.3539
 6958TIP3    H142433   2.853   4.192   1.905 -2.0728 -1.8651  1.5193
 6958TIP3    H242434   2.977   4.112   1.873 -2.6880 -1.9755 -0.7742
 6959TIP3   OH242435   6.353   4.409   8.053  0.1053 -0.4134  0.4482
 6959TIP3    H142436   6.326   4.360   8.131 -0.2387 -1.9485 -0.6132
 6959TIP3    H242437   6.308   4.493   8.062 -0.6865 -0.9181  1.4219
 6960TIP3   OH242438   2.919   0.789   8.034  0.1484 -0.0626  0.0131
 6960TIP3    H142439   2.909   0.809   7.941  1.3137 -0.4982 -0.2288
 6960TIP3    H242440   3.010   0.812   8.054  0.6302 -2.1608  0.4561
 6961TIP3   OH242441   0.831   0.073   7.597  0.2132  0.4579 -0.3717
 6961TIP3    H142442   0.785  -0.008   7.578 -0.6303  0.2894  2.0438
 6961TIP3    H242443   0.850   0.111   7.511 -0.6469 -1.5632 -1.5138
 6962TIP3   OH242444   1.279   3.536   1.285  0.4960  0.2913  0.2819
 6962TIP3    H142445   1.197   3.582   1.300 -0.3137 -1.1626  0.4946
 6962TIP3    H242446   1.298   3.549   1.192 -1.0382 -0.9904 -0.2442
 6963TIP3   OH242447   6.568   3.750   2.714  0.0297 -0.1577  0.5515
 6963TIP3    H142448   6.644   3.752   2.656 -0.8889  0.8993 -0.6974
 6963TIP3    H242449   6.596   3.698   2.789  1.1519 -1.9846 -1.0221
 6964TIP3   OH242450   6.227   4.978   8.705  0.2177 -0.5810 -0.6275
 6964TIP3    H142451   6.244   5.063   8.666 -0.5230 -0.8902 -1.6508
 6964TIP3    H242452   6.311   4.953   8.745  0.7401  0.1349 -1.2557
 6965TIP3   OH242453   0.124   6.715   1.171 -0.1716  0.1808 -0.7366
 6965TIP3    H142454   0.040   6.704   1.126 -0.2150  0.8727 -0.8372
 6965TIP3    H242455   0.175   6.638   1.146 -1.5442 -1.4313  1.1124
 6966TIP3   OH242456   5.090   4.617   2.094  0.1313 -0.1054 -0.2275
 6966TIP3    H142457   5.039   4.630   2.173  0.7038 -0.1710  0.1621
 6966TIP3    H242458   5.092   4.703   2.052  1.7494  0.5200  1.0194
 6967TIP3   OH242459   5.891   3.935   0.270  0.0236  0.1741  0.1794
 6967TIP3    H142460   5.816   3.994   0.286 -0.4607 -0.2006 -0.6229
 6967TIP3    H242461   5.956   3.992   0.228 -0.8941 -0.0584 -1.7012
 6968TIP3   OH242462   6.309   3.778   6.508  0.0942  0.8393  0.2317
 6968TIP3    H142463   6.279   3.860   6.470  0.4551  0.8204 -0.1038
 6968TIP3    H242464   6.229   3.732   6.532 -0.2349  0.3088 -1.6685
 6969TIP3   OH242465   1.108   6.355   7.530 -0.0781 -0.3155  0.6986
 6969TIP3    H142466   1.199   6.377   7.512 -1.0951  1.6304 -3.1133
 6969TIP3    H242467   1.098   6.264   7.501  0.4960 -0.3514  0.6152
 6970TIP3   OH242468   4.160   4.130   1.350 -0.7017 -0.2936 -0.3523
 6970TIP3    H142469   4.192   4.215   1.319 -0.6644 -0.4781 -0.8251
 6970TIP3    H242470   4.165   4.073   1.274 -0.0310 -0.9207  0.1457
 6971TIP3   OH242471   2.950   6.588   8.606 -0.2445  0.4086  0.0592
 6971TIP3    H142472   2.932   6.600   8.700  0.2632 -0.8443  0.3447
 6971TIP3    H242473   2.968   6.676   8.574  1.1834  0.7156  1.5056
 6972TIP3   OH242474   4.495   6.122   2.477 -0.5153 -0.7713  0.0131
 6972TIP3    H142475   4.540   6.113   2.561 -1.2260  2.1393  0.8403
 6972TIP3    H242476   4.562   6.103   2.411  1.3134  1.0248  1.2358
 6973TIP3   OH242477   2.953   1.350   2.057  0.1878 -0.5063  0.3894
 6973TIP3    H142478   2.918   1.319   1.973  0.5432  0.4538 -0.1271
 6973TIP3    H242479   3.047   1.358   2.042  0.0043  1.7219  0.1881
 6974TIP3   OH242480   0.369   1.053   0.956 -0.3966 -0.0335  0.4794
 6974TIP3    H142481   0.382   0.979   0.896 -0.6448  0.3278 -0.0302
 6974TIP3    H242482   0.297   1.103   0.917 -0.6659  0.1244  1.1658
 6975TIP3   OH242483   3.198   6.048   0.175 -0.4923  0.7143  0.5017
 6975TIP3    H142484   3.133   6.063   0.244 -0.6374 -0.3221  0.6099
 6975TIP3    H242485   3.249   5.973   0.206 -0.9068 -0.1288 -0.7515
 6976TIP3   OH242486   4.804   0.265   8.551  0.0804 -0.6439  0.2480
 6976TIP3    H142487   4.791   0.171   8.560 -1.6261 -0.4935 -0.2284
 6976TIP3    H242488   4.723   0.297   8.511 -0.5269  1.4005  2.8412
 6977TIP3   OH242489   5.576   0.977   7.912  0.3838  0.0204  0.0359
 6977TIP3    H142490   5.504   0.961   7.852  0.5407 -0.8980  0.0729
 6977TIP3    H242491   5.633   0.900   7.903  0.1967 -0.3480  1.6423
 6978TIP3   OH242492   0.600   3.760   1.190 -0.3513  0.3446  0.2148
 6978TIP3    H142493   0.685   3.804   1.194  0.3367 -0.8506 -0.5129
 6978TIP3    H242494   0.583   3.732   1.280  0.3547  0.0074  0.2509
 6979TIP3   OH242495   0.420   2.188   7.679 -0.0627 -0.1906 -0.3088
 6979TIP3    H142496   0.456   2.112   7.725 -1.1460 -0.4947  0.0678
 6979TIP3    H242497   0.342   2.154   7.635  0.0542  0.4663 -1.0511
 6980TIP3   OH242498   6.282   5.978   6.488  0.5227 -0.4417  0.0161
 6980TIP3    H142499   6.287   5.965   6.582  3.0327 -0.3058 -0.0502
 6980TIP3    H242500   6.371   5.965   6.456 -0.2447 -0.4234 -2.3435
 6981TIP3   OH242501   3.557   6.489   8.176  0.2255 -1.0411  0.2454
 6981TIP3    H142502   3.469   6.508   8.144 -1.5585 -0.2196  4.9240
 6981TIP3    H242503   3.554   6.396   8.199  0.9591 -1.2486 -0.4448
 6982TIP3   OH242504   6.036   6.661   6.628 -0.4824  0.3281  0.3142
 6982TIP3    H142505   5.997   6.726   6.686  0.3685  0.9797  0.1767
 6982TIP3    H242506   6.129   6.660   6.652 -0.7959 -2.4818  1.8728
 6983TIP3   OH242507   3.402   6.253   0.649  0.2290  0.1831  0.0501
 6983TIP3    H142508   3.466   6.313   0.688 -0.1543  0.7506 -0.1803
 6983TIP3    H242509   3.429   6.248   0.557  0.7973 -0.7131  0.2530
 6984TIP3   OH242510   0.703   3.664   7.787  0.0514 -0.7337 -0.4282
 6984TIP3    H142511   0.636   3.675   7.721 -0.8620 -1.1755  0.4010
 6984TIP3    H242512   0.728   3.572   7.782  0.2330 -0.6878 -0.3916
 6985TIP3   OH242513   4.866   0.152   0.425 -0.2680 -0.5039  0.2411
 6985TIP3    H142514   4.839   0.201   0.503  0.5507  1.8860 -0.8650
 6985TIP3    H242515   4.954   0.120   0.445 -0.5316 -0.9593  0.7118
 6986TIP3   OH242516   2.636   5.324   0.330  0.2017 -0.0496  0.1582
 6986TIP3    H142517   2.660   5.256   0.391  0.6996  1.4245  1.6796
 6986TIP3    H242518   2.540   5.329   0.336  0.2617  0.1861  0.9334
 6987TIP3   OH242519   4.477   2.516   0.411 -0.1667  0.2746 -0.6440
 6987TIP3    H142520   4.482   2.422   0.425  0.0903 -0.0382 -2.5929
 6987TIP3    H242521   4.405   2.545   0.467  1.0723 -0.7097  1.5996
 6988TIP3   OH242522   1.323   6.248   7.311  0.1174 -0.2187 -0.1873
 6988TIP3    H142523   1.362   6.168   7.346 -0.7703  0.1681  1.8539
 6988TIP3    H242524   1.368   6.319   7.356 -1.0282  0.3166  0.1573
 6989TIP3   OH242525   4.316   4.200   8.752 -0.0914 -0.2119 -0.1843
 6989TIP3    H142526   4.297   4.291   8.773 -1.0916 -0.7014  1.2009
 6989TIP3    H242527   4.377   4.204   8.678  0.1483  1.5685  0.0727
 6990TIP3   OH242528   2.775   0.021   6.880  0.0720 -0.3630 -0.2737
 6990TIP3    H142529   2.870   0.009   6.878  0.1960  0.6279 -0.4743
 6990TIP3    H242530   2.761   0.110   6.851 -0.7051  0.6867  2.8859
 6991TIP3   OH242531   2.696   2.694   7.690  0.4017  0.2001 -0.2225
 6991TIP3    H142532   2.734   2.624   7.636 -2.0699 -1.5843  0.1754
 6991TIP3    H242533   2.691   2.770   7.631  0.1602 -0.9307 -1.7161
 6992TIP3   OH242534   1.766   5.910   7.445  0.4975 -0.0711 -0.2204
 6992TIP3    H142535   1.712   5.849   7.495  1.2550 -0.0346  0.6574
 6992TIP3    H242536   1.776   5.986   7.502 -0.8841  1.1370 -1.5075
 6993TIP3   OH242537   4.594   1.546   0.517  0.1425 -0.4976  0.1710
 6993TIP3    H142538   4.531   1.502   0.573  2.7398 -1.9895  2.1410
 6993TIP3    H242539   4.567   1.638   0.518  0.3187 -0.2895  4.4371
 6994TIP3   OH242540   6.424   0.331   1.337  0.1390  0.0632 -0.3423
 6994TIP3    H142541   6.411   0.411   1.286  1.6134  0.3116 -0.3689
 6994TIP3    H242542   6.370   0.265   1.292 -0.5794  0.8797 -0.6988
 6995TIP3   OH242543   4.876   1.794   2.263 -0.0557  0.2347 -0.1586
 6995TIP3    H142544   4.891   1.796   2.358 -1.9403  1.0002  0.1768
 6995TIP3    H242545   4.782   1.810   2.254  0.0254 -0.1956 -2.1553
 6996TIP3   OH242546   6.129   1.112   0.602  0.5158  0.0235 -0.4611
 6996TIP3    H142547   6.045   1.107   0.649  0.7010 -1.3230 -0.2476
 6996TIP3    H242548   6.161   1.022   0.601  2.4040  0.6514  0.2445
 6997TIP3   OH242549   6.473   1.922   0.664 -0.1406 -0.0465  0.1568
 6997TIP3    H142550   6.386   1.884   0.676 -0.6373  0.3419 -1.8553
 6997TIP3    H242551   6.531   1.866   0.716 -1.6112 -0.0996  1.8328
 6998TIP3   OH242552   3.097   1.098   7.852  0.0498 -0.5661 -0.5093
 6998TIP3    H142553   3.100   1.125   7.760  0.1758  2.0842  0.1750
 6998TIP3    H242554   3.184   1.064   7.871  0.0584 -1.0118 -1.3298
 6999TIP3   OH242555   0.709   2.092   1.004 -0.2634 -0.8246 -0.1309
 6999TIP3    H142556   0.628   2.041   1.007  0.5541 -2.3534 -1.8928
 6999TIP3    H242557   0.704   2.141   0.923  0.2491 -0.3405  0.1252
 7000TIP3   OH242558   6.570   0.604   0.281  0.0645  0.3093  0.1088
 7000TIP3    H142559   6.536   0.527   0.235 -0.1157  0.3395  0.1906
 7000TIP3    H242560   6.511   0.616   0.355  1.7538 -1.2215  1.8020
 7001TIP3   OH242561   0.192   5.163   0.999  0.0007 -0.6498  0.2107
 7001TIP3    H142562   0.263   5.165   1.064 -0.7946 -1.1514  1.1165
 7001TIP3    H242563   0.168   5.071   0.993  0.0605 -0.6101 -0.8219
 7002TIP3   OH242564   2.636   4.229   1.906  0.6198 -0.1797 -0.3228
 7002TIP3    H142565   2.572   4.289   1.868 -0.4447 -0.9863  0.1222
 7002TIP3    H242566   2.615   4.144   1.866  0.4223 -0.7561  0.9473
 7003TIP3   OH242567   3.601   1.617   8.671  0.3739  0.2110 -0.1755
 7003TIP3    H142568   3.639   1.548   8.616  0.5906 -0.0114  0.2495
 7003TIP3    H242569   3.509   1.619   8.647 -0.0078 -1.4100  1.0171
 7004TIP3   OH242570   2.053   2.105   1.838 -0.5395  0.2733  0.3702
 7004TIP3    H142571   2.087   2.143   1.918  0.3260 -0.1021  0.1916
 7004TIP3    H242572   1.973   2.060   1.865 -1.5578  2.1311  0.5930
 7005TIP3   OH242573   4.859   5.819   8.745 -0.1549 -0.5851 -0.8731
 7005TIP3    H142574   4.923   5.795   8.812 -0.5983  1.0030  0.1785
 7005TIP3    H242575   4.889   5.904   8.712 -1.7633  0.2995 -0.1968
 7006TIP3   OH242576   6.559   1.595   8.406  0.8657 -0.2779 -0.4719
 7006TIP3    H142577   6.552   1.526   8.340  1.5431 -0.2520 -0.5723
 7006TIP3    H242578   6.477   1.644   8.397  0.8804 -0.3675 -1.1846
 7007TIP3   OH242579   1.294   5.900   0.523 -0.0339  0.1993  0.1416
 7007TIP3    H142580   1.356   5.972   0.533 -1.7669  1.8460 -0.2566
 7007TIP3    H242581   1.246   5.898   0.605 -0.5178  0.0334 -0.1401
 7008TIP3   OH242582   2.840   2.892   1.212 -0.1416  0.1885 -0.2082
 7008TIP3    H142583   2.926   2.854   1.230 -0.7415 -1.0958  0.1209
 7008TIP3    H242584   2.834   2.894   1.117  0.2066  0.1718 -0.2306
 7009TIP3   OH242585   6.705   5.904   1.967  0.0047  0.0122  0.2065
 7009TIP3    H142586   6.692   5.999   1.957 -0.5931 -0.0259  0.5933
 7009TIP3    H242587   6.800   5.895   1.979  0.5370  0.2450 -3.0875
 7010TIP3   OH242588   1.751   1.217   6.320 -0.0846 -0.2126  0.2226
 7010TIP3    H142589   1.772   1.295   6.371 -0.6927 -1.6561  2.8775
 7010TIP3    H242590   1.656   1.209   6.326 -0.1018 -0.7605 -0.6190
 7011TIP3   OH242591   3.386   3.509   1.610  0.0693 -0.1596 -0.5896
 7011TIP3    H142592   3.385   3.520   1.515  0.7708 -0.2645 -0.6161
 7011TIP3    H242593   3.304   3.465   1.631  0.0608 -0.4320 -1.1878
 7012TIP3   OH242594   3.360   6.178   2.039 -0.2919  0.5298 -0.3127
 7012TIP3    H142595   3.405   6.249   1.993 -0.0761 -0.6975 -2.1304
 7012TIP3    H242596   3.291   6.151   1.978 -3.7309  2.3996  2.3740
 7013TIP3   OH242597   1.854   1.178   8.264 -0.2103 -0.0646  0.2736
 7013TIP3    H142598   1.762   1.158   8.244 -0.1717  0.4259 -0.4530
 7013TIP3    H242599   1.888   1.097   8.303 -0.5470 -0.7879 -0.8740
 7014TIP3   OH242600   1.497   1.550   6.544 -0.3216  0.2075 -0.1924
 7014TIP3    H142601   1.583   1.517   6.570 -0.5940 -0.8536 -0.5544
 7014TIP3    H242602   1.441   1.472   6.544 -1.5357  1.0236  1.0424
 7015TIP3   OH242603   4.136   1.774   0.152 -0.3724 -0.2134 -0.4172
 7015TIP3    H142604   4.145   1.684   0.183 -0.8067 -1.4019 -3.4113
 7015TIP3    H242605   4.046   1.781   0.121  0.0388  0.7795 -1.5086
 7016TIP3   OH242606   0.234   2.331   0.779 -0.0270 -0.3202  0.1361
 7016TIP3    H142607   0.307   2.371   0.732 -0.0500 -0.9986 -0.4961
 7016TIP3    H242608   0.159   2.342   0.720 -0.6186  1.0172  1.0874
 7017TIP3   OH242609   5.598   3.298   2.193 -0.3116  0.1500  0.7113
 7017TIP3    H142610   5.547   3.219   2.212  1.0765 -0.6786  1.1638
 7017TIP3    H242611   5.685   3.279   2.226  0.5190  1.2033 -0.7192
 7018TIP3   OH242612   1.146   4.980   0.845 -0.3214  0.2007  0.5708
 7018TIP3    H142613   1.195   5.050   0.801 -1.0657  0.1714 -0.3284
 7018TIP3    H242614   1.191   4.900   0.819 -1.4746  0.0708 -1.1929
 7019TIP3   OH242615   1.227   3.930   2.811  0.3100 -0.5035  0.1182
 7019TIP3    H142616   1.188   3.845   2.789 -0.3152  0.0784 -1.0681
 7019TIP3    H242617   1.154   3.982   2.843  0.8046 -0.5908  1.4439
 7020TIP3   OH242618   6.567   0.910   7.835  0.0166  0.5072 -0.3261
 7020TIP3    H142619   6.570   0.899   7.930 -1.8766 -1.0399 -0.3875
 7020TIP3    H242620   6.520   0.992   7.823 -0.3651  0.3589  0.0899
 7021TIP3   OH242621   0.510   6.257   2.026  0.1289  0.1138 -0.1236
 7021TIP3    H142622   0.482   6.261   2.117 -0.6245 -0.5282 -0.3165
 7021TIP3    H242623   0.489   6.344   1.991  0.0050  0.2126  0.1916
 7022TIP3   OH242624   2.155   3.473   8.369 -0.2190  0.4166  0.2660
 7022TIP3    H142625   2.223   3.538   8.382  0.5775 -0.2254 -0.5566
 7022TIP3    H242626   2.083   3.521   8.327  0.7425  0.5914 -1.2639
 7023TIP3   OH242627   5.966   3.423   7.446  0.0800 -0.3317  0.1575
 7023TIP3    H142628   5.913   3.372   7.384 -0.8390  0.1790  0.4997
 7023TIP3    H242629   6.040   3.366   7.467 -0.5960 -1.2726  0.0519
 7024TIP3   OH242630   3.815   5.312   7.505  0.1219 -0.0355  0.3486
 7024TIP3    H142631   3.817   5.404   7.532 -2.0541 -0.0834  0.8454
 7024TIP3    H242632   3.769   5.312   7.421  0.5150 -0.6323  0.1261
 7025TIP3   OH242633   2.271   4.897   0.003  0.3286  0.3881  0.9051
 7025TIP3    H142634   2.347   4.881  -0.053  0.6941  0.0422  1.4821
 7025TIP3    H242635   2.286   4.985   0.039  0.0236  0.6661  0.3561
 7026TIP3   OH242636   3.011   5.949   0.789 -0.0665 -0.2627  0.4965
 7026TIP3    H142637   2.963   5.934   0.708  0.4729 -0.0822  0.1353
 7026TIP3    H242638   2.963   5.900   0.856 -1.8265  1.4305  0.5313
 7027TIP3   OH242639   5.611   1.760   7.817 -0.1792  0.1636  1.0586
 7027TIP3    H142640   5.543   1.695   7.832 -1.6644  1.7065  1.2898
 7027TIP3    H242641   5.646   1.739   7.731 -3.0414  1.0605 -0.4610
 7028TIP3   OH242642   2.887   1.111   7.105  0.1386  0.3450  0.0846
 7028TIP3    H142643   2.937   1.177   7.153  1.4486 -0.6249  0.1450
 7028TIP3    H242644   2.918   1.028   7.141 -1.9582 -0.3187  0.5022
 7029TIP3   OH242645   0.975   6.550   7.880  0.8576 -0.1398  0.2519
 7029TIP3    H142646   1.049   6.499   7.914  0.7284  0.0567  0.8441
 7029TIP3    H242647   1.005   6.582   7.795  1.8036  0.6998  0.8814
 7030TIP3   OH242648   6.245   4.940   1.715  0.4526 -0.3909  0.4198
 7030TIP3    H142649   6.283   4.852   1.720  0.6705 -0.5188 -2.1757
 7030TIP3    H242650   6.163   4.933   1.765 -0.0314 -2.3928 -0.5328
 7031TIP3   OH242651   3.438   5.883   7.557 -0.3154 -0.2226 -0.8264
 7031TIP3    H142652   3.367   5.829   7.522 -0.9966 -0.2514  0.5334
 7031TIP3    H242653   3.512   5.822   7.566 -0.8960 -0.8111  0.1319
 7032TIP3   OH242654   3.149   3.818   1.955  0.0811 -0.0660  0.2541
 7032TIP3    H142655   3.152   3.723   1.972 -1.6973  0.0932  1.9098
 7032TIP3    H242656   3.070   3.830   1.903  0.5938  0.4694 -0.4075
 7033TIP3   OH242657   3.669   3.991   0.065  0.1307  0.3365  0.0402
 7033TIP3    H142658   3.665   3.937   0.144  0.6198  1.2808  0.7135
 7033TIP3    H242659   3.749   3.963   0.021  0.5910  0.7790  0.5894
 7034TIP3   OH242660   4.360   4.602   8.224 -0.0692 -0.3370  0.2667
 7034TIP3    H142661   4.293   4.635   8.285  0.3842 -1.4288  1.3916
 7034TIP3    H242662   4.311   4.543   8.166 -0.5059  0.7185 -0.4701
 7035TIP3   OH242663   3.986   4.943   8.313 -0.3370 -0.2434 -0.2527
 7035TIP3    H142664   4.022   4.998   8.242 -1.2897  2.2458  1.0695
 7035TIP3    H242665   3.892   4.953   8.305 -0.4517  1.7537  2.5004
 7036TIP3   OH242666   1.697   1.497   0.393  0.4641 -0.2969  0.7551
 7036TIP3    H142667   1.653   1.418   0.361  1.8604 -0.2364 -1.6336
 7036TIP3    H242668   1.779   1.465   0.429  0.8214 -0.0105  0.2167
 7037TIP3   OH242669   2.277   4.822   1.407  0.3979  0.0893  0.3912
 7037TIP3    H142670   2.312   4.736   1.382 -1.7775 -0.7084 -0.1545
 7037TIP3    H242671   2.345   4.884   1.381  2.0095 -1.4278  0.7280
 7038TIP3   OH242672   2.845   2.513   2.379  0.4322  0.2438  0.0368
 7038TIP3    H142673   2.807   2.600   2.379  2.1265  1.0170  0.1529
 7038TIP3    H242674   2.934   2.525   2.412  0.2932 -1.7263  1.3169
 7039TIP3   OH242675   0.287   5.916   8.583 -0.0293 -0.2688 -0.1681
 7039TIP3    H142676   0.290   5.822   8.565  1.9185 -0.0839 -1.0305
 7039TIP3    H242677   0.323   5.925   8.671 -1.4569 -0.4027  0.4660
 7040TIP3   OH242678   3.528   2.543   1.679 -0.1816 -0.0704 -0.3739
 7040TIP3    H142679   3.436   2.564   1.663 -0.0647  1.1842  0.4228
 7040TIP3    H242680   3.569   2.627   1.698  1.2862 -0.5164 -1.3426
 7041TIP3   OH242681   0.076   1.880   7.870 -0.2621 -0.7788  0.3015
 7041TIP3    H142682   0.160   1.858   7.830  0.1926  0.2536  0.6680
 7041TIP3    H242683   0.020   1.904   7.796  0.3631  0.4327  0.2019
 7042TIP3   OH242684   0.185   0.697   6.762 -0.1814  0.4371  0.2667
 7042TIP3    H142685   0.096   0.711   6.793  0.6689  2.1286  2.2563
 7042TIP3    H242686   0.191   0.748   6.681 -0.8195  0.9156  0.5116
 7043TIP3   OH242687   6.180   0.641   7.105  0.2174 -0.2451  0.1160
 7043TIP3    H142688   6.140   0.573   7.052  2.2898 -0.7486 -0.9115
 7043TIP3    H242689   6.245   0.596   7.158 -0.2477  0.5819  1.4435
 7044TIP3   OH242690   5.356   3.988   7.358  0.6233 -0.2489 -0.0765
 7044TIP3    H142691   5.420   3.918   7.367  2.4684  1.5643  2.3272
 7044TIP3    H242692   5.382   4.053   7.424 -3.5321  0.7760  0.8148
 7045TIP3   OH242693   5.013   4.129   0.550 -0.4069  0.6529  0.7890
 7045TIP3    H142694   5.054   4.188   0.487 -1.1341 -0.1069 -0.4488
 7045TIP3    H242695   5.057   4.147   0.633  0.7047  1.5653  0.0278
 7046TIP3   OH242696   5.336   6.362   8.561  0.2381 -0.1715 -0.2300
 7046TIP3    H142697   5.428   6.378   8.543  0.1207 -0.1718 -0.8786
 7046TIP3    H242698   5.289   6.429   8.511 -0.2023 -1.6475 -1.9204
 7047TIP3   OH242699   2.139   2.177   2.177 -0.1469 -0.1249 -0.2459
 7047TIP3    H142700   2.081   2.105   2.203  0.1765 -0.1150  0.5429
 7047TIP3    H242701   2.152   2.227   2.258  1.3931 -0.4410 -0.2673
 7048TIP3   OH242702   1.670   2.992   1.856  0.3044  0.2645  0.0815
 7048TIP3    H142703   1.651   2.900   1.838 -0.3325  0.2676  0.6739
 7048TIP3    H242704   1.755   3.008   1.815 -0.5615 -0.0012 -1.8899
 7049TIP3   OH242705   4.304   0.450   2.475  0.5152 -0.3543  0.4668
 7049TIP3    H142706   4.239   0.424   2.409  0.2364 -0.6474  0.8495
 7049TIP3    H242707   4.338   0.534   2.444  1.3034 -1.0840 -0.6957
 7050TIP3   OH242708   0.557   2.789   7.985 -0.3140  0.2578 -0.7296
 7050TIP3    H142709   0.524   2.746   7.905  0.9923 -0.0032 -1.1501
 7050TIP3    H242710   0.528   2.880   7.977 -2.3988 -0.3128 -0.2353
 7051TIP3   OH242711   1.904   4.576   7.165 -0.2474  0.6387 -0.6832
 7051TIP3    H142712   1.829   4.584   7.107 -1.4690 -1.5871  0.4726
 7051TIP3    H242713   1.937   4.487   7.150  2.4923  1.6709 -1.4527
 7052TIP3   OH242714   1.725   5.498   1.670 -0.2793  0.4131  0.2784
 7052TIP3    H142715   1.713   5.413   1.712  1.6843  0.5497  1.2285
 7052TIP3    H242716   1.638   5.537   1.669 -0.8783 -0.7998  1.6192
 7053TIP3   OH242717   2.258   4.024   7.741  0.2533 -0.0659 -0.6027
 7053TIP3    H142718   2.325   4.017   7.808  0.4587 -2.5336 -0.9651
 7053TIP3    H242719   2.237   4.118   7.737  2.0929  0.4764  1.0221
 7054TIP3   OH242720   0.501   0.721   0.400 -0.1612 -0.7561 -0.1960
 7054TIP3    H142721   0.553   0.765   0.467 -0.0677  0.1377 -0.8303
 7054TIP3    H242722   0.514   0.628   0.417 -0.9875 -0.5795  1.6627
 7055TIP3   OH242723   6.261   1.933   6.996 -0.2532  0.1008  0.0342
 7055TIP3    H142724   6.232   1.895   6.913 -0.2035 -0.6238  0.3409
 7055TIP3    H242725   6.345   1.890   7.013  0.2143  0.9725 -0.0284
 7056TIP3   OH242726   2.190   0.037   1.614 -0.1977  0.0274 -0.2647
 7056TIP3    H142727   2.095   0.032   1.608 -0.0912 -0.7631 -1.8654
 7056TIP3    H242728   2.217   0.078   1.532  0.8749 -0.2666 -0.0724
 7057TIP3   OH242729   1.811   0.001   2.547  0.4094 -0.0456 -0.5878
 7057TIP3    H142730   1.732  -0.041   2.513 -0.2661  0.0175  0.8088
 7057TIP3    H242731   1.861  -0.070   2.587  0.2787  0.1514 -0.0658
 7058TIP3   OH242732   0.025   4.776   1.673 -0.1463 -0.1737  0.3102
 7058TIP3    H142733   0.039   4.847   1.736 -0.2371 -0.2830  0.4514
 7058TIP3    H242734  -0.060   4.795   1.634 -0.5873 -0.6992  0.9924
 7059TIP3   OH242735   4.355   0.540   0.853  0.7992 -0.0279  0.0649
 7059TIP3    H142736   4.264   0.565   0.871  0.3589 -0.3590 -1.5679
 7059TIP3    H242737   4.397   0.621   0.826  1.6360  0.6121  2.9463
 7060TIP3   OH242738   3.812   2.854   7.821  0.3042 -0.0524 -0.0095
 7060TIP3    H142739   3.905   2.861   7.840  0.4470 -1.3289 -0.1214
 7060TIP3    H242740   3.808   2.814   7.734 -0.3527  0.9559 -0.4600
 7061TIP3   OH242741   1.347   0.749   2.323  0.4576 -0.3558 -0.3589
 7061TIP3    H142742   1.299   0.677   2.363  1.8368 -0.3558  1.4231
 7061TIP3    H242743   1.311   0.756   2.234 -1.4742 -1.5465  0.2734
 7062TIP3   OH242744   5.686   1.890   0.791 -0.2965 -0.4083  0.2972
 7062TIP3    H142745   5.725   1.862   0.874 -1.3499 -0.9824  0.6071
 7062TIP3    H242746   5.630   1.964   0.814 -2.0359 -1.7073  0.4327
 7063TIP3   OH242747   3.110   3.232   0.688  0.1937 -0.8544 -0.7762
 7063TIP3    H142748   3.177   3.167   0.710 -0.1855 -1.2462 -0.7737
 7063TIP3    H242749   3.027   3.187   0.704 -0.1059  0.2566  1.1656
 7064LIG     O142750   2.642   1.849   1.999 -0.5696 -0.3850  0.3973
 7064LIG     O242751   2.219   1.663   1.954  0.3271  0.2982  0.1108
 7064LIG     N142752   2.403   1.539   1.889 -0.1342  0.1933  0.0028
 7064LIG     N242753   2.755   1.603   1.854  0.3909  0.2803  0.2042
 7064LIG     N342754   2.430   1.760   1.978 -0.3700 -0.1788  0.0860
 7064LIG     N442755   2.609   1.437   1.793 -0.8676 -0.1231 -0.3016
 7064LIG     C142756   2.625   1.638   1.894 -0.1149 -0.5701  0.5444
 7064LIG     C242757   2.538   1.541   1.848 -0.6463  0.4006  0.2756
 7064LIG     C342758   2.572   1.756   1.963 -0.2830  0.1823  0.3261
 7064LIG     C442759   2.343   1.654   1.936  0.0151 -0.2607 -0.6366
 7064LIG     C542760   2.739   1.478   1.792  0.5801 -0.1963  0.4396
 7064LIG     C642761   2.319   1.426   1.852  0.3802 -0.3955  0.6533
 7064LIG     C742762   2.881   1.671   1.872 -0.1421 -0.0813  0.2515
 7064LIG     C842763   2.373   1.878   2.042 -0.6887  0.1841  0.4211
 7064LIG     H142764   2.823   1.425   1.747  0.2580 -1.0775  0.8562
 7064LIG     H242765   2.372   1.330   1.865  0.8228 -0.1013  1.0751
 7064LIG     H342766   2.263   1.436   1.757 -0.1079 -2.5172  0.6699
 7064LIG     H442767   2.236   1.417   1.925  0.3044 -1.5175  0.4322
 7064LIG     H542768   2.954   1.587   1.881 -2.2752 -2.0842 -0.1141
 7064LIG     H642769   2.891   1.747   1.953  2.2531 -0.3109  0.2501
 7064LIG     H742770   2.919   1.724   1.782  0.1663 -0.2112  0.3044
 7064LIG     H842771   2.280   1.905   1.986  1.0483  0.9010 -2.2958
 7064LIG     H942772   2.426   1.975   2.044  1.0746 -0.7505  0.3235
 7064LIG    H1042773   2.345   1.852   2.146 -1.3046  0.3816  0.3095
   6.84522   6.84522   8.76799
