Title
42773
    1SAPS     N    1   0.741   1.083   7.625  0.6499 -0.0440  0.5951
    1SAPS   HN1    2   0.815   1.023   7.585  0.1950  0.5867 -1.2599
    1SAPS   HN2    3   0.665   1.028   7.671  0.1736  0.6082  0.6027
    1SAPS   HN3    4   0.705   1.131   7.540  2.3018  0.6548  0.2614
    1SAPS   C12    5   0.797   1.182   7.723  0.4793  0.2934 -0.2399
    1SAPS  H12A    6   0.712   1.239   7.758  0.9533  0.6106  0.4314
    1SAPS   C13    7   0.867   1.124   7.854 -0.1458  0.6670 -0.9906
    1SAPS  O13A    8   0.884   0.996   7.865  0.3259  0.1311  0.2040
    1SAPS  O13B    9   0.866   1.198   7.958 -0.1290  0.1523 -0.2225
    1SAPS   C11   10   0.900   1.270   7.652 -0.0383 -0.4529  0.2181
    1SAPS  H11A   11   0.988   1.204   7.638  0.3064  0.2636 -1.1983
    1SAPS  H11B   12   0.926   1.350   7.724  1.5410 -1.6435  1.0392
    1SAPS     P   13   0.849   1.455   7.482 -0.1652 -0.1794  0.0688
    1SAPS   O13   14   0.762   1.538   7.570  0.1014  0.1077  0.0059
    1SAPS   O14   15   0.994   1.500   7.451 -0.0080  0.3535  0.0538
    1SAPS   O12   16   0.847   1.302   7.524 -0.1284  0.3175  0.1287
    1SAPS   O11   17   0.777   1.447   7.342 -0.1762 -0.2464 -0.6098
    1SAPS    C1   18   0.809   1.350   7.248 -0.3077  0.0054  0.3712
    1SAPS    HA   19   0.870   1.270   7.296  0.7175 -0.0579 -0.9781
    1SAPS    HB   20   0.713   1.308   7.212 -0.1269  0.9473 -1.3319
    1SAPS    C2   21   0.893   1.407   7.136  0.1932  0.2075  0.0520
    1SAPS    HS   22   0.971   1.463   7.191  1.3042 -0.3108 -0.9565
    1SAPS   O21   23   0.803   1.499   7.058 -0.3505  0.1661  0.3085
    1SAPS   C21   24   0.870   1.592   6.997 -0.0904  0.2742 -0.5922
    1SAPS   O22   25   0.982   1.631   7.029  0.3452  0.1259  1.0273
    1SAPS   C22   26   0.786   1.655   6.882 -0.0647  0.6872 -0.5615
    1SAPS   H2R   27   0.676   1.645   6.900 -0.8723  3.4640 -3.1512
    1SAPS   H2S   28   0.799   1.765   6.881 -1.6107  0.9014 -1.1162
    1SAPS    C3   29   0.952   1.296   7.052 -0.4916  0.7355  0.1850
    1SAPS    HX   30   0.875   1.227   7.010 -0.1311  0.5280 -0.1437
    1SAPS    HY   31   1.000   1.227   7.125 -0.2662  0.2054 -0.4514
    1SAPS   O31   32   1.026   1.341   6.943  0.2860 -0.3644  0.0272
    1SAPS   C31   33   1.154   1.366   6.971  0.1528  1.0837 -0.3943
    1SAPS   O32   34   1.215   1.333   7.069  0.2398  0.4983  0.2411
    1SAPS   C32   35   1.211   1.434   6.844 -0.1223  0.0330  0.5559
    1SAPS   H2X   36   1.188   1.542   6.854 -1.3310  0.0903 -2.1620
    1SAPS   H2Y   37   1.145   1.402   6.761  0.3935 -0.0351  0.1639
    1SAPS   C23   38   0.799   1.572   6.753 -0.4986  0.1983  0.1072
    1SAPS   H3R   39   0.713   1.587   6.684 -0.7219  2.6640  0.8409
    1SAPS   H3S   40   0.814   1.462   6.762 -0.3513  0.1820 -0.3008
    1SAPS   C24   41   0.922   1.619   6.662 -0.6945  0.2854  0.2330
    1SAPS   H4R   42   0.934   1.538   6.586 -0.0478  0.2313  0.3850
    1SAPS   H4S   43   1.008   1.620   6.732  0.3173  0.9263 -0.9786
    1SAPS   C25   44   0.906   1.754   6.593 -0.6907  0.1266 -0.3886
    1SAPS   H5R   45   0.874   1.833   6.663  0.3739  0.9397 -0.7889
    1SAPS   C26   46   0.928   1.781   6.459 -0.3314  0.5671 -0.5097
    1SAPS   H6R   47   0.907   1.883   6.425 -0.3053  0.3318 -1.2488
    1SAPS   C27   48   0.963   1.681   6.351  0.1506  0.5579 -0.3820
    1SAPS   H7R   49   1.041   1.613   6.391 -0.1699  0.1324 -0.4661
    1SAPS   H7S   50   1.006   1.741   6.268 -0.5941 -0.4314 -1.5106
    1SAPS   C28   51   0.851   1.596   6.300 -0.4352 -0.2576 -0.4943
    1SAPS   H8R   52   0.786   1.560   6.381  2.0778 -1.5530  1.0643
    1SAPS   C29   53   0.841   1.558   6.172 -0.5718 -0.3854 -0.2420
    1SAPS   H9R   54   0.761   1.487   6.148 -2.5714  1.7041 -0.1445
    1SAPS  C210   55   0.940   1.593   6.056  0.1485 -0.4071 -0.3118
    1SAPS  H10R   56   1.034   1.639   6.092 -0.6294 -0.5964  2.1054
    1SAPS  H10S   57   0.882   1.669   5.999  0.3751  0.6358  0.8043
    1SAPS  C211   58   0.987   1.471   5.976 -0.6287 -0.2929  0.4683
    1SAPS  H11R   59   1.002   1.383   6.041  0.8625 -0.6710 -0.3431
    1SAPS  C212   60   1.009   1.470   5.839  0.4398 -0.3055 -1.0075
    1SAPS  H12R   61   1.061   1.378   5.810  0.5794 -1.1994  1.7313
    1SAPS  C213   62   1.001   1.579   5.740 -0.3810 -0.6855  0.4517
    1SAPS  H13R   63   1.081   1.562   5.665  0.2514  0.0522  0.9480
    1SAPS  H13S   64   1.029   1.675   5.789 -0.5628 -0.0499 -0.6627
    1SAPS  C214   65   0.867   1.591   5.676 -0.5617  0.1089  0.6771
    1SAPS  H14R   66   0.787   1.654   5.718 -0.8666  0.0926  0.1348
    1SAPS  C215   67   0.827   1.523   5.564  0.2959 -0.1894  0.6166
    1SAPS  H15R   68   0.731   1.548   5.517 -0.0839 -3.5762 -0.7662
    1SAPS  C216   69   0.890   1.421   5.465  0.5287  0.3063  1.2069
    1SAPS  H16R   70   0.821   1.351   5.415  0.8888  0.7016  0.1183
    1SAPS  H16S   71   0.963   1.359   5.523  0.2037  0.9017  2.2849
    1SAPS  C217   72   0.973   1.503   5.359 -0.5661  0.3139  0.0367
    1SAPS  H17R   73   1.043   1.569   5.414  1.6168 -0.5819 -1.5122
    1SAPS  H17S   74   0.907   1.569   5.298 -1.4165  0.0981  0.7065
    1SAPS  C218   75   1.057   1.415   5.267  0.1366  0.1025  0.3270
    1SAPS  H18R   76   1.137   1.372   5.332  0.0232  0.6169  0.8052
    1SAPS  H18S   77   1.105   1.479   5.190 -2.9113  1.3569 -0.6735
    1SAPS  C219   78   0.987   1.298   5.196  0.4801  0.1370 -0.6891
    1SAPS  H19R   79   0.889   1.324   5.151  0.3326 -0.7304 -0.8886
    1SAPS  H19S   80   0.968   1.213   5.266 -2.2127 -0.0724 -1.5830
    1SAPS  C220   81   1.073   1.257   5.080 -0.7089  0.0976  0.6381
    1SAPS  H20R   82   1.022   1.183   5.015  0.7737  2.6101 -3.7500
    1SAPS  H20S   83   1.161   1.198   5.113 -1.0426 -0.5588  0.3931
    1SAPS  H20T   84   1.089   1.350   5.022  0.7171 -1.4139 -1.5327
    1SAPS   C33   85   1.355   1.410   6.804 -0.8813  0.2666  0.2508
    1SAPS   H3X   86   1.379   1.303   6.823  0.2952  0.4331 -0.2332
    1SAPS   H3Y   87   1.426   1.468   6.867  2.5125 -1.1996 -1.9565
    1SAPS   C34   88   1.390   1.448   6.661  0.3058 -0.0899 -0.0113
    1SAPS   H4X   89   1.497   1.469   6.642  0.1089  0.0391 -1.0596
    1SAPS   H4Y   90   1.357   1.553   6.644  1.8502  0.9095  2.6639
    1SAPS   C35   91   1.350   1.343   6.558 -0.5366 -1.1264 -0.4041
    1SAPS   H5X   92   1.246   1.326   6.593 -0.1609 -0.0034  1.3400
    1SAPS   H5Y   93   1.420   1.259   6.579  0.3266  0.0054  1.4601
    1SAPS   C36   94   1.354   1.392   6.413 -0.2307  0.6844  0.3176
    1SAPS   H6X   95   1.458   1.430   6.406  1.0398 -2.5159  0.1825
    1SAPS   H6Y   96   1.287   1.479   6.427  0.3500  0.9096  2.0119
    1SAPS   C37   97   1.312   1.287   6.311 -0.7918 -0.7278 -0.1208
    1SAPS   H7X   98   1.208   1.249   6.324 -1.1601  0.7387  1.8212
    1SAPS   H7Y   99   1.383   1.202   6.319 -0.1928 -0.4126 -1.7722
    1SAPS   C38  100   1.326   1.328   6.156  0.4279  0.1258  0.1602
    1SAPS   H8X  101   1.431   1.363   6.147  0.0274  1.1771 -0.6708
    1SAPS   H8Y  102   1.267   1.418   6.127  0.0473 -0.9669 -2.7715
    1SAPS   C39  103   1.302   1.210   6.061 -0.3088 -1.0235  0.3021
    1SAPS   H9X  104   1.200   1.167   6.069 -2.0658  2.7889  0.8791
    1SAPS   H9Y  105   1.371   1.126   6.078 -2.7824 -3.3392 -0.4092
    1SAPS  C310  106   1.317   1.257   5.921  0.3505  0.0619  0.3445
    1SAPS  H10X  107   1.426   1.276   5.905  0.1410 -0.3159 -1.7690
    1SAPS  H10Y  108   1.261   1.350   5.900 -1.2256 -1.2347 -1.4703
    1SAPS  C311  109   1.283   1.133   5.834  0.0385 -0.0269  0.1221
    1SAPS  H11X  110   1.188   1.087   5.866 -1.2536  0.6701 -2.4401
    1SAPS  H11Y  111   1.364   1.058   5.849  0.3230  0.2009 -0.2562
    1SAPS  C312  112   1.272   1.177   5.683  0.4011  0.3719  0.1420
    1SAPS  H12X  113   1.374   1.193   5.644  0.2403  0.4296 -0.2584
    1SAPS  H12Y  114   1.233   1.281   5.682 -1.7021 -0.3616 -1.2627
    1SAPS  C313  115   1.192   1.078   5.597  0.1608  0.2908 -0.3990
    1SAPS  H13X  116   1.231   0.975   5.584 -0.1006  0.2043 -0.5097
    1SAPS  H13Y  117   1.197   1.115   5.493 -1.2581  0.4072 -0.4459
    1SAPS  C314  118   1.043   1.077   5.641 -0.2559 -0.6170 -0.4142
    1SAPS  H14X  119   1.011   1.184   5.648 -1.1567 -0.8433 -1.0095
    1SAPS  H14Y  120   1.040   1.048   5.748 -0.2679 -0.2032 -0.3003
    1SAPS  C315  121   0.950   0.990   5.563 -0.4922 -0.7525 -0.4273
    1SAPS  H15X  122   0.981   0.887   5.535 -0.9333 -1.6354  2.0511
    1SAPS  H15Y  123   0.937   1.051   5.471  0.6490  2.0986  1.1772
    1SAPS  C316  124   0.816   0.974   5.625  1.3497 -0.1201  0.4624
    1SAPS  H16X  125   0.827   0.926   5.725  0.8034 -2.4353 -0.5123
    1SAPS  H16Y  126   0.764   0.902   5.558 -2.3615  2.5080  0.2745
    1SAPS  C317  127   0.736   1.108   5.627  0.2713  0.1647 -0.6098
    1SAPS  H17X  128   0.743   1.159   5.529  1.3737 -0.3275 -0.8114
    1SAPS  H17Y  129   0.790   1.177   5.695  0.6325 -0.2214 -0.4959
    1SAPS  C318  130   0.589   1.083   5.654 -0.4961  0.8464 -0.1105
    1SAPS  H18X  131   0.546   0.999   5.595  0.4862 -0.1149  0.5062
    1SAPS  H18Y  132   0.536   1.178   5.633  0.5490  1.3861 -0.4141
    1SAPS  H18Z  133   0.579   1.064   5.763  0.2865 -0.3062 -0.2153
    2SAPS     N  134   6.809   4.090   7.514 -0.1046 -0.2497 -0.4884
    2SAPS   HN1  135   6.877   4.045   7.449 -0.3666 -0.0505 -0.9056
    2SAPS   HN2  136   6.867   4.115   7.596  0.2927 -1.9804 -0.2061
    2SAPS   HN3  137   6.725   4.028   7.523 -0.2525 -0.6514 -3.4836
    2SAPS   C12  138   6.758   4.224   7.468  0.5291 -0.0337  0.4090
    2SAPS  H12A  139   6.692   4.212   7.383  1.2003 -2.8650  0.2010
    2SAPS   C13  140   6.668   4.298   7.570  0.7667  0.6019  0.1272
    2SAPS  O13A  141   6.626   4.248   7.675 -1.0951  0.2036 -0.0765
    2SAPS  O13B  142   6.627   4.416   7.543 -1.1727  0.2525 -0.0907
    2SAPS   C11  143   6.879   4.308   7.428  0.0214 -0.3402  0.4013
    2SAPS  H11A  144   6.841   4.399   7.375  1.4753 -1.2776 -2.4180
    2SAPS  H11B  145   6.940   4.251   7.355  0.2325  1.3964 -0.8424
    2SAPS     P  146   7.103   4.313   7.555  0.0467  0.1801  0.1917
    2SAPS   O13  147   7.153   4.390   7.668 -0.2405  0.3654 -0.8522
    2SAPS   O14  148   7.095   4.168   7.588 -0.0230  0.2774 -0.4289
    2SAPS   O12  149   6.955   4.351   7.542 -0.6981  1.0462 -0.1866
    2SAPS   O11  150   7.188   4.353   7.424  0.8032 -0.4840  0.4221
    2SAPS    C1  151   7.215   4.489   7.388  0.3287 -0.0879 -0.1128
    2SAPS    HA  152   7.130   4.557   7.412 -0.3032 -1.0071  0.3256
    2SAPS    HB  153   7.317   4.517   7.422  1.3941 -0.3338 -2.8792
    2SAPS    C2  154   7.221   4.510   7.228  0.0075  0.2717  0.2494
    2SAPS    HS  155   7.203   4.618   7.208 -1.6870 -0.3412 -1.9239
    2SAPS   O21  156   7.130   4.413   7.167 -0.1388 -0.0097 -0.1088
    2SAPS   C21  157   7.019   4.472   7.127  0.2290  0.1640 -0.0733
    2SAPS   O22  158   6.983   4.589   7.141 -0.0740  0.1236  0.4720
    2SAPS   C22  159   6.928   4.359   7.078  0.1072  0.2868 -0.9798
    2SAPS   H2R  160   6.989   4.267   7.089  2.0163  1.5916  0.1584
    2SAPS   H2S  161   6.852   4.361   7.158  1.9564  3.0300  0.9041
    2SAPS    C3  162   7.363   4.481   7.183  0.6122 -0.3257  0.6587
    2SAPS    HX  163   7.394   4.378   7.210 -0.2636 -1.4884 -2.4369
    2SAPS    HY  164   7.434   4.548   7.237 -1.5939  0.5999  2.6107
    2SAPS   O31  165   7.376   4.518   7.043 -0.2566  0.0463  0.0695
    2SAPS   C31  166   7.335   4.425   6.954 -0.3689  0.1792  0.1384
    2SAPS   O32  167   7.299   4.314   6.980  0.4462  0.6898  0.0929
    2SAPS   C32  168   7.359   4.477   6.814  0.3680  0.1564  0.0519
    2SAPS   H2X  169   7.342   4.396   6.739  1.0819 -0.3748  0.4515
    2SAPS   H2Y  170   7.468   4.494   6.807  0.2716  0.7409 -0.0459
    2SAPS   C23  171   6.845   4.371   6.945 -0.5898 -0.0899 -0.3370
    2SAPS   H3R  172   6.773   4.455   6.956 -0.2007  0.1613  0.3361
    2SAPS   H3S  173   6.790   4.274   6.951  0.4293 -0.6051  2.0964
    2SAPS   C24  174   6.936   4.376   6.819  0.2437  0.0731 -0.0485
    2SAPS   H4R  175   7.004   4.463   6.834 -0.1623  0.8435 -2.2747
    2SAPS   H4S  176   6.861   4.400   6.741 -0.7074 -0.5155  0.6752
    2SAPS   C25  177   7.011   4.249   6.792  0.1226  0.0061  0.5341
    2SAPS   H5R  178   7.082   4.207   6.865  3.2432  0.3617 -2.0601
    2SAPS   C26  179   7.003   4.190   6.671  0.3422  0.2807  0.1706
    2SAPS   H6R  180   7.048   4.091   6.657  0.7482  0.6667 -1.5391
    2SAPS   C27  181   6.906   4.236   6.563 -0.3675  0.0671 -0.4305
    2SAPS   H7R  182   6.936   4.338   6.529  0.3115  0.0628  0.1333
    2SAPS   H7S  183   6.804   4.245   6.606  0.0278  0.5123  0.4406
    2SAPS   C28  184   6.914   4.141   6.444  0.7053 -0.7631  0.7737
    2SAPS   H8R  185   6.871   4.041   6.461  1.0554 -1.2271 -0.8775
    2SAPS   C29  186   6.958   4.171   6.321  0.2891  0.3141 -0.0732
    2SAPS   H9R  187   6.952   4.092   6.245 -1.5931  1.6135 -1.3588
    2SAPS  C210  188   7.023   4.299   6.272  0.4672  0.2402  0.1401
    2SAPS  H10R  189   7.026   4.378   6.349  1.7916  0.1958  0.1581
    2SAPS  H10S  190   6.963   4.338   6.186  1.1112 -3.4749 -2.2409
    2SAPS  C211  191   7.161   4.280   6.234 -0.2105  0.4050  0.5498
    2SAPS  H11R  192   7.234   4.294   6.316 -2.6783  1.4184  2.7078
    2SAPS  C212  193   7.210   4.248   6.106 -0.5754 -0.5634 -0.7481
    2SAPS  H12R  194   7.317   4.226   6.097 -0.6317 -1.8788  1.0933
    2SAPS  C213  195   7.111   4.216   5.997  1.0819  0.4490 -0.2005
    2SAPS  H13R  196   7.134   4.278   5.908  1.8838 -0.3248 -0.5563
    2SAPS  H13S  197   7.005   4.220   6.029  0.8299 -2.9638 -0.1967
    2SAPS  C214  198   7.130   4.075   5.950  0.0860 -0.0205 -0.0399
    2SAPS  H14R  199   7.132   4.004   6.033 -0.2028 -0.1753 -0.1619
    2SAPS  C215  200   7.168   4.027   5.824  0.1089  0.1533 -1.1369
    2SAPS  H15R  201   7.173   3.918   5.815  0.4410  0.1627 -1.0674
    2SAPS  C216  202   7.189   4.108   5.698  0.4800  0.5728 -0.2223
    2SAPS  H16R  203   7.297   4.125   5.679  0.3426 -0.0958 -1.6524
    2SAPS  H16S  204   7.144   4.209   5.714 -3.4159 -1.0425  0.0507
    2SAPS  C217  205   7.131   4.050   5.572  0.4069  0.5498  0.5227
    2SAPS  H17R  206   7.020   4.041   5.578  0.2195  2.7423  1.4372
    2SAPS  H17S  207   7.176   3.951   5.550 -1.4788 -0.7140  2.0370
    2SAPS  C218  208   7.145   4.139   5.441  0.4291  0.7822 -0.2701
    2SAPS  H18R  209   7.184   4.235   5.480 -4.0814  2.3984  0.8790
    2SAPS  H18S  210   7.047   4.150   5.390  1.2049 -2.0859 -2.7168
    2SAPS  C219  211   7.247   4.094   5.333 -0.0629 -0.4004 -0.3984
    2SAPS  H19R  212   7.228   4.168   5.253  1.0409 -0.3992 -0.6637
    2SAPS  H19S  213   7.208   4.001   5.288 -0.3578  0.2754 -1.5711
    2SAPS  C220  214   7.384   4.096   5.388  0.0914 -0.3034 -0.0137
    2SAPS  H20R  215   7.393   4.039   5.482 -0.8684 -0.5317 -0.0508
    2SAPS  H20S  216   7.393   4.207   5.385 -3.2724  0.1443 -4.0544
    2SAPS  H20T  217   7.464   4.066   5.316  0.4569  1.6787 -0.4986
    2SAPS   C33  218   7.277   4.604   6.792  0.1876  0.3529 -0.3864
    2SAPS   H3X  219   7.290   4.675   6.876 -0.1476  1.9883 -1.6593
    2SAPS   H3Y  220   7.172   4.572   6.782  0.1623  0.4749 -0.5194
    2SAPS   C34  221   7.329   4.671   6.664  0.5158  0.4119  0.5615
    2SAPS   H4X  222   7.440   4.667   6.669  0.5225 -2.6295  0.2725
    2SAPS   H4Y  223   7.298   4.777   6.660  0.6206  0.4333  0.2692
    2SAPS   C35  224   7.291   4.612   6.528 -0.1808  0.1986  0.6022
    2SAPS   H5X  225   7.180   4.614   6.518 -0.1741  0.3115  0.5603
    2SAPS   H5Y  226   7.320   4.505   6.522 -2.3908 -0.3837 -1.3539
    2SAPS   C36  227   7.337   4.705   6.409  0.0838 -0.0404  0.1871
    2SAPS   H6X  228   7.444   4.727   6.427  0.1737  0.9439 -1.2915
    2SAPS   H6Y  229   7.263   4.787   6.399  0.1990  0.0157 -0.2438
    2SAPS   C37  230   7.307   4.631   6.275 -0.1318  0.5443 -0.1444
    2SAPS   H7X  231   7.201   4.609   6.248  0.2110 -0.0836 -1.0347
    2SAPS   H7Y  232   7.333   4.523   6.285  0.8456  0.7628 -0.2776
    2SAPS   C38  233   7.385   4.698   6.167 -0.3897 -0.0126 -0.1912
    2SAPS   H8X  234   7.486   4.708   6.212  0.3637  1.7185 -2.0905
    2SAPS   H8Y  235   7.350   4.801   6.145  1.0869  0.0946 -2.4138
    2SAPS   C39  236   7.395   4.632   6.027 -0.2515 -0.3859  0.2427
    2SAPS   H9X  237   7.292   4.617   5.988 -0.9117 -1.2262  2.1793
    2SAPS   H9Y  238   7.439   4.530   6.033  3.0480  0.9203  0.1478
    2SAPS  C310  239   7.483   4.707   5.927 -0.3809  0.8827  0.0543
    2SAPS  H10X  240   7.589   4.706   5.962  0.5667 -0.0861 -2.5486
    2SAPS  H10Y  241   7.460   4.816   5.925 -2.1061  0.5305  0.0233
    2SAPS  C311  242   7.473   4.659   5.773 -0.6051 -0.1009 -0.4695
    2SAPS  H11X  243   7.365   4.642   5.753 -0.7458 -0.2820  0.4363
    2SAPS  H11Y  244   7.520   4.559   5.764 -0.7917 -0.5493  2.5742
    2SAPS  C312  245   7.523   4.753   5.667  0.1089 -0.3093  0.3932
    2SAPS  H12X  246   7.628   4.778   5.691  0.2288 -0.3148 -0.1148
    2SAPS  H12Y  247   7.470   4.850   5.656 -0.7020 -0.6650  0.9946
    2SAPS  C313  248   7.534   4.705   5.524  0.2982 -0.1154 -0.8861
    2SAPS  H13X  249   7.583   4.606   5.512 -1.1836 -0.9364 -0.3230
    2SAPS  H13Y  250   7.584   4.783   5.463  0.8469 -0.1688 -0.5189
    2SAPS  C314  251   7.390   4.692   5.476 -0.2449 -0.1829  0.8325
    2SAPS  H14X  252   7.338   4.790   5.485 -0.2116  0.1511 -1.8323
    2SAPS  H14Y  253   7.332   4.627   5.545  1.2133 -1.2173  1.1119
    2SAPS  C315  254   7.385   4.644   5.334 -0.2963  0.6988 -0.2283
    2SAPS  H15X  255   7.434   4.545   5.333 -0.7993  0.4467 -0.3958
    2SAPS  H15Y  256   7.443   4.707   5.264  0.6116 -1.8660 -1.9339
    2SAPS  C316  257   7.238   4.654   5.293  0.4204 -0.0671  0.0968
    2SAPS  H16X  258   7.194   4.753   5.319  1.7856  0.3068  1.0689
    2SAPS  H16Y  259   7.181   4.580   5.354 -1.0155  1.0507  0.1811
    2SAPS  C317  260   7.223   4.619   5.146 -0.9999 -0.1377 -0.2967
    2SAPS  H17X  261   7.298   4.675   5.086 -0.8837  1.0290  0.9083
    2SAPS  H17Y  262   7.127   4.661   5.110 -1.1573  0.9252  1.2876
    2SAPS  C318  263   7.237   4.466   5.122  0.1699 -0.0051  0.8140
    2SAPS  H18X  264   7.324   4.409   5.162  1.3900  0.6570 -0.7782
    2SAPS  H18Y  265   7.233   4.445   5.013  1.7269  1.7567  0.3641
    2SAPS  H18Z  266   7.144   4.423   5.164  0.2369  0.0402  1.0063
    3SAPS     N  267   0.571   1.606   7.275 -0.3618 -0.4699 -0.2137
    3SAPS   HN1  268   0.624   1.694   7.265  1.0226 -1.2092  0.2938
    3SAPS   HN2  269   0.648   1.538   7.294  0.5897  1.0973  1.9662
    3SAPS   HN3  270   0.521   1.594   7.185 -2.9632 -1.6382  1.2735
    3SAPS   C12  271   0.489   1.622   7.395  0.4210  0.0934  0.0100
    3SAPS  H12A  272   0.561   1.639   7.474  0.3771  0.2666  0.0140
    3SAPS   C13  273   0.396   1.743   7.399 -0.5456  0.2145  0.0530
    3SAPS  O13A  274   0.402   1.831   7.309  0.1940  0.4338 -0.4347
    3SAPS  O13B  275   0.340   1.764   7.511  0.1070 -0.5069 -0.3994
    3SAPS   C11  276   0.415   1.488   7.419  0.2403 -0.3053  0.0946
    3SAPS  H11A  277   0.330   1.487   7.347  0.7638  0.9754 -0.5644
    3SAPS  H11B  278   0.366   1.486   7.518 -1.8434 -1.0893 -0.9061
    3SAPS     P  279   0.470   1.224   7.384  0.0506  0.0104  0.1318
    3SAPS   O13  280   0.574   1.135   7.432  0.5466 -0.0750  0.4194
    3SAPS   O14  281   0.334   1.199   7.426  0.0399 -0.4216  0.4134
    3SAPS   O12  282   0.507   1.375   7.409 -0.0735 -0.3129  0.7862
    3SAPS   O11  283   0.477   1.209   7.226 -0.6794 -0.4961 -0.0376
    3SAPS    C1  284   0.411   1.296   7.137 -1.3264  0.7059 -0.3016
    3SAPS    HA  285   0.305   1.282   7.167  0.1075 -0.7397  5.4138
    3SAPS    HB  286   0.429   1.403   7.162  1.7162 -0.0764  1.3617
    3SAPS    C2  287   0.433   1.256   6.994 -0.1375  0.1199  0.4111
    3SAPS    HS  288   0.344   1.286   6.935 -0.2742 -2.7209 -0.9933
    3SAPS   O21  289   0.448   1.110   6.975 -0.1235 -0.0300 -0.1858
    3SAPS   C21  290   0.337   1.044   6.991  0.5351  0.1243  0.1690
    3SAPS   O22  291   0.226   1.087   7.000  0.8770  0.5978 -0.0792
    3SAPS   C22  292   0.371   0.899   7.022 -0.3097  0.3443  0.0991
    3SAPS   H2R  293   0.477   0.893   7.057 -0.5338 -0.2740  0.7238
    3SAPS   H2S  294   0.312   0.860   7.108  0.0294 -0.4985 -0.0412
    3SAPS    C3  295   0.558   1.318   6.924  0.2081 -0.4048  0.3738
    3SAPS    HX  296   0.654   1.275   6.958 -0.7139 -0.9157  2.5553
    3SAPS    HY  297   0.569   1.426   6.948  0.2364 -0.5075  0.8419
    3SAPS   O31  298   0.566   1.290   6.782  0.0001  0.6337  0.0970
    3SAPS   C31  299   0.499   1.381   6.704  0.8520 -0.3109 -0.3757
    3SAPS   O32  300   0.416   1.457   6.745  0.1387  0.2119 -0.0826
    3SAPS   C32  301   0.546   1.366   6.565  0.0024  0.2653  0.5182
    3SAPS   H2X  302   0.560   1.260   6.536 -1.1291 -0.5144  2.6287
    3SAPS   H2Y  303   0.642   1.419   6.550 -1.6616  2.7106 -3.0989
    3SAPS   C23  304   0.362   0.802   6.901  0.8558  0.3569  0.3661
    3SAPS   H3R  305   0.253   0.794   6.879  0.4343 -1.5890  2.6974
    3SAPS   H3S  306   0.408   0.706   6.932 -2.4137 -1.8114 -0.9031
    3SAPS   C24  307   0.438   0.846   6.781 -1.0311 -0.1661  0.4756
    3SAPS   H4R  308   0.542   0.807   6.783 -1.4596 -1.4781 -1.0276
    3SAPS   H4S  309   0.452   0.956   6.775  1.1030 -0.2869  2.0503
    3SAPS   C25  310   0.383   0.792   6.649  0.3481  0.2894  0.6677
    3SAPS   H5R  311   0.359   0.685   6.646 -0.3864  0.4592 -1.5127
    3SAPS   C26  312   0.352   0.861   6.539 -0.0349  0.3225 -0.1750
    3SAPS   H6R  313   0.308   0.807   6.454  1.9982 -2.6809  0.4847
    3SAPS   C27  314   0.372   1.010   6.524 -0.8221 -0.8238  0.5461
    3SAPS   H7R  315   0.482   1.023   6.514 -1.0042  1.5595  1.0974
    3SAPS   H7S  316   0.343   1.072   6.611  0.8687 -0.5547  0.9392
    3SAPS   C28  317   0.298   1.070   6.403  0.1003 -0.7345 -0.4489
    3SAPS   H8R  318   0.193   1.083   6.432  0.4015  1.9895 -0.2887
    3SAPS   C29  319   0.346   1.101   6.279 -0.0695  0.4639  0.3235
    3SAPS   H9R  320   0.283   1.145   6.201  1.5847  1.6638 -0.4107
    3SAPS  C210  321   0.492   1.078   6.245  0.4197  0.3823  0.1088
    3SAPS  H10R  322   0.522   0.971   6.253  0.4613  0.4924  1.9161
    3SAPS  H10S  323   0.558   1.120   6.323  0.2943  0.7753  0.0074
    3SAPS  C211  324   0.527   1.141   6.109  0.1262 -0.3580 -0.5369
    3SAPS  H11R  325   0.441   1.196   6.068 -0.1039 -0.8543 -0.7221
    3SAPS  C212  326   0.652   1.152   6.062 -1.0357  0.2650  0.5370
    3SAPS  H12R  327   0.670   1.222   5.979 -1.9396  1.6278  1.4546
    3SAPS  C213  328   0.777   1.079   6.116 -0.4750  0.0157  0.4530
    3SAPS  H13R  329   0.815   0.998   6.050 -0.5791 -0.5248  1.0503
    3SAPS  H13S  330   0.739   1.019   6.201 -0.4828  3.4484  3.0900
    3SAPS  C214  331   0.894   1.163   6.160 -0.5768 -0.2948  0.4089
    3SAPS  H14R  332   0.966   1.177   6.077  0.6580 -2.6389  0.9874
    3SAPS  C215  333   0.921   1.223   6.276 -0.3055 -0.5991 -0.2209
    3SAPS  H15R  334   1.016   1.279   6.288 -0.0123 -1.0422 -0.4757
    3SAPS  C216  335   0.848   1.226   6.400 -0.1016  0.5095 -0.0977
    3SAPS  H16R  336   0.739   1.214   6.382 -0.0833 -0.7284  0.5220
    3SAPS  H16S  337   0.856   1.326   6.449  1.3907  0.9898 -1.2346
    3SAPS  C217  338   0.896   1.110   6.486 -0.2444  0.0735 -0.7102
    3SAPS  H17R  339   0.868   1.020   6.427  1.9935 -0.7233 -0.6368
    3SAPS  H17S  340   0.835   1.108   6.579 -0.1351  1.3186 -0.5994
    3SAPS  C218  341   1.041   1.122   6.538 -0.5340 -0.0601 -0.0258
    3SAPS  H18R  342   1.077   1.223   6.565  0.7602 -0.3874 -0.4400
    3SAPS  H18S  343   1.108   1.100   6.452 -0.0435  0.9830  0.0808
    3SAPS  C219  344   1.064   1.026   6.646 -0.0532 -0.1442 -0.3188
    3SAPS  H19R  345   0.998   1.043   6.734  0.6146  0.1725  0.1303
    3SAPS  H19S  346   1.050   0.926   6.600  1.9808 -0.6989  0.2003
    3SAPS  C220  347   1.206   1.026   6.707  0.0206 -0.2066 -0.4440
    3SAPS  H20R  348   1.226   0.932   6.764 -0.6239  0.3539  0.7267
    3SAPS  H20S  349   1.202   1.094   6.795  1.3424  0.1278 -0.6251
    3SAPS  H20T  350   1.291   1.056   6.643  0.4654  1.5799  0.9075
    3SAPS   C33  351   0.449   1.427   6.463 -0.0339  0.2033 -0.9642
    3SAPS   H3X  352   0.395   1.515   6.502  1.5077  0.1699  1.4842
    3SAPS   H3Y  353   0.372   1.347   6.455 -0.0928  0.1708 -0.1901
    3SAPS   C34  354   0.517   1.461   6.330 -0.1007 -0.0990 -0.6338
    3SAPS   H4X  355   0.601   1.396   6.297  0.4690  0.4773 -0.3566
    3SAPS   H4Y  356   0.571   1.559   6.331  0.8954 -0.6319 -0.8419
    3SAPS   C35  357   0.419   1.455   6.208 -0.4651  0.1152  0.4134
    3SAPS   H5X  358   0.374   1.354   6.211  1.3445 -0.7680 -0.3112
    3SAPS   H5Y  359   0.342   1.533   6.224 -3.3234 -1.7730 -2.8055
    3SAPS   C36  360   0.473   1.482   6.063 -0.6624  0.1085 -0.2748
    3SAPS   H6X  361   0.545   1.402   6.035  1.9723  1.0165  3.2994
    3SAPS   H6Y  362   0.532   1.576   6.061 -0.8009  0.2400  1.0059
    3SAPS   C37  363   0.360   1.483   5.961  0.2047 -0.1212  0.0683
    3SAPS   H7X  364   0.324   1.588   5.956 -1.0141 -0.5218  0.1567
    3SAPS   H7Y  365   0.279   1.422   6.006 -1.2190  2.6236  1.4973
    3SAPS   C38  366   0.393   1.440   5.821 -0.0194  0.1532  0.4897
    3SAPS   H8X  367   0.423   1.333   5.822 -0.9062 -0.1195  2.4957
    3SAPS   H8Y  368   0.480   1.495   5.778  2.0362 -1.5904  2.1851
    3SAPS   C39  369   0.272   1.457   5.727  0.8424  0.4160  1.1020
    3SAPS   H9X  370   0.250   1.565   5.742 -0.4594  0.1770  1.0303
    3SAPS   H9Y  371   0.181   1.399   5.751  0.0960  0.7193 -0.7714
    3SAPS  C310  372   0.304   1.419   5.581  0.2648  0.1268 -0.0334
    3SAPS  H10X  373   0.366   1.327   5.578  0.7492  0.3857  1.3678
    3SAPS  H10Y  374   0.370   1.504   5.552 -0.3454  1.0514  1.2239
    3SAPS  C311  375   0.184   1.425   5.477  0.3768 -0.1828 -0.8932
    3SAPS  H11X  376   0.126   1.514   5.507 -0.0298 -1.2660  1.8927
    3SAPS  H11Y  377   0.129   1.334   5.511  0.7975 -1.4162 -3.3150
    3SAPS  C312  378   0.209   1.428   5.329 -0.0520  0.0800  0.9460
    3SAPS  H12X  379   0.254   1.328   5.311  0.6985 -0.5528  5.3147
    3SAPS  H12Y  380   0.269   1.508   5.281  0.3454 -2.6974 -3.8762
    3SAPS  C313  381   0.074   1.424   5.255  0.4528 -0.2188 -0.0777
    3SAPS  H13X  382   0.036   1.527   5.272  1.8090  0.6831 -2.1282
    3SAPS  H13Y  383   0.008   1.352   5.309  0.8427  0.8166  1.8298
    3SAPS  C314  384   0.073   1.400   5.106 -0.0350  0.3491  0.7715
    3SAPS  H14X  385   0.138   1.473   5.052  0.0211 -0.6201 -0.5041
    3SAPS  H14Y  386  -0.030   1.416   5.066 -1.3372  0.6502  3.9433
    3SAPS  C315  387   0.101   1.250   5.069 -1.8277  0.1531 -0.0257
    3SAPS  H15X  388   0.072   1.190   5.158 -2.1212  0.5834  0.1717
    3SAPS  H15Y  389   0.209   1.245   5.045 -1.4339  3.1363  0.7281
    3SAPS  C316  390   0.019   1.202   4.946  0.2900 -0.3294 -0.4437
    3SAPS  H16X  391  -0.087   1.233   4.960  0.5716  0.2897  0.3046
    3SAPS  H16Y  392   0.022   1.091   4.949  1.3631 -0.2873  2.4309
    3SAPS  C317  393   0.070   1.242   4.809 -0.6612 -0.2901  0.2347
    3SAPS  H17X  394   0.171   1.199   4.794 -0.0970  1.2935 -0.7751
    3SAPS  H17Y  395   0.082   1.353   4.802  0.1966 -0.3666  0.3794
    3SAPS  C318  396  -0.013   1.211   4.687  0.3391  0.5930  0.4792
    3SAPS  H18X  397  -0.118   1.226   4.719  0.1881  2.5154 -0.7505
    3SAPS  H18Y  398   0.002   1.102   4.669  1.1614  0.8424 -0.4510
    3SAPS  H18Z  399   0.010   1.274   4.598 -1.6738  0.8056  0.0664
    4SAPS     N  400   0.624   6.648   7.751  0.1264  0.2065 -0.5513
    4SAPS   HN1  401   0.685   6.687   7.677 -0.9712 -0.0564 -1.6191
    4SAPS   HN2  402   0.524   6.674   7.738  0.8295  3.3697 -0.4580
    4SAPS   HN3  403   0.647   6.685   7.846 -0.6568  0.5592 -0.4891
    4SAPS   C12  404   0.636   6.498   7.758  0.7107  0.1521  0.4952
    4SAPS  H12A  405   0.667   6.466   7.856  1.7490  4.3582  1.7453
    4SAPS   C13  406   0.503   6.426   7.727 -0.5353  0.1101  0.1482
    4SAPS  O13A  407   0.399   6.495   7.765 -0.2263 -0.2239  0.2131
    4SAPS  O13B  408   0.503   6.298   7.726  0.9388  0.2412  0.2319
    4SAPS   C11  409   0.735   6.453   7.647 -0.2930  0.1942  0.1284
    4SAPS  H11A  410   0.708   6.462   7.540  4.0336 -0.6961 -1.2236
    4SAPS  H11B  411   0.741   6.344   7.670 -0.6738  0.1630  0.0910
    4SAPS     P  412   0.930   6.627   7.610 -0.3591  0.0558  0.2258
    4SAPS   O13  413   0.843   6.738   7.652  0.1972 -0.5823  0.2420
    4SAPS   O14  414   1.075   6.644   7.652 -0.7034  0.7969 -0.6307
    4SAPS   O12  415   0.871   6.499   7.666  0.1264 -0.3401  0.6796
    4SAPS   O11  416   0.934   6.601   7.456 -0.0171 -0.1036 -0.0009
    4SAPS    C1  417   0.963   6.467   7.418 -0.4081  0.5968 -0.1694
    4SAPS    HA  418   1.052   6.425   7.468 -0.5658 -0.6164 -0.8688
    4SAPS    HB  419   0.870   6.407   7.428  0.4545 -0.7131  0.2450
    4SAPS    C2  420   0.989   6.475   7.268  0.3130 -0.4755  0.5420
    4SAPS    HS  421   0.896   6.511   7.221 -0.4069 -3.3721 -0.4522
    4SAPS   O21  422   1.013   6.345   7.212 -0.4396 -0.7079  0.2745
    4SAPS   C21  423   0.913   6.251   7.219 -0.5510  0.0916 -0.2133
    4SAPS   O22  424   0.813   6.261   7.284 -0.7138  0.5420  0.5958
    4SAPS   C22  425   0.953   6.137   7.121  0.1999  0.4955 -0.2452
    4SAPS   H2R  426   1.051   6.163   7.074  0.1811 -0.4193 -0.8051
    4SAPS   H2S  427   0.966   6.046   7.183  1.1271  0.6505 -0.1934
    4SAPS    C3  428   1.098   6.573   7.219  0.2829 -0.0316 -0.1326
    4SAPS    HX  429   1.180   6.574   7.294  1.2435 -0.3158 -1.1668
    4SAPS    HY  430   1.057   6.675   7.230 -1.5353 -0.5287 -1.6999
    4SAPS   O31  431   1.153   6.539   7.086 -0.3732 -0.0075 -0.2103
    4SAPS   C31  432   1.102   6.605   6.987  0.3857  0.7082  0.2894
    4SAPS   O32  433   1.004   6.677   6.999 -0.3945 -0.3979 -0.0462
    4SAPS   C32  434   1.171   6.562   6.860 -0.2014  0.3314 -0.7048
    4SAPS   H2X  435   1.159   6.453   6.840 -0.2242  0.4608 -1.4123
    4SAPS   H2Y  436   1.277   6.587   6.878 -0.1214 -0.4371 -0.0260
    4SAPS   C23  437   0.840   6.107   7.012  0.4765  0.5969 -0.4358
    4SAPS   H3R  438   0.740   6.118   7.059  1.6162  0.5002  2.1872
    4SAPS   H3S  439   0.838   6.002   6.974 -0.1033 -0.1607  1.5663
    4SAPS   C24  440   0.843   6.205   6.894 -0.6326 -0.2751 -0.2080
    4SAPS   H4R  441   0.819   6.308   6.929  1.4477  1.5675 -3.6941
    4SAPS   H4S  442   0.765   6.169   6.823 -0.1806 -1.0120 -0.3393
    4SAPS   C25  443   0.972   6.213   6.827  0.0364 -0.0981 -0.3276
    4SAPS   H5R  444   1.059   6.241   6.889 -0.9140  2.8053 -0.1404
    4SAPS   C26  445   1.009   6.179   6.700  0.1148 -0.1011 -0.1802
    4SAPS   H6R  446   1.113   6.182   6.663 -0.8510  0.3848 -3.0865
    4SAPS   C27  447   0.914   6.149   6.584  0.3558 -0.6893  0.2203
    4SAPS   H7R  448   0.831   6.222   6.593 -1.1549 -1.7678 -3.0986
    4SAPS   H7S  449   0.881   6.043   6.590 -2.1089  0.0021 -0.0041
    4SAPS   C28  450   0.970   6.171   6.442  0.1204 -0.3970 -0.1733
    4SAPS   H8R  451   1.075   6.205   6.439 -1.1526  4.0757 -2.5964
    4SAPS   C29  452   0.908   6.121   6.331  0.1674 -0.5433  0.4199
    4SAPS   H9R  453   0.960   6.150   6.239  2.5722  0.4503  1.9999
    4SAPS  C210  454   0.764   6.065   6.322  0.3888 -0.3000  0.9961
    4SAPS  H10R  455   0.716   6.057   6.422 -1.0786 -2.3986  0.1834
    4SAPS  H10S  456   0.765   5.962   6.280 -0.3545  0.8440 -2.0640
    4SAPS  C211  457   0.677   6.144   6.214  0.1325  0.0416 -0.7770
    4SAPS  H11R  458   0.591   6.193   6.262  1.2258  0.7620  0.5136
    4SAPS  C212  459   0.683   6.142   6.078  0.7719 -0.6153  0.7265
    4SAPS  H12R  460   0.614   6.206   6.020 -0.4261 -1.0477  1.6261
    4SAPS  C213  461   0.785   6.075   5.988  0.2719  0.4065  0.2296
    4SAPS  H13R  462   0.856   6.020   6.053  0.2433 -1.2061 -1.0612
    4SAPS  H13S  463   0.854   6.155   5.952 -0.6653 -0.0656 -2.8927
    4SAPS  C214  464   0.734   5.982   5.882 -0.7442 -0.8579  0.4441
    4SAPS  H14R  465   0.639   6.022   5.842  0.2281  3.4297  1.9330
    4SAPS  C215  466   0.788   5.872   5.829 -0.8481 -0.0219  0.1265
    4SAPS  H15R  467   0.721   5.822   5.758  1.3079  0.9958 -2.8155
    4SAPS  C216  468   0.932   5.810   5.849 -0.0666 -0.2636  0.9529
    4SAPS  H16R  469   0.926   5.729   5.925  0.3882 -3.2925 -1.9895
    4SAPS  H16S  470   1.003   5.875   5.904  2.2097 -1.4641 -0.4221
    4SAPS  C217  471   0.998   5.764   5.724 -0.7500 -0.0547  0.2536
    4SAPS  H17R  472   1.104   5.732   5.737 -0.4258  0.8302 -0.1271
    4SAPS  H17S  473   1.009   5.850   5.655  1.5340  0.5588  1.2686
    4SAPS  C218  474   0.922   5.653   5.650  0.4376 -1.2307 -0.2190
    4SAPS  H18R  475   0.842   5.691   5.584 -0.0751 -3.0173 -0.6865
    4SAPS  H18S  476   0.873   5.584   5.722  0.5758 -0.6914  0.4057
    4SAPS  C219  477   1.015   5.557   5.565 -0.3721  0.3699  0.1690
    4SAPS  H19R  478   0.955   5.480   5.513  0.1696  0.8816 -1.2698
    4SAPS  H19S  479   1.080   5.505   5.639 -1.5328 -0.8733  0.3425
    4SAPS  C220  480   1.100   5.619   5.452  0.5256 -0.5146  0.8283
    4SAPS  H20R  481   1.120   5.539   5.378  0.4401  1.1970 -1.1444
    4SAPS  H20S  482   1.196   5.659   5.491  0.8779 -0.8073  0.2728
    4SAPS  H20T  483   1.043   5.697   5.397  3.4980  0.2821 -1.3838
    4SAPS   C33  484   1.117   6.624   6.725  0.2764  0.0944 -0.3116
    4SAPS   H3X  485   1.202   6.635   6.654 -0.0826  1.2524 -0.5821
    4SAPS   H3Y  486   1.086   6.727   6.752  1.0301  1.0547 -2.8603
    4SAPS   C34  487   1.005   6.551   6.646 -0.1056  0.0017 -0.6304
    4SAPS   H4X  488   0.929   6.511   6.717  0.2505 -1.0281 -0.8034
    4SAPS   H4Y  489   1.049   6.465   6.592 -0.3491  0.1600 -1.0826
    4SAPS   C35  490   0.927   6.646   6.560  0.5791 -0.0475 -0.7742
    4SAPS   H5X  491   0.928   6.748   6.604 -0.1725 -0.2169 -0.3465
    4SAPS   H5Y  492   0.824   6.608   6.544  0.7359 -0.8218 -0.0349
    4SAPS   C36  493   0.976   6.671   6.425 -0.3120 -0.5229  0.5101
    4SAPS   H6X  494   1.011   6.573   6.385  2.9062  0.1767  1.4140
    4SAPS   H6Y  495   1.069   6.729   6.409  1.3205 -3.2152 -0.5937
    4SAPS   C37  496   0.866   6.732   6.328  0.2641  0.0251  0.1799
    4SAPS   H7X  497   0.851   6.830   6.378 -2.9221 -1.4755  2.5294
    4SAPS   H7Y  498   0.769   6.679   6.340 -1.4598  2.8134 -0.4504
    4SAPS   C38  499   0.893   6.725   6.177 -0.0709 -0.1489  0.8481
    4SAPS   H8X  500   0.980   6.787   6.148  0.4173  0.1484  2.8087
    4SAPS   H8Y  501   0.804   6.778   6.136  0.5392  0.9118  0.8762
    4SAPS   C39  502   0.900   6.583   6.113 -0.1924 -0.6494  0.0175
    4SAPS   H9X  503   0.811   6.535   6.159 -0.0257  0.1159  1.1897
    4SAPS   H9Y  504   0.993   6.532   6.145 -0.7779 -1.0833  1.0999
    4SAPS  C310  505   0.900   6.596   5.965 -0.0516 -0.5089 -0.2882
    4SAPS  H10X  506   1.002   6.629   5.935 -0.5469  1.7957  0.4111
    4SAPS  H10Y  507   0.828   6.673   5.931  1.9346  1.4936 -0.2016
    4SAPS  C311  508   0.858   6.464   5.900  0.1189 -0.1661 -0.4235
    4SAPS  H11X  509   0.750   6.439   5.910 -0.3159  1.8916  0.5065
    4SAPS  H11Y  510   0.917   6.389   5.957  1.7936  0.0968 -1.7572
    4SAPS  C312  511   0.897   6.463   5.753  0.7159  0.0808  0.0967
    4SAPS  H12X  512   0.991   6.522   5.749  1.5869 -1.2421  0.4362
    4SAPS  H12Y  513   0.824   6.519   5.690  0.3161 -1.1634 -0.5861
    4SAPS  C313  514   0.914   6.328   5.691 -0.3380  0.4848  0.5386
    4SAPS  H13X  515   0.816   6.281   5.668  0.0718  0.2638 -0.8312
    4SAPS  H13Y  516   0.960   6.250   5.757 -0.0952  0.5241  0.4171
    4SAPS  C314  517   1.004   6.323   5.563 -0.7184 -0.2666 -0.3613
    4SAPS  H14X  518   1.107   6.339   5.600 -0.4532 -0.7644 -0.8775
    4SAPS  H14Y  519   0.965   6.401   5.493 -1.8428 -1.1215 -0.7284
    4SAPS  C315  520   1.017   6.185   5.505 -0.2129  0.0452  0.1094
    4SAPS  H15X  521   1.063   6.109   5.572  0.9064 -2.3510 -3.1129
    4SAPS  H15Y  522   1.090   6.178   5.421  1.7512 -6.4421  1.7250
    4SAPS  C316  523   0.882   6.126   5.454 -0.9690  0.3633 -0.0875
    4SAPS  H16X  524   0.798   6.122   5.527 -0.8383  1.5643  0.1486
    4SAPS  H16Y  525   0.904   6.020   5.429  1.8636  1.2592 -1.8912
    4SAPS  C317  526   0.840   6.188   5.316 -0.9147 -0.8503  0.9374
    4SAPS  H17X  527   0.936   6.202   5.261  0.1972  0.5446  3.0748
    4SAPS  H17Y  528   0.812   6.294   5.337  2.0531  0.1010  0.6124
    4SAPS  C318  529   0.738   6.111   5.230 -0.6945 -0.4018  0.1257
    4SAPS  H18X  530   0.729   6.153   5.128  1.7039 -1.3526 -0.5556
    4SAPS  H18Y  531   0.640   6.116   5.282  0.0296  0.6591  1.4633
    4SAPS  H18Z  532   0.774   6.005   5.228  1.8812  0.4111 -0.2410
    5SAPS     N  533   0.549   2.011   7.485  0.6286  0.2492  0.2213
    5SAPS   HN1  534   0.626   1.963   7.535 -2.2349 -2.1584  2.7085
    5SAPS   HN2  535   0.477   2.009   7.560 -1.6829  1.8270 -1.8009
    5SAPS   HN3  536   0.515   1.949   7.408 -0.6257  1.2357 -0.0523
    5SAPS   C12  537   0.589   2.148   7.448  0.5111  0.2652 -0.3105
    5SAPS  H12A  538   0.502   2.211   7.452  0.7912  0.6565 -0.2713
    5SAPS   C13  539   0.689   2.206   7.548  0.3029 -0.5442 -0.5086
    5SAPS  O13A  540   0.753   2.141   7.637  0.1837 -0.1062  0.2526
    5SAPS  O13B  541   0.716   2.328   7.527  0.3030 -0.0562  0.0326
    5SAPS   C11  542   0.637   2.154   7.295 -0.0672 -0.4616 -0.2683
    5SAPS  H11A  543   0.638   2.256   7.250  1.7305 -0.1844  0.3182
    5SAPS  H11B  544   0.554   2.101   7.244 -0.1802 -0.3014 -0.2506
    5SAPS     P  545   0.778   1.962   7.174  0.1462 -0.3501  0.1515
    5SAPS   O13  546   0.916   1.960   7.118 -0.2139  0.2231 -0.0468
    5SAPS   O14  547   0.728   1.841   7.242  0.7553  0.5503 -0.0798
    5SAPS   O12  548   0.766   2.086   7.276 -0.3573 -0.4346  0.1703
    5SAPS   O11  549   0.678   1.999   7.062 -0.1588  0.3490  0.5468
    5SAPS    C1  550   0.735   2.060   6.943 -1.4599 -0.1070  0.0085
    5SAPS    HA  551   0.800   2.147   6.968 -1.0558 -0.7656  1.3498
    5SAPS    HB  552   0.796   1.993   6.879 -0.8581 -0.3709  0.8258
    5SAPS    C2  553   0.621   2.100   6.855 -0.1336 -0.4043  0.4495
    5SAPS    HS  554   0.547   2.156   6.916  0.1097  1.0911 -0.5580
    5SAPS   O21  555   0.565   1.972   6.808 -0.4314  0.0922 -0.4704
    5SAPS   C21  556   0.452   1.996   6.750  0.4241  0.3211 -0.2134
    5SAPS   O22  557   0.399   2.105   6.731 -0.1951  0.5076 -0.3528
    5SAPS   C22  558   0.382   1.861   6.719  0.2115  0.6517  0.4737
    5SAPS   H2R  559   0.438   1.776   6.764  0.4548  0.8631  0.5741
    5SAPS   H2S  560   0.290   1.873   6.779  0.7486  3.1849  0.8900
    5SAPS    C3  561   0.667   2.202   6.734 -0.2172 -0.1070 -0.0542
    5SAPS    HX  562   0.701   2.289   6.793  1.8391 -0.8002 -0.1176
    5SAPS    HY  563   0.587   2.245   6.671  0.4809  3.5607  1.3451
    5SAPS   O31  564   0.779   2.150   6.656 -0.0003  0.6284 -0.0589
    5SAPS   C31  565   0.826   2.229   6.565 -0.0325  0.2345  0.7016
    5SAPS   O32  566   0.784   2.341   6.542 -0.0419 -0.2034  0.1016
    5SAPS   C32  567   0.954   2.166   6.512  0.5960 -0.2858 -0.6247
    5SAPS   H2X  568   0.946   2.055   6.519  1.2815 -0.3635 -0.9541
    5SAPS   H2Y  569   1.026   2.196   6.591  0.3717  0.0370 -0.5444
    5SAPS   C23  570   0.352   1.831   6.566 -0.4009 -0.0214 -0.4129
    5SAPS   H3R  571   0.268   1.899   6.538 -0.7467  1.3404  3.3650
    5SAPS   H3S  572   0.308   1.729   6.565  2.7511 -1.5121 -1.5395
    5SAPS   C24  573   0.471   1.856   6.464 -0.1824  0.3012 -0.2304
    5SAPS   H4R  574   0.554   1.789   6.494 -2.0000 -1.5089  1.0399
    5SAPS   H4S  575   0.505   1.961   6.480  0.6587 -0.1136  0.8288
    5SAPS   C25  576   0.438   1.810   6.326  0.0818  0.4355 -0.5548
    5SAPS   H5R  577   0.343   1.755   6.319 -0.2675  0.9376  0.0776
    5SAPS   C26  578   0.481   1.854   6.210  0.1947 -0.4222  0.8184
    5SAPS   H6R  579   0.461   1.784   6.129  2.7671 -0.9409  0.5500
    5SAPS   C27  580   0.596   1.951   6.179 -0.0241  0.4521  0.1824
    5SAPS   H7R  581   0.658   1.964   6.270  1.4611  1.1481 -0.8972
    5SAPS   H7S  582   0.557   2.049   6.144 -0.3714 -0.0456 -0.8858
    5SAPS   C28  583   0.687   1.904   6.068 -0.6515  0.4181  0.0528
    5SAPS   H8R  584   0.788   1.880   6.104 -0.6433  0.8366  0.3072
    5SAPS   C29  585   0.668   1.906   5.935 -0.6639 -0.8242  0.0409
    5SAPS   H9R  586   0.739   1.854   5.868  0.2205 -0.9785  1.0759
    5SAPS  C210  587   0.550   1.974   5.863 -0.8459 -0.0706  0.3374
    5SAPS  H10R  588   0.597   2.044   5.790  0.8477 -1.1403  0.3456
    5SAPS  H10S  589   0.499   2.045   5.932 -1.1214 -1.0556  1.1746
    5SAPS  C211  590   0.448   1.870   5.822 -0.3274 -0.0327 -0.3036
    5SAPS  H11R  591   0.395   1.827   5.908 -1.9707  0.8829 -0.8139
    5SAPS  C212  592   0.412   1.837   5.694  0.4655  1.0213 -0.5610
    5SAPS  H12R  593   0.328   1.767   5.685  0.6979  0.5383  0.8481
    5SAPS  C213  594   0.467   1.889   5.563 -0.2009  0.2550  0.1978
    5SAPS  H13R  595   0.564   1.942   5.579 -0.1006  0.1809 -0.1423
    5SAPS  H13S  596   0.389   1.959   5.526 -0.7175  0.6293  1.9344
    5SAPS  C214  597   0.491   1.777   5.459  0.2444 -0.4546 -0.6316
    5SAPS  H14R  598   0.410   1.702   5.459  0.0167 -0.3012  1.8126
    5SAPS  C215  599   0.595   1.771   5.373 -0.0008 -0.5070  0.2752
    5SAPS  H15R  600   0.604   1.690   5.299 -0.6297 -3.1791  2.9366
    5SAPS  C216  601   0.689   1.883   5.354 -0.2345 -0.0809  0.6133
    5SAPS  H16R  602   0.753   1.882   5.444  1.3370  1.5766 -0.4247
    5SAPS  H16S  603   0.645   1.985   5.364 -0.8865 -0.4185  1.3551
    5SAPS  C217  604   0.764   1.887   5.217 -0.6793 -1.1845 -0.5992
    5SAPS  H17R  605   0.822   1.792   5.215  0.3321 -0.6811  1.6932
    5SAPS  H17S  606   0.842   1.965   5.228 -2.0306  0.1761 -0.3111
    5SAPS  C218  607   0.663   1.887   5.094  0.5798  0.3004  0.6844
    5SAPS  H18R  608   0.615   1.987   5.103 -0.7505 -0.2869  0.3406
    5SAPS  H18S  609   0.581   1.812   5.100 -1.3775  2.1414 -1.4532
    5SAPS  C219  610   0.738   1.875   4.957 -1.1853  0.5764  0.1169
    5SAPS  H19R  611   0.784   1.774   4.956 -0.6742  0.8066  0.1322
    5SAPS  H19S  612   0.818   1.950   4.973  0.3243 -0.9909  0.2641
    5SAPS  C220  613   0.663   1.901   4.828  0.5874  0.5751 -0.6872
    5SAPS  H20R  614   0.617   2.001   4.836 -0.1024  0.2817 -0.8715
    5SAPS  H20S  615   0.576   1.833   4.831  0.4749  0.7645  1.0641
    5SAPS  H20T  616   0.734   1.884   4.744  1.6071  1.5216 -0.0460
    5SAPS   C33  617   1.012   2.217   6.377  0.1686 -0.9391 -0.5649
    5SAPS   H3X  618   1.117   2.181   6.369  0.7529 -0.3194  2.8293
    5SAPS   H3Y  619   1.023   2.327   6.369 -2.2125 -0.6325 -0.3536
    5SAPS   C34  620   0.926   2.181   6.259 -0.0298  1.0134  0.4360
    5SAPS   H4X  621   0.821   2.212   6.274 -1.1955 -2.6087  0.8321
    5SAPS   H4Y  622   0.930   2.070   6.254  0.1576  1.0525 -0.6067
    5SAPS   C35  623   0.976   2.235   6.129  0.0990  0.2745  0.6384
    5SAPS   H5X  624   1.087   2.226   6.123  0.0311  0.3549 -1.9296
    5SAPS   H5Y  625   0.946   2.341   6.126  2.6341  1.0579 -0.0500
    5SAPS   C36  626   0.931   2.163   6.002 -0.1274  0.0001  0.4099
    5SAPS   H6X  627   0.821   2.162   6.017  0.0511  0.0569  1.8163
    5SAPS   H6Y  628   0.975   2.061   5.999  0.6954  0.2899  1.5750
    5SAPS   C37  629   0.965   2.235   5.869  0.2604 -0.1072  0.6146
    5SAPS   H7X  630   1.073   2.234   5.842  0.0641  2.2602 -0.4321
    5SAPS   H7Y  631   0.947   2.343   5.882  0.5628 -0.1810  1.8563
    5SAPS   C38  632   0.890   2.172   5.756  0.6363 -0.1478 -0.8930
    5SAPS   H8X  633   0.785   2.146   5.781  1.0604  0.0599  1.3193
    5SAPS   H8Y  634   0.928   2.070   5.733  0.0524 -0.2715 -1.3320
    5SAPS   C39  635   0.887   2.248   5.625  0.3209  0.0575 -0.0211
    5SAPS   H9X  636   0.987   2.243   5.577  0.0981  2.0157 -0.8030
    5SAPS   H9Y  637   0.877   2.354   5.658  2.3269 -0.5372  2.8983
    5SAPS  C310  638   0.778   2.205   5.528 -0.7703  0.0860  0.5340
    5SAPS  H10X  639   0.681   2.227   5.577 -0.1160  2.0328  1.0307
    5SAPS  H10Y  640   0.787   2.095   5.510 -1.1225  0.3953 -1.7516
    5SAPS  C311  641   0.780   2.278   5.397 -0.0876  0.0844  0.3454
    5SAPS  H11X  642   0.717   2.220   5.326  0.2080  0.4309 -0.1982
    5SAPS  H11Y  643   0.884   2.274   5.358 -0.3780  2.4731 -0.8039
    5SAPS  C312  644   0.729   2.419   5.399 -0.6522  0.1353  0.6971
    5SAPS  H12X  645   0.775   2.476   5.482  0.5291 -1.1641  0.9684
    5SAPS  H12Y  646   0.618   2.411   5.405 -0.6657  0.7349  1.4135
    5SAPS  C313  647   0.760   2.494   5.270  0.2174 -0.1497 -0.2255
    5SAPS  H13X  648   0.871   2.487   5.260  0.4235 -0.2557  1.8174
    5SAPS  H13Y  649   0.739   2.603   5.266 -2.0277 -0.5733 -1.4311
    5SAPS  C314  650   0.697   2.437   5.139  0.4180  0.6955  0.6550
    5SAPS  H14X  651   0.652   2.525   5.088 -0.8477  0.1871  0.8612
    5SAPS  H14Y  652   0.602   2.387   5.166  0.9400 -0.9225 -0.3903
    5SAPS  C315  653   0.796   2.356   5.052 -0.1522  0.1033 -0.4793
    5SAPS  H15X  654   0.837   2.279   5.121 -0.1214 -0.6975 -1.3806
    5SAPS  H15Y  655   0.879   2.421   5.015  1.2474 -1.6751 -0.5893
    5SAPS  C316  656   0.727   2.289   4.929 -0.2142 -0.1117  0.8538
    5SAPS  H16X  657   0.643   2.352   4.893  0.3768  0.2591  0.0911
    5SAPS  H16Y  658   0.698   2.187   4.961  0.9905 -0.8261 -0.2337
    5SAPS  C317  659   0.818   2.276   4.804 -0.5238 -0.2055  0.5341
    5SAPS  H17X  660   0.883   2.191   4.834 -0.3103 -0.4944 -0.7014
    5SAPS  H17Y  661   0.875   2.371   4.793  0.5843 -0.8823  0.3102
    5SAPS  C318  662   0.729   2.247   4.686 -0.6502 -0.1698 -0.0582
    5SAPS  H18X  663   0.657   2.165   4.710 -0.5800 -0.0823  0.4558
    5SAPS  H18Y  664   0.780   2.212   4.594  1.2668 -0.6652  1.1294
    5SAPS  H18Z  665   0.676   2.339   4.653 -0.0455 -0.2243 -1.2492
    6SAPS     N  666   5.448   1.897   7.662 -0.5108 -0.0196 -0.1551
    6SAPS   HN1  667   5.547   1.922   7.645 -0.5617  1.4006  1.3808
    6SAPS   HN2  668   5.377   1.955   7.612 -1.3642 -1.9150 -1.2542
    6SAPS   HN3  669   5.434   1.897   7.765 -0.2618  0.2544 -0.1210
    6SAPS   C12  670   5.396   1.762   7.628  0.2894  0.0284  0.6326
    6SAPS  H12A  671   5.456   1.686   7.676  0.9073  0.4018  0.4595
    6SAPS   C13  672   5.244   1.734   7.655  0.8956 -0.8987 -0.7681
    6SAPS  O13A  673   5.181   1.823   7.718 -0.5409 -0.0403 -0.1460
    6SAPS  O13B  674   5.207   1.616   7.644 -0.5841  0.1339 -0.5036
    6SAPS   C11  675   5.435   1.736   7.477 -0.2095  0.0453 -0.2149
    6SAPS  H11A  676   5.371   1.805   7.418 -0.7177  1.0337  1.4140
    6SAPS  H11B  677   5.391   1.635   7.466 -0.0750 -0.1869  1.1296
    6SAPS     P  678   5.666   1.619   7.445 -0.3036  0.3789 -0.3542
    6SAPS   O13  679   5.805   1.659   7.488  0.2692  0.8144 -0.3522
    6SAPS   O14  680   5.605   1.520   7.537 -0.8574  0.2312  0.7367
    6SAPS   O12  681   5.576   1.749   7.439 -0.0063  0.8007 -0.5657
    6SAPS   O11  682   5.662   1.575   7.293  0.1542 -0.1129 -0.4070
    6SAPS    C1  683   5.756   1.647   7.208  0.2480 -0.4060 -0.3148
    6SAPS    HA  684   5.788   1.743   7.256 -0.2314 -0.0209 -0.7477
    6SAPS    HB  685   5.849   1.592   7.185  1.0836  1.0971 -0.6668
    6SAPS    C2  686   5.684   1.685   7.069  0.2632  0.7367 -0.2695
    6SAPS    HS  687   5.596   1.747   7.095  1.1066  1.4190  1.0703
    6SAPS   O21  688   5.649   1.558   7.014 -0.4029  0.0376 -0.0423
    6SAPS   C21  689   5.535   1.559   6.942  0.4350 -1.0448 -0.1594
    6SAPS   O22  690   5.467   1.659   6.926 -0.1290 -0.0333 -0.1884
    6SAPS   C22  691   5.509   1.413   6.893 -0.1549  0.6657 -0.4445
    6SAPS   H2R  692   5.451   1.370   6.978 -0.7710  0.3390 -1.0209
    6SAPS   H2S  693   5.435   1.434   6.812  1.5675  3.0687 -1.5156
    6SAPS    C3  694   5.785   1.757   6.976  0.2763  0.2147  0.3486
    6SAPS    HX  695   5.875   1.695   6.959  0.2153  0.1332  0.3226
    6SAPS    HY  696   5.813   1.855   7.021 -0.8204  0.8780 -0.3571
    6SAPS   O31  697   5.723   1.781   6.849  0.0116  0.5699  0.1323
    6SAPS   C31  698   5.650   1.893   6.842  0.5549  0.7292  0.7202
    6SAPS   O32  699   5.620   1.967   6.933 -0.3305 -0.3353 -0.1645
    6SAPS   C32  700   5.610   1.914   6.693  0.5633  0.0971 -0.8304
    6SAPS   H2X  701   5.558   1.821   6.661  0.9997 -0.0591 -1.0781
    6SAPS   H2Y  702   5.701   1.933   6.633  1.0872 -1.1011 -0.4432
    6SAPS   C23  703   5.632   1.329   6.851  0.3909 -0.0906  0.4173
    6SAPS   H3R  704   5.597   1.224   6.852  0.0567  0.0211  1.0393
    6SAPS   H3S  705   5.712   1.334   6.928 -0.0701 -0.9470  0.9705
    6SAPS   C24  706   5.681   1.369   6.716 -0.2423 -0.0685 -0.0853
    6SAPS   H4R  707   5.588   1.358   6.657 -1.2681  1.0028  1.2840
    6SAPS   H4S  708   5.754   1.288   6.693  1.5823  1.3351  0.4718
    6SAPS   C25  709   5.743   1.503   6.695  0.5119  0.3254  0.0611
    6SAPS   H5R  710   5.827   1.533   6.759  0.6686  0.7983 -0.3620
    6SAPS   C26  711   5.707   1.579   6.599  0.4732 -0.8633 -0.8272
    6SAPS   H6R  712   5.758   1.677   6.595 -0.3768 -0.4477 -3.3109
    6SAPS   C27  713   5.598   1.559   6.497 -0.6786 -0.4056  0.1940
    6SAPS   H7R  714   5.572   1.662   6.462  0.7393  0.2923  1.0914
    6SAPS   H7S  715   5.508   1.514   6.542 -1.6315  0.6170 -0.6381
    6SAPS   C28  716   5.637   1.471   6.382  0.1561 -0.0508  0.2800
    6SAPS   H8R  717   5.693   1.380   6.411 -0.0663 -0.3717 -0.2814
    6SAPS   C29  718   5.613   1.485   6.252  0.6350  0.8436 -0.1962
    6SAPS   H9R  719   5.662   1.407   6.193  1.9487  0.5273  1.2341
    6SAPS  C210  720   5.542   1.598   6.182  0.0747 -0.5974 -0.0087
    6SAPS  H10R  721   5.470   1.649   6.250  0.9224  0.6192  0.0057
    6SAPS  H10S  722   5.477   1.565   6.098 -2.5706  1.2626  1.1651
    6SAPS  C211  723   5.635   1.704   6.128  0.3103 -0.2767  0.4267
    6SAPS  H11R  724   5.665   1.778   6.204 -2.1308  0.1517  1.0602
    6SAPS  C212  725   5.689   1.707   5.997  0.4089 -0.1310 -0.8912
    6SAPS  H12R  726   5.754   1.790   5.964  0.5110 -0.2807 -1.0688
    6SAPS  C213  727   5.660   1.606   5.889 -0.4155 -0.5191  0.2543
    6SAPS  H13R  728   5.622   1.513   5.938 -1.8774 -0.5103 -0.8180
    6SAPS  H13S  729   5.749   1.569   5.832 -0.9008 -1.8735  0.3275
    6SAPS  C214  730   5.553   1.660   5.799 -0.2086 -0.1713 -0.0709
    6SAPS  H14R  731   5.510   1.762   5.798 -3.9953 -1.5157 -3.4455
    6SAPS  C215  732   5.508   1.577   5.704  0.5011 -0.5188  0.2517
    6SAPS  H15R  733   5.433   1.610   5.630  2.2249 -0.8688 -1.7615
    6SAPS  C216  734   5.547   1.433   5.676 -0.2691 -0.0682 -0.4442
    6SAPS  H16R  735   5.464   1.363   5.697 -2.2811  1.4370 -2.8291
    6SAPS  H16S  736   5.638   1.409   5.736  0.0937  2.0070 -0.0789
    6SAPS  C217  737   5.582   1.405   5.525  0.8842 -0.8963 -0.7892
    6SAPS  H17R  738   5.615   1.299   5.524 -0.9262 -1.8055  4.0015
    6SAPS  H17S  739   5.665   1.471   5.494  2.2720 -1.0945  2.1505
    6SAPS  C218  740   5.464   1.419   5.431  0.1723  0.2927 -0.7185
    6SAPS  H18R  741   5.441   1.527   5.423  0.4297  0.3874 -0.2490
    6SAPS  H18S  742   5.372   1.371   5.470  0.0922  1.1354  0.1657
    6SAPS  C219  743   5.504   1.373   5.287  0.5950 -0.5271 -0.3935
    6SAPS  H19R  744   5.535   1.267   5.295  2.6713 -0.0216 -0.9709
    6SAPS  H19S  745   5.603   1.412   5.252  0.1719  1.5330  0.5378
    6SAPS  C220  746   5.389   1.407   5.184 -0.3269 -0.5455  0.4303
    6SAPS  H20R  747   5.356   1.512   5.204 -0.3307 -0.5743  0.5757
    6SAPS  H20S  748   5.296   1.353   5.211 -1.9692  0.9291 -1.8673
    6SAPS  H20T  749   5.421   1.389   5.079 -1.2790 -1.3814  0.2675
    6SAPS   C33  750   5.506   2.029   6.690  0.4335 -0.0548  0.0344
    6SAPS   H3X  751   5.518   2.111   6.764 -2.4321  0.0894  0.4604
    6SAPS   H3Y  752   5.403   1.991   6.709 -0.1637  1.0898 -0.7789
    6SAPS   C34  753   5.503   2.097   6.551 -0.7999  0.0439  0.2877
    6SAPS   H4X  754   5.607   2.129   6.529 -0.8063  0.2186  0.5110
    6SAPS   H4Y  755   5.437   2.187   6.553 -1.4042 -0.3938  0.0905
    6SAPS   C35  756   5.452   2.004   6.445 -0.2699  0.1620  0.3710
    6SAPS   H5X  757   5.365   1.945   6.480  0.4309  0.3280  2.5436
    6SAPS   H5Y  758   5.533   1.932   6.419  0.7736  0.6779  2.0047
    6SAPS   C36  759   5.417   2.080   6.317 -0.0341  0.3201  0.1580
    6SAPS   H6X  760   5.501   2.141   6.277 -0.7453 -0.5697 -2.9309
    6SAPS   H6Y  761   5.336   2.155   6.334 -0.0231 -0.0084  1.8799
    6SAPS   C37  762   5.372   1.993   6.189 -0.3327  0.2719  0.7031
    6SAPS   H7X  763   5.276   1.943   6.216  0.6829 -2.6950 -0.6938
    6SAPS   H7Y  764   5.448   1.913   6.174 -0.3729  0.2423  0.6571
    6SAPS   C38  765   5.361   2.075   6.068 -0.9131 -0.1121  0.2575
    6SAPS   H8X  766   5.465   2.112   6.052 -1.0348 -0.8386 -2.7472
    6SAPS   H8Y  767   5.289   2.158   6.082 -1.7534 -0.9346  0.9401
    6SAPS   C39  768   5.330   1.996   5.939  0.0476  0.6728 -0.5707
    6SAPS   H9X  769   5.229   1.951   5.942  1.4684 -2.7471  0.8669
    6SAPS   H9Y  770   5.399   1.910   5.925  0.8373  1.3404 -0.8915
    6SAPS  C310  771   5.357   2.073   5.808 -1.1680  0.0538 -0.0074
    6SAPS  H10X  772   5.464   2.097   5.789 -0.3952 -1.9933  1.4117
    6SAPS  H10Y  773   5.298   2.166   5.822  0.2658  1.0915 -0.5117
    6SAPS  C311  774   5.311   1.992   5.686  0.1238  0.3209 -1.0684
    6SAPS  H11X  775   5.205   1.962   5.701  0.9650 -2.0559  0.7758
    6SAPS  H11Y  776   5.362   1.894   5.676 -2.7791 -1.4142  0.0162
    6SAPS  C312  777   5.325   2.077   5.559 -0.6550  0.2503  0.9018
    6SAPS  H12X  778   5.427   2.121   5.554 -2.1680  4.4474  2.0969
    6SAPS  H12Y  779   5.257   2.163   5.579  0.9083  1.5529  0.7665
    6SAPS  C313  780   5.281   2.028   5.420  0.5652 -0.0021  0.4917
    6SAPS  H13X  781   5.272   2.122   5.361  0.8911 -0.8701 -0.9804
    6SAPS  H13Y  782   5.185   1.973   5.430  1.6946 -1.8490  1.7206
    6SAPS  C314  783   5.398   1.941   5.358  0.3305 -0.0156 -0.4418
    6SAPS  H14X  784   5.426   1.866   5.435 -0.2605  0.3569  0.1413
    6SAPS  H14Y  785   5.489   2.001   5.337 -0.1990  0.4527 -1.4552
    6SAPS  C315  786   5.352   1.857   5.244 -0.4492 -0.1326  0.4252
    6SAPS  H15X  787   5.245   1.829   5.249 -0.6291  0.4176 -0.2088
    6SAPS  H15Y  788   5.409   1.761   5.246 -1.1066 -0.6256 -1.8265
    6SAPS  C316  789   5.378   1.916   5.106 -0.6470  0.4598 -0.0070
    6SAPS  H16X  790   5.479   1.955   5.083 -0.1000 -1.1333 -0.4476
    6SAPS  H16Y  791   5.305   1.998   5.091  0.5946  1.7347  0.7735
    6SAPS  C317  792   5.356   1.810   4.998  0.8309  0.6272 -0.3710
    6SAPS  H17X  793   5.252   1.773   5.010  1.6440 -1.0410  2.5387
    6SAPS  H17Y  794   5.425   1.725   5.015  0.7693  0.5583 -0.4632
    6SAPS  C318  795   5.395   1.858   4.858 -0.1757  0.0660  0.5538
    6SAPS  H18X  796   5.343   1.955   4.842 -0.5196 -0.2139 -0.0648
    6SAPS  H18Y  797   5.366   1.783   4.781 -0.0763 -1.1564  1.6763
    6SAPS  H18Z  798   5.503   1.884   4.854 -0.3351  0.8367  1.0025
    7SAPS     N  799   6.782   3.523   7.387 -0.0863 -0.1176  0.7073
    7SAPS   HN1  800   6.703   3.454   7.391  0.8740 -1.3652 -0.6719
    7SAPS   HN2  801   6.788   3.573   7.296  1.3642 -0.1209  0.7800
    7SAPS   HN3  802   6.872   3.475   7.407  0.8745  2.6504  3.8995
    7SAPS   C12  803   6.769   3.614   7.497  0.1910 -0.3848  0.6830
    7SAPS  H12A  804   6.762   3.554   7.586  1.1360 -1.1067  0.2922
    7SAPS   C13  805   6.894   3.701   7.510 -0.3974  0.1619  0.4449
    7SAPS  O13A  806   7.003   3.679   7.442 -0.0134  0.1714 -0.7890
    7SAPS  O13B  807   6.909   3.782   7.603 -0.3895  0.2453  0.1557
    7SAPS   C11  808   6.644   3.705   7.482 -0.1092 -0.6084  0.0166
    7SAPS  H11A  809   6.637   3.769   7.572  1.5223  1.5670 -1.3125
    7SAPS  H11B  810   6.555   3.639   7.482 -2.1342  1.9094  1.6475
    7SAPS     P  811   6.554   3.879   7.318  0.2787 -0.0614 -0.2448
    7SAPS   O13  812   6.522   3.964   7.437  0.7238  0.1897 -0.0921
    7SAPS   O14  813   6.612   3.960   7.207 -0.0953  0.0616  0.4702
    7SAPS   O12  814   6.657   3.781   7.363  0.3977  0.3828  0.0419
    7SAPS   O11  815   6.431   3.800   7.263  0.5401  0.5581 -0.4605
    7SAPS    C1  816   6.451   3.663   7.213 -0.1626  0.0236  0.0374
    7SAPS    HA  817   6.551   3.647   7.166  0.7241 -1.7714  2.3621
    7SAPS    HB  818   6.443   3.594   7.300 -2.3930 -1.0502 -0.9436
    7SAPS    C2  819   6.345   3.619   7.109 -0.3918 -0.1508  0.3038
    7SAPS    HS  820   6.358   3.513   7.078  2.0774  1.5346 -5.9955
    7SAPS   O21  821   6.375   3.702   6.994  0.2014 -0.3314  0.0036
    7SAPS   C21  822   6.465   3.660   6.908 -0.5943  0.3474 -0.7185
    7SAPS   O22  823   6.525   3.560   6.901 -0.1336  0.2302 -0.0196
    7SAPS   C22  824   6.490   3.780   6.814  0.3892  0.2983 -0.0788
    7SAPS   H2R  825   6.402   3.804   6.750 -1.2438  0.8757  2.2266
    7SAPS   H2S  826   6.510   3.867   6.881 -1.5202  0.0473  0.8917
    7SAPS    C3  827   6.199   3.647   7.152 -0.2149 -0.1070 -0.8005
    7SAPS    HX  828   6.183   3.743   7.205 -1.9260  1.2904 -3.5640
    7SAPS    HY  829   6.188   3.566   7.226  1.0185 -0.1365 -0.6284
    7SAPS   O31  830   6.110   3.632   7.038 -0.1404  0.2671  0.5505
    7SAPS   C31  831   6.044   3.739   7.004  0.2263 -0.2714  1.0712
    7SAPS   O32  832   6.046   3.848   7.055 -0.0600  0.3670  0.1347
    7SAPS   C32  833   5.983   3.708   6.867 -0.1924  0.7778  0.7525
    7SAPS   H2X  834   5.949   3.805   6.824 -0.2347  0.1351 -0.7031
    7SAPS   H2Y  835   5.901   3.634   6.877  0.1760 -0.0433 -1.6356
    7SAPS   C23  836   6.613   3.763   6.731  0.0911  0.0150 -0.2391
    7SAPS   H3R  837   6.610   3.688   6.650  1.1018  1.4106 -1.6304
    7SAPS   H3S  838   6.701   3.737   6.795  1.1734  2.8047 -0.4448
    7SAPS   C24  839   6.664   3.887   6.661 -0.8625 -0.2882 -0.7228
    7SAPS   H4R  840   6.732   3.858   6.579 -2.2237 -1.7560 -1.3740
    7SAPS   H4S  841   6.731   3.943   6.730 -0.6648 -2.5677  1.0410
    7SAPS   C25  842   6.565   3.982   6.600  0.0316  0.1540  0.0687
    7SAPS   H5R  843   6.562   4.085   6.638 -2.2335 -0.2329  1.1281
    7SAPS   C26  844   6.469   3.956   6.513 -0.6029  0.3150 -0.6760
    7SAPS   H6R  845   6.385   4.026   6.493 -0.5051  0.3899 -0.8320
    7SAPS   C27  846   6.453   3.826   6.443  0.0051  0.3277  0.1012
    7SAPS   H7R  847   6.424   3.752   6.521 -2.0592  1.6218  0.6478
    7SAPS   H7S  848   6.549   3.798   6.395  0.0913  0.1964  0.3505
    7SAPS   C28  849   6.338   3.821   6.338 -0.0370 -0.6910 -0.2788
    7SAPS   H8R  850   6.243   3.859   6.377  0.1455 -1.1203  0.6393
    7SAPS   C29  851   6.347   3.768   6.214  0.0592 -0.6491 -0.3472
    7SAPS   H9R  852   6.256   3.761   6.152 -0.3482 -1.6997  0.3528
    7SAPS  C210  853   6.472   3.718   6.142 -0.9305  0.1123  0.0653
    7SAPS  H10R  854   6.558   3.731   6.211  0.4192 -0.3560 -1.4743
    7SAPS  H10S  855   6.491   3.793   6.062  0.2188  1.1158  1.2278
    7SAPS  C211  856   6.449   3.577   6.089  0.3455 -0.2545 -1.5876
    7SAPS  H11R  857   6.433   3.506   6.171  0.3438  0.8200 -0.6313
    7SAPS  C212  858   6.440   3.542   5.958  0.4684 -0.1222 -0.1229
    7SAPS  H12R  859   6.438   3.434   5.937 -1.3343  0.1638 -1.6830
    7SAPS  C213  860   6.441   3.630   5.834  0.0694 -0.3339 -0.1433
    7SAPS  H13R  861   6.533   3.616   5.773  0.1853 -0.0493 -0.0347
    7SAPS  H13S  862   6.439   3.737   5.863 -1.9804  0.2344 -2.0935
    7SAPS  C214  863   6.320   3.604   5.753 -0.2344  0.9326 -0.0234
    7SAPS  H14R  864   6.252   3.536   5.806  1.2262  0.7434  1.6604
    7SAPS  C215  865   6.302   3.643   5.625 -0.0725  0.2644 -0.7288
    7SAPS  H15R  866   6.213   3.609   5.570  0.3418 -1.0387 -0.6242
    7SAPS  C216  867   6.396   3.720   5.539  0.0132 -0.1026 -0.2866
    7SAPS  H16R  868   6.489   3.731   5.598 -1.0221 -0.6296  1.5107
    7SAPS  H16S  869   6.345   3.815   5.513 -1.1095 -1.2504 -2.6529
    7SAPS  C217  870   6.443   3.663   5.409  0.6045  0.6819  0.4627
    7SAPS  H17R  871   6.478   3.563   5.440 -2.5438  0.2629  3.1858
    7SAPS  H17S  872   6.529   3.718   5.366  0.4164 -1.3768 -2.8777
    7SAPS  C218  873   6.329   3.655   5.304 -0.1279  0.0920  0.7648
    7SAPS  H18R  874   6.287   3.757   5.294 -0.6732 -0.1799  0.2521
    7SAPS  H18S  875   6.252   3.582   5.335  0.4730 -1.8409 -1.9737
    7SAPS  C219  876   6.378   3.594   5.169  0.1748 -0.2537  0.2463
    7SAPS  H19R  877   6.419   3.494   5.196 -1.3293 -0.8692  0.3277
    7SAPS  H19S  878   6.450   3.663   5.120 -0.1136 -1.5073 -2.0616
    7SAPS  C220  879   6.276   3.570   5.064  0.3825  0.0203  0.0644
    7SAPS  H20R  880   6.329   3.522   4.979  0.2875  1.8951 -1.1188
    7SAPS  H20S  881   6.229   3.663   5.026 -1.4394 -1.3186 -1.1085
    7SAPS  H20T  882   6.192   3.504   5.093 -0.0344 -0.2685 -1.6985
    7SAPS   C33  883   6.085   3.654   6.766  0.3467 -0.0809 -0.5698
    7SAPS   H3X  884   6.113   3.556   6.811 -1.5686 -0.9834 -1.2307
    7SAPS   H3Y  885   6.172   3.723   6.766 -1.3354  2.1372 -0.8414
    7SAPS   C34  886   6.028   3.639   6.626 -0.4820 -0.8843  0.1024
    7SAPS   H4X  887   5.932   3.584   6.634 -0.8805 -0.2109  0.0740
    7SAPS   H4Y  888   6.094   3.577   6.562  3.2178  1.2079  1.6279
    7SAPS   C35  889   6.025   3.771   6.548 -0.5886 -0.2641  0.3951
    7SAPS   H5X  890   6.127   3.816   6.540 -0.8062  0.2022  0.1934
    7SAPS   H5Y  891   5.954   3.837   6.601 -2.9219 -2.8953  0.8001
    7SAPS   C36  892   5.974   3.765   6.404  0.2081 -0.3356 -0.3245
    7SAPS   H6X  893   6.053   3.719   6.340 -0.9056 -0.5846 -1.5557
    7SAPS   H6Y  894   5.947   3.868   6.371  0.0620  0.4734  2.1140
    7SAPS   C37  895   5.849   3.674   6.384  0.3470 -0.9781  0.1219
    7SAPS   H7X  896   5.762   3.705   6.445  0.5710  0.5365 -0.2818
    7SAPS   H7Y  897   5.869   3.574   6.429  3.0924 -0.4580  0.2281
    7SAPS   C38  898   5.804   3.666   6.240 -0.5354 -0.3041 -0.3469
    7SAPS   H8X  899   5.763   3.767   6.218  1.9683  0.9792  0.5239
    7SAPS   H8Y  900   5.721   3.592   6.235 -1.1302  0.2022  1.3293
    7SAPS   C39  901   5.918   3.647   6.128 -0.1454  1.0360 -0.4447
    7SAPS   H9X  902   5.964   3.545   6.132 -0.7282  0.7461 -0.9933
    7SAPS   H9Y  903   5.995   3.726   6.137  2.0158 -0.9593 -0.2497
    7SAPS  C310  904   5.863   3.646   5.981  0.0168 -0.3919 -0.0052
    7SAPS  H10X  905   5.796   3.559   5.967 -0.3469 -0.1326  0.1214
    7SAPS  H10Y  906   5.941   3.635   5.903  0.3468  2.3451 -0.1284
    7SAPS  C311  907   5.778   3.772   5.948  0.3252  0.4115 -0.1218
    7SAPS  H11X  908   5.831   3.866   5.977  0.6900  0.8371 -2.0112
    7SAPS  H11Y  909   5.690   3.762   6.015  2.3119  1.6230  2.9141
    7SAPS  C312  910   5.756   3.785   5.800 -0.1156 -0.1525 -0.0008
    7SAPS  H12X  911   5.703   3.697   5.759  0.8271  0.1751 -2.0607
    7SAPS  H12Y  912   5.855   3.781   5.750 -0.2440 -0.3128 -0.2422
    7SAPS  C313  913   5.686   3.914   5.756 -0.2496  0.8997 -0.4239
    7SAPS  H13X  914   5.702   3.915   5.646 -0.5068 -0.3290 -0.4848
    7SAPS  H13Y  915   5.745   4.000   5.796  0.7939 -0.2303  0.5695
    7SAPS  C314  916   5.547   3.946   5.789 -0.4521 -0.4588 -0.2287
    7SAPS  H14X  917   5.519   4.052   5.772  1.6556  0.1600 -0.0983
    7SAPS  H14Y  918   5.535   3.922   5.897  2.2718  2.3968  0.8400
    7SAPS  C315  919   5.447   3.866   5.704  0.4324  0.4003 -0.0601
    7SAPS  H15X  920   5.454   3.757   5.722 -0.7147  0.3595  0.2591
    7SAPS  H15Y  921   5.476   3.883   5.598  1.3461  1.8258  0.3924
    7SAPS  C316  922   5.309   3.919   5.729 -0.0704  0.1733  0.2327
    7SAPS  H16X  923   5.302   4.030   5.726 -0.0031  0.2471  1.9962
    7SAPS  H16Y  924   5.276   3.895   5.832  1.4890  0.5942  0.8498
    7SAPS  C317  925   5.197   3.881   5.619 -0.2204  0.1282 -0.1128
    7SAPS  H17X  926   5.099   3.918   5.654  0.5894  3.8468 -1.3312
    7SAPS  H17Y  927   5.197   3.771   5.608  0.8137  0.0175  0.7834
    7SAPS  C318  928   5.211   3.936   5.473 -0.1625  0.3204 -0.0109
    7SAPS  H18X  929   5.178   3.854   5.406 -0.5463  1.2944 -1.0441
    7SAPS  H18Y  930   5.320   3.945   5.452 -0.2807  0.9659 -0.3643
    7SAPS  H18Z  931   5.154   4.026   5.441  0.5444 -0.0405 -2.5141
    8SAPS     N  932   4.389   4.485   7.351 -0.3562 -0.2836 -0.2001
    8SAPS   HN1  933   4.423   4.545   7.272 -0.0276 -0.7094 -0.3840
    8SAPS   HN2  934   4.449   4.401   7.342 -1.4302 -1.2564  1.2093
    8SAPS   HN3  935   4.287   4.466   7.350 -0.2236 -1.3399  1.7536
    8SAPS   C12  936   4.433   4.556   7.478 -0.0087 -0.3792  0.4069
    8SAPS  H12A  937   4.391   4.653   7.458  0.5924  0.0221  1.0168
    8SAPS   C13  938   4.370   4.509   7.614 -0.0611  0.4020  0.0423
    8SAPS  O13A  939   4.309   4.398   7.615 -0.0003 -0.1127 -0.5327
    8SAPS  O13B  940   4.391   4.583   7.713  0.3043  0.9085 -0.4318
    8SAPS   C11  941   4.590   4.549   7.492 -0.5008 -0.4529  0.4303
    8SAPS  H11A  942   4.633   4.625   7.561 -0.4918 -0.9349  0.9640
    8SAPS  H11B  943   4.632   4.582   7.395  1.4586 -0.1029  1.3575
    8SAPS     P  944   4.685   4.313   7.435  0.5677 -0.0569 -0.6409
    8SAPS   O13  945   4.769   4.219   7.513 -0.2516 -0.0113 -0.6567
    8SAPS   O14  946   4.561   4.260   7.375  0.2096  0.4170 -0.2423
    8SAPS   O12  947   4.642   4.427   7.538 -0.2756  0.8220  0.0455
    8SAPS   O11  948   4.765   4.385   7.317 -0.6005 -0.2654 -0.0059
    8SAPS    C1  949   4.724   4.396   7.185  0.0055  0.3363  0.3102
    8SAPS    HA  950   4.614   4.401   7.172  0.2756  0.1670 -2.9847
    8SAPS    HB  951   4.758   4.495   7.149  0.2094  0.6378  1.3213
    8SAPS    C2  952   4.794   4.297   7.085  0.4934 -0.1167 -0.2292
    8SAPS    HS  953   4.903   4.290   7.109  0.6557  1.5938 -0.3382
    8SAPS   O21  954   4.765   4.354   6.954  0.0490 -0.0260  0.1120
    8SAPS   C21  955   4.875   4.367   6.881  0.6455 -0.0056 -0.0802
    8SAPS   O22  956   4.990   4.359   6.914 -0.2801  0.3280  0.3797
    8SAPS   C22  957   4.831   4.417   6.746 -0.2019 -0.1869 -0.4198
    8SAPS   H2R  958   4.923   4.455   6.697  0.4618  0.9458  1.5647
    8SAPS   H2S  959   4.785   4.335   6.687 -0.9379 -1.2747  1.5606
    8SAPS    C3  960   4.735   4.156   7.092  0.6758 -0.0622 -0.4716
    8SAPS    HX  961   4.625   4.171   7.090  0.3403 -2.0558  0.7263
    8SAPS    HY  962   4.761   4.109   7.189  0.5713  0.3700 -0.2288
    8SAPS   O31  963   4.773   4.072   6.979  0.2280  0.0719 -0.5757
    8SAPS   C31  964   4.899   4.031   6.984 -0.0958  0.1054  0.5261
    8SAPS   O32  965   4.982   4.068   7.065 -0.3410 -0.1466 -0.1532
    8SAPS   C32  966   4.931   3.941   6.859  0.3082 -0.3503  0.9485
    8SAPS   H2X  967   4.878   3.983   6.771 -1.0988 -0.0295  1.9249
    8SAPS   H2Y  968   4.884   3.841   6.869  0.7511 -0.6445  0.1992
    8SAPS   C23  969   4.735   4.547   6.760 -0.1430  0.6887 -0.5420
    8SAPS   H3R  970   4.783   4.623   6.826 -0.9242  1.0405 -0.3684
    8SAPS   H3S  971   4.641   4.527   6.816 -0.9856 -1.9784 -2.6534
    8SAPS   C24  972   4.703   4.607   6.623 -0.1904  0.8337  0.4003
    8SAPS   H4R  973   4.637   4.696   6.632  2.3396  2.8173  0.7781
    8SAPS   H4S  974   4.650   4.533   6.560  0.6833  0.7017 -0.2054
    8SAPS   C25  975   4.827   4.654   6.547  0.4360 -0.8366 -0.2706
    8SAPS   H5R  976   4.889   4.726   6.602  1.9708 -1.3293 -1.2576
    8SAPS   C26  977   4.867   4.621   6.417  0.9714 -0.0110  0.5382
    8SAPS   H6R  978   4.952   4.677   6.374  0.5165  0.6543  0.4847
    8SAPS   C27  979   4.786   4.525   6.332  0.0196 -0.1837 -0.0340
    8SAPS   H7R  980   4.680   4.558   6.327 -0.6121 -2.2136 -1.1976
    8SAPS   H7S  981   4.788   4.424   6.378 -0.5649 -0.5288 -0.7477
    8SAPS   C28  982   4.843   4.524   6.198 -1.1984  0.6074  0.7147
    8SAPS   H8R  983   4.895   4.619   6.179 -0.2633  0.3339  1.8544
    8SAPS   C29  984   4.847   4.420   6.113 -0.4533 -0.0816  0.6783
    8SAPS   H9R  985   4.901   4.433   6.017 -1.5167  1.1021  0.2083
    8SAPS  C210  986   4.778   4.288   6.112  0.2208  0.5967  0.3511
    8SAPS  H10R  987   4.723   4.273   6.017  1.3096 -0.7021 -0.0985
    8SAPS  H10S  988   4.702   4.273   6.192 -0.8374  1.2557 -0.5144
    8SAPS  C211  989   4.888   4.185   6.120  0.5715 -0.3024  0.4213
    8SAPS  H11R  990   4.922   4.166   6.223  0.0973  0.9939  0.8325
    8SAPS  C212  991   4.933   4.108   6.019  0.4074  0.0503 -0.2489
    8SAPS  H12R  992   5.017   4.044   6.050  2.2004  2.1979 -0.3762
    8SAPS  C213  993   4.900   4.107   5.879  0.7895  0.1171  0.1469
    8SAPS  H13R  994   4.980   4.055   5.823 -0.4246 -2.1024  0.3500
    8SAPS  H13S  995   4.916   4.210   5.843 -0.4820  0.7883  1.3916
    8SAPS  C214  996   4.760   4.052   5.846  0.8463  0.3877  0.5988
    8SAPS  H14R  997   4.705   4.008   5.930 -0.3096  1.7302  0.5911
    8SAPS  C215  998   4.701   4.057   5.723 -0.1676  0.1173  0.1137
    8SAPS  H15R  999   4.604   4.007   5.709 -1.6583  2.1339  2.6357
    8SAPS  C216 1000   4.754   4.111   5.599  0.1708 -0.5137  1.4904
    8SAPS  H16R 1001   4.843   4.178   5.600 -0.8662  1.4629 -3.9334
    8SAPS  H16S 1002   4.679   4.178   5.552 -1.4008 -1.7088  2.2411
    8SAPS  C217 1003   4.795   3.998   5.493 -0.8211 -1.1167  0.7014
    8SAPS  H17R 1004   4.699   3.947   5.472 -2.9391  2.2714  1.4605
    8SAPS  H17S 1005   4.872   3.927   5.529 -0.5534 -0.7865  0.7886
    8SAPS  C218 1006   4.837   4.062   5.355 -0.8255 -0.1753 -0.3937
    8SAPS  H18R 1007   4.860   3.976   5.289  0.4781 -0.1074 -0.0431
    8SAPS  H18S 1008   4.928   4.123   5.371 -2.0127  0.8650  3.4454
    8SAPS  C219 1009   4.726   4.138   5.292 -0.0036  0.2281 -0.0077
    8SAPS  H19R 1010   4.710   4.235   5.342 -1.5713 -0.3539  0.6706
    8SAPS  H19S 1011   4.633   4.082   5.316 -0.5460  1.4683  0.8808
    8SAPS  C220 1012   4.745   4.149   5.137  0.7746  0.2894 -0.0334
    8SAPS  H20R 1013   4.757   4.042   5.109 -0.6962  0.3753 -1.0673
    8SAPS  H20S 1014   4.832   4.206   5.098  1.1862 -1.4850 -1.9072
    8SAPS  H20T 1015   4.653   4.184   5.087 -1.2789 -2.4469  1.5519
    8SAPS   C33 1016   5.086   3.930   6.823  0.7463  0.0723 -0.2980
    8SAPS   H3X 1017   5.078   3.840   6.759 -0.1270 -1.4515  1.8296
    8SAPS   H3Y 1018   5.148   3.900   6.910  0.6796  1.5054  0.2765
    8SAPS   C34 1019   5.140   4.061   6.754  0.4471  0.2473 -0.5582
    8SAPS   H4X 1020   5.249   4.060   6.735  0.5692 -0.5853  0.1161
    8SAPS   H4Y 1021   5.129   4.142   6.829  1.7172 -1.5657  1.7323
    8SAPS   C35 1022   5.073   4.093   6.625 -0.0481 -0.4143  0.3769
    8SAPS   H5X 1023   4.970   4.126   6.648 -0.2586 -0.3993 -0.5461
    8SAPS   H5Y 1024   5.070   4.002   6.562 -1.5285  1.1953 -2.0379
    8SAPS   C36 1025   5.159   4.194   6.537  0.6710 -0.2252 -0.3035
    8SAPS   H6X 1026   5.199   4.263   6.614 -0.9527  0.6078 -0.1600
    8SAPS   H6Y 1027   5.104   4.249   6.458  0.4762  1.1891  0.7893
    8SAPS   C37 1028   5.280   4.140   6.455 -0.9218 -0.3798 -0.3729
    8SAPS   H7X 1029   5.350   4.076   6.513 -0.8262 -1.5003 -1.6949
    8SAPS   H7Y 1030   5.335   4.230   6.419  0.6485 -0.7744  0.8740
    8SAPS   C38 1031   5.259   4.054   6.330  0.4158 -0.1434 -0.4349
    8SAPS   H8X 1032   5.189   4.102   6.257 -1.9692 -1.0731  1.1109
    8SAPS   H8Y 1033   5.203   3.959   6.348  0.3052  0.0635  0.3437
    8SAPS   C39 1034   5.387   4.008   6.268 -0.0323 -0.1579  0.6606
    8SAPS   H9X 1035   5.363   3.928   6.195 -1.2327 -0.4857  1.3983
    8SAPS   H9Y 1036   5.449   3.969   6.351  1.3861  1.6761  0.5367
    8SAPS  C310 1037   5.459   4.121   6.184  0.7181 -0.0445 -0.2195
    8SAPS  H10X 1038   5.470   4.211   6.248 -0.9921 -0.2562  0.4082
    8SAPS  H10Y 1039   5.390   4.142   6.100  1.8218  0.5584 -0.9912
    8SAPS  C311 1040   5.594   4.083   6.128 -0.9905  0.4339  0.8915
    8SAPS  H11X 1041   5.580   3.986   6.076 -0.0508  1.0912 -0.6728
    8SAPS  H11Y 1042   5.664   4.074   6.214 -0.5875  1.8960  0.7544
    8SAPS  C312 1043   5.651   4.182   6.024  0.0192 -0.4344  0.6689
    8SAPS  H12X 1044   5.566   4.205   5.956  1.4398  2.4880 -0.2922
    8SAPS  H12Y 1045   5.732   4.132   5.967  0.3250  0.7290  0.0382
    8SAPS  C313 1046   5.709   4.313   6.083  0.2178 -0.0396  0.3952
    8SAPS  H13X 1047   5.813   4.284   6.110  0.6174  2.1038  1.2974
    8SAPS  H13Y 1048   5.656   4.356   6.171 -0.6953 -0.0100 -0.1547
    8SAPS  C314 1049   5.705   4.434   5.982 -0.8602  0.2474 -0.0146
    8SAPS  H14X 1050   5.730   4.524   6.043  1.3829  1.4290 -2.4584
    8SAPS  H14Y 1051   5.600   4.439   5.945 -0.7141 -1.4761 -0.7617
    8SAPS  C315 1052   5.792   4.430   5.859  0.0099 -0.3083  0.1207
    8SAPS  H15X 1053   5.760   4.344   5.795  0.0796  0.1949 -0.5953
    8SAPS  H15Y 1054   5.894   4.413   5.898  0.1476  1.0172  0.3623
    8SAPS  C316 1055   5.805   4.562   5.780 -0.3152  0.1749  0.3348
    8SAPS  H16X 1056   5.837   4.639   5.853  1.9448 -0.0528 -0.3276
    8SAPS  H16Y 1057   5.708   4.585   5.732 -0.1475 -0.9741 -0.6001
    8SAPS  C317 1058   5.906   4.564   5.658  0.2811  0.1160  0.4130
    8SAPS  H17X 1059   5.875   4.509   5.567 -0.7807 -0.0034  0.8295
    8SAPS  H17Y 1060   5.996   4.507   5.689  0.9787  0.4224 -0.9793
    8SAPS  C318 1061   5.947   4.706   5.615  0.0553  0.1550  0.0854
    8SAPS  H18X 1062   5.997   4.702   5.516 -0.7538  1.5135 -0.4128
    8SAPS  H18Y 1063   6.007   4.760   5.691 -1.3416  3.0939 -0.7146
    8SAPS  H18Z 1064   5.857   4.771   5.607  0.2736  0.7609  2.0551
    9SAPS     N 1065   6.653   3.158   7.516  0.2375  0.5167  0.5558
    9SAPS   HN1 1066   6.720   3.205   7.580 -1.7931  3.8227  0.5116
    9SAPS   HN2 1067   6.707   3.139   7.429 -1.4134  2.2048 -0.9288
    9SAPS   HN3 1068   6.584   3.230   7.485 -0.8424  0.4556  2.6655
    9SAPS   C12 1069   6.576   3.040   7.570 -0.0422 -0.2388 -0.3278
    9SAPS  H12A 1070   6.647   2.958   7.569 -0.4053 -0.5517 -1.0261
    9SAPS   C13 1071   6.501   3.068   7.702 -0.2006  0.6009  0.3062
    9SAPS  O13A 1072   6.497   3.185   7.748 -0.4217 -0.3296  0.0107
    9SAPS  O13B 1073   6.428   2.974   7.754  0.3232  0.2061 -0.4411
    9SAPS   C11 1074   6.463   3.015   7.463  0.5596  0.5937  0.3586
    9SAPS  H11A 1075   6.384   3.091   7.446 -0.5399 -0.7025 -0.5242
    9SAPS  H11B 1076   6.411   2.928   7.509  0.4967 -0.2155 -1.1716
    9SAPS     P 1077   6.457   2.868   7.246  0.1861 -0.1469 -0.1192
    9SAPS   O13 1078   6.514   2.894   7.109  0.0395 -0.6836 -0.4278
    9SAPS   O14 1079   6.480   2.734   7.301  0.0564  0.0970 -0.0473
    9SAPS   O12 1080   6.527   2.972   7.340 -0.3027  0.1916 -0.1452
    9SAPS   O11 1081   6.301   2.896   7.259 -1.0695 -0.2275  0.2688
    9SAPS    C1 1082   6.205   2.876   7.160  0.1259  0.1040 -0.2402
    9SAPS    HA 1083   6.253   2.836   7.067 -0.6702 -0.4995 -0.3993
    9SAPS    HB 1084   6.142   2.787   7.181 -2.2645  1.2411 -2.1662
    9SAPS    C2 1085   6.121   3.003   7.126 -0.0267 -0.4600 -0.3050
    9SAPS    HS 1086   6.051   2.976   7.044 -1.4871  0.9637  0.4159
    9SAPS   O21 1087   6.204   3.116   7.070  0.1176  0.2142 -0.8486
    9SAPS   C21 1088   6.261   3.079   6.957 -0.6068 -0.5766  0.2315
    9SAPS   O22 1089   6.225   2.990   6.883 -0.1807 -0.5866 -0.5709
    9SAPS   C22 1090   6.378   3.166   6.930 -0.0276 -0.3783 -0.0638
    9SAPS   H2R 1091   6.344   3.272   6.921  1.5474  0.4510  2.5232
    9SAPS   H2S 1092   6.450   3.157   7.014 -1.7809 -1.2007  1.4161
    9SAPS    C3 1093   6.042   3.051   7.250 -0.6255  0.5643  0.4219
    9SAPS    HX 1094   6.107   3.066   7.338  0.3880 -1.8027  0.1705
    9SAPS    HY 1095   5.976   2.966   7.278  0.5413  0.1248  1.9919
    9SAPS   O31 1096   5.973   3.176   7.228 -0.3024  0.0305  0.6146
    9SAPS   C31 1097   5.861   3.154   7.155 -0.7103 -0.4270  0.0160
    9SAPS   O32 1098   5.804   3.046   7.150  0.1889 -0.2602  0.5196
    9SAPS   C32 1099   5.822   3.273   7.072  0.3379  0.4506 -0.4029
    9SAPS   H2X 1100   5.782   3.355   7.136 -0.4367 -0.3856  0.1996
    9SAPS   H2Y 1101   5.730   3.248   7.016  1.0638  0.7345 -1.7489
    9SAPS   C23 1102   6.453   3.112   6.804  0.0626 -0.6072  0.2618
    9SAPS   H3R 1103   6.381   3.101   6.720  0.5452 -1.9162  0.0049
    9SAPS   H3S 1104   6.477   3.007   6.831  0.2445 -0.2898  1.3947
    9SAPS   C24 1105   6.561   3.208   6.749  0.3230  0.0279  0.7203
    9SAPS   H4R 1106   6.598   3.246   6.846  0.8931  1.3753  0.0026
    9SAPS   H4S 1107   6.513   3.297   6.703 -0.3793 -0.5980  0.2185
    9SAPS   C25 1108   6.667   3.141   6.669  0.1455 -0.3036 -0.1891
    9SAPS   H5R 1109   6.742   3.089   6.730 -1.2276 -0.1664  1.7192
    9SAPS   C26 1110   6.669   3.126   6.539  0.0980 -0.1804  0.5348
    9SAPS   H6R 1111   6.752   3.070   6.494 -1.6378 -2.1990 -0.2963
    9SAPS   C27 1112   6.569   3.174   6.439  0.4358  1.0828  0.0658
    9SAPS   H7R 1113   6.481   3.223   6.487  0.4124  1.7296 -0.6136
    9SAPS   H7S 1114   6.518   3.095   6.379  1.4145  2.1464 -2.3063
    9SAPS   C28 1115   6.652   3.258   6.347  0.4083 -0.3276 -0.1158
    9SAPS   H8R 1116   6.703   3.341   6.398  0.6470 -1.3943  1.4699
    9SAPS   C29 1117   6.677   3.256   6.217 -0.2548  0.3872 -0.1394
    9SAPS   H9R 1118   6.765   3.310   6.178  1.1897 -1.7566 -0.0380
    9SAPS  C210 1119   6.620   3.161   6.108 -0.2959 -0.4579 -0.7609
    9SAPS  H10R 1120   6.556   3.230   6.050 -1.0990  1.2435  1.9717
    9SAPS  H10S 1121   6.550   3.097   6.165  0.7066 -0.4059  0.5739
    9SAPS  C211 1122   6.715   3.069   6.031 -1.0058 -0.5507  0.2934
    9SAPS  H11R 1123   6.790   3.012   6.087  0.3037  1.6777  0.9137
    9SAPS  C212 1124   6.698   3.041   5.897 -0.3421 -0.0748 -0.4504
    9SAPS  H12R 1125   6.767   2.969   5.851 -0.1989 -0.5548  0.4894
    9SAPS  C213 1126   6.594   3.092   5.797 -0.1041 -0.0278  0.0148
    9SAPS  H13R 1127   6.489   3.082   5.833  0.7823  0.3717  2.9038
    9SAPS  H13S 1128   6.592   3.027   5.707 -0.7605 -1.6983  1.1786
    9SAPS  C214 1129   6.622   3.240   5.770  0.3313  0.4286 -0.4665
    9SAPS  H14R 1130   6.656   3.304   5.853 -1.4447 -0.2284  0.8206
    9SAPS  C215 1131   6.595   3.299   5.651  0.4080 -0.1066  1.0214
    9SAPS  H15R 1132   6.618   3.406   5.642  0.9592 -0.2291  0.9436
    9SAPS  C216 1133   6.521   3.227   5.531 -0.6208  0.2041 -0.3915
    9SAPS  H16R 1134   6.554   3.121   5.536  0.6313  0.5004 -1.6863
    9SAPS  H16S 1135   6.566   3.281   5.445  1.0876  1.2252  1.0575
    9SAPS  C217 1136   6.369   3.251   5.549 -0.1572  1.0122 -0.6436
    9SAPS  H17R 1137   6.350   3.360   5.543  1.4259  1.4617  1.3939
    9SAPS  H17S 1138   6.339   3.221   5.652  1.0268  1.2122 -0.2226
    9SAPS  C218 1139   6.279   3.175   5.444  0.0527 -0.4832 -0.0235
    9SAPS  H18R 1140   6.302   3.208   5.340  1.3800 -2.6289 -0.4686
    9SAPS  H18S 1141   6.170   3.196   5.456 -0.2989 -0.4302 -2.6921
    9SAPS  C219 1142   6.279   3.023   5.445 -0.0863 -1.0369 -0.0913
    9SAPS  H19R 1143   6.242   2.991   5.546  0.8317 -1.6710  0.0549
    9SAPS  H19S 1144   6.382   2.990   5.420 -0.4961 -2.0523 -0.5261
    9SAPS  C220 1145   6.196   2.966   5.327  0.6184  0.3035 -0.2216
    9SAPS  H20R 1146   6.199   2.855   5.333  1.0330  0.2999 -0.4941
    9SAPS  H20S 1147   6.247   2.983   5.229  0.6557 -1.8410 -0.6160
    9SAPS  H20T 1148   6.091   3.001   5.316  0.2841 -1.1167 -2.0848
    9SAPS   C33 1149   5.937   3.328   6.981  0.5417 -0.2172  0.7684
    9SAPS   H3X 1150   6.040   3.327   7.022  0.6899 -2.7658  0.5081
    9SAPS   H3Y 1151   5.891   3.426   6.960 -1.6312 -1.0940  1.1773
    9SAPS   C34 1152   5.944   3.251   6.855  0.4908 -0.1361 -0.4287
    9SAPS   H4X 1153   5.846   3.272   6.807  1.1626  0.4446 -1.5922
    9SAPS   H4Y 1154   5.956   3.142   6.872 -2.6798 -0.2263  2.3464
    9SAPS   C35 1155   6.037   3.313   6.752 -0.8662  0.0863 -0.2097
    9SAPS   H5X 1156   6.138   3.326   6.795 -1.4055  5.9222  0.0514
    9SAPS   H5Y 1157   5.993   3.413   6.735 -1.8893 -0.2970  0.1258
    9SAPS   C36 1158   6.042   3.230   6.625 -0.1054  0.3501 -0.1745
    9SAPS   H6X 1159   5.943   3.186   6.599  0.7808 -0.9867 -1.4537
    9SAPS   H6Y 1160   6.119   3.150   6.630 -0.9434 -0.4678  0.0060
    9SAPS   C37 1161   6.107   3.302   6.502  0.4531  0.8964  0.6716
    9SAPS   H7X 1162   6.197   3.354   6.540  0.5908  0.5813  0.7807
    9SAPS   H7Y 1163   6.018   3.364   6.477 -2.2819 -2.1915  1.8523
    9SAPS   C38 1164   6.153   3.223   6.376 -0.8313  0.9984 -0.8794
    9SAPS   H8X 1165   6.059   3.174   6.341 -0.4824 -0.0228 -0.4268
    9SAPS   H8Y 1166   6.218   3.140   6.409  1.8558  3.3540  0.1809
    9SAPS   C39 1167   6.207   3.306   6.258 -1.0128  0.1006 -0.5409
    9SAPS   H9X 1168   6.308   3.350   6.268 -1.0507  0.2518 -0.8031
    9SAPS   H9Y 1169   6.149   3.399   6.240  0.9393  1.2818 -1.0668
    9SAPS  C310 1170   6.204   3.228   6.126 -0.3727  0.5331 -0.7621
    9SAPS  H10X 1171   6.221   3.122   6.154  1.7965  1.7706  3.5970
    9SAPS  H10Y 1172   6.289   3.261   6.063  0.4608 -0.9656 -0.4824
    9SAPS  C311 1173   6.067   3.250   6.054 -0.1541 -1.1328  0.2272
    9SAPS  H11X 1174   6.047   3.358   6.070  3.3211 -0.1688 -0.9818
    9SAPS  H11Y 1175   5.994   3.187   6.110 -0.5269 -0.2204  0.8029
    9SAPS  C312 1176   6.084   3.205   5.908 -0.4822  0.0840 -0.1240
    9SAPS  H12X 1177   6.061   3.098   5.895 -1.6193  0.4138 -0.9078
    9SAPS  H12Y 1178   6.184   3.230   5.865 -0.4294  0.7887  0.3832
    9SAPS  C313 1179   5.984   3.288   5.820  0.5348  0.7051 -0.1867
    9SAPS  H13X 1180   5.992   3.397   5.835 -0.4382  0.5501  1.8626
    9SAPS  H13Y 1181   5.885   3.259   5.862  1.8222 -2.3585  1.0402
    9SAPS  C314 1182   5.992   3.256   5.675 -0.2851  0.6051  0.2619
    9SAPS  H14X 1183   5.982   3.146   5.661  2.0088  0.3940 -0.1634
    9SAPS  H14Y 1184   6.098   3.281   5.649  0.0955  2.1746  2.9303
    9SAPS  C315 1185   5.884   3.320   5.588  0.2206  0.6436  0.0197
    9SAPS  H15X 1186   5.779   3.284   5.600 -0.3319  1.2366 -2.4212
    9SAPS  H15Y 1187   5.897   3.292   5.481  0.8224  1.5158 -0.1446
    9SAPS  C316 1188   5.881   3.475   5.582 -0.3938 -0.2893 -0.4213
    9SAPS  H16X 1189   5.988   3.505   5.582 -1.1052  2.5593 -0.6198
    9SAPS  H16Y 1190   5.826   3.510   5.672  0.2614 -0.1913 -0.0520
    9SAPS  C317 1191   5.807   3.546   5.460 -0.0206  0.8887  0.1185
    9SAPS  H17X 1192   5.755   3.640   5.490 -2.4098 -0.2175 -0.2796
    9SAPS  H17Y 1193   5.732   3.474   5.420  0.6102  0.4097 -0.2132
    9SAPS  C318 1194   5.900   3.584   5.344  0.3636 -0.0330  0.7593
    9SAPS  H18X 1195   5.959   3.498   5.307 -0.1931  0.6939 -2.0674
    9SAPS  H18Y 1196   5.971   3.669   5.357 -1.6968  1.5164  2.8146
    9SAPS  H18Z 1197   5.836   3.602   5.255 -1.2626 -0.8462  1.7159
   10SAPS     N 1198   5.963   1.836   7.627  0.8095  0.5009 -0.2431
   10SAPS   HN1 1199   6.000   1.862   7.720 -1.0906  2.6516 -0.0043
   10SAPS   HN2 1200   5.891   1.763   7.643  1.5313  0.2252  2.1691
   10SAPS   HN3 1201   6.041   1.802   7.567  0.7528  1.3279 -0.8063
   10SAPS   C12 1202   5.895   1.956   7.566 -0.4351  0.3805 -0.3860
   10SAPS  H12A 1203   5.896   1.943   7.459  1.3519  1.5362 -0.5539
   10SAPS   C13 1204   5.745   1.983   7.605 -0.4216 -0.0669 -0.3971
   10SAPS  O13A 1205   5.700   1.932   7.717 -0.5557  0.4588  0.2938
   10SAPS  O13B 1206   5.672   2.066   7.538  0.0140 -0.3950 -0.2505
   10SAPS   C11 1207   5.977   2.082   7.599  0.2350 -0.0703 -0.1885
   10SAPS  H11A 1208   5.976   2.118   7.704 -2.0762  1.4935 -0.6733
   10SAPS  H11B 1209   5.921   2.166   7.553  0.7139 -0.3212 -1.2581
   10SAPS     P 1210   6.127   2.145   7.396 -0.1326  0.4756  0.5668
   10SAPS   O13 1211   6.055   2.274   7.397 -0.3191  0.2075  0.5018
   10SAPS   O14 1212   6.275   2.151   7.362 -0.3397  0.5674 -0.2068
   10SAPS   O12 1213   6.103   2.066   7.537 -0.3363 -0.7441  0.2389
   10SAPS   O11 1214   6.064   2.050   7.281 -0.2732  0.1550 -0.3402
   10SAPS    C1 1215   5.958   2.095   7.195  0.8640  0.2236  0.4720
   10SAPS    HA 1216   5.884   2.013   7.179  0.1108  1.0283 -0.3181
   10SAPS    HB 1217   5.897   2.175   7.242  2.0467  0.7857  1.0935
   10SAPS    C2 1218   6.009   2.151   7.066 -0.2604  0.2947 -0.2138
   10SAPS    HS 1219   6.060   2.248   7.082  1.0762 -0.4199 -0.0606
   10SAPS   O21 1220   5.889   2.162   6.984 -0.6818  0.5469  0.5810
   10SAPS   C21 1221   5.885   2.270   6.916 -0.3997  0.4217  0.4753
   10SAPS   O22 1222   5.968   2.357   6.916  0.3054  0.7164  0.5947
   10SAPS   C22 1223   5.754   2.265   6.831  0.3337 -0.0032  0.2419
   10SAPS   H2R 1224   5.746   2.157   6.806 -1.9125  0.0199  0.6903
   10SAPS   H2S 1225   5.665   2.290   6.893 -0.5305 -0.9463 -0.6042
   10SAPS    C3 1226   6.113   2.053   7.000  0.4606 -0.1021  0.4723
   10SAPS    HX 1227   6.050   1.964   6.980  0.6516  0.0536 -0.9184
   10SAPS    HY 1228   6.195   2.024   7.069 -0.8814 -0.3716  2.0278
   10SAPS   O31 1229   6.150   2.108   6.878  0.3958 -0.3353 -0.3295
   10SAPS   C31 1230   6.258   2.186   6.880 -0.2230 -0.4100 -0.4493
   10SAPS   O32 1231   6.333   2.210   6.976  1.1045 -0.0439  0.5272
   10SAPS   C32 1232   6.276   2.256   6.745 -0.0025  0.0199 -0.9712
   10SAPS   H2X 1233   6.358   2.331   6.755  0.2987 -0.5939  2.2992
   10SAPS   H2Y 1234   6.187   2.322   6.739 -0.2846  0.0391  2.1514
   10SAPS   C23 1235   5.758   2.345   6.697 -0.1599 -0.6077  0.3684
   10SAPS   H3R 1236   5.758   2.455   6.711 -3.4710 -0.0337 -2.7485
   10SAPS   H3S 1237   5.662   2.331   6.642  0.4452 -1.0272 -0.6165
   10SAPS   C24 1238   5.877   2.306   6.605 -0.1058 -0.1807 -0.0621
   10SAPS   H4R 1239   5.973   2.331   6.655  0.1425  1.9122 -1.4684
   10SAPS   H4S 1240   5.861   2.382   6.526  1.5061 -0.3668 -0.5977
   10SAPS   C25 1241   5.877   2.162   6.560 -0.2228 -0.2065 -0.3537
   10SAPS   H5R 1242   5.876   2.083   6.637 -0.4064  0.1059 -0.0308
   10SAPS   C26 1243   5.894   2.118   6.434  0.2738 -0.4526  0.5368
   10SAPS   H6R 1244   5.878   2.010   6.420 -0.0347 -0.5281  1.4057
   10SAPS   C27 1245   5.913   2.208   6.313 -0.0889 -0.0742  0.2433
   10SAPS   H7R 1246   5.992   2.155   6.254 -1.1680 -1.3599 -0.0950
   10SAPS   H7S 1247   5.972   2.300   6.333  1.7717 -1.6599  2.5558
   10SAPS   C28 1248   5.781   2.228   6.235 -0.5082  0.0319  0.2052
   10SAPS   H8R 1249   5.696   2.273   6.288 -0.6341 -0.0415  0.0673
   10SAPS   C29 1250   5.759   2.193   6.108 -0.2814 -0.5366 -0.2106
   10SAPS   H9R 1251   5.661   2.214   6.062 -1.5511 -0.6973  2.2149
   10SAPS  C210 1252   5.849   2.127   6.011  0.0357  0.0252  0.1014
   10SAPS  H10R 1253   5.824   2.022   5.984  2.7813 -0.4653 -0.8636
   10SAPS  H10S 1254   5.952   2.122   6.054  0.2578 -1.7820 -0.5461
   10SAPS  C211 1255   5.841   2.211   5.887 -0.5384  0.1581  0.0707
   10SAPS  H11R 1256   5.877   2.314   5.898 -0.3589  0.0604  0.4134
   10SAPS  C212 1257   5.792   2.174   5.773 -0.2677  0.3192  0.2246
   10SAPS  H12R 1258   5.792   2.247   5.690 -0.3479 -0.7858 -0.7745
   10SAPS  C213 1259   5.748   2.032   5.732  0.6525 -0.1620 -1.1507
   10SAPS  H13R 1260   5.684   2.035   5.641 -0.2287 -1.7501 -0.6265
   10SAPS  H13S 1261   5.674   1.989   5.803  1.8887 -1.7620 -0.7920
   10SAPS  C214 1262   5.856   1.938   5.711 -0.6300 -0.1382  0.3662
   10SAPS  H14R 1263   5.945   1.956   5.773  0.1966  1.1977 -1.1117
   10SAPS  C215 1264   5.858   1.834   5.615  0.3084  0.1714 -0.1272
   10SAPS  H15R 1265   5.938   1.759   5.617 -0.0184 -0.3915 -2.9556
   10SAPS  C216 1266   5.754   1.787   5.515  0.1876 -0.3687  0.3962
   10SAPS  H16R 1267   5.659   1.844   5.518  1.8356  2.5064  1.9121
   10SAPS  H16S 1268   5.719   1.683   5.535 -2.3523 -0.6038 -3.8919
   10SAPS  C217 1269   5.804   1.789   5.370 -0.2796  0.1009  0.2096
   10SAPS  H17R 1270   5.896   1.730   5.349  1.6003  2.6704  0.6731
   10SAPS  H17S 1271   5.840   1.891   5.347  2.5947 -1.0362 -0.7536
   10SAPS  C218 1272   5.702   1.738   5.261  0.3477 -0.4774 -0.0762
   10SAPS  H18R 1273   5.624   1.816   5.249 -1.3019 -1.9065  0.9118
   10SAPS  H18S 1274   5.649   1.650   5.302 -0.8172 -0.8250 -2.2077
   10SAPS  C219 1275   5.776   1.708   5.134 -0.1554 -0.2836 -0.1974
   10SAPS  H19R 1276   5.698   1.683   5.059  0.1161 -0.0687 -0.5565
   10SAPS  H19S 1277   5.835   1.614   5.140 -0.5272 -0.4883  0.3362
   10SAPS  C220 1278   5.847   1.826   5.070 -0.2976 -0.0927 -0.1341
   10SAPS  H20R 1279   5.884   1.793   4.970 -2.1991  0.3518 -1.0339
   10SAPS  H20S 1280   5.922   1.860   5.144 -2.3690  0.2087  1.9136
   10SAPS  H20T 1281   5.778   1.913   5.063 -1.9842 -1.2014  1.8188
   10SAPS   C33 1282   6.284   2.166   6.623  0.0443  0.0722 -0.2595
   10SAPS   H3X 1283   6.195   2.100   6.633 -1.1512  1.8327  1.3769
   10SAPS   H3Y 1284   6.364   2.093   6.650 -0.5251 -0.1544  0.8856
   10SAPS   C34 1285   6.280   2.248   6.492  0.6151  0.5580  1.0479
   10SAPS   H4X 1286   6.379   2.299   6.492  3.0519 -3.6541 -1.2117
   10SAPS   H4Y 1287   6.196   2.320   6.485 -0.4629 -0.8529 -1.9618
   10SAPS   C35 1288   6.278   2.147   6.372  0.2852 -0.4707  0.1905
   10SAPS   H5X 1289   6.196   2.075   6.392 -1.2800  1.7787  2.6071
   10SAPS   H5Y 1290   6.363   2.077   6.389 -0.0602 -1.3927 -1.6838
   10SAPS   C36 1291   6.296   2.214   6.239  0.3147  0.3691  0.1719
   10SAPS   H6X 1292   6.379   2.288   6.236  0.8855 -0.2684 -0.0064
   10SAPS   H6Y 1293   6.201   2.271   6.229 -0.0651 -0.6433 -3.5188
   10SAPS   C37 1294   6.318   2.119   6.118 -0.1557 -0.1006  0.3833
   10SAPS   H7X 1295   6.237   2.043   6.119 -0.8702  0.6061 -0.9456
   10SAPS   H7Y 1296   6.411   2.060   6.130 -0.9094 -1.7812 -1.5063
   10SAPS   C38 1297   6.320   2.190   5.973 -0.2576 -0.0285 -0.4071
   10SAPS   H8X 1298   6.403   2.263   5.968  2.3260 -2.6639  1.0560
   10SAPS   H8Y 1299   6.220   2.238   5.965 -1.4330 -2.0079  1.3163
   10SAPS   C39 1300   6.336   2.085   5.858 -0.1579 -0.1454 -0.0237
   10SAPS   H9X 1301   6.255   2.010   5.849  1.6726 -2.3557  0.8567
   10SAPS   H9Y 1302   6.428   2.027   5.879 -0.4671 -0.7086 -0.2077
   10SAPS  C310 1303   6.334   2.154   5.724  0.1138 -0.6659  0.5240
   10SAPS  H10X 1304   6.416   2.223   5.694  0.2612 -2.6254 -4.6189
   10SAPS  H10Y 1305   6.242   2.215   5.715 -0.3245 -1.2471  0.9935
   10SAPS  C311 1306   6.306   2.062   5.605 -0.2625  0.6043  0.9828
   10SAPS  H11X 1307   6.216   1.997   5.616  0.0728  0.1771  1.2016
   10SAPS  H11Y 1308   6.392   1.994   5.591  0.1150  1.3006 -0.2425
   10SAPS  C312 1309   6.281   2.137   5.480  0.2656 -0.0827 -0.2642
   10SAPS  H12X 1310   6.379   2.180   5.450 -1.2012  1.2059 -3.6120
   10SAPS  H12Y 1311   6.200   2.211   5.492  1.5732  1.0424  2.3765
   10SAPS  C313 1312   6.246   2.042   5.355  0.5086  0.4882  0.5019
   10SAPS  H13X 1313   6.156   1.982   5.379 -0.7043  1.7605 -0.6401
   10SAPS  H13Y 1314   6.339   1.982   5.349  0.6913  0.8324 -0.2702
   10SAPS  C314 1315   6.239   2.116   5.218  0.0003 -0.2176  0.6671
   10SAPS  H14X 1316   6.304   2.206   5.211  1.1325 -0.8748  2.2859
   10SAPS  H14Y 1317   6.139   2.165   5.219 -0.3297 -0.7374 -1.4280
   10SAPS  C315 1318   6.259   2.028   5.090 -0.1512  0.3981 -0.1751
   10SAPS  H15X 1319   6.176   1.956   5.105 -0.3156  0.9610  1.9761
   10SAPS  H15Y 1320   6.354   1.972   5.076 -1.7375 -2.3582 -0.4690
   10SAPS  C316 1321   6.220   2.098   4.961  0.3297  0.1250  0.4831
   10SAPS  H16X 1322   6.291   2.183   4.949 -0.8453  1.1423  0.6119
   10SAPS  H16Y 1323   6.121   2.146   4.976 -0.1325 -0.4537 -0.6169
   10SAPS  C317 1324   6.215   2.014   4.828  0.5155 -0.2550 -0.9203
   10SAPS  H17X 1325   6.169   2.071   4.745 -1.0296 -0.0494  0.0236
   10SAPS  H17Y 1326   6.153   1.922   4.839  2.5840 -2.0883 -3.3681
   10SAPS  C318 1327   6.351   1.958   4.786  0.1607 -0.6762  0.3326
   10SAPS  H18X 1328   6.418   2.042   4.760  0.8441 -1.3442 -0.1048
   10SAPS  H18Y 1329   6.350   1.887   4.700  1.7572 -0.2856 -0.0461
   10SAPS  H18Z 1330   6.401   1.908   4.872  1.3619  0.2171  0.1761
   11SAPS     N 1331   1.514   1.791   2.505 -0.4168  0.5579 -0.1510
   11SAPS   HN1 1332   1.597   1.792   2.567  0.4510  0.4620 -1.2862
   11SAPS   HN2 1333   1.536   1.840   2.416  0.7271 -0.7332 -0.6227
   11SAPS   HN3 1334   1.433   1.831   2.557 -1.1125 -0.5682 -0.3329
   11SAPS   C12 1335   1.482   1.647   2.469 -0.4603  0.1666  0.0250
   11SAPS  H12A 1336   1.400   1.666   2.401 -0.3566  0.9627  0.1153
   11SAPS   C13 1337   1.564   1.566   2.382 -0.2974  0.4151 -0.6082
   11SAPS  O13A 1338   1.678   1.601   2.346 -0.2103 -0.0370 -0.0038
   11SAPS  O13B 1339   1.522   1.448   2.361  0.3472  0.1806  0.0464
   11SAPS   C11 1340   1.429   1.573   2.596  0.0921  0.7414  1.2589
   11SAPS  H11A 1341   1.518   1.555   2.660  0.1071  1.6685  1.5102
   11SAPS  H11B 1342   1.395   1.474   2.558 -1.1879  2.1501 -1.6037
   11SAPS     P 1343   1.166   1.604   2.629 -0.3123 -0.0790 -0.1726
   11SAPS   O13 1344   1.100   1.737   2.640 -0.6267  0.2207  0.4601
   11SAPS   O14 1345   1.170   1.541   2.497  0.1037  0.1568 -0.3443
   11SAPS   O12 1346   1.318   1.631   2.661  0.0247 -0.7930 -0.0204
   11SAPS   O11 1347   1.118   1.503   2.748 -0.1917 -0.1166 -0.2399
   11SAPS    C1 1348   1.205   1.474   2.858 -0.2271  0.0153 -0.3922
   11SAPS    HA 1349   1.195   1.365   2.881  0.6910  0.4251  2.2729
   11SAPS    HB 1350   1.311   1.495   2.830 -0.5997 -1.9954 -3.9875
   11SAPS    C2 1351   1.159   1.534   2.986 -0.0137 -0.1655 -0.4063
   11SAPS    HS 1352   1.165   1.643   2.967  0.3259 -0.1478 -0.2022
   11SAPS   O21 1353   1.255   1.498   3.085  0.2876 -0.4427  0.1926
   11SAPS   C21 1354   1.264   1.589   3.175 -0.5094 -0.3076 -0.4220
   11SAPS   O22 1355   1.203   1.692   3.182  0.1096  0.8444  0.4266
   11SAPS   C22 1356   1.359   1.543   3.278 -0.2160  0.3656  0.4076
   11SAPS   H2R 1357   1.344   1.434   3.289 -0.0356  0.1417 -1.2067
   11SAPS   H2S 1358   1.462   1.562   3.241  0.4529 -0.0178  2.0049
   11SAPS    C3 1359   1.015   1.493   3.018  0.0697 -0.1709  0.2844
   11SAPS    HX 1360   1.007   1.383   3.002 -2.6892 -0.4664  2.7944
   11SAPS    HY 1361   0.951   1.554   2.951 -0.9508 -2.2324 -0.7095
   11SAPS   O31 1362   0.989   1.507   3.157  0.0483 -0.4693  0.0417
   11SAPS   C31 1363   0.867   1.477   3.191  0.0583 -0.1689  0.1538
   11SAPS   O32 1364   0.775   1.440   3.121 -0.1389  0.1209  0.3758
   11SAPS   C32 1365   0.858   1.472   3.347 -0.3923 -0.2162 -0.4835
   11SAPS   H2X 1366   0.752   1.498   3.371 -0.7936 -1.1023 -1.2638
   11SAPS   H2Y 1367   0.931   1.543   3.392 -0.2591 -0.5250 -0.2109
   11SAPS   C23 1368   1.344   1.613   3.412 -0.2562  0.4578  0.3942
   11SAPS   H3R 1369   1.238   1.633   3.435 -0.4322 -1.0619  0.9875
   11SAPS   H3S 1370   1.386   1.716   3.406 -0.4751  0.5022 -0.5580
   11SAPS   C24 1371   1.420   1.558   3.538  0.3907 -0.6155 -0.2153
   11SAPS   H4R 1372   1.419   1.639   3.613 -2.7527 -0.8764  0.1748
   11SAPS   H4S 1373   1.523   1.535   3.502  0.6140  1.0370 -0.7230
   11SAPS   C25 1374   1.348   1.434   3.590 -0.7331  0.3152 -0.6938
   11SAPS   H5R 1375   1.312   1.359   3.519 -2.1882 -0.4605  0.7941
   11SAPS   C26 1376   1.327   1.403   3.722  0.5921 -0.0747 -0.5658
   11SAPS   H6R 1377   1.277   1.306   3.739  2.5026 -0.9739  0.1636
   11SAPS   C27 1378   1.357   1.475   3.858  0.3769 -0.4385  0.4248
   11SAPS   H7R 1379   1.261   1.490   3.913  0.9750 -3.0172  2.3776
   11SAPS   H7S 1380   1.407   1.571   3.835 -0.3307 -0.2642 -0.4584
   11SAPS   C28 1381   1.442   1.384   3.941  0.3242  0.4231  0.1995
   11SAPS   H8R 1382   1.527   1.343   3.884 -0.0850  2.6059 -2.1882
   11SAPS   C29 1383   1.422   1.341   4.064  0.6819  0.5395 -0.0642
   11SAPS   H9R 1384   1.490   1.270   4.113 -0.2971 -0.2921  0.1142
   11SAPS  C210 1385   1.312   1.371   4.158 -0.5878  0.3241  0.1602
   11SAPS  H10R 1386   1.324   1.282   4.224 -0.9755  1.5254  1.9423
   11SAPS  H10S 1387   1.215   1.360   4.105  0.0611 -1.0868 -0.7907
   11SAPS  C211 1388   1.311   1.504   4.227  0.5002  0.2913  0.2660
   11SAPS  H11R 1389   1.305   1.593   4.163 -0.0702  0.7425  0.9284
   11SAPS  C212 1390   1.322   1.523   4.364 -0.2371  0.5645 -0.1678
   11SAPS  H12R 1391   1.326   1.629   4.393 -0.7753  0.3514  0.7362
   11SAPS  C213 1392   1.348   1.419   4.473 -0.3197 -0.1302  0.1385
   11SAPS  H13R 1393   1.453   1.427   4.510 -0.3714 -1.8436  0.7483
   11SAPS  H13S 1394   1.343   1.316   4.432  1.9476 -0.3949  0.3965
   11SAPS  C214 1395   1.233   1.414   4.573 -0.2229 -0.0607  0.0534
   11SAPS  H14R 1396   1.145   1.358   4.537  0.5675 -1.4567  0.2119
   11SAPS  C215 1397   1.227   1.480   4.692 -0.5972  0.9445  0.5612
   11SAPS  H15R 1398   1.137   1.475   4.756 -0.8970  0.9981  0.1494
   11SAPS  C216 1399   1.348   1.544   4.757  1.0287  0.1039  0.0799
   11SAPS  H16R 1400   1.317   1.597   4.850 -2.0414 -1.3024 -0.0114
   11SAPS  H16S 1401   1.385   1.631   4.700  0.3993  2.2281  2.7282
   11SAPS  C217 1402   1.462   1.455   4.789 -0.0570  0.4424  0.4505
   11SAPS  H17R 1403   1.495   1.399   4.699 -1.7925  0.2940 -0.1305
   11SAPS  H17S 1404   1.439   1.376   4.863 -2.2198 -0.1829 -0.7877
   11SAPS  C218 1405   1.589   1.536   4.842 -0.5788  0.0647  0.3787
   11SAPS  H18R 1406   1.570   1.596   4.934  1.2312  0.5161  0.4998
   11SAPS  H18S 1407   1.615   1.610   4.763 -0.9342  1.9025  1.9131
   11SAPS  C219 1408   1.714   1.450   4.879 -0.3572 -0.6477  1.0875
   11SAPS  H19R 1409   1.753   1.408   4.784  1.5605  0.8758  1.1462
   11SAPS  H19S 1410   1.695   1.361   4.943  1.5361 -0.6432  1.7212
   11SAPS  C220 1411   1.828   1.521   4.948 -0.2604  0.1768 -0.1763
   11SAPS  H20R 1412   1.926   1.471   4.935 -0.5922 -0.4207 -0.4057
   11SAPS  H20S 1413   1.823   1.541   5.057  1.3112  1.2281 -0.2663
   11SAPS  H20T 1414   1.823   1.625   4.910 -0.8313  0.2001 -0.0497
   11SAPS   C33 1415   0.870   1.335   3.416  0.2662  0.0599 -0.3728
   11SAPS   H3X 1416   0.967   1.287   3.393  0.3363 -0.3078  0.6107
   11SAPS   H3Y 1417   0.790   1.264   3.385  0.7581  0.0341 -1.6454
   11SAPS   C34 1418   0.860   1.342   3.570 -0.3322 -0.1701  0.0562
   11SAPS   H4X 1419   0.847   1.240   3.613 -0.5891  0.2224  0.9261
   11SAPS   H4Y 1420   0.771   1.405   3.593  1.4943  3.2132 -1.3812
   11SAPS   C35 1421   0.991   1.408   3.626 -0.1801 -0.0316 -0.3282
   11SAPS   H5X 1422   1.037   1.478   3.554  1.2064 -1.3804 -0.8063
   11SAPS   H5Y 1423   1.069   1.331   3.645  0.8220  0.7567 -1.1207
   11SAPS   C36 1424   0.963   1.495   3.748 -0.3951  0.0624  0.0804
   11SAPS   H6X 1425   0.861   1.536   3.733 -0.0745  0.2933 -1.6172
   11SAPS   H6Y 1426   1.032   1.581   3.759  2.5850 -1.8224 -2.3823
   11SAPS   C37 1427   0.966   1.427   3.877  0.5090 -0.4218  0.2206
   11SAPS   H7X 1428   1.071   1.399   3.898  0.8068  0.9279  0.5778
   11SAPS   H7Y 1429   0.901   1.337   3.862 -1.8593  1.1296  0.5458
   11SAPS   C38 1430   0.910   1.507   3.992  0.0948  0.0729  0.0637
   11SAPS   H8X 1431   0.804   1.534   3.971 -0.0810 -1.6656 -1.5768
   11SAPS   H8Y 1432   0.968   1.601   3.997 -0.4975  0.3896  2.6787
   11SAPS   C39 1433   0.910   1.429   4.123 -0.2162 -0.2333  0.1447
   11SAPS   H9X 1434   1.005   1.379   4.151 -0.3238  0.9771  3.0586
   11SAPS   H9Y 1435   0.838   1.348   4.098  0.8937 -1.4187  0.6832
   11SAPS  C310 1436   0.851   1.512   4.237 -0.0244 -0.1208  0.5295
   11SAPS  H10X 1437   0.741   1.518   4.227 -0.1116 -1.6016  0.3876
   11SAPS  H10Y 1438   0.894   1.614   4.238 -0.4816  0.1435 -1.6952
   11SAPS  C311 1439   0.885   1.443   4.371 -0.2500  0.0893 -0.0859
   11SAPS  H11X 1440   0.995   1.430   4.387  0.1904 -1.7777 -3.7147
   11SAPS  H11Y 1441   0.844   1.340   4.367  1.5504 -0.6538 -3.5511
   11SAPS  C312 1442   0.827   1.527   4.489 -0.2783  0.9818  0.4038
   11SAPS  H12X 1443   0.723   1.551   4.459 -1.0940 -0.6741  1.7106
   11SAPS  H12Y 1444   0.878   1.624   4.506 -1.5303  1.3203  2.5070
   11SAPS  C313 1445   0.807   1.449   4.618 -0.1232 -0.0158 -0.1870
   11SAPS  H13X 1446   0.897   1.384   4.618 -0.1636 -0.1888  2.7032
   11SAPS  H13Y 1447   0.725   1.373   4.613  0.6795 -0.8236 -4.4457
   11SAPS  C314 1448   0.789   1.548   4.725 -0.1941  0.0994  0.1746
   11SAPS  H14X 1449   0.712   1.623   4.696 -0.8044 -1.7181 -3.5266
   11SAPS  H14Y 1450   0.877   1.615   4.736 -1.3393  1.2322  3.8050
   11SAPS  C315 1451   0.768   1.485   4.862  1.3448 -0.0390 -0.8945
   11SAPS  H15X 1452   0.784   1.571   4.931  1.1731 -0.8810  0.2273
   11SAPS  H15Y 1453   0.843   1.404   4.874  1.9192  0.6762  0.5820
   11SAPS  C316 1454   0.628   1.430   4.886  0.3468  0.6157  0.1501
   11SAPS  H16X 1455   0.643   1.381   4.984 -2.2287 -2.1843 -0.6846
   11SAPS  H16Y 1456   0.604   1.351   4.811  0.5670  1.5076 -0.8915
   11SAPS  C317 1457   0.514   1.534   4.889 -0.1785  0.3778 -0.4545
   11SAPS  H17X 1458   0.511   1.589   4.793 -0.4489  0.6197 -0.3099
   11SAPS  H17Y 1459   0.545   1.615   4.959  2.3773 -0.1607 -0.8414
   11SAPS  C318 1460   0.381   1.486   4.940 -0.2697  0.0901 -0.2531
   11SAPS  H18X 1461   0.334   1.401   4.887  0.5949 -1.6385  1.5989
   11SAPS  H18Y 1462   0.308   1.570   4.938  0.1096  0.5376  1.8649
   11SAPS  H18Z 1463   0.382   1.459   5.048 -0.7291  0.0466 -0.2556
   12SAPS     N 1464   2.045   1.206   2.693  0.2840  0.2860  0.0346
   12SAPS   HN1 1465   1.942   1.195   2.680  0.4331 -0.8644 -0.2576
   12SAPS   HN2 1466   2.073   1.171   2.787 -1.0439  0.8358  0.6534
   12SAPS   HN3 1467   2.069   1.306   2.677  0.9280  0.3930  1.5191
   12SAPS   C12 1468   2.106   1.130   2.572  0.4498  0.0548  0.6719
   12SAPS  H12A 1469   2.118   1.025   2.594 -0.5391  0.1296  1.6244
   12SAPS   C13 1470   2.041   1.141   2.435 -0.6620 -0.2459 -0.5318
   12SAPS  O13A 1471   1.957   1.226   2.404  0.4954 -0.5575 -0.1613
   12SAPS  O13B 1472   2.097   1.071   2.348  0.0462  0.1717 -0.4373
   12SAPS   C11 1473   2.252   1.178   2.557  0.2884  0.2867  0.1150
   12SAPS  H11A 1474   2.251   1.286   2.534 -1.5949  0.5640  1.2302
   12SAPS  H11B 1475   2.294   1.118   2.474 -1.0025 -0.3760 -0.0883
   12SAPS     P 1476   2.485   1.176   2.681 -0.3283  0.7114  0.3464
   12SAPS   O13 1477   2.559   1.075   2.599 -0.2446  0.1168 -0.3500
   12SAPS   O14 1478   2.493   1.313   2.632  0.2361 -0.4784  0.3367
   12SAPS   O12 1479   2.332   1.143   2.672  0.5529  0.2810  0.4068
   12SAPS   O11 1480   2.499   1.157   2.835  0.9827 -0.1283 -0.7815
   12SAPS    C1 1481   2.433   1.244   2.920 -0.5420 -0.5103  0.9139
   12SAPS    HA 1482   2.460   1.350   2.903 -0.4629 -0.4520  1.3911
   12SAPS    HB 1483   2.325   1.231   2.895 -0.4410  0.7024 -0.2662
   12SAPS    C2 1484   2.457   1.195   3.065 -0.0941 -0.3467  0.6237
   12SAPS    HS 1485   2.400   1.259   3.136  0.7694 -0.7848  1.7454
   12SAPS   O21 1486   2.604   1.206   3.083 -0.3730  0.6169 -0.6233
   12SAPS   C21 1487   2.636   1.241   3.205 -0.0520  0.0273  0.3217
   12SAPS   O22 1488   2.561   1.256   3.296  0.6243 -0.5958 -1.0483
   12SAPS   C22 1489   2.792   1.244   3.227  0.4968  0.1842  0.2543
   12SAPS   H2R 1490   2.835   1.142   3.227 -2.4335 -1.1848  0.8865
   12SAPS   H2S 1491   2.832   1.301   3.141 -0.4042  1.7177  0.7971
   12SAPS    C3 1492   2.414   1.048   3.085 -0.6403  0.4221 -0.5511
   12SAPS    HX 1493   2.486   0.987   3.027 -2.9652 -1.2350 -1.8738
   12SAPS    HY 1494   2.317   1.023   3.036 -0.7944 -0.0988  0.0086
   12SAPS   O31 1495   2.406   1.009   3.225  0.5425 -0.0230 -0.2138
   12SAPS   C31 1496   2.291   1.033   3.285 -0.6452  0.9066 -0.7913
   12SAPS   O32 1497   2.200   1.086   3.230  0.0536  0.6683  0.0543
   12SAPS   C32 1498   2.292   0.997   3.429  0.3842 -0.4855  0.3268
   12SAPS   H2X 1499   2.355   1.073   3.481  1.1060 -1.7653  1.3739
   12SAPS   H2Y 1500   2.335   0.896   3.449 -0.3601 -0.7850  0.4204
   12SAPS   C23 1501   2.828   1.301   3.365 -0.0191  0.4348  0.2667
   12SAPS   H3R 1502   2.764   1.238   3.431 -0.5688 -0.3888 -1.0019
   12SAPS   H3S 1503   2.787   1.404   3.371  0.0750  0.6305 -1.8373
   12SAPS   C24 1504   2.970   1.290   3.406  0.2604 -0.4430 -0.3961
   12SAPS   H4R 1505   2.983   1.350   3.499 -1.5236 -0.7100  0.0644
   12SAPS   H4S 1506   3.038   1.340   3.333 -1.1232  1.2520 -0.5833
   12SAPS   C25 1507   3.012   1.151   3.447  0.7721  0.9363  0.0430
   12SAPS   H5R 1508   2.979   1.076   3.375 -2.0011  0.3202  1.8067
   12SAPS   C26 1509   3.081   1.121   3.558  1.1272 -0.1143  0.0980
   12SAPS   H6R 1510   3.099   1.013   3.570 -1.0401 -0.6079 -0.6907
   12SAPS   C27 1511   3.125   1.211   3.671 -0.3046  0.0248 -0.1748
   12SAPS   H7R 1512   3.041   1.231   3.742  0.6230  0.6862  0.7722
   12SAPS   H7S 1513   3.163   1.310   3.638 -1.0459  0.9823  1.7046
   12SAPS   C28 1514   3.236   1.136   3.746 -0.0562  0.2801 -0.3405
   12SAPS   H8R 1515   3.320   1.109   3.680  0.5150 -0.1763  0.5520
   12SAPS   C29 1516   3.248   1.116   3.877 -0.0823 -1.0097  0.0930
   12SAPS   H9R 1517   3.339   1.068   3.918 -0.7032 -1.4330  1.0112
   12SAPS  C210 1518   3.160   1.168   3.982 -0.2458 -0.2568  0.0745
   12SAPS  H10R 1519   3.156   1.090   4.060  0.5020 -1.0239 -0.6396
   12SAPS  H10S 1520   3.056   1.178   3.945  0.0045  2.1315 -0.1824
   12SAPS  C211 1521   3.203   1.306   4.038 -0.5326  0.1869 -0.2829
   12SAPS  H11R 1522   3.211   1.386   3.964  0.7715  1.6820  1.3927
   12SAPS  C212 1523   3.234   1.341   4.170  1.0483 -0.4800  0.2949
   12SAPS  H12R 1524   3.249   1.446   4.198  3.5454 -1.1714  1.8351
   12SAPS  C213 1525   3.247   1.236   4.282  0.8169  0.0406 -0.2509
   12SAPS  H13R 1526   3.336   1.172   4.261  0.4516 -0.1286 -1.3462
   12SAPS  H13S 1527   3.149   1.184   4.296  1.1641  0.0446  2.7737
   12SAPS  C214 1528   3.272   1.313   4.410  0.1155 -0.8549 -0.2252
   12SAPS  H14R 1529   3.356   1.382   4.401 -0.1475 -0.5046 -0.0338
   12SAPS  C215 1530   3.212   1.308   4.529  0.4633  0.4448 -0.1659
   12SAPS  H15R 1531   3.247   1.368   4.614  0.4312  0.4640 -0.1660
   12SAPS  C216 1532   3.094   1.216   4.561 -0.0364  0.1217 -0.3493
   12SAPS  H16R 1533   3.110   1.183   4.666  1.3449 -1.3539 -0.9837
   12SAPS  H16S 1534   3.087   1.121   4.505 -3.1526 -1.5069  2.4507
   12SAPS  C217 1535   2.950   1.269   4.543 -0.7604  0.6902  0.4198
   12SAPS  H17R 1536   2.875   1.195   4.578 -2.5907  2.0081 -0.6048
   12SAPS  H17S 1537   2.943   1.282   4.433  1.6417 -0.4929  0.0502
   12SAPS  C218 1538   2.928   1.392   4.625 -0.8730  1.0899 -0.1519
   12SAPS  H18R 1539   2.867   1.461   4.563 -1.0971 -0.2353 -1.4545
   12SAPS  H18S 1540   3.013   1.451   4.666 -0.4319  0.1779  0.2798
   12SAPS  C219 1541   2.839   1.365   4.750 -0.1803  0.0176  0.1560
   12SAPS  H19R 1542   2.896   1.310   4.827 -0.9969  1.4968  1.8983
   12SAPS  H19S 1543   2.758   1.298   4.713 -0.0739 -1.1175  1.8926
   12SAPS  C220 1544   2.761   1.478   4.827  0.1617  0.2338 -0.0299
   12SAPS  H20R 1545   2.703   1.436   4.912  2.8387  0.9428  2.2614
   12SAPS  H20S 1546   2.693   1.515   4.746  1.0045  0.9312 -0.4303
   12SAPS  H20T 1547   2.834   1.552   4.865  1.2654 -1.3229  0.9465
   12SAPS   C33 1548   2.157   1.015   3.499  0.7316  0.3234 -0.2848
   12SAPS   H3X 1549   2.077   0.962   3.445 -0.0876 -0.2511  1.4463
   12SAPS   H3Y 1550   2.138   1.124   3.508 -1.0109  0.1744 -1.7113
   12SAPS   C34 1551   2.150   0.958   3.642 -0.0497  0.0602  0.2050
   12SAPS   H4X 1552   2.242   0.988   3.696 -0.0089  0.5858 -0.1495
   12SAPS   H4Y 1553   2.160   0.848   3.627  2.2477  0.5212 -2.6083
   12SAPS   C35 1554   2.022   1.008   3.721 -0.4760 -0.2903  0.1334
   12SAPS   H5X 1555   1.927   0.995   3.665 -0.9262  2.7461  0.0439
   12SAPS   H5Y 1556   2.020   1.119   3.720 -1.8661 -0.2831 -1.6891
   12SAPS   C36 1557   1.999   0.952   3.864 -0.5051 -0.6446 -0.5125
   12SAPS   H6X 1558   2.089   0.957   3.929 -2.4973  2.8914  2.3894
   12SAPS   H6Y 1559   1.954   0.851   3.858 -1.2217 -0.3889  0.3452
   12SAPS   C37 1560   1.892   1.038   3.932  0.4553 -0.5782 -0.2045
   12SAPS   H7X 1561   1.796   1.019   3.879 -0.5748 -0.1957  1.4353
   12SAPS   H7Y 1562   1.915   1.146   3.940  1.0036 -0.7220  0.2278
   12SAPS   C38 1563   1.868   0.990   4.076  0.5446 -0.5684 -0.2052
   12SAPS   H8X 1564   1.846   0.881   4.074  2.1715 -1.0081  1.9145
   12SAPS   H8Y 1565   1.794   1.056   4.124  1.0671 -1.2114  1.5757
   12SAPS   C39 1566   2.003   0.996   4.163  0.2486 -0.6305 -0.4075
   12SAPS   H9X 1567   2.046   1.098   4.155 -0.6165 -0.3511 -2.0336
   12SAPS   H9Y 1568   2.081   0.927   4.122  1.2646  0.0653  0.3036
   12SAPS  C310 1569   1.980   0.977   4.313 -0.2572 -0.4536 -0.0562
   12SAPS  H10X 1570   2.083   0.985   4.354 -1.0804  1.5325  1.7706
   12SAPS  H10Y 1571   1.939   0.879   4.346 -0.0992 -0.3315  0.5031
   12SAPS  C311 1572   1.910   1.098   4.386  0.0336 -0.3562 -0.5370
   12SAPS  H11X 1573   1.805   1.098   4.347 -0.1878  0.5266  0.0366
   12SAPS  H11Y 1574   1.958   1.197   4.373 -0.3978 -0.1374 -0.4857
   12SAPS  C312 1575   1.899   1.064   4.537 -0.4727  0.4551 -0.2463
   12SAPS  H12X 1576   1.998   1.063   4.587 -0.6756  0.0548  0.1467
   12SAPS  H12Y 1577   1.854   0.963   4.544  0.2098  0.2052  0.5695
   12SAPS  C313 1578   1.806   1.152   4.626  0.5407  0.2173  0.4921
   12SAPS  H13X 1579   1.711   1.155   4.569  0.9925 -0.9860 -0.3621
   12SAPS  H13Y 1580   1.860   1.249   4.628  1.3106 -0.1728 -0.6901
   12SAPS  C314 1581   1.775   1.098   4.766  0.2413 -0.0901 -0.5561
   12SAPS  H14X 1582   1.722   1.000   4.763 -1.2560  0.6782 -0.2730
   12SAPS  H14Y 1583   1.698   1.168   4.805  1.1786  0.2596  0.7530
   12SAPS  C315 1584   1.894   1.113   4.864 -0.3289 -0.3060  0.1513
   12SAPS  H15X 1585   1.927   1.218   4.878  2.5670 -0.9168 -1.2534
   12SAPS  H15Y 1586   1.980   1.055   4.824  0.0483 -1.4980  2.5509
   12SAPS  C316 1587   1.858   1.072   5.001  0.1015  0.3328  0.4935
   12SAPS  H16X 1588   1.813   0.970   4.995 -1.0515  0.8873 -0.7807
   12SAPS  H16Y 1589   1.779   1.147   5.024 -0.9011 -0.6010  0.1696
   12SAPS  C317 1590   1.976   1.063   5.105  0.6503  0.3160 -0.5765
   12SAPS  H17X 1591   1.944   1.045   5.210  3.5093  0.6554  0.4273
   12SAPS  H17Y 1592   2.009   1.169   5.114  1.8481 -0.1428  0.9076
   12SAPS  C318 1593   2.094   0.964   5.082  0.2282 -0.0299  0.3499
   12SAPS  H18X 1594   2.174   0.973   5.159  0.9900 -1.0053 -0.3131
   12SAPS  H18Y 1595   2.137   0.983   4.982  0.5897 -1.1269  0.2794
   12SAPS  H18Z 1596   2.053   0.861   5.085 -1.0274  0.4399  0.1203
   13SAPS     N 1597   5.426   0.968   2.532  0.1200 -0.6790  0.9148
   13SAPS   HN1 1598   5.392   1.063   2.510  0.3281 -0.9745 -0.8178
   13SAPS   HN2 1599   5.475   0.967   2.624  1.1654 -0.4199  0.3712
   13SAPS   HN3 1600   5.500   0.934   2.467  0.1880  3.1807 -1.3227
   13SAPS   C12 1601   5.309   0.878   2.540  0.2915  0.6199 -0.5274
   13SAPS  H12A 1602   5.245   0.905   2.622  0.2093 -1.0421 -0.0190
   13SAPS   C13 1603   5.216   0.867   2.413 -0.0251 -0.0047 -0.6582
   13SAPS  O13A 1604   5.257   0.919   2.308  0.3418  0.0788 -0.0767
   13SAPS  O13B 1605   5.113   0.794   2.420 -0.0376  0.2170 -0.2296
   13SAPS   C11 1606   5.362   0.732   2.576 -0.3273 -0.7200  0.1243
   13SAPS  H11A 1607   5.389   0.696   2.475 -1.6152  0.5450 -0.7149
   13SAPS  H11B 1608   5.280   0.675   2.625 -0.3615  0.3129  1.3364
   13SAPS     P 1609   5.530   0.635   2.770 -0.0470  0.1301 -0.5955
   13SAPS   O13 1610   5.530   0.496   2.717  0.0652  0.0982  0.4012
   13SAPS   O14 1611   5.654   0.690   2.832  0.1726  0.1481  0.1578
   13SAPS   O12 1612   5.476   0.738   2.655  0.4396  0.1575  0.5337
   13SAPS   O11 1613   5.416   0.650   2.889 -0.0671  0.0286 -0.2966
   13SAPS    C1 1614   5.316   0.552   2.911  0.5360 -0.1955 -0.3782
   13SAPS    HA 1615   5.224   0.614   2.919  0.9100  0.4367 -0.8155
   13SAPS    HB 1616   5.299   0.493   2.819  1.5313  1.3711 -1.6292
   13SAPS    C2 1617   5.339   0.466   3.040 -0.1131  0.0807  0.0255
   13SAPS    HS 1618   5.258   0.390   3.048 -0.1402  0.2204  1.1671
   13SAPS   O21 1619   5.339   0.548   3.161 -0.1197 -0.0324  0.3852
   13SAPS   C21 1620   5.229   0.540   3.230  0.2512 -0.2463  0.1276
   13SAPS   O22 1621   5.127   0.478   3.199 -0.5924  0.1700 -0.1986
   13SAPS   C22 1622   5.252   0.614   3.357 -0.3995  0.0602  0.4523
   13SAPS   H2R 1623   5.335   0.562   3.411  1.3359 -0.3908 -2.4123
   13SAPS   H2S 1624   5.282   0.720   3.343  0.9825 -0.6277 -2.8482
   13SAPS    C3 1625   5.464   0.384   3.012  0.2782 -0.8334  0.3061
   13SAPS    HX 1626   5.547   0.456   2.996  1.6732 -2.7552 -1.7588
   13SAPS    HY 1627   5.451   0.328   2.917 -0.1374  1.2322 -0.9316
   13SAPS   O31 1628   5.493   0.303   3.127  0.1701  1.1123  1.0643
   13SAPS   C31 1629   5.473   0.170   3.118 -0.0457  0.4746 -0.1751
   13SAPS   O32 1630   5.428   0.112   3.021 -0.2095  0.5110 -0.3242
   13SAPS   C32 1631   5.505   0.105   3.251  0.1871 -0.1917 -0.5394
   13SAPS   H2X 1632   5.578   0.169   3.307 -1.7514  2.3588 -0.7681
   13SAPS   H2Y 1633   5.550   0.006   3.229  0.7102 -0.0136 -0.3044
   13SAPS   C23 1634   5.133   0.614   3.451 -0.5880 -0.1993  0.2575
   13SAPS   H3R 1635   5.039   0.618   3.393  0.5830 -0.3215 -1.7188
   13SAPS   H3S 1636   5.135   0.707   3.512  0.4380 -0.8764  1.3151
   13SAPS   C24 1637   5.113   0.489   3.538  0.2111 -0.4709  0.2065
   13SAPS   H4R 1638   5.217   0.465   3.569  0.3626  0.9596  0.8869
   13SAPS   H4S 1639   5.084   0.403   3.474 -1.4824  0.3640 -0.2028
   13SAPS   C25 1640   5.010   0.514   3.648 -0.6175 -0.9267 -0.6791
   13SAPS   H5R 1641   4.906   0.530   3.615 -0.1678  1.5932 -1.1189
   13SAPS   C26 1642   5.044   0.529   3.784  1.1893  0.4688  0.2906
   13SAPS   H6R 1643   4.957   0.546   3.849 -0.8924  0.8052 -2.3896
   13SAPS   C27 1644   5.182   0.514   3.844 -0.3118 -0.2759 -0.1761
   13SAPS   H7R 1645   5.229   0.614   3.854  0.8521 -0.5566 -2.1829
   13SAPS   H7S 1646   5.253   0.451   3.786 -0.1794 -0.8862  0.6263
   13SAPS   C28 1647   5.160   0.432   3.968 -0.0645  0.0911  0.5523
   13SAPS   H8R 1648   5.100   0.341   3.951  2.5087 -1.9243  1.5141
   13SAPS   C29 1649   5.199   0.457   4.094 -0.4035 -0.2167 -0.3653
   13SAPS   H9R 1650   5.190   0.391   4.181 -0.4211  1.3508  0.8513
   13SAPS  C210 1651   5.279   0.580   4.132  0.1365 -0.4460  0.2885
   13SAPS  H10R 1652   5.217   0.668   4.104  0.7377 -0.5845 -1.6071
   13SAPS  H10S 1653   5.369   0.607   4.074 -0.1177 -1.3022 -0.5437
   13SAPS  C211 1654   5.319   0.603   4.278  0.0964  0.8505  0.1933
   13SAPS  H11R 1655   5.419   0.563   4.300  1.5759  2.5050 -2.8654
   13SAPS  C212 1656   5.241   0.646   4.373  0.1585 -0.2401 -0.1271
   13SAPS  H12R 1657   5.278   0.656   4.476 -0.1211  0.1666 -0.0664
   13SAPS  C213 1658   5.097   0.701   4.352 -0.5509 -0.1902  0.3788
   13SAPS  H13R 1659   5.047   0.676   4.255 -3.5022 -1.4554  2.0818
   13SAPS  H13S 1660   5.115   0.810   4.358  2.4614 -0.6498  1.3217
   13SAPS  C214 1661   5.017   0.652   4.466  0.2344 -0.7832 -0.7542
   13SAPS  H14R 1662   5.020   0.725   4.548  3.2295  1.0915 -2.3412
   13SAPS  C215 1663   4.955   0.529   4.470 -0.7649 -0.2198  0.0934
   13SAPS  H15R 1664   4.893   0.504   4.558  0.8348 -1.5438  0.8914
   13SAPS  C216 1665   4.951   0.433   4.359 -0.0446  1.1031 -0.8699
   13SAPS  H16R 1666   4.961   0.327   4.391  2.1855  1.1169 -1.3364
   13SAPS  H16S 1667   5.044   0.442   4.299  0.2528 -2.5496 -1.1887
   13SAPS  C217 1668   4.831   0.446   4.262  0.4981  0.6537 -0.4812
   13SAPS  H17R 1669   4.837   0.548   4.218  1.2016  0.8082 -0.0312
   13SAPS  H17S 1670   4.739   0.430   4.322  1.0388 -0.5825  0.0469
   13SAPS  C218 1671   4.823   0.342   4.153  0.5017  0.0908  0.6467
   13SAPS  H18R 1672   4.829   0.241   4.198 -0.3862 -0.9657 -1.4773
   13SAPS  H18S 1673   4.910   0.359   4.087  0.6088 -1.0726  0.4693
   13SAPS  C219 1674   4.690   0.347   4.077  0.1031 -0.1655  0.4503
   13SAPS  H19R 1675   4.680   0.455   4.051 -3.5269  0.1461  2.4079
   13SAPS  H19S 1676   4.599   0.334   4.140 -1.1693  0.5056 -1.1469
   13SAPS  C220 1677   4.683   0.258   3.954 -0.0115  0.4871  0.2443
   13SAPS  H20R 1678   4.682   0.156   3.997  1.5619  1.2051  2.1338
   13SAPS  H20S 1679   4.768   0.265   3.883 -0.9373  1.6899 -0.7971
   13SAPS  H20T 1680   4.589   0.289   3.903  0.7776  1.5796 -0.6144
   13SAPS   C33 1681   5.371   0.092   3.318  0.8507 -0.6727 -0.3405
   13SAPS   H3X 1682   5.305   0.030   3.252  1.8261  0.2090 -2.2271
   13SAPS   H3Y 1683   5.318   0.189   3.330  2.2244  0.2896 -1.5778
   13SAPS   C34 1684   5.369   0.036   3.465 -0.0122 -0.4023  0.0462
   13SAPS   H4X 1685   5.459   0.074   3.518 -0.1695 -0.5100  0.3942
   13SAPS   H4Y 1686   5.373  -0.075   3.455 -2.4147 -0.5090 -0.4578
   13SAPS   C35 1687   5.241   0.071   3.536 -0.6375  0.1654 -0.8555
   13SAPS   H5X 1688   5.148   0.038   3.484  0.2148  2.1622 -3.8761
   13SAPS   H5Y 1689   5.228   0.181   3.543 -0.6463  0.3603 -3.2637
   13SAPS   C36 1690   5.243   0.010   3.676  0.3371  0.0214  0.6468
   13SAPS   H6X 1691   5.323   0.055   3.738 -1.2253  0.7692  2.2211
   13SAPS   H6Y 1692   5.256  -0.100   3.667  0.0296 -0.1354  1.8915
   13SAPS   C37 1693   5.115   0.051   3.755 -0.2932  0.5770 -0.5913
   13SAPS   H7X 1694   5.023   0.003   3.715  0.7892 -2.1977  0.0249
   13SAPS   H7Y 1695   5.100   0.161   3.752  2.2263  0.9487 -1.4450
   13SAPS   C38 1696   5.130  -0.002   3.900  0.6045  0.0432 -0.2436
   13SAPS   H8X 1697   5.227   0.022   3.948  0.0547 -2.5077  2.4659
   13SAPS   H8Y 1698   5.131  -0.112   3.884 -0.6658  0.0075 -0.2005
   13SAPS   C39 1699   5.018   0.047   3.997 -0.4301 -0.9091  0.0071
   13SAPS   H9X 1700   4.924   0.046   3.938  0.6451  1.0040 -1.9084
   13SAPS   H9Y 1701   5.032   0.155   4.021  2.4803 -1.2439  0.1787
   13SAPS  C310 1702   4.993  -0.030   4.130 -0.2102  0.1384  0.3458
   13SAPS  H10X 1703   5.021  -0.134   4.102 -2.5121  0.0871 -2.1012
   13SAPS  H10Y 1704   4.885  -0.030   4.156 -0.6547 -0.4629 -1.3728
   13SAPS  C311 1705   5.075   0.032   4.244  0.6537 -0.3091 -0.1313
   13SAPS  H11X 1706   5.025   0.128   4.270  1.2678 -0.5891  2.3090
   13SAPS  H11Y 1707   5.179   0.047   4.208  1.1301 -0.1693  1.2439
   13SAPS  C312 1708   5.069  -0.043   4.377  0.2759 -0.1659 -0.0760
   13SAPS  H12X 1709   5.117  -0.141   4.358 -0.6076 -0.3896 -1.3077
   13SAPS  H12Y 1710   4.964  -0.069   4.402  0.6276 -1.6490 -0.0490
   13SAPS  C313 1711   5.122   0.040   4.490  0.2142  0.0892 -0.4592
   13SAPS  H13X 1712   5.110  -0.019   4.583  1.3796  0.4063 -0.1016
   13SAPS  H13Y 1713   5.057   0.130   4.490  0.0867  0.0238 -1.8405
   13SAPS  C314 1714   5.264   0.089   4.484 -0.4631 -0.1332  0.5020
   13SAPS  H14X 1715   5.277   0.167   4.406 -0.2311  0.4351  1.0966
   13SAPS  H14Y 1716   5.307  -0.007   4.450  0.6379 -0.8387  3.5536
   13SAPS  C315 1717   5.321   0.136   4.617  0.1819 -0.2487 -0.2190
   13SAPS  H15X 1718   5.429   0.108   4.617  0.9135  2.1596 -2.1778
   13SAPS  H15Y 1719   5.269   0.077   4.696 -0.7278  0.6884 -0.1009
   13SAPS  C316 1720   5.312   0.287   4.634 -0.2025 -0.5023  0.1963
   13SAPS  H16X 1721   5.206   0.311   4.614  0.2038  1.1361 -0.1208
   13SAPS  H16Y 1722   5.380   0.321   4.552 -0.7753 -0.5832 -0.3250
   13SAPS  C317 1723   5.353   0.322   4.770 -0.0588 -0.9195  0.6101
   13SAPS  H17X 1724   5.459   0.292   4.784  0.3279  0.2184  0.2934
   13SAPS  H17Y 1725   5.293   0.268   4.846  0.4864 -3.9941 -0.9568
   13SAPS  C318 1726   5.345   0.472   4.780 -0.3648 -0.0379  0.0515
   13SAPS  H18X 1727   5.421   0.519   4.714 -0.7754  3.3816  1.7994
   13SAPS  H18Y 1728   5.365   0.507   4.883 -0.7603  0.9783 -0.1954
   13SAPS  H18Z 1729   5.240   0.507   4.769 -1.2386 -1.2707  3.3793
   14SAPS     N 1730   4.694   1.036   2.658 -0.9761 -0.8037  0.4534
   14SAPS   HN1 1731   4.710   1.067   2.756  0.6505 -1.0886  0.2973
   14SAPS   HN2 1732   4.754   0.954   2.637  0.7261  0.5714 -0.3167
   14SAPS   HN3 1733   4.734   1.116   2.605  0.9056 -1.8701  0.1861
   14SAPS   C12 1734   4.558   1.021   2.604 -0.2480 -0.2668  0.2925
   14SAPS  H12A 1735   4.558   1.061   2.504 -2.2772  1.5791  0.9606
   14SAPS   C13 1736   4.508   0.877   2.608 -0.7177  0.2551 -0.2423
   14SAPS  O13A 1737   4.592   0.778   2.628 -0.3458 -0.2040 -0.0914
   14SAPS  O13B 1738   4.393   0.851   2.576 -0.2967  0.3163 -0.2519
   14SAPS   C11 1739   4.443   1.108   2.682 -0.8259 -0.3244 -0.6151
   14SAPS  H11A 1740   4.405   1.068   2.779 -0.3622  1.6599  0.4279
   14SAPS  H11B 1741   4.353   1.117   2.619 -1.0905 -0.9500 -0.3383
   14SAPS     P 1742   4.419   1.361   2.691  0.2748  0.3406 -0.0958
   14SAPS   O13 1743   4.500   1.480   2.718 -0.2158  0.4163 -0.5435
   14SAPS   O14 1744   4.364   1.363   2.557  0.4515 -0.1779  0.2333
   14SAPS   O12 1745   4.507   1.232   2.711 -0.1683 -0.3041  0.0391
   14SAPS   O11 1746   4.303   1.358   2.801  0.4532 -0.1215 -0.1546
   14SAPS    C1 1747   4.316   1.343   2.938  0.2559 -0.3928  0.1069
   14SAPS    HA 1748   4.285   1.245   2.981 -0.5487 -1.1775 -2.1608
   14SAPS    HB 1749   4.424   1.357   2.964  0.3523 -0.0981 -0.4530
   14SAPS    C2 1750   4.234   1.461   3.013 -0.1038  0.1680 -0.5281
   14SAPS    HS 1751   4.261   1.552   2.955  0.0060 -1.0070 -2.4118
   14SAPS   O21 1752   4.286   1.474   3.157  0.2574  0.4084  0.6631
   14SAPS   C21 1753   4.394   1.538   3.163  0.0509  0.1457 -0.4080
   14SAPS   O22 1754   4.463   1.589   3.077  0.2370  0.2136 -0.6248
   14SAPS   C22 1755   4.436   1.539   3.313  0.0238 -0.2954 -0.4961
   14SAPS   H2R 1756   4.351   1.506   3.376  1.5750 -0.8963  1.3799
   14SAPS   H2S 1757   4.511   1.457   3.322  2.3987  1.7642 -0.4597
   14SAPS    C3 1758   4.082   1.448   3.006  0.2481  0.7510 -0.0017
   14SAPS    HX 1759   4.052   1.342   3.020  0.3687  0.7643  0.3703
   14SAPS    HY 1760   4.058   1.485   2.904 -1.1217  1.2558  0.4784
   14SAPS   O31 1761   4.013   1.550   3.083 -0.4756 -0.3985 -0.0587
   14SAPS   C31 1762   3.944   1.503   3.190  0.2199  0.2219 -0.2436
   14SAPS   O32 1763   3.923   1.386   3.217  0.1952  0.2655  0.3705
   14SAPS   C32 1764   3.879   1.628   3.260 -0.1084 -0.3155 -0.4874
   14SAPS   H2X 1765   3.771   1.632   3.238 -0.6902 -0.8459  1.9282
   14SAPS   H2Y 1766   3.928   1.725   3.236 -0.4152 -0.1073 -0.2710
   14SAPS   C23 1767   4.508   1.671   3.353  0.0395  0.3790  0.9554
   14SAPS   H3R 1768   4.430   1.749   3.340  1.1314  1.5088  1.0767
   14SAPS   H3S 1769   4.596   1.696   3.291 -1.3413 -0.9322 -1.7068
   14SAPS   C24 1770   4.547   1.675   3.504 -0.1230  0.5531  0.5713
   14SAPS   H4R 1771   4.590   1.776   3.523  0.3725  0.6532 -0.9678
   14SAPS   H4S 1772   4.626   1.604   3.537 -1.3322 -1.7685 -1.1957
   14SAPS   C25 1773   4.431   1.658   3.600 -0.4368 -0.5212  0.0909
   14SAPS   H5R 1774   4.339   1.617   3.556 -0.0328 -0.3632 -0.9087
   14SAPS   C26 1775   4.434   1.703   3.725  0.5651 -0.0998  0.2949
   14SAPS   H6R 1776   4.348   1.691   3.793  0.2080 -0.4983 -0.2217
   14SAPS   C27 1777   4.561   1.757   3.783 -0.6460 -0.2648 -0.2877
   14SAPS   H7R 1778   4.652   1.708   3.744  0.5547 -1.1203  3.2866
   14SAPS   H7S 1779   4.562   1.743   3.893  1.4226  0.9174 -0.1062
   14SAPS   C28 1780   4.573   1.909   3.763 -0.2842  0.4668 -0.4689
   14SAPS   H8R 1781   4.655   1.949   3.701  0.3061  2.4778  1.4710
   14SAPS   C29 1782   4.514   1.997   3.851  0.1323  0.3520  0.6440
   14SAPS   H9R 1783   4.534   2.105   3.836  0.3816  0.5578  2.2439
   14SAPS  C210 1784   4.409   1.961   3.959  0.0431  0.0030 -0.5455
   14SAPS  H10R 1785   4.446   1.873   4.017  1.5146  1.1607  0.3652
   14SAPS  H10S 1786   4.312   1.938   3.911  0.7177 -0.4754 -1.7327
   14SAPS  C211 1787   4.397   2.078   4.058  0.1731  0.4509  0.1422
   14SAPS  H11R 1788   4.348   2.168   4.017  0.1033  0.8371  1.0366
   14SAPS  C212 1789   4.444   2.078   4.185  0.2503  0.3845  0.1340
   14SAPS  H12R 1790   4.425   2.165   4.250 -2.3768  1.2631 -1.6320
   14SAPS  C213 1791   4.507   1.967   4.262  0.0210 -0.0238  0.6786
   14SAPS  H13R 1792   4.555   2.018   4.349  3.1530 -1.3861 -0.1021
   14SAPS  H13S 1793   4.596   1.921   4.214 -0.1243 -0.4430  0.8091
   14SAPS  C214 1794   4.410   1.861   4.306 -0.4266  0.4505 -1.5773
   14SAPS  H14R 1795   4.409   1.769   4.246 -1.1075 -0.5384 -0.0979
   14SAPS  C215 1796   4.352   1.851   4.425  0.1608 -0.0059  0.0902
   14SAPS  H15R 1797   4.281   1.770   4.444 -0.4875  0.3200 -0.8347
   14SAPS  C216 1798   4.354   1.960   4.527  0.4438  0.3961 -0.5792
   14SAPS  H16R 1799   4.252   1.990   4.560 -0.2494 -2.1631 -0.1874
   14SAPS  H16S 1800   4.404   2.049   4.483  1.3162 -0.3893 -1.2458
   14SAPS  C217 1801   4.423   1.931   4.663  0.2552 -0.0049 -0.0974
   14SAPS  H17R 1802   4.523   1.884   4.653  0.8035  1.0242  0.3106
   14SAPS  H17S 1803   4.360   1.851   4.706  0.7578  0.4253  1.5018
   14SAPS  C218 1804   4.437   2.057   4.749  0.0434  0.4971  0.2410
   14SAPS  H18R 1805   4.460   2.024   4.853 -2.0057  0.8865  0.8751
   14SAPS  H18S 1806   4.335   2.097   4.770 -0.3779 -0.0444 -0.7128
   14SAPS  C219 1807   4.530   2.171   4.710 -0.0258 -0.0399  0.0428
   14SAPS  H19R 1808   4.495   2.218   4.617  3.0574 -0.3103 -1.3719
   14SAPS  H19S 1809   4.632   2.133   4.690  0.4473 -1.0059  3.5767
   14SAPS  C220 1810   4.529   2.273   4.821 -0.0104 -0.4886  0.0441
   14SAPS  H20R 1811   4.519   2.227   4.921 -0.1867  0.8085  0.6354
   14SAPS  H20S 1812   4.444   2.344   4.819  0.5246  0.1480 -0.6093
   14SAPS  H20T 1813   4.621   2.334   4.812  0.5946 -1.6165 -2.5742
   14SAPS   C33 1814   3.890   1.619   3.417  0.1732  0.8392 -0.7390
   14SAPS   H3X 1815   3.995   1.606   3.450  0.1425 -0.4304 -1.0747
   14SAPS   H3Y 1816   3.838   1.521   3.431  0.8677  0.4083 -1.1498
   14SAPS   C34 1817   3.818   1.731   3.484  0.3704 -0.4201  0.4736
   14SAPS   H4X 1818   3.715   1.738   3.442 -0.6242  0.5423  2.8946
   14SAPS   H4Y 1819   3.879   1.820   3.456  2.1645 -1.1902  1.7399
   14SAPS   C35 1820   3.811   1.725   3.636  0.6597 -0.3574  0.3528
   14SAPS   H5X 1821   3.761   1.633   3.673 -0.1527 -0.5960 -1.2351
   14SAPS   H5Y 1822   3.746   1.807   3.673  0.7223 -0.9436  1.7907
   14SAPS   C36 1823   3.946   1.749   3.703 -0.3043  0.4328 -0.0197
   14SAPS   H6X 1824   3.974   1.854   3.677  0.3389  0.9645  2.4834
   14SAPS   H6Y 1825   4.031   1.688   3.666  1.4041  2.4073  0.4447
   14SAPS   C37 1826   3.930   1.736   3.852 -0.2015 -0.1661 -0.0069
   14SAPS   H7X 1827   3.911   1.629   3.877 -1.0334  0.3324  1.6011
   14SAPS   H7Y 1828   3.840   1.798   3.872  0.8735  2.3286 -2.2521
   14SAPS   C38 1829   4.033   1.811   3.934  0.1513  0.1070  0.8494
   14SAPS   H8X 1830   4.024   1.920   3.917 -0.5882 -0.2014 -0.9750
   14SAPS   H8Y 1831   4.132   1.779   3.896 -0.5661 -2.6486  1.0670
   14SAPS   C39 1832   4.034   1.773   4.075  0.0414 -0.7532 -0.2450
   14SAPS   H9X 1833   4.123   1.821   4.120 -0.0342 -1.2881  0.5007
   14SAPS   H9Y 1834   4.042   1.665   4.097  0.6749 -0.6681 -0.0526
   14SAPS  C310 1835   3.904   1.813   4.146 -0.4554 -0.3930 -0.7182
   14SAPS  H10X 1836   3.823   1.756   4.096 -0.8092  0.0691 -0.6792
   14SAPS  H10Y 1837   3.878   1.920   4.128 -1.4010 -0.6324 -0.8008
   14SAPS  C311 1838   3.912   1.779   4.294 -0.8070  0.9186 -1.0561
   14SAPS  H11X 1839   3.983   1.697   4.319 -1.1809  1.6077  2.9397
   14SAPS  H11Y 1840   3.820   1.733   4.333  2.0079 -2.3325  2.5166
   14SAPS  C312 1841   3.955   1.896   4.379  0.3777  0.8219 -0.4141
   14SAPS  H12X 1842   3.870   1.967   4.378 -1.0851 -0.7481  1.6434
   14SAPS  H12Y 1843   4.039   1.955   4.338 -0.0766  2.7327  1.2456
   14SAPS  C313 1844   3.977   1.857   4.524 -0.2283 -0.6464 -0.2997
   14SAPS  H13X 1845   3.993   1.958   4.567  0.4113  0.4780 -2.9475
   14SAPS  H13Y 1846   4.058   1.783   4.538 -1.0623 -1.8963 -1.8079
   14SAPS  C314 1847   3.851   1.797   4.590  0.2381 -0.4955  0.3879
   14SAPS  H14X 1848   3.832   1.703   4.535  0.0749 -1.6434  2.3094
   14SAPS  H14Y 1849   3.772   1.873   4.570  0.8645 -0.5142 -2.6154
   14SAPS  C315 1850   3.862   1.789   4.746 -0.2783  0.4938  0.8503
   14SAPS  H15X 1851   3.896   1.893   4.768  0.8305  0.3077  0.1396
   14SAPS  H15Y 1852   3.952   1.725   4.765  0.5796  1.1479 -0.7749
   14SAPS  C316 1853   3.728   1.775   4.829 -0.0175  0.3068  0.1123
   14SAPS  H16X 1854   3.668   1.868   4.822  2.5165  2.1719  1.5329
   14SAPS  H16Y 1855   3.759   1.766   4.935 -0.2603  0.6946  0.2185
   14SAPS  C317 1856   3.652   1.641   4.802  0.0538 -0.1272  0.4021
   14SAPS  H17X 1857   3.567   1.635   4.873 -0.8437 -5.2450 -0.7250
   14SAPS  H17Y 1858   3.730   1.562   4.806  0.2000 -0.4053 -3.7308
   14SAPS  C318 1859   3.585   1.627   4.658 -0.7242 -0.8093  0.1708
   14SAPS  H18X 1860   3.658   1.612   4.575  0.3644  1.2116  0.6835
   14SAPS  H18Y 1861   3.532   1.718   4.626 -0.7464 -0.0002  2.3101
   14SAPS  H18Z 1862   3.515   1.541   4.669  1.0765 -2.5434 -1.0798
   15SAPS     N 1863   1.512   2.440   2.738  0.2088 -0.0859  0.6867
   15SAPS   HN1 1864   1.540   2.511   2.668  2.3922  0.1193  1.6960
   15SAPS   HN2 1865   1.581   2.437   2.816  1.3246 -3.3135 -0.2788
   15SAPS   HN3 1866   1.507   2.344   2.697 -0.9074 -0.3569  1.3934
   15SAPS   C12 1867   1.385   2.490   2.798  0.0302  0.1491 -0.3698
   15SAPS  H12A 1868   1.404   2.581   2.853  0.7905  0.4192 -1.0579
   15SAPS   C13 1869   1.277   2.532   2.698  0.0223 -0.1267  0.0986
   15SAPS  O13A 1870   1.276   2.491   2.575 -0.5057 -0.0176  0.1491
   15SAPS  O13B 1871   1.193   2.623   2.731 -0.1028 -0.0339  0.1157
   15SAPS   C11 1872   1.323   2.394   2.898 -0.3904 -0.1957 -0.0339
   15SAPS  H11A 1873   1.230   2.435   2.941 -0.4265 -0.9183  0.5911
   15SAPS  H11B 1874   1.395   2.399   2.983  2.0389  1.4752 -2.0404
   15SAPS     P 1875   1.202   2.156   2.890 -0.1412 -0.1175 -0.0447
   15SAPS   O13 1876   1.080   2.195   2.818  0.0400  0.3117 -0.2809
   15SAPS   O14 1877   1.255   2.022   2.859  0.8970 -0.3662 -0.4504
   15SAPS   O12 1878   1.318   2.256   2.858  0.2702  0.2033 -0.1241
   15SAPS   O11 1879   1.187   2.177   3.042 -0.3609  0.1937  0.3634
   15SAPS    C1 1880   1.265   2.103   3.136  0.2459  0.4649 -0.4377
   15SAPS    HA 1881   1.277   1.996   3.108  2.7874  0.3798  0.7016
   15SAPS    HB 1882   1.365   2.152   3.134 -0.3144  1.6813  0.3631
   15SAPS    C2 1883   1.202   2.109   3.283  0.6797  0.2901  0.9161
   15SAPS    HS 1884   1.104   2.063   3.258  0.6973 -0.5365  2.2530
   15SAPS   O21 1885   1.203   2.242   3.328 -0.0140 -1.1680  0.5148
   15SAPS   C21 1886   1.322   2.298   3.364  0.1798  0.2376  0.0186
   15SAPS   O22 1887   1.431   2.264   3.335  0.2055  0.3760 -0.1278
   15SAPS   C22 1888   1.293   2.419   3.445 -0.2655  0.4206  0.5126
   15SAPS   H2R 1889   1.301   2.506   3.375  1.9797  0.7393  1.0894
   15SAPS   H2S 1890   1.189   2.421   3.482 -0.5407  1.7249 -0.2642
   15SAPS    C3 1891   1.265   2.010   3.383  0.2038 -1.0262 -0.2882
   15SAPS    HX 1892   1.376   2.014   3.391  0.2074 -1.3932 -0.0897
   15SAPS    HY 1893   1.260   1.908   3.338  1.0666 -0.1054 -2.6195
   15SAPS   O31 1894   1.218   2.020   3.521 -0.3750  0.1621 -0.3381
   15SAPS   C31 1895   1.089   1.983   3.546 -0.6573 -0.2503 -0.7239
   15SAPS   O32 1896   1.002   1.976   3.460  0.3657 -0.5782  0.2878
   15SAPS   C32 1897   1.056   1.974   3.693  0.2312  0.1468 -0.1956
   15SAPS   H2X 1898   0.952   1.937   3.704  0.2055  0.0772 -0.6499
   15SAPS   H2Y 1899   1.058   2.077   3.734  0.8276  0.5481 -1.2164
   15SAPS   C23 1900   1.403   2.437   3.556 -0.2303  0.3246 -0.8676
   15SAPS   H3R 1901   1.383   2.533   3.609  0.1022  0.2675 -0.6285
   15SAPS   H3S 1902   1.505   2.446   3.512 -0.7727  0.4386 -2.1191
   15SAPS   C24 1903   1.390   2.326   3.660  0.0923 -0.4454 -0.2444
   15SAPS   H4R 1904   1.401   2.230   3.605 -0.8110  0.2520 -1.7063
   15SAPS   H4S 1905   1.290   2.322   3.708 -0.0882  0.8337 -0.4780
   15SAPS   C25 1906   1.503   2.349   3.760 -0.6957  0.6454 -0.1318
   15SAPS   H5R 1907   1.601   2.379   3.721  0.6915 -0.3595  2.3325
   15SAPS   C26 1908   1.488   2.348   3.893 -0.1032 -0.1523 -0.1893
   15SAPS   H6R 1909   1.579   2.364   3.953  2.3667 -3.8647 -2.5261
   15SAPS   C27 1910   1.370   2.314   3.977 -0.9788  0.1058 -0.7355
   15SAPS   H7R 1911   1.320   2.233   3.920 -1.5923  1.4407 -2.1444
   15SAPS   H7S 1912   1.304   2.401   3.998 -0.7257 -0.1967  1.6653
   15SAPS   C28 1913   1.406   2.247   4.106  0.6629  0.6145 -0.4930
   15SAPS   H8R 1914   1.478   2.163   4.105 -1.2719 -1.2051  1.2548
   15SAPS   C29 1915   1.348   2.268   4.229  0.0088  0.6089 -0.3833
   15SAPS   H9R 1916   1.394   2.214   4.313 -0.0285 -0.3015 -0.9295
   15SAPS  C210 1917   1.229   2.359   4.247 -0.0388  1.1815 -0.4730
   15SAPS  H10R 1918   1.151   2.351   4.168 -0.9924 -1.2938  0.6305
   15SAPS  H10S 1919   1.262   2.465   4.257  0.7374  0.8127  1.2632
   15SAPS  C211 1920   1.146   2.332   4.378 -0.4480 -0.8005  0.3125
   15SAPS  H11R 1921   1.215   2.305   4.460  1.6578  1.4999 -0.5536
   15SAPS  C212 1922   1.013   2.331   4.393 -0.1084  0.9010 -0.6360
   15SAPS  H12R 1923   0.984   2.298   4.493 -0.8533  1.1001 -0.7800
   15SAPS  C213 1924   0.900   2.363   4.296  0.7185  0.4229 -0.3315
   15SAPS  H13R 1925   0.806   2.372   4.354  0.2507 -3.0471 -0.3620
   15SAPS  H13S 1926   0.879   2.273   4.235 -0.6697  1.3937 -1.3380
   15SAPS  C214 1927   0.904   2.479   4.200 -1.0996  0.8474 -0.7196
   15SAPS  H14R 1928   0.875   2.577   4.242  0.0246  1.1599 -0.6422
   15SAPS  C215 1929   0.914   2.469   4.070  0.3391 -0.0228 -0.3456
   15SAPS  H15R 1930   0.923   2.563   4.013  3.7486  0.4577  0.7539
   15SAPS  C216 1931   0.935   2.352   3.979 -0.0738 -0.2746 -0.0188
   15SAPS  H16R 1932   0.906   2.254   4.023  2.5039 -0.8230  0.6581
   15SAPS  H16S 1933   1.046   2.349   3.973 -0.0287  1.6463 -0.8188
   15SAPS  C217 1934   0.862   2.385   3.847  0.1827  0.7332  0.2047
   15SAPS  H17R 1935   0.892   2.490   3.824  0.3358  0.8455  0.8904
   15SAPS  H17S 1936   0.752   2.393   3.860 -0.1236 -0.1964 -1.5266
   15SAPS  C218 1937   0.906   2.293   3.737 -0.4913  0.5031 -0.5032
   15SAPS  H18R 1938   0.897   2.185   3.762  0.1785  0.7229  0.8292
   15SAPS  H18S 1939   1.016   2.306   3.730 -0.2133 -0.5534  1.0901
   15SAPS  C219 1940   0.830   2.316   3.608  0.0920  0.8376 -0.1437
   15SAPS  H19R 1941   0.727   2.291   3.639 -0.3517  1.1835 -1.2741
   15SAPS  H19S 1942   0.865   2.239   3.535  1.5892  0.1862  1.2043
   15SAPS  C220 1943   0.843   2.455   3.552  0.6108  0.0159  0.3342
   15SAPS  H20R 1944   0.953   2.468   3.542  0.3853  1.3843 -0.5872
   15SAPS  H20S 1945   0.798   2.523   3.628  1.1278 -1.3136  1.8979
   15SAPS  H20T 1946   0.791   2.462   3.454  0.3522 -0.5390  0.4279
   15SAPS   C33 1947   1.155   1.887   3.772  0.5657 -0.2937  0.5315
   15SAPS   H3X 1948   1.251   1.941   3.783 -0.1558  1.0831  0.3033
   15SAPS   H3Y 1949   1.192   1.796   3.720  0.4501 -0.0381 -0.0002
   15SAPS   C34 1950   1.110   1.842   3.912 -0.3692 -0.1216  0.5532
   15SAPS   H4X 1951   1.149   1.741   3.936  0.0912  0.4300  2.2645
   15SAPS   H4Y 1952   0.999   1.849   3.907 -0.2791  2.5196  0.4978
   15SAPS   C35 1953   1.147   1.934   4.028  0.6029  0.5708 -0.3927
   15SAPS   H5X 1954   1.099   2.033   4.017 -0.6779  0.0985  0.5484
   15SAPS   H5Y 1955   1.258   1.935   4.028  0.6418 -0.7886 -0.4474
   15SAPS   C36 1956   1.089   1.863   4.153 -0.3385 -0.3221 -0.0203
   15SAPS   H6X 1957   1.140   1.765   4.166  0.4796 -0.0837 -1.2875
   15SAPS   H6Y 1958   0.982   1.840   4.133  0.1566 -1.5898 -1.4100
   15SAPS   C37 1959   1.099   1.950   4.277 -1.0632 -0.3339  0.0489
   15SAPS   H7X 1960   1.026   2.033   4.262 -0.0445  0.4155 -0.8604
   15SAPS   H7Y 1961   1.197   1.994   4.305  0.0778 -2.7772  0.1769
   15SAPS   C38 1962   1.042   1.876   4.397 -1.1254  0.0247  0.0093
   15SAPS   H8X 1963   1.124   1.803   4.418 -2.7845 -1.5389  1.4031
   15SAPS   H8Y 1964   0.953   1.817   4.367 -0.4304 -0.4067 -1.3034
   15SAPS   C39 1965   1.016   1.968   4.520  0.0050  0.2101  0.2263
   15SAPS   H9X 1966   0.918   2.017   4.499  0.2846  0.4580 -0.5189
   15SAPS   H9Y 1967   1.100   2.040   4.534  0.1074 -0.0786  1.2037
   15SAPS  C310 1968   1.015   1.898   4.651 -0.5590 -0.1366 -0.2826
   15SAPS  H10X 1969   0.954   1.807   4.631  1.0641 -0.9057 -2.0392
   15SAPS  H10Y 1970   0.973   1.949   4.740  0.3894 -1.5541  1.0354
   15SAPS  C311 1971   1.151   1.839   4.698  0.6161 -0.5263  0.5650
   15SAPS  H11X 1972   1.178   1.757   4.627 -1.2526 -0.1446 -0.6586
   15SAPS  H11Y 1973   1.125   1.791   4.795 -3.3251 -1.0267 -0.5841
   15SAPS  C312 1974   1.265   1.937   4.716 -0.1761  0.1870  1.5439
   15SAPS  H12X 1975   1.277   1.996   4.622  3.0332 -1.4425  0.8087
   15SAPS  H12Y 1976   1.354   1.871   4.716 -0.3107  0.0024  1.3246
   15SAPS  C313 1977   1.253   2.046   4.819  0.3778 -0.3755 -0.3626
   15SAPS  H13X 1978   1.170   2.115   4.793  0.7451 -0.3028 -1.3823
   15SAPS  H13Y 1979   1.346   2.106   4.831  0.7890 -1.0845  0.0571
   15SAPS  C314 1980   1.199   1.983   4.951 -0.0019  0.0274  0.4260
   15SAPS  H14X 1981   1.245   1.887   4.984 -1.0958 -0.7847 -0.3668
   15SAPS  H14Y 1982   1.094   1.954   4.930  0.7740 -2.2459 -0.6445
   15SAPS  C315 1983   1.187   2.079   5.067  0.6235 -0.5244  0.2578
   15SAPS  H15X 1984   1.118   2.162   5.044  1.4049  0.9719  2.8803
   15SAPS  H15Y 1985   1.290   2.118   5.084  0.4621  0.7669 -1.4816
   15SAPS  C316 1986   1.144   2.001   5.196  0.6543  1.0444  0.2417
   15SAPS  H16X 1987   1.205   1.911   5.218 -0.8301 -1.0352 -3.3078
   15SAPS  H16Y 1988   1.040   1.965   5.178  1.2074 -0.7546  0.4616
   15SAPS  C317 1989   1.138   2.091   5.321  0.4569  0.9279 -0.7954
   15SAPS  H17X 1990   1.045   2.152   5.323 -1.0080 -1.0782 -2.8519
   15SAPS  H17Y 1991   1.225   2.158   5.310 -0.0791  1.4813 -1.8544
   15SAPS  C318 1992   1.159   2.014   5.457 -0.5580  0.1271  0.5431
   15SAPS  H18X 1993   1.098   1.922   5.446  0.0366 -0.1902 -0.2265
   15SAPS  H18Y 1994   1.135   2.064   5.554 -0.4695 -1.4482  1.4114
   15SAPS  H18Z 1995   1.264   1.978   5.462 -1.1150 -1.4344  1.9423
   16SAPS     N 1996   2.307   2.436   2.127 -0.7847  0.3844  0.3157
   16SAPS   HN1 1997   2.375   2.358   2.125 -3.1511 -1.9116 -2.7637
   16SAPS   HN2 1998   2.225   2.382   2.092 -0.4037 -1.1201  1.6169
   16SAPS   HN3 1999   2.327   2.503   2.050 -1.9256 -0.2874 -0.6091
   16SAPS   C12 2000   2.276   2.500   2.256  0.1610  0.1132  0.1786
   16SAPS  H12A 2001   2.374   2.515   2.300 -0.5637  0.5097  1.7076
   16SAPS   C13 2002   2.200   2.638   2.250  0.2380  0.4380 -0.0951
   16SAPS  O13A 2003   2.180   2.691   2.135  0.1893 -0.5850  0.7684
   16SAPS  O13B 2004   2.190   2.712   2.351  0.4536  0.4014  0.0192
   16SAPS   C11 2005   2.200   2.396   2.344  0.5769 -0.3528  0.1331
   16SAPS  H11A 2006   2.113   2.360   2.285  0.5913 -1.4810  0.7633
   16SAPS  H11B 2007   2.160   2.450   2.432  1.9830  2.5460 -0.8786
   16SAPS     P 2008   2.353   2.273   2.515 -0.0494 -0.1088 -0.3512
   16SAPS   O13 2009   2.403   2.133   2.539 -0.2928 -0.9104  0.0906
   16SAPS   O14 2010   2.452   2.383   2.522  0.5561 -0.4698  0.5170
   16SAPS   O12 2011   2.278   2.281   2.375  0.1190 -0.1068 -0.3228
   16SAPS   O11 2012   2.236   2.300   2.618 -0.2838  0.4400 -0.5178
   16SAPS    C1 2013   2.113   2.233   2.633 -0.1102 -0.7763 -0.5774
   16SAPS    HA 2014   2.035   2.277   2.566  0.8703 -1.3002 -2.0979
   16SAPS    HB 2015   2.136   2.130   2.600  1.9996  0.7318 -4.4324
   16SAPS    C2 2016   2.074   2.231   2.778 -0.6389  0.5303 -0.7930
   16SAPS    HS 2017   2.067   2.337   2.811 -4.2659  0.7556 -1.8286
   16SAPS   O21 2018   2.182   2.174   2.858 -0.1348 -0.2119  0.0848
   16SAPS   C21 2019   2.199   2.209   2.983 -0.8643 -0.4089  0.5704
   16SAPS   O22 2020   2.155   2.307   3.043 -1.0569 -0.6036 -0.3123
   16SAPS   C22 2021   2.308   2.115   3.035 -0.4953  0.2209 -0.0011
   16SAPS   H2R 2022   2.304   2.024   2.970 -1.5738  0.7565 -0.7260
   16SAPS   H2S 2023   2.405   2.164   3.014 -0.2458 -0.6496 -0.9921
   16SAPS    C3 2024   1.934   2.163   2.806 -0.3639  0.3541 -0.1111
   16SAPS    HX 2025   1.942   2.055   2.783 -0.5260  0.9028 -3.1760
   16SAPS    HY 2026   1.867   2.206   2.728  1.3208  0.1526 -1.7186
   16SAPS   O31 2027   1.889   2.183   2.941 -0.6900  0.5783  0.6747
   16SAPS   C31 2028   1.789   2.100   2.982 -0.4274 -0.1419  0.6638
   16SAPS   O32 2029   1.740   2.029   2.901  0.0995 -0.1867 -0.2688
   16SAPS   C32 2030   1.757   2.116   3.128  0.5493  0.6216 -0.3578
   16SAPS   H2X 2031   1.709   2.216   3.141 -0.1942  0.2159  0.0465
   16SAPS   H2Y 2032   1.846   2.124   3.194  0.6558 -1.8469 -0.1325
   16SAPS   C23 2033   2.306   2.073   3.182  0.1245  0.7502 -0.1964
   16SAPS   H3R 2034   2.212   2.026   3.219  0.8469 -0.2049  0.4636
   16SAPS   H3S 2035   2.316   2.161   3.248 -2.8105 -0.6758  2.4152
   16SAPS   C24 2036   2.418   1.966   3.212  0.1620  0.5314 -0.5095
   16SAPS   H4R 2037   2.411   1.882   3.141  1.3005 -0.5042  0.5470
   16SAPS   H4S 2038   2.384   1.918   3.307 -2.1659 -0.6094 -1.8507
   16SAPS   C25 2039   2.559   2.006   3.225  0.2231 -1.3888  0.5593
   16SAPS   H5R 2040   2.597   2.058   3.136 -1.8179 -0.4397  0.1851
   16SAPS   C26 2041   2.642   2.002   3.331  0.1807  0.1985  0.3854
   16SAPS   H6R 2042   2.743   2.040   3.309 -0.6449  0.9240 -2.5941
   16SAPS   C27 2043   2.629   1.941   3.464 -0.4303  0.2273 -0.0430
   16SAPS   H7R 2044   2.729   1.938   3.514 -0.5270  0.4645  0.1698
   16SAPS   H7S 2045   2.609   1.832   3.458 -0.0769  0.0892  0.9869
   16SAPS   C28 2046   2.537   2.017   3.557  0.0426 -0.3349  0.0527
   16SAPS   H8R 2047   2.491   2.111   3.525 -0.5845 -0.8826 -0.6731
   16SAPS   C29 2048   2.532   1.989   3.689 -0.0783  0.5565  0.3860
   16SAPS   H9R 2049   2.483   2.063   3.754 -1.4398  1.6636 -1.7696
   16SAPS  C210 2050   2.586   1.864   3.764  0.0621  0.7195  0.6610
   16SAPS  H10R 2051   2.611   1.774   3.703  1.8071  1.4108  0.3131
   16SAPS  H10S 2052   2.507   1.827   3.833 -0.0384  1.5201  0.9886
   16SAPS  C211 2053   2.707   1.890   3.847  0.4470  0.2996 -0.1133
   16SAPS  H11R 2054   2.799   1.879   3.789  0.8647 -0.8307  0.7287
   16SAPS  C212 2055   2.706   1.930   3.976  0.1088 -0.1253 -0.7247
   16SAPS  H12R 2056   2.801   1.945   4.030 -0.6998  0.0617  0.6841
   16SAPS  C213 2057   2.589   1.949   4.072 -0.3230  0.0242  0.7600
   16SAPS  H13R 2058   2.512   2.006   4.015  0.0075 -2.4106 -2.4140
   16SAPS  H13S 2059   2.618   2.002   4.165 -0.0863 -2.0036  1.9079
   16SAPS  C214 2060   2.532   1.823   4.110  0.3658  0.0685  0.0991
   16SAPS  H14R 2061   2.517   1.740   4.039 -0.2975 -1.0837  1.5342
   16SAPS  C215 2062   2.478   1.799   4.232 -0.1131 -0.2628  0.4496
   16SAPS  H15R 2063   2.430   1.701   4.245  0.6807 -0.7142  0.0794
   16SAPS  C216 2064   2.473   1.884   4.353 -0.8786 -0.9484  0.3887
   16SAPS  H16R 2065   2.370   1.875   4.395 -0.5539  0.7534  1.6738
   16SAPS  H16S 2066   2.490   1.989   4.322 -1.7323 -0.0884  2.6320
   16SAPS  C217 2067   2.570   1.831   4.460  0.7738 -0.2938 -0.5246
   16SAPS  H17R 2068   2.566   1.903   4.545 -1.1249  0.3252 -1.0755
   16SAPS  H17S 2069   2.672   1.816   4.419  0.8855 -0.5098 -0.1758
   16SAPS  C218 2070   2.532   1.692   4.514 -0.2479 -0.5415 -0.1510
   16SAPS  H18R 2071   2.624   1.675   4.573  0.0903  1.6070  0.0212
   16SAPS  H18S 2072   2.532   1.616   4.433 -2.4749  0.1988 -0.9335
   16SAPS  C219 2073   2.407   1.691   4.601 -0.3248 -0.2100 -0.5293
   16SAPS  H19R 2074   2.315   1.712   4.541  1.4071 -0.4759 -3.4817
   16SAPS  H19S 2075   2.411   1.776   4.671 -1.4610 -0.9491  0.4858
   16SAPS  C220 2076   2.393   1.565   4.699 -0.3138 -0.0029 -0.1564
   16SAPS  H20R 2077   2.447   1.573   4.796 -1.5579  0.9140  0.4884
   16SAPS  H20S 2078   2.412   1.467   4.650 -2.3166 -0.0504 -0.9166
   16SAPS  H20T 2079   2.289   1.548   4.732  0.1737 -0.5544  1.1576
   16SAPS   C33 2080   1.650   2.018   3.172 -0.2295  1.1003 -0.0356
   16SAPS   H3X 2081   1.577   2.013   3.089 -0.0414  4.2643 -0.5514
   16SAPS   H3Y 2082   1.594   2.061   3.258 -0.4965  0.4312  0.1291
   16SAPS   C34 2083   1.695   1.877   3.202  0.5275  0.4130  0.1899
   16SAPS   H4X 2084   1.752   1.820   3.126 -0.9315 -0.4026 -0.3204
   16SAPS   H4Y 2085   1.596   1.830   3.215  0.1255  1.4625  1.0619
   16SAPS   C35 2086   1.763   1.861   3.343 -0.0287 -0.1872 -0.4433
   16SAPS   H5X 2087   1.850   1.931   3.340  0.6037 -0.9674 -0.7743
   16SAPS   H5Y 2088   1.786   1.754   3.363  1.0721  0.1751  0.3134
   16SAPS   C36 2089   1.673   1.906   3.461  0.4769 -0.4780  0.7030
   16SAPS   H6X 2090   1.583   1.844   3.445  1.4444 -1.8609  0.3733
   16SAPS   H6Y 2091   1.655   2.014   3.448  1.5053 -0.5043 -1.3132
   16SAPS   C37 2092   1.741   1.879   3.598 -0.1310  0.0605 -0.2819
   16SAPS   H7X 2093   1.849   1.902   3.602  0.1211 -1.0571 -0.2715
   16SAPS   H7Y 2094   1.740   1.770   3.617  3.4873 -0.0952 -0.3015
   16SAPS   C38 2095   1.658   1.948   3.707  0.0075 -0.3630 -0.2564
   16SAPS   H8X 2096   1.551   1.945   3.677  0.5652 -0.6551 -2.3603
   16SAPS   H8Y 2097   1.680   2.057   3.719 -1.0354 -0.1926  0.1837
   16SAPS   C39 2098   1.687   1.878   3.842 -0.0498  0.3689 -0.0590
   16SAPS   H9X 2099   1.796   1.870   3.863 -0.1614  0.4038  0.5674
   16SAPS   H9Y 2100   1.646   1.776   3.827  2.1383 -0.6169  0.1701
   16SAPS  C310 2101   1.616   1.949   3.957  0.3297 -0.3073 -0.3355
   16SAPS  H10X 2102   1.525   2.007   3.932  1.0954  0.6131 -1.0625
   16SAPS  H10Y 2103   1.689   2.028   3.985 -0.5592  0.3617  0.0963
   16SAPS  C311 2104   1.591   1.850   4.068 -0.3298 -0.2321 -0.0886
   16SAPS  H11X 2105   1.697   1.817   4.078  0.8811  3.3751  0.7922
   16SAPS  H11Y 2106   1.523   1.768   4.040  1.5359 -2.0149  0.3579
   16SAPS  C312 2107   1.561   1.914   4.206  0.0181 -0.3383  0.2130
   16SAPS  H12X 2108   1.457   1.952   4.209  0.2941  0.4283  2.4839
   16SAPS  H12Y 2109   1.621   2.008   4.213  1.1986 -0.8127 -2.3365
   16SAPS  C313 2110   1.601   1.814   4.313  0.3491 -0.0504  0.2650
   16SAPS  H13X 2111   1.711   1.808   4.325  0.5399  0.4625 -1.0781
   16SAPS  H13Y 2112   1.566   1.713   4.284  2.5625 -1.4094  1.9924
   16SAPS  C314 2113   1.537   1.844   4.444  0.0716 -0.1282 -0.4073
   16SAPS  H14X 2114   1.553   1.759   4.514  1.3802  0.2420 -0.2390
   16SAPS  H14Y 2115   1.427   1.856   4.436  0.1884  2.7543  1.1197
   16SAPS  C315 2116   1.587   1.978   4.507 -0.0491 -0.2168 -0.2576
   16SAPS  H15X 2117   1.516   2.007   4.587  1.3774  0.9884  0.6252
   16SAPS  H15Y 2118   1.594   2.063   4.436  0.1974  1.8086  2.1061
   16SAPS  C316 2119   1.717   1.971   4.583 -0.6321 -0.3406  0.5184
   16SAPS  H16X 2120   1.755   2.075   4.593  0.5920 -0.6607 -0.5656
   16SAPS  H16Y 2121   1.797   1.916   4.529  0.4285 -1.4695  3.0623
   16SAPS  C317 2122   1.693   1.928   4.728  0.6360 -0.2926  0.2009
   16SAPS  H17X 2123   1.657   1.824   4.713  0.4718  0.1842 -3.7691
   16SAPS  H17Y 2124   1.607   1.993   4.756 -0.1760 -0.9734 -0.6633
   16SAPS  C318 2125   1.808   1.927   4.826  0.1211 -0.6162  0.6902
   16SAPS  H18X 2126   1.775   1.879   4.920 -1.7634 -3.2160 -1.1756
   16SAPS  H18Y 2127   1.841   2.032   4.845  0.4581 -0.5131 -0.3487
   16SAPS  H18Z 2128   1.890   1.863   4.787  0.8521 -0.6116  2.1482
   17SAPS     N 2129   0.195   3.624   2.571 -0.1013 -0.1818 -0.5371
   17SAPS   HN1 2130   0.252   3.538   2.568  0.1324 -0.0898  0.7535
   17SAPS   HN2 2131   0.111   3.605   2.512  1.1334 -2.1919 -1.7558
   17SAPS   HN3 2132   0.250   3.699   2.522 -0.2087  0.0371 -0.3243
   17SAPS   C12 2133   0.172   3.673   2.710  0.2238 -0.3444  0.2501
   17SAPS  H12A 2134   0.262   3.657   2.769  0.3245 -0.2020  0.1380
   17SAPS   C13 2135   0.139   3.824   2.727 -0.4413 -0.3093  0.5474
   17SAPS  O13A 2136   0.117   3.897   2.625 -0.3370 -0.1869  0.5571
   17SAPS  O13B 2137   0.138   3.886   2.839 -0.7520 -0.0604 -0.1633
   17SAPS   C11 2138   0.058   3.586   2.766 -1.2653 -0.2896 -0.1573
   17SAPS  H11A 2139  -0.029   3.603   2.699 -0.1577  2.7185 -0.9875
   17SAPS  H11B 2140   0.034   3.622   2.868 -1.3926  0.8509 -0.5757
   17SAPS     P 2141   0.052   3.357   2.899 -0.2092 -0.2031 -0.1260
   17SAPS   O13 2142  -0.091   3.378   2.902  0.3528 -0.6203 -0.6769
   17SAPS   O14 2143   0.113   3.224   2.887 -0.7587 -0.3220  0.8891
   17SAPS   O12 2144   0.095   3.449   2.779  0.3089  0.0105  0.5167
   17SAPS   O11 2145   0.117   3.436   3.024  0.6652  0.6176  0.1738
   17SAPS    C1 2146   0.256   3.436   3.042 -0.4512 -0.2980  0.1937
   17SAPS    HA 2147   0.293   3.337   3.077  1.3404 -0.3605 -1.7073
   17SAPS    HB 2148   0.313   3.465   2.951 -0.7198 -2.6435 -0.7827
   17SAPS    C2 2149   0.299   3.550   3.139 -0.7083  0.4091  0.7544
   17SAPS    HS 2150   0.409   3.541   3.154 -0.8394  0.0072  1.4817
   17SAPS   O21 2151   0.229   3.526   3.261  0.0215  0.1382 -0.0736
   17SAPS   C21 2152   0.275   3.431   3.338  0.1329  0.8664 -0.3154
   17SAPS   O22 2153   0.376   3.363   3.316  0.2836 -0.1474  0.1829
   17SAPS   C22 2154   0.192   3.439   3.473  0.7267 -0.2515 -0.3794
   17SAPS   H2R 2155   0.184   3.540   3.517 -1.2926 -1.1521  1.5398
   17SAPS   H2S 2156   0.092   3.412   3.433  0.0117 -0.6093  1.5427
   17SAPS    C3 2157   0.253   3.692   3.086  0.1181 -0.1282  0.5044
   17SAPS    HX 2158   0.147   3.682   3.053 -0.1105 -1.5740  1.5763
   17SAPS    HY 2159   0.317   3.726   3.001  2.4486 -0.9231  1.8494
   17SAPS   O31 2160   0.249   3.798   3.184  0.1912  0.0144  0.1618
   17SAPS   C31 2161   0.360   3.829   3.242  1.0127 -0.7048 -0.5233
   17SAPS   O32 2162   0.470   3.809   3.197  0.6051  0.3694  0.3605
   17SAPS   C32 2163   0.327   3.887   3.382  0.3553 -0.3317 -0.2324
   17SAPS   H2X 2164   0.286   3.807   3.449 -0.6354  1.3784  1.3020
   17SAPS   H2Y 2165   0.252   3.969   3.371  0.4294 -0.3940 -1.2133
   17SAPS   C23 2166   0.249   3.348   3.591  0.2531  0.4553 -0.3232
   17SAPS   H3R 2167   0.332   3.402   3.642  0.5034 -2.8238  3.1502
   17SAPS   H3S 2168   0.292   3.257   3.545  1.4186 -0.6638  2.7133
   17SAPS   C24 2169   0.146   3.317   3.695  0.2820  0.0192  0.7246
   17SAPS   H4R 2170   0.055   3.264   3.658 -0.8892  1.1915  1.8272
   17SAPS   H4S 2171   0.104   3.414   3.731 -1.3746 -0.2553 -0.3711
   17SAPS   C25 2172   0.215   3.251   3.809 -0.1613 -0.1134 -0.3145
   17SAPS   H5R 2173   0.244   3.148   3.785  1.2373  0.0681  0.4735
   17SAPS   C26 2174   0.243   3.305   3.931  0.2659  1.3539  0.7471
   17SAPS   H6R 2175   0.315   3.243   3.987  0.6445 -1.0122 -2.1071
   17SAPS   C27 2176   0.196   3.435   3.984  0.8874  0.2271 -0.1915
   17SAPS   H7R 2177   0.085   3.440   3.980  0.8940 -0.3769 -2.0386
   17SAPS   H7S 2178   0.228   3.514   3.913  2.5186 -0.1760  0.0475
   17SAPS   C28 2179   0.252   3.460   4.122 -0.0017  0.0170  0.1274
   17SAPS   H8R 2180   0.311   3.550   4.146  1.1281 -0.8022  0.5248
   17SAPS   C29 2181   0.249   3.373   4.227  0.6343  0.6050 -0.0984
   17SAPS   H9R 2182   0.305   3.402   4.318 -0.3756  0.2354  0.6555
   17SAPS  C210 2183   0.171   3.243   4.236 -0.7255  0.0561  0.4557
   17SAPS  H10R 2184   0.122   3.222   4.138  0.7115 -1.9010  0.0857
   17SAPS  H10S 2185   0.081   3.260   4.299 -0.4511 -1.4598  1.3148
   17SAPS  C211 2186   0.243   3.117   4.269  0.6915 -0.4564 -0.4328
   17SAPS  H11R 2187   0.284   3.064   4.182  3.8993  0.1142  0.6099
   17SAPS  C212 2188   0.245   3.060   4.387 -0.2081  0.8481  0.0985
   17SAPS  H12R 2189   0.315   2.976   4.401 -0.7302  0.0025 -1.8442
   17SAPS  C213 2190   0.202   3.108   4.523 -0.2949 -0.7961  0.1516
   17SAPS  H13R 2191   0.177   3.216   4.521 -2.1913 -1.2060 -0.6703
   17SAPS  H13S 2192   0.285   3.104   4.597  2.6200 -2.6657 -2.9518
   17SAPS  C214 2193   0.090   3.027   4.597  0.2181  0.5987 -0.1332
   17SAPS  H14R 2194   0.036   2.964   4.525 -0.2454  1.5927 -0.6694
   17SAPS  C215 2195   0.044   3.029   4.723 -0.0241 -0.0522 -0.0429
   17SAPS  H15R 2196  -0.045   2.969   4.747  0.1810  0.0439  1.0169
   17SAPS  C216 2197   0.091   3.100   4.846  0.4892  0.7645  0.1939
   17SAPS  H16R 2198   0.165   3.182   4.835 -0.6829  2.1179  1.9029
   17SAPS  H16S 2199   0.142   3.022   4.906 -2.8538 -0.5150  1.6113
   17SAPS  C217 2200  -0.029   3.172   4.932 -0.2557 -0.7812 -0.1673
   17SAPS  H17R 2201  -0.125   3.121   4.911 -0.4890 -0.7818  0.8851
   17SAPS  H17S 2202  -0.040   3.273   4.886 -2.2058 -1.3144 -0.9793
   17SAPS  C218 2203  -0.004   3.184   5.082  0.2756 -0.4594  0.5433
   17SAPS  H18R 2204   0.092   3.236   5.103  0.5375 -0.6600 -0.1330
   17SAPS  H18S 2205  -0.002   3.078   5.115 -1.2879 -0.9585 -0.8618
   17SAPS  C219 2206  -0.111   3.261   5.166  0.1600 -0.8516  0.1968
   17SAPS  H19R 2207  -0.099   3.370   5.155  0.4447 -0.9060 -0.0375
   17SAPS  H19S 2208  -0.062   3.248   5.265  0.1587 -1.2470  0.1489
   17SAPS  C220 2209  -0.255   3.212   5.163  0.1846 -0.0556  0.2917
   17SAPS  H20R 2210  -0.304   3.279   5.236 -0.2669  0.9260 -0.8728
   17SAPS  H20S 2211  -0.272   3.112   5.208 -1.2658  0.3216  0.6149
   17SAPS  H20T 2212  -0.303   3.228   5.064  1.7974  0.9086 -0.3838
   17SAPS   C33 2213   0.449   3.931   3.454 -0.0136 -0.2638  0.5679
   17SAPS   H3X 2214   0.412   3.979   3.547 -2.8519 -0.7069 -0.2452
   17SAPS   H3Y 2215   0.501   4.010   3.396 -0.3457  0.1355  0.8083
   17SAPS   C34 2216   0.552   3.821   3.491 -0.2380  0.1156  0.8419
   17SAPS   H4X 2217   0.647   3.872   3.465 -0.7439  0.4759 -0.3746
   17SAPS   H4Y 2218   0.539   3.741   3.415  3.0811  0.8626 -0.6920
   17SAPS   C35 2219   0.557   3.783   3.639  0.0401  0.5339  0.6654
   17SAPS   H5X 2220   0.449   3.756   3.642  0.5395 -2.0026 -0.9111
   17SAPS   H5Y 2221   0.585   3.875   3.694  0.8443  0.9863 -0.4654
   17SAPS   C36 2222   0.643   3.675   3.688  0.1307 -0.2178  0.0249
   17SAPS   H6X 2223   0.750   3.700   3.671 -0.1371  0.1089 -1.3246
   17SAPS   H6Y 2224   0.619   3.581   3.634 -4.0260  0.0663  1.0440
   17SAPS   C37 2225   0.633   3.637   3.837  0.1770  0.7066 -0.9350
   17SAPS   H7X 2226   0.703   3.552   3.849 -1.2743 -0.6854 -2.0145
   17SAPS   H7Y 2227   0.531   3.605   3.865  0.9706 -0.6661  0.6019
   17SAPS   C38 2228   0.672   3.745   3.928 -0.4039  0.0106 -0.0545
   17SAPS   H8X 2229   0.604   3.829   3.903  2.5974  2.2686 -1.3592
   17SAPS   H8Y 2230   0.775   3.787   3.918 -0.1685  0.3858  2.9743
   17SAPS   C39 2231   0.663   3.721   4.079 -0.1631  0.2199 -0.5161
   17SAPS   H9X 2232   0.728   3.636   4.107 -0.6432  0.2623  0.7867
   17SAPS   H9Y 2233   0.559   3.684   4.093 -0.2097  0.9132  1.2154
   17SAPS  C310 2234   0.700   3.847   4.159  0.3082 -0.3582  0.0273
   17SAPS  H10X 2235   0.636   3.934   4.130 -0.4811 -1.6198 -2.2969
   17SAPS  H10Y 2236   0.795   3.875   4.108  1.6462 -2.4278  1.2679
   17SAPS  C311 2237   0.714   3.817   4.306  0.5017 -0.1418 -0.3193
   17SAPS  H11X 2238   0.628   3.751   4.330 -0.2009 -0.0229 -2.3057
   17SAPS  H11Y 2239   0.699   3.914   4.357 -2.7499 -0.2232 -0.9086
   17SAPS  C312 2240   0.837   3.728   4.344  0.4534  0.7329 -0.1889
   17SAPS  H12X 2241   0.931   3.783   4.322  0.4647  2.0298  2.6941
   17SAPS  H12Y 2242   0.833   3.636   4.281  2.8520 -0.4775  1.2486
   17SAPS  C313 2243   0.834   3.681   4.487  0.3588 -0.9335  0.4999
   17SAPS  H13X 2244   0.927   3.621   4.497  2.1424  1.8424  1.9385
   17SAPS  H13Y 2245   0.744   3.620   4.507  0.8622 -2.2020 -0.9183
   17SAPS  C314 2246   0.827   3.796   4.591  0.2267  0.0844  0.9109
   17SAPS  H14X 2247   0.734   3.856   4.590  1.6969  2.5374 -1.8667
   17SAPS  H14Y 2248   0.907   3.871   4.577 -0.7145  0.8686 -0.4041
   17SAPS  C315 2249   0.849   3.740   4.741  0.5758  0.2966 -0.0008
   17SAPS  H15X 2250   0.766   3.667   4.756 -0.7142  1.8659  0.8488
   17SAPS  H15Y 2251   0.832   3.826   4.809 -1.3714  0.2159 -0.3215
   17SAPS  C316 2252   0.991   3.700   4.770  0.6284  0.7083  0.0807
   17SAPS  H16X 2253   1.062   3.782   4.744 -0.3888  1.1700 -1.3311
   17SAPS  H16Y 2254   1.035   3.622   4.704  1.4365  0.5271  0.8082
   17SAPS  C317 2255   1.004   3.656   4.914 -0.2965 -0.4103 -0.3355
   17SAPS  H17X 2256   0.924   3.584   4.941  0.2630 -1.7240 -2.0236
   17SAPS  H17Y 2257   0.984   3.743   4.981 -1.2934  1.2491 -2.6664
   17SAPS  C318 2258   1.140   3.597   4.945  0.0181  0.4268  0.0354
   17SAPS  H18X 2259   1.217   3.656   4.891  0.7071 -0.3595  0.1429
   17SAPS  H18Y 2260   1.145   3.493   4.908 -1.4938  0.4073 -0.1800
   17SAPS  H18Z 2261   1.169   3.608   5.052  0.3437 -0.1564  0.0097
   18SAPS     N 2262   4.569   6.251   2.800  0.0290  0.4937 -0.9928
   18SAPS   HN1 2263   4.653   6.206   2.842  0.6459  1.5924 -1.0009
   18SAPS   HN2 2264   4.551   6.334   2.859  0.6294 -1.3379  1.9998
   18SAPS   HN3 2265   4.493   6.181   2.812  2.4062 -1.9528  1.1261
   18SAPS   C12 2266   4.603   6.298   2.663  0.4884  0.5269 -0.0961
   18SAPS  H12A 2267   4.635   6.214   2.603  2.3552  1.6267 -0.7416
   18SAPS   C13 2268   4.493   6.372   2.578 -1.0890  0.4469 -0.1279
   18SAPS  O13A 2269   4.375   6.392   2.613  0.1308 -0.1172  0.1436
   18SAPS  O13B 2270   4.526   6.382   2.455  0.4895  0.3567 -0.8620
   18SAPS   C11 2271   4.726   6.391   2.687  0.2741 -0.7889  0.2381
   18SAPS  H11A 2272   4.697   6.477   2.751  1.3186  0.1398 -0.4860
   18SAPS  H11B 2273   4.756   6.425   2.585  1.4880  0.0747  0.8535
   18SAPS     P 2274   4.946   6.410   2.833  0.2328  0.4374  0.1204
   18SAPS   O13 2275   5.048   6.309   2.870  0.1485  0.4015 -0.0665
   18SAPS   O14 2276   4.986   6.522   2.747 -0.2196  0.5609  0.1332
   18SAPS   O12 2277   4.837   6.329   2.754  0.1429  0.4888  0.1086
   18SAPS   O11 2278   4.871   6.456   2.953 -0.1505  0.4022 -0.1616
   18SAPS    C1 2279   4.806   6.368   3.045  0.0920 -0.0049 -0.7587
   18SAPS    HA 2280   4.695   6.376   3.040 -0.0816 -1.8411 -0.6049
   18SAPS    HB 2281   4.832   6.261   3.024 -2.6360 -0.8229 -0.3253
   18SAPS    C2 2282   4.855   6.393   3.184 -0.0448  0.8969  0.1193
   18SAPS    HS 2283   4.811   6.317   3.253 -1.8174  1.3175 -0.4796
   18SAPS   O21 2284   4.828   6.527   3.229 -0.2362 -0.1316  0.4914
   18SAPS   C21 2285   4.708   6.548   3.288  0.2814  0.3885  0.6693
   18SAPS   O22 2286   4.619   6.461   3.284 -0.2780  0.5418 -0.2686
   18SAPS   C22 2287   4.711   6.679   3.376 -0.3140 -0.5847 -0.0935
   18SAPS   H2R 2288   4.807   6.723   3.340 -0.6010 -0.5861 -0.8658
   18SAPS   H2S 2289   4.634   6.739   3.325 -0.1582 -2.2356 -2.4466
   18SAPS    C3 2290   5.011   6.376   3.196  1.0909 -0.1702  0.2134
   18SAPS    HX 2291   5.065   6.450   3.133  0.3576 -0.2292 -0.4941
   18SAPS    HY 2292   5.042   6.277   3.156  1.4189 -0.1714  0.4671
   18SAPS   O31 2293   5.057   6.370   3.332  0.0983 -0.2025 -1.2464
   18SAPS   C31 2294   5.137   6.471   3.368 -0.2764  0.0228  0.2551
   18SAPS   O32 2295   5.179   6.558   3.295 -0.2213  0.5668 -0.2837
   18SAPS   C32 2296   5.181   6.457   3.511  0.1499  0.2417  0.2209
   18SAPS   H2X 2297   5.254   6.537   3.538 -1.7282  2.3091 -0.5288
   18SAPS   H2Y 2298   5.239   6.362   3.508  0.3797  0.3425  1.0043
   18SAPS   C23 2299   4.721   6.658   3.531 -0.4354 -0.4252  0.2238
   18SAPS   H3R 2300   4.822   6.616   3.553  0.3703  0.5154 -1.4069
   18SAPS   H3S 2301   4.643   6.588   3.566 -0.2656 -0.3365  0.7889
   18SAPS   C24 2302   4.704   6.783   3.607 -0.3611  0.7907 -0.4613
   18SAPS   H4R 2303   4.783   6.856   3.581 -0.9686  0.8662 -2.2102
   18SAPS   H4S 2304   4.732   6.752   3.710  0.8120 -3.7401 -1.9139
   18SAPS   C25 2305   4.568   6.845   3.602 -0.2095  0.0590 -0.5443
   18SAPS   H5R 2306   4.487   6.771   3.605  1.5342 -1.9267 -0.2129
   18SAPS   C26 2307   4.534   6.970   3.598 -0.3975  0.5291 -0.4721
   18SAPS   H6R 2308   4.430   7.003   3.606 -0.6197 -0.0283 -0.9693
   18SAPS   C27 2309   4.638   7.085   3.594 -0.2586  0.1553  0.0716
   18SAPS   H7R 2310   4.737   7.070   3.640 -0.1275  0.6450 -0.0451
   18SAPS   H7S 2311   4.601   7.172   3.653  0.0623 -0.3781  1.0644
   18SAPS   C28 2312   4.663   7.130   3.457  0.2871 -0.3021 -0.3713
   18SAPS   H8R 2313   4.695   7.055   3.384 -1.3853 -2.1213  0.6572
   18SAPS   C29 2314   4.637   7.253   3.401  0.4231  0.2442  0.5239
   18SAPS   H9R 2315   4.662   7.270   3.296  1.8288  1.8765  1.0862
   18SAPS  C210 2316   4.569   7.365   3.475  0.7918  0.3682 -0.5296
   18SAPS  H10R 2317   4.509   7.329   3.561  1.4901 -0.0749 -0.2199
   18SAPS  H10S 2318   4.498   7.416   3.407 -3.5127 -1.2775  2.3127
   18SAPS  C211 2319   4.657   7.471   3.539  0.0441  0.4867 -0.5097
   18SAPS  H11R 2320   4.707   7.541   3.471  1.9554 -0.0625  0.2786
   18SAPS  C212 2321   4.680   7.488   3.674  0.1717 -0.0374  0.5255
   18SAPS  H12R 2322   4.764   7.553   3.704 -0.0311 -0.1498  1.3821
   18SAPS  C213 2323   4.615   7.423   3.794 -0.4052 -0.0528 -0.1779
   18SAPS  H13R 2324   4.694   7.403   3.870 -0.1880  2.4013  0.3426
   18SAPS  H13S 2325   4.562   7.328   3.773  0.5293 -0.7170  0.3856
   18SAPS  C214 2326   4.520   7.518   3.849  0.1546  1.4183  0.1629
   18SAPS  H14R 2327   4.435   7.528   3.780 -1.8771 -2.3062  1.8263
   18SAPS  C215 2328   4.514   7.576   3.974 -0.7504 -0.9900 -0.3519
   18SAPS  H15R 2329   4.425   7.639   3.992  0.3132  1.1266 -1.9640
   18SAPS  C216 2330   4.612   7.578   4.090  0.4719  0.4276 -0.2774
   18SAPS  H16R 2331   4.703   7.530   4.048  1.1790  0.9518  0.6339
   18SAPS  H16S 2332   4.572   7.509   4.167  0.0558  1.6104  0.5960
   18SAPS  C217 2333   4.641   7.711   4.158 -0.5144 -0.8019 -0.3403
   18SAPS  H17R 2334   4.553   7.763   4.201  0.5620  0.4173  0.4952
   18SAPS  H17S 2335   4.679   7.782   4.081 -0.5176 -0.4966 -0.0627
   18SAPS  C218 2336   4.756   7.699   4.260 -0.3953  0.3074  0.0716
   18SAPS  H18R 2337   4.846   7.670   4.202  0.1639  1.4286  0.3460
   18SAPS  H18S 2338   4.735   7.614   4.329 -1.3908  1.3898  1.1386
   18SAPS  C219 2339   4.783   7.831   4.322 -0.0073 -0.3332  0.2988
   18SAPS  H19R 2340   4.705   7.852   4.399 -0.4770 -0.1248 -0.2259
   18SAPS  H19S 2341   4.756   7.912   4.252 -0.7917  1.3487  2.4170
   18SAPS  C220 2342   4.932   7.842   4.371  0.8371  0.0954  0.5365
   18SAPS  H20R 2343   4.997   7.832   4.281 -0.9315 -2.2151 -0.6069
   18SAPS  H20S 2344   4.972   7.774   4.449  1.5495  1.4291  1.3637
   18SAPS  H20T 2345   4.943   7.940   4.422 -0.8650  0.1221  0.9129
   18SAPS   C33 2346   5.069   6.448   3.616  0.2323 -0.1631 -0.3371
   18SAPS   H3X 2347   4.996   6.368   3.594 -0.4280  0.2850  0.1672
   18SAPS   H3Y 2348   4.999   6.535   3.611 -2.2622 -2.1168 -1.5226
   18SAPS   C34 2349   5.123   6.440   3.757 -0.0643 -0.2934  0.5430
   18SAPS   H4X 2350   5.190   6.525   3.779  0.3696 -1.1252  2.7166
   18SAPS   H4Y 2351   5.182   6.346   3.756 -1.9583 -1.5425 -0.7585
   18SAPS   C35 2352   5.012   6.426   3.863  0.2467 -0.0604  0.2199
   18SAPS   H5X 2353   4.938   6.345   3.845  1.3848 -0.7891 -1.3602
   18SAPS   H5Y 2354   4.947   6.517   3.867 -2.8799 -2.1402  0.7258
   18SAPS   C36 2355   5.064   6.400   4.002  0.4678  0.5736 -0.0964
   18SAPS   H6X 2356   5.121   6.490   4.033  0.3688 -0.1466  2.3237
   18SAPS   H6Y 2357   5.114   6.302   4.012 -0.8587 -0.3609 -1.9487
   18SAPS   C37 2358   4.946   6.400   4.112  0.0392 -0.4567  0.6126
   18SAPS   H7X 2359   4.875   6.320   4.079  0.9616 -0.7469 -0.7780
   18SAPS   H7Y 2360   4.890   6.493   4.088  1.1786  0.2366  0.6206
   18SAPS   C38 2361   4.983   6.397   4.259 -0.4885 -0.1215 -0.1389
   18SAPS   H8X 2362   5.044   6.484   4.293  2.7162 -1.3769 -2.2115
   18SAPS   H8Y 2363   5.049   6.308   4.265  1.1058  0.9023 -1.5589
   18SAPS   C39 2364   4.861   6.380   4.367 -0.5834 -0.1755  0.0035
   18SAPS   H9X 2365   4.816   6.279   4.355  1.4902 -1.2359  0.7754
   18SAPS   H9Y 2366   4.789   6.461   4.340 -0.6543 -0.7361 -1.5716
   18SAPS  C310 2367   4.919   6.395   4.511  0.3091  0.4853  0.0621
   18SAPS  H10X 2368   4.969   6.495   4.511 -0.4107  0.8628 -0.8217
   18SAPS  H10Y 2369   4.997   6.318   4.531  0.6734  0.3096 -1.8581
   18SAPS  C311 2370   4.813   6.387   4.619  0.0960  0.0633  0.5641
   18SAPS  H11X 2371   4.745   6.299   4.611 -1.9863  1.7697 -2.8513
   18SAPS  H11Y 2372   4.738   6.467   4.599 -0.6065 -0.7718 -0.2233
   18SAPS  C312 2373   4.862   6.395   4.761 -0.5314  0.3937 -0.0770
   18SAPS  H12X 2374   4.931   6.312   4.789  1.6492  1.8235 -0.8789
   18SAPS  H12Y 2375   4.780   6.370   4.831  0.3427 -0.5479  0.6578
   18SAPS  C313 2376   4.954   6.519   4.802 -0.0730  0.4274 -0.4593
   18SAPS  H13X 2377   5.030   6.533   4.722 -0.0588  2.0068 -0.2103
   18SAPS  H13Y 2378   5.021   6.491   4.886  0.0724  2.6223  0.2432
   18SAPS  C314 2379   4.877   6.645   4.840 -0.1579  0.8589  0.1420
   18SAPS  H14X 2380   4.885   6.674   4.946  0.6171  1.3978 -0.0596
   18SAPS  H14Y 2381   4.768   6.625   4.829 -0.1047 -0.9169  2.2335
   18SAPS  C315 2382   4.909   6.761   4.751  0.2344  0.5253  0.2692
   18SAPS  H15X 2383   4.896   6.726   4.646 -3.5943 -1.5947  1.2487
   18SAPS  H15Y 2384   5.004   6.813   4.774  0.0831  0.9241 -0.0016
   18SAPS  C316 2385   4.798   6.869   4.763  0.2221  0.4517  0.2959
   18SAPS  H16X 2386   4.806   6.920   4.861  1.2739  0.3025  0.2990
   18SAPS  H16Y 2387   4.700   6.818   4.769  0.3586 -0.0954 -1.5114
   18SAPS  C317 2388   4.811   6.974   4.651 -0.4685 -0.6979  0.6352
   18SAPS  H17X 2389   4.789   6.918   4.558 -1.6295 -1.5847  1.4061
   18SAPS  H17Y 2390   4.916   7.010   4.642 -0.3352 -1.2696 -0.2351
   18SAPS  C318 2391   4.717   7.094   4.676  0.2241 -0.9447 -0.6087
   18SAPS  H18X 2392   4.766   7.167   4.744 -1.0453 -0.3661 -0.2909
   18SAPS  H18Y 2393   4.625   7.055   4.725  1.3896 -2.0515  0.7920
   18SAPS  H18Z 2394   4.693   7.149   4.582 -0.8291 -0.8879 -0.3164
   19SAPS     N 2395   3.712   1.979   2.596  0.2227 -0.5146  0.0604
   19SAPS   HN1 2396   3.626   1.939   2.639 -0.2801  0.6141  0.1578
   19SAPS   HN2 2397   3.706   2.081   2.618  0.3759 -0.1207 -1.6138
   19SAPS   HN3 2398   3.711   1.957   2.494 -1.3702  1.2496 -0.3518
   19SAPS   C12 2399   3.840   1.920   2.653 -0.1227 -1.0751  0.2637
   19SAPS  H12A 2400   3.842   1.948   2.757 -0.8695  1.2447 -0.2891
   19SAPS   C13 2401   3.842   1.765   2.648 -0.6431 -0.9302 -0.4047
   19SAPS  O13A 2402   3.753   1.699   2.597 -0.0345  0.1560  0.0794
   19SAPS  O13B 2403   3.938   1.710   2.704  0.4602  0.4200 -0.4678
   19SAPS   C11 2404   3.964   1.967   2.561  0.1441 -0.1751 -0.3210
   19SAPS  H11A 2405   3.931   1.932   2.460 -1.9039  0.4492  0.0801
   19SAPS  H11B 2406   4.059   1.928   2.603 -1.1971 -0.8526  2.2864
   19SAPS     P 2407   4.082   2.169   2.444  0.2529  0.2009  0.0217
   19SAPS   O13 2408   4.186   2.069   2.413  0.3119  0.7139 -0.0669
   19SAPS   O14 2409   4.010   2.221   2.324  0.2634 -0.0304  0.1027
   19SAPS   O12 2410   3.977   2.107   2.553 -0.4422 -0.1496  0.5368
   19SAPS   O11 2411   4.159   2.289   2.514 -0.6253  0.5606  0.7362
   19SAPS    C1 2412   4.244   2.257   2.625 -0.2320 -0.2770  0.2478
   19SAPS    HA 2413   4.291   2.156   2.621 -0.6468 -0.4766  0.3186
   19SAPS    HB 2414   4.320   2.338   2.619 -0.1049 -0.4488 -0.6504
   19SAPS    C2 2415   4.174   2.293   2.766  0.5554 -0.1531 -0.6533
   19SAPS    HS 2416   4.255   2.326   2.834 -1.3736 -2.3414  2.9931
   19SAPS   O21 2417   4.108   2.175   2.818  0.4415 -0.0567 -0.5891
   19SAPS   C21 2418   4.185   2.081   2.882 -0.1973 -0.0538 -0.7814
   19SAPS   O22 2419   4.300   2.087   2.920 -0.0495  0.1158 -0.2217
   19SAPS   C22 2420   4.086   1.965   2.921 -0.0566 -0.3379  0.5714
   19SAPS   H2R 2421   3.982   2.005   2.928  0.3576  0.9534 -0.2941
   19SAPS   H2S 2422   4.081   1.902   2.830 -1.1525 -1.4958  1.3844
   19SAPS    C3 2423   4.082   2.428   2.759 -0.6956  0.3749 -0.1253
   19SAPS    HX 2424   4.007   2.412   2.679  0.5048 -2.1503 -0.8653
   19SAPS    HY 2425   4.148   2.509   2.722 -1.1190  0.1795 -1.3600
   19SAPS   O31 2426   4.033   2.467   2.891 -0.1988 -0.0188 -0.2102
   19SAPS   C31 2427   3.916   2.397   2.919  0.4893 -0.0364 -0.1310
   19SAPS   O32 2428   3.858   2.325   2.840  0.4200  0.6830  0.4907
   19SAPS   C32 2429   3.871   2.425   3.063  0.2932 -0.2223  1.0648
   19SAPS   H2X 2430   3.783   2.492   3.060  1.1572  1.0843  2.7405
   19SAPS   H2Y 2431   3.948   2.461   3.135 -0.2033  0.1310  1.4257
   19SAPS   C23 2432   4.127   1.882   3.041 -0.6857 -1.1746 -0.3457
   19SAPS   H3R 2433   4.233   1.850   3.052 -0.3424 -0.4711 -1.5608
   19SAPS   H3S 2434   4.083   1.780   3.035  1.6718 -2.1959 -1.6867
   19SAPS   C24 2435   4.076   1.935   3.181  0.4985  0.1028  0.1064
   19SAPS   H4R 2436   4.114   1.870   3.263 -2.6480  0.3057  1.8899
   19SAPS   H4S 2437   3.966   1.932   3.165  0.3730  1.6093  0.5248
   19SAPS   C25 2438   4.124   2.078   3.200 -0.3014  0.5111  0.6463
   19SAPS   H5R 2439   4.103   2.142   3.114 -0.8984 -2.6958 -1.7870
   19SAPS   C26 2440   4.206   2.121   3.300  0.0512  0.0882  0.0207
   19SAPS   H6R 2441   4.229   2.228   3.294 -2.0247  0.6502  1.3472
   19SAPS   C27 2442   4.249   2.034   3.423  0.0422  0.4360  0.9447
   19SAPS   H7R 2443   4.319   1.959   3.380 -0.6725  0.2130  0.1461
   19SAPS   H7S 2444   4.169   1.968   3.461  1.0885 -0.1162  2.2795
   19SAPS   C28 2445   4.302   2.116   3.538  0.5211  0.2001  0.2226
   19SAPS   H8R 2446   4.403   2.159   3.530  0.1013  1.0795 -0.4139
   19SAPS   C29 2447   4.243   2.146   3.658  0.1483  0.0688  0.1350
   19SAPS   H9R 2448   4.301   2.211   3.725 -0.2723 -1.2108  1.8018
   19SAPS  C210 2449   4.104   2.112   3.712  0.0583  0.4294  0.2204
   19SAPS  H10R 2450   4.102   2.161   3.812 -1.1251 -3.0818  2.0588
   19SAPS  H10S 2451   4.115   2.006   3.742  0.0132  0.7721  1.5032
   19SAPS  C211 2452   3.971   2.128   3.635 -0.6255  0.2853  0.0644
   19SAPS  H11R 2453   3.990   2.122   3.527  0.2826 -2.4478  0.3064
   19SAPS  C212 2454   3.847   2.153   3.685 -0.2543 -0.3764 -0.1755
   19SAPS  H12R 2455   3.769   2.149   3.608 -1.7700 -0.8932  1.3326
   19SAPS  C213 2456   3.813   2.157   3.834 -0.2581  0.0371 -0.1460
   19SAPS  H13R 2457   3.905   2.135   3.891 -1.1494 -2.2872  0.5120
   19SAPS  H13S 2458   3.737   2.078   3.856 -1.4150  0.9827 -0.5870
   19SAPS  C214 2459   3.751   2.284   3.877 -0.5205  0.1514 -0.9073
   19SAPS  H14R 2460   3.739   2.369   3.808  0.3915  2.5076  1.6666
   19SAPS  C215 2461   3.713   2.308   4.000  0.2777  0.0601 -0.3544
   19SAPS  H15R 2462   3.666   2.407   4.012 -3.3301 -1.4180 -0.9050
   19SAPS  C216 2463   3.729   2.223   4.123  0.3878  0.7347  0.3642
   19SAPS  H16R 2464   3.768   2.290   4.202  1.9357 -0.1566  0.3947
   19SAPS  H16S 2465   3.794   2.134   4.112  2.1966  2.0482  0.1559
   19SAPS  C217 2466   3.592   2.163   4.175  0.2208  0.7539 -0.0847
   19SAPS  H17R 2467   3.537   2.134   4.084 -0.2979  0.0359  0.4478
   19SAPS  H17S 2468   3.529   2.240   4.224  0.5685  0.5834  0.6529
   19SAPS  C218 2469   3.607   2.044   4.269 -0.1486  0.6100 -0.4923
   19SAPS  H18R 2470   3.677   2.062   4.353  0.7852  1.1206 -1.3495
   19SAPS  H18S 2471   3.664   1.964   4.216 -0.2446  0.0663  0.2058
   19SAPS  C219 2472   3.469   1.988   4.314 -0.4356  0.4143  0.5025
   19SAPS  H19R 2473   3.413   1.975   4.219  2.3193 -0.9946 -1.0862
   19SAPS  H19S 2474   3.437   2.058   4.394 -3.4269 -0.1294 -0.1124
   19SAPS  C220 2475   3.492   1.845   4.359  0.2028 -0.5686  0.6631
   19SAPS  H20R 2476   3.556   1.862   4.448  0.1769  0.9781  0.4017
   19SAPS  H20S 2477   3.547   1.779   4.288 -0.7560 -0.2936 -0.3633
   19SAPS  H20T 2478   3.399   1.790   4.387 -0.9885 -0.6521 -2.9286
   19SAPS   C33 2479   3.821   2.295   3.132 -0.0572 -0.7960 -0.0249
   19SAPS   H3X 2480   3.885   2.212   3.096  0.5573 -0.3395 -0.0166
   19SAPS   H3Y 2481   3.722   2.271   3.088  0.5410 -0.9189 -1.3595
   19SAPS   C34 2482   3.822   2.310   3.287  0.6814  0.5127 -0.2940
   19SAPS   H4X 2483   3.923   2.323   3.333 -0.3854 -0.9557  2.6730
   19SAPS   H4Y 2484   3.795   2.210   3.325  0.4128  0.3576 -0.8792
   19SAPS   C35 2485   3.728   2.424   3.335  0.2687  0.2179 -0.0867
   19SAPS   H5X 2486   3.627   2.417   3.288  0.2123  1.9522 -0.3056
   19SAPS   H5Y 2487   3.779   2.518   3.304  2.5962 -0.7149  0.6715
   19SAPS   C36 2488   3.724   2.438   3.484 -0.0084  0.3019 -0.3442
   19SAPS   H6X 2489   3.826   2.451   3.526 -0.1435  1.4114 -0.3262
   19SAPS   H6Y 2490   3.686   2.346   3.533  2.6302 -3.0352 -3.9513
   19SAPS   C37 2491   3.637   2.558   3.526 -0.7918  0.3270  0.2041
   19SAPS   H7X 2492   3.527   2.541   3.532 -0.9413  0.4693 -1.5981
   19SAPS   H7Y 2493   3.660   2.640   3.454 -2.4591 -0.3363 -1.1756
   19SAPS   C38 2494   3.676   2.616   3.663  0.3583 -0.0951 -0.1557
   19SAPS   H8X 2495   3.786   2.610   3.676  0.0786 -0.8103  2.4906
   19SAPS   H8Y 2496   3.632   2.545   3.737  3.9988  1.0182  3.5145
   19SAPS   C39 2497   3.604   2.753   3.697 -0.5432  0.0669  0.5487
   19SAPS   H9X 2498   3.536   2.767   3.611  0.8643 -1.5383 -0.9136
   19SAPS   H9Y 2499   3.678   2.837   3.693 -1.1868  0.7245  1.8060
   19SAPS  C310 2500   3.520   2.750   3.833  0.1600 -0.4438  0.0435
   19SAPS  H10X 2501   3.460   2.657   3.830  0.7741 -0.8375 -0.3259
   19SAPS  H10Y 2502   3.457   2.841   3.841  0.7021 -0.1923  1.8374
   19SAPS  C311 2503   3.610   2.752   3.958  0.0254 -0.0425  0.6371
   19SAPS  H11X 2504   3.639   2.857   3.977 -3.3056  0.7754  1.9361
   19SAPS  H11Y 2505   3.685   2.672   3.943 -2.7947 -3.1083  1.4236
   19SAPS  C312 2506   3.535   2.708   4.085  0.2653  0.0745 -0.3131
   19SAPS  H12X 2507   3.479   2.614   4.065  0.8408 -0.1965 -0.6894
   19SAPS  H12Y 2508   3.458   2.782   4.115  0.8722  0.6729 -0.2164
   19SAPS  C313 2509   3.623   2.659   4.198 -0.0187 -0.0905 -0.3904
   19SAPS  H13X 2510   3.662   2.732   4.272 -3.0860  0.3449  0.9560
   19SAPS  H13Y 2511   3.711   2.624   4.140 -1.1169 -3.1704 -0.3796
   19SAPS  C314 2512   3.575   2.537   4.281  0.7469 -0.1688  0.0580
   19SAPS  H14X 2513   3.646   2.533   4.366  0.2160  2.6646  0.7243
   19SAPS  H14Y 2514   3.576   2.452   4.209 -0.3741  0.5218 -0.8147
   19SAPS  C315 2515   3.435   2.568   4.341 -0.5357  0.4064  0.2877
   19SAPS  H15X 2516   3.360   2.546   4.261 -0.7179  2.9773 -0.3305
   19SAPS  H15Y 2517   3.425   2.679   4.338  0.8389  0.6109 -3.8872
   19SAPS  C316 2518   3.395   2.486   4.469 -0.1719 -0.5060 -0.4093
   19SAPS  H16X 2519   3.291   2.523   4.477  1.0173  2.7480  2.7155
   19SAPS  H16Y 2520   3.440   2.518   4.565 -1.5542 -1.5580  0.6215
   19SAPS  C317 2521   3.388   2.335   4.457 -0.6274 -0.0460 -0.5334
   19SAPS  H17X 2522   3.490   2.292   4.455 -0.9678 -0.8860 -0.2064
   19SAPS  H17Y 2523   3.335   2.304   4.364 -1.6591 -1.2299  0.4160
   19SAPS  C318 2524   3.306   2.259   4.558  0.2322 -0.5069 -0.0050
   19SAPS  H18X 2525   3.297   2.152   4.531  3.0537 -0.8197 -0.0262
   19SAPS  H18Y 2526   3.205   2.304   4.554  0.8275  0.7979 -1.3385
   19SAPS  H18Z 2527   3.347   2.271   4.661 -1.2457  1.8352  0.3737
   20SAPS     N 2528   3.327   3.456   2.893  0.5523  0.0755 -0.2657
   20SAPS   HN1 2529   3.300   3.435   2.992  1.6230 -1.1166 -0.1855
   20SAPS   HN2 2530   3.242   3.465   2.834  0.4404 -1.0069 -0.2923
   20SAPS   HN3 2531   3.380   3.372   2.863  0.3880 -0.2027  0.2013
   20SAPS   C12 2532   3.414   3.578   2.876  0.2731  0.6759 -0.6082
   20SAPS  H12A 2533   3.487   3.570   2.955 -1.6896 -0.9414  1.1656
   20SAPS   C13 2534   3.490   3.591   2.742 -0.2637 -0.5361  0.3440
   20SAPS  O13A 2535   3.474   3.494   2.664 -0.5322  0.0114 -0.2961
   20SAPS  O13B 2536   3.584   3.678   2.726  0.0844  0.6221 -0.2234
   20SAPS   C11 2537   3.328   3.711   2.900  0.6714  0.5243  0.5443
   20SAPS  H11A 2538   3.395   3.799   2.902  3.1631 -1.1385 -1.9996
   20SAPS  H11B 2539   3.284   3.695   3.001 -0.9869 -0.0011 -0.2128
   20SAPS     P 2540   3.180   3.872   2.748  0.0895 -0.1910 -0.2851
   20SAPS   O13 2541   3.295   3.962   2.723  0.5666  0.1112  0.6356
   20SAPS   O14 2542   3.077   3.847   2.648 -0.1458 -0.0522 -0.0899
   20SAPS   O12 2543   3.223   3.727   2.804  0.2888 -0.0364 -0.3179
   20SAPS   O11 2544   3.095   3.929   2.864  0.3449 -0.2722  0.0481
   20SAPS    C1 2545   3.136   4.055   2.922 -0.0974 -0.0479  0.0771
   20SAPS    HA 2546   3.153   4.129   2.842  0.5990 -0.2999 -0.0083
   20SAPS    HB 2547   3.053   4.094   2.985  0.5230  1.8560 -0.2436
   20SAPS    C2 2548   3.255   4.051   3.022  0.3361 -0.4426  0.2227
   20SAPS    HS 2549   3.333   4.001   2.963  0.2487 -0.9748  0.5516
   20SAPS   O21 2550   3.204   3.972   3.128  0.5332 -0.5256 -0.0277
   20SAPS   C21 2551   3.301   3.902   3.189  0.1389 -0.5612 -0.3047
   20SAPS   O22 2552   3.415   3.896   3.154  0.0006  0.3326  0.3005
   20SAPS   C22 2553   3.239   3.819   3.296 -0.4271  0.0567 -0.6035
   20SAPS   H2R 2554   3.132   3.839   3.319  0.4213 -0.2074  4.9289
   20SAPS   H2S 2555   3.232   3.713   3.264 -0.1024 -0.6072  1.3355
   20SAPS    C3 2556   3.282   4.190   3.084  0.3854  0.4375  0.1173
   20SAPS    HX 2557   3.201   4.239   3.142 -0.0602 -1.7934  1.4827
   20SAPS    HY 2558   3.293   4.258   2.997 -1.1738 -0.7402 -1.0541
   20SAPS   O31 2559   3.399   4.190   3.169 -0.0090 -0.4007  0.1405
   20SAPS   C31 2560   3.513   4.198   3.101 -0.0607  0.2306 -0.3310
   20SAPS   O32 2561   3.522   4.207   2.979 -0.1843 -0.0892 -0.0428
   20SAPS   C32 2562   3.623   4.177   3.204  0.0566 -0.2501  0.3947
   20SAPS   H2X 2563   3.680   4.088   3.169  0.8894  0.3227  0.2794
   20SAPS   H2Y 2564   3.584   4.155   3.306  0.2542 -0.1538  0.4912
   20SAPS   C23 2565   3.323   3.807   3.428  0.2995 -0.0365  0.5755
   20SAPS   H3R 2566   3.424   3.783   3.389 -0.2114  0.6988 -1.3160
   20SAPS   H3S 2567   3.279   3.728   3.492 -1.8630 -0.4220 -1.2672
   20SAPS   C24 2568   3.298   3.938   3.505  0.5784  0.3198 -0.0990
   20SAPS   H4R 2569   3.199   3.921   3.552 -0.4757  1.0199 -2.0044
   20SAPS   H4S 2570   3.277   4.028   3.445 -2.4674 -0.5510 -0.4802
   20SAPS   C25 2571   3.415   3.944   3.599 -0.1169 -0.2867  0.6626
   20SAPS   H5R 2572   3.500   3.992   3.548 -0.6286  0.0287  0.0884
   20SAPS   C26 2573   3.413   3.919   3.730  0.1043  0.3503  0.4802
   20SAPS   H6R 2574   3.505   3.939   3.787  3.2184 -0.2873 -3.8496
   20SAPS   C27 2575   3.305   3.855   3.815  0.1263  0.0509  0.1378
   20SAPS   H7R 2576   3.205   3.881   3.774  0.6263  2.2523  0.1655
   20SAPS   H7S 2577   3.308   3.904   3.915  1.2737 -0.1206  0.2017
   20SAPS   C28 2578   3.317   3.707   3.829 -0.6721  0.1457 -0.0649
   20SAPS   H8R 2579   3.314   3.653   3.733 -1.3671 -2.1034  1.1681
   20SAPS   C29 2580   3.329   3.633   3.944  0.9107 -0.1456  0.5292
   20SAPS   H9R 2581   3.343   3.527   3.920 -1.1247 -0.5357  0.8997
   20SAPS  C210 2582   3.353   3.691   4.086 -0.1193  0.3826  0.3414
   20SAPS  H10R 2583   3.272   3.766   4.086  1.1876  1.8521  1.4763
   20SAPS  H10S 2584   3.447   3.749   4.091  0.0888  0.0736  0.1416
   20SAPS  C211 2585   3.351   3.609   4.210  0.6693  0.8251  0.4331
   20SAPS  H11R 2586   3.388   3.505   4.200 -0.5380  0.3509  0.8101
   20SAPS  C212 2587   3.324   3.655   4.333 -0.3011  0.6872  0.5677
   20SAPS  H12R 2588   3.325   3.578   4.411  0.5556 -0.6771 -0.7346
   20SAPS  C213 2589   3.287   3.799   4.362  0.3495  0.1355 -0.0102
   20SAPS  H13R 2590   3.253   3.851   4.269 -0.0205 -0.1867 -0.0581
   20SAPS  H13S 2591   3.385   3.843   4.390 -0.0687  0.0596  1.6762
   20SAPS  C214 2592   3.187   3.808   4.474 -0.1097  0.1474  0.0627
   20SAPS  H14R 2593   3.094   3.862   4.451 -0.5258 -0.0789  1.1691
   20SAPS  C215 2594   3.199   3.772   4.606  0.1461  0.5617 -0.1545
   20SAPS  H15R 2595   3.113   3.798   4.670 -0.7526 -2.7194  0.1727
   20SAPS  C216 2596   3.311   3.710   4.685  0.3323  0.9232  0.1075
   20SAPS  H16R 2597   3.332   3.782   4.767  0.2167  1.4567 -0.3213
   20SAPS  H16S 2598   3.404   3.701   4.625 -0.9155  2.0139 -2.1308
   20SAPS  C217 2599   3.286   3.564   4.727  0.4305  0.2909 -0.1259
   20SAPS  H17R 2600   3.384   3.541   4.774  1.5688  1.5439 -1.7683
   20SAPS  H17S 2601   3.278   3.503   4.635 -0.8311  2.3762 -1.4819
   20SAPS  C218 2602   3.167   3.543   4.828  0.2579 -0.6888 -0.5959
   20SAPS  H18R 2603   3.149   3.434   4.843  1.9933 -0.9595 -0.1528
   20SAPS  H18S 2604   3.078   3.590   4.783  0.0096  0.5991  1.1270
   20SAPS  C219 2605   3.194   3.608   4.962  0.4338 -0.1898 -0.0037
   20SAPS  H19R 2606   3.194   3.719   4.951  1.2222 -0.3891 -2.5381
   20SAPS  H19S 2607   3.290   3.575   5.007  0.0353  1.4927  2.2532
   20SAPS  C220 2608   3.072   3.579   5.051 -0.5356  0.7417 -0.7949
   20SAPS  H20R 2609   2.984   3.605   4.990 -1.3181  1.4377  0.5837
   20SAPS  H20S 2610   3.088   3.641   5.142 -0.4571  0.0408 -0.3169
   20SAPS  H20T 2611   3.055   3.475   5.088 -0.9400  0.9848 -0.2960
   20SAPS   C33 2612   3.717   4.291   3.209 -0.7065 -0.5244  0.2749
   20SAPS   H3X 2613   3.675   4.394   3.219 -0.7879 -0.4339 -0.8418
   20SAPS   H3Y 2614   3.783   4.300   3.120 -1.3173 -1.3782 -0.2677
   20SAPS   C34 2615   3.824   4.270   3.319 -0.5001  0.3752 -1.1090
   20SAPS   H4X 2616   3.914   4.334   3.319  1.1027 -1.7394  0.8569
   20SAPS   H4Y 2617   3.864   4.168   3.300  0.2424  0.4769 -0.1299
   20SAPS   C35 2618   3.760   4.289   3.458 -0.2307 -0.3434 -0.5939
   20SAPS   H5X 2619   3.680   4.214   3.474 -0.3619 -0.1430 -0.3030
   20SAPS   H5Y 2620   3.714   4.389   3.474  0.4774 -0.0342 -0.4534
   20SAPS   C36 2621   3.857   4.264   3.576 -0.5070  0.7415 -0.0363
   20SAPS   H6X 2622   3.921   4.355   3.582  0.5963 -0.1275  2.6008
   20SAPS   H6Y 2623   3.919   4.177   3.543 -0.4924  0.8636 -0.3338
   20SAPS   C37 2624   3.791   4.236   3.713 -0.1537  0.3128  0.0978
   20SAPS   H7X 2625   3.712   4.157   3.708 -0.2350  0.4746 -2.6252
   20SAPS   H7Y 2626   3.738   4.325   3.755 -0.3557 -0.5570  1.7609
   20SAPS   C38 2627   3.897   4.192   3.814  0.5537 -0.1572 -0.6290
   20SAPS   H8X 2628   3.980   4.265   3.828 -0.2899  0.6917  0.1425
   20SAPS   H8Y 2629   3.959   4.109   3.775  1.7304  0.3899  0.0112
   20SAPS   C39 2630   3.819   4.151   3.935  0.3516 -0.7069  0.3904
   20SAPS   H9X 2631   3.740   4.077   3.909  0.1301 -0.0173 -0.9940
   20SAPS   H9Y 2632   3.769   4.245   3.967 -0.1151 -1.1147  0.8817
   20SAPS  C310 2633   3.900   4.118   4.065  0.3583  0.5743 -0.2434
   20SAPS  H10X 2634   3.986   4.186   4.078  3.6172 -3.4013  1.4940
   20SAPS  H10Y 2635   3.943   4.015   4.063  0.7946  0.7240  0.8384
   20SAPS  C311 2636   3.815   4.138   4.191  0.6278  1.3724  0.2296
   20SAPS  H11X 2637   3.716   4.092   4.173  1.1185 -0.1964  1.3233
   20SAPS  H11Y 2638   3.810   4.246   4.217  0.0619  0.8265  2.6905
   20SAPS  C312 2639   3.875   4.067   4.310 -0.2394  0.2250 -1.3398
   20SAPS  H12X 2640   3.953   4.135   4.350 -0.0123 -1.8808  2.3673
   20SAPS  H12Y 2641   3.936   3.976   4.289  0.7902  0.0141  1.8907
   20SAPS  C313 2642   3.772   4.031   4.425  0.2970  0.7083  0.6416
   20SAPS  H13X 2643   3.709   3.949   4.385  3.1625 -2.6093  2.3583
   20SAPS  H13Y 2644   3.713   4.124   4.437  0.3289  1.0969 -1.7768
   20SAPS  C314 2645   3.828   3.981   4.558  0.0802  0.0368 -0.2667
   20SAPS  H14X 2646   3.918   4.042   4.580 -0.7601  0.8265  1.1562
   20SAPS  H14Y 2647   3.879   3.883   4.552  1.5390  0.6940  0.6232
   20SAPS  C315 2648   3.732   3.982   4.670  1.0142 -0.1008  0.8265
   20SAPS  H15X 2649   3.658   3.902   4.646  1.8543 -0.6928  0.1527
   20SAPS  H15Y 2650   3.677   4.078   4.666  0.5889 -0.3550  0.2897
   20SAPS  C316 2651   3.801   3.945   4.797  0.6466 -0.2283 -0.0275
   20SAPS  H16X 2652   3.882   4.016   4.824  1.3408 -0.8476 -0.4267
   20SAPS  H16Y 2653   3.853   3.847   4.790  0.1283 -0.5094  0.0514
   20SAPS  C317 2654   3.707   3.943   4.922 -0.3948  0.0430 -0.3598
   20SAPS  H17X 2655   3.661   4.043   4.939  1.5728  0.7897  0.9745
   20SAPS  H17Y 2656   3.766   3.913   5.012 -0.8077 -1.3598 -0.5377
   20SAPS  C318 2657   3.590   3.847   4.924 -0.4501  0.0368  0.6797
   20SAPS  H18X 2658   3.553   3.842   4.819  1.9404  3.5570 -0.5143
   20SAPS  H18Y 2659   3.505   3.882   4.987  0.2493  1.4034  0.8995
   20SAPS  H18Z 2660   3.616   3.743   4.950 -0.7889 -0.0748  0.5810
   21CHL1    C3 2661   6.323   6.242   6.841 -0.3121  0.8938  0.4107
   21CHL1    H3 2662   6.222   6.201   6.821 -0.0031  0.9582 -1.4528
   21CHL1    O3 2663   6.370   6.204   6.967 -0.2857  0.1626  0.4066
   21CHL1   H3' 2664   6.443   6.263   6.984 -0.1380  0.6539 -1.7288
   21CHL1    C4 2665   6.423   6.180   6.744  0.1226 -0.2460 -0.2999
   21CHL1   H4A 2666   6.528   6.205   6.769  0.5007  1.3337 -3.0429
   21CHL1   H4B 2667   6.415   6.070   6.743  1.4719 -0.3493 -0.3481
   21CHL1    C5 2668   6.393   6.227   6.606  0.2606 -0.0007  0.5140
   21CHL1    C6 2669   6.359   6.149   6.504 -0.5108 -0.8141 -0.5266
   21CHL1    H6 2670   6.354   6.040   6.515  1.1866 -0.8102  0.7333
   21CHL1    C7 2671   6.361   6.198   6.361  0.5863  0.0056 -0.2453
   21CHL1   H7A 2672   6.425   6.137   6.293  1.5906  0.7863 -0.0183
   21CHL1   H7B 2673   6.258   6.186   6.321  0.7169 -1.4538 -0.1971
   21CHL1    C8 2674   6.400   6.341   6.335 -0.1866 -0.3660 -0.0939
   21CHL1    H8 2675   6.510   6.357   6.341  0.3719 -3.6433  0.1444
   21CHL1   C14 2676   6.346   6.392   6.205  0.3255  0.4332  0.4214
   21CHL1   H14 2677   6.236   6.381   6.215  0.4509 -1.2245  0.2583
   21CHL1   C15 2678   6.397   6.310   6.078 -0.0505  0.3150  0.6852
   21CHL1  H15A 2679   6.507   6.296   6.083 -0.1005 -1.6244 -1.4192
   21CHL1  H15B 2680   6.341   6.215   6.063 -0.1415  0.2886  1.1923
   21CHL1   C16 2681   6.378   6.408   5.960  0.4324 -0.3440 -0.0395
   21CHL1  H16A 2682   6.471   6.407   5.899 -0.0072 -1.2935 -0.7107
   21CHL1  H16B 2683   6.294   6.365   5.901 -1.3778 -0.9908  2.8255
   21CHL1   C17 2684   6.343   6.553   6.016 -0.1201  0.9302 -0.1531
   21CHL1   H17 2685   6.232   6.554   6.022 -0.1968 -0.8964 -0.5804
   21CHL1   C13 2686   6.383   6.539   6.170  0.3445  0.3498  0.3917
   21CHL1   C18 2687   6.535   6.556   6.171  0.0632 -0.1940 -0.2471
   21CHL1  H18A 2688   6.592   6.519   6.082  0.6249 -0.7651  0.3318
   21CHL1  H18B 2689   6.555   6.665   6.161  2.6593 -0.7269 -2.0551
   21CHL1  H18C 2690   6.593   6.524   6.260 -0.2170 -0.3132 -0.1086
   21CHL1   C12 2691   6.320   6.633   6.269 -0.5178 -0.0390  0.6337
   21CHL1  H12A 2692   6.360   6.737   6.260  1.5291 -0.9141 -1.1662
   21CHL1  H12B 2693   6.210   6.626   6.280 -0.7184 -0.0798 -1.0555
   21CHL1   C11 2694   6.366   6.580   6.411 -0.3002 -0.0180  0.5555
   21CHL1  H11A 2695   6.477   6.591   6.412 -0.3243  0.2144  0.5232
   21CHL1  H11B 2696   6.320   6.649   6.484 -1.9049 -0.4350 -0.0174
   21CHL1    C9 2697   6.346   6.430   6.446  0.1158  0.3075 -0.3457
   21CHL1    H9 2698   6.235   6.420   6.446  0.2247 -1.9810  2.4189
   21CHL1   C10 2699   6.394   6.383   6.590 -0.2788 -0.1338  0.5660
   21CHL1   C19 2700   6.534   6.444   6.607  0.0667  0.1252  0.0094
   21CHL1  H19A 2701   6.577   6.392   6.695  2.4854  0.5218 -0.8713
   21CHL1  H19B 2702   6.610   6.425   6.529  0.2544  1.4164 -0.1403
   21CHL1  H19C 2703   6.545   6.551   6.636  2.4823 -0.5575  2.0064
   21CHL1    C1 2704   6.295   6.442   6.689 -0.0835 -0.5338  0.1035
   21CHL1   H1A 2705   6.298   6.553   6.683  1.3364 -0.4884  1.0059
   21CHL1   H1B 2706   6.193   6.404   6.669 -1.3196  3.1180 -1.4273
   21CHL1    C2 2707   6.327   6.393   6.833  0.5426  0.0549 -0.2817
   21CHL1   H2A 2708   6.247   6.432   6.899 -1.9234 -3.6686 -0.8059
   21CHL1   H2B 2709   6.422   6.438   6.869  0.4798  0.4054 -0.5450
   21CHL1   C20 2710   6.380   6.666   5.922 -0.2178  0.3503 -0.2110
   21CHL1   H20 2711   6.490   6.652   5.923 -0.2757 -0.3240  2.0174
   21CHL1   C21 2712   6.335   6.799   5.984 -0.3782  0.5699 -0.2006
   21CHL1  H21A 2713   6.391   6.830   6.074 -0.3976  0.0437 -0.0052
   21CHL1  H21B 2714   6.226   6.813   6.005 -1.1454  0.4093 -3.4587
   21CHL1  H21C 2715   6.354   6.882   5.912 -2.1416  1.3381  0.1528
   21CHL1   C22 2716   6.328   6.657   5.779  0.4065 -0.0629  0.5396
   21CHL1  H22A 2717   6.365   6.559   5.743 -0.3595 -0.5707  1.1372
   21CHL1  H22B 2718   6.217   6.661   5.780  0.3542 -1.2014 -0.0869
   21CHL1   C23 2719   6.363   6.765   5.672  0.2821 -0.0936 -0.2741
   21CHL1  H23A 2720   6.297   6.854   5.684  0.9614  0.8982 -2.9948
   21CHL1  H23B 2721   6.468   6.798   5.686  0.0525  1.7177 -2.2839
   21CHL1   C24 2722   6.340   6.715   5.529  0.5747 -0.1865  0.6006
   21CHL1  H24A 2723   6.432   6.656   5.508 -0.7261 -1.0674 -3.3979
   21CHL1  H24B 2724   6.256   6.642   5.523  1.1188 -0.7220 -2.2286
   21CHL1   C25 2725   6.324   6.816   5.419  0.5356 -0.9617  0.5569
   21CHL1   H25 2726   6.321   6.762   5.322 -0.2031 -2.7233  1.5011
   21CHL1   C26 2727   6.201   6.903   5.425  0.1622  0.0358 -0.2118
   21CHL1  H26A 2728   6.185   6.967   5.336 -2.3816 -1.7316 -1.1377
   21CHL1  H26B 2729   6.123   6.824   5.426  1.7835 -1.6358  0.7843
   21CHL1  H26C 2730   6.194   6.964   5.517  0.3990 -0.4087  0.1036
   21CHL1   C27 2731   6.455   6.899   5.412 -0.1373  0.0306  0.6394
   21CHL1  H27A 2732   6.551   6.843   5.403 -0.4398 -0.6454  1.4918
   21CHL1  H27B 2733   6.450   6.975   5.331 -2.5223 -0.9990 -0.2876
   21CHL1  H27C 2734   6.469   6.956   5.506 -1.9992 -0.7027  1.3958
   22CHL1    C3 2735   2.456   6.612   6.801 -0.1994  0.4195  0.4657
   22CHL1    H3 2736   2.524   6.694   6.770 -0.3104  0.5348  0.5300
   22CHL1    O3 2737   2.452   6.615   6.938 -0.2708 -0.4521  0.1832
   22CHL1   H3' 2738   2.360   6.591   6.953 -0.5231 -1.1594 -2.0973
   22CHL1    C4 2739   2.320   6.640   6.735 -0.3630 -0.7166  0.2901
   22CHL1   H4A 2740   2.243   6.575   6.782 -2.1800  0.7987 -0.4652
   22CHL1   H4B 2741   2.288   6.738   6.778  1.8198 -0.3885  1.3274
   22CHL1    C5 2742   2.332   6.633   6.585 -0.1841  0.1897 -0.1284
   22CHL1    C6 2743   2.307   6.740   6.500 -0.3371 -0.4771 -0.4022
   22CHL1    H6 2744   2.277   6.837   6.542  1.0406 -0.2040  0.0049
   22CHL1    C7 2745   2.322   6.734   6.357 -0.2724  0.0287 -0.2818
   22CHL1   H7A 2746   2.232   6.784   6.314  0.3975  1.4241 -0.1338
   22CHL1   H7B 2747   2.394   6.812   6.323 -0.8377  1.1022  0.8760
   22CHL1    C8 2748   2.321   6.585   6.299  1.0557 -0.3073  0.8299
   22CHL1    H8 2749   2.217   6.548   6.309  0.1396  2.1038  0.7052
   22CHL1   C14 2750   2.352   6.588   6.151  0.2417 -1.4332  0.0571
   22CHL1   H14 2751   2.446   6.645   6.133 -0.9556 -0.5404 -4.8364
   22CHL1   C15 2752   2.256   6.665   6.055 -0.2544  0.1202  0.0638
   22CHL1  H15A 2753   2.153   6.640   6.087  0.3563 -1.9469  0.5670
   22CHL1  H15B 2754   2.282   6.772   6.071  2.1956 -0.4063  0.0815
   22CHL1   C16 2755   2.293   6.612   5.916  0.0682 -0.9159  0.2315
   22CHL1  H16A 2756   2.197   6.580   5.869 -0.8230  0.6467  0.8947
   22CHL1  H16B 2757   2.335   6.687   5.845  0.4076 -0.5169  0.8390
   22CHL1   C17 2758   2.396   6.498   5.932 -0.1550  0.3059  0.4357
   22CHL1   H17 2759   2.498   6.541   5.938 -0.1107  0.3550 -0.4429
   22CHL1   C13 2760   2.365   6.451   6.080  0.1796 -0.3112  0.1610
   22CHL1   C18 2761   2.234   6.370   6.080  0.1249 -0.5490 -0.3268
   22CHL1  H18A 2762   2.149   6.422   6.031  0.7891 -0.0760 -1.0044
   22CHL1  H18B 2763   2.249   6.267   6.041  0.3281 -0.5753 -0.1785
   22CHL1  H18C 2764   2.206   6.367   6.187  0.6363  2.2577 -0.0540
   22CHL1   C12 2765   2.469   6.371   6.165 -0.4807  0.1969  0.1473
   22CHL1  H12A 2766   2.476   6.266   6.130 -0.2225  0.6543 -1.2448
   22CHL1  H12B 2767   2.568   6.421   6.153  1.1857 -2.9457 -0.1449
   22CHL1   C11 2768   2.434   6.350   6.313 -0.0927 -0.2943 -0.2055
   22CHL1  H11A 2769   2.354   6.273   6.319 -0.0857 -0.2194  0.9850
   22CHL1  H11B 2770   2.519   6.302   6.366 -0.2328  0.3410  0.6134
   22CHL1    C9 2771   2.410   6.491   6.381  0.1582  0.5003 -0.4136
   22CHL1    H9 2772   2.515   6.527   6.377  1.5371 -2.8349  1.1298
   22CHL1   C10 2773   2.384   6.497   6.536 -0.4213  0.2176  0.2341
   22CHL1   C19 2774   2.290   6.381   6.571 -0.3441  0.6286 -0.5356
   22CHL1  H19A 2775   2.191   6.383   6.520 -0.6016 -0.1754 -0.0756
   22CHL1  H19B 2776   2.346   6.289   6.546  1.8992  1.6170  0.5777
   22CHL1  H19C 2777   2.269   6.377   6.680  0.6664 -1.7003 -0.3770
   22CHL1    C1 2778   2.520   6.475   6.612 -0.5268 -0.8431  0.1481
   22CHL1   H1A 2779   2.558   6.373   6.587  0.0003 -0.0477 -2.5923
   22CHL1   H1B 2780   2.587   6.553   6.571 -1.3204 -0.6598 -0.8452
   22CHL1    C2 2781   2.513   6.481   6.767 -0.4013  0.8274  1.0536
   22CHL1   H2A 2782   2.617   6.475   6.805  0.5204 -1.3128 -1.5102
   22CHL1   H2B 2783   2.459   6.394   6.809 -1.1048  1.1111  0.7589
   22CHL1   C20 2784   2.389   6.398   5.818  0.6712  0.2940 -0.3511
   22CHL1   H20 2785   2.285   6.360   5.809  0.2755  1.2040  0.1965
   22CHL1   C21 2786   2.489   6.286   5.841 -0.4314  0.7147 -0.3768
   22CHL1  H21A 2787   2.589   6.325   5.872  1.0093 -1.6193 -1.7623
   22CHL1  H21B 2788   2.509   6.217   5.756  4.1374  0.1703  0.8521
   22CHL1  H21C 2789   2.447   6.229   5.927  0.0932  0.9952  0.0703
   22CHL1   C22 2790   2.420   6.459   5.678 -0.3044 -0.3641  0.1145
   22CHL1  H22A 2791   2.508   6.526   5.687  0.2614 -1.2257  1.2569
   22CHL1  H22B 2792   2.454   6.375   5.613  1.4063 -1.7274  2.6004
   22CHL1   C23 2793   2.307   6.543   5.619 -1.2123  0.6427  0.2322
   22CHL1  H23A 2794   2.208   6.506   5.655 -0.5934 -1.1562  0.1793
   22CHL1  H23B 2795   2.315   6.652   5.641 -0.7899  0.8513 -0.9018
   22CHL1   C24 2796   2.314   6.530   5.462 -0.2066  0.0663  0.5291
   22CHL1  H24A 2797   2.394   6.589   5.414  1.1148 -0.5348  1.9009
   22CHL1  H24B 2798   2.336   6.423   5.442 -2.5961 -0.5579  0.8533
   22CHL1   C25 2799   2.182   6.559   5.375 -0.4900 -0.0741  0.0853
   22CHL1   H25 2800   2.103   6.485   5.403 -0.7836 -0.2582 -1.1692
   22CHL1   C26 2801   2.131   6.704   5.409  1.4494  0.2056 -0.9101
   22CHL1  H26A 2802   2.095   6.717   5.513  0.8640  1.2617 -1.2283
   22CHL1  H26B 2803   2.217   6.772   5.401  2.1090  0.0011  2.8491
   22CHL1  H26C 2804   2.044   6.727   5.342  1.0010  1.6284  0.1212
   22CHL1   C27 2805   2.219   6.534   5.223  0.4790 -0.1199  0.0934
   22CHL1  H27A 2806   2.307   6.595   5.192  0.5907 -0.0844  0.4682
   22CHL1  H27B 2807   2.255   6.430   5.213 -0.9565 -0.5602 -0.8141
   22CHL1  H27C 2808   2.126   6.567   5.172 -0.0730 -1.7542 -0.0107
   23CHL1    C3 2809   5.489   0.924   6.681  0.4732  0.0379  0.3207
   23CHL1    H3 2810   5.383   0.926   6.646 -0.8588  3.4283  3.7628
   23CHL1    O3 2811   5.488   0.914   6.817 -0.4453  0.5206  0.2256
   23CHL1   H3' 2812   5.581   0.912   6.838 -0.2592 -1.7343 -0.5187
   23CHL1    C4 2813   5.560   0.785   6.638 -0.1811  0.9479 -1.0521
   23CHL1   H4A 2814   5.664   0.785   6.676 -0.4223  0.5784 -0.3814
   23CHL1   H4B 2815   5.509   0.701   6.690 -1.8016  2.2595 -0.4084
   23CHL1    C5 2816   5.559   0.785   6.483 -0.5930  0.3804 -0.0237
   23CHL1    C6 2817   5.509   0.677   6.415 -0.1987  0.4147  0.5412
   23CHL1    H6 2818   5.484   0.588   6.474  0.9108 -0.1784  0.1501
   23CHL1    C7 2819   5.504   0.676   6.265  0.2038 -0.1481 -0.1730
   23CHL1   H7A 2820   5.536   0.575   6.231  0.5030  0.4927 -1.9117
   23CHL1   H7B 2821   5.400   0.705   6.239  0.9440  1.9824 -0.9934
   23CHL1    C8 2822   5.600   0.776   6.206 -0.0624  0.0213 -0.5379
   23CHL1    H8 2823   5.706   0.745   6.221  0.5634  2.2838  0.1880
   23CHL1   C14 2824   5.565   0.785   6.059 -0.2096  0.0814 -0.2683
   23CHL1   H14 2825   5.459   0.819   6.056 -0.4322 -0.1787  2.4138
   23CHL1   C15 2826   5.566   0.657   5.986  0.7945  0.2698  0.2026
   23CHL1  H15A 2827   5.654   0.591   6.001  0.1810 -0.9217 -1.1822
   23CHL1  H15B 2828   5.475   0.595   6.005 -0.2250  0.4568 -3.3326
   23CHL1   C16 2829   5.561   0.698   5.845  0.6855  0.4189  1.1627
   23CHL1  H16A 2830   5.643   0.655   5.783 -1.0745 -1.6246  0.0943
   23CHL1  H16B 2831   5.462   0.684   5.796  0.6955  1.3649  0.8552
   23CHL1   C17 2832   5.583   0.855   5.836  0.2573  0.5117 -0.9491
   23CHL1   H17 2833   5.484   0.905   5.842 -1.4607 -2.5743 -1.5025
   23CHL1   C13 2834   5.644   0.887   5.971 -0.1304  0.5085  0.1193
   23CHL1   C18 2835   5.796   0.848   5.977  0.0813 -0.5947 -1.2454
   23CHL1  H18A 2836   5.823   0.819   6.080  0.1318  2.6156 -0.2556
   23CHL1  H18B 2837   5.814   0.764   5.907  0.3973  0.2357 -2.1965
   23CHL1  H18C 2838   5.866   0.933   5.958  1.3772 -1.4596 -0.4895
   23CHL1   C12 2839   5.621   1.028   6.040 -0.2312  0.4330  0.3264
   23CHL1  H12A 2840   5.687   1.101   5.988  1.5882 -0.7721  0.8652
   23CHL1  H12B 2841   5.513   1.054   6.032 -0.0533  1.2222  0.3618
   23CHL1   C11 2842   5.669   1.019   6.183  0.0838  0.3051  0.5739
   23CHL1  H11A 2843   5.777   0.993   6.178  0.4825  1.8514  0.7815
   23CHL1  H11B 2844   5.657   1.119   6.229  1.3827  0.2355  1.1057
   23CHL1    C9 2845   5.584   0.915   6.266  0.1595  0.1675  0.1383
   23CHL1    H9 2846   5.478   0.948   6.255 -0.4114 -1.4642  0.3211
   23CHL1   C10 2847   5.614   0.911   6.414 -0.3391  0.3683 -0.2736
   23CHL1   C19 2848   5.774   0.917   6.439  0.0661 -0.2106 -0.5005
   23CHL1  H19A 2849   5.812   0.905   6.543  0.1323 -2.7920 -0.7506
   23CHL1  H19B 2850   5.831   0.848   6.373  1.1127 -0.2563  0.4286
   23CHL1  H19C 2851   5.810   1.018   6.413  3.2762 -0.9028  0.8048
   23CHL1    C1 2852   5.563   1.043   6.481 -0.3909 -0.3699 -0.2323
   23CHL1   H1A 2853   5.608   1.138   6.444 -1.8717  0.1207 -0.8949
   23CHL1   H1B 2854   5.455   1.046   6.454 -0.5501 -0.2604  0.4135
   23CHL1    C2 2855   5.568   1.042   6.632  0.0539  0.0844 -0.5712
   23CHL1   H2A 2856   5.514   1.130   6.673 -0.7367 -1.9029  3.1646
   23CHL1   H2B 2857   5.672   1.041   6.671 -0.1912 -0.1295  0.0991
   23CHL1   C20 2858   5.652   0.900   5.702  0.2175 -0.4841 -0.0359
   23CHL1   H20 2859   5.757   0.865   5.708  1.6278  3.2367 -0.6132
   23CHL1   C21 2860   5.654   1.053   5.690  0.2984 -0.7037  0.5135
   23CHL1  H21A 2861   5.705   1.094   5.781 -0.8762  0.7313  0.5604
   23CHL1  H21B 2862   5.547   1.081   5.692 -0.4519 -3.3481  0.1129
   23CHL1  H21C 2863   5.696   1.095   5.596 -1.2142  0.4463  0.3103
   23CHL1   C22 2864   5.592   0.841   5.574  0.8271  0.7366  0.4028
   23CHL1  H22A 2865   5.615   0.732   5.568 -1.9019 -0.1175  2.9373
   23CHL1  H22B 2866   5.481   0.849   5.580  0.7225  0.2943 -0.6526
   23CHL1   C23 2867   5.658   0.897   5.444  0.2112  0.0005 -0.0613
   23CHL1  H23A 2868   5.623   1.002   5.430 -0.9612 -0.0637  1.9593
   23CHL1  H23B 2869   5.768   0.905   5.457  0.2095 -0.8868  0.5890
   23CHL1   C24 2870   5.611   0.811   5.320 -0.7440 -0.2457 -0.0966
   23CHL1  H24A 2871   5.501   0.795   5.327 -0.5008 -1.6167  0.8552
   23CHL1  H24B 2872   5.618   0.879   5.232  2.0669 -0.2936  0.0109
   23CHL1   C25 2873   5.686   0.680   5.300  1.3564 -0.2598 -0.3526
   23CHL1   H25 2874   5.679   0.630   5.399  0.6455  2.5240  1.0862
   23CHL1   C26 2875   5.619   0.596   5.188 -0.5835  0.0214  0.2106
   23CHL1  H26A 2876   5.511   0.578   5.203 -1.1268  0.6916 -2.4695
   23CHL1  H26B 2877   5.631   0.662   5.099  1.4615  0.9004  1.0621
   23CHL1  H26C 2878   5.678   0.503   5.174  0.4059  0.8094 -1.1078
   23CHL1   C27 2879   5.840   0.698   5.250  0.4752  0.5623 -0.3901
   23CHL1  H27A 2880   5.873   0.603   5.202  0.2718  0.3623 -0.1391
   23CHL1  H27B 2881   5.841   0.779   5.174 -1.6827 -0.2210 -1.3501
   23CHL1  H27C 2882   5.909   0.717   5.334 -1.6183  0.5259  1.4457
   24CHL1    C3 2883   6.791   6.604   6.941  0.0572 -0.7922  0.6629
   24CHL1    H3 2884   6.696   6.565   6.898 -0.8777  2.3416 -0.3433
   24CHL1    O3 2885   6.804   6.572   7.078  0.1051  0.0302 -0.7056
   24CHL1   H3' 2886   6.897   6.549   7.079  0.3939  0.8761  2.7214
   24CHL1    C4 2887   6.899   6.523   6.869  0.7545 -0.0808 -0.2030
   24CHL1   H4A 2888   7.000   6.538   6.914  0.9130 -1.8329  0.1081
   24CHL1   H4B 2889   6.894   6.416   6.900  2.0911  0.2740  1.3802
   24CHL1    C5 2890   6.901   6.550   6.717  0.6615  0.3500  0.0133
   24CHL1    C6 2891   6.890   6.458   6.615 -0.2755  0.5552  0.1804
   24CHL1    H6 2892   6.891   6.352   6.646 -3.4550  0.3162 -0.2534
   24CHL1    C7 2893   6.890   6.489   6.468 -0.7629 -0.1131 -0.5489
   24CHL1   H7A 2894   6.959   6.414   6.425 -1.4189 -1.6920  1.0338
   24CHL1   H7B 2895   6.786   6.472   6.432 -1.9053  0.6081  2.1202
   24CHL1    C8 2896   6.941   6.630   6.435  0.1518 -0.8384  0.0481
   24CHL1    H8 2897   7.052   6.627   6.439  0.1706  0.5358  3.1163
   24CHL1   C14 2898   6.883   6.649   6.291  0.0978 -0.6801  0.6841
   24CHL1   H14 2899   6.772   6.652   6.299  0.1441 -0.9037  1.5740
   24CHL1   C15 2900   6.915   6.561   6.172 -0.5536 -0.1093 -0.7350
   24CHL1  H15A 2901   7.023   6.540   6.186 -0.2874 -0.1899 -2.5628
   24CHL1  H15B 2902   6.861   6.464   6.177 -0.4134 -0.1762 -0.5404
   24CHL1   C16 2903   6.884   6.640   6.043  0.7669 -0.0116 -0.1206
   24CHL1  H16A 2904   6.979   6.668   5.993 -0.0346  0.7773 -1.2608
   24CHL1  H16B 2905   6.823   6.596   5.961  3.0075 -2.2615 -0.7317
   24CHL1   C17 2906   6.836   6.779   6.097 -0.2367 -0.3172 -1.1275
   24CHL1   H17 2907   6.729   6.764   6.124  0.6048 -0.7399  2.4032
   24CHL1   C13 2908   6.901   6.789   6.237  0.3625  0.0793  0.2051
   24CHL1   C18 2909   7.049   6.817   6.233 -0.7398 -0.0766  0.3527
   24CHL1  H18A 2910   7.064   6.918   6.187 -0.9178 -0.7071 -1.1575
   24CHL1  H18B 2911   7.104   6.815   6.329  0.7743 -0.6338 -0.4950
   24CHL1  H18C 2912   7.106   6.742   6.174 -1.4671  0.1017 -0.6088
   24CHL1   C12 2913   6.823   6.895   6.329 -0.1596 -0.1578  0.8496
   24CHL1  H12A 2914   6.845   6.996   6.288  1.6460 -0.6093  0.6517
   24CHL1  H12B 2915   6.716   6.871   6.311 -0.3527  0.4506  1.1622
   24CHL1   C11 2916   6.885   6.883   6.472 -0.2613  0.3998  0.0000
   24CHL1  H11A 2917   6.995   6.901   6.476 -0.2006 -0.0634  0.7618
   24CHL1  H11B 2918   6.837   6.959   6.538 -1.4921  1.0536 -1.6107
   24CHL1    C9 2919   6.882   6.734   6.529  0.3274  1.0154  0.3742
   24CHL1    H9 2920   6.772   6.717   6.518  0.4909  0.2216 -0.1075
   24CHL1   C10 2921   6.898   6.703   6.683 -0.6315 -0.5601 -0.0352
   24CHL1   C19 2922   7.045   6.761   6.710  0.2618 -0.0306 -0.2612
   24CHL1  H19A 2923   7.054   6.871   6.727  2.3224 -0.2688  0.4322
   24CHL1  H19B 2924   7.082   6.708   6.800  0.8456 -1.0340 -1.0829
   24CHL1  H19C 2925   7.124   6.741   6.634  2.7443  2.9926  1.2597
   24CHL1    C1 2926   6.799   6.781   6.769 -0.1426  0.3879  0.0737
   24CHL1   H1A 2927   6.804   6.891   6.753 -0.3590  0.3355 -0.3701
   24CHL1   H1B 2928   6.699   6.751   6.733  0.9606 -2.9308 -0.5987
   24CHL1    C2 2929   6.804   6.757   6.920 -0.3225  0.0024  0.2924
   24CHL1   H2A 2930   6.732   6.814   6.984 -0.1065 -0.8466  1.3108
   24CHL1   H2B 2931   6.909   6.788   6.940 -0.0441 -1.3973  1.0658
   24CHL1   C20 2932   6.838   6.900   5.998  0.8510  0.0209  0.5151
   24CHL1   H20 2933   6.841   6.990   6.062  1.1575  0.8680 -0.6553
   24CHL1   C21 2934   6.699   6.897   5.924  0.2910 -0.5330 -0.0105
   24CHL1  H21A 2935   6.620   6.922   5.998  1.1825  0.2664  0.6851
   24CHL1  H21B 2936   6.691   6.805   5.862 -0.2451  0.2663 -1.1781
   24CHL1  H21C 2937   6.692   6.979   5.849  0.5912 -2.6437 -2.4913
   24CHL1   C22 2938   6.955   6.912   5.904  0.6602 -0.5617 -0.2185
   24CHL1  H22A 2939   6.969   7.020   5.881  0.4935 -0.9150 -2.1404
   24CHL1  H22B 2940   7.052   6.901   5.956 -0.1710 -1.9135  1.1326
   24CHL1   C23 2941   6.955   6.837   5.770  0.5557  0.4486 -0.5489
   24CHL1  H23A 2942   6.954   6.727   5.783  1.6794  0.2912 -1.6060
   24CHL1  H23B 2943   6.861   6.853   5.714  0.6797  0.7573 -0.6719
   24CHL1   C24 2944   7.069   6.873   5.681 -0.5321  0.4628  0.0065
   24CHL1  H24A 2945   7.073   6.984   5.681  1.3037  0.4193  0.0639
   24CHL1  H24B 2946   7.165   6.830   5.717  0.0384  1.9507  0.3406
   24CHL1   C25 2947   7.049   6.848   5.538 -0.7045 -0.9247  0.3323
   24CHL1   H25 2948   6.959   6.907   5.509 -0.7082 -1.8649 -1.7764
   24CHL1   C26 2949   7.166   6.907   5.450  0.1518  0.2387 -0.6044
   24CHL1  H26A 2950   7.142   6.876   5.346 -0.7762 -1.7196  0.1369
   24CHL1  H26B 2951   7.163   7.018   5.460  0.2450  0.1469  0.6393
   24CHL1  H26C 2952   7.269   6.875   5.476 -0.3211 -0.5653  0.3602
   24CHL1   C27 2953   7.011   6.708   5.494 -0.4694  0.5529  0.0633
   24CHL1  H27A 2954   6.959   6.715   5.396  0.1373 -3.1156 -0.6648
   24CHL1  H27B 2955   7.107   6.660   5.466  0.9109  3.2380 -0.2321
   24CHL1  H27C 2956   6.954   6.646   5.566 -0.7325  0.3142 -0.3497
   25CHL1    C3 2957   0.442   3.025   6.719 -0.4418  0.3603  1.2545
   25CHL1    H3 2958   0.539   2.976   6.695 -0.1169  1.4222  0.2963
   25CHL1    O3 2959   0.413   3.026   6.853 -0.2162 -0.1405 -0.2489
   25CHL1   H3' 2960   0.319   3.046   6.855 -0.4249 -1.0314 -0.3930
   25CHL1    C4 2961   0.427   3.173   6.661 -0.1483 -0.5184 -0.0932
   25CHL1   H4A 2962   0.332   3.222   6.690 -0.8644 -1.0380 -1.4709
   25CHL1   H4B 2963   0.508   3.231   6.710 -0.3862 -0.4916  0.2723
   25CHL1    C5 2964   0.444   3.183   6.513  0.0485  0.0437  0.9425
   25CHL1    C6 2965   0.540   3.260   6.456 -0.6897  0.6461  0.1965
   25CHL1    H6 2966   0.607   3.323   6.517  0.9755 -0.3124 -0.5664
   25CHL1    C7 2967   0.557   3.281   6.308  0.3488 -0.1244 -0.1618
   25CHL1   H7A 2968   0.574   3.387   6.278 -0.8079 -0.3378 -1.7059
   25CHL1   H7B 2969   0.649   3.232   6.271 -0.3778 -1.9407  0.3205
   25CHL1    C8 2970   0.438   3.228   6.226 -0.3851 -0.3373  0.0124
   25CHL1    H8 2971   0.354   3.300   6.242  1.4965  1.5022  2.3657
   25CHL1   C14 2972   0.477   3.224   6.070 -0.3874  0.4428  0.4411
   25CHL1   H14 2973   0.566   3.158   6.060  0.0703  1.1212 -0.0716
   25CHL1   C15 2974   0.520   3.361   6.014 -0.4931 -0.1600  0.5190
   25CHL1  H15A 2975   0.430   3.427   6.024 -2.1695 -2.2074 -0.3163
   25CHL1  H15B 2976   0.608   3.416   6.054 -1.1364  0.0337  1.7158
   25CHL1   C16 2977   0.530   3.322   5.860 -0.2213 -0.1782 -0.2431
   25CHL1  H16A 2978   0.491   3.407   5.799  0.4857  0.1495 -0.2453
   25CHL1  H16B 2979   0.637   3.325   5.832  0.4512  0.9650  2.1491
   25CHL1   C17 2980   0.447   3.195   5.840 -0.5087  0.0820 -0.5189
   25CHL1   H17 2981   0.523   3.116   5.823  0.8450  1.0262  0.9508
   25CHL1   C13 2982   0.372   3.166   5.981 -0.0284  0.5051 -0.0151
   25CHL1   C18 2983   0.240   3.252   5.988  0.0086 -0.0418  0.7925
   25CHL1  H18A 2984   0.263   3.340   5.924 -0.9069  1.5853  2.5841
   25CHL1  H18B 2985   0.153   3.195   5.951  0.4169 -1.0752  1.3703
   25CHL1  H18C 2986   0.217   3.280   6.093  0.7405  1.0017  0.6927
   25CHL1   C12 2987   0.353   3.022   6.036  0.3137 -0.1814  0.0643
   25CHL1  H12A 2988   0.294   2.962   5.964 -0.6966  0.5812  0.2340
   25CHL1  H12B 2989   0.450   2.972   6.056 -0.3583 -0.8183  1.9968
   25CHL1   C11 2990   0.289   3.026   6.173  0.4662 -0.5525  1.0728
   25CHL1  H11A 2991   0.192   3.081   6.168  1.3168  1.1610  2.3377
   25CHL1  H11B 2992   0.259   2.925   6.208  1.8121 -2.0226 -1.6786
   25CHL1    C9 2993   0.391   3.088   6.275  0.3745  0.4044 -0.2696
   25CHL1    H9 2994   0.483   3.025   6.282  0.7548  1.1487  2.0011
   25CHL1   C10 2995   0.348   3.091   6.428 -0.0960 -0.6415  0.2591
   25CHL1   C19 2996   0.195   3.135   6.429 -0.3728 -0.5946 -0.4413
   25CHL1  H19A 2997   0.123   3.055   6.403  0.7606 -1.2841 -1.5481
   25CHL1  H19B 2998   0.170   3.167   6.533  5.2012 -2.9394  2.0496
   25CHL1  H19C 2999   0.172   3.225   6.368 -1.5572 -1.5926 -1.5090
   25CHL1    C1 3000   0.362   2.958   6.487 -0.3788  0.2905  0.1790
   25CHL1   H1A 3001   0.309   2.886   6.421  1.5918  1.3220 -2.7324
   25CHL1   H1B 3002   0.467   2.927   6.470  0.0895  1.3932  0.9693
   25CHL1    C2 3003   0.338   2.943   6.640  0.0604  0.1244 -0.2549
   25CHL1   H2A 3004   0.361   2.837   6.666  0.0628  0.5428  1.5802
   25CHL1   H2B 3005   0.234   2.976   6.663  0.2044  1.2415 -1.1500
   25CHL1   C20 3006   0.362   3.181   5.708  0.8620  0.1133  0.8004
   25CHL1   H20 3007   0.285   3.262   5.706  0.3533 -0.3757 -0.2770
   25CHL1   C21 3008   0.281   3.047   5.711  0.0869  0.0805 -0.0069
   25CHL1  H21A 3009   0.230   3.013   5.618 -1.1975  0.5110  0.5086
   25CHL1  H21B 3010   0.209   3.066   5.793  0.9481  1.3938  0.4780
   25CHL1  H21C 3011   0.357   2.969   5.734 -3.5492 -3.7942  0.1395
   25CHL1   C22 3012   0.451   3.195   5.583  0.4989 -0.3607  0.2817
   25CHL1  H22A 3013   0.493   3.298   5.590  1.2365 -0.5439 -1.0363
   25CHL1  H22B 3014   0.533   3.121   5.584 -0.5076 -1.5393 -0.5031
   25CHL1   C23 3015   0.368   3.175   5.447  1.0132 -1.0889 -0.8141
   25CHL1  H23A 3016   0.316   3.079   5.434 -1.1506  0.2410 -2.6399
   25CHL1  H23B 3017   0.287   3.250   5.460  1.1902 -1.2436  1.9214
   25CHL1   C24 3018   0.463   3.206   5.330  0.1694  0.1081  0.2675
   25CHL1  H24A 3019   0.485   3.315   5.327  0.5762  0.0199  0.0199
   25CHL1  H24B 3020   0.560   3.152   5.336  0.2335  0.3150  1.1036
   25CHL1   C25 3021   0.405   3.177   5.186 -0.0448 -0.5322  0.3431
   25CHL1   H25 3022   0.310   3.233   5.178  1.2812  1.9356  0.7514
   25CHL1   C26 3023   0.492   3.238   5.070 -0.2977 -0.6766 -0.0956
   25CHL1  H26A 3024   0.471   3.347   5.074 -1.6101 -0.9405  1.1392
   25CHL1  H26B 3025   0.599   3.222   5.095 -0.1419  1.0693  0.4604
   25CHL1  H26C 3026   0.471   3.194   4.970 -2.8536 -0.0574  0.0866
   25CHL1   C27 3027   0.403   3.023   5.154  0.0931 -0.2574  0.1983
   25CHL1  H27A 3028   0.368   2.996   5.052  0.1599  0.0040  0.1072
   25CHL1  H27B 3029   0.508   2.989   5.165 -0.1813 -1.7907 -1.3817
   25CHL1  H27C 3030   0.338   2.973   5.229 -0.6615  0.9456  0.3701
   26CHL1    C3 3031   1.508   6.352   6.662 -0.6034  0.1458 -0.0402
   26CHL1    H3 3032   1.562   6.429   6.603 -0.4229 -1.1039 -1.5682
   26CHL1    O3 3033   1.503   6.379   6.802  0.0620  0.2639 -0.7024
   26CHL1   H3' 3034   1.437   6.322   6.841  0.1386  0.6115 -0.0340
   26CHL1    C4 3035   1.363   6.345   6.607 -0.1720  0.1449  0.5316
   26CHL1   H4A 3036   1.301   6.281   6.673  0.5153  0.1805  1.2249
   26CHL1   H4B 3037   1.324   6.449   6.609  0.0599  0.2284  1.3967
   26CHL1    C5 3038   1.358   6.303   6.459  0.2014  0.2281  0.0974
   26CHL1    C6 3039   1.290   6.372   6.360 -0.3835  0.2476  0.2320
   26CHL1    H6 3040   1.237   6.466   6.380 -0.5358 -0.0951  1.4800
   26CHL1    C7 3041   1.297   6.337   6.210 -0.4699 -0.0068 -0.1917
   26CHL1   H7A 3042   1.195   6.361   6.173 -1.0177  0.4623  1.5155
   26CHL1   H7B 3043   1.370   6.406   6.163 -1.6733  2.8766  1.8730
   26CHL1    C8 3044   1.325   6.184   6.195  0.5023 -1.1806 -0.7953
   26CHL1    H8 3045   1.242   6.122   6.235  1.4737 -2.6523 -0.9396
   26CHL1   C14 3046   1.335   6.150   6.049  0.8455 -0.3432  0.6480
   26CHL1   H14 3047   1.418   6.213   6.011 -1.4768  0.4988 -3.5709
   26CHL1   C15 3048   1.221   6.183   5.949  0.1842 -0.2717  0.3943
   26CHL1  H15A 3049   1.128   6.153   6.002 -0.7432  0.7306 -0.6135
   26CHL1  H15B 3050   1.224   6.291   5.920  1.7098 -0.1591  0.9183
   26CHL1   C16 3051   1.266   6.111   5.825  0.7550 -0.0584 -0.3729
   26CHL1  H16A 3052   1.180   6.059   5.778 -0.1421  0.6403  0.4593
   26CHL1  H16B 3053   1.296   6.191   5.754  1.9460 -1.2287 -1.2357
   26CHL1   C17 3054   1.377   6.015   5.869  0.0706  0.0505 -0.3575
   26CHL1   H17 3055   1.474   6.063   5.842  0.1420 -0.5746 -1.2602
   26CHL1   C13 3056   1.375   6.005   6.024 -0.6570  0.9824 -0.3539
   26CHL1   C18 3057   1.260   5.910   6.070 -0.2100 -0.4480 -0.1565
   26CHL1  H18A 3058   1.278   5.800   6.066 -1.6936 -0.7428  0.5754
   26CHL1  H18B 3059   1.237   5.931   6.176  0.1289 -0.5934 -0.0532
   26CHL1  H18C 3060   1.170   5.927   6.007 -0.1294  0.1574 -0.1118
   26CHL1   C12 3061   1.506   5.970   6.092 -0.0631 -0.3733  0.5862
   26CHL1  H12A 3062   1.533   5.863   6.082 -0.6654 -0.7791  2.6782
   26CHL1  H12B 3063   1.586   6.029   6.043 -0.0051  0.3356  1.4984
   26CHL1   C11 3064   1.503   5.995   6.246  0.1484 -0.1307 -0.0300
   26CHL1  H11A 3065   1.436   5.915   6.284  0.6463  0.1564  1.5326
   26CHL1  H11B 3066   1.602   5.975   6.291  0.3168 -0.8428 -0.7066
   26CHL1    C9 3067   1.449   6.143   6.273 -0.2216  1.0103 -0.8438
   26CHL1    H9 3068   1.529   6.211   6.239  0.0643  1.7177  1.1495
   26CHL1   C10 3069   1.436   6.172   6.428 -0.1311  0.4457 -0.2173
   26CHL1   C19 3070   1.347   6.067   6.500  0.1771  0.5853  0.3321
   26CHL1  H19A 3071   1.387   5.965   6.483  1.8691  1.1640  0.7247
   26CHL1  H19B 3072   1.348   6.079   6.610 -0.5309  2.0830  0.2045
   26CHL1  H19C 3073   1.239   6.072   6.471  0.0846  1.4834  0.7951
   26CHL1    C1 3074   1.576   6.189   6.491 -0.3135 -0.2919  0.0842
   26CHL1   H1A 3075   1.637   6.098   6.475  1.1427  0.6990 -0.1377
   26CHL1   H1B 3076   1.627   6.270   6.435 -2.6465  1.0601 -0.1991
   26CHL1    C2 3077   1.573   6.213   6.643  0.4178  0.3128  0.3074
   26CHL1   H2A 3078   1.674   6.216   6.691  0.4577 -0.4073  0.2760
   26CHL1   H2B 3079   1.516   6.133   6.695 -1.4783  0.9126 -0.7847
   26CHL1   C20 3080   1.363   5.889   5.790 -0.2985  0.2090 -0.7116
   26CHL1   H20 3081   1.288   5.818   5.831 -2.4193  1.2381 -2.6362
   26CHL1   C21 3082   1.491   5.804   5.797 -0.1188 -0.1836 -0.1257
   26CHL1  H21A 3083   1.516   5.768   5.900  1.0086 -0.1943 -0.3909
   26CHL1  H21B 3084   1.579   5.868   5.775 -0.4749  0.3836  0.1004
   26CHL1  H21C 3085   1.479   5.713   5.735 -1.5404 -0.3067  0.2922
   26CHL1   C22 3086   1.330   5.915   5.638  0.5682 -0.4872 -0.0305
   26CHL1  H22A 3087   1.340   5.810   5.605 -0.6730 -0.8551  0.7265
   26CHL1  H22B 3088   1.230   5.947   5.603 -0.1297 -1.9361  0.5584
   26CHL1   C23 3089   1.439   6.003   5.572 -0.7867  0.0683 -0.2838
   26CHL1  H23A 3090   1.465   6.095   5.628  0.2590  0.9331 -2.1247
   26CHL1  H23B 3091   1.537   5.952   5.562 -1.6389 -1.2230 -3.0566
   26CHL1   C24 3092   1.401   6.055   5.431  0.0931  0.8664 -0.3172
   26CHL1  H24A 3093   1.407   5.978   5.351 -0.7358  1.6303 -1.1466
   26CHL1  H24B 3094   1.294   6.084   5.439 -0.4854 -1.3661  0.6998
   26CHL1   C25 3095   1.488   6.172   5.397  0.3680  0.6962 -0.3187
   26CHL1   H25 3096   1.456   6.259   5.459  0.7299  0.2080  0.5720
   26CHL1   C26 3097   1.639   6.146   5.418 -0.2141  0.2485 -0.4901
   26CHL1  H26A 3098   1.678   6.048   5.383 -1.7644  0.4164 -2.9231
   26CHL1  H26B 3099   1.685   6.226   5.357  0.3887 -0.8589 -1.5428
   26CHL1  H26C 3100   1.666   6.157   5.525 -0.8530  0.6703 -0.3624
   26CHL1   C27 3101   1.465   6.218   5.256  0.5103  0.2339  0.7525
   26CHL1  H27A 3102   1.454   6.136   5.182 -0.3902 -0.0716  1.2182
   26CHL1  H27B 3103   1.372   6.278   5.251 -0.2345 -0.5677  3.6649
   26CHL1  H27C 3104   1.540   6.288   5.212  0.0855  0.4254  0.3195
   27CHL1    C3 3105   4.559   0.342   6.573 -0.9190 -0.3042  1.0224
   27CHL1    H3 3106   4.466   0.403   6.575 -1.5569 -1.2470  2.9961
   27CHL1    O3 3107   4.592   0.302   6.701  0.3138 -0.2297 -1.0169
   27CHL1   H3' 3108   4.686   0.314   6.721  0.3787 -2.6634  0.7147
   27CHL1    C4 3109   4.532   0.220   6.487 -0.0039  0.3155 -0.0887
   27CHL1   H4A 3110   4.610   0.144   6.507 -0.1996  0.2943  0.6317
   27CHL1   H4B 3111   4.446   0.174   6.540 -0.1668 -0.2196 -0.8042
   27CHL1    C5 3112   4.514   0.252   6.332 -0.2287  0.5066 -0.0743
   27CHL1    C6 3113   4.405   0.207   6.268 -0.4585  0.5809 -0.0267
   27CHL1    H6 3114   4.320   0.167   6.325  1.4904 -1.3850  1.6577
   27CHL1    C7 3115   4.385   0.228   6.115  1.0488  0.1855 -0.1477
   27CHL1   H7A 3116   4.331   0.140   6.075 -0.4699  1.6759 -1.5300
   27CHL1   H7B 3117   4.315   0.314   6.106 -0.4259 -0.4342  3.4291
   27CHL1    C8 3118   4.517   0.255   6.043  0.3809  0.2120  1.2309
   27CHL1    H8 3119   4.573   0.159   6.036 -0.8978 -0.5343  1.1186
   27CHL1   C14 3120   4.479   0.316   5.905 -0.5672  0.0642 -0.2746
   27CHL1   H14 3121   4.417   0.407   5.917  0.4997  1.1838 -2.7280
   27CHL1   C15 3122   4.394   0.226   5.812 -0.3131 -0.5275  0.0126
   27CHL1  H15A 3123   4.446   0.128   5.809  0.4080 -0.3459  2.9597
   27CHL1  H15B 3124   4.289   0.207   5.843  0.1983 -0.0937  2.2118
   27CHL1   C16 3125   4.401   0.297   5.679  0.4829 -0.2908  0.3923
   27CHL1  H16A 3126   4.419   0.222   5.600 -0.2165  0.5957 -0.6299
   27CHL1  H16B 3127   4.314   0.363   5.662  0.9594  0.2189 -0.0907
   27CHL1   C17 3128   4.519   0.393   5.684 -1.4099  0.5585 -0.5434
   27CHL1   H17 3129   4.483   0.498   5.696 -2.2401  0.1895  0.2414
   27CHL1   C13 3130   4.599   0.365   5.816  0.6088 -0.0762  0.4230
   27CHL1   C18 3131   4.689   0.244   5.786 -0.7315  1.3472 -0.2004
   27CHL1  H18A 3132   4.782   0.280   5.738 -1.4255  0.2438 -2.5043
   27CHL1  H18B 3133   4.709   0.188   5.880  1.3767  0.6853 -1.0081
   27CHL1  H18C 3134   4.645   0.170   5.716 -0.0698  2.5750 -1.9733
   27CHL1   C12 3135   4.675   0.472   5.889 -0.8535  0.3367  0.2587
   27CHL1  H12A 3136   4.765   0.498   5.829  0.8411 -0.7975  2.1884
   27CHL1  H12B 3137   4.620   0.568   5.890  0.6918  1.2508  1.6326
   27CHL1   C11 3138   4.713   0.436   6.036 -0.1155  0.1242 -0.1235
   27CHL1  H11A 3139   4.798   0.364   6.038 -1.3342 -1.3371  1.1157
   27CHL1  H11B 3140   4.744   0.527   6.092  1.6315  0.6020 -1.7356
   27CHL1    C9 3141   4.596   0.372   6.119  0.4745  0.3574 -0.2394
   27CHL1    H9 3142   4.520   0.453   6.129 -2.1172 -1.7731 -1.5026
   27CHL1   C10 3143   4.629   0.331   6.264  0.1216 -0.6038  0.6327
   27CHL1   C19 3144   4.761   0.243   6.253 -0.4982  0.2674 -0.2698
   27CHL1  H19A 3145   4.777   0.187   6.348 -1.0939 -0.6985 -0.7181
   27CHL1  H19B 3146   4.753   0.175   6.165  0.0095  0.1602 -0.2344
   27CHL1  H19C 3147   4.845   0.315   6.241 -0.4609  0.4896  1.1781
   27CHL1    C1 3148   4.650   0.459   6.358  0.7988 -0.2661  0.4575
   27CHL1   H1A 3149   4.739   0.515   6.323  0.5908  0.4915  1.1359
   27CHL1   H1B 3150   4.562   0.524   6.336  0.2142 -0.7202  1.3660
   27CHL1    C2 3151   4.668   0.435   6.505  0.2078  0.5328  0.4953
   27CHL1   H2A 3152   4.676   0.533   6.557  1.0949  1.1196 -0.7106
   27CHL1   H2B 3153   4.762   0.376   6.517 -0.9549 -1.2364  1.5151
   27CHL1   C20 3154   4.600   0.401   5.556  0.0904  0.1800 -0.0595
   27CHL1   H20 3155   4.664   0.311   5.543  2.1062  1.4727  0.4810
   27CHL1   C21 3156   4.701   0.518   5.563  0.0398 -0.0194 -0.6391
   27CHL1  H21A 3157   4.734   0.554   5.463 -0.6409  0.5478 -0.6674
   27CHL1  H21B 3158   4.792   0.496   5.622  0.1829 -0.2126 -0.9281
   27CHL1  H21C 3159   4.665   0.611   5.612 -0.1120 -0.9716  1.1215
   27CHL1   C22 3160   4.510   0.427   5.432  0.4347  0.2880  0.0278
   27CHL1  H22A 3161   4.422   0.492   5.455  0.6725  0.3254  0.8984
   27CHL1  H22B 3162   4.562   0.496   5.362 -1.8440  1.5810 -0.5256
   27CHL1   C23 3163   4.473   0.304   5.345 -0.1871 -0.8812 -0.5775
   27CHL1  H23A 3164   4.553   0.233   5.375 -0.6836 -0.6458  1.4697
   27CHL1  H23B 3165   4.375   0.270   5.383  1.0351 -2.1979  1.6096
   27CHL1   C24 3166   4.482   0.329   5.192 -0.3584 -0.0108  0.1047
   27CHL1  H24A 3167   4.400   0.394   5.154 -0.3959  0.9109  1.6633
   27CHL1  H24B 3168   4.579   0.379   5.168  0.8353 -1.2629  2.0489
   27CHL1   C25 3169   4.484   0.194   5.119 -0.2125 -0.2891  0.7166
   27CHL1   H25 3170   4.388   0.144   5.145 -0.7899  0.2905 -0.2303
   27CHL1   C26 3171   4.487   0.228   4.972 -0.3575 -0.3008 -0.1754
   27CHL1  H26A 3172   4.591   0.259   4.950  0.4081 -2.2860  0.4358
   27CHL1  H26B 3173   4.446   0.144   4.912 -1.2695 -1.1091  1.4964
   27CHL1  H26C 3174   4.422   0.316   4.954 -1.1072 -1.2717 -2.7590
   27CHL1   C27 3175   4.607   0.108   5.140  0.5399 -0.0692 -0.1020
   27CHL1  H27A 3176   4.588   0.011   5.089  2.1163 -0.7453  0.5429
   27CHL1  H27B 3177   4.631   0.085   5.246  0.9609 -3.7987 -0.8837
   27CHL1  H27C 3178   4.697   0.164   5.105  1.8855 -1.4750  0.9750
   28CHL1    C3 3179   4.008   6.624   6.512  0.1398 -0.1391  0.3703
   28CHL1    H3 3180   3.899   6.642   6.522  0.0474 -0.6622  0.3004
   28CHL1    O3 3181   4.065   6.627   6.648 -0.7080 -0.3478  0.0815
   28CHL1   H3' 3182   4.040   6.550   6.699  1.2347 -0.3052  1.2284
   28CHL1    C4 3183   4.049   6.491   6.438  0.0786 -0.0991 -0.9192
   28CHL1   H4A 3184   4.159   6.483   6.449  0.2604  2.7690  0.2665
   28CHL1   H4B 3185   4.013   6.402   6.495 -1.5838  0.2816 -1.3116
   28CHL1    C5 3186   4.006   6.493   6.294  0.4039 -0.5119 -0.5778
   28CHL1    C6 3187   3.928   6.393   6.248 -0.4940  0.6199  0.4230
   28CHL1    H6 3188   3.902   6.305   6.309  2.4385  0.4555  1.5884
   28CHL1    C7 3189   3.858   6.391   6.112 -0.4549  0.7361  0.4239
   28CHL1   H7A 3190   3.861   6.293   6.059 -0.6633 -0.0074  1.7499
   28CHL1   H7B 3191   3.749   6.407   6.127 -0.3204 -0.1085  2.7609
   28CHL1    C8 3192   3.922   6.499   6.018  0.0528  0.1265  0.8665
   28CHL1    H8 3193   4.021   6.466   5.980 -0.5352 -0.7951  0.0639
   28CHL1   C14 3194   3.836   6.499   5.891  0.2989 -0.7569 -0.1372
   28CHL1   H14 3195   3.738   6.532   5.929  0.8944  0.1645  0.6416
   28CHL1   C15 3196   3.802   6.366   5.821 -0.3755  0.7460 -0.2978
   28CHL1  H15A 3197   3.893   6.305   5.806  2.1433  4.4465 -1.5761
   28CHL1  H15B 3198   3.740   6.301   5.886  1.4148 -0.4281  0.3018
   28CHL1   C16 3199   3.750   6.412   5.688 -0.1163 -0.2238 -0.3759
   28CHL1  H16A 3200   3.807   6.370   5.602  0.1043  0.4948 -0.5897
   28CHL1  H16B 3201   3.642   6.392   5.674 -0.3754  1.3098 -0.7012
   28CHL1   C17 3202   3.760   6.573   5.688 -0.2497  0.1483  0.6879
   28CHL1   H17 3203   3.661   6.607   5.723 -1.5734 -1.5309 -1.2197
   28CHL1   C13 3204   3.879   6.595   5.789  0.1529 -0.0512  0.0086
   28CHL1   C18 3205   4.017   6.565   5.719 -0.0150  0.5418  0.1164
   28CHL1  H18A 3206   4.102   6.578   5.790 -0.7810  0.8973  0.9824
   28CHL1  H18B 3207   4.028   6.462   5.678 -0.9245  0.7473 -0.6687
   28CHL1  H18C 3208   4.046   6.635   5.638  1.5687 -0.2626 -0.0603
   28CHL1   C12 3209   3.883   6.739   5.857  0.2639  0.3186  0.0174
   28CHL1  H12A 3210   3.910   6.812   5.778  1.6331  0.4617  0.5894
   28CHL1  H12B 3211   3.776   6.757   5.878  0.5235  1.6845  0.2640
   28CHL1   C11 3212   3.970   6.746   5.983 -0.7303  0.3196 -0.2231
   28CHL1  H11A 3213   4.079   6.740   5.963 -0.4431 -0.1210  1.3183
   28CHL1  H11B 3214   3.961   6.840   6.041  0.7738  0.5431 -0.3166
   28CHL1    C9 3215   3.931   6.637   6.089 -0.5810 -0.5128 -0.7206
   28CHL1    H9 3216   3.827   6.651   6.123 -0.3287  1.8547 -0.7511
   28CHL1   C10 3217   4.027   6.623   6.218  0.3670  0.4792 -0.4374
   28CHL1   C19 3218   4.175   6.636   6.184 -0.2247  0.4018 -0.3432
   28CHL1  H19A 3219   4.215   6.576   6.099 -0.7307 -1.1713  0.4868
   28CHL1  H19B 3220   4.202   6.744   6.181  1.7682 -0.0724 -1.0711
   28CHL1  H19C 3221   4.240   6.604   6.268  1.0500  1.8448 -0.7293
   28CHL1    C1 3222   3.988   6.744   6.295  0.0274  0.1296  0.1159
   28CHL1   H1A 3223   4.006   6.842   6.246 -0.0642  0.8596  1.4959
   28CHL1   H1B 3224   3.877   6.744   6.301  0.0203  2.2298  0.7842
   28CHL1    C2 3225   4.051   6.754   6.435  0.0835  0.0355  0.2047
   28CHL1   H2A 3226   4.029   6.848   6.491  4.2628  1.1313  0.3564
   28CHL1   H2B 3227   4.162   6.757   6.428  0.0121  1.0405 -0.8633
   28CHL1   C20 3228   3.779   6.624   5.546  0.3364  0.0098  0.0891
   28CHL1   H20 3229   3.866   6.582   5.491  0.6343  0.0729  0.5019
   28CHL1   C21 3230   3.791   6.782   5.552  0.8731  0.2662  0.1887
   28CHL1  H21A 3231   3.704   6.803   5.618 -0.4817 -2.1395 -0.6911
   28CHL1  H21B 3232   3.790   6.806   5.443 -1.1283 -2.4189 -0.4926
   28CHL1  H21C 3233   3.887   6.819   5.593  0.7634 -0.2292  0.9216
   28CHL1   C22 3234   3.647   6.572   5.467 -0.1336  0.0605  0.5212
   28CHL1  H22A 3235   3.656   6.462   5.453 -1.3958  0.1220 -0.9978
   28CHL1  H22B 3236   3.555   6.588   5.528  0.6625 -3.7517  3.0911
   28CHL1   C23 3237   3.628   6.643   5.334  0.6822  0.3600 -0.1910
   28CHL1  H23A 3238   3.578   6.742   5.345 -0.0524 -0.0538  0.2862
   28CHL1  H23B 3239   3.727   6.650   5.285  0.7522 -0.6656 -0.2025
   28CHL1   C24 3240   3.550   6.549   5.239 -0.1969 -0.1721 -0.1285
   28CHL1  H24A 3241   3.603   6.451   5.237 -0.8523 -0.5583  0.6753
   28CHL1  H24B 3242   3.448   6.533   5.281  0.4038  0.6896  1.7804
   28CHL1   C25 3243   3.541   6.590   5.089  0.4051 -0.1188 -0.2122
   28CHL1   H25 3244   3.471   6.676   5.086  0.2006 -0.2340  0.8790
   28CHL1   C26 3245   3.675   6.622   5.026 -0.2685  0.2316  0.1696
   28CHL1  H26A 3246   3.665   6.635   4.916  2.4787 -1.0625 -0.3095
   28CHL1  H26B 3247   3.720   6.720   5.052  0.3296 -0.5037  2.0683
   28CHL1  H26C 3248   3.747   6.538   5.038 -3.5771 -3.1483 -1.7006
   28CHL1   C27 3249   3.463   6.490   4.999  0.3913  0.6276 -0.3615
   28CHL1  H27A 3250   3.459   6.537   4.898 -0.4626  0.8045 -0.2576
   28CHL1  H27B 3251   3.515   6.393   4.991 -0.9189 -0.1606  0.2163
   28CHL1  H27C 3252   3.362   6.465   5.040  1.3280 -0.6069  1.3097
   29CHL1    C3 3253   5.895   0.461   6.566 -0.5538 -0.1577  0.1436
   29CHL1    H3 3254   5.809   0.396   6.590  0.7055 -1.9130  0.0433
   29CHL1    O3 3255   5.934   0.500   6.697  0.1480  0.2002 -0.1504
   29CHL1   H3' 3256   6.007   0.442   6.720  0.7869  0.8689 -0.4454
   29CHL1    C4 3257   6.003   0.358   6.518 -0.6896 -0.2749  0.2515
   29CHL1   H4A 3258   6.106   0.392   6.541  0.4028 -3.4094  0.5569
   29CHL1   H4B 3259   5.985   0.263   6.573 -0.5854 -0.2651  0.3020
   29CHL1    C5 3260   5.977   0.322   6.373 -0.8026 -0.0881  0.2251
   29CHL1    C6 3261   5.965   0.199   6.335 -0.3291  0.5238 -0.2633
   29CHL1    H6 3262   5.985   0.123   6.412 -1.3979 -0.5479 -1.0101
   29CHL1    C7 3263   5.955   0.145   6.196 -0.4100 -0.1696 -0.3544
   29CHL1   H7A 3264   6.027   0.066   6.166 -1.3551 -0.0656 -3.2329
   29CHL1   H7B 3265   5.852   0.109   6.175 -0.5939  1.1514 -1.9451
   29CHL1    C8 3266   5.987   0.261   6.098  0.4340  0.3819  0.1607
   29CHL1    H8 3267   6.097   0.274   6.095  0.5027 -0.2053  0.0203
   29CHL1   C14 3268   5.925   0.229   5.952 -0.5534  0.7408  0.4317
   29CHL1   H14 3269   5.817   0.232   5.981 -0.5786 -0.5461  0.5433
   29CHL1   C15 3270   5.938   0.088   5.896  0.0976  0.3028 -0.3405
   29CHL1  H15A 3271   6.043   0.053   5.906  0.1705  0.4681 -0.5170
   29CHL1  H15B 3272   5.866   0.022   5.950  1.5680 -1.2293 -0.1680
   29CHL1   C16 3273   5.916   0.102   5.742  0.1770  0.4330 -0.5595
   29CHL1  H16A 3274   6.001   0.056   5.687  1.7665  1.7251  0.7053
   29CHL1  H16B 3275   5.820   0.055   5.713  0.4166 -1.1378  1.0136
   29CHL1   C17 3276   5.893   0.255   5.715 -0.0231 -1.0256  0.1547
   29CHL1   H17 3277   5.782   0.260   5.724 -0.3213  0.7042 -3.0022
   29CHL1   C13 3278   5.960   0.325   5.837 -0.2691  0.2454 -0.2837
   29CHL1   C18 3279   6.105   0.324   5.821 -0.0082 -0.6050  0.5002
   29CHL1  H18A 3280   6.148   0.226   5.789 -0.2083 -0.1146 -1.4032
   29CHL1  H18B 3281   6.145   0.393   5.744 -1.9205 -1.2152 -1.1392
   29CHL1  H18C 3282   6.164   0.353   5.911 -0.3078 -0.3337  0.6111
   29CHL1   C12 3283   5.903   0.458   5.879  0.3053 -0.1898 -0.3866
   29CHL1  H12A 3284   5.937   0.539   5.811  2.7658 -1.9022 -1.3749
   29CHL1  H12B 3285   5.792   0.449   5.890  0.1574 -2.4322 -2.6582
   29CHL1   C11 3286   5.935   0.501   6.028  0.1985 -0.3678 -0.2394
   29CHL1  H11A 3287   6.043   0.528   6.024  0.1484 -0.0788  0.3297
   29CHL1  H11B 3288   5.867   0.588   6.040 -1.9322 -1.7639 -1.5291
   29CHL1    C9 3289   5.928   0.392   6.139 -0.6141 -0.7024 -0.2243
   29CHL1    H9 3290   5.819   0.377   6.157 -0.7000 -1.1567 -1.0658
   29CHL1   C10 3291   5.982   0.435   6.278  0.6274  0.4481 -0.2746
   29CHL1   C19 3292   6.132   0.478   6.267 -0.3605  0.4929  0.1806
   29CHL1  H19A 3293   6.192   0.395   6.224 -0.2307  0.6948 -0.0309
   29CHL1  H19B 3294   6.151   0.571   6.209  1.2854 -0.2849 -0.5879
   29CHL1  H19C 3295   6.175   0.485   6.369 -0.2378  0.0774  0.1580
   29CHL1    C1 3296   5.894   0.559   6.325  0.4217  0.1377 -0.0166
   29CHL1   H1A 3297   5.911   0.650   6.266 -1.0260 -0.2236 -1.0523
   29CHL1   H1B 3298   5.785   0.539   6.310 -0.1817  2.2383  1.1149
   29CHL1    C2 3299   5.902   0.585   6.482 -0.0510  0.0977  0.1351
   29CHL1   H2A 3300   5.813   0.647   6.505  1.1410  2.0599 -0.3080
   29CHL1   H2B 3301   5.995   0.645   6.496 -0.0997  0.8312 -2.2880
   29CHL1   C20 3302   5.914   0.308   5.566  0.3355  0.5991 -0.2382
   29CHL1   H20 3303   6.023   0.312   5.548  0.8461  1.8126  2.5333
   29CHL1   C21 3304   5.856   0.447   5.548  1.2715  0.1932  0.0458
   29CHL1  H21A 3305   5.891   0.487   5.450  0.3135  0.4515 -0.2033
   29CHL1  H21B 3306   5.905   0.510   5.626 -0.4827  0.3053  1.1208
   29CHL1  H21C 3307   5.745   0.437   5.551  1.4442 -2.3570  0.1480
   29CHL1   C22 3308   5.861   0.206   5.454 -0.3836  0.4708 -0.1962
   29CHL1  H22A 3309   5.884   0.099   5.471  1.1659  0.5124 -1.7651
   29CHL1  H22B 3310   5.750   0.213   5.459 -0.4911 -1.4595  2.0958
   29CHL1   C23 3311   5.913   0.252   5.311  0.6585 -0.2963  0.4035
   29CHL1  H23A 3312   5.881   0.358   5.298  0.7381 -0.2432  0.6242
   29CHL1  H23B 3313   6.024   0.246   5.305  0.7564 -0.6340  2.1021
   29CHL1   C24 3314   5.857   0.173   5.192 -0.4539 -0.6332 -0.0388
   29CHL1  H24A 3315   5.856   0.066   5.223 -0.6279 -0.7852 -0.5584
   29CHL1  H24B 3316   5.749   0.188   5.171 -0.1327  0.5778 -0.9519
   29CHL1   C25 3317   5.940   0.194   5.059 -0.8880 -0.2612 -0.5613
   29CHL1   H25 3318   6.042   0.155   5.078 -0.4679  0.1716 -1.8436
   29CHL1   C26 3319   5.881   0.110   4.942  0.1011 -0.6290  0.3368
   29CHL1  H26A 3320   5.774   0.135   4.925  0.2075  0.1944  0.8433
   29CHL1  H26B 3321   5.949   0.116   4.854 -0.6246 -0.3202 -0.2240
   29CHL1  H26C 3322   5.883   0.003   4.970  1.3524 -1.5217 -2.6816
   29CHL1   C27 3323   5.952   0.348   5.024 -0.0385 -0.6227  0.4649
   29CHL1  H27A 3324   6.025   0.400   5.089  2.2416 -0.5006 -2.0249
   29CHL1  H27B 3325   5.989   0.352   4.920  1.3696  0.7361  0.9769
   29CHL1  H27C 3326   5.847   0.377   5.042 -0.2579 -1.5356  0.7191
   30CHL1    C3 3327   6.748   1.386   6.970  0.0440  0.2073 -0.3492
   30CHL1    H3 3328   6.649   1.437   6.977 -1.5325 -2.7840  1.1983
   30CHL1    O3 3329   6.793   1.365   7.104 -0.0618 -0.0349 -0.3139
   30CHL1   H3' 3330   6.720   1.391   7.162  1.7387  1.9041  1.2380
   30CHL1    C4 3331   6.730   1.244   6.902 -0.8660 -0.0095 -0.4903
   30CHL1   H4A 3332   6.828   1.192   6.914  0.9640  2.8727 -1.7804
   30CHL1   H4B 3333   6.657   1.191   6.966 -0.1354 -0.1104  0.2855
   30CHL1    C5 3334   6.692   1.247   6.755  0.2364 -0.9682 -0.7251
   30CHL1    C6 3335   6.580   1.182   6.717 -0.1921  0.2097  0.3368
   30CHL1    H6 3336   6.517   1.123   6.784 -1.4999  1.3040  0.1198
   30CHL1    C7 3337   6.537   1.171   6.573  0.1182 -0.2352 -0.5837
   30CHL1   H7A 3338   6.505   1.068   6.545 -1.5417 -0.1987  0.9502
   30CHL1   H7B 3339   6.450   1.239   6.556  0.8478  0.8266 -0.1271
   30CHL1    C8 3340   6.650   1.220   6.486 -0.0243  0.3123 -0.7071
   30CHL1    H8 3341   6.735   1.147   6.486  0.4347  0.8420 -0.8956
   30CHL1   C14 3342   6.594   1.239   6.350 -0.5158 -1.1843  0.7745
   30CHL1   H14 3343   6.528   1.329   6.351 -0.2906 -0.8282 -3.0052
   30CHL1   C15 3344   6.490   1.136   6.296 -0.1964  1.5785 -0.1814
   30CHL1  H15A 3345   6.544   1.040   6.308 -1.6746  0.7131 -0.2564
   30CHL1  H15B 3346   6.392   1.130   6.347  0.4368  0.5966  0.9700
   30CHL1   C16 3347   6.480   1.173   6.149  0.4867 -0.2581  0.7380
   30CHL1  H16A 3348   6.494   1.087   6.080  2.4555 -0.2531  1.0792
   30CHL1  H16B 3349   6.380   1.219   6.132  0.0684 -1.4055 -0.0021
   30CHL1   C17 3350   6.592   1.279   6.122 -0.2987 -0.1579 -0.1819
   30CHL1   H17 3351   6.548   1.378   6.145 -1.2381 -1.0408  2.1535
   30CHL1   C13 3352   6.695   1.274   6.242  0.0213  0.0277 -0.2239
   30CHL1   C18 3353   6.793   1.162   6.219 -0.7188  0.3583  0.1649
   30CHL1  H18A 3354   6.855   1.195   6.132 -2.2432  1.3455 -0.6118
   30CHL1  H18B 3355   6.847   1.136   6.312 -1.2492 -0.4499  0.2537
   30CHL1  H18C 3356   6.739   1.074   6.178  1.1938  0.2263 -2.3025
   30CHL1   C12 3357   6.767   1.401   6.276  0.6597  0.1175  0.0330
   30CHL1  H12A 3358   6.851   1.407   6.203  1.8687  0.6870  1.4145
   30CHL1  H12B 3359   6.706   1.493   6.269  0.8563  0.1745 -1.3710
   30CHL1   C11 3360   6.827   1.393   6.418 -0.1845  0.1530  0.2199
   30CHL1  H11A 3361   6.907   1.316   6.413  0.3069  0.6706 -0.0187
   30CHL1  H11B 3362   6.876   1.490   6.439  2.3879 -1.0041 -0.0262
   30CHL1    C9 3363   6.723   1.348   6.529  0.1735 -0.5369 -0.0838
   30CHL1    H9 3364   6.637   1.417   6.538 -0.6912 -1.7603  1.4251
   30CHL1   C10 3365   6.780   1.337   6.674  0.7285  0.1365  0.3451
   30CHL1   C19 3366   6.914   1.264   6.666  0.5001  0.0916  0.0153
   30CHL1  H19A 3367   6.906   1.177   6.597 -2.5066  0.5191 -0.3320
   30CHL1  H19B 3368   6.998   1.322   6.623  0.7245  0.8206  1.3704
   30CHL1  H19C 3369   6.958   1.226   6.760  1.4009 -0.4962 -0.6276
   30CHL1    C1 3370   6.799   1.475   6.740 -0.0131 -0.2380  0.1766
   30CHL1   H1A 3371   6.878   1.541   6.700 -1.0571  0.0985 -1.4277
   30CHL1   H1B 3372   6.714   1.544   6.723  2.1628  2.2518 -1.2371
   30CHL1    C2 3373   6.843   1.467   6.889 -0.1860 -0.6547 -0.5265
   30CHL1   H2A 3374   6.832   1.571   6.928  0.7521 -1.0067  0.7505
   30CHL1   H2B 3375   6.950   1.437   6.890  0.0586  0.1327 -1.2643
   30CHL1   C20 3376   6.649   1.260   5.977  0.5871 -0.4723  0.7405
   30CHL1   H20 3377   6.695   1.159   5.981 -0.1173 -0.7877  3.7450
   30CHL1   C21 3378   6.743   1.370   5.936 -0.6109 -0.4415 -0.3094
   30CHL1  H21A 3379   6.761   1.376   5.826 -2.2473  0.6949 -0.5548
   30CHL1  H21B 3380   6.842   1.344   5.979 -1.3709  0.6886  2.3016
   30CHL1  H21C 3381   6.721   1.466   5.987 -0.1693  0.4367 -1.6935
   30CHL1   C22 3382   6.540   1.267   5.871 -0.3105  0.5584  0.6131
   30CHL1  H22A 3383   6.463   1.192   5.899 -1.2106  0.1293 -2.6431
   30CHL1  H22B 3384   6.494   1.368   5.872 -3.7249 -0.8468 -0.4657
   30CHL1   C23 3385   6.586   1.229   5.724 -0.1485 -0.0321 -0.6427
   30CHL1  H23A 3386   6.626   1.320   5.675  2.3395 -0.8605 -0.2997
   30CHL1  H23B 3387   6.669   1.157   5.739  1.5245  1.5082 -1.9791
   30CHL1   C24 3388   6.473   1.154   5.651 -0.1603  0.2283  0.1382
   30CHL1  H24A 3389   6.444   1.068   5.716 -1.0038  0.5987  0.2703
   30CHL1  H24B 3390   6.380   1.214   5.642 -0.1009  0.2480 -0.3739
   30CHL1   C25 3391   6.505   1.114   5.503 -0.0651 -0.0121 -0.3028
   30CHL1   H25 3392   6.528   1.209   5.451  0.8142  0.6795  1.3004
   30CHL1   C26 3393   6.613   1.007   5.509  0.2137 -0.4619  0.2153
   30CHL1  H26A 3394   6.706   1.044   5.556 -0.3025  0.5656  0.4595
   30CHL1  H26B 3395   6.578   0.914   5.560 -0.7707 -0.0785  0.2749
   30CHL1  H26C 3396   6.635   0.987   5.402 -1.0683 -0.1587 -0.1351
   30CHL1   C27 3397   6.382   1.055   5.428  0.2258 -0.2055 -0.2387
   30CHL1  H27A 3398   6.296   1.125   5.439  1.6154  1.4540  0.4053
   30CHL1  H27B 3399   6.397   1.046   5.318  2.2699  0.6344 -0.0726
   30CHL1  H27C 3400   6.355   0.954   5.465 -0.4844 -0.6687 -1.9018
   31CHL1    C3 3401   4.661   1.452   6.662 -0.2234 -0.3978  0.2789
   31CHL1    H3 3402   4.705   1.354   6.633 -1.8184 -1.7203  2.0442
   31CHL1    O3 3403   4.684   1.482   6.801 -0.0008 -0.0178  0.2200
   31CHL1   H3' 3404   4.660   1.575   6.800 -0.0544 -0.0302  0.4130
   31CHL1    C4 3405   4.706   1.562   6.565 -0.0121 -0.2058  0.0548
   31CHL1   H4A 3406   4.664   1.662   6.588  0.4304 -0.1783  0.8052
   31CHL1   H4B 3407   4.814   1.577   6.586  0.6382  0.3349 -3.2453
   31CHL1    C5 3408   4.677   1.529   6.418 -0.4831  0.8363 -0.0584
   31CHL1    C6 3409   4.765   1.541   6.322 -1.0456 -0.7042 -0.1677
   31CHL1    H6 3410   4.866   1.568   6.357 -2.1540 -0.4727  3.3262
   31CHL1    C7 3411   4.752   1.508   6.179 -0.2958 -0.0602 -0.2704
   31CHL1   H7A 3412   4.814   1.571   6.112  0.5690 -0.7840 -0.1718
   31CHL1   H7B 3413   4.765   1.398   6.171 -2.5233 -0.3227 -0.9073
   31CHL1    C8 3414   4.598   1.507   6.146  0.6638  0.8147  0.6227
   31CHL1    H8 3415   4.574   1.614   6.125  0.7636  0.3032 -2.6276
   31CHL1   C14 3416   4.586   1.431   6.021 -0.0979  0.4912  1.4779
   31CHL1   H14 3417   4.610   1.327   6.053 -0.0717  0.3079  0.8756
   31CHL1   C15 3418   4.676   1.441   5.896 -0.6390  0.3685  0.8178
   31CHL1  H15A 3419   4.676   1.547   5.864  0.1068 -0.1619 -1.0570
   31CHL1  H15B 3420   4.778   1.401   5.911 -1.2258 -0.8652  1.6838
   31CHL1   C16 3421   4.605   1.371   5.785 -0.7598 -0.0832 -0.3335
   31CHL1  H16A 3422   4.599   1.430   5.691  1.3141  0.0421 -0.4379
   31CHL1  H16B 3423   4.652   1.272   5.765 -2.5999 -0.9036 -0.8507
   31CHL1   C17 3424   4.464   1.334   5.833 -0.2761 -0.4871 -1.1172
   31CHL1   H17 3425   4.467   1.229   5.867  0.5844 -0.4553 -1.0648
   31CHL1   C13 3426   4.441   1.417   5.963  0.2344 -1.3833  0.0697
   31CHL1   C18 3427   4.391   1.559   5.929 -0.2622  0.9055  0.4831
   31CHL1  H18A 3428   4.450   1.606   5.847  0.3847  1.0191  0.9977
   31CHL1  H18B 3429   4.283   1.561   5.904 -1.0615 -1.7798  3.1229
   31CHL1  H18C 3430   4.399   1.624   6.020 -1.8512 -1.8138  2.7172
   31CHL1   C12 3431   4.347   1.350   6.067 -0.0755 -0.6331 -0.0226
   31CHL1  H12A 3432   4.242   1.341   6.034 -0.6332  1.1949  1.1340
   31CHL1  H12B 3433   4.387   1.246   6.075  1.3092 -0.1020  0.2397
   31CHL1   C11 3434   4.363   1.429   6.201 -0.1250  0.1871  0.1070
   31CHL1  H11A 3435   4.312   1.528   6.190  0.4926  0.3309 -1.8293
   31CHL1  H11B 3436   4.298   1.372   6.271  0.8920 -0.0124  0.8982
   31CHL1    C9 3437   4.505   1.440   6.255  0.0005 -0.7471  0.8624
   31CHL1    H9 3438   4.530   1.332   6.250  1.4161 -0.3697 -1.5346
   31CHL1   C10 3439   4.529   1.499   6.391 -0.1272  0.3228 -0.1011
   31CHL1   C19 3440   4.451   1.632   6.404 -0.0643 -0.9581 -0.9002
   31CHL1  H19A 3441   4.342   1.613   6.415 -0.3928  1.6053  1.7065
   31CHL1  H19B 3442   4.465   1.681   6.503 -1.4330  0.5818 -1.4123
   31CHL1  H19C 3443   4.455   1.698   6.315 -1.0139 -0.9761 -0.9700
   31CHL1    C1 3444   4.477   1.394   6.492  0.4419  0.7001 -0.7198
   31CHL1   H1A 3445   4.369   1.370   6.483  0.2285  1.9539 -1.9271
   31CHL1   H1B 3446   4.540   1.303   6.499 -2.5597 -1.4096  1.8757
   31CHL1    C2 3447   4.508   1.438   6.645  0.8828  0.5214  0.1389
   31CHL1   H2A 3448   4.476   1.364   6.721  1.2145  0.8024  0.5559
   31CHL1   H2B 3449   4.460   1.537   6.660 -0.8662 -0.1544 -0.7750
   31CHL1   C20 3450   4.354   1.345   5.721 -0.0489 -0.2201 -0.6974
   31CHL1   H20 3451   4.334   1.454   5.709  0.8294  0.6863  4.0920
   31CHL1   C21 3452   4.223   1.290   5.775 -0.1855 -0.8708 -0.2515
   31CHL1  H21A 3453   4.183   1.240   5.685  1.5252  0.0202 -1.5682
   31CHL1  H21B 3454   4.158   1.371   5.814  1.6431 -1.1661  3.9667
   31CHL1  H21C 3455   4.241   1.201   5.840  0.3658 -1.3080 -0.9823
   31CHL1   C22 3456   4.388   1.281   5.585  0.3387  1.4498 -0.4846
   31CHL1  H22A 3457   4.495   1.296   5.562  0.8213 -0.7649  0.0376
   31CHL1  H22B 3458   4.380   1.170   5.596  1.5580  1.5167  1.4752
   31CHL1   C23 3459   4.311   1.316   5.454  0.4300 -0.2170 -0.6513
   31CHL1  H23A 3460   4.341   1.248   5.371 -0.7245 -2.7671  0.8805
   31CHL1  H23B 3461   4.202   1.299   5.466  0.5201 -0.3436  0.0498
   31CHL1   C24 3462   4.347   1.460   5.419  0.4658  0.3402  1.0489
   31CHL1  H24A 3463   4.303   1.532   5.490  1.2445  3.5016 -1.4365
   31CHL1  H24B 3464   4.455   1.486   5.429  0.4263 -0.0273  2.7558
   31CHL1   C25 3465   4.289   1.504   5.281  0.2954  0.5312 -0.7989
   31CHL1   H25 3466   4.334   1.436   5.205  3.2041 -0.0352  1.2566
   31CHL1   C26 3467   4.139   1.508   5.284 -0.2055  0.6912 -0.5935
   31CHL1  H26A 3468   4.100   1.406   5.302 -0.8720  0.1792 -4.2153
   31CHL1  H26B 3469   4.097   1.579   5.358 -2.5596 -0.8162 -0.3949
   31CHL1  H26C 3470   4.106   1.541   5.183 -0.3098  0.1119 -0.7518
   31CHL1   C27 3471   4.331   1.651   5.248 -0.2422 -0.4152  0.2553
   31CHL1  H27A 3472   4.442   1.649   5.241 -0.1833 -4.1463  0.2582
   31CHL1  H27B 3473   4.296   1.697   5.153  0.9455  2.0265  0.9155
   31CHL1  H27C 3474   4.321   1.711   5.341 -2.5581  1.6733 -1.2519
   32CHL1    C3 3475   0.967   5.675   6.949 -0.9098  0.2671  0.0130
   32CHL1    H3 3476   0.904   5.590   6.983 -0.9307 -0.0541 -0.7964
   32CHL1    O3 3477   0.988   5.763   7.060  0.4561  0.4929  0.6103
   32CHL1   H3' 3478   1.060   5.821   7.033  1.2092 -0.2297  0.9908
   32CHL1    C4 3479   1.101   5.602   6.927 -0.3775  0.6297  0.0655
   32CHL1   H4A 3480   1.183   5.675   6.949 -0.6806  1.3834 -1.1562
   32CHL1   H4B 3481   1.112   5.527   7.007  0.0961 -1.2581 -1.6726
   32CHL1    C5 3482   1.118   5.535   6.787 -0.1086 -0.4124 -0.2426
   32CHL1    C6 3483   1.144   5.404   6.756 -0.5123 -0.1179 -1.0920
   32CHL1    H6 3484   1.154   5.336   6.843 -0.6330  1.1611 -0.0533
   32CHL1    C7 3485   1.157   5.338   6.622  0.5288  0.6582 -0.0262
   32CHL1   H7A 3486   1.245   5.270   6.615  0.3692  0.5640 -1.2517
   32CHL1   H7B 3487   1.065   5.281   6.600  1.4472  0.6276 -4.7968
   32CHL1    C8 3488   1.185   5.453   6.513  0.2177 -0.0248 -0.3402
   32CHL1    H8 3489   1.285   5.500   6.519 -0.0151  0.3234  1.3826
   32CHL1   C14 3490   1.168   5.390   6.378  0.1299 -0.4258  0.4874
   32CHL1   H14 3491   1.061   5.359   6.376 -0.2353  0.6696  1.8983
   32CHL1   C15 3492   1.246   5.259   6.353 -0.4030  0.3592  0.2707
   32CHL1  H15A 3493   1.353   5.260   6.381 -0.2475 -1.9814 -0.0599
   32CHL1  H15B 3494   1.197   5.176   6.409 -0.1033  1.1694  1.7639
   32CHL1   C16 3495   1.225   5.244   6.201  0.7191  0.1603 -0.0935
   32CHL1  H16A 3496   1.326   5.233   6.155  0.5755  1.0171 -0.6424
   32CHL1  H16B 3497   1.157   5.162   6.171  0.3354  0.5792 -0.3898
   32CHL1   C17 3498   1.164   5.373   6.143  0.5019  0.3386  0.5247
   32CHL1   H17 3499   1.055   5.350   6.143  0.8475 -1.4786  1.2311
   32CHL1   C13 3500   1.192   5.481   6.259 -0.1317  0.9864  0.6610
   32CHL1   C18 3501   1.335   5.519   6.252 -0.5195  0.1619 -0.0953
   32CHL1  H18A 3502   1.396   5.431   6.223 -0.0501  0.0830  1.0821
   32CHL1  H18B 3503   1.358   5.601   6.181  1.1940 -0.1342  0.0937
   32CHL1  H18C 3504   1.371   5.547   6.353 -0.0411 -0.6260 -0.0423
   32CHL1   C12 3505   1.092   5.600   6.265 -0.9472 -0.1607  0.1681
   32CHL1  H12A 3506   1.114   5.672   6.183  0.2103  0.0201  0.6326
   32CHL1  H12B 3507   0.987   5.566   6.252 -1.3897  1.7872 -2.1814
   32CHL1   C11 3508   1.101   5.661   6.404 -0.4705 -0.7885 -0.0308
   32CHL1  H11A 3509   1.209   5.688   6.410 -1.0219  1.9079 -1.0919
   32CHL1  H11B 3510   1.038   5.750   6.421  0.3080 -0.1847 -0.2479
   32CHL1    C9 3511   1.086   5.566   6.526  0.4297 -0.3376 -0.5529
   32CHL1    H9 3512   0.982   5.527   6.524 -0.1367  1.1141 -0.3949
   32CHL1   C10 3513   1.092   5.629   6.670  0.8195  1.2845  0.2620
   32CHL1   C19 3514   1.201   5.741   6.670 -0.6502 -0.1302 -0.1232
   32CHL1  H19A 3515   1.199   5.797   6.766  2.9173 -0.2290  0.1396
   32CHL1  H19B 3516   1.303   5.699   6.658 -0.8130  0.1034 -3.3654
   32CHL1  H19C 3517   1.193   5.815   6.587  0.3130  0.6207  0.4382
   32CHL1    C1 3518   0.951   5.687   6.704  0.4082 -0.2737 -0.7381
   32CHL1   H1A 3519   0.937   5.774   6.637 -0.6745  1.0604  1.1032
   32CHL1   H1B 3520   0.863   5.621   6.684  1.0631 -1.3911 -0.0869
   32CHL1    C2 3521   0.935   5.763   6.831  0.3142 -0.1867 -0.1211
   32CHL1   H2A 3522   0.835   5.810   6.842 -0.5490 -1.7967 -0.7766
   32CHL1   H2B 3523   1.004   5.850   6.822 -0.1446 -0.0698 -3.5982
   32CHL1   C20 3524   1.208   5.394   6.001 -0.3950 -0.9778 -0.0125
   32CHL1   H20 3525   1.317   5.410   5.999 -0.5602  0.4980  1.2143
   32CHL1   C21 3526   1.132   5.514   5.940 -0.5281  0.2843 -0.5016
   32CHL1  H21A 3527   1.027   5.533   5.973  1.1122  4.8041  3.2169
   32CHL1  H21B 3528   1.140   5.502   5.830  3.9198 -4.3054 -0.0052
   32CHL1  H21C 3529   1.186   5.604   5.978 -0.3628 -0.4894  1.1846
   32CHL1   C22 3530   1.180   5.270   5.908 -0.1550  0.6341  0.7944
   32CHL1  H22A 3531   1.201   5.174   5.961 -0.3636 -0.2109 -0.6014
   32CHL1  H22B 3532   1.072   5.267   5.885  0.0921  0.1654 -0.3927
   32CHL1   C23 3533   1.259   5.270   5.788  0.3302 -0.4149 -0.0287
   32CHL1  H23A 3534   1.246   5.366   5.733  1.5537 -0.7552 -0.9640
   32CHL1  H23B 3535   1.367   5.266   5.813  0.2891 -0.5379  0.1332
   32CHL1   C24 3536   1.232   5.142   5.711  0.0825  0.4952 -0.1776
   32CHL1  H24A 3537   1.237   5.048   5.770  1.5143 -0.7125 -2.1208
   32CHL1  H24B 3538   1.122   5.138   5.695  0.1224 -0.0363 -0.3217
   32CHL1   C25 3539   1.305   5.123   5.579  0.0952  0.8438 -0.7031
   32CHL1   H25 3540   1.410   5.156   5.596  0.0866  1.5557 -1.9008
   32CHL1   C26 3541   1.302   4.976   5.548 -0.5380  0.3494 -0.6813
   32CHL1  H26A 3542   1.205   4.955   5.498 -0.3027  0.2603 -1.1075
   32CHL1  H26B 3543   1.384   4.959   5.474  1.2962  3.0938  0.5746
   32CHL1  H26C 3544   1.327   4.920   5.641 -0.9821  0.3438 -0.5657
   32CHL1   C27 3545   1.253   5.208   5.465  0.3738 -0.3691  0.4479
   32CHL1  H27A 3546   1.318   5.211   5.375 -2.2829 -2.2777 -1.7328
   32CHL1  H27B 3547   1.151   5.178   5.431  1.3318 -2.5909 -0.6757
   32CHL1  H27C 3548   1.244   5.312   5.501  0.9862  0.3437 -1.3550
   33CHL1    C3 3549   5.184   1.219   6.744  0.7011 -0.1299  0.2901
   33CHL1    H3 3550   5.282   1.168   6.751  0.5244 -0.5310 -0.1247
   33CHL1    O3 3551   5.161   1.274   6.876 -0.1307 -0.3297  0.2943
   33CHL1   H3' 3552   5.070   1.303   6.885  0.1086  0.0593  1.6756
   33CHL1    C4 3553   5.180   1.338   6.642  0.9675  0.7592 -0.8061
   33CHL1   H4A 3554   5.081   1.386   6.656  0.5927 -0.3214  0.5341
   33CHL1   H4B 3555   5.249   1.417   6.678  0.9811  0.3649  0.0713
   33CHL1    C5 3556   5.201   1.290   6.504 -0.4606 -0.0229 -0.1382
   33CHL1    C6 3557   5.299   1.337   6.432 -0.0598 -0.0167  0.2727
   33CHL1    H6 3558   5.364   1.409   6.482  1.6191 -1.5198  0.3632
   33CHL1    C7 3559   5.317   1.299   6.286 -0.7346 -0.0417  0.2635
   33CHL1   H7A 3560   5.349   1.390   6.231 -0.2623 -0.5094 -0.2416
   33CHL1   H7B 3561   5.393   1.221   6.266 -0.9093  0.1503 -1.2877
   33CHL1    C8 3562   5.185   1.236   6.226  0.0185  0.9530  0.0622
   33CHL1    H8 3563   5.118   1.324   6.213  1.2540  1.9702  0.3658
   33CHL1   C14 3564   5.216   1.176   6.086 -0.0958 -0.3744 -0.6357
   33CHL1   H14 3565   5.292   1.098   6.105 -0.1740 -0.5925 -1.1936
   33CHL1   C15 3566   5.290   1.259   5.988 -0.2315 -0.9288 -0.1043
   33CHL1  H15A 3567   5.246   1.361   5.987  3.9675  1.2359  3.2094
   33CHL1  H15B 3568   5.400   1.262   6.003 -0.1500 -0.2145 -0.7603
   33CHL1   C16 3569   5.259   1.191   5.848 -0.0988  0.0893 -0.0055
   33CHL1  H16A 3570   5.206   1.260   5.780  1.1662  1.0376 -0.0711
   33CHL1  H16B 3571   5.348   1.160   5.789  1.1461  2.0735  0.7175
   33CHL1   C17 3572   5.171   1.068   5.887  0.8413  0.4549 -0.9979
   33CHL1   H17 3573   5.247   0.988   5.898  0.8441  0.5372 -0.4031
   33CHL1   C13 3574   5.103   1.103   6.024  0.2664 -0.2912  1.0514
   33CHL1   C18 3575   4.986   1.194   5.998 -0.1877  0.1899 -0.4297
   33CHL1  H18A 3576   4.891   1.147   5.963 -1.2788  2.3212 -0.4996
   33CHL1  H18B 3577   4.947   1.252   6.084 -0.7813  2.0855 -1.9093
   33CHL1  H18C 3578   5.008   1.255   5.908 -1.2434 -1.4126 -1.8556
   33CHL1   C12 3579   5.069   0.985   6.118 -0.3975 -0.7147  0.3812
   33CHL1  H12A 3580   4.981   0.937   6.071  0.1976 -2.2795  0.8085
   33CHL1  H12B 3581   5.148   0.908   6.128 -0.6799 -1.1947 -0.9408
   33CHL1   C11 3582   5.025   1.047   6.256 -0.4238 -0.5803  0.4554
   33CHL1  H11A 3583   4.943   1.120   6.239 -0.2363 -0.4426  0.1371
   33CHL1  H11B 3584   5.000   0.961   6.323 -3.2445  1.1362  1.7956
   33CHL1    C9 3585   5.141   1.124   6.318  0.3911 -0.2656 -0.0088
   33CHL1    H9 3586   5.227   1.055   6.326  1.2689  0.7665 -0.2469
   33CHL1   C10 3587   5.098   1.184   6.457  0.5371 -0.0127 -1.0196
   33CHL1   C19 3588   4.952   1.243   6.450  0.1805 -0.6805 -0.1757
   33CHL1  H19A 3589   4.882   1.158   6.461  0.6477 -1.1365 -0.6505
   33CHL1  H19B 3590   4.938   1.314   6.534  0.6055 -0.9204  0.0956
   33CHL1  H19C 3591   4.941   1.302   6.356  0.6868 -3.5604 -2.2099
   33CHL1    C1 3592   5.097   1.068   6.562  0.0009  0.1762 -0.1789
   33CHL1   H1A 3593   5.012   1.000   6.544  0.5051 -0.8935  1.2515
   33CHL1   H1B 3594   5.192   1.011   6.563 -0.2958 -0.5617  3.7496
   33CHL1    C2 3595   5.081   1.116   6.709  0.5708  0.8951 -0.2822
   33CHL1   H2A 3596   5.078   1.030   6.778  2.7750  1.7587  1.0108
   33CHL1   H2B 3597   4.979   1.159   6.704 -1.1363 -2.7493  0.2095
   33CHL1   C20 3598   5.089   1.013   5.774  1.0074  0.5785  0.9542
   33CHL1   H20 3599   5.011   1.080   5.731  0.3694 -0.7631 -0.0363
   33CHL1   C21 3600   5.006   0.894   5.819  0.4769 -0.4482 -0.1905
   33CHL1  H21A 3601   4.922   0.938   5.877  2.2241  1.7333  0.8239
   33CHL1  H21B 3602   5.052   0.825   5.893 -4.0351  0.3028  3.8714
   33CHL1  H21C 3603   4.975   0.828   5.736  1.5562  0.3743 -1.2783
   33CHL1   C22 3604   5.177   0.970   5.653 -0.3840 -0.1777  0.4544
   33CHL1  H22A 3605   5.278   0.931   5.680 -0.4762 -0.5270  0.3091
   33CHL1  H22B 3606   5.121   0.881   5.617  1.7165 -0.7882 -1.5934
   33CHL1   C23 3607   5.185   1.057   5.528  0.2703  0.0106 -0.2024
   33CHL1  H23A 3608   5.080   1.063   5.491  1.1267 -0.4037 -3.0126
   33CHL1  H23B 3609   5.227   1.159   5.537  1.3461 -0.3586 -0.7991
   33CHL1   C24 3610   5.257   0.993   5.410 -0.0559 -0.3466  0.1152
   33CHL1  H24A 3611   5.366   0.995   5.431  0.0850  1.9480 -0.4795
   33CHL1  H24B 3612   5.230   0.886   5.401 -1.1692 -0.1226  0.6108
   33CHL1   C25 3613   5.232   1.061   5.271  0.1476 -0.3361 -0.8640
   33CHL1   H25 3614   5.259   1.168   5.282  0.7266 -0.1887 -3.2192
   33CHL1   C26 3615   5.329   1.025   5.163  0.5437 -0.0570 -0.6927
   33CHL1  H26A 3616   5.326   1.088   5.071  1.2324 -2.0787 -2.1580
   33CHL1  H26B 3617   5.432   1.022   5.205  0.8288 -1.9447 -1.4491
   33CHL1  H26C 3618   5.310   0.923   5.124  1.6688 -0.0346 -1.3219
   33CHL1   C27 3619   5.093   1.041   5.220 -0.3930  0.1579 -0.1086
   33CHL1  H27A 3620   5.013   1.079   5.287 -1.6328  1.3880 -2.1805
   33CHL1  H27B 3621   5.069   1.098   5.128  0.7267  1.7899  0.5784
   33CHL1  H27C 3622   5.071   0.932   5.213 -1.1118  0.3940 -2.0921
   34CHL1    C3 3623   6.350   1.803   6.941  0.3088  0.3953  0.4172
   34CHL1    H3 3624   6.355   1.913   6.922  0.3965 -0.0471 -2.5732
   34CHL1    O3 3625   6.358   1.784   7.085 -0.3286 -0.1717  0.6883
   34CHL1   H3' 3626   6.452   1.791   7.102 -0.6719  3.3000  2.0359
   34CHL1    C4 3627   6.223   1.741   6.884  0.7565  0.9463 -0.1182
   34CHL1   H4A 3628   6.209   1.635   6.916 -1.8013  1.4760  0.7203
   34CHL1   H4B 3629   6.138   1.785   6.940 -0.2843  0.6495 -1.4097
   34CHL1    C5 3630   6.216   1.740   6.731  0.3515 -0.1057  0.2428
   34CHL1    C6 3631   6.118   1.808   6.667  0.7638  0.2865  0.4548
   34CHL1    H6 3632   6.045   1.861   6.730 -0.2168 -1.6147  0.9855
   34CHL1    C7 3633   6.092   1.812   6.519 -0.0678  0.5666 -1.3630
   34CHL1   H7A 3634   5.988   1.775   6.503 -0.0294 -1.0834  1.5723
   34CHL1   H7B 3635   6.107   1.917   6.485  2.2405  1.3182  1.5849
   34CHL1    C8 3636   6.189   1.722   6.448 -0.6249  0.0504  0.4063
   34CHL1    H8 3637   6.153   1.618   6.462  0.0223 -0.1054  0.9814
   34CHL1   C14 3638   6.194   1.758   6.298 -0.2846 -0.8469  0.0929
   34CHL1   H14 3639   6.237   1.861   6.299 -0.8246 -0.6018  1.6827
   34CHL1   C15 3640   6.073   1.760   6.204  0.7342 -0.1365 -0.5616
   34CHL1  H15A 3641   6.018   1.666   6.225  0.2417 -0.1228 -1.6987
   34CHL1  H15B 3642   6.004   1.842   6.232  1.3079 -0.9387  3.9264
   34CHL1   C16 3643   6.116   1.754   6.058  1.1249 -0.1919 -0.1745
   34CHL1  H16A 3644   6.065   1.665   6.016  2.5232 -0.1431 -2.0994
   34CHL1  H16B 3645   6.086   1.840   5.994 -0.6209 -1.5756 -1.3262
   34CHL1   C17 3646   6.270   1.729   6.064  0.1406  0.7792 -0.4700
   34CHL1   H17 3647   6.308   1.833   6.058 -2.2095  1.7025 -0.3655
   34CHL1   C13 3648   6.293   1.681   6.208  0.0405 -0.0047  0.8494
   34CHL1   C18 3649   6.263   1.532   6.203  0.3434 -0.3977 -0.5719
   34CHL1  H18A 3650   6.274   1.494   6.307 -0.8093 -0.0067 -0.2909
   34CHL1  H18B 3651   6.157   1.509   6.179  0.4002 -1.6483  0.2555
   34CHL1  H18C 3652   6.335   1.470   6.145  1.4280  0.5451 -0.2563
   34CHL1   C12 3653   6.439   1.695   6.261 -0.1591 -0.0822  0.3803
   34CHL1  H12A 3654   6.507   1.627   6.205 -3.7083 -1.5397 -2.6118
   34CHL1  H12B 3655   6.475   1.799   6.245  1.9463 -0.8556 -0.1542
   34CHL1   C11 3656   6.440   1.662   6.413  0.3960  0.4891 -0.1497
   34CHL1  H11A 3657   6.433   1.551   6.418 -0.4894  0.5071 -0.8207
   34CHL1  H11B 3658   6.538   1.690   6.458  1.1847  0.1392 -1.5835
   34CHL1    C9 3659   6.329   1.726   6.499 -0.9471  0.2592  0.0860
   34CHL1    H9 3660   6.359   1.833   6.492  0.1021 -0.0477 -0.2735
   34CHL1   C10 3661   6.331   1.687   6.654 -0.8329 -0.6276  0.1274
   34CHL1   C19 3662   6.340   1.526   6.665 -0.0012  0.0181 -0.0662
   34CHL1  H19A 3663   6.350   1.506   6.774 -1.9660  1.4309  0.4304
   34CHL1  H19B 3664   6.244   1.483   6.629  0.6190 -1.4769 -0.0082
   34CHL1  H19C 3665   6.423   1.476   6.611  0.0953  0.7042 -0.5657
   34CHL1    C1 3666   6.465   1.746   6.713 -0.5675  0.1164  0.6657
   34CHL1   H1A 3667   6.553   1.695   6.668 -0.8602 -0.1348  0.3710
   34CHL1   H1B 3668   6.462   1.851   6.677  1.5321  0.2004  0.6329
   34CHL1    C2 3669   6.475   1.739   6.871 -0.0726 -0.2220 -0.8105
   34CHL1   H2A 3670   6.577   1.765   6.905  0.3422 -2.3280 -0.3053
   34CHL1   H2B 3671   6.466   1.631   6.895  0.8960 -0.3691 -1.0767
   34CHL1   C20 3672   6.319   1.656   5.944  0.2044 -0.2896  0.5335
   34CHL1   H20 3673   6.313   1.545   5.948  0.0676 -0.2448  1.9206
   34CHL1   C21 3674   6.462   1.701   5.918  0.0659  0.3458 -0.7934
   34CHL1  H21A 3675   6.504   1.641   5.834 -1.2982  1.1797 -2.1449
   34CHL1  H21B 3676   6.526   1.672   6.003 -0.9124  0.5111  0.0243
   34CHL1  H21C 3677   6.481   1.808   5.897  2.8400 -0.2068 -1.4862
   34CHL1   C22 3678   6.234   1.690   5.817 -0.1366  0.3239  0.4939
   34CHL1  H22A 3679   6.128   1.656   5.822 -1.0939  3.0443  0.3197
   34CHL1  H22B 3680   6.229   1.800   5.807  0.4400  0.2191 -1.1974
   34CHL1   C23 3681   6.293   1.639   5.695  0.1752 -0.0020 -0.3746
   34CHL1  H23A 3682   6.393   1.680   5.667 -0.6796  1.1060 -1.9353
   34CHL1  H23B 3683   6.304   1.528   5.699 -0.9318 -0.1204 -0.3556
   34CHL1   C24 3684   6.217   1.680   5.568 -0.5448  0.1070  0.0678
   34CHL1  H24A 3685   6.113   1.641   5.568 -0.3441 -0.4533 -0.6013
   34CHL1  H24B 3686   6.230   1.790   5.554  1.1266 -0.2223 -1.4514
   34CHL1   C25 3687   6.271   1.619   5.432  0.3591 -0.0022 -0.5150
   34CHL1   H25 3688   6.365   1.675   5.409 -0.0981  0.8129 -0.4169
   34CHL1   C26 3689   6.305   1.469   5.439 -0.0515 -0.5734 -0.1370
   34CHL1  H26A 3690   6.340   1.435   5.339  2.6169  2.9197 -0.5770
   34CHL1  H26B 3691   6.380   1.447   5.518 -1.0589  0.5730  1.1864
   34CHL1  H26C 3692   6.211   1.414   5.462 -1.1850  1.3092 -0.0114
   34CHL1   C27 3693   6.181   1.656   5.310  0.2571 -0.0618 -0.0687
   34CHL1  H27A 3694   6.082   1.607   5.294 -0.4181  2.3063 -5.1043
   34CHL1  H27B 3695   6.151   1.762   5.319 -1.1716 -0.4935  0.5849
   34CHL1  H27C 3696   6.232   1.627   5.216 -0.5719 -0.9112 -0.2740
   35CHL1    C3 3697   6.208   2.681   6.672 -0.1785  0.1420 -0.1633
   35CHL1    H3 3698   6.287   2.605   6.653 -1.3811 -1.3203  0.5160
   35CHL1    O3 3699   6.201   2.699   6.815 -0.2477 -0.4415  0.3823
   35CHL1   H3' 3700   6.188   2.793   6.825  0.0763 -0.2394 -0.9219
   35CHL1    C4 3701   6.234   2.813   6.608  0.0364  0.1520 -0.0897
   35CHL1   H4A 3702   6.160   2.889   6.640  1.5755  1.7544 -0.1758
   35CHL1   H4B 3703   6.325   2.856   6.654 -0.8768  1.9393  0.1327
   35CHL1    C5 3704   6.243   2.814   6.454  0.2304  0.2846 -0.9515
   35CHL1    C6 3705   6.349   2.862   6.388  0.5053  0.7538 -0.4587
   35CHL1    H6 3706   6.429   2.915   6.442  0.0628  0.1298  0.8363
   35CHL1    C7 3707   6.364   2.851   6.240 -0.0694 -1.0880  0.1178
   35CHL1   H7A 3708   6.388   2.950   6.195  1.3037 -1.3909  0.1401
   35CHL1   H7B 3709   6.453   2.786   6.228 -0.2610 -1.0422 -2.0318
   35CHL1    C8 3710   6.243   2.781   6.161 -0.2299 -1.0325 -1.3121
   35CHL1    H8 3711   6.170   2.863   6.141 -1.1049 -1.2490  0.7527
   35CHL1   C14 3712   6.277   2.719   6.030  0.5676 -0.6086 -0.0597
   35CHL1   H14 3713   6.345   2.634   6.051  1.5511  0.3400  0.6720
   35CHL1   C15 3714   6.357   2.805   5.926  0.4309 -0.2411  0.0502
   35CHL1  H15A 3715   6.315   2.908   5.932  1.3683  0.1494  0.1133
   35CHL1  H15B 3716   6.463   2.817   5.958  0.3205  0.7799  0.0915
   35CHL1   C16 3717   6.327   2.736   5.791 -0.1663  0.5586 -0.3469
   35CHL1  H16A 3718   6.280   2.818   5.732 -0.7898  1.4138  1.2616
   35CHL1  H16B 3719   6.419   2.700   5.741  0.9099  0.9366  1.2590
   35CHL1   C17 3720   6.235   2.617   5.824  1.2847  0.3394  0.6819
   35CHL1   H17 3721   6.302   2.538   5.861  1.4714  0.9947  1.7702
   35CHL1   C13 3722   6.159   2.653   5.953  0.1730 -0.3226 -0.3509
   35CHL1   C18 3723   6.048   2.757   5.913 -0.1879 -0.1785  0.1925
   35CHL1  H18A 3724   6.049   2.839   5.987  1.8639  1.0354 -1.1074
   35CHL1  H18B 3725   6.059   2.800   5.811 -0.4480 -1.0540 -0.2190
   35CHL1  H18C 3726   5.950   2.705   5.902 -0.8739  1.3448 -1.3067
   35CHL1   C12 3727   6.093   2.550   6.042  0.0462  0.6550 -0.0229
   35CHL1  H12A 3728   6.006   2.510   5.986 -0.8059  2.2214  0.1259
   35CHL1  H12B 3729   6.160   2.463   6.057 -0.2920  0.5038  0.6333
   35CHL1   C11 3730   6.050   2.605   6.174 -0.1414 -0.3126 -0.1823
   35CHL1  H11A 3731   5.972   2.684   6.162  0.0975 -0.0511 -0.0003
   35CHL1  H11B 3732   6.020   2.521   6.240  2.0288 -0.6953  0.3855
   35CHL1    C9 3733   6.167   2.680   6.250 -0.1711 -0.2029  0.5521
   35CHL1    H9 3734   6.241   2.601   6.272  0.1390 -0.3307 -0.8455
   35CHL1   C10 3735   6.127   2.736   6.390 -0.4894  0.1736  0.3860
   35CHL1   C19 3736   6.010   2.837   6.382 -0.5056  0.5589 -0.7955
   35CHL1  H19A 3737   5.928   2.795   6.321 -0.4412 -1.3226  0.3252
   35CHL1  H19B 3738   5.967   2.879   6.476 -3.3203 -1.4066 -1.0848
   35CHL1  H19C 3739   6.028   2.924   6.316 -1.9706  0.6865 -1.0542
   35CHL1    C1 3740   6.093   2.609   6.467  0.4520 -0.1592 -0.0585
   35CHL1   H1A 3741   5.991   2.586   6.430 -0.5504 -1.6236  3.2179
   35CHL1   H1B 3742   6.166   2.530   6.440  0.1447 -0.2472 -0.6434
   35CHL1    C2 3743   6.073   2.637   6.620 -0.2438  0.5480  0.5624
   35CHL1   H2A 3744   6.040   2.550   6.680  2.3813  0.6569  2.3500
   35CHL1   H2B 3745   6.009   2.724   6.643  0.1091  0.2378  2.9056
   35CHL1   C20 3746   6.157   2.570   5.698  0.8363 -0.9002 -0.0723
   35CHL1   H20 3747   6.080   2.648   5.678  0.6817 -0.6509  1.3609
   35CHL1   C21 3748   6.086   2.435   5.732 -0.5045 -0.1540  0.6269
   35CHL1  H21A 3749   6.074   2.370   5.643  0.4157  0.5533 -0.0215
   35CHL1  H21B 3750   5.984   2.468   5.761 -0.4601  0.7403 -0.2018
   35CHL1  H21C 3751   6.141   2.382   5.813  0.6950 -2.2003 -1.3915
   35CHL1   C22 3752   6.241   2.565   5.560 -0.1288  0.4343 -1.0150
   35CHL1  H22A 3753   6.271   2.669   5.532  0.5486  0.1437 -1.3738
   35CHL1  H22B 3754   6.327   2.496   5.561  0.6227  1.3545 -0.0271
   35CHL1   C23 3755   6.158   2.540   5.440  1.0383  0.5138  0.5731
   35CHL1  H23A 3756   6.099   2.446   5.442  2.6827 -0.5576  0.1561
   35CHL1  H23B 3757   6.087   2.625   5.424  2.5895  2.3199  2.6356
   35CHL1   C24 3758   6.242   2.538   5.309 -1.0324 -0.2329 -0.8954
   35CHL1  H24A 3759   6.282   2.637   5.280 -0.8893  0.6422  1.9748
   35CHL1  H24B 3760   6.322   2.467   5.341 -2.7193 -1.5127  0.7575
   35CHL1   C25 3761   6.169   2.484   5.184 -0.5481 -0.2428  0.9492
   35CHL1   H25 3762   6.135   2.381   5.209  0.0340 -0.3778  1.2056
   35CHL1   C26 3763   6.044   2.571   5.152 -0.3068 -0.3490 -0.1810
   35CHL1  H26A 3764   5.976   2.588   5.239  0.4125  1.2028  0.1110
   35CHL1  H26B 3765   6.069   2.677   5.130 -1.0129 -0.1165  0.0686
   35CHL1  H26C 3766   5.970   2.540   5.076 -0.9451  1.3151 -0.2865
   35CHL1   C27 3767   6.277   2.483   5.064  0.4518 -0.4981 -0.0320
   35CHL1  H27A 3768   6.345   2.569   5.045  1.4716 -1.7604 -2.6141
   35CHL1  H27B 3769   6.338   2.392   5.084  1.1911 -0.1826 -0.7998
   35CHL1  H27C 3770   6.223   2.453   4.971  0.4965  1.1209 -0.6014
   36CHL1    C3 3771   3.574   1.218   6.668 -0.0293 -0.2644 -0.2116
   36CHL1    H3 3772   3.548   1.325   6.686  3.7200  0.7200  0.2855
   36CHL1    O3 3773   3.633   1.174   6.799  0.9885  0.1701  0.0337
   36CHL1   H3' 3774   3.661   1.085   6.774  0.0740 -0.3632  0.8270
   36CHL1    C4 3775   3.453   1.131   6.624 -0.2179  0.0106  0.0002
   36CHL1   H4A 3776   3.473   1.022   6.623  0.9123  0.1865 -1.7709
   36CHL1   H4B 3777   3.366   1.135   6.693  0.5571  1.0100  0.9641
   36CHL1    C5 3778   3.397   1.168   6.487 -0.8251  0.3448  0.1874
   36CHL1    C6 3779   3.266   1.196   6.471 -0.2756 -0.6917 -0.9226
   36CHL1    H6 3780   3.196   1.178   6.554 -1.6616  0.6936 -1.7412
   36CHL1    C7 3781   3.198   1.232   6.352  0.1641  0.2968 -0.0087
   36CHL1   H7A 3782   3.112   1.162   6.352 -0.0863  0.6015  0.6212
   36CHL1   H7B 3783   3.150   1.332   6.353  0.9971  0.7213  2.2324
   36CHL1    C8 3784   3.284   1.220   6.219  0.4136  0.4976  0.3590
   36CHL1    H8 3785   3.293   1.113   6.192  1.7420  1.1492 -2.0222
   36CHL1   C14 3786   3.235   1.315   6.107  0.2662  0.2428 -0.2575
   36CHL1   H14 3787   3.251   1.415   6.154 -1.4328 -0.2637  1.5071
   36CHL1   C15 3788   3.089   1.307   6.065  0.3488  0.1198  0.1482
   36CHL1  H15A 3789   3.049   1.203   6.058 -0.2533  0.4121 -1.2171
   36CHL1  H15B 3790   3.026   1.366   6.135  0.7155  1.3899 -0.5575
   36CHL1   C16 3791   3.086   1.374   5.923 -0.5730  0.1604  0.5950
   36CHL1  H16A 3792   3.040   1.302   5.852  0.2337  0.4035 -0.2021
   36CHL1  H16B 3793   3.035   1.472   5.917  0.8344  1.0004  1.5839
   36CHL1   C17 3794   3.238   1.388   5.881  0.4361 -0.1833  0.4675
   36CHL1   H17 3795   3.259   1.494   5.910  1.7608 -0.5088  0.7246
   36CHL1   C13 3796   3.312   1.304   5.980 -0.7933  0.1232  0.4843
   36CHL1   C18 3797   3.307   1.160   5.927 -0.0028  0.2393  0.4568
   36CHL1  H18A 3798   3.360   1.147   5.830  1.3135  0.7173  1.0871
   36CHL1  H18B 3799   3.359   1.092   5.998  1.2898 -0.6276 -1.2249
   36CHL1  H18C 3800   3.202   1.129   5.910 -0.2417  1.4568 -0.4440
   36CHL1   C12 3801   3.468   1.332   6.008 -0.0006 -0.0753  0.1936
   36CHL1  H12A 3802   3.534   1.313   5.921  0.7033  1.7754  0.2704
   36CHL1  H12B 3803   3.471   1.440   6.034  0.3278 -0.5294  2.2229
   36CHL1   C11 3804   3.523   1.250   6.123 -0.1589  1.2847 -1.4495
   36CHL1  H11A 3805   3.539   1.146   6.087 -0.6467  0.4347  0.6552
   36CHL1  H11B 3806   3.621   1.300   6.141  0.8707 -0.8965 -0.6106
   36CHL1    C9 3807   3.432   1.261   6.251 -0.0867 -0.0423  0.2171
   36CHL1    H9 3808   3.430   1.366   6.287  0.9182  0.6610 -1.6615
   36CHL1   C10 3809   3.498   1.185   6.378  0.3444 -0.9077 -0.2119
   36CHL1   C19 3810   3.528   1.041   6.335 -0.4172 -0.0323  0.4936
   36CHL1  H19A 3811   3.554   0.975   6.421  1.5170 -0.5468 -0.4348
   36CHL1  H19B 3812   3.446   0.990   6.280 -1.1387  1.6101 -0.0179
   36CHL1  H19C 3813   3.614   1.048   6.266  0.5222 -0.5922  1.5738
   36CHL1    C1 3814   3.632   1.260   6.423 -0.0239  0.1801 -0.1844
   36CHL1   H1A 3815   3.705   1.258   6.339 -1.0028 -0.1731 -1.0569
   36CHL1   H1B 3816   3.598   1.365   6.434 -0.0492  0.0031  1.9149
   36CHL1    C2 3817   3.685   1.216   6.564 -0.1203  0.9273  0.1701
   36CHL1   H2A 3818   3.768   1.287   6.588 -0.3707  2.0081 -1.9240
   36CHL1   H2B 3819   3.724   1.114   6.547 -0.8213  1.0439 -2.4724
   36CHL1   C20 3820   3.258   1.384   5.730 -0.3028 -0.0876  0.2805
   36CHL1   H20 3821   3.261   1.276   5.708  2.0539 -0.4607  2.0191
   36CHL1   C21 3822   3.399   1.451   5.699 -0.1696  0.2647 -0.2277
   36CHL1  H21A 3823   3.382   1.561   5.698  0.1416  0.3095 -0.7100
   36CHL1  H21B 3824   3.445   1.418   5.603  1.9364  0.0022  0.8084
   36CHL1  H21C 3825   3.480   1.426   5.771  0.1758 -2.2001 -1.3591
   36CHL1   C22 3826   3.140   1.442   5.643 -0.3132  0.7605  0.2495
   36CHL1  H22A 3827   3.060   1.365   5.635  0.9047 -0.5429  0.1999
   36CHL1  H22B 3828   3.094   1.536   5.680 -0.8541  0.3440  0.6495
   36CHL1   C23 3829   3.188   1.478   5.498 -0.1244 -0.0901 -0.5035
   36CHL1  H23A 3830   3.272   1.549   5.514 -1.5836  1.1064  2.6232
   36CHL1  H23B 3831   3.230   1.390   5.446 -0.4628  0.8608 -2.5155
   36CHL1   C24 3832   3.076   1.538   5.415  0.0685 -0.5737  0.3306
   36CHL1  H24A 3833   2.997   1.465   5.385 -1.3047  1.0060 -0.0548
   36CHL1  H24B 3834   3.027   1.620   5.471  0.7733 -0.3529  0.6318
   36CHL1   C25 3835   3.117   1.602   5.276 -0.1730 -0.2034 -0.0017
   36CHL1   H25 3836   3.177   1.532   5.214  2.0060  0.8426  0.8056
   36CHL1   C26 3837   2.994   1.645   5.190 -0.0650  0.2719 -0.0407
   36CHL1  H26A 3838   2.922   1.696   5.258 -1.4296 -0.4010 -0.9373
   36CHL1  H26B 3839   3.034   1.710   5.110  2.6110 -1.7410 -0.4564
   36CHL1  H26C 3840   2.941   1.557   5.148  2.3082 -0.8480 -0.8521
   36CHL1   C27 3841   3.216   1.714   5.305 -1.0238 -0.0436 -0.0732
   36CHL1  H27A 3842   3.249   1.755   5.207  0.0715 -0.5754  0.0521
   36CHL1  H27B 3843   3.184   1.801   5.366 -1.5887 -0.6187  0.4584
   36CHL1  H27C 3844   3.310   1.684   5.357 -0.3434  0.5578 -0.9290
   37CHL1    C3 3845   3.718   5.268   6.708  0.0416 -1.1892  0.2066
   37CHL1    H3 3846   3.789   5.184   6.694  0.9956 -0.6484  1.6279
   37CHL1    O3 3847   3.688   5.266   6.847  0.1194 -0.1998  0.4636
   37CHL1   H3' 3848   3.620   5.331   6.865 -1.0660 -1.4768  0.7740
   37CHL1    C4 3849   3.795   5.403   6.674 -0.0588  0.1959 -0.0346
   37CHL1   H4A 3850   3.725   5.485   6.703 -0.6676  0.4602 -2.0361
   37CHL1   H4B 3851   3.893   5.405   6.726 -0.2768  0.6309  0.3663
   37CHL1    C5 3852   3.809   5.387   6.522  0.1895 -0.8992 -0.6962
   37CHL1    C6 3853   3.935   5.392   6.477  0.0326  0.6236 -0.3833
   37CHL1    H6 3854   4.016   5.408   6.549 -1.0536 -2.3673  1.6938
   37CHL1    C7 3855   3.959   5.384   6.327 -0.1128  0.7080  0.0262
   37CHL1   H7A 3856   4.050   5.439   6.296  2.2728 -3.0142 -0.2880
   37CHL1   H7B 3857   3.968   5.274   6.312 -0.1432  0.5311  1.2380
   37CHL1    C8 3858   3.839   5.427   6.248 -0.3260  0.4028  0.9197
   37CHL1    H8 3859   3.819   5.536   6.264 -2.5352  0.1157  0.4220
   37CHL1   C14 3860   3.866   5.399   6.105 -0.7209 -0.2664  0.8224
   37CHL1   H14 3861   3.874   5.288   6.102  2.7903 -0.0982 -1.0727
   37CHL1   C15 3862   4.000   5.445   6.045  0.0722 -0.1511 -0.0684
   37CHL1  H15A 3863   4.042   5.533   6.098 -3.1253 -0.2675  3.0401
   37CHL1  H15B 3864   4.071   5.360   6.054  1.2265  0.4773 -2.6190
   37CHL1   C16 3865   3.973   5.461   5.892  0.9407  0.6046 -0.5133
   37CHL1  H16A 3866   3.974   5.568   5.863 -2.2498 -0.0138 -3.6669
   37CHL1  H16B 3867   4.044   5.405   5.828  1.0693  0.4656 -0.2510
   37CHL1   C17 3868   3.827   5.398   5.867 -0.3593  0.5973 -0.3070
   37CHL1   H17 3869   3.846   5.289   5.872 -0.7972  0.5085 -0.5616
   37CHL1   C13 3870   3.753   5.431   5.998  0.4455 -0.2848  0.0391
   37CHL1   C18 3871   3.726   5.583   6.011  0.1479 -0.6328  0.6699
   37CHL1  H18A 3872   3.815   5.645   5.986 -0.7993  1.9197  3.0133
   37CHL1  H18B 3873   3.650   5.601   5.933  1.5664 -3.1466 -1.4335
   37CHL1  H18C 3874   3.689   5.613   6.112  0.9659  0.4650  0.6727
   37CHL1   C12 3875   3.629   5.347   6.036  0.6213  0.9382 -0.2717
   37CHL1  H12A 3876   3.543   5.372   5.970 -0.5883  0.6868  1.1419
   37CHL1  H12B 3877   3.655   5.240   6.022 -1.1529  0.5577 -0.9808
   37CHL1   C11 3878   3.591   5.368   6.186  0.0703  0.1730 -0.3882
   37CHL1  H11A 3879   3.550   5.471   6.184 -0.1941  0.0620 -1.0411
   37CHL1  H11B 3880   3.499   5.319   6.224 -0.5122  2.0683  0.7618
   37CHL1    C9 3881   3.714   5.350   6.284  0.0254  0.1998 -0.7432
   37CHL1    H9 3882   3.744   5.244   6.270  1.1980  0.1779  1.5176
   37CHL1   C10 3883   3.681   5.365   6.435 -1.0975 -0.6756 -0.8695
   37CHL1   C19 3884   3.572   5.482   6.444 -0.0708 -0.2005 -0.1903
   37CHL1  H19A 3885   3.472   5.451   6.408  0.0688 -2.5620  1.1862
   37CHL1  H19B 3886   3.565   5.510   6.552 -1.3645 -0.0676 -0.2953
   37CHL1  H19C 3887   3.609   5.570   6.388 -0.6954  2.0789  2.6827
   37CHL1    C1 3888   3.623   5.227   6.485 -0.3337 -0.6334  0.6161
   37CHL1   H1A 3889   3.537   5.201   6.419 -0.1158  1.1472 -0.4447
   37CHL1   H1B 3890   3.704   5.154   6.465  1.3316  1.6852 -1.9392
   37CHL1    C2 3891   3.588   5.245   6.628 -1.1332 -0.1133 -0.2566
   37CHL1   H2A 3892   3.542   5.149   6.660  0.7266 -1.0424 -0.2062
   37CHL1   H2B 3893   3.506   5.319   6.632 -1.0966 -0.0886  0.0087
   37CHL1   C20 3894   3.766   5.429   5.735  1.4274 -0.4888  0.2709
   37CHL1   H20 3895   3.727   5.533   5.743  1.1702 -0.6628  1.5042
   37CHL1   C21 3896   3.638   5.339   5.704  0.8977 -0.0524  0.3351
   37CHL1  H21A 3897   3.660   5.232   5.682  0.9574  0.2997 -1.4609
   37CHL1  H21B 3898   3.595   5.378   5.610 -3.3155 -1.0877  1.6281
   37CHL1  H21C 3899   3.561   5.347   5.783  0.4182 -0.0017 -0.1311
   37CHL1   C22 3900   3.867   5.420   5.621 -0.8491  0.0975 -0.8521
   37CHL1  H22A 3901   3.825   5.460   5.526  1.3901 -1.0543 -2.4242
   37CHL1  H22B 3902   3.954   5.489   5.625 -1.1617  0.4858 -0.7113
   37CHL1   C23 3903   3.922   5.278   5.599 -0.5510 -0.3090  0.4669
   37CHL1  H23A 3904   3.963   5.237   5.694  0.4686  0.2276  0.2713
   37CHL1  H23B 3905   3.850   5.201   5.564  0.3531 -2.3433  2.7914
   37CHL1   C24 3906   4.044   5.280   5.502 -0.3693 -0.4738 -0.5344
   37CHL1  H24A 3907   4.012   5.345   5.418 -0.0982  0.0267 -0.2539
   37CHL1  H24B 3908   4.132   5.331   5.547  1.6675 -1.8305 -2.7429
   37CHL1   C25 3909   4.070   5.144   5.430  0.2529  0.0557  0.0583
   37CHL1   H25 3910   3.972   5.105   5.394  0.1855 -0.2537  0.5653
   37CHL1   C26 3911   4.150   5.172   5.304  0.0852  0.0420 -0.2125
   37CHL1  H26A 3912   4.083   5.242   5.249 -2.0339 -1.8648 -0.1940
   37CHL1  H26B 3913   4.250   5.217   5.320  0.0325  0.5477 -1.2162
   37CHL1  H26C 3914   4.176   5.081   5.246  1.4843 -0.6006  1.3497
   37CHL1   C27 3915   4.131   5.042   5.523 -0.9480 -0.0020  0.0865
   37CHL1  H27A 3916   4.131   4.944   5.472 -1.9068 -0.1278  0.3132
   37CHL1  H27B 3917   4.237   5.065   5.547 -0.4908 -2.7414  1.0104
   37CHL1  H27C 3918   4.080   5.032   5.621 -0.5952  0.1009  0.2811
   38CHL1    C3 3919   0.173   4.878   6.787 -0.3690  0.0897  0.9197
   38CHL1    H3 3920   0.276   4.840   6.775  0.0272  0.9644  1.4863
   38CHL1    O3 3921   0.172   4.922   6.918 -0.4897 -0.1557 -0.1830
   38CHL1   H3' 3922   0.263   4.917   6.947 -0.9866 -1.2301  1.3160
   38CHL1    C4 3923   0.144   4.993   6.698  0.5518  0.0985  0.2765
   38CHL1   H4A 3924   0.055   5.049   6.735  0.5218 -0.3312  0.8600
   38CHL1   H4B 3925   0.225   5.066   6.716  0.1497  1.1381 -1.7753
   38CHL1    C5 3926   0.126   4.955   6.554  0.3104 -0.4692  0.7210
   38CHL1    C6 3927   0.197   5.024   6.458  0.0673  1.1453  0.3166
   38CHL1    H6 3928   0.261   5.110   6.482  1.0174  0.9018 -1.1762
   38CHL1    C7 3929   0.197   4.982   6.314  0.2932  0.3200 -0.0607
   38CHL1   H7A 3930   0.186   5.073   6.251  1.1888 -0.6258 -1.6484
   38CHL1   H7B 3931   0.296   4.943   6.282 -1.1285 -2.5967 -1.2820
   38CHL1    C8 3932   0.094   4.879   6.270 -0.2930  1.1441 -0.4933
   38CHL1    H8 3933  -0.008   4.925   6.264 -1.8757 -2.1886 -1.7966
   38CHL1   C14 3934   0.139   4.809   6.138 -0.0602 -0.0730  0.0321
   38CHL1   H14 3935   0.238   4.768   6.169  0.0261  1.6676  2.2912
   38CHL1   C15 3936   0.175   4.898   6.016  0.1629 -0.2002 -0.3169
   38CHL1  H15A 3937   0.103   4.983   6.022  2.4155  2.2212 -3.5802
   38CHL1  H15B 3938   0.276   4.945   6.016 -0.0385  0.2586 -1.4934
   38CHL1   C16 3939   0.159   4.806   5.893 -0.1946 -0.2086 -0.4946
   38CHL1  H16A 3940   0.093   4.843   5.811  0.6539 -2.3858 -2.2582
   38CHL1  H16B 3941   0.260   4.792   5.847 -0.0142  3.4847 -1.5570
   38CHL1   C17 3942   0.108   4.667   5.943 -0.1120 -0.5806  0.5340
   38CHL1   H17 3943   0.198   4.607   5.967 -0.3545 -0.9370  0.5752
   38CHL1   C13 3944   0.048   4.696   6.082  1.0732  0.8505  0.7122
   38CHL1   C18 3945  -0.096   4.754   6.069 -0.1680  0.0257 -0.1001
   38CHL1  H18A 3946  -0.103   4.836   5.995 -0.7191 -0.8711 -1.0682
   38CHL1  H18B 3947  -0.172   4.677   6.045 -1.0438  0.8977 -0.1718
   38CHL1  H18C 3948  -0.140   4.797   6.161 -0.1732 -1.0413  0.4195
   38CHL1   C12 3949   0.052   4.596   6.191 -0.1188 -0.1660  0.2667
   38CHL1  H12A 3950  -0.020   4.514   6.170  0.9358 -1.8206  2.6188
   38CHL1  H12B 3951   0.156   4.556   6.198 -0.6223 -1.4002  1.1061
   38CHL1   C11 3952   0.014   4.648   6.336 -0.7782 -0.1770  0.4718
   38CHL1  H11A 3953  -0.096   4.668   6.337 -0.6393  0.6173  0.4902
   38CHL1  H11B 3954   0.026   4.554   6.393 -0.0490 -1.7688 -2.1384
   38CHL1    C9 3955   0.089   4.776   6.385  0.8508  0.2872  0.7710
   38CHL1    H9 3956   0.195   4.744   6.390  0.5766 -1.0899 -1.1985
   38CHL1   C10 3957   0.047   4.825   6.518  0.7377  0.0098 -0.4006
   38CHL1   C19 3958  -0.103   4.861   6.529  0.0871 -0.1456  0.0242
   38CHL1  H19A 3959  -0.121   4.914   6.625  0.2976  0.1833 -0.1158
   38CHL1  H19B 3960  -0.136   4.934   6.453 -1.0049  0.2040  0.8088
   38CHL1  H19C 3961  -0.156   4.764   6.531 -0.6817  0.2398 -0.8121
   38CHL1    C1 3962   0.080   4.714   6.623  0.5441 -0.1229 -0.4570
   38CHL1   H1A 3963   0.006   4.632   6.617  1.0913 -0.8395  1.5903
   38CHL1   H1B 3964   0.181   4.669   6.608  1.8912  1.4035  2.8543
   38CHL1    C2 3965   0.073   4.767   6.770 -0.2378  0.6149  0.4458
   38CHL1   H2A 3966   0.087   4.699   6.857  1.1400  0.9991  0.5405
   38CHL1   H2B 3967  -0.030   4.803   6.792 -0.6007 -1.9666  3.7539
   38CHL1   C20 3968   0.029   4.577   5.838 -0.0758  0.2637 -0.1401
   38CHL1   H20 3969  -0.057   4.640   5.808 -0.6257  0.6125  2.0167
   38CHL1   C21 3970  -0.032   4.457   5.909  0.4137  0.0797  0.2130
   38CHL1  H21A 3971   0.042   4.407   5.975  0.7917  1.9969  1.3284
   38CHL1  H21B 3972  -0.087   4.384   5.847 -0.5510  0.9196  0.0449
   38CHL1  H21C 3973  -0.101   4.499   5.986  0.1364  4.6035 -2.1321
   38CHL1   C22 3974   0.120   4.538   5.719  0.1903 -0.0468  0.9257
   38CHL1  H22A 3975   0.180   4.627   5.691  1.6077 -1.5047 -0.9027
   38CHL1  H22B 3976   0.186   4.459   5.763  1.1677 -0.1537 -0.6676
   38CHL1   C23 3977   0.034   4.504   5.589 -0.3215  0.2444 -0.1527
   38CHL1  H23A 3978  -0.029   4.422   5.630 -0.2364  0.7381  1.0030
   38CHL1  H23B 3979  -0.015   4.602   5.573  2.1214  1.4702 -0.5854
   38CHL1   C24 3980   0.103   4.463   5.455  0.0744 -0.0477  0.6416
   38CHL1  H24A 3981   0.180   4.533   5.416 -1.4303  0.6604 -1.2046
   38CHL1  H24B 3982   0.160   4.368   5.469  0.6441  0.2530  0.4022
   38CHL1   C25 3983   0.007   4.451   5.335 -0.1675  0.3529 -0.2483
   38CHL1   H25 3984  -0.099   4.431   5.359 -0.3027 -1.1747 -1.9259
   38CHL1   C26 3985   0.006   4.575   5.243  0.1730  0.4447  0.1977
   38CHL1  H26A 3986   0.104   4.582   5.192  0.9281 -2.7929  0.9374
   38CHL1  H26B 3987  -0.072   4.562   5.165 -0.4954 -1.4368  1.1107
   38CHL1  H26C 3988  -0.023   4.670   5.292 -0.6320  1.0855 -1.4766
   38CHL1   C27 3989   0.052   4.329   5.253 -0.1425  0.2811 -0.4321
   38CHL1  H27A 3990   0.019   4.242   5.314 -0.6599  0.9346  0.2445
   38CHL1  H27B 3991  -0.000   4.306   5.158  0.6284  0.4045 -0.8869
   38CHL1  H27C 3992   0.159   4.323   5.225 -0.3786  0.1164 -1.3240
   39CHL1    C3 3993   2.144   4.989   6.856  0.1700 -0.7027 -0.0684
   39CHL1    H3 3994   2.203   4.901   6.824  2.1009 -0.3739  2.3131
   39CHL1    O3 3995   2.152   5.002   6.997 -0.5919  0.8287 -0.2670
   39CHL1   H3' 3996   2.121   5.092   7.011 -1.3294  0.3009  1.8647
   39CHL1    C4 3997   2.207   5.104   6.783  0.3419 -0.0572 -0.5256
   39CHL1   H4A 3998   2.155   5.200   6.804  0.6553  0.5184 -2.1742
   39CHL1   H4B 3999   2.307   5.120   6.831 -0.5285  1.0160  1.0204
   39CHL1    C5 4000   2.207   5.105   6.630  0.1047 -0.3002  0.4820
   39CHL1    C6 4001   2.329   5.111   6.569  0.5238  0.3864 -0.5016
   39CHL1    H6 4002   2.420   5.131   6.627  0.9662 -1.7578 -0.3711
   39CHL1    C7 4003   2.336   5.093   6.421  0.7170  0.5627  0.2617
   39CHL1   H7A 4004   2.405   5.170   6.380  1.2960  1.2822  2.4481
   39CHL1   H7B 4005   2.388   4.996   6.400  0.9745  0.1979  2.3400
   39CHL1    C8 4006   2.203   5.095   6.342  0.0562  0.7204  0.1406
   39CHL1    H8 4007   2.166   5.199   6.333  2.1925  1.3791 -1.8754
   39CHL1   C14 4008   2.223   5.036   6.207 -0.2655 -0.9952 -0.6553
   39CHL1   H14 4009   2.268   4.936   6.222  0.7614 -0.1238  3.0963
   39CHL1   C15 4010   2.337   5.108   6.120  0.7579 -0.0909 -0.5387
   39CHL1  H15A 4011   2.328   5.218   6.129  1.4189  0.0171 -1.0632
   39CHL1  H15B 4012   2.438   5.076   6.154  0.2405 -1.3875 -0.1541
   39CHL1   C16 4013   2.304   5.064   5.983 -0.2266 -0.0600 -0.3692
   39CHL1  H16A 4014   2.278   5.144   5.910 -1.6296  0.8036  1.0237
   39CHL1  H16B 4015   2.382   4.995   5.945  0.6329 -0.0374  1.2673
   39CHL1   C17 4016   2.167   4.985   5.988  0.0374 -0.6877 -1.2750
   39CHL1   H17 4017   2.199   4.880   6.003 -1.8350 -1.3699 -1.7359
   39CHL1   C13 4018   2.108   5.026   6.116 -0.2190  0.1180  0.1599
   39CHL1   C18 4019   2.055   5.162   6.101 -0.1859  0.0592  0.0394
   39CHL1  H18A 4020   2.029   5.208   6.199  0.8759 -0.2135  0.4629
   39CHL1  H18B 4021   2.116   5.225   6.033  0.6548 -0.3079  0.4406
   39CHL1  H18C 4022   1.953   5.145   6.059  0.6361 -0.5415 -1.8315
   39CHL1   C12 4023   2.015   4.927   6.186 -0.0791  0.1317  0.0354
   39CHL1  H12A 4024   1.912   4.912   6.148 -0.9186  1.4690  1.6752
   39CHL1  H12B 4025   2.071   4.831   6.194  2.8241  1.8420  2.4757
   39CHL1   C11 4026   1.982   4.959   6.334 -0.3897 -0.3676  0.1898
   39CHL1  H11A 4027   1.920   5.051   6.331  0.6848  0.3614 -0.1489
   39CHL1  H11B 4028   1.934   4.869   6.380  1.3940 -1.3984  0.1433
   39CHL1    C9 4029   2.106   5.005   6.422  0.6629  0.5355 -0.0375
   39CHL1    H9 4030   2.155   4.907   6.440  1.3068  0.8970  0.2083
   39CHL1   C10 4031   2.075   5.061   6.567  0.4422 -1.4613  0.5060
   39CHL1   C19 4032   1.996   5.189   6.554  0.5920  0.8702 -0.4178
   39CHL1  H19A 4033   1.893   5.168   6.518  0.3506  1.2843  0.0213
   39CHL1  H19B 4034   1.981   5.240   6.651  0.1958 -0.9545  0.5274
   39CHL1  H19C 4035   2.044   5.260   6.484 -2.3848  0.4639 -3.1102
   39CHL1    C1 4036   1.990   4.964   6.651 -0.2097 -0.2285  0.4677
   39CHL1   H1A 4037   1.885   4.987   6.624 -1.1368 -0.6272  3.4073
   39CHL1   H1B 4038   2.028   4.867   6.613 -2.0007 -0.0709 -1.9372
   39CHL1    C2 4039   2.000   4.970   6.804 -0.1782  0.0295  0.2483
   39CHL1   H2A 4040   1.944   4.884   6.848 -1.6905  0.5758 -0.5433
   39CHL1   H2B 4041   1.936   5.051   6.847  0.5243 -0.1121  1.6312
   39CHL1   C20 4042   2.086   4.993   5.855  0.1082  0.1275  0.1539
   39CHL1   H20 4043   2.070   5.100   5.829  2.5522  0.4318 -0.4025
   39CHL1   C21 4044   1.958   4.909   5.865 -0.7261  0.1263  0.0140
   39CHL1  H21A 4045   1.877   4.969   5.912 -0.8480  0.4656 -0.6185
   39CHL1  H21B 4046   1.980   4.819   5.926  1.2779  1.4145  1.3014
   39CHL1  H21C 4047   1.921   4.871   5.767  0.1355  0.0640 -0.2948
   39CHL1   C22 4048   2.171   4.944   5.731  0.2256  0.2110  0.1142
   39CHL1  H22A 4049   2.277   4.976   5.727  0.6776 -0.8775  1.8801
   39CHL1  H22B 4050   2.178   4.834   5.748 -0.7515  0.0194 -0.6475
   39CHL1   C23 4051   2.110   4.970   5.591  0.2469 -0.0074 -0.3233
   39CHL1  H23A 4052   2.025   4.898   5.587  0.6890 -0.6162  0.7115
   39CHL1  H23B 4053   2.077   5.076   5.582  2.3061  0.7578  0.5663
   39CHL1   C24 4054   2.212   4.937   5.481  0.2424 -0.1875 -0.2080
   39CHL1  H24A 4055   2.279   5.026   5.480  0.8430 -0.5088  2.4589
   39CHL1  H24B 4056   2.265   4.841   5.500 -0.6695 -0.6876 -0.1341
   39CHL1   C25 4057   2.143   4.935   5.339 -0.0497  0.5079 -0.5802
   39CHL1   H25 4058   2.106   5.038   5.316  0.5689  0.2459 -2.9818
   39CHL1   C26 4059   2.253   4.901   5.242 -0.4555 -0.3113 -0.1815
   39CHL1  H26A 4060   2.232   4.927   5.136 -0.3137 -0.3299 -0.2145
   39CHL1  H26B 4061   2.328   4.982   5.256  0.0806 -0.6170 -1.2200
   39CHL1  H26C 4062   2.307   4.806   5.263 -0.6459 -0.2119  0.8300
   39CHL1   C27 4063   2.023   4.841   5.329 -0.1874 -0.9099  0.1263
   39CHL1  H27A 4064   1.943   4.890   5.390  0.3924  1.4743 -0.9285
   39CHL1  H27B 4065   1.984   4.813   5.229 -1.2666  1.4949 -0.2062
   39CHL1  H27C 4066   2.052   4.739   5.363 -0.7334 -1.4358 -0.9136
   40CHL1    C3 4067   6.612   2.708   6.833 -0.4880  0.0459  0.0694
   40CHL1    H3 4068   6.523   2.756   6.787 -0.6518 -1.6605 -1.4978
   40CHL1    O3 4069   6.593   2.685   6.975 -0.5742  0.1024 -0.4913
   40CHL1   H3' 4070   6.547   2.761   7.010 -1.7349 -0.2718 -1.1681
   40CHL1    C4 4071   6.619   2.567   6.783 -0.1777  0.0047 -0.2114
   40CHL1   H4A 4072   6.695   2.506   6.837  1.0845  0.6240 -1.2295
   40CHL1   H4B 4073   6.525   2.512   6.806  0.4659 -1.1129 -0.2179
   40CHL1    C5 4074   6.642   2.573   6.634 -0.6275 -0.5152  0.2331
   40CHL1    C6 4075   6.545   2.516   6.554  0.1117  0.3429  0.4568
   40CHL1    H6 4076   6.455   2.470   6.597  0.6603  2.2415  4.0220
   40CHL1    C7 4077   6.549   2.507   6.406  0.4184  0.4507  0.2638
   40CHL1   H7A 4078   6.533   2.400   6.382 -1.6971  0.3576  1.8135
   40CHL1   H7B 4079   6.464   2.552   6.350 -0.6801 -1.3808  0.3777
   40CHL1    C8 4080   6.685   2.540   6.349  0.1061 -0.7162 -0.4744
   40CHL1    H8 4081   6.749   2.453   6.375  1.5688  0.9079  1.7378
   40CHL1   C14 4082   6.683   2.579   6.202 -0.2359  1.2453 -0.3353
   40CHL1   H14 4083   6.633   2.679   6.202 -0.1912  1.3385  2.6791
   40CHL1   C15 4084   6.607   2.490   6.104 -0.0668  0.4948 -0.8381
   40CHL1  H15A 4085   6.628   2.383   6.123 -0.3737  0.6980  0.7576
   40CHL1  H15B 4086   6.499   2.495   6.131  0.6178  2.1259  1.9416
   40CHL1   C16 4087   6.646   2.534   5.967 -0.5298 -0.0025 -0.6184
   40CHL1  H16A 4088   6.661   2.448   5.898  2.1259  1.6343 -2.2569
   40CHL1  H16B 4089   6.569   2.602   5.924  1.2942  1.7313 -1.3046
   40CHL1   C17 4090   6.781   2.612   5.984 -0.0893 -0.1482 -0.3951
   40CHL1   H17 4091   6.747   2.716   5.965 -2.5929 -0.8538 -0.1459
   40CHL1   C13 4092   6.821   2.602   6.134  0.2571  0.1037 -0.2935
   40CHL1   C18 4093   6.909   2.482   6.146 -0.1588  0.8921 -0.6140
   40CHL1  H18A 4094   6.937   2.467   6.252 -1.1214  0.8446 -0.3596
   40CHL1  H18B 4095   6.859   2.389   6.109 -0.1873 -0.2736  2.1002
   40CHL1  H18C 4096   7.006   2.489   6.093  0.0752 -0.8937 -0.4924
   40CHL1   C12 4097   6.880   2.727   6.204  0.6624 -0.4378 -0.2381
   40CHL1  H12A 4098   6.979   2.746   6.157 -0.0378 -1.8503 -2.4542
   40CHL1  H12B 4099   6.808   2.807   6.175  1.0337 -0.8253 -2.4074
   40CHL1   C11 4100   6.876   2.711   6.358 -0.3339  0.0498  0.6578
   40CHL1  H11A 4101   6.949   2.636   6.393  0.7337  0.6637 -0.1947
   40CHL1  H11B 4102   6.916   2.802   6.408  1.7095 -0.5744  0.2448
   40CHL1    C9 4103   6.749   2.664   6.428 -0.6971 -0.4827  0.2007
   40CHL1    H9 4104   6.672   2.741   6.408 -1.9926 -1.8874 -0.4013
   40CHL1   C10 4105   6.762   2.650   6.583  0.4391  0.6414  0.3929
   40CHL1   C19 4106   6.884   2.569   6.627  0.2382 -0.5267  0.3307
   40CHL1  H19A 4107   6.886   2.573   6.738 -1.4201 -0.1831  0.3709
   40CHL1  H19B 4108   6.874   2.470   6.578 -0.8482 -0.4232  0.3291
   40CHL1  H19C 4109   6.975   2.627   6.600 -0.3027 -0.6038 -1.8159
   40CHL1    C1 4110   6.770   2.793   6.647 -0.1215 -0.4156 -1.2493
   40CHL1   H1A 4111   6.867   2.842   6.623  0.5727 -0.6660  0.8486
   40CHL1   H1B 4112   6.696   2.862   6.600  1.4516  4.5054  2.6150
   40CHL1    C2 4113   6.742   2.797   6.796 -0.1962  0.3691 -0.3050
   40CHL1   H2A 4114   6.747   2.906   6.821  0.2529  0.5784 -1.2816
   40CHL1   H2B 4115   6.822   2.742   6.850 -0.0883  0.7941 -0.0231
   40CHL1   C20 4116   6.888   2.578   5.871  0.2348 -0.0520  0.5744
   40CHL1   H20 4117   6.920   2.472   5.873 -0.0404 -0.1480 -0.1280
   40CHL1   C21 4118   7.012   2.675   5.871 -0.9091  0.5208 -0.9110
   40CHL1  H21A 4119   7.081   2.659   5.785 -1.0524  3.0612 -1.5848
   40CHL1  H21B 4120   7.065   2.679   5.969 -0.1185 -0.9807 -1.2589
   40CHL1  H21C 4121   6.981   2.782   5.862 -1.2566  0.3331 -2.1254
   40CHL1   C22 4122   6.826   2.584   5.730  0.2558 -0.4018  1.0038
   40CHL1  H22A 4123   6.914   2.568   5.664  1.2590  2.0879  1.5901
   40CHL1  H22B 4124   6.766   2.491   5.724  0.7710 -0.6402 -1.0921
   40CHL1   C23 4125   6.753   2.717   5.690 -0.4925  0.4377 -0.1441
   40CHL1  H23A 4126   6.679   2.741   5.769  1.7602  1.5487  1.7745
   40CHL1  H23B 4127   6.819   2.807   5.684  0.8481 -0.2894  2.3617
   40CHL1   C24 4128   6.697   2.689   5.543 -0.3935 -0.2995 -0.1721
   40CHL1  H24A 4129   6.772   2.656   5.468  1.3592  0.0447  1.3347
   40CHL1  H24B 4130   6.625   2.605   5.533 -1.2653  0.6278 -1.9315
   40CHL1   C25 4131   6.625   2.810   5.484  0.9123 -0.1615  0.0277
   40CHL1   H25 4132   6.551   2.850   5.557  0.1146 -0.2233 -0.7279
   40CHL1   C26 4133   6.732   2.914   5.448 -0.1846 -0.5010 -0.0806
   40CHL1  H26A 4134   6.692   3.009   5.406  1.1285 -0.1926 -0.7115
   40CHL1  H26B 4135   6.795   2.949   5.533  0.7895 -0.2781 -0.8806
   40CHL1  H26C 4136   6.800   2.873   5.370 -1.0005 -0.0555 -1.0359
   40CHL1   C27 4137   6.541   2.764   5.360 -0.0695  0.2935  0.5841
   40CHL1  H27A 4138   6.454   2.710   5.404  1.3823 -0.1977  3.0188
   40CHL1  H27B 4139   6.513   2.848   5.293  0.5588 -0.6440 -0.8935
   40CHL1  H27C 4140   6.605   2.700   5.297 -2.0437  0.3515 -1.6290
   41CHL1    C3 4141   3.715   2.354   6.477  0.2133  0.1026  0.0341
   41CHL1    H3 4142   3.810   2.298   6.461 -0.3649 -0.6333 -0.9708
   41CHL1    O3 4143   3.686   2.354   6.616 -0.1737 -0.1205  0.3480
   41CHL1   H3' 4144   3.691   2.448   6.632 -0.0820 -0.0360 -0.1658
   41CHL1    C4 4145   3.760   2.494   6.433  0.1021 -0.4956 -0.2359
   41CHL1   H4A 4146   3.673   2.558   6.458 -2.1254 -2.9808 -1.1846
   41CHL1   H4B 4147   3.840   2.535   6.498  0.1446 -1.3621  0.2814
   41CHL1    C5 4148   3.812   2.488   6.291  0.2394 -0.1555  0.2844
   41CHL1    C6 4149   3.936   2.539   6.249 -0.1144  0.0169 -0.8702
   41CHL1    H6 4150   3.993   2.600   6.321 -3.2876  1.8001  0.3320
   41CHL1    C7 4151   3.983   2.548   6.111 -0.1717 -0.0843  0.5263
   41CHL1   H7A 4152   4.017   2.651   6.087 -1.4119 -0.0938 -1.5478
   41CHL1   H7B 4153   4.073   2.485   6.091  0.9374  1.6078 -0.0769
   41CHL1    C8 4154   3.861   2.527   6.008  0.0771  0.4697  0.1518
   41CHL1    H8 4155   3.801   2.620   6.013  1.0972  1.0996  1.3506
   41CHL1   C14 4156   3.918   2.505   5.863  0.5373 -0.2878 -0.6031
   41CHL1   H14 4157   3.980   2.413   5.862 -0.2917 -0.8600 -0.3563
   41CHL1   C15 4158   4.014   2.611   5.816 -0.2997  0.3950 -0.8820
   41CHL1  H15A 4159   3.977   2.714   5.837  0.3375  0.6501 -0.9724
   41CHL1  H15B 4160   4.113   2.601   5.866 -0.7922  2.2252  0.5927
   41CHL1   C16 4161   4.010   2.594   5.663  1.2674 -0.0507 -0.7077
   41CHL1  H16A 4162   3.990   2.689   5.608 -0.5651 -0.0543 -0.1019
   41CHL1  H16B 4163   4.107   2.552   5.629  2.3011 -0.8262  2.7980
   41CHL1   C17 4164   3.904   2.483   5.627  0.0184  0.3664  0.4573
   41CHL1   H17 4165   3.962   2.388   5.621  1.9282  1.5619 -1.3984
   41CHL1   C13 4166   3.817   2.485   5.754  0.9476  0.4224  0.0906
   41CHL1   C18 4167   3.729   2.620   5.734  0.4049  0.1855 -0.4476
   41CHL1  H18A 4168   3.709   2.668   5.832  0.1980  0.4537 -0.6206
   41CHL1  H18B 4169   3.774   2.705   5.679 -2.7441  1.7213 -0.8491
   41CHL1  H18C 4170   3.635   2.602   5.679 -0.9233 -1.3006  2.1299
   41CHL1   C12 4171   3.735   2.369   5.786 -0.0089 -0.7587  0.2725
   41CHL1  H12A 4172   3.651   2.354   5.714 -0.3042  1.5243  0.0645
   41CHL1  H12B 4173   3.799   2.279   5.783 -0.0148 -0.7608  0.1877
   41CHL1   C11 4174   3.669   2.382   5.933 -0.0003  0.3930 -0.0808
   41CHL1  H11A 4175   3.604   2.471   5.921  2.4907  2.6041  1.6745
   41CHL1  H11B 4176   3.613   2.295   5.971  0.9620  0.4871  1.6554
   41CHL1    C9 4177   3.775   2.414   6.045  0.8789 -0.6064  0.6817
   41CHL1    H9 4178   3.844   2.328   6.051 -1.1545 -2.3449  0.3572
   41CHL1   C10 4179   3.708   2.428   6.188  0.6685  0.3031 -0.1098
   41CHL1   C19 4180   3.594   2.538   6.184  0.7159 -0.0077 -0.2984
   41CHL1  H19A 4181   3.560   2.573   6.284 -2.6788 -0.6264 -1.1348
   41CHL1  H19B 4182   3.629   2.627   6.127  0.9939  0.8164  1.1227
   41CHL1  H19C 4183   3.506   2.493   6.134  0.8883 -1.4488  0.6434
   41CHL1    C1 4184   3.651   2.287   6.245 -0.0355 -0.0716  0.1273
   41CHL1   H1A 4185   3.564   2.262   6.180  1.0911 -0.4804 -1.2687
   41CHL1   H1B 4186   3.737   2.218   6.244  1.8505  2.0741  2.0890
   41CHL1    C2 4187   3.604   2.299   6.391  0.8140  0.2896 -0.7935
   41CHL1   H2A 4188   3.583   2.196   6.426 -2.5726  0.4958 -1.8473
   41CHL1   H2B 4189   3.506   2.350   6.394  0.9439  0.4806  1.2849
   41CHL1   C20 4190   3.842   2.505   5.488  0.2770 -0.9049  0.0271
   41CHL1   H20 4191   3.786   2.600   5.490 -0.9040 -1.5518 -0.8662
   41CHL1   C21 4192   3.734   2.392   5.458 -0.4391 -0.2981 -0.5868
   41CHL1  H21A 4193   3.716   2.389   5.349 -1.1618  2.2296 -0.5968
   41CHL1  H21B 4194   3.636   2.415   5.506  0.0459  1.2174 -0.2582
   41CHL1  H21C 4195   3.782   2.295   5.485  0.3482 -0.1715 -1.4798
   41CHL1   C22 4196   3.948   2.520   5.375  0.3030  0.3412 -0.1119
   41CHL1  H22A 4197   4.038   2.578   5.402  0.9970 -1.8726  2.8976
   41CHL1  H22B 4198   3.999   2.422   5.361  2.3027  1.3229 -0.0316
   41CHL1   C23 4199   3.899   2.561   5.237  0.0864  0.1256  0.5196
   41CHL1  H23A 4200   3.973   2.521   5.165  1.7198 -0.6563  2.5257
   41CHL1  H23B 4201   3.806   2.510   5.203  0.0982  0.9365 -0.8009
   41CHL1   C24 4202   3.886   2.714   5.225  0.6058  0.7610 -0.4381
   41CHL1  H24A 4203   3.785   2.739   5.264  0.3041 -1.5446  0.3872
   41CHL1  H24B 4204   3.963   2.750   5.297  3.1920 -1.3547 -1.9778
   41CHL1   C25 4205   3.890   2.764   5.080  0.9911  0.0042  0.6446
   41CHL1   H25 4206   3.976   2.728   5.020  3.1765  2.3956  2.1051
   41CHL1   C26 4207   3.754   2.737   5.012  0.0829 -0.6793  0.7224
   41CHL1  H26A 4208   3.752   2.783   4.911 -2.0353  2.1735  1.9227
   41CHL1  H26B 4209   3.730   2.630   4.998 -0.1213 -0.4154 -1.2602
   41CHL1  H26C 4210   3.672   2.785   5.069 -0.5637  0.3895 -1.0295
   41CHL1   C27 4211   3.904   2.920   5.083  0.1232  0.3541 -0.1299
   41CHL1  H27A 4212   3.900   2.953   4.977 -1.0627  3.1146  0.6697
   41CHL1  H27B 4213   3.827   2.965   5.150 -0.1259 -2.0805  1.3524
   41CHL1  H27C 4214   4.009   2.948   5.106 -0.1846  1.0506  0.4617
   42CHL1    C3 4215   3.013   3.508   7.190 -0.2780 -0.2331  0.0358
   42CHL1    H3 4216   3.105   3.445   7.183 -1.1893 -1.5246 -0.9616
   42CHL1    O3 4217   2.979   3.520   7.323 -0.6128 -0.2227 -0.3619
   42CHL1   H3' 4218   2.969   3.426   7.340 -2.9112 -0.0426 -0.4294
   42CHL1    C4 4219   3.046   3.641   7.116 -0.3892  0.7832  0.1403
   42CHL1   H4A 4220   2.964   3.715   7.131 -0.6791  0.5405 -0.2205
   42CHL1   H4B 4221   3.131   3.692   7.165 -1.0507  1.1021  0.9863
   42CHL1    C5 4222   3.070   3.621   6.964  0.5793 -0.1258 -0.9830
   42CHL1    C6 4223   3.170   3.673   6.892 -0.0331  0.7857  0.2378
   42CHL1    H6 4224   3.243   3.732   6.950  0.5852  0.2124  0.0588
   42CHL1    C7 4225   3.183   3.678   6.740 -0.0651  0.2449  0.0103
   42CHL1   H7A 4226   3.193   3.783   6.704 -0.0495 -0.0370 -0.8253
   42CHL1   H7B 4227   3.272   3.618   6.713  1.4388  2.7335 -0.8321
   42CHL1    C8 4228   3.058   3.620   6.668  0.1426 -0.1808  0.6091
   42CHL1    H8 4229   2.978   3.695   6.650 -1.0076 -1.2653  1.0548
   42CHL1   C14 4230   3.098   3.566   6.533 -0.4886 -0.2304  0.0893
   42CHL1   H14 4231   3.181   3.493   6.546  1.9134  1.4812 -3.7697
   42CHL1   C15 4232   3.173   3.659   6.437 -0.4853 -0.2130  0.2645
   42CHL1  H15A 4233   3.122   3.758   6.433  0.3504  0.2463  0.6292
   42CHL1  H15B 4234   3.278   3.687   6.463  0.6063 -2.8540 -0.9325
   42CHL1   C16 4235   3.162   3.593   6.296 -0.3807 -0.8030 -0.4215
   42CHL1  H16A 4236   3.125   3.662   6.218 -0.4478 -0.8521 -0.4328
   42CHL1  H16B 4237   3.261   3.565   6.253  1.1424  1.3487  1.4612
   42CHL1   C17 4238   3.069   3.456   6.315 -0.3770 -0.0930  0.3689
   42CHL1   H17 4239   3.124   3.362   6.338 -2.5030 -1.3468  0.5945
   42CHL1   C13 4240   2.992   3.499   6.447  0.6625  0.6739  0.2562
   42CHL1   C18 4241   2.882   3.596   6.399  0.3151 -1.2609  0.2537
   42CHL1  H18A 4242   2.919   3.678   6.334 -1.0110  0.0867  1.1149
   42CHL1  H18B 4243   2.813   3.533   6.339  0.5373 -0.5949 -0.7136
   42CHL1  H18C 4244   2.831   3.640   6.488 -1.6011 -1.6830 -0.5705
   42CHL1   C12 4245   2.936   3.383   6.538  0.0628 -0.0864  0.2795
   42CHL1  H12A 4246   2.847   3.346   6.483 -1.1947  0.8324  1.6024
   42CHL1  H12B 4247   3.015   3.305   6.540  0.5050  0.3063 -0.9353
   42CHL1   C11 4248   2.893   3.427   6.674  0.3683  0.5311 -0.2679
   42CHL1  H11A 4249   2.807   3.495   6.656  1.1556  1.4138 -0.7801
   42CHL1  H11B 4250   2.859   3.339   6.733 -2.3759  2.2234  0.8294
   42CHL1    C9 4251   3.005   3.504   6.753  0.5949 -0.6107 -0.4186
   42CHL1    H9 4252   3.087   3.430   6.762  2.1174  1.1805  1.6504
   42CHL1   C10 4253   2.964   3.535   6.903  0.2239 -0.3447  0.1341
   42CHL1   C19 4254   2.828   3.607   6.907  0.4673 -0.3503 -0.1835
   42CHL1  H19A 4255   2.742   3.536   6.907 -1.8466  2.2806  0.3750
   42CHL1  H19B 4256   2.813   3.676   6.992 -1.6413  1.9491 -2.2540
   42CHL1  H19C 4257   2.823   3.674   6.818 -0.1110  1.4134  1.1249
   42CHL1    C1 4258   2.935   3.396   6.983  0.0157  0.8677 -0.4047
   42CHL1   H1A 4259   2.846   3.359   6.928  1.6275  0.3942 -2.8319
   42CHL1   H1B 4260   3.025   3.331   6.984  0.0003  0.8433 -0.6452
   42CHL1    C2 4261   2.905   3.420   7.127  0.6669 -0.0745  0.2415
   42CHL1   H2A 4262   2.909   3.320   7.177 -0.4887 -0.2194  0.0765
   42CHL1   H2B 4263   2.813   3.478   7.148  1.1701  0.2703  1.6214
   42CHL1   C20 4264   2.995   3.413   6.186  0.2817  0.4879 -0.6787
   42CHL1   H20 4265   2.905   3.477   6.174 -1.3763 -1.2092  1.6791
   42CHL1   C21 4266   2.939   3.270   6.205  0.4481 -0.5570  0.2907
   42CHL1  H21A 4267   2.853   3.258   6.274 -1.7904 -1.8304 -2.5112
   42CHL1  H21B 4268   3.022   3.209   6.246 -0.9007 -3.3924 -0.9214
   42CHL1  H21C 4269   2.905   3.246   6.101 -0.5306  1.4691  0.0904
   42CHL1   C22 4270   3.079   3.424   6.060  0.3507  0.6570 -0.7595
   42CHL1  H22A 4271   3.158   3.502   6.065  0.7786  0.2600 -1.2079
   42CHL1  H22B 4272   3.142   3.333   6.052  0.1119  0.4726 -0.5700
   42CHL1   C23 4273   3.006   3.451   5.926  0.9304  0.7268  0.3639
   42CHL1  H23A 4274   3.059   3.404   5.841  0.7338 -1.9562  1.6209
   42CHL1  H23B 4275   2.907   3.401   5.935  0.2154  2.1302  0.6996
   42CHL1   C24 4276   2.979   3.596   5.897  0.3779  0.5417 -1.2433
   42CHL1  H24A 4277   2.951   3.653   5.988 -0.1136 -1.0593 -0.3522
   42CHL1  H24B 4278   3.075   3.643   5.864  3.0138 -3.4486 -0.0462
   42CHL1   C25 4279   2.865   3.612   5.790  0.2032 -0.6575  0.3021
   42CHL1   H25 4280   2.783   3.550   5.832 -0.7615  1.4330  1.6573
   42CHL1   C26 4281   2.833   3.764   5.793 -0.0785 -0.3390  0.2523
   42CHL1  H26A 4282   2.743   3.793   5.736 -1.2850 -2.3719  1.0065
   42CHL1  H26B 4283   2.829   3.809   5.895 -0.0070  0.5683 -0.1327
   42CHL1  H26C 4284   2.916   3.822   5.747  0.3840 -0.2171  1.2146
   42CHL1   C27 4285   2.911   3.563   5.646  0.1995  0.3999 -0.8479
   42CHL1  H27A 4286   3.013   3.599   5.619  0.3395 -0.1466 -1.0540
   42CHL1  H27B 4287   2.916   3.452   5.643 -1.4829  0.3048 -1.7542
   42CHL1  H27C 4288   2.836   3.588   5.567  1.0425 -1.0776 -2.1879
   43CHL1    C3 4289   4.279   5.661   6.602  0.7831  0.4556  0.1253
   43CHL1    H3 4290   4.190   5.599   6.581 -0.0681  1.7387 -0.2157
   43CHL1    O3 4291   4.296   5.687   6.743 -0.0557 -0.4186 -0.2989
   43CHL1   H3' 4292   4.384   5.723   6.751 -0.2983  0.3516 -0.9339
   43CHL1    C4 4293   4.403   5.587   6.548  0.1528  0.2151 -0.1179
   43CHL1   H4A 4294   4.497   5.643   6.568 -0.7186  0.7807  2.9316
   43CHL1   H4B 4295   4.404   5.492   6.604 -2.2734 -0.7224 -1.4953
   43CHL1    C5 4296   4.395   5.556   6.399  0.0551  0.0695  0.0393
   43CHL1    C6 4297   4.403   5.430   6.344 -0.1351 -0.7649 -0.4917
   43CHL1    H6 4298   4.411   5.338   6.403  0.3304  0.7958  2.0893
   43CHL1    C7 4299   4.401   5.411   6.194 -0.2446  0.4422 -0.5543
   43CHL1   H7A 4300   4.475   5.329   6.176  0.1119  0.5489  0.3548
   43CHL1   H7B 4301   4.305   5.366   6.162  1.2284 -2.5546 -1.0906
   43CHL1    C8 4302   4.423   5.546   6.109  1.0613 -0.3605 -0.1342
   43CHL1    H8 4303   4.528   5.582   6.114  1.1082 -0.3992 -0.7865
   43CHL1   C14 4304   4.382   5.522   5.968  0.3038 -0.0279 -0.0204
   43CHL1   H14 4305   4.278   5.482   5.970  0.7630 -1.2155  0.3269
   43CHL1   C15 4306   4.460   5.420   5.880 -0.2347  0.4685 -0.2151
   43CHL1  H15A 4307   4.569   5.418   5.899  0.2946 -0.5864 -2.9199
   43CHL1  H15B 4308   4.420   5.317   5.898  0.9992  0.1944  1.2177
   43CHL1   C16 4309   4.432   5.468   5.735 -0.0462 -0.5950  0.1633
   43CHL1  H16A 4310   4.518   5.492   5.668 -1.0148 -0.6343 -1.1366
   43CHL1  H16B 4311   4.381   5.382   5.686 -0.4600 -0.6237  0.6430
   43CHL1   C17 4312   4.339   5.594   5.737  0.3137 -0.3947  0.0893
   43CHL1   H17 4313   4.238   5.547   5.741  0.2536 -0.3114 -0.4466
   43CHL1   C13 4314   4.367   5.653   5.877  0.4562 -0.0744 -0.9105
   43CHL1   C18 4315   4.505   5.729   5.870 -0.1380 -0.1438  0.3409
   43CHL1  H18A 4316   4.495   5.828   5.822  0.0171 -0.0800  0.4397
   43CHL1  H18B 4317   4.539   5.759   5.971  3.4718  1.7521 -1.2742
   43CHL1  H18C 4318   4.583   5.668   5.821 -0.4954 -0.4305  0.1202
   43CHL1   C12 4319   4.258   5.740   5.941  0.0932  0.6524 -0.0173
   43CHL1  H12A 4320   4.251   5.837   5.887  2.2698 -0.3802 -2.3840
   43CHL1  H12B 4321   4.168   5.681   5.915  1.3438 -1.9013  1.0688
   43CHL1   C11 4322   4.282   5.773   6.087 -0.3869  0.0784 -0.0457
   43CHL1  H11A 4323   4.364   5.848   6.095  0.7304 -0.9840 -1.1428
   43CHL1  H11B 4324   4.188   5.819   6.124  0.0740  1.5003 -0.5438
   43CHL1    C9 4325   4.317   5.649   6.182  0.0389  0.3806  0.7142
   43CHL1    H9 4326   4.216   5.604   6.193 -0.9521  2.0833 -0.6827
   43CHL1   C10 4327   4.366   5.685   6.319  0.8422  0.3654  0.3387
   43CHL1   C19 4328   4.492   5.777   6.315 -0.7033  0.4327 -0.2523
   43CHL1  H19A 4329   4.534   5.807   6.413 -0.4376  0.7711 -0.4673
   43CHL1  H19B 4330   4.577   5.740   6.253 -0.0224 -0.4654  1.1608
   43CHL1  H19C 4331   4.451   5.868   6.267  0.5043  1.4039  0.4790
   43CHL1    C1 4332   4.251   5.760   6.375  0.2593 -0.3703 -0.5195
   43CHL1   H1A 4333   4.236   5.856   6.322 -1.3930 -0.8570 -0.9880
   43CHL1   H1B 4334   4.156   5.702   6.383 -0.8597  1.4327 -0.1065
   43CHL1    C2 4335   4.268   5.798   6.530  0.1256  0.2274  0.8156
   43CHL1   H2A 4336   4.182   5.855   6.570 -0.3722  0.1787 -0.1706
   43CHL1   H2B 4337   4.363   5.854   6.546 -0.4276  1.9645 -1.4745
   43CHL1   C20 4338   4.357   5.677   5.611 -0.2957 -0.3319  0.3096
   43CHL1   H20 4339   4.465   5.699   5.597 -0.6242  2.1084  0.9902
   43CHL1   C21 4340   4.291   5.815   5.624 -0.0999 -0.5269  0.1953
   43CHL1  H21A 4341   4.283   5.864   5.524  1.0535  0.7615  0.7035
   43CHL1  H21B 4342   4.341   5.890   5.689  0.9341 -0.7414 -0.3290
   43CHL1  H21C 4343   4.184   5.818   5.655  0.0406 -0.5991  0.7051
   43CHL1   C22 4344   4.318   5.596   5.488  0.4919  0.2139 -0.0751
   43CHL1  H22A 4345   4.358   5.494   5.504  0.4694  0.4287  1.5939
   43CHL1  H22B 4346   4.208   5.585   5.476  0.2267  0.2584  1.9522
   43CHL1   C23 4347   4.369   5.637   5.350 -0.3099 -0.0472  1.0877
   43CHL1  H23A 4348   4.335   5.741   5.328  0.8555  0.5871  2.1994
   43CHL1  H23B 4349   4.479   5.620   5.346 -0.5312 -1.5583  0.7908
   43CHL1   C24 4350   4.322   5.543   5.239 -1.0542 -0.0574  0.3845
   43CHL1  H24A 4351   4.384   5.451   5.248  1.1112  0.8741 -3.0352
   43CHL1  H24B 4352   4.216   5.522   5.262 -1.1930  0.9037  0.6308
   43CHL1   C25 4353   4.333   5.598   5.093 -0.1137  0.0296 -0.0182
   43CHL1   H25 4354   4.439   5.627   5.079 -0.3599  1.6461  1.1417
   43CHL1   C26 4355   4.290   5.490   4.990  0.1183 -0.9936 -0.1627
   43CHL1  H26A 4356   4.269   5.552   4.900 -0.7645 -0.3992  0.4405
   43CHL1  H26B 4357   4.377   5.421   4.984  0.6076 -0.4955  0.8459
   43CHL1  H26C 4358   4.198   5.433   5.016 -1.3987  1.0608 -0.8157
   43CHL1   C27 4359   4.251   5.722   5.085 -0.9402  0.3329 -0.8812
   43CHL1  H27A 4360   4.274   5.806   5.154  0.7402 -3.1589  3.3693
   43CHL1  H27B 4361   4.252   5.760   4.981  2.0522  1.7016 -0.4509
   43CHL1  H27C 4362   4.143   5.696   5.094 -0.6892 -0.4149  0.3196
   44CHL1    C3 4363   2.856   1.500   6.553  0.4866 -0.4981 -0.4078
   44CHL1    H3 4364   2.880   1.394   6.528  1.7565 -1.0450  2.6461
   44CHL1    O3 4365   2.815   1.507   6.691  0.0719  0.4104 -0.6349
   44CHL1   H3' 4366   2.755   1.581   6.698  1.1738  1.2002  1.0319
   44CHL1    C4 4367   2.980   1.590   6.524 -0.1273  0.0384  0.2077
   44CHL1   H4A 4368   2.963   1.671   6.599  1.9556 -1.9019  3.0026
   44CHL1   H4B 4369   3.072   1.547   6.570 -0.9253  0.7826  2.6783
   44CHL1    C5 4370   2.996   1.648   6.384  0.1607  0.1466 -0.3662
   44CHL1    C6 4371   3.115   1.649   6.321  0.5748  0.8501 -0.6451
   44CHL1    H6 4372   3.200   1.627   6.386 -0.2923  0.0152  0.2377
   44CHL1    C7 4373   3.143   1.690   6.176  0.2902 -1.0284  1.0544
   44CHL1   H7A 4374   3.240   1.744   6.176  1.1069 -2.2454 -2.5959
   44CHL1   H7B 4375   3.152   1.605   6.106 -0.8207 -1.4600  1.4125
   44CHL1    C8 4376   3.030   1.789   6.128  0.3732  0.3523  0.0868
   44CHL1    H8 4377   3.036   1.885   6.184 -0.1058  0.2870  0.2545
   44CHL1   C14 4378   3.049   1.809   5.973 -0.6888 -0.2152  0.0831
   44CHL1   H14 4379   3.044   1.703   5.938  0.6111  0.1638 -1.3145
   44CHL1   C15 4380   3.183   1.857   5.910  0.4097 -0.9762  0.5317
   44CHL1  H15A 4381   3.235   1.937   5.966  1.8570 -2.5351  1.5059
   44CHL1  H15B 4382   3.258   1.775   5.909  0.3510 -1.0497 -1.6115
   44CHL1   C16 4383   3.140   1.900   5.771 -0.0481  0.5505  0.1928
   44CHL1  H16A 4384   3.171   2.006   5.758 -0.8622  0.9865  1.5328
   44CHL1  H16B 4385   3.180   1.844   5.684 -3.4859 -0.7964 -0.6804
   44CHL1   C17 4386   2.978   1.891   5.767 -0.3071 -0.7819  0.3530
   44CHL1   H17 4387   2.959   1.786   5.736 -1.0262 -0.1783 -1.3644
   44CHL1   C13 4388   2.938   1.902   5.909 -0.5412  0.4027  0.1601
   44CHL1   C18 4389   2.955   2.044   5.972 -0.3688 -0.6915 -0.3869
   44CHL1  H18A 4390   2.865   2.106   5.954 -0.2315 -0.0795  0.9140
   44CHL1  H18B 4391   2.949   2.024   6.081 -1.0035  0.6999 -0.1527
   44CHL1  H18C 4392   3.047   2.095   5.935 -1.2845  0.5606 -1.0189
   44CHL1   C12 4393   2.804   1.839   5.937  0.6730  0.6896 -0.6060
   44CHL1  H12A 4394   2.724   1.908   5.903  1.1511  0.2474 -2.7846
   44CHL1  H12B 4395   2.796   1.745   5.878  0.4994  0.6622 -0.5384
   44CHL1   C11 4396   2.775   1.799   6.090 -0.2832 -0.0258  1.0359
   44CHL1  H11A 4397   2.753   1.893   6.144  1.2298  0.2431  1.2306
   44CHL1  H11B 4398   2.683   1.737   6.081 -0.2671  0.1453 -0.8128
   44CHL1    C9 4399   2.894   1.721   6.159  0.1128 -0.2960  0.5750
   44CHL1    H9 4400   2.899   1.624   6.105 -0.4495 -0.0978  0.1563
   44CHL1   C10 4401   2.872   1.697   6.314 -0.0421  0.3154 -0.3102
   44CHL1   C19 4402   2.831   1.826   6.383 -0.2010  0.2751  0.8456
   44CHL1  H19A 4403   2.728   1.850   6.351 -0.1180  0.5163  0.7546
   44CHL1  H19B 4404   2.828   1.812   6.493  0.0328  1.6033  1.0417
   44CHL1  H19C 4405   2.900   1.909   6.356  0.8724 -1.2952 -1.5611
   44CHL1    C1 4406   2.767   1.582   6.323 -0.1634  0.3812 -0.7976
   44CHL1   H1A 4407   2.676   1.628   6.278 -0.5242 -1.0862 -1.6362
   44CHL1   H1B 4408   2.803   1.490   6.272 -0.2283 -0.5091  0.7057
   44CHL1    C2 4409   2.735   1.543   6.466  0.5753 -0.1053 -0.1571
   44CHL1   H2A 4410   2.668   1.455   6.476  0.7146 -0.4738 -2.1840
   44CHL1   H2B 4411   2.679   1.624   6.518 -0.6730 -1.0160 -0.0285
   44CHL1   C20 4412   2.922   1.991   5.666  0.8786 -0.2123 -0.1526
   44CHL1   H20 4413   2.940   2.096   5.695 -0.3962  0.2251 -0.8560
   44CHL1   C21 4414   2.770   1.977   5.650 -0.2361 -0.5836 -0.0561
   44CHL1  H21A 4415   2.749   2.053   5.573 -1.5144 -1.3773 -0.5355
   44CHL1  H21B 4416   2.716   2.005   5.743  1.6525 -2.6370  1.7913
   44CHL1  H21C 4417   2.738   1.872   5.634  4.2982 -2.2703  0.3959
   44CHL1   C22 4418   2.994   1.976   5.529 -0.4751 -0.2364  0.1886
   44CHL1  H22A 4419   3.101   1.999   5.542 -0.5218 -1.0873  2.8108
   44CHL1  H22B 4420   2.974   1.873   5.493  0.2999 -0.9437  1.6842
   44CHL1   C23 4421   2.960   2.073   5.415 -0.6702 -0.2676  0.2465
   44CHL1  H23A 4422   2.854   2.051   5.388 -0.2368  0.7134 -2.5899
   44CHL1  H23B 4423   2.965   2.178   5.451  0.7979 -0.5368  0.9155
   44CHL1   C24 4424   3.050   2.052   5.294 -0.0105 -0.8146 -0.2037
   44CHL1  H24A 4425   3.155   2.079   5.317 -0.5202  0.3608  0.8729
   44CHL1  H24B 4426   3.037   1.943   5.280 -1.6629 -0.5389 -1.0955
   44CHL1   C25 4427   3.007   2.134   5.168  0.1939 -0.8254 -0.0713
   44CHL1   H25 4428   2.907   2.089   5.148  0.3721 -0.7384 -1.1899
   44CHL1   C26 4429   2.996   2.285   5.189 -0.1592  0.4242  0.9599
   44CHL1  H26A 4430   3.097   2.330   5.185  0.7067 -1.4938 -1.0694
   44CHL1  H26B 4431   2.939   2.335   5.108 -1.8059 -1.4527  0.8668
   44CHL1  H26C 4432   2.948   2.299   5.288 -0.8853 -0.4737  0.7525
   44CHL1   C27 4433   3.084   2.102   5.041 -0.0515 -0.2642  0.6425
   44CHL1  H27A 4434   3.071   1.995   5.015  2.2053 -0.4058 -0.1978
   44CHL1  H27B 4435   3.050   2.161   4.953 -1.3609  0.6628  1.7145
   44CHL1  H27C 4436   3.191   2.125   5.060 -0.0730  1.7842 -1.1860
   45CHL1    C3 4437   4.126   1.858   6.614 -0.0028 -0.0141 -0.3454
   45CHL1    H3 4438   4.171   1.762   6.584  0.9298  0.2840  0.0760
   45CHL1    O3 4439   4.130   1.868   6.759  0.0708  0.4561  0.2872
   45CHL1   H3' 4440   4.074   1.943   6.782  1.2003  0.9585  1.5272
   45CHL1    C4 4441   4.199   1.978   6.552 -0.1245 -0.0426  0.0174
   45CHL1   H4A 4442   4.152   2.076   6.577  2.4773  0.5727  3.1845
   45CHL1   H4B 4443   4.298   1.980   6.602 -1.1684 -0.5706  2.2466
   45CHL1    C5 4444   4.200   1.968   6.405  0.2476 -0.5683  0.4656
   45CHL1    C6 4445   4.319   1.966   6.335  0.1590  0.1629 -0.3007
   45CHL1    H6 4446   4.408   1.973   6.399 -1.6027  0.2536  2.3014
   45CHL1    C7 4447   4.329   1.940   6.191  0.4706  1.1780  0.3392
   45CHL1   H7A 4448   4.410   1.991   6.136 -0.9782  0.4274 -2.7173
   45CHL1   H7B 4449   4.347   1.835   6.158 -0.0009  1.6633 -1.5715
   45CHL1    C8 4450   4.198   1.979   6.119 -0.0335 -0.2782 -0.1788
   45CHL1    H8 4451   4.181   2.089   6.129  0.0028 -0.4042  1.7368
   45CHL1   C14 4452   4.203   1.923   5.981  0.3704 -0.5100  0.9108
   45CHL1   H14 4453   4.200   1.813   5.994 -1.7741 -0.6479 -0.3979
   45CHL1   C15 4454   4.329   1.947   5.888 -0.5921  0.3484  0.6090
   45CHL1  H15A 4455   4.363   2.051   5.906  0.8124  0.1031 -0.4825
   45CHL1  H15B 4456   4.403   1.867   5.911  2.1661  1.5706 -3.1806
   45CHL1   C16 4457   4.277   1.921   5.758 -0.8034 -0.3709  0.4185
   45CHL1  H16A 4458   4.284   2.023   5.713  2.0290 -1.0068 -0.7686
   45CHL1  H16B 4459   4.333   1.858   5.686 -0.3537 -0.4500  0.8369
   45CHL1   C17 4460   4.123   1.898   5.755 -0.0983  0.3415 -1.0495
   45CHL1   H17 4461   4.107   1.788   5.764  1.4064  0.0722 -1.5323
   45CHL1   C13 4462   4.079   1.955   5.896  0.1608 -0.5873  0.2699
   45CHL1   C18 4463   4.056   2.114   5.885  0.8691  0.3933  0.4155
   45CHL1  H18A 4464   4.030   2.153   5.986 -2.5135 -0.0221 -0.1688
   45CHL1  H18B 4465   4.143   2.167   5.841  0.0793  1.1152 -0.3299
   45CHL1  H18C 4466   3.959   2.135   5.834  0.1193 -2.2313  0.6049
   45CHL1   C12 4467   3.949   1.887   5.957  0.4634 -0.1263  0.9761
   45CHL1  H12A 4468   3.852   1.912   5.907  0.1151 -2.3965  0.3744
   45CHL1  H12B 4469   3.962   1.780   5.928  1.4046  0.5055 -1.1803
   45CHL1   C11 4470   3.938   1.924   6.102  0.4275 -0.0248 -0.2913
   45CHL1  H11A 4471   3.893   2.025   6.097 -0.8085 -0.6010 -1.3650
   45CHL1  H11B 4472   3.863   1.862   6.157 -0.3061  2.2922  1.4940
   45CHL1    C9 4473   4.070   1.917   6.185 -0.5907  0.8411 -0.2912
   45CHL1    H9 4474   4.102   1.811   6.196 -0.7818  0.9610  1.8369
   45CHL1   C10 4475   4.061   1.953   6.333 -0.3675 -0.2039  0.0764
   45CHL1   C19 4476   3.995   2.098   6.338  0.3247  0.6327  0.3364
   45CHL1  H19A 4477   4.052   2.175   6.283  1.0305 -0.0950  0.0284
   45CHL1  H19B 4478   3.890   2.098   6.301 -0.0130 -0.6318  1.2406
   45CHL1  H19C 4479   3.990   2.131   6.444  1.2272  1.6561  0.0757
   45CHL1    C1 4480   3.968   1.846   6.405 -0.1139  0.2281 -0.0681
   45CHL1   H1A 4481   3.861   1.848   6.377 -0.3668 -1.9131  0.5324
   45CHL1   H1B 4482   4.005   1.742   6.395 -0.6392 -0.0507  0.7648
   45CHL1    C2 4483   3.982   1.854   6.560 -0.7516  0.7552 -0.0029
   45CHL1   H2A 4484   3.922   1.773   6.607 -3.2031  1.7057 -1.3366
   45CHL1   H2B 4485   3.935   1.950   6.591 -0.3710  1.3383 -1.1857
   45CHL1   C20 4486   4.061   1.949   5.628  0.1660 -0.2932 -0.3068
   45CHL1   H20 4487   4.068   2.060   5.626  0.9543 -0.2871  1.3295
   45CHL1   C21 4488   3.911   1.921   5.631 -0.5961  0.1824 -0.2261
   45CHL1  H21A 4489   3.862   1.981   5.711 -0.5924 -1.0845  0.7443
   45CHL1  H21B 4490   3.889   1.820   5.671 -0.2821 -0.8217 -2.4596
   45CHL1  H21C 4491   3.863   1.938   5.532  0.9134  0.1230 -1.0057
   45CHL1   C22 4492   4.130   1.915   5.494  0.0382  0.1480  0.0177
   45CHL1  H22A 4493   4.239   1.933   5.496 -0.1284  1.6259 -1.5607
   45CHL1  H22B 4494   4.121   1.805   5.482 -0.4675  0.0057  1.4982
   45CHL1   C23 4495   4.073   1.985   5.361 -0.3774  0.6045  0.1207
   45CHL1  H23A 4496   3.971   1.946   5.346  0.4032 -1.0488 -1.3000
   45CHL1  H23B 4497   4.092   2.093   5.379 -0.6907  0.0051  5.7022
   45CHL1   C24 4498   4.145   1.938   5.226  0.2914  0.6581 -1.1191
   45CHL1  H24A 4499   4.254   1.957   5.236  0.4625 -0.3134 -0.9690
   45CHL1  H24B 4500   4.125   1.829   5.215  0.9001  0.5384 -1.0704
   45CHL1   C25 4501   4.099   2.008   5.093  0.2301 -0.1052 -0.2280
   45CHL1   H25 4502   4.110   2.117   5.110 -0.9919  0.0332 -0.2205
   45CHL1   C26 4503   4.177   1.963   4.977 -0.2849 -0.6331 -0.0187
   45CHL1  H26A 4504   4.173   2.036   4.893  2.7984 -0.9774 -0.5851
   45CHL1  H26B 4505   4.287   1.963   4.991 -0.2609 -0.9880 -0.1809
   45CHL1  H26C 4506   4.151   1.860   4.944 -1.9882 -0.1158 -0.4017
   45CHL1   C27 4507   3.943   1.976   5.071  0.5433 -0.5313  0.2085
   45CHL1  H27A 4508   3.921   1.867   5.073  2.1367 -0.9784 -2.2833
   45CHL1  H27B 4509   3.886   2.025   5.152  3.5727  3.0978  0.3761
   45CHL1  H27C 4510   3.912   2.007   4.969 -0.6829 -0.1207  0.6832
   46CHL1    C3 4511   6.686   2.069   6.766  0.8983 -0.4089 -0.3882
   46CHL1    H3 4512   6.597   2.020   6.721 -1.6041  1.4142  2.2073
   46CHL1    O3 4513   6.680   2.083   6.906  0.8017 -0.3815  0.0850
   46CHL1   H3' 4514   6.741   2.154   6.922 -2.0975  2.1326  0.9717
   46CHL1    C4 4515   6.818   1.997   6.727  0.2498 -0.3774 -0.1619
   46CHL1   H4A 4516   6.902   2.051   6.776 -1.3948  1.4127  0.8612
   46CHL1   H4B 4517   6.806   1.898   6.777  0.4600 -0.8410 -1.0099
   46CHL1    C5 4518   6.833   1.972   6.583 -0.3501  0.3110  0.7667
   46CHL1    C6 4519   6.834   1.843   6.537 -0.7795  0.1325 -0.3601
   46CHL1    H6 4520   6.836   1.757   6.605  2.9541 -0.6726 -1.2778
   46CHL1    C7 4521   6.841   1.802   6.391  0.3303  0.0833 -0.3491
   46CHL1   H7A 4522   6.926   1.731   6.378  2.0109  1.5550  1.7478
   46CHL1   H7B 4523   6.746   1.747   6.376  0.3298 -0.1244  0.3618
   46CHL1    C8 4524   6.866   1.921   6.294 -0.8550  0.2719 -0.7262
   46CHL1    H8 4525   6.972   1.954   6.299 -0.2843 -1.6203  0.7548
   46CHL1   C14 4526   6.817   1.883   6.154  0.0696  0.8191  0.2407
   46CHL1   H14 4527   6.708   1.869   6.165 -0.7446  3.3871 -2.8145
   46CHL1   C15 4528   6.855   1.751   6.097  0.2460 -0.1382  0.6638
   46CHL1  H15A 4529   6.965   1.740   6.088  0.2266 -0.3135  0.6297
   46CHL1  H15B 4530   6.806   1.662   6.143 -1.2716  0.1843 -0.2702
   46CHL1   C16 4531   6.815   1.762   5.947 -0.3657 -0.4114  0.3201
   46CHL1  H16A 4532   6.901   1.743   5.880 -0.7279 -0.0024 -0.2771
   46CHL1  H16B 4533   6.732   1.691   5.927 -0.3432 -0.6456  1.0157
   46CHL1   C17 4534   6.761   1.909   5.932  0.4704 -0.0266  1.3016
   46CHL1   H17 4535   6.652   1.908   5.955  0.1105  2.4337  0.0534
   46CHL1   C13 4536   6.829   1.987   6.041  0.0743 -0.0016 -0.1380
   46CHL1   C18 4537   6.980   2.014   6.013 -0.1171  0.0573 -0.8184
   46CHL1  H18A 4538   6.994   2.082   5.926  2.3828 -0.0355 -0.5600
   46CHL1  H18B 4539   7.024   2.068   6.099  1.2577 -1.0216 -0.8040
   46CHL1  H18C 4540   7.044   1.925   5.996 -0.7890 -0.5129 -0.3854
   46CHL1   C12 4541   6.762   2.119   6.091 -0.0306 -0.3288  1.2255
   46CHL1  H12A 4542   6.788   2.202   6.023  3.6793 -2.9555 -0.8862
   46CHL1  H12B 4543   6.653   2.099   6.083  0.2332 -1.2414 -0.4625
   46CHL1   C11 4544   6.800   2.162   6.235  0.1726 -0.3676 -0.3187
   46CHL1  H11A 4545   6.906   2.192   6.225  0.1304 -0.2473 -0.4085
   46CHL1  H11B 4546   6.745   2.254   6.261  0.2880  0.0430 -1.4533
   46CHL1    C9 4547   6.795   2.048   6.342  0.4663 -0.5441 -0.5874
   46CHL1    H9 4548   6.689   2.020   6.323  0.7251 -3.1831  1.2334
   46CHL1   C10 4549   6.810   2.092   6.489  0.0865 -0.7071  0.5680
   46CHL1   C19 4550   6.935   2.181   6.498  0.0604  0.6279 -0.3572
   46CHL1  H19A 4551   6.969   2.209   6.600 -0.5720  0.2321 -0.0319
   46CHL1  H19B 4552   7.025   2.129   6.459 -0.7429 -0.0341 -1.3806
   46CHL1  H19C 4553   6.917   2.280   6.453 -0.5346  2.1836  2.9835
   46CHL1    C1 4554   6.685   2.175   6.537  0.1973 -0.3230 -0.3653
   46CHL1   H1A 4555   6.681   2.269   6.479  1.3987  1.3563  2.0962
   46CHL1   H1B 4556   6.595   2.111   6.520 -0.5980 -0.0436  2.1793
   46CHL1    C2 4557   6.685   2.204   6.697  0.9123  0.1787  0.1199
   46CHL1   H2A 4558   6.602   2.275   6.718  0.9513  0.2177  0.1466
   46CHL1   H2B 4559   6.778   2.265   6.705  1.6704 -0.8389 -0.6911
   46CHL1   C20 4560   6.771   1.950   5.781 -0.5206 -0.3123 -0.0123
   46CHL1   H20 4561   6.876   1.938   5.745 -0.3559 -0.6119  0.5629
   46CHL1   C21 4562   6.733   2.101   5.765  0.0578 -0.0932  0.0682
   46CHL1  H21A 4563   6.740   2.122   5.656  0.4548  0.8399  0.2661
   46CHL1  H21B 4564   6.799   2.169   5.823  0.2447 -0.5398  0.3831
   46CHL1  H21C 4565   6.631   2.122   5.803 -0.3290 -2.0654  0.2298
   46CHL1   C22 4566   6.684   1.863   5.687  0.3341  0.4066 -1.0118
   46CHL1  H22A 4567   6.682   1.754   5.709 -0.8219  0.5954 -0.0227
   46CHL1  H22B 4568   6.584   1.897   5.722 -0.1191 -2.1891  0.4853
   46CHL1   C23 4569   6.708   1.876   5.535 -0.1138  0.8239  0.3372
   46CHL1  H23A 4570   6.673   1.976   5.500  1.1487  1.2974  0.3933
   46CHL1  H23B 4571   6.815   1.870   5.509  0.6699  0.4217  3.2576
   46CHL1   C24 4572   6.643   1.756   5.450  0.7772 -0.9823 -0.5496
   46CHL1  H24A 4573   6.667   1.655   5.491  1.5126  0.3548  2.5967
   46CHL1  H24B 4574   6.532   1.765   5.453  0.6952 -1.9000 -0.4680
   46CHL1   C25 4575   6.661   1.757   5.302  0.3390  0.5532  1.0121
   46CHL1   H25 4576   6.767   1.745   5.273 -0.3090 -0.0094 -1.3701
   46CHL1   C26 4577   6.575   1.634   5.235 -0.9076 -0.9535 -0.2440
   46CHL1  H26A 4578   6.474   1.677   5.215 -0.6582 -0.8272 -1.2653
   46CHL1  H26B 4579   6.613   1.614   5.133 -2.7040  1.9152 -1.6008
   46CHL1  H26C 4580   6.580   1.545   5.302 -0.6914  0.1801  1.3080
   46CHL1   C27 4581   6.612   1.890   5.226 -0.5840 -0.5094  0.2954
   46CHL1  H27A 4582   6.662   1.901   5.128 -2.7634  0.2549 -0.8076
   46CHL1  H27B 4583   6.503   1.897   5.206 -0.5444  1.3132  0.5813
   46CHL1  H27C 4584   6.634   1.980   5.287 -0.5293 -0.6713  0.5162
   47CHL1    C3 4585   4.287   4.317   6.982  0.2151  0.3824 -0.1127
   47CHL1    H3 4586   4.243   4.216   6.964  1.3449 -0.2118  0.3306
   47CHL1    O3 4587   4.313   4.334   7.123 -0.3010  0.1862  0.6361
   47CHL1   H3' 4588   4.242   4.290   7.170  0.2493  0.6659  1.9683
   47CHL1    C4 4589   4.410   4.340   6.896  0.1136  0.1348  0.9246
   47CHL1   H4A 4590   4.434   4.446   6.915 -3.7577  1.3757 -0.1768
   47CHL1   H4B 4591   4.498   4.281   6.930  1.5869  1.9957  0.4943
   47CHL1    C5 4592   4.376   4.331   6.748 -0.4502  0.3860  0.4279
   47CHL1    C6 4593   4.425   4.233   6.670 -0.0303  0.2441 -0.6009
   47CHL1    H6 4594   4.493   4.158   6.712 -3.8750 -2.2169  1.8684
   47CHL1    C7 4595   4.398   4.229   6.525 -0.4185 -0.0035  0.4922
   47CHL1   H7A 4596   4.496   4.214   6.474  0.8634  1.5303  2.3696
   47CHL1   H7B 4597   4.319   4.155   6.500 -1.9221  1.5084  0.6139
   47CHL1    C8 4598   4.349   4.370   6.469 -0.6137  0.2451 -0.0825
   47CHL1    H8 4599   4.435   4.440   6.482  0.2338 -0.8848  0.6738
   47CHL1   C14 4600   4.323   4.356   6.323  0.4053  1.0996  0.3215
   47CHL1   H14 4601   4.235   4.289   6.318  0.5758  0.9722 -1.4080
   47CHL1   C15 4602   4.420   4.293   6.225 -0.4844 -0.8048  0.1539
   47CHL1  H15A 4603   4.524   4.326   6.248 -0.7673  1.1396 -1.1451
   47CHL1  H15B 4604   4.414   4.182   6.219  2.5228 -1.1215  1.3343
   47CHL1   C16 4605   4.396   4.346   6.088 -0.1486  0.1283  0.3957
   47CHL1  H16A 4606   4.482   4.406   6.053  1.0785 -2.2494 -0.9399
   47CHL1  H16B 4607   4.373   4.253   6.031 -1.7861 -0.4882  1.9567
   47CHL1   C17 4608   4.270   4.437   6.102 -0.5541 -0.7340  0.7667
   47CHL1   H17 4609   4.174   4.380   6.096 -0.6693 -0.5314  0.6851
   47CHL1   C13 4610   4.270   4.482   6.251  0.8730 -0.7126 -0.0618
   47CHL1   C18 4611   4.382   4.595   6.267 -0.1782  0.9507 -0.2890
   47CHL1  H18A 4612   4.414   4.616   6.371  0.0512  0.8256 -0.3338
   47CHL1  H18B 4613   4.478   4.573   6.215 -0.6675 -3.5273  0.3589
   47CHL1  H18C 4614   4.353   4.690   6.216  1.5413  1.3214 -0.6393
   47CHL1   C12 4615   4.140   4.524   6.330 -1.2933 -0.1485  0.2884
   47CHL1  H12A 4616   4.087   4.609   6.283 -2.2719 -0.9622 -0.1361
   47CHL1  H12B 4617   4.070   4.437   6.324 -1.1372 -0.1851 -2.2775
   47CHL1   C11 4618   4.162   4.548   6.480 -0.0633  0.3589 -0.5533
   47CHL1  H11A 4619   4.219   4.642   6.495  0.5629 -0.4199  2.7916
   47CHL1  H11B 4620   4.069   4.574   6.537 -1.4572 -1.5590 -1.8353
   47CHL1    C9 4621   4.231   4.426   6.550  0.2761  0.1571 -0.0063
   47CHL1    H9 4622   4.154   4.346   6.550 -0.3242  0.6876  1.6231
   47CHL1   C10 4623   4.268   4.441   6.703  0.1523  0.6063  0.2773
   47CHL1   C19 4624   4.336   4.578   6.715  0.7546 -0.5711 -0.8420
   47CHL1  H19A 4625   4.369   4.601   6.818  2.5226 -1.0626 -1.2798
   47CHL1  H19B 4626   4.416   4.591   6.639  1.0476  2.0749 -0.2009
   47CHL1  H19C 4627   4.262   4.659   6.693  0.8826 -0.0224  0.6622
   47CHL1    C1 4628   4.141   4.426   6.796  0.1800 -0.0315 -0.3735
   47CHL1   H1A 4629   4.082   4.515   6.763  0.0856 -0.2136 -0.6979
   47CHL1   H1B 4630   4.080   4.338   6.768 -1.9565  0.7811  1.4440
   47CHL1    C2 4631   4.173   4.421   6.951 -0.3989  0.8932  0.6894
   47CHL1   H2A 4632   4.086   4.385   7.010  0.2772 -2.6340 -0.2220
   47CHL1   H2B 4633   4.203   4.522   6.988  2.4044 -0.6496  3.0963
   47CHL1   C20 4634   4.267   4.547   5.991 -0.3161 -0.0590 -0.1676
   47CHL1   H20 4635   4.360   4.604   6.013  0.3760 -0.6239 -1.5216
   47CHL1   C21 4636   4.140   4.634   6.004 -0.0956 -0.9589  0.1915
   47CHL1  H21A 4637   4.054   4.564   5.995 -1.2164 -0.0162  2.5127
   47CHL1  H21B 4638   4.122   4.710   5.925 -0.9398  0.2870  1.5027
   47CHL1  H21C 4639   4.130   4.693   6.098 -4.4140 -0.3257 -0.4406
   47CHL1   C22 4640   4.275   4.485   5.849  0.3770 -0.1803 -0.7996
   47CHL1  H22A 4641   4.344   4.398   5.849  3.6518  2.2088 -3.0909
   47CHL1  H22B 4642   4.172   4.447   5.831 -0.8938  2.0038  1.2635
   47CHL1   C23 4643   4.306   4.588   5.737  0.2288 -0.7252  0.1197
   47CHL1  H23A 4644   4.239   4.675   5.750 -1.3080 -1.8238 -0.1457
   47CHL1  H23B 4645   4.413   4.610   5.756  0.2954 -0.0778 -0.9455
   47CHL1   C24 4646   4.273   4.538   5.600  0.5056  0.8247  0.4811
   47CHL1  H24A 4647   4.301   4.431   5.594  1.8492  1.2340 -1.6221
   47CHL1  H24B 4648   4.166   4.541   5.571  1.0651  1.8176 -1.6583
   47CHL1   C25 4649   4.335   4.615   5.489  0.4627  0.0966 -0.0355
   47CHL1   H25 4650   4.288   4.716   5.493 -0.7659 -0.4928  1.1707
   47CHL1   C26 4651   4.489   4.634   5.499 -0.5999  0.5246 -0.1156
   47CHL1  H26A 4652   4.520   4.673   5.598 -0.2482 -0.6579  0.2554
   47CHL1  H26B 4653   4.540   4.536   5.489 -2.3158 -0.5044  0.8429
   47CHL1  H26C 4654   4.521   4.708   5.422 -1.4816 -0.7635 -1.7977
   47CHL1   C27 4655   4.310   4.543   5.357 -0.8031  0.0679 -0.5792
   47CHL1  H27A 4656   4.208   4.551   5.312 -1.9029  0.0699  1.7903
   47CHL1  H27B 4657   4.387   4.588   5.290  0.1225 -0.7868 -0.1115
   47CHL1  H27C 4658   4.332   4.434   5.357  1.4988  0.4038  2.8409
   48CHL1    C3 4659   2.181   4.435   6.836 -0.3896 -0.4379  0.2052
   48CHL1    H3 4660   2.122   4.355   6.785 -0.6334  1.1647 -2.1991
   48CHL1    O3 4661   2.146   4.441   6.973  0.3911 -0.0853  0.0687
   48CHL1   H3' 4662   2.207   4.387   7.025 -0.5797 -0.0695  1.2913
   48CHL1    C4 4663   2.333   4.412   6.814  0.0973  0.7671  0.0755
   48CHL1   H4A 4664   2.391   4.487   6.872  0.7151  2.2413 -2.3025
   48CHL1   H4B 4665   2.354   4.310   6.854  1.3002  1.6513  1.8064
   48CHL1    C5 4666   2.380   4.415   6.668  0.2179  0.9958 -0.7214
   48CHL1    C6 4667   2.437   4.308   6.606 -0.5979  0.0032  0.2940
   48CHL1    H6 4668   2.466   4.219   6.664  0.7298  0.5980  0.5750
   48CHL1    C7 4669   2.472   4.305   6.460 -0.4771 -0.8353 -0.2278
   48CHL1   H7A 4670   2.575   4.273   6.434 -0.1349  1.4908 -2.1131
   48CHL1   H7B 4671   2.394   4.248   6.407 -2.2376  0.6926  0.5988
   48CHL1    C8 4672   2.473   4.443   6.392 -0.1429 -0.5341  0.1821
   48CHL1    H8 4673   2.575   4.470   6.427  0.4608 -0.8727 -1.2425
   48CHL1   C14 4674   2.484   4.438   6.237  0.9481 -0.8455  0.1679
   48CHL1   H14 4675   2.383   4.406   6.205 -1.1005  0.9238  4.2132
   48CHL1   C15 4676   2.587   4.338   6.167  0.0634  0.2613 -0.5731
   48CHL1  H15A 4677   2.681   4.346   6.227 -0.1841  1.4845 -0.3027
   48CHL1  H15B 4678   2.546   4.235   6.173  1.6833 -0.3632  0.4333
   48CHL1   C16 4679   2.584   4.383   6.016 -0.0187 -0.4117 -0.5854
   48CHL1  H16A 4680   2.688   4.391   5.978 -0.5677 -1.0900 -2.3273
   48CHL1  H16B 4681   2.532   4.302   5.962 -2.7146  1.2061 -0.6026
   48CHL1   C17 4682   2.504   4.514   6.016 -0.7451 -1.2779 -0.1682
   48CHL1   H17 4683   2.399   4.488   5.990 -1.4394  1.1002 -0.0088
   48CHL1   C13 4684   2.503   4.570   6.165  0.9478  0.6760 -0.1251
   48CHL1   C18 4685   2.644   4.625   6.205 -0.6560 -0.0593  0.0248
   48CHL1  H18A 4686   2.648   4.734   6.183  0.5123 -0.1892 -0.4411
   48CHL1  H18B 4687   2.673   4.605   6.311  1.6625  0.4815 -0.4657
   48CHL1  H18C 4688   2.723   4.576   6.145  0.0264 -1.5971  2.0738
   48CHL1   C12 4689   2.387   4.664   6.208 -0.2349 -0.0728  0.3656
   48CHL1  H12A 4690   2.399   4.770   6.178 -1.0394  0.1369  0.7454
   48CHL1  H12B 4691   2.292   4.624   6.165 -0.0685 -0.1643  0.0740
   48CHL1   C11 4692   2.374   4.678   6.361 -0.9209 -0.5053  0.5917
   48CHL1  H11A 4693   2.460   4.736   6.402  0.2514 -1.7083 -0.0761
   48CHL1  H11B 4694   2.285   4.738   6.387  0.3271  1.6915  0.1008
   48CHL1    C9 4695   2.367   4.546   6.436  0.0692  0.2292  0.4275
   48CHL1    H9 4696   2.278   4.500   6.387  0.8337  0.7713 -1.5793
   48CHL1   C10 4697   2.341   4.549   6.592 -0.2956  0.3340  0.5052
   48CHL1   C19 4698   2.421   4.673   6.648  0.5714  0.0814 -0.1366
   48CHL1  H19A 4699   2.526   4.652   6.617  0.1697  0.8723 -2.1871
   48CHL1  H19B 4700   2.394   4.773   6.610  0.3402 -0.2111 -0.7566
   48CHL1  H19C 4701   2.425   4.675   6.759  0.8341  0.8001 -0.1560
   48CHL1    C1 4702   2.195   4.575   6.625 -0.8919 -0.6222  0.2835
   48CHL1   H1A 4703   2.172   4.678   6.591  0.5150  0.4058  2.2796
   48CHL1   H1B 4704   2.126   4.512   6.565 -1.1076  1.0778 -1.3227
   48CHL1    C2 4705   2.149   4.562   6.766 -0.0689 -0.5053 -0.3010
   48CHL1   H2A 4706   2.039   4.571   6.778  0.0701 -0.5488  1.2159
   48CHL1   H2B 4707   2.189   4.646   6.828  1.3259 -0.4359 -1.2561
   48CHL1   C20 4708   2.560   4.605   5.908 -0.2471  0.5567  0.5289
   48CHL1   H20 4709   2.652   4.648   5.952  2.1627 -1.1043 -2.4920
   48CHL1   C21 4710   2.455   4.715   5.880  0.1123 -0.4078 -0.5431
   48CHL1  H21A 4711   2.482   4.759   5.781 -0.4987 -1.2214 -1.0868
   48CHL1  H21B 4712   2.354   4.671   5.865  1.7052 -3.3700 -3.9167
   48CHL1  H21C 4713   2.447   4.800   5.951  1.2879  1.1810 -2.2172
   48CHL1   C22 4714   2.596   4.528   5.777 -0.9941  0.6433 -0.3517
   48CHL1  H22A 4715   2.620   4.617   5.716  1.3169  0.9702  0.9129
   48CHL1  H22B 4716   2.694   4.482   5.802 -1.7626 -0.7023  0.3204
   48CHL1   C23 4717   2.489   4.444   5.712  0.7346  0.5691  0.1502
   48CHL1  H23A 4718   2.449   4.364   5.777 -1.6235  0.0590 -1.7876
   48CHL1  H23B 4719   2.401   4.511   5.700 -1.1993 -1.5962  1.6393
   48CHL1   C24 4720   2.522   4.381   5.577 -0.3097 -0.6887  0.3299
   48CHL1  H24A 4721   2.590   4.298   5.608 -0.3450 -0.6452  0.5218
   48CHL1  H24B 4722   2.436   4.327   5.532 -1.5639  0.2926  1.4646
   48CHL1   C25 4723   2.586   4.478   5.476  0.5264 -0.8625 -0.5971
   48CHL1   H25 4724   2.669   4.533   5.525  0.8595 -0.0604 -2.0126
   48CHL1   C26 4725   2.649   4.403   5.361 -0.4391 -0.1288 -0.1513
   48CHL1  H26A 4726   2.575   4.339   5.309 -0.6926 -0.3863  0.5118
   48CHL1  H26B 4727   2.684   4.467   5.277  1.3380 -2.3183 -1.1929
   48CHL1  H26C 4728   2.728   4.331   5.390  0.0894 -0.3009 -1.8719
   48CHL1   C27 4729   2.481   4.582   5.422  0.0164 -0.7288  0.2044
   48CHL1  H27A 4730   2.443   4.656   5.496  0.5187  0.1936 -0.4396
   48CHL1  H27B 4731   2.540   4.653   5.361 -0.6572 -2.0824 -2.1591
   48CHL1  H27C 4732   2.402   4.524   5.370  0.7991 -2.1569  0.5511
   49CHL1    C3 4733   2.877   2.468   6.442 -0.4501  0.1086 -0.1855
   49CHL1    H3 4734   2.979   2.444   6.405 -0.3355  1.5020 -0.8295
   49CHL1    O3 4735   2.884   2.494   6.580  0.1987  0.3513 -0.1692
   49CHL1   H3' 4736   2.828   2.432   6.627  3.5490 -1.0801  2.3502
   49CHL1    C4 4737   2.823   2.596   6.370  0.5198  0.3970 -0.0979
   49CHL1   H4A 4738   2.724   2.615   6.416  0.3702 -2.0575  0.7524
   49CHL1   H4B 4739   2.883   2.686   6.396 -0.8422  0.8415  1.6943
   49CHL1    C5 4740   2.811   2.563   6.224 -1.0283  0.3078  0.3279
   49CHL1    C6 4741   2.875   2.624   6.127 -0.0205  0.1457  0.7733
   49CHL1    H6 4742   2.951   2.698   6.154  0.5492  0.1889 -0.8705
   49CHL1    C7 4743   2.852   2.609   5.973  0.2660  0.4725  0.0668
   49CHL1   H7A 4744   2.855   2.713   5.935 -0.7699  1.5606  2.6579
   49CHL1   H7B 4745   2.943   2.558   5.936  2.2321  2.9143  1.2737
   49CHL1    C8 4746   2.716   2.528   5.941 -0.2866 -0.6683  0.1240
   49CHL1    H8 4747   2.627   2.590   5.965 -0.0835 -0.6541  0.8786
   49CHL1   C14 4748   2.712   2.483   5.795 -0.0764  0.3077  0.7863
   49CHL1   H14 4749   2.801   2.417   5.794 -0.6099 -0.4493  1.4249
   49CHL1   C15 4750   2.738   2.575   5.674 -0.5602 -0.0599  0.8316
   49CHL1  H15A 4751   2.668   2.658   5.694  0.8730  1.0513  1.4271
   49CHL1  H15B 4752   2.839   2.620   5.664 -0.1278 -1.2722 -0.7785
   49CHL1   C16 4753   2.699   2.488   5.553  0.6400  0.2775  0.6861
   49CHL1  H16A 4754   2.638   2.557   5.491  1.4697  1.6332  1.3335
   49CHL1  H16B 4755   2.779   2.444   5.490 -1.6151 -0.6670 -1.7219
   49CHL1   C17 4756   2.623   2.369   5.607  0.0671 -0.3436  0.0789
   49CHL1   H17 4757   2.695   2.285   5.597 -0.1589 -0.4234 -0.9408
   49CHL1   C13 4758   2.588   2.396   5.755 -0.1976  0.0375  0.2092
   49CHL1   C18 4759   2.463   2.476   5.757  1.0420  0.2373 -0.1637
   49CHL1  H18A 4760   2.376   2.409   5.734  0.1802  1.0434  0.6841
   49CHL1  H18B 4761   2.440   2.534   5.848  0.0578  0.1402 -0.3359
   49CHL1  H18C 4762   2.449   2.550   5.675 -1.8605 -1.3917 -1.3472
   49CHL1   C12 4763   2.583   2.276   5.850  0.3749  0.6976  0.0459
   49CHL1  H12A 4764   2.487   2.221   5.838 -0.2545  1.3590  1.6109
   49CHL1  H12B 4765   2.677   2.221   5.831  0.5649  1.5447 -1.6523
   49CHL1   C11 4766   2.583   2.319   6.001  0.2439 -0.1762  0.5237
   49CHL1  H11A 4767   2.488   2.373   6.020  0.7352 -0.5546  5.4665
   49CHL1  H11B 4768   2.579   2.229   6.065  3.0361 -1.0908 -0.4476
   49CHL1    C9 4769   2.702   2.412   6.040  0.2542  0.0630 -0.1864
   49CHL1    H9 4770   2.793   2.348   6.026  0.0791 -0.2084 -0.0902
   49CHL1   C10 4771   2.706   2.448   6.198  0.7177  0.6818 -0.8653
   49CHL1   C19 4772   2.565   2.492   6.238  0.1894  0.0927  0.2577
   49CHL1  H19A 4773   2.552   2.526   6.343  2.4079 -1.6344  1.1789
   49CHL1  H19B 4774   2.523   2.574   6.177 -2.0389  0.7468  2.4868
   49CHL1  H19C 4775   2.495   2.407   6.224  0.9251 -0.1737 -2.1122
   49CHL1    C1 4776   2.757   2.320   6.274  0.1377 -0.1185 -0.7352
   49CHL1   H1A 4777   2.674   2.247   6.272  1.6145 -1.8867 -1.0707
   49CHL1   H1B 4778   2.840   2.265   6.224  1.1959 -0.5258  1.3565
   49CHL1    C2 4779   2.786   2.341   6.423  0.2695  0.6628  0.4473
   49CHL1   H2A 4780   2.822   2.251   6.476 -2.3040  1.0171  3.0517
   49CHL1   H2B 4781   2.688   2.370   6.467  0.2503  2.1260 -0.5047
   49CHL1   C20 4782   2.509   2.313   5.514 -0.2776  0.2061 -0.9410
   49CHL1   H20 4783   2.447   2.405   5.501  0.7575  0.8469 -1.5258
   49CHL1   C21 4784   2.428   2.193   5.566  0.1072 -1.2329 -0.5242
   49CHL1  H21A 4785   2.383   2.223   5.663  0.5813  2.6800 -1.3150
   49CHL1  H21B 4786   2.485   2.099   5.579 -1.1209 -1.6470  2.8507
   49CHL1  H21C 4787   2.342   2.171   5.499 -0.1231 -0.6176 -0.4402
   49CHL1   C22 4788   2.560   2.288   5.371 -0.8579 -0.6271 -0.6208
   49CHL1  H22A 4789   2.610   2.383   5.341  2.0299 -2.2005 -1.1345
   49CHL1  H22B 4790   2.648   2.221   5.376  2.6193  3.5109  0.2284
   49CHL1   C23 4791   2.465   2.247   5.256 -0.5886 -0.1995  0.4521
   49CHL1  H23A 4792   2.524   2.260   5.163  0.5190  0.4905  1.2328
   49CHL1  H23B 4793   2.443   2.141   5.282 -0.5255 -0.5502 -0.8198
   49CHL1   C24 4794   2.338   2.333   5.259 -0.0343  0.4538  0.4847
   49CHL1  H24A 4795   2.271   2.316   5.346  2.4619 -0.6558  2.3288
   49CHL1  H24B 4796   2.373   2.439   5.266  1.5675 -0.0871  1.0469
   49CHL1   C25 4797   2.257   2.310   5.127  0.3623  0.4289  0.3607
   49CHL1   H25 4798   2.178   2.388   5.128  0.3064  0.3929 -0.7353
   49CHL1   C26 4799   2.335   2.337   5.000  0.1430 -0.7328  0.0700
   49CHL1  H26A 4800   2.416   2.263   4.982  0.8588  0.0247  0.0898
   49CHL1  H26B 4801   2.277   2.341   4.905  1.8157  1.5973 -0.9689
   49CHL1  H26C 4802   2.379   2.439   4.995  0.1148 -0.7777 -2.1778
   49CHL1   C27 4803   2.183   2.182   5.127  0.0878  0.1159  0.3023
   49CHL1  H27A 4804   2.106   2.172   5.048  1.4276 -1.4088 -0.8862
   49CHL1  H27B 4805   2.257   2.099   5.122 -1.5041 -1.3207 -0.8945
   49CHL1  H27C 4806   2.124   2.158   5.218 -2.3849  2.2626 -0.6012
   50CHL1    C3 4807   3.710   6.135   3.470  0.3019 -0.2916  0.7310
   50CHL1    H3 4808   3.721   6.025   3.469 -0.6141 -0.4066  1.3933
   50CHL1    O3 4809   3.726   6.181   3.339 -0.2985  0.0641  0.0671
   50CHL1   H3' 4810   3.693   6.271   3.342  1.5243  0.8864 -2.1526
   50CHL1    C4 4811   3.568   6.169   3.528 -0.0056  0.2059 -0.0852
   50CHL1   H4A 4812   3.559   6.279   3.519  0.4566  0.3555  1.1173
   50CHL1   H4B 4813   3.491   6.117   3.467 -0.3355  1.9445 -1.2126
   50CHL1    C5 4814   3.559   6.128   3.672 -0.7266 -0.2308  0.9221
   50CHL1    C6 4815   3.464   6.043   3.719 -0.2993  0.2263 -0.0235
   50CHL1    H6 4816   3.396   5.997   3.646  1.7528  0.3405 -2.1135
   50CHL1    C7 4817   3.444   6.006   3.868  0.4457 -0.0860 -0.3149
   50CHL1   H7A 4818   3.336   6.017   3.891  0.2610 -1.4216 -0.4756
   50CHL1   H7B 4819   3.469   5.899   3.885 -0.0692 -0.2940 -0.8091
   50CHL1    C8 4820   3.525   6.099   3.963 -0.0242 -0.3753 -0.4037
   50CHL1    H8 4821   3.478   6.200   3.968  0.3480 -0.2720  1.4264
   50CHL1   C14 4822   3.525   6.045   4.100 -0.1838  0.8959  0.7197
   50CHL1   H14 4823   3.553   5.937   4.096  0.5958  1.1294 -0.4079
   50CHL1   C15 4824   3.384   6.010   4.158 -0.3035  0.3520 -0.4170
   50CHL1  H15A 4825   3.312   6.094   4.144 -0.5538  0.5173  1.6184
   50CHL1  H15B 4826   3.341   5.917   4.115  0.4726 -0.0431 -0.3499
   50CHL1   C16 4827   3.413   6.008   4.307  0.2652  0.6572  0.2640
   50CHL1  H16A 4828   3.351   6.087   4.356  0.9884  0.5285  1.4373
   50CHL1  H16B 4829   3.379   5.914   4.354 -0.5890  1.5047  1.3958
   50CHL1   C17 4830   3.566   6.043   4.328 -0.2038 -0.2309 -0.3416
   50CHL1   H17 4831   3.618   5.945   4.321 -2.9830 -1.9534  1.2988
   50CHL1   C13 4832   3.600   6.124   4.207 -0.6239  0.4331  0.1130
   50CHL1   C18 4833   3.552   6.267   4.227 -0.2298  0.2496 -0.5631
   50CHL1  H18A 4834   3.606   6.323   4.307 -0.7287  1.2496 -0.9101
   50CHL1  H18B 4835   3.558   6.335   4.140  1.4947  2.1984  0.9885
   50CHL1  H18C 4836   3.447   6.273   4.264 -0.3032 -0.8058 -0.5570
   50CHL1   C12 4837   3.743   6.121   4.156 -0.0051  0.4373 -0.3173
   50CHL1  H12A 4838   3.822   6.182   4.206 -0.0005  0.3501 -0.2163
   50CHL1  H12B 4839   3.767   6.013   4.149 -0.7482  0.0300  2.2166
   50CHL1   C11 4840   3.748   6.190   4.016 -0.4453  0.0200  0.5207
   50CHL1  H11A 4841   3.735   6.300   4.026  3.7345  0.7076  0.4483
   50CHL1  H11B 4842   3.854   6.182   3.984 -0.7861 -1.8669 -0.3224
   50CHL1    C9 4843   3.663   6.121   3.908  0.2030 -0.4420  0.2676
   50CHL1    H9 4844   3.710   6.021   3.897 -1.3677 -1.2047  0.3140
   50CHL1   C10 4845   3.666   6.189   3.764  0.8547 -0.7990  0.7092
   50CHL1   C19 4846   3.639   6.344   3.771  0.1082  0.1771 -0.2215
   50CHL1  H19A 4847   3.644   6.402   3.676 -0.8931 -0.7124 -0.8469
   50CHL1  H19B 4848   3.535   6.358   3.806  0.0178  1.7981 -1.0621
   50CHL1  H19C 4849   3.703   6.395   3.846  1.5235 -1.5134 -0.2172
   50CHL1    C1 4850   3.807   6.162   3.703  0.3543 -0.1678  0.8355
   50CHL1   H1A 4851   3.886   6.207   3.767 -0.3539  2.4669 -0.0288
   50CHL1   H1B 4852   3.820   6.052   3.704  1.0104 -0.1011  2.4938
   50CHL1    C2 4853   3.825   6.193   3.557 -0.3506 -0.1761  0.9234
   50CHL1   H2A 4854   3.916   6.157   3.504 -1.0128  1.6791 -1.6643
   50CHL1   H2B 4855   3.829   6.304   3.553  3.6698 -0.1917 -1.3978
   50CHL1   C20 4856   3.587   6.101   4.472 -0.0652  0.7464  0.5367
   50CHL1   H20 4857   3.513   6.182   4.488 -0.2603  0.3874  1.5316
   50CHL1   C21 4858   3.732   6.158   4.495  1.1446  0.1008 -0.4828
   50CHL1  H21A 4859   3.731   6.225   4.584  0.1401 -0.9032  0.2918
   50CHL1  H21B 4860   3.770   6.224   4.415  0.8583 -1.7537 -2.2211
   50CHL1  H21C 4861   3.816   6.086   4.506  1.8660  0.9458 -0.3073
   50CHL1   C22 4862   3.555   5.996   4.582  0.5425  0.3055  0.5319
   50CHL1  H22A 4863   3.457   5.950   4.557  0.6681  0.3427 -0.0525
   50CHL1  H22B 4864   3.633   5.918   4.567 -0.1145  0.0331 -2.0424
   50CHL1   C23 4865   3.556   6.061   4.727  0.3860  0.2032  0.6291
   50CHL1  H23A 4866   3.653   6.110   4.750 -0.8060  2.0432  2.1060
   50CHL1  H23B 4867   3.479   6.142   4.729 -0.3617 -0.4471  3.3565
   50CHL1   C24 4868   3.530   5.959   4.834  0.3816  0.0956 -0.3158
   50CHL1  H24A 4869   3.431   5.914   4.812 -0.5941  1.4337  1.0378
   50CHL1  H24B 4870   3.611   5.885   4.825  1.1022  1.0229 -1.9052
   50CHL1   C25 4871   3.527   6.013   4.976  0.6943  0.5684 -1.2950
   50CHL1   H25 4872   3.623   6.064   4.995  1.1180 -0.8930  0.9146
   50CHL1   C26 4873   3.402   6.109   4.990 -0.7923 -0.0393 -0.4589
   50CHL1  H26A 4874   3.411   6.202   4.929  0.4458  0.4376  0.4146
   50CHL1  H26B 4875   3.306   6.056   4.977 -1.8553  1.1361  1.9816
   50CHL1  H26C 4876   3.398   6.140   5.096 -1.4878 -0.2327 -0.4231
   50CHL1   C27 4877   3.512   5.883   5.070  0.0697  0.3533  1.0654
   50CHL1  H27A 4878   3.412   5.838   5.056  0.9466 -2.3961  2.9089
   50CHL1  H27B 4879   3.597   5.814   5.051 -1.1347 -0.5792 -1.2413
   50CHL1  H27C 4880   3.502   5.932   5.170  0.7659 -0.2990  1.4683
   51CHL1    C3 4881   2.041   1.659   3.040  0.1135  0.2813 -0.7307
   51CHL1    H3 4882   1.931   1.664   3.054  0.2969 -1.2918  1.9179
   51CHL1    O3 4883   2.056   1.697   2.901  0.7293 -0.4887  0.5024
   51CHL1   H3' 4884   1.981   1.672   2.847 -0.8744  2.2119  1.2522
   51CHL1    C4 4885   2.122   1.760   3.127  0.4648  0.2291  0.7836
   51CHL1   H4A 4886   2.221   1.763   3.078 -0.8591 -0.8261 -2.1531
   51CHL1   H4B 4887   2.066   1.856   3.118  1.6222  0.7881 -0.8068
   51CHL1    C5 4888   2.150   1.716   3.274  0.2339 -0.1532  0.5496
   51CHL1    C6 4889   2.129   1.797   3.375  0.0025 -0.5439 -1.7677
   51CHL1    H6 4890   2.105   1.902   3.356  1.5518  0.1751 -0.0359
   51CHL1    C7 4891   2.160   1.761   3.515 -0.6555  0.1718 -0.0396
   51CHL1   H7A 4892   2.232   1.830   3.564  0.9475 -0.5095 -1.3550
   51CHL1   H7B 4893   2.073   1.759   3.584  0.1800  2.0959  1.1674
   51CHL1    C8 4894   2.243   1.623   3.538 -0.0980 -0.3343 -0.5874
   51CHL1    H8 4895   2.351   1.635   3.517  0.0956 -0.8194  0.0642
   51CHL1   C14 4896   2.216   1.572   3.686  0.6600  0.3673  0.3933
   51CHL1   H14 4897   2.107   1.551   3.689  0.9481 -1.0986  1.7986
   51CHL1   C15 4898   2.241   1.664   3.806 -0.2438 -0.0770  0.3118
   51CHL1  H15A 4899   2.343   1.707   3.798  0.3215 -1.2443  1.0697
   51CHL1  H15B 4900   2.157   1.737   3.809 -1.3267 -1.1407 -1.8548
   51CHL1   C16 4901   2.243   1.572   3.925 -0.8255 -0.0408  0.4260
   51CHL1  H16A 4902   2.320   1.596   4.001 -2.0079 -1.5321  2.1792
   51CHL1  H16B 4903   2.143   1.592   3.971 -1.4462  1.1634 -1.3267
   51CHL1   C17 4904   2.243   1.424   3.868  0.0799 -0.7514  0.3383
   51CHL1   H17 4905   2.138   1.389   3.862  0.2050 -0.8646 -2.1188
   51CHL1   C13 4906   2.281   1.439   3.720  0.7290  0.2161 -0.4552
   51CHL1   C18 4907   2.432   1.459   3.717 -0.0332 -0.4497  0.1405
   51CHL1  H18A 4908   2.468   1.508   3.624 -0.5631 -2.1497 -1.0025
   51CHL1  H18B 4909   2.469   1.521   3.802 -0.2004  0.9907 -0.8189
   51CHL1  H18C 4910   2.487   1.364   3.736  0.9382  0.0487 -0.1481
   51CHL1   C12 4911   2.230   1.339   3.618  0.4041 -0.3205  0.3629
   51CHL1  H12A 4912   2.286   1.243   3.618 -1.0938 -1.2692 -1.1908
   51CHL1  H12B 4913   2.123   1.308   3.622 -0.0357  0.6878 -1.7722
   51CHL1   C11 4914   2.251   1.384   3.472  1.0899  0.6344  0.7894
   51CHL1  H11A 4915   2.360   1.382   3.453  1.2753 -1.4965  1.8224
   51CHL1  H11B 4916   2.204   1.308   3.407  0.2626  2.3689 -0.7333
   51CHL1    C9 4917   2.191   1.517   3.440  0.1075 -0.5540 -0.1203
   51CHL1    H9 4918   2.084   1.505   3.470  0.0365 -3.7095 -1.2585
   51CHL1   C10 4919   2.189   1.559   3.290 -0.2257 -0.2193 -0.2740
   51CHL1   C19 4920   2.338   1.565   3.242 -0.0823 -0.6172  0.0831
   51CHL1  H19A 4921   2.346   1.612   3.142  1.2238  0.1721  0.5421
   51CHL1  H19B 4922   2.400   1.623   3.312 -3.2454  2.8268  0.3508
   51CHL1  H19C 4923   2.379   1.462   3.239 -2.8623 -1.8224  0.3335
   51CHL1    C1 4924   2.099   1.468   3.201  0.6758 -0.2082  0.8938
   51CHL1   H1A 4925   2.118   1.359   3.206  0.1522 -0.4121 -0.9469
   51CHL1   H1B 4926   1.996   1.485   3.239  0.2314 -1.1533  0.1422
   51CHL1    C2 4927   2.088   1.513   3.056  0.0803 -0.1033 -0.7127
   51CHL1   H2A 4928   2.025   1.442   2.998 -0.1277 -1.2041  0.7811
   51CHL1   H2B 4929   2.193   1.504   3.019  0.2550 -0.2514 -0.1885
   51CHL1   C20 4930   2.321   1.326   3.948  0.6934 -0.2194  0.2906
   51CHL1   H20 4931   2.427   1.361   3.950  0.3122  1.0519 -0.8803
   51CHL1   C21 4932   2.317   1.183   3.884  0.3973 -0.2695 -0.5487
   51CHL1  H21A 4933   2.356   1.108   3.956 -0.3218  0.0083  0.1467
   51CHL1  H21B 4934   2.385   1.183   3.797 -1.0552  0.1725 -1.7359
   51CHL1  H21C 4935   2.210   1.168   3.857  0.6176  3.1612 -4.1573
   51CHL1   C22 4936   2.270   1.326   4.098 -0.5156 -0.2896  0.5285
   51CHL1  H22A 4937   2.242   1.427   4.134  2.0660  1.4318 -1.8441
   51CHL1  H22B 4938   2.183   1.259   4.113  0.0605 -2.0977 -2.9901
   51CHL1   C23 4939   2.385   1.279   4.193  0.1707 -1.3586 -0.5465
   51CHL1  H23A 4940   2.418   1.182   4.149  0.6335 -0.6271 -1.8944
   51CHL1  H23B 4941   2.471   1.350   4.195 -1.8438  1.2235  2.0205
   51CHL1   C24 4942   2.323   1.263   4.332 -0.0376 -0.4523 -0.3587
   51CHL1  H24A 4943   2.313   1.366   4.373 -0.0147  0.1677 -1.8537
   51CHL1  H24B 4944   2.219   1.226   4.329 -0.2453  0.1483 -0.5609
   51CHL1   C25 4945   2.412   1.185   4.424 -0.6695 -0.1861 -0.1056
   51CHL1   H25 4946   2.439   1.090   4.374 -0.7169 -0.8403  1.0794
   51CHL1   C26 4947   2.543   1.261   4.469  0.4913 -0.2984 -0.1036
   51CHL1  H26A 4948   2.615   1.272   4.385  0.0169 -2.6215 -0.8987
   51CHL1  H26B 4949   2.516   1.359   4.514  1.7765  0.2602 -0.4972
   51CHL1  H26C 4950   2.592   1.205   4.551 -2.5308 -0.4842  1.7387
   51CHL1   C27 4951   2.338   1.152   4.554  0.1985  0.1115  0.0148
   51CHL1  H27A 4952   2.399   1.103   4.633 -2.2853 -2.9144  0.2234
   51CHL1  H27B 4953   2.300   1.242   4.607 -1.0628 -0.5333  0.2278
   51CHL1  H27C 4954   2.253   1.084   4.534 -1.7086  1.8804  1.6739
   52CHL1    C3 4955   0.042   2.479   3.692  0.3079 -0.6808 -0.1808
   52CHL1    H3 4956   0.119   2.556   3.668  0.9268 -1.1285  0.3301
   52CHL1    O3 4957  -0.005   2.412   3.581  0.5337  0.5477  0.3367
   52CHL1   H3' 4958  -0.034   2.484   3.525 -0.0868  0.5532  0.6486
   52CHL1    C4 4959   0.104   2.375   3.787  0.6495 -0.3259  0.7072
   52CHL1   H4A 4960   0.030   2.292   3.795  1.7139 -1.1646  2.5151
   52CHL1   H4B 4961   0.198   2.343   3.738 -0.5659  1.8859 -3.5296
   52CHL1    C5 4962   0.124   2.415   3.928 -0.2672  0.0100  0.0514
   52CHL1    C6 4963   0.255   2.410   3.973  0.1903  0.8092 -0.5261
   52CHL1    H6 4964   0.323   2.355   3.907 -0.3018 -1.9476  1.0683
   52CHL1    C7 4965   0.291   2.437   4.120 -0.9204 -0.0387  0.2368
   52CHL1   H7A 4966   0.370   2.363   4.143 -1.5530 -1.2249 -1.2699
   52CHL1   H7B 4967   0.338   2.538   4.118 -0.7629 -0.1176 -1.0356
   52CHL1    C8 4968   0.163   2.439   4.210  0.4727  0.1470 -0.3217
   52CHL1    H8 4969   0.123   2.335   4.211  0.5294  0.0828 -2.0093
   52CHL1   C14 4970   0.189   2.498   4.350  0.1204  0.6571  0.2359
   52CHL1   H14 4971   0.238   2.597   4.337  1.9136 -0.2691 -0.3538
   52CHL1   C15 4972   0.293   2.420   4.433 -0.6014 -0.0714 -0.7643
   52CHL1  H15A 4973   0.270   2.312   4.421 -2.3074 -0.0263  1.4841
   52CHL1  H15B 4974   0.387   2.445   4.378 -0.2750 -1.0201 -0.6513
   52CHL1   C16 4975   0.283   2.467   4.572  0.6615  0.4379 -0.0715
   52CHL1  H16A 4976   0.278   2.376   4.635 -2.9515 -0.9004 -1.9757
   52CHL1  H16B 4977   0.375   2.521   4.604  0.2232  1.4002 -0.4143
   52CHL1   C17 4978   0.153   2.548   4.572 -0.3709  0.1140 -0.4954
   52CHL1   H17 4979   0.182   2.652   4.546  1.3704 -0.5719 -1.4859
   52CHL1   C13 4980   0.073   2.513   4.443 -0.0235  0.6618 -0.9486
   52CHL1   C18 4981  -0.002   2.380   4.471  1.0141  0.7194  0.1933
   52CHL1  H18A 4982   0.070   2.315   4.524  0.4158  1.6210  2.2233
   52CHL1  H18B 4983  -0.092   2.385   4.535 -1.0083  0.4571 -2.4675
   52CHL1  H18C 4984  -0.035   2.328   4.379  1.2306 -2.5323  1.8003
   52CHL1   C12 4985  -0.019   2.621   4.392 -0.2898 -0.2424  0.1758
   52CHL1  H12A 4986  -0.107   2.624   4.460 -0.8144 -2.9194 -0.2692
   52CHL1  H12B 4987   0.025   2.720   4.370 -0.0195 -0.8082 -2.0968
   52CHL1   C11 4988  -0.068   2.575   4.248 -0.5576  1.0624  0.4905
   52CHL1  H11A 4989  -0.144   2.495   4.264 -1.3391  1.7124  0.0584
   52CHL1  H11B 4990  -0.127   2.657   4.203  0.1723  0.9163 -0.7909
   52CHL1    C9 4991   0.052   2.530   4.150 -0.3319 -0.8406 -0.0155
   52CHL1    H9 4992   0.114   2.621   4.130  0.8985 -1.1943  1.8331
   52CHL1   C10 4993   0.012   2.483   4.002 -0.5354 -0.1076  0.0809
   52CHL1   C19 4994  -0.097   2.367   4.023  0.3113  0.4777  0.2035
   52CHL1  H19A 4995  -0.069   2.285   4.092 -1.6693 -0.0766  0.4149
   52CHL1  H19B 4996  -0.184   2.413   4.076 -1.0616 -1.2534 -0.4341
   52CHL1  H19C 4997  -0.127   2.323   3.925  2.0821  0.9398 -0.5873
   52CHL1    C1 4998  -0.052   2.592   3.908 -0.2393 -0.2890  0.3696
   52CHL1   H1A 4999  -0.140   2.629   3.964 -2.5644 -1.4958 -2.2674
   52CHL1   H1B 5000   0.012   2.683   3.901  0.0746 -0.6272 -2.1396
   52CHL1    C2 5001  -0.078   2.543   3.763  0.9706  0.2916  0.0143
   52CHL1   H2A 5002  -0.123   2.623   3.699 -2.0317 -0.4217  1.0640
   52CHL1   H2B 5003  -0.157   2.467   3.782  0.4623  1.0138  0.9331
   52CHL1   C20 5004   0.078   2.577   4.708  0.1360 -0.6302 -0.6019
   52CHL1   H20 5005  -0.013   2.636   4.682  0.8716  1.1231  0.5856
   52CHL1   C21 5006   0.158   2.675   4.793 -0.3262 -0.2603 -0.4346
   52CHL1  H21A 5007   0.255   2.626   4.819 -0.2499 -0.2712 -0.7428
   52CHL1  H21B 5008   0.109   2.694   4.891  1.0949  0.3570  0.1924
   52CHL1  H21C 5009   0.175   2.774   4.746  1.0047  0.1361  0.7909
   52CHL1   C22 5010   0.049   2.452   4.789 -0.1411  0.1615 -0.8949
   52CHL1  H22A 5011   0.008   2.362   4.739  0.2964 -0.2799 -0.4632
   52CHL1  H22B 5012   0.143   2.415   4.836 -0.9253 -1.5273 -0.5974
   52CHL1   C23 5013  -0.048   2.473   4.907  0.3359  0.0648  0.2483
   52CHL1  H23A 5014  -0.019   2.553   4.979 -0.1590 -0.4832  1.0668
   52CHL1  H23B 5015  -0.142   2.508   4.859  0.1785 -0.6258  0.0573
   52CHL1   C24 5016  -0.056   2.355   4.997  0.1514 -0.2164 -0.1330
   52CHL1  H24A 5017  -0.054   2.258   4.942 -0.6315 -1.2174  1.4900
   52CHL1  H24B 5018   0.033   2.359   5.063  1.3812  0.4286 -1.7689
   52CHL1   C25 5019  -0.179   2.349   5.088 -0.0551 -0.3829 -0.1179
   52CHL1   H25 5020  -0.263   2.329   5.018 -0.4998  0.5663  0.1223
   52CHL1   C26 5021  -0.179   2.230   5.186  0.4836 -0.1090  0.4142
   52CHL1  H26A 5022  -0.285   2.210   5.212 -0.0003 -0.9708 -2.0015
   52CHL1  H26B 5023  -0.144   2.137   5.138 -1.0256 -1.8963  2.5745
   52CHL1  H26C 5024  -0.115   2.251   5.274  0.7983  1.1767 -0.0931
   52CHL1   C27 5025  -0.208   2.480   5.161  0.4324 -0.4630  0.1393
   52CHL1  H27A 5026  -0.300   2.478   5.223 -0.1649 -0.5702 -0.7319
   52CHL1  H27B 5027  -0.121   2.490   5.230  0.4263 -2.5178  0.5125
   52CHL1  H27C 5028  -0.206   2.569   5.095  2.3465  0.2807  1.1015
   53CHL1    C3 5029   6.399   1.606   3.467 -0.5154 -0.0414  0.0096
   53CHL1    H3 5030   6.432   1.502   3.448  1.9935  0.3053  1.9124
   53CHL1    O3 5031   6.376   1.676   3.347  0.6804 -0.2331  0.1527
   53CHL1   H3' 5032   6.296   1.636   3.313  0.3482 -0.8743  1.6061
   53CHL1    C4 5033   6.269   1.611   3.557  0.1321 -0.1777  0.5058
   53CHL1   H4A 5034   6.217   1.709   3.561 -0.7681 -0.6656  3.6853
   53CHL1   H4B 5035   6.187   1.563   3.498 -0.5637 -0.2087  1.4787
   53CHL1    C5 5036   6.288   1.547   3.693 -0.1384  0.4297  0.9863
   53CHL1    C6 5037   6.209   1.448   3.737  0.3352  0.7925  0.2844
   53CHL1    H6 5038   6.121   1.426   3.675 -0.5418  1.0589  1.4053
   53CHL1    C7 5039   6.221   1.382   3.873  0.7666 -0.4596  0.3493
   53CHL1   H7A 5040   6.120   1.364   3.915 -0.5238  3.2328 -0.8566
   53CHL1   H7B 5041   6.264   1.279   3.866  0.6580 -0.4212 -1.0514
   53CHL1    C8 5042   6.319   1.463   3.964 -0.5946 -0.9530 -0.2820
   53CHL1    H8 5043   6.267   1.558   3.987  0.9084 -0.8195  3.0696
   53CHL1   C14 5044   6.344   1.390   4.091 -0.6744 -0.3335  0.4901
   53CHL1   H14 5045   6.385   1.293   4.057 -0.8707 -0.0081 -0.7356
   53CHL1   C15 5046   6.219   1.360   4.172  0.3004  0.0569  0.0047
   53CHL1  H15A 5047   6.164   1.454   4.194  0.9418  0.3309  0.4732
   53CHL1  H15B 5048   6.147   1.294   4.121 -1.6682  1.3035  1.0191
   53CHL1   C16 5049   6.277   1.300   4.298  0.3191  0.8128  0.0391
   53CHL1  H16A 5050   6.204   1.334   4.376  1.2969 -0.9596  1.8140
   53CHL1  H16B 5051   6.277   1.189   4.294 -1.5370  0.7460  0.6784
   53CHL1   C17 5052   6.421   1.354   4.305 -0.8072 -0.8695 -0.2592
   53CHL1   H17 5053   6.485   1.267   4.278  2.5064  1.0302  0.8686
   53CHL1   C13 5054   6.437   1.457   4.187 -0.3967  0.6037 -0.8250
   53CHL1   C18 5055   6.387   1.592   4.241  0.3724 -0.5428  0.7304
   53CHL1  H18A 5056   6.452   1.640   4.317 -0.1139  0.2172  0.6830
   53CHL1  H18B 5057   6.395   1.673   4.165 -0.7018  1.5664  2.7386
   53CHL1  H18C 5058   6.287   1.573   4.284  0.5219 -1.7881  0.5636
   53CHL1   C12 5059   6.579   1.466   4.115  0.7527  0.3424  0.1654
   53CHL1  H12A 5060   6.645   1.528   4.179 -0.8235  0.0253  2.2167
   53CHL1  H12B 5061   6.620   1.363   4.105  0.0419  0.1893 -1.3645
   53CHL1   C11 5062   6.565   1.542   3.982 -0.5698  0.3725 -0.2237
   53CHL1  H11A 5063   6.556   1.646   4.019 -0.0372 -0.3467  2.0817
   53CHL1  H11B 5064   6.662   1.539   3.928 -0.1338  1.8083  0.4182
   53CHL1    C9 5065   6.446   1.497   3.892  0.1572  0.4966  1.1108
   53CHL1    H9 5066   6.471   1.401   3.842 -3.2072  0.4021 -0.7187
   53CHL1   C10 5067   6.413   1.592   3.773  0.1164  0.1714  0.2945
   53CHL1   C19 5068   6.378   1.737   3.824  0.5013  0.0943  0.0291
   53CHL1  H19A 5069   6.468   1.799   3.840 -0.5300  2.2836 -1.9869
   53CHL1  H19B 5070   6.318   1.783   3.742 -1.4547  0.9935  1.8714
   53CHL1  H19C 5071   6.321   1.738   3.920  0.1233 -1.6824 -0.1407
   53CHL1    C1 5072   6.542   1.600   3.675 -0.3420  0.4662 -0.0598
   53CHL1   H1A 5073   6.620   1.656   3.731  0.6541 -0.1630 -0.7885
   53CHL1   H1B 5074   6.565   1.492   3.660  1.0464  0.7454 -0.0085
   53CHL1    C2 5075   6.514   1.673   3.547  0.8400  0.2692 -0.2115
   53CHL1   H2A 5076   6.604   1.669   3.483  0.3128 -1.9744 -0.8936
   53CHL1   H2B 5077   6.496   1.780   3.572  0.2364  0.1108  0.0650
   53CHL1   C20 5078   6.464   1.397   4.441  0.2000  0.1286 -0.0182
   53CHL1   H20 5079   6.399   1.483   4.469  0.3572  0.0823  0.4999
   53CHL1   C21 5080   6.617   1.428   4.435  0.0072 -0.5942 -1.3743
   53CHL1  H21A 5081   6.662   1.350   4.370 -0.7019 -1.6435 -0.6396
   53CHL1  H21B 5082   6.678   1.434   4.527 -3.2527  0.4525  0.8959
   53CHL1  H21C 5083   6.636   1.533   4.403  0.6318  0.2125  1.3937
   53CHL1   C22 5084   6.441   1.299   4.555 -0.4248  0.8842 -0.6433
   53CHL1  H22A 5085   6.338   1.258   4.562  0.2758 -0.7173  1.3759
   53CHL1  H22B 5086   6.511   1.213   4.549 -1.0148  0.4231 -0.9892
   53CHL1   C23 5087   6.461   1.359   4.694 -0.6950 -0.3732 -0.8042
   53CHL1  H23A 5088   6.465   1.272   4.762 -0.8549 -1.4613 -2.1312
   53CHL1  H23B 5089   6.554   1.418   4.708  0.2049 -2.1255  1.0809
   53CHL1   C24 5090   6.345   1.451   4.734 -1.1728  0.0629 -0.6096
   53CHL1  H24A 5091   6.316   1.523   4.655 -1.5438 -0.5196 -1.0125
   53CHL1  H24B 5092   6.261   1.383   4.762  0.7235 -1.8043  0.9134
   53CHL1   C25 5093   6.374   1.524   4.868 -1.3004  0.1124 -0.1908
   53CHL1   H25 5094   6.443   1.610   4.854  1.4867 -2.2478 -2.1167
   53CHL1   C26 5095   6.240   1.576   4.922 -0.5126 -0.5116 -0.6386
   53CHL1  H26A 5096   6.264   1.651   5.000  1.3589 -0.9952 -0.7026
   53CHL1  H26B 5097   6.200   1.634   4.836  0.2815  0.2464 -0.4987
   53CHL1  H26C 5098   6.172   1.497   4.961  1.0549 -1.4044  0.3812
   53CHL1   C27 5099   6.437   1.432   4.972  0.0884 -0.2052  0.1662
   53CHL1  H27A 5100   6.373   1.341   4.970 -0.1396 -0.0806  1.2244
   53CHL1  H27B 5101   6.540   1.402   4.946  0.7738  2.5238 -0.6395
   53CHL1  H27C 5102   6.445   1.472   5.076  1.0649 -2.1548  0.8920
   54CHL1    C3 5103   1.958   2.387   3.316 -0.3621 -0.1097  0.0825
   54CHL1    H3 5104   1.857   2.340   3.317 -0.2944 -0.3213  2.1880
   54CHL1    O3 5105   1.982   2.459   3.191 -0.1453  0.0479 -0.6131
   54CHL1   H3' 5106   1.992   2.385   3.131  0.7824 -0.3022 -0.0631
   54CHL1    C4 5107   1.978   2.484   3.424 -0.1370  0.6712 -0.3247
   54CHL1   H4A 5108   2.076   2.531   3.403  0.9315 -0.6977  1.3591
   54CHL1   H4B 5109   1.911   2.573   3.416  1.2943  1.7296 -1.2151
   54CHL1    C5 5110   1.973   2.422   3.563  0.1157 -0.4548 -0.3388
   54CHL1    C6 5111   1.884   2.470   3.653  0.5161  0.8755  0.0432
   54CHL1    H6 5112   1.810   2.546   3.625  0.0343 -0.5380 -2.9074
   54CHL1    C7 5113   1.882   2.421   3.793 -0.0514 -0.2417  0.9583
   54CHL1   H7A 5114   1.884   2.504   3.867 -1.3821 -0.5950  1.4133
   54CHL1   H7B 5115   1.782   2.379   3.815 -0.5769  1.4377  1.9487
   54CHL1    C8 5116   1.999   2.317   3.831 -0.0400  0.1046 -0.5783
   54CHL1    H8 5117   2.093   2.373   3.851 -0.9562  0.3198  4.0467
   54CHL1   C14 5118   1.950   2.236   3.946 -0.0390 -0.6646  0.4376
   54CHL1   H14 5119   1.863   2.173   3.916 -0.7383  1.4871 -2.4509
   54CHL1   C15 5120   1.896   2.322   4.075  0.3814 -0.0088 -0.2342
   54CHL1  H15A 5121   1.974   2.396   4.101  1.0445 -1.4624  2.2017
   54CHL1  H15B 5122   1.797   2.364   4.045  0.2111 -0.3314 -0.1346
   54CHL1   C16 5123   1.900   2.213   4.181 -0.4076 -0.3186 -0.1819
   54CHL1  H16A 5124   1.949   2.262   4.267  0.4893  2.0494 -1.9286
   54CHL1  H16B 5125   1.795   2.185   4.202  0.3268 -1.9469  1.6257
   54CHL1   C17 5126   1.976   2.086   4.120  0.2373  0.2256 -1.3611
   54CHL1   H17 5127   1.894   2.016   4.097  1.2106 -1.5108  0.1279
   54CHL1   C13 5128   2.048   2.141   3.997 -0.2569  0.1794  0.6556
   54CHL1   C18 5129   2.183   2.204   4.041  0.4942 -0.0407  0.4860
   54CHL1  H18A 5130   2.164   2.286   4.114 -2.9023 -0.7643  0.5825
   54CHL1  H18B 5131   2.250   2.137   4.100  0.9084  0.5922  0.7476
   54CHL1  H18C 5132   2.235   2.253   3.956 -0.8857  1.1677  0.3067
   54CHL1   C12 5133   2.077   2.030   3.883 -0.0699 -0.5246 -0.1667
   54CHL1  H12A 5134   2.156   1.955   3.899 -0.1701 -0.2271  2.1687
   54CHL1  H12B 5135   1.976   1.984   3.869 -0.3875  0.5362 -1.5837
   54CHL1   C11 5136   2.125   2.109   3.759  0.4402  0.1308  0.6825
   54CHL1  H11A 5137   2.231   2.135   3.782  0.1675 -0.9514  3.5993
   54CHL1  H11B 5138   2.129   2.041   3.671 -0.1744  2.2101 -1.0350
   54CHL1    C9 5139   2.029   2.225   3.715  0.6351 -0.2301 -0.5838
   54CHL1    H9 5140   1.934   2.170   3.700  0.1972  0.2807  0.2764
   54CHL1   C10 5141   2.069   2.304   3.582 -0.2206  0.3094 -0.1612
   54CHL1   C19 5142   2.210   2.360   3.585 -0.5620 -0.1309 -0.1610
   54CHL1  H19A 5143   2.241   2.407   3.489  0.7783 -0.4673  0.0901
   54CHL1  H19B 5144   2.226   2.436   3.664 -2.5722  0.3675 -0.1935
   54CHL1  H19C 5145   2.276   2.272   3.601  1.8242  1.3496 -1.1676
   54CHL1    C1 5146   2.060   2.207   3.470 -0.2265  0.3232  0.0246
   54CHL1   H1A 5147   2.126   2.117   3.469  1.0636  1.1719  1.9635
   54CHL1   H1B 5148   1.963   2.153   3.477  0.2404 -1.0519 -2.7179
   54CHL1    C2 5149   2.068   2.281   3.333  0.2942 -0.1194 -0.0670
   54CHL1   H2A 5150   2.035   2.212   3.252 -1.6875  0.7831 -0.0878
   54CHL1   H2B 5151   2.165   2.334   3.323  0.3807 -0.1014  0.7759
   54CHL1   C20 5152   2.052   2.013   4.239 -0.8184  0.7572 -0.8323
   54CHL1   H20 5153   2.135   2.081   4.268 -1.7498  1.6535 -0.2246
   54CHL1   C21 5154   2.120   1.891   4.171 -1.0320  0.0434 -0.0535
   54CHL1  H21A 5155   2.194   1.918   4.093  0.4176  2.2084  1.9514
   54CHL1  H21B 5156   2.041   1.824   4.130  0.6580 -2.2983  0.3518
   54CHL1  H21C 5157   2.168   1.828   4.249 -1.4552  0.6840  0.7408
   54CHL1   C22 5158   1.992   1.965   4.369 -0.6340  0.3076  1.0404
   54CHL1  H22A 5159   1.925   2.042   4.414 -2.6307 -1.1028  0.5988
   54CHL1  H22B 5160   1.932   1.872   4.363 -1.1826  0.7117 -0.1524
   54CHL1   C23 5161   2.091   1.943   4.487  0.2414  0.2774 -0.2082
   54CHL1  H23A 5162   2.035   1.929   4.582 -0.2184 -0.3635 -0.5688
   54CHL1  H23B 5163   2.146   1.850   4.462  0.0844 -0.4170  1.8761
   54CHL1   C24 5164   2.187   2.061   4.502 -0.2806  0.4150 -0.1808
   54CHL1  H24A 5165   2.251   2.068   4.411 -0.7725  3.3768 -0.3957
   54CHL1  H24B 5166   2.124   2.152   4.510  0.2829  0.7190  1.0765
   54CHL1   C25 5167   2.286   2.051   4.628 -0.7110  0.3987  0.0324
   54CHL1   H25 5168   2.350   1.963   4.606 -0.8614  0.0428  0.9900
   54CHL1   C26 5169   2.384   2.167   4.635 -0.6636 -0.4263 -0.2651
   54CHL1  H26A 5170   2.331   2.265   4.647  2.9437  1.4946  1.4284
   54CHL1  H26B 5171   2.445   2.161   4.727 -0.6833 -2.0635 -0.3387
   54CHL1  H26C 5172   2.457   2.183   4.553 -0.7484  0.4840 -0.1835
   54CHL1   C27 5173   2.212   2.028   4.761  0.1498  0.3126 -0.1675
   54CHL1  H27A 5174   2.281   2.037   4.848  1.2283 -2.0807 -0.6960
   54CHL1  H27B 5175   2.126   2.098   4.767  0.0440  0.1514  0.2338
   54CHL1  H27C 5176   2.172   1.925   4.763 -1.6077  0.9641  1.6568
   55CHL1    C3 5177   5.068   4.835   3.396 -0.8454 -0.5461 -0.0162
   55CHL1    H3 5178   4.968   4.878   3.417  0.2568  2.5165 -0.5044
   55CHL1    O3 5179   5.103   4.849   3.264  0.5280 -0.1408  0.0853
   55CHL1   H3' 5180   5.137   4.763   3.239  0.3922 -1.3448  3.5035
   55CHL1    C4 5181   5.169   4.918   3.482  0.8196  0.1921 -0.1196
   55CHL1   H4A 5182   5.269   4.875   3.459  0.2057 -1.7567  0.6985
   55CHL1   H4B 5183   5.174   5.027   3.460  2.5372 -0.1340 -1.5943
   55CHL1    C5 5184   5.145   4.892   3.629  0.4827  0.4539  0.0828
   55CHL1    C6 5185   5.129   4.996   3.705 -0.1254 -0.5620 -0.0727
   55CHL1    H6 5186   5.156   5.091   3.657  3.8565 -0.9627  1.0408
   55CHL1    C7 5187   5.106   4.995   3.855 -0.7673 -0.5879 -0.2621
   55CHL1   H7A 5188   5.177   5.067   3.901 -2.0346  0.8191 -0.4158
   55CHL1   H7B 5189   5.005   5.035   3.879 -1.1143 -2.0015  0.7467
   55CHL1    C8 5190   5.115   4.855   3.919 -0.1865 -0.0954  0.2296
   55CHL1    H8 5191   5.226   4.849   3.923 -0.1821 -1.0514 -0.8558
   55CHL1   C14 5192   5.036   4.852   4.049 -0.1419 -0.0993  0.8825
   55CHL1   H14 5193   4.927   4.853   4.028  0.2139 -2.2059 -1.4649
   55CHL1   C15 5194   5.061   4.966   4.152 -0.0884  1.1481 -0.4435
   55CHL1  H15A 5195   5.170   4.988   4.159  0.4690 -1.6734  1.5178
   55CHL1  H15B 5196   5.018   5.065   4.123 -1.5152  0.8288  0.4894
   55CHL1   C16 5197   5.011   4.893   4.282  0.4163 -0.4896  0.2741
   55CHL1  H16A 5198   5.080   4.918   4.366  0.5090 -0.3251  0.1485
   55CHL1  H16B 5199   4.907   4.923   4.308  0.5833  0.6362 -0.3349
   55CHL1   C17 5200   4.992   4.739   4.259  0.0486  0.0964 -0.5962
   55CHL1   H17 5201   4.884   4.728   4.233  0.0702 -0.4234 -0.4799
   55CHL1   C13 5202   5.064   4.715   4.122 -0.3098  0.0845  0.0679
   55CHL1   C18 5203   5.217   4.699   4.143  0.0325  0.1315 -0.3612
   55CHL1  H18A 5204   5.274   4.675   4.051  1.3323 -2.9977  1.0963
   55CHL1  H18B 5205   5.250   4.789   4.198  1.0903 -1.6339  2.0596
   55CHL1  H18C 5206   5.233   4.613   4.212  0.2331 -0.3491 -0.9928
   55CHL1   C12 5207   5.003   4.606   4.037 -0.3565  0.2598  0.0954
   55CHL1  H12A 5208   5.010   4.498   4.062 -0.7116  0.1557 -0.2526
   55CHL1  H12B 5209   4.894   4.627   4.031 -0.5746 -0.7456  0.3114
   55CHL1   C11 5210   5.070   4.605   3.887 -0.2065  0.1422 -0.9970
   55CHL1  H11A 5211   5.174   4.566   3.897 -0.9788 -1.8072 -0.0576
   55CHL1  H11B 5212   5.026   4.523   3.826  2.0757  0.2920 -2.9764
   55CHL1    C9 5213   5.063   4.749   3.818 -0.1836  0.8667  0.1291
   55CHL1    H9 5214   4.956   4.772   3.801  0.3189  2.2237 -1.4454
   55CHL1   C10 5215   5.132   4.746   3.683  0.0474 -1.0077  0.2546
   55CHL1   C19 5216   5.269   4.680   3.684 -0.3527 -0.3288  0.5812
   55CHL1  H19A 5217   5.256   4.571   3.703  0.9659 -0.4274  0.9624
   55CHL1  H19B 5218   5.314   4.674   3.582  1.4833  0.8260  1.2999
   55CHL1  H19C 5219   5.346   4.734   3.741  1.2020  1.0811 -2.6005
   55CHL1    C1 5220   5.043   4.674   3.582 -0.8942  0.5226 -0.4601
   55CHL1   H1A 5221   5.055   4.568   3.616 -2.5887  1.2009  2.7135
   55CHL1   H1B 5222   4.935   4.698   3.584 -1.0526  0.1290  3.1201
   55CHL1    C2 5223   5.077   4.692   3.431  0.2459 -0.8359 -0.5281
   55CHL1   H2A 5224   4.997   4.636   3.377 -0.5744 -2.0714  1.8027
   55CHL1   H2B 5225   5.179   4.663   3.398  0.6812  1.3090 -1.2373
   55CHL1   C20 5226   5.019   4.646   4.384 -0.8762  0.0980  0.6857
   55CHL1   H20 5227   5.125   4.646   4.419 -0.3468  2.7503 -0.6336
   55CHL1   C21 5228   4.982   4.500   4.343  0.0267 -0.2948 -0.0954
   55CHL1  H21A 5229   4.901   4.496   4.268 -2.8200 -0.2150  2.7889
   55CHL1  H21B 5230   4.963   4.439   4.433  1.1528  0.6168  0.8027
   55CHL1  H21C 5231   5.074   4.457   4.297  0.0977 -0.0379 -0.1968
   55CHL1   C22 5232   4.938   4.693   4.506 -0.2005  0.3188  0.2484
   55CHL1  H22A 5233   4.969   4.795   4.538 -1.6153  0.3276  1.6822
   55CHL1  H22B 5234   4.830   4.687   4.484 -0.4181  1.9366  0.7670
   55CHL1   C23 5235   4.976   4.615   4.636 -0.6640  0.0131  0.3660
   55CHL1  H23A 5236   4.968   4.509   4.605 -1.5544 -0.1674  1.1838
   55CHL1  H23B 5237   5.081   4.634   4.669 -1.8676  2.9665  2.9509
   55CHL1   C24 5238   4.887   4.640   4.752  0.6335 -0.3143  0.2612
   55CHL1  H24A 5239   4.887   4.743   4.794 -0.4471  0.3037 -1.1528
   55CHL1  H24B 5240   4.778   4.621   4.737  0.1858  0.1148  2.5210
   55CHL1   C25 5241   4.925   4.556   4.879 -0.3235  0.1431  0.1077
   55CHL1   H25 5242   4.958   4.454   4.850 -1.4718 -0.4809  0.9337
   55CHL1   C26 5243   5.050   4.611   4.956  0.2766  0.6817 -0.4704
   55CHL1  H26A 5244   5.062   4.528   5.030  0.1637 -0.8373 -2.0918
   55CHL1  H26B 5245   5.135   4.610   4.885  1.4545 -1.2225  0.8589
   55CHL1  H26C 5246   5.036   4.713   4.998 -2.3045  1.2281 -2.4492
   55CHL1   C27 5247   4.809   4.529   4.979  0.6391  0.7907  0.7440
   55CHL1  H27A 5248   4.829   4.444   5.049 -3.0788  0.7490  1.9698
   55CHL1  H27B 5249   4.778   4.616   5.040  4.2728  0.6657  3.0677
   55CHL1  H27C 5250   4.716   4.501   4.925  0.5592  0.9451  0.8018
   56CHL1    C3 5251   5.646   6.423   3.540 -0.4782  0.0424  0.3590
   56CHL1    H3 5252   5.666   6.314   3.551 -1.9060 -0.2335  0.3791
   56CHL1    O3 5253   5.647   6.468   3.404 -0.5706  0.1386 -0.2078
   56CHL1   H3' 5254   5.575   6.424   3.357  0.7807 -0.0615 -2.2155
   56CHL1    C4 5255   5.508   6.443   3.593 -0.3029 -0.4654 -0.3057
   56CHL1   H4A 5256   5.464   6.540   3.563  1.3015 -0.0169 -1.3186
   56CHL1   H4B 5257   5.449   6.364   3.541  0.1134 -1.5659  0.8214
   56CHL1    C5 5258   5.507   6.425   3.741 -0.7996 -0.0453 -0.4464
   56CHL1    C6 5259   5.446   6.320   3.794 -0.1993  0.2597  0.1147
   56CHL1    H6 5260   5.407   6.247   3.722  2.7122  1.2047 -2.6728
   56CHL1    C7 5261   5.433   6.299   3.946 -0.5080 -0.4035  0.8598
   56CHL1   H7A 5262   5.323   6.285   3.960 -0.9890  0.1333 -1.9050
   56CHL1   H7B 5263   5.496   6.215   3.981  0.5684 -0.7138 -1.6549
   56CHL1    C8 5264   5.476   6.427   4.026  0.1647 -0.3269  0.1522
   56CHL1    H8 5265   5.394   6.499   4.004 -0.3746 -1.2181 -0.8036
   56CHL1   C14 5266   5.481   6.392   4.178 -0.0993 -0.6777  0.1387
   56CHL1   H14 5267   5.568   6.323   4.180 -0.4829 -1.1525  0.4795
   56CHL1   C15 5268   5.361   6.325   4.239 -0.0850 -0.0764 -0.3144
   56CHL1  H15A 5269   5.277   6.389   4.204 -0.2049  1.4671  2.4524
   56CHL1  H15B 5270   5.354   6.215   4.224  0.7902 -0.2609  0.5384
   56CHL1   C16 5271   5.374   6.350   4.394 -0.4133 -0.5472 -0.2228
   56CHL1  H16A 5272   5.280   6.401   4.423  0.6398  0.9151  0.7390
   56CHL1  H16B 5273   5.389   6.257   4.453 -0.7223  0.2825  1.2044
   56CHL1   C17 5274   5.508   6.441   4.402  0.1043 -0.0582  0.9407
   56CHL1   H17 5275   5.588   6.364   4.408  1.9590  1.4498 -1.7993
   56CHL1   C13 5276   5.513   6.513   4.269  0.2484 -0.2285  0.8098
   56CHL1   C18 5277   5.417   6.628   4.245  0.7130 -0.2145 -0.5962
   56CHL1  H18A 5278   5.451   6.711   4.311  0.6519 -1.3323  0.8946
   56CHL1  H18B 5279   5.409   6.675   4.145  0.4454  0.8072 -0.1086
   56CHL1  H18C 5280   5.315   6.604   4.282  0.1777  2.3416 -0.2233
   56CHL1   C12 5281   5.656   6.562   4.223 -0.5601 -1.0369  0.5475
   56CHL1  H12A 5282   5.698   6.640   4.290  0.4304 -0.6953 -0.4388
   56CHL1  H12B 5283   5.734   6.484   4.238  1.4752  0.6139 -0.8985
   56CHL1   C11 5284   5.657   6.612   4.077  0.8265  0.0668  0.5872
   56CHL1  H11A 5285   5.602   6.708   4.068 -0.1884 -0.3061  2.4006
   56CHL1  H11B 5286   5.765   6.625   4.056  0.5490 -0.9328 -1.8361
   56CHL1    C9 5287   5.605   6.499   3.978  0.1325 -0.4410 -0.9398
   56CHL1    H9 5288   5.684   6.422   3.992 -1.0509 -1.6223 -0.5641
   56CHL1   C10 5289   5.597   6.526   3.824 -0.1365  0.1111 -0.0490
   56CHL1   C19 5290   5.535   6.664   3.801  0.8223 -0.8796 -0.6732
   56CHL1  H19A 5291   5.596   6.740   3.855  0.9085 -0.9568 -0.6615
   56CHL1  H19B 5292   5.535   6.693   3.694 -0.5095 -3.1037 -1.3433
   56CHL1  H19C 5293   5.431   6.681   3.835  0.3990  1.8033 -2.9899
   56CHL1    C1 5294   5.743   6.511   3.760 -0.0243  0.4270  0.0223
   56CHL1   H1A 5295   5.808   6.586   3.809  0.0749 -0.9137  2.0903
   56CHL1   H1B 5296   5.789   6.414   3.792  0.6416 -0.2623 -2.7688
   56CHL1    C2 5297   5.752   6.506   3.609  0.0676 -0.1918 -0.2370
   56CHL1   H2A 5298   5.858   6.493   3.578  0.3969  1.9637 -0.1185
   56CHL1   H2B 5299   5.730   6.612   3.583  0.2867 -0.6553 -2.5321
   56CHL1   C20 5300   5.513   6.521   4.524  0.8712 -1.1387  0.1457
   56CHL1   H20 5301   5.417   6.576   4.516  0.7880 -1.4482 -1.2029
   56CHL1   C21 5302   5.630   6.620   4.540 -0.4230 -0.3127  0.2861
   56CHL1  H21A 5303   5.728   6.569   4.547  0.4123  1.0566 -0.9446
   56CHL1  H21B 5304   5.624   6.678   4.635  1.4743 -0.2363  0.3833
   56CHL1  H21C 5305   5.628   6.695   4.458  0.7402 -2.4465 -1.8092
   56CHL1   C22 5306   5.511   6.446   4.656  0.1713  0.2570  0.0354
   56CHL1  H22A 5307   5.469   6.346   4.632  0.5752  0.0244  0.2797
   56CHL1  H22B 5308   5.610   6.426   4.702  0.1892  0.4356  0.0751
   56CHL1   C23 5309   5.410   6.516   4.749 -0.0381 -0.0837 -0.3685
   56CHL1  H23A 5310   5.444   6.622   4.752  0.2833 -0.2021  1.0138
   56CHL1  H23B 5311   5.311   6.517   4.699  0.9653 -0.1346 -2.4762
   56CHL1   C24 5312   5.419   6.456   4.888 -0.0388  0.0517 -0.0726
   56CHL1  H24A 5313   5.517   6.472   4.939 -0.5282  3.3176  0.0761
   56CHL1  H24B 5314   5.353   6.513   4.957  0.4003 -0.3044  0.6647
   56CHL1   C25 5315   5.381   6.310   4.905 -0.5529  0.2868  0.2983
   56CHL1   H25 5316   5.409   6.256   4.812 -0.3562  0.9669 -0.0414
   56CHL1   C26 5317   5.445   6.243   5.032 -0.2273  0.6641  0.1480
   56CHL1  H26A 5318   5.432   6.133   5.029 -1.9339  0.8595 -0.7687
   56CHL1  H26B 5319   5.555   6.259   5.036 -0.2847  1.1281  0.0079
   56CHL1  H26C 5320   5.399   6.284   5.124 -2.5980 -2.6557  0.6127
   56CHL1   C27 5321   5.226   6.287   4.923 -0.1764  0.0280 -0.0738
   56CHL1  H27A 5322   5.193   6.350   5.008  0.0016 -1.0805  0.8444
   56CHL1  H27B 5323   5.174   6.316   4.829 -0.4605 -1.9027 -0.5681
   56CHL1  H27C 5324   5.202   6.178   4.933 -1.8542  0.2894 -0.7793
   57CHL1    C3 5325   4.387   6.115   3.573  0.2997  0.0947 -0.1193
   57CHL1    H3 5326   4.279   6.128   3.594  0.5955 -1.3783  3.0077
   57CHL1    O3 5327   4.396   6.020   3.470  0.1061  0.5355  0.3039
   57CHL1   H3' 5328   4.489   5.996   3.469  1.2226  3.9366 -3.3838
   57CHL1    C4 5329   4.451   6.245   3.539  0.7708  0.2471 -0.2237
   57CHL1   H4A 5330   4.562   6.247   3.534  0.7871  1.7588  0.0901
   57CHL1   H4B 5331   4.408   6.282   3.443 -0.7470  0.0715  0.3585
   57CHL1    C5 5332   4.427   6.340   3.659 -0.6263 -0.1179 -0.3686
   57CHL1    C6 5333   4.364   6.454   3.648 -0.1111  0.2227 -0.4949
   57CHL1    H6 5334   4.335   6.491   3.548 -0.5773 -0.7831 -0.7498
   57CHL1    C7 5335   4.348   6.549   3.761  0.2903  0.1599  0.5667
   57CHL1   H7A 5336   4.342   6.651   3.719  1.4005  0.8780  2.0667
   57CHL1   H7B 5337   4.252   6.535   3.814  1.3545 -0.2291  2.5191
   57CHL1    C8 5338   4.449   6.530   3.871 -0.3514  0.4328  1.3756
   57CHL1    H8 5339   4.550   6.560   3.838  0.2677 -2.7991 -0.0764
   57CHL1   C14 5340   4.413   6.610   3.988 -0.4832  0.1907  0.1272
   57CHL1   H14 5341   4.317   6.565   4.022  1.3522 -2.1679  2.6323
   57CHL1   C15 5342   4.391   6.761   3.969 -0.8849 -0.4026 -0.3211
   57CHL1  H15A 5343   4.466   6.807   3.901  0.9472 -2.0498  0.4772
   57CHL1  H15B 5344   4.290   6.776   3.926 -0.1886  2.0734 -1.2564
   57CHL1   C16 5345   4.403   6.820   4.109 -0.4795 -0.0409  0.3058
   57CHL1  H16A 5346   4.468   6.910   4.110 -3.0141  1.9032  1.3614
   57CHL1  H16B 5347   4.314   6.864   4.159 -0.4570 -2.2769  2.5127
   57CHL1   C17 5348   4.440   6.707   4.209 -0.2963 -0.3015 -1.0911
   57CHL1   H17 5349   4.349   6.660   4.252  0.4145 -0.3527  0.4065
   57CHL1   C13 5350   4.504   6.589   4.118 -0.1619 -0.2469 -0.3325
   57CHL1   C18 5351   4.652   6.628   4.086 -0.3926 -0.3218 -0.3343
   57CHL1  H18A 5352   4.715   6.632   4.178  1.4443 -0.0247 -1.5653
   57CHL1  H18B 5353   4.688   6.553   4.012 -1.1109 -1.5363  0.5003
   57CHL1  H18C 5354   4.648   6.729   4.042 -0.1973 -0.6210 -1.0498
   57CHL1   C12 5355   4.491   6.445   4.157 -0.1915 -0.4347 -0.4325
   57CHL1  H12A 5356   4.560   6.421   4.241  0.0203  2.2400  0.2575
   57CHL1  H12B 5357   4.387   6.438   4.198  0.0795  0.6952  0.4975
   57CHL1   C11 5358   4.519   6.345   4.051  0.6069  0.2620  0.7029
   57CHL1  H11A 5359   4.630   6.350   4.051  0.7270 -1.1421 -1.3782
   57CHL1  H11B 5360   4.500   6.238   4.075  2.8145 -0.6003 -1.1076
   57CHL1    C9 5361   4.454   6.381   3.911 -0.2059  1.1674  0.1471
   57CHL1    H9 5362   4.347   6.353   3.926 -0.0253 -1.6553 -2.7225
   57CHL1   C10 5363   4.492   6.295   3.796 -0.1042 -0.5036  0.3733
   57CHL1   C19 5364   4.637   6.319   3.773 -0.6774 -0.2134 -0.3920
   57CHL1  H19A 5365   4.654   6.419   3.729  0.0737  0.3020  0.9947
   57CHL1  H19B 5366   4.691   6.324   3.870 -0.5611  1.8013 -0.5268
   57CHL1  H19C 5367   4.684   6.235   3.717  2.0539  0.2997  0.9846
   57CHL1    C1 5368   4.464   6.144   3.816 -0.4911 -0.1637  0.1740
   57CHL1   H1A 5369   4.535   6.114   3.895  0.0359  0.9195  0.1269
   57CHL1   H1B 5370   4.360   6.144   3.857 -1.2813  1.3998 -1.6504
   57CHL1    C2 5371   4.462   6.053   3.691 -0.3765 -0.6972  0.3499
   57CHL1   H2A 5372   4.433   5.947   3.711  1.1060 -0.7312  2.6535
   57CHL1   H2B 5373   4.561   6.041   3.642 -0.9824 -3.0957 -0.4277
   57CHL1   C20 5374   4.517   6.753   4.330 -0.2878  0.2403 -0.6281
   57CHL1   H20 5375   4.623   6.781   4.311  0.3150 -1.4659  0.0247
   57CHL1   C21 5376   4.531   6.628   4.423 -0.2377 -1.1906  0.1747
   57CHL1  H21A 5377   4.581   6.668   4.513  0.9678 -2.0596 -0.0904
   57CHL1  H21B 5378   4.604   6.561   4.372 -1.1581 -0.9235 -1.5654
   57CHL1  H21C 5379   4.436   6.579   4.452 -1.4453  0.0264 -1.5199
   57CHL1   C22 5380   4.462   6.872   4.412 -0.0266 -0.2154 -0.2997
   57CHL1  H22A 5381   4.521   6.870   4.506 -0.0082 -3.3237 -0.2910
   57CHL1  H22B 5382   4.481   6.974   4.372 -2.7344  0.8071  0.7802
   57CHL1   C23 5383   4.312   6.863   4.453  0.0009  0.8962  0.0197
   57CHL1  H23A 5384   4.243   6.891   4.371  1.7764  0.0554 -1.8157
   57CHL1  H23B 5385   4.302   6.755   4.480  3.0072  0.9025  1.5713
   57CHL1   C24 5386   4.291   6.938   4.588 -0.5478 -0.0761 -0.0395
   57CHL1  H24A 5387   4.364   6.893   4.659 -0.3481 -0.2419 -0.3515
   57CHL1  H24B 5388   4.329   7.042   4.575  1.5664 -0.8675 -0.6015
   57CHL1   C25 5389   4.150   6.919   4.632 -0.3151 -0.2528 -0.5485
   57CHL1   H25 5390   4.084   6.953   4.549 -1.7355 -2.1198 -0.2266
   57CHL1   C26 5391   4.116   6.772   4.664  0.2607  0.4843 -0.4041
   57CHL1  H26A 5392   4.173   6.732   4.751 -1.1140 -0.1882  0.2111
   57CHL1  H26B 5393   4.014   6.769   4.707  1.0889  1.1320  1.7186
   57CHL1  H26C 5394   4.121   6.720   4.566 -1.6669  3.4664 -2.2829
   57CHL1   C27 5395   4.122   6.995   4.758  0.0868 -0.0006  0.1176
   57CHL1  H27A 5396   4.129   7.105   4.752 -2.1017  0.1524 -0.7337
   57CHL1  H27B 5397   4.030   6.965   4.814 -0.1026  1.2199  0.4891
   57CHL1  H27C 5398   4.207   6.973   4.825 -0.0143  0.4184  0.3822
   58CHL1    C3 5399   3.878   4.673   3.307  0.2147  0.3074 -0.2058
   58CHL1    H3 5400   3.860   4.564   3.307 -1.3905  0.5448 -1.4316
   58CHL1    O3 5401   3.865   4.734   3.181 -0.4699  0.0819  0.1031
   58CHL1   H3' 5402   3.859   4.826   3.211  1.0141 -0.4813  2.4093
   58CHL1    C4 5403   3.781   4.749   3.401  0.0318 -1.1565  0.0310
   58CHL1   H4A 5404   3.818   4.853   3.396  1.5425 -1.6783 -0.2355
   58CHL1   H4B 5405   3.679   4.737   3.358  0.1877  1.2203 -1.1609
   58CHL1    C5 5406   3.786   4.691   3.539 -0.4625 -0.1204  1.1381
   58CHL1    C6 5407   3.673   4.647   3.598  0.2806  0.1972  0.1108
   58CHL1    H6 5408   3.580   4.640   3.540 -0.0059 -3.5349  0.7437
   58CHL1    C7 5409   3.665   4.620   3.749 -0.5895 -0.5494  0.5403
   58CHL1   H7A 5410   3.581   4.671   3.801 -0.5144  0.3544 -0.2038
   58CHL1   H7B 5411   3.652   4.512   3.772  1.7341 -2.2420 -4.6750
   58CHL1    C8 5412   3.787   4.670   3.824  0.0059  0.1916 -0.0958
   58CHL1    H8 5413   3.780   4.780   3.838  1.8760  0.3527 -0.1468
   58CHL1   C14 5414   3.798   4.594   3.960 -0.6733 -0.1772  0.3781
   58CHL1   H14 5415   3.804   4.484   3.944 -0.4020 -0.0331 -0.5593
   58CHL1   C15 5416   3.679   4.618   4.052 -0.2572  0.0753  0.2242
   58CHL1  H15A 5417   3.653   4.725   4.061 -0.5155  0.0822 -0.5810
   58CHL1  H15B 5418   3.597   4.559   4.005  0.7955 -2.3660  1.2829
   58CHL1   C16 5419   3.735   4.564   4.187  0.0103  0.1144  0.3704
   58CHL1  H16A 5420   3.712   4.650   4.253  1.6488  0.5657  0.4054
   58CHL1  H16B 5421   3.680   4.473   4.218 -0.9931  1.4084  2.6125
   58CHL1   C17 5422   3.886   4.554   4.183  0.6400  0.0535 -0.3210
   58CHL1   H17 5423   3.902   4.446   4.167 -0.6327 -0.2231  0.0985
   58CHL1   C13 5424   3.920   4.627   4.049 -0.2980  0.3716 -0.3792
   58CHL1   C18 5425   3.927   4.780   4.065 -0.5017  0.2262  0.1901
   58CHL1  H18A 5426   3.837   4.816   4.120  0.2097  1.9829  0.2766
   58CHL1  H18B 5427   4.011   4.807   4.132  0.8856 -0.8099 -1.0751
   58CHL1  H18C 5428   3.929   4.836   3.969  0.1599 -2.2164 -1.3092
   58CHL1   C12 5429   4.051   4.583   3.972  1.1422  0.0647 -0.2529
   58CHL1  H12A 5430   4.143   4.616   4.024 -0.0711  2.0285  0.7477
   58CHL1  H12B 5431   4.044   4.472   3.978 -0.3596  0.1635  0.4837
   58CHL1   C11 5432   4.053   4.637   3.834  0.6100 -0.0123  0.6159
   58CHL1  H11A 5433   4.084   4.743   3.848 -1.4533  0.6773  0.2842
   58CHL1  H11B 5434   4.137   4.583   3.786  2.2298  0.3916  2.8745
   58CHL1    C9 5435   3.919   4.627   3.752 -0.4848  0.3407  0.9619
   58CHL1    H9 5436   3.896   4.519   3.735 -1.4995  0.4011  1.8535
   58CHL1   C10 5437   3.922   4.701   3.613 -0.6524  0.9076 -0.9375
   58CHL1   C19 5438   3.956   4.848   3.645 -0.0786  0.4524  0.0878
   58CHL1  H19A 5439   3.956   4.909   3.553  0.3653  1.2187  0.5820
   58CHL1  H19B 5440   3.879   4.894   3.711  0.0250  1.2104 -0.3187
   58CHL1  H19C 5441   4.056   4.870   3.689  0.3869  0.2261 -0.8272
   58CHL1    C1 5442   4.027   4.637   3.512  0.0238  0.4149  0.4990
   58CHL1   H1A 5443   4.127   4.663   3.552  1.0759  0.9247 -2.2013
   58CHL1   H1B 5444   4.005   4.528   3.513 -0.9240  0.5689 -0.7380
   58CHL1    C2 5445   4.022   4.690   3.369  0.1227 -0.1265  0.6834
   58CHL1   H2A 5446   4.094   4.642   3.300 -0.3097 -0.1180  0.2219
   58CHL1   H2B 5447   4.044   4.799   3.372  1.5191 -0.4128  1.6381
   58CHL1   C20 5448   3.953   4.595   4.314 -0.0936  0.2540 -0.1661
   58CHL1   H20 5449   3.912   4.692   4.350  1.6237  0.4721  1.3075
   58CHL1   C21 5450   4.110   4.607   4.308 -0.2727  0.6528 -0.0031
   58CHL1  H21A 5451   4.151   4.618   4.411  0.8685 -0.9181 -0.2545
   58CHL1  H21B 5452   4.130   4.703   4.255 -1.7502  0.0414 -1.7888
   58CHL1  H21C 5453   4.153   4.519   4.255 -1.9772 -0.7092  0.7997
   58CHL1   C22 5454   3.917   4.496   4.426  0.3344  0.1956 -0.3631
   58CHL1  H22A 5455   3.815   4.454   4.417  1.1926 -2.1022  0.0099
   58CHL1  H22B 5456   3.983   4.407   4.418 -0.1383 -0.1479 -0.4648
   58CHL1   C23 5457   3.925   4.547   4.572  0.1317 -0.2556 -0.8831
   58CHL1  H23A 5458   4.005   4.625   4.576  1.5017 -1.5954 -1.1438
   58CHL1  H23B 5459   3.828   4.594   4.601  0.3607 -0.8487  0.9897
   58CHL1   C24 5460   3.947   4.434   4.673 -0.8152  0.3826 -0.0465
   58CHL1  H24A 5461   3.855   4.372   4.666  0.2852 -1.3156 -0.0611
   58CHL1  H24B 5462   4.035   4.368   4.656 -0.6826  0.2608  1.0166
   58CHL1   C25 5463   3.947   4.472   4.825 -0.5552 -0.4387  0.0202
   58CHL1   H25 5464   4.037   4.536   4.836 -1.5054  0.8061  0.9843
   58CHL1   C26 5465   3.825   4.548   4.875 -0.0663  0.9727 -0.2382
   58CHL1  H26A 5466   3.805   4.630   4.803 -0.0391  0.1643 -1.2051
   58CHL1  H26B 5467   3.738   4.480   4.887  0.2405  0.6854  0.4011
   58CHL1  H26C 5468   3.850   4.602   4.969  1.0437  0.7028 -0.3560
   58CHL1   C27 5469   3.975   4.352   4.916 -0.1102  0.1610 -0.1055
   58CHL1  H27A 5470   3.996   4.377   5.022  2.3548 -1.6408 -0.0815
   58CHL1  H27B 5471   3.897   4.275   4.899  1.8487 -1.8179 -0.5597
   58CHL1  H27C 5472   4.059   4.288   4.884  0.8779  0.5792  1.5736
   59CHL1    C3 5473   3.138   4.731   3.703  0.4994  0.0030 -0.6243
   59CHL1    H3 5474   3.125   4.626   3.672 -0.3178  0.0631 -0.4888
   59CHL1    O3 5475   3.101   4.808   3.588  0.2661 -0.6234 -0.0818
   59CHL1   H3' 5476   3.096   4.899   3.619 -0.9529  0.0471 -2.0252
   59CHL1    C4 5477   3.032   4.759   3.816  0.3584  0.2321 -0.1814
   59CHL1   H4A 5478   3.011   4.868   3.822  2.2237  0.5361  2.0319
   59CHL1   H4B 5479   2.939   4.711   3.779  1.1310 -0.2677 -1.5527
   59CHL1    C5 5480   3.072   4.698   3.951  0.5966  0.2683  0.1008
   59CHL1    C6 5481   3.002   4.604   4.017 -0.4341  0.0988  0.2781
   59CHL1    H6 5482   2.903   4.565   3.988 -1.0952  0.0239  2.4796
   59CHL1    C7 5483   3.035   4.566   4.159  0.1901 -0.1184  0.1056
   59CHL1   H7A 5484   2.944   4.571   4.223 -0.1818  5.4096 -0.3993
   59CHL1   H7B 5485   3.076   4.462   4.156  1.4063  0.3261  0.7118
   59CHL1    C8 5486   3.130   4.662   4.230  0.1099  0.4670 -0.4148
   59CHL1    H8 5487   3.072   4.756   4.242  0.3338  0.6390 -0.6577
   59CHL1   C14 5488   3.188   4.603   4.358 -0.2405  0.3922  0.8817
   59CHL1   H14 5489   3.251   4.514   4.339  0.3965  0.8008  1.0211
   59CHL1   C15 5490   3.090   4.568   4.465  0.1281  0.0575  0.0018
   59CHL1  H15A 5491   3.000   4.633   4.463  0.2785  0.3134  1.0328
   59CHL1  H15B 5492   3.047   4.467   4.447 -1.7514  0.4753  1.7155
   59CHL1   C16 5493   3.170   4.560   4.599  0.8380 -0.1951 -0.3740
   59CHL1  H16A 5494   3.117   4.623   4.674 -0.3390 -1.7976  0.2015
   59CHL1  H16B 5495   3.166   4.459   4.644 -3.0619 -0.4453 -0.9253
   59CHL1   C17 5496   3.306   4.622   4.560 -0.2299  0.2357 -0.1841
   59CHL1   H17 5497   3.369   4.533   4.539 -0.4955 -0.9977  3.4382
   59CHL1   C13 5498   3.284   4.694   4.428  0.2178 -0.5890 -0.4626
   59CHL1   C18 5499   3.214   4.834   4.447  0.4300 -0.3982  0.0033
   59CHL1  H18A 5500   3.126   4.837   4.515  0.9523  0.8893  0.6659
   59CHL1  H18B 5501   3.290   4.891   4.505  1.3267 -1.5960  0.0232
   59CHL1  H18C 5502   3.185   4.893   4.358  1.9123 -0.3788 -0.4911
   59CHL1   C12 5503   3.414   4.714   4.337 -0.0366  0.9753 -0.0653
   59CHL1  H12A 5504   3.487   4.785   4.383 -0.8882  1.7477  0.1224
   59CHL1  H12B 5505   3.472   4.620   4.324 -1.2217  0.0804  0.8159
   59CHL1   C11 5506   3.371   4.770   4.200  0.3332 -0.2349 -0.2448
   59CHL1  H11A 5507   3.343   4.875   4.223  0.1175 -0.2057 -0.6368
   59CHL1  H11B 5508   3.456   4.775   4.129  0.3235  0.7375 -0.2033
   59CHL1    C9 5509   3.251   4.691   4.127  0.0915 -0.1803  0.0088
   59CHL1    H9 5510   3.293   4.593   4.095 -2.4479 -1.7036  0.9856
   59CHL1   C10 5511   3.208   4.759   3.995 -0.2617 -0.6745 -0.5424
   59CHL1   C19 5512   3.211   4.918   4.014 -0.0071 -0.4001 -0.0493
   59CHL1  H19A 5513   3.315   4.957   4.023  0.0948 -0.7550  0.3228
   59CHL1  H19B 5514   3.164   4.978   3.932  1.1357  0.0975 -0.3661
   59CHL1  H19C 5515   3.149   4.920   4.106  1.0325  0.1418  0.6661
   59CHL1    C1 5516   3.315   4.724   3.889 -0.5670 -0.6817  0.2630
   59CHL1   H1A 5517   3.407   4.784   3.906  0.1595 -1.4584 -0.7378
   59CHL1   H1B 5518   3.335   4.614   3.893  2.4073 -0.2638 -0.5706
   59CHL1    C2 5519   3.282   4.769   3.741 -0.6029 -0.0654 -0.1164
   59CHL1   H2A 5520   3.356   4.726   3.670  0.1389 -0.0536  0.6379
   59CHL1   H2B 5521   3.293   4.880   3.744 -1.5473  0.0099  1.3006
   59CHL1   C20 5522   3.367   4.692   4.690 -0.3576 -0.1969 -0.3060
   59CHL1   H20 5523   3.312   4.784   4.717  1.8472  1.1180 -0.0744
   59CHL1   C21 5524   3.519   4.698   4.660 -0.4634  0.1978 -0.4959
   59CHL1  H21A 5525   3.566   4.597   4.655 -0.3552  0.1320  1.1854
   59CHL1  H21B 5526   3.565   4.753   4.745 -1.9223 -0.1733  0.5831
   59CHL1  H21C 5527   3.534   4.762   4.571 -1.0456 -1.5433 -1.8928
   59CHL1   C22 5528   3.349   4.602   4.817 -0.5645 -0.7679 -0.1847
   59CHL1  H22A 5529   3.243   4.574   4.833 -0.5657 -0.0095  1.4639
   59CHL1  H22B 5530   3.410   4.512   4.796  2.5120  1.3463 -1.0795
   59CHL1   C23 5531   3.397   4.659   4.946  0.0105  0.3902 -0.5079
   59CHL1  H23A 5532   3.506   4.676   4.930 -0.0317  0.0715 -1.1507
   59CHL1  H23B 5533   3.350   4.757   4.969  2.5599  1.3840  0.9444
   59CHL1   C24 5534   3.376   4.558   5.056  0.4164  0.4335 -0.7328
   59CHL1  H24A 5535   3.267   4.545   5.073  1.0321 -3.7399  1.1935
   59CHL1  H24B 5536   3.426   4.461   5.038 -1.1157 -0.1468 -2.1217
   59CHL1   C25 5537   3.429   4.599   5.202 -0.6116  0.1248  0.0143
   59CHL1   H25 5538   3.359   4.675   5.241 -0.3717 -0.3670  1.5015
   59CHL1   C26 5539   3.417   4.480   5.294 -0.1990  0.1809  0.0758
   59CHL1  H26A 5540   3.321   4.423   5.289 -0.3225  0.1669  1.8503
   59CHL1  H26B 5541   3.492   4.403   5.267 -0.2320  0.2109 -0.1011
   59CHL1  H26C 5542   3.450   4.503   5.398 -0.7658 -1.1921  0.5757
   59CHL1   C27 5543   3.574   4.650   5.197 -0.4413  0.3827 -0.3174
   59CHL1  H27A 5544   3.594   4.735   5.128  2.0199  0.3808  0.3127
   59CHL1  H27B 5545   3.596   4.685   5.300 -3.1684 -0.2552  0.5762
   59CHL1  H27C 5546   3.642   4.567   5.168 -1.5104 -0.1902 -1.3018
   60CHL1    C3 5547   2.618   2.537   3.140 -0.0869  0.3369  0.1068
   60CHL1    H3 5548   2.541   2.617   3.134 -1.7465 -1.2903 -2.0130
   60CHL1    O3 5549   2.670   2.515   3.006 -0.5162 -0.4493  1.0477
   60CHL1   H3' 5550   2.730   2.585   2.979 -1.6802  0.1436 -0.1191
   60CHL1    C4 5551   2.731   2.588   3.231  0.3560  0.1114  0.2442
   60CHL1   H4A 5552   2.823   2.527   3.219  1.9561  2.2607  0.8569
   60CHL1   H4B 5553   2.754   2.690   3.193  1.7530  0.5348  2.0680
   60CHL1    C5 5554   2.690   2.589   3.374  0.1180  0.0517  0.4840
   60CHL1    C6 5555   2.706   2.698   3.447 -0.0340 -0.2705 -0.1357
   60CHL1    H6 5556   2.737   2.791   3.398  1.3374  0.7740  2.4918
   60CHL1    C7 5557   2.679   2.716   3.596  0.8509  0.1739  0.0472
   60CHL1   H7A 5558   2.750   2.786   3.646  1.1139 -0.4867  0.6053
   60CHL1   H7B 5559   2.580   2.758   3.624  0.6504 -0.3747  0.1676
   60CHL1    C8 5560   2.688   2.579   3.662  0.0251  0.2977 -0.3121
   60CHL1    H8 5561   2.795   2.548   3.661  0.3423  1.3210  0.0060
   60CHL1   C14 5562   2.643   2.579   3.810  0.5406  0.0639  0.1853
   60CHL1   H14 5563   2.535   2.605   3.808  0.7093  0.7821 -2.3232
   60CHL1   C15 5564   2.699   2.686   3.898  0.3819 -0.8645 -0.7403
   60CHL1  H15A 5565   2.805   2.715   3.884 -0.2650  2.5053  0.2502
   60CHL1  H15B 5566   2.641   2.778   3.874  1.6379  0.1240 -0.0957
   60CHL1   C16 5567   2.677   2.638   4.040 -0.3314 -1.4784  0.2675
   60CHL1  H16A 5568   2.770   2.634   4.101 -0.8438 -2.0061  1.0373
   60CHL1  H16B 5569   2.615   2.708   4.101 -0.8739 -1.8249  0.1200
   60CHL1   C17 5570   2.617   2.494   4.034 -0.2787 -0.4050  0.2765
   60CHL1   H17 5571   2.507   2.510   4.031  0.0516  2.2881 -1.9283
   60CHL1   C13 5572   2.647   2.448   3.889  0.1635  0.0692 -0.0223
   60CHL1   C18 5573   2.790   2.385   3.874 -0.3400 -1.4329  0.1047
   60CHL1  H18A 5574   2.860   2.463   3.909 -0.6139 -2.0167  2.1014
   60CHL1  H18B 5575   2.803   2.300   3.945 -0.4429 -1.2374  0.3575
   60CHL1  H18C 5576   2.804   2.340   3.773 -2.1399 -1.2082 -0.2766
   60CHL1   C12 5577   2.545   2.356   3.818 -0.4765  0.3163 -0.1898
   60CHL1  H12A 5578   2.551   2.253   3.860 -1.3857 -0.0898 -1.0209
   60CHL1  H12B 5579   2.443   2.398   3.834 -0.8116 -0.6307  0.2043
   60CHL1   C11 5580   2.568   2.342   3.664 -0.1410 -0.2765  0.8859
   60CHL1  H11A 5581   2.650   2.270   3.643 -0.8981 -0.3789 -2.2610
   60CHL1  H11B 5582   2.474   2.299   3.622  0.4675  0.9006 -1.8528
   60CHL1    C9 5583   2.601   2.471   3.581 -0.0187 -0.7651  0.3505
   60CHL1    H9 5584   2.497   2.511   3.582  0.0027 -0.6476 -0.7780
   60CHL1   C10 5585   2.642   2.459   3.433 -0.0272  0.3457  0.3144
   60CHL1   C19 5586   2.751   2.346   3.419 -0.2201  0.2285 -0.0556
   60CHL1  H19A 5587   2.843   2.384   3.469  0.4668 -1.4138  0.0277
   60CHL1  H19B 5588   2.722   2.250   3.467 -2.1545  0.5300 -0.5670
   60CHL1  H19C 5589   2.770   2.328   3.311 -3.6976 -1.2771 -0.5407
   60CHL1    C1 5590   2.529   2.399   3.341 -0.6875 -0.1178  0.6566
   60CHL1   H1A 5591   2.511   2.294   3.371 -0.9730 -0.1799  0.2768
   60CHL1   H1B 5592   2.439   2.460   3.362  0.6029  2.2533 -0.3588
   60CHL1    C2 5593   2.561   2.406   3.187 -0.1599  1.0326 -0.1866
   60CHL1   H2A 5594   2.464   2.382   3.139 -0.2547 -0.9847  0.9336
   60CHL1   H2B 5595   2.631   2.324   3.159 -0.4741  0.3982  0.8479
   60CHL1   C20 5596   2.653   2.408   4.155  1.0773 -0.0515 -0.2702
   60CHL1   H20 5597   2.750   2.361   4.128  0.9017 -0.4570 -0.2042
   60CHL1   C21 5598   2.540   2.312   4.160  0.6710 -0.1063  0.1519
   60CHL1  H21A 5599   2.440   2.358   4.179  1.4416  0.8263  2.2911
   60CHL1  H21B 5600   2.559   2.243   4.245 -0.7045  0.2067  0.7549
   60CHL1  H21C 5601   2.530   2.247   4.070 -1.4048  0.3899 -0.0383
   60CHL1   C22 5602   2.657   2.482   4.294 -0.8207 -0.3832 -0.3266
   60CHL1  H22A 5603   2.746   2.548   4.305 -2.6616  2.1568  0.1295
   60CHL1  H22B 5604   2.570   2.550   4.301 -1.0980 -0.6018 -1.4185
   60CHL1   C23 5605   2.668   2.395   4.418 -0.4647  0.5161 -0.1078
   60CHL1  H23A 5606   2.666   2.461   4.508  0.4872  0.1342  0.2014
   60CHL1  H23B 5607   2.586   2.323   4.438 -1.0080  1.1301 -0.0811
   60CHL1   C24 5608   2.796   2.309   4.416 -0.0942  0.6588  0.4588
   60CHL1  H24A 5609   2.783   2.254   4.320  0.2651  2.7469 -0.8801
   60CHL1  H24B 5610   2.880   2.382   4.408 -0.6617  1.3163  0.3748
   60CHL1   C25 5611   2.805   2.209   4.530  0.4554  0.0413  0.3383
   60CHL1   H25 5612   2.704   2.164   4.516 -0.5685  2.6949 -1.6868
   60CHL1   C26 5613   2.906   2.103   4.517 -0.5707  0.4214  0.2342
   60CHL1  H26A 5614   3.008   2.145   4.524 -0.5943  0.2471  3.9739
   60CHL1  H26B 5615   2.902   2.032   4.602  1.8580 -1.1487 -0.8532
   60CHL1  H26C 5616   2.925   2.043   4.426  0.9215 -0.4063  1.0437
   60CHL1   C27 5617   2.825   2.280   4.656  0.4701  0.1090  0.2753
   60CHL1  H27A 5618   2.726   2.327   4.674 -2.3092 -4.4409 -1.3719
   60CHL1  H27B 5619   2.846   2.211   4.741 -1.8829 -1.2104 -0.1522
   60CHL1  H27C 5620   2.907   2.355   4.653  1.9765 -1.3061  2.6732
   61CHL1    C3 5621   5.950   6.137   3.579 -0.1642  0.0186  0.0777
   61CHL1    H3 5622   5.892   6.228   3.552  0.2737 -0.3534 -2.4089
   61CHL1    O3 5623   6.025   6.112   3.463 -1.1542 -0.0886 -0.0772
   61CHL1   H3' 5624   6.037   6.197   3.421  0.4868 -1.5694 -2.8502
   61CHL1    C4 5625   6.053   6.171   3.682  0.2394  0.4075 -0.0884
   61CHL1   H4A 5626   6.129   6.091   3.684  0.4852  0.6648  0.8524
   61CHL1   H4B 5627   6.102   6.268   3.659 -0.3045  1.0082  1.1668
   61CHL1    C5 5628   6.001   6.182   3.823 -0.4007 -0.1703 -0.1745
   61CHL1    C6 5629   6.032   6.290   3.901 -0.5426  0.3824 -0.1375
   61CHL1    H6 5630   6.095   6.371   3.862  0.1408 -0.1931 -0.2414
   61CHL1    C7 5631   5.985   6.295   4.048 -0.3453 -0.1998  0.3493
   61CHL1   H7A 5632   6.058   6.344   4.116 -0.3776  0.8979 -0.3770
   61CHL1   H7B 5633   5.900   6.366   4.050 -0.2993 -0.1193 -0.1691
   61CHL1    C8 5634   5.933   6.159   4.104  0.7196 -0.0442  0.5808
   61CHL1    H8 5635   6.022   6.094   4.116 -0.1954 -1.9821 -2.0157
   61CHL1   C14 5636   5.862   6.179   4.234 -0.1081 -0.1367  0.2588
   61CHL1   H14 5637   5.767   6.233   4.210  0.4349  0.1063 -1.4559
   61CHL1   C15 5638   5.936   6.264   4.341  0.5147  0.3551 -0.0918
   61CHL1  H15A 5639   6.046   6.250   4.329  0.3034  0.2376 -2.3609
   61CHL1  H15B 5640   5.918   6.374   4.341 -0.0025  0.2769  0.5903
   61CHL1   C16 5641   5.886   6.214   4.471  0.2155  0.5016 -0.0281
   61CHL1  H16A 5642   5.962   6.144   4.512  2.6569  1.6520 -2.2881
   61CHL1  H16B 5643   5.851   6.293   4.541  0.1096 -0.2775  0.8179
   61CHL1   C17 5644   5.777   6.108   4.428  0.3534 -0.3699  0.5303
   61CHL1   H17 5645   5.687   6.171   4.411  1.8619  1.7339  0.0024
   61CHL1   C13 5646   5.815   6.042   4.296  0.3235 -0.5453 -0.7110
   61CHL1   C18 5647   5.928   5.937   4.312 -0.2661  0.1230 -0.0734
   61CHL1  H18A 5648   5.959   5.897   4.214 -1.8823  1.0630 -1.0181
   61CHL1  H18B 5649   6.012   5.989   4.363 -2.8523  2.1390  2.4751
   61CHL1  H18C 5650   5.895   5.848   4.370  3.3124  0.5346  2.9612
   61CHL1   C12 5651   5.697   5.987   4.209  0.1768 -0.1314 -0.0466
   61CHL1  H12A 5652   5.664   5.886   4.241  1.2628 -0.2849  0.6384
   61CHL1  H12B 5653   5.610   6.055   4.218 -1.6167 -2.2755 -0.3370
   61CHL1   C11 5654   5.741   5.975   4.058 -0.7260  0.2659 -0.5577
   61CHL1  H11A 5655   5.781   5.872   4.042 -0.0216  0.7972 -2.4107
   61CHL1  H11B 5656   5.646   5.979   4.001 -1.7285  1.6529  1.0988
   61CHL1    C9 5657   5.832   6.092   4.003  0.3028  0.8572 -0.8563
   61CHL1    H9 5658   5.757   6.169   3.977 -0.8165 -0.4299 -1.5972
   61CHL1   C10 5659   5.902   6.064   3.870 -0.3242  0.7442  0.1281
   61CHL1   C19 5660   5.983   5.929   3.887 -0.2630 -0.4218  0.6810
   61CHL1  H19A 5661   6.042   5.942   3.981  1.6910  0.6328 -0.6129
   61CHL1  H19B 5662   5.916   5.841   3.889 -0.5721 -0.1747  1.5417
   61CHL1  H19C 5663   6.054   5.903   3.805  1.9253  2.1017  1.5953
   61CHL1    C1 5664   5.798   6.039   3.754  0.1403 -0.5088 -0.0267
   61CHL1   H1A 5665   5.743   5.944   3.771 -0.5680  0.0110  0.6861
   61CHL1   H1B 5666   5.724   6.121   3.758 -0.7453 -1.2856 -0.1013
   61CHL1    C2 5667   5.861   6.029   3.610  0.3203  0.8055 -0.0515
   61CHL1   H2A 5668   5.776   6.035   3.539  0.6611 -1.2148 -0.6953
   61CHL1   H2B 5669   5.906   5.929   3.593 -0.4328  0.4424  0.0073
   61CHL1   C20 5670   5.724   6.003   4.533  0.5077  0.0367 -0.5150
   61CHL1   H20 5671   5.687   5.913   4.480 -0.4371 -1.1985  2.1055
   61CHL1   C21 5672   5.611   6.063   4.617  0.1413  0.0654  0.8398
   61CHL1  H21A 5673   5.564   5.988   4.684  0.1686 -1.1034 -0.4218
   61CHL1  H21B 5674   5.531   6.106   4.554  1.7158  0.5413 -0.9370
   61CHL1  H21C 5675   5.656   6.144   4.679  1.2525 -0.9961  1.4712
   61CHL1   C22 5676   5.835   5.942   4.621  0.0792 -0.4046  0.5649
   61CHL1  H22A 5677   5.931   5.939   4.566  0.0130 -3.0201  0.4344
   61CHL1  H22B 5678   5.852   5.997   4.715 -2.3592  0.6141  0.4949
   61CHL1   C23 5679   5.800   5.799   4.661 -0.4484  0.4702 -0.0711
   61CHL1  H23A 5680   5.702   5.786   4.711 -0.0199  1.9991  1.2049
   61CHL1  H23B 5681   5.800   5.729   4.574  1.6566 -1.8226  1.6590
   61CHL1   C24 5682   5.903   5.735   4.757  0.1176 -0.3983  0.5101
   61CHL1  H24A 5683   5.896   5.626   4.741 -2.1245 -0.2627  0.2141
   61CHL1  H24B 5684   6.008   5.757   4.727 -0.4842  0.8733 -0.7467
   61CHL1   C25 5685   5.888   5.777   4.904  0.0226 -0.2961  0.1630
   61CHL1   H25 5686   5.850   5.882   4.901  0.5895 -0.0648  0.7087
   61CHL1   C26 5687   5.771   5.693   4.953  0.2987 -0.0182 -0.3101
   61CHL1  H26A 5688   5.672   5.721   4.910  0.6280  2.6538  0.4555
   61CHL1  H26B 5689   5.794   5.587   4.928  3.4445  1.2253 -3.6330
   61CHL1  H26C 5690   5.743   5.700   5.060 -0.6623  0.2530 -0.5667
   61CHL1   C27 5691   6.018   5.758   4.978  0.1530 -0.6475  0.2631
   61CHL1  H27A 5692   5.982   5.765   5.082 -0.9363  0.1364 -0.1425
   61CHL1  H27B 5693   6.060   5.660   4.948  0.8308  0.1764 -1.7004
   61CHL1  H27C 5694   6.093   5.839   4.963  0.6857 -1.3498 -1.1001
   62CHL1    C3 5695   0.595   0.111   3.669 -0.1807 -0.2154  0.4739
   62CHL1    H3 5696   0.661   0.201   3.670 -0.4152 -0.0474  0.8346
   62CHL1    O3 5697   0.549   0.096   3.537  0.2559  0.6549 -0.0297
   62CHL1   H3' 5698   0.467   0.047   3.538  2.5244 -3.5962 -0.2628
   62CHL1    C4 5699   0.681  -0.012   3.713 -0.2314 -0.3216 -0.1469
   62CHL1   H4A 5700   0.604  -0.092   3.704  0.0931 -0.7553  0.8075
   62CHL1   H4B 5701   0.762  -0.043   3.644  0.4529  0.8942  0.1000
   62CHL1    C5 5702   0.731   0.004   3.854 -0.7894 -0.0317  0.0316
   62CHL1    C6 5703   0.860  -0.008   3.884 -0.0994 -0.1874  0.1420
   62CHL1    H6 5704   0.926  -0.021   3.796 -0.5439  1.0736 -0.3935
   62CHL1    C7 5705   0.918  -0.007   4.019 -0.3283 -0.1321 -0.5432
   62CHL1   H7A 5706   0.996  -0.086   4.020 -0.8959 -0.7458 -2.0567
   62CHL1   H7B 5707   0.970   0.088   4.039  1.4719 -1.4067  1.3142
   62CHL1    C8 5708   0.808  -0.009   4.137 -0.0992  0.5187  0.4698
   62CHL1    H8 5709   0.776  -0.114   4.154 -0.1280  0.5477  0.5984
   62CHL1   C14 5710   0.872   0.041   4.272 -0.1646  0.0740  0.3918
   62CHL1   H14 5711   0.890   0.150   4.271 -0.5488  0.1387 -0.2917
   62CHL1   C15 5712   1.001  -0.028   4.328  0.2918  0.4078  0.1062
   62CHL1  H15A 5713   0.978  -0.132   4.293  0.3756  1.1835 -2.4921
   62CHL1  H15B 5714   1.086   0.006   4.265  0.4261 -2.3061 -1.3216
   62CHL1   C16 5715   0.999  -0.001   4.476 -0.3913 -0.1195  0.7530
   62CHL1  H16A 5716   0.998  -0.101   4.523 -3.1683  0.2945  1.7523
   62CHL1  H16B 5717   1.084   0.048   4.528 -1.4315  0.5254  1.8852
   62CHL1   C17 5718   0.863   0.069   4.513  0.3974 -0.3786  0.1268
   62CHL1   H17 5719   0.889   0.176   4.496 -1.4859 -0.0386 -0.8909
   62CHL1   C13 5720   0.771   0.031   4.390  0.3069  0.1788 -0.3512
   62CHL1   C18 5721   0.714  -0.111   4.410 -0.4637 -0.1423 -0.3733
   62CHL1  H18A 5722   0.787  -0.179   4.458  0.6505  0.9499 -0.4904
   62CHL1  H18B 5723   0.632  -0.104   4.485 -0.9324 -0.6000 -0.8314
   62CHL1  H18C 5724   0.658  -0.161   4.328  0.2839 -2.2132  0.3235
   62CHL1   C12 5725   0.663   0.136   4.349  0.3974  0.2466 -0.0602
   62CHL1  H12A 5726   0.581   0.146   4.423 -1.1982  1.0797 -1.8522
   62CHL1  H12B 5727   0.703   0.240   4.346 -0.4125  0.5493 -0.9086
   62CHL1   C11 5728   0.600   0.100   4.216  0.5638 -0.0893  0.0669
   62CHL1  H11A 5729   0.529   0.017   4.232 -0.1212  0.3298 -0.7464
   62CHL1  H11B 5730   0.536   0.190   4.203  0.0500 -0.4104  0.3655
   62CHL1    C9 5731   0.695   0.078   4.099  0.2666 -0.5943  0.9094
   62CHL1    H9 5732   0.737   0.179   4.078 -0.8625 -0.2847  0.0365
   62CHL1   C10 5733   0.629   0.043   3.958 -0.5698  0.5642 -0.0022
   62CHL1   C19 5734   0.536  -0.077   3.984  0.6419  0.5636  0.4820
   62CHL1  H19A 5735   0.468  -0.064   4.070 -1.7534  1.7314 -1.4469
   62CHL1  H19B 5736   0.477  -0.100   3.892  2.9588 -1.4212 -0.6107
   62CHL1  H19C 5737   0.590  -0.168   4.016 -1.4762 -1.7701 -2.1002
   62CHL1    C1 5738   0.534   0.154   3.905 -0.2508  0.1949 -0.1687
   62CHL1   H1A 5739   0.450   0.161   3.978 -1.5261 -0.7881 -1.4671
   62CHL1   H1B 5740   0.598   0.243   3.891  0.9293 -0.9087 -2.3239
   62CHL1    C2 5741   0.477   0.129   3.763  0.8201  0.3435  0.3033
   62CHL1   H2A 5742   0.411   0.212   3.729  0.3337 -0.8509 -1.8121
   62CHL1   H2B 5743   0.420   0.033   3.758 -0.3833  1.1142 -2.6767
   62CHL1   C20 5744   0.803   0.042   4.648 -0.3148  0.7746 -0.0812
   62CHL1   H20 5745   0.784  -0.067   4.653 -0.8453  0.9203  1.4432
   62CHL1   C21 5746   0.666   0.108   4.674  0.6943  0.0074  0.5078
   62CHL1  H21A 5747   0.649   0.093   4.782 -0.5694  0.3340  0.3704
   62CHL1  H21B 5748   0.592   0.055   4.611  1.6831  0.0524 -0.7532
   62CHL1  H21C 5749   0.655   0.218   4.664 -0.5865 -0.2182 -1.0600
   62CHL1   C22 5750   0.900   0.068   4.768  0.3487 -0.6312  0.0136
   62CHL1  H22A 5751   0.842   0.050   4.861 -0.0753 -0.5362 -0.2325
   62CHL1  H22B 5752   0.983  -0.002   4.744  1.2422  0.4944 -0.2554
   62CHL1   C23 5753   0.960   0.215   4.756  0.1886 -0.7638 -0.1994
   62CHL1  H23A 5754   1.010   0.225   4.658 -0.9760 -0.4540 -0.7856
   62CHL1  H23B 5755   0.873   0.284   4.766  0.9461  0.1743  0.0966
   62CHL1   C24 5756   1.055   0.237   4.874 -0.0024 -0.3031 -0.0271
   62CHL1  H24A 5757   1.081   0.344   4.891  0.3067 -0.6257  1.7507
   62CHL1  H24B 5758   0.997   0.201   4.962 -0.0074  1.1192  0.5706
   62CHL1   C25 5759   1.184   0.146   4.882 -0.1145  0.4931 -0.1080
   62CHL1   H25 5760   1.162   0.037   4.884 -1.3701  0.6733 -1.8870
   62CHL1   C26 5761   1.279   0.178   4.766  0.6061  0.6395 -0.1913
   62CHL1  H26A 5762   1.319   0.282   4.767  0.9697  0.5198 -1.2388
   62CHL1  H26B 5763   1.369   0.115   4.783  0.3674  0.0106 -1.1794
   62CHL1  H26C 5764   1.241   0.139   4.669  1.6793 -0.2390 -0.2794
   62CHL1   C27 5765   1.263   0.177   5.016 -0.2579 -0.6877  0.5108
   62CHL1  H27A 5766   1.363   0.130   5.024  0.9034  1.8945  2.8908
   62CHL1  H27B 5767   1.264   0.288   5.016  0.6367 -0.6863  0.8655
   62CHL1  H27C 5768   1.210   0.136   5.106  1.3844 -0.6668  1.5343
   63CHL1    C3 5769   2.627   0.748   3.218 -0.5001 -0.1707  0.0355
   63CHL1    H3 5770   2.517   0.742   3.236 -0.3380  0.7262  1.4549
   63CHL1    O3 5771   2.641   0.738   3.076 -0.3125 -0.3337 -0.3041
   63CHL1   H3' 5772   2.563   0.695   3.039 -0.4209  0.2493 -0.7650
   63CHL1    C4 5773   2.682   0.880   3.284  0.6565  0.1833  0.0808
   63CHL1   H4A 5774   2.781   0.894   3.236 -0.0650  2.4349 -0.8525
   63CHL1   H4B 5775   2.618   0.966   3.255  1.7993  1.2760  0.7300
   63CHL1    C5 5776   2.702   0.879   3.432 -1.0532  0.7418 -0.3744
   63CHL1    C6 5777   2.655   0.979   3.509 -0.0798  0.4163 -0.1934
   63CHL1    H6 5778   2.609   1.069   3.464 -1.2721 -0.3136 -0.4939
   63CHL1    C7 5779   2.652   0.990   3.666  0.2880 -0.2130  0.4428
   63CHL1   H7A 5780   2.698   1.088   3.693  0.1310  0.6338 -2.1194
   63CHL1   H7B 5781   2.547   0.990   3.701 -1.0407  2.4892 -2.9598
   63CHL1    C8 5782   2.744   0.884   3.719 -0.5401  0.6843  0.8385
   63CHL1    H8 5783   2.850   0.911   3.698 -0.8595  0.9899 -0.4656
   63CHL1   C14 5784   2.724   0.868   3.870 -0.8493 -0.2606 -0.4422
   63CHL1   H14 5785   2.626   0.817   3.880 -1.3113  0.6502 -0.1637
   63CHL1   C15 5786   2.731   0.997   3.958  0.0742 -0.4685  0.5803
   63CHL1  H15A 5787   2.806   1.062   3.908  0.4632 -0.3224  1.3346
   63CHL1  H15B 5788   2.627   1.037   3.955  0.5388  0.9601  2.0205
   63CHL1   C16 5789   2.772   0.939   4.097  0.1955  0.0325 -0.2923
   63CHL1  H16A 5790   2.867   0.989   4.126  0.7257 -0.8416 -0.4684
   63CHL1  H16B 5791   2.693   0.950   4.173  0.9338  0.2220  0.4638
   63CHL1   C17 5792   2.790   0.783   4.083 -0.5652 -0.1573 -0.2424
   63CHL1   H17 5793   2.688   0.746   4.108 -1.2057  1.1615 -0.7776
   63CHL1   C13 5794   2.822   0.771   3.937  0.3461  0.5350  0.0722
   63CHL1   C18 5795   2.970   0.814   3.920  0.3284 -0.8324 -0.0598
   63CHL1  H18A 5796   3.000   0.830   3.814 -0.1231 -1.8222 -0.3482
   63CHL1  H18B 5797   2.991   0.906   3.978 -0.4890 -2.4188  2.9961
   63CHL1  H18C 5798   3.034   0.729   3.951  2.0216  0.3868 -0.1192
   63CHL1   C12 5799   2.802   0.635   3.873 -0.0753  0.1319 -1.2691
   63CHL1  H12A 5800   2.865   0.551   3.909  1.6525  1.6559 -0.5423
   63CHL1  H12B 5801   2.701   0.597   3.900  0.1456 -0.9082 -1.8787
   63CHL1   C11 5802   2.820   0.648   3.725 -0.5394  0.2582  0.3172
   63CHL1  H11A 5803   2.927   0.664   3.702 -0.5912 -1.6011 -1.5345
   63CHL1  H11B 5804   2.807   0.544   3.688 -0.2985  0.5903 -0.7179
   63CHL1    C9 5805   2.734   0.747   3.652  0.0784  0.0250  0.2329
   63CHL1    H9 5806   2.631   0.709   3.666  0.2326 -0.8689 -0.9059
   63CHL1   C10 5807   2.764   0.744   3.495  0.4858 -0.1370 -0.1448
   63CHL1   C19 5808   2.911   0.746   3.453 -0.1739 -0.1990  0.7174
   63CHL1  H19A 5809   2.934   0.776   3.348  0.3718 -2.7214  0.0485
   63CHL1  H19B 5810   2.976   0.814   3.512  0.9311  0.4427 -1.1652
   63CHL1  H19C 5811   2.947   0.642   3.458  0.9658  0.0282 -1.5509
   63CHL1    C1 5812   2.698   0.618   3.430  0.1185 -0.0603  0.1780
   63CHL1   H1A 5813   2.756   0.529   3.459  1.7029 -0.1908 -3.0071
   63CHL1   H1B 5814   2.594   0.603   3.465 -0.2813 -0.0973 -1.0015
   63CHL1    C2 5815   2.702   0.629   3.275 -0.0852  0.4269 -0.0242
   63CHL1   H2A 5816   2.668   0.536   3.225  0.4606  1.4348 -2.4331
   63CHL1   H2B 5817   2.804   0.627   3.232  0.6590 -0.0837  1.6838
   63CHL1   C20 5818   2.884   0.730   4.191 -0.3808 -1.0497 -0.1271
   63CHL1   H20 5819   2.992   0.754   4.181 -0.1856 -0.8409  2.1001
   63CHL1   C21 5820   2.872   0.580   4.202  0.0846  0.4276  1.0439
   63CHL1  H21A 5821   2.913   0.532   4.111  2.4249  0.2963  2.1033
   63CHL1  H21B 5822   2.764   0.553   4.209 -0.1380  0.7831 -0.6208
   63CHL1  H21C 5823   2.936   0.540   4.284 -4.5681 -0.9714  4.5040
   63CHL1   C22 5824   2.859   0.789   4.332  0.5126  0.5462 -0.2306
   63CHL1  H22A 5825   2.867   0.900   4.324  0.0586  0.5712 -0.3605
   63CHL1  H22B 5826   2.754   0.759   4.355  0.4468  1.2434  0.4052
   63CHL1   C23 5827   2.950   0.727   4.434  0.9970  0.0119 -0.2547
   63CHL1  H23A 5828   2.901   0.637   4.477  0.9132 -0.7701 -1.9011
   63CHL1  H23B 5829   3.042   0.683   4.390 -1.8725 -4.4744 -2.5615
   63CHL1   C24 5830   2.968   0.819   4.556 -0.6021  0.6823 -0.1770
   63CHL1  H24A 5831   3.046   0.891   4.525 -0.3945  0.3638 -0.4061
   63CHL1  H24B 5832   2.874   0.878   4.550 -0.3310  1.4370  2.0647
   63CHL1   C25 5833   2.991   0.758   4.695  0.3851  0.4788 -0.2377
   63CHL1   H25 5834   2.906   0.689   4.714 -0.4037  1.2713 -0.8239
   63CHL1   C26 5835   3.113   0.664   4.720 -0.1329 -0.7295  0.9170
   63CHL1  H26A 5836   3.124   0.650   4.830 -2.1009 -0.0672  1.2432
   63CHL1  H26B 5837   3.111   0.568   4.665  1.5833 -1.9052  2.7834
   63CHL1  H26C 5838   3.208   0.716   4.695 -0.2897 -0.4435  0.9087
   63CHL1   C27 5839   2.998   0.866   4.798 -0.0083  0.5718 -0.6571
   63CHL1  H27A 5840   3.092   0.923   4.784 -0.0002  1.2756  1.7122
   63CHL1  H27B 5841   2.916   0.940   4.806 -0.8507 -0.4723  0.9599
   63CHL1  H27C 5842   3.009   0.816   4.897  1.1245 -0.7736 -1.4234
   64CHL1    C3 5843   1.117   2.957   3.442  0.0635  0.7797  1.6634
   64CHL1    H3 5844   1.101   3.067   3.453  0.6129  1.2409 -1.1742
   64CHL1    O3 5845   1.126   2.945   3.302  0.1830  0.4955 -0.7863
   64CHL1   H3' 5846   1.147   2.852   3.292  3.1489  0.9329  0.3307
   64CHL1    C4 5847   1.250   2.920   3.509  0.9235  0.1290 -0.2704
   64CHL1   H4A 5848   1.265   2.816   3.472 -0.6487 -0.2390  0.0170
   64CHL1   H4B 5849   1.332   2.980   3.464  1.3292 -1.4631 -1.8072
   64CHL1    C5 5850   1.252   2.921   3.660  0.2955 -0.2616  0.0291
   64CHL1    C6 5851   1.336   2.999   3.726 -0.2613  0.3226  0.4548
   64CHL1    H6 5852   1.411   3.049   3.662 -1.5086  1.4969 -0.1258
   64CHL1    C7 5853   1.355   3.002   3.867  0.2142  0.7772 -0.3111
   64CHL1   H7A 5854   1.463   2.989   3.891  0.5868 -1.1710 -2.6381
   64CHL1   H7B 5855   1.339   3.106   3.903  1.4164  1.0151 -0.3883
   64CHL1    C8 5856   1.260   2.904   3.938 -0.2659  0.0549 -0.2503
   64CHL1    H8 5857   1.303   2.803   3.924  2.9626  1.6099 -2.6157
   64CHL1   C14 5858   1.244   2.958   4.077  0.7410  0.2680 -0.0693
   64CHL1   H14 5859   1.172   3.042   4.068 -0.6940 -1.0135 -0.9222
   64CHL1   C15 5860   1.369   3.008   4.157  0.1646 -0.5083  0.5460
   64CHL1  H15A 5861   1.460   2.947   4.141  1.6876  1.7663 -0.0169
   64CHL1  H15B 5862   1.400   3.112   4.131  1.9683 -1.4584 -1.3931
   64CHL1   C16 5863   1.309   3.000   4.307 -0.2058 -0.5739  0.0219
   64CHL1  H16A 5864   1.389   2.947   4.362  1.6269  1.3137 -0.6978
   64CHL1  H16B 5865   1.295   3.099   4.354 -0.9249  0.0868 -1.5111
   64CHL1   C17 5866   1.174   2.924   4.294  0.1472 -0.2062  0.2508
   64CHL1   H17 5867   1.106   3.012   4.286  0.2792  0.0648  1.7841
   64CHL1   C13 5868   1.159   2.859   4.164  0.4275  0.3713  0.0277
   64CHL1   C18 5869   1.234   2.724   4.171  0.1476 -0.1149 -0.3976
   64CHL1  H18A 5870   1.335   2.737   4.215  0.5682  0.3784 -1.4904
   64CHL1  H18B 5871   1.184   2.651   4.239 -0.5998  1.9747  1.4133
   64CHL1  H18C 5872   1.236   2.671   4.073 -2.8663 -0.7219 -0.2490
   64CHL1   C12 5873   1.021   2.846   4.106  0.2518 -0.1128  0.1368
   64CHL1  H12A 5874   0.961   2.768   4.158 -2.1371  1.3932 -0.2053
   64CHL1  H12B 5875   0.964   2.940   4.123  0.0922 -0.3803  1.0956
   64CHL1   C11 5876   1.020   2.811   3.956 -0.5692 -0.6520 -0.1976
   64CHL1  H11A 5877   1.058   2.706   3.953 -0.7103 -0.8055  2.0908
   64CHL1  H11B 5878   0.916   2.829   3.922 -0.6970  0.3200  0.6580
   64CHL1    C9 5879   1.119   2.895   3.872 -0.0776  0.0617 -0.7473
   64CHL1    H9 5880   1.084   3.000   3.870  1.0601  0.5361  1.3662
   64CHL1   C10 5881   1.135   2.854   3.727 -0.0730  0.8603  0.5736
   64CHL1   C19 5882   1.155   2.697   3.717  0.5813  0.2206  0.6221
   64CHL1  H19A 5883   1.072   2.643   3.768  1.3207 -1.3711  0.1735
   64CHL1  H19B 5884   1.155   2.655   3.614 -2.7727 -1.3028  1.1099
   64CHL1  H19C 5885   1.248   2.656   3.762  0.9134 -0.9413 -1.0482
   64CHL1    C1 5886   1.005   2.894   3.653 -0.4989  0.9842  0.1300
   64CHL1   H1A 5887   0.932   2.824   3.698  0.0196 -0.2132 -0.8436
   64CHL1   H1B 5888   0.976   2.999   3.676  0.5717  1.0541  1.2129
   64CHL1    C2 5889   1.009   2.872   3.502 -0.1744  0.3405 -0.0521
   64CHL1   H2A 5890   0.907   2.890   3.460 -0.4551  0.5719  0.7071
   64CHL1   H2B 5891   1.028   2.765   3.479  0.3645  0.2847  0.6371
   64CHL1   C20 5892   1.127   2.858   4.421  0.6692 -0.0491  0.7833
   64CHL1   H20 5893   1.035   2.799   4.400  0.2538  1.7634 -3.5343
   64CHL1   C21 5894   1.073   2.966   4.515 -0.5319 -0.0666  0.1799
   64CHL1  H21A 5895   1.037   2.922   4.610  1.8948 -1.2744  0.6404
   64CHL1  H21B 5896   1.002   3.037   4.467  0.2102 -0.1526 -1.1107
   64CHL1  H21C 5897   1.160   3.030   4.540  0.7829  0.4830 -4.7060
   64CHL1   C22 5898   1.230   2.770   4.495 -0.2943  0.6471  0.2894
   64CHL1  H22A 5899   1.279   2.705   4.420  0.1128  1.8914 -0.5579
   64CHL1  H22B 5900   1.308   2.831   4.546  1.5009 -0.1561 -1.3703
   64CHL1   C23 5901   1.166   2.671   4.595  0.3382 -0.1304 -0.3822
   64CHL1  H23A 5902   1.107   2.731   4.668 -0.1310 -1.1937  0.1218
   64CHL1  H23B 5903   1.102   2.607   4.531 -1.3420  0.3093  0.7836
   64CHL1   C24 5904   1.273   2.583   4.650  0.4900  0.4645 -0.0877
   64CHL1  H24A 5905   1.343   2.535   4.578  3.6139  2.6611  1.2479
   64CHL1  H24B 5906   1.348   2.643   4.705  1.4370 -0.1000 -0.7366
   64CHL1   C25 5907   1.232   2.481   4.756 -0.0684  0.3436  0.1175
   64CHL1   H25 5908   1.145   2.423   4.717  0.9814 -0.0712 -1.7223
   64CHL1   C26 5909   1.351   2.387   4.778  0.4650  0.0747  0.1032
   64CHL1  H26A 5910   1.438   2.452   4.800  1.1684 -0.0989 -1.8956
   64CHL1  H26B 5911   1.338   2.330   4.872  0.9868  0.5091  0.4433
   64CHL1  H26C 5912   1.373   2.309   4.702 -1.2384  0.0546 -0.3909
   64CHL1   C27 5913   1.194   2.546   4.893 -0.0351 -0.3471 -0.0625
   64CHL1  H27A 5914   1.285   2.599   4.928 -0.3404  0.4434 -0.4449
   64CHL1  H27B 5915   1.107   2.614   4.895  1.6254  1.8896  1.5174
   64CHL1  H27C 5916   1.168   2.465   4.964  1.0624  1.0556  2.0213
   65CHL1    C3 5917   0.336   6.405   3.731 -0.4212 -0.5837 -0.1815
   65CHL1    H3 5918   0.420   6.458   3.779 -0.6759  1.0914 -1.5032
   65CHL1    O3 5919   0.363   6.405   3.591 -0.4320 -0.0191  0.3615
   65CHL1   H3' 5920   0.309   6.340   3.545  1.4879 -0.5533 -1.2733
   65CHL1    C4 5921   0.322   6.259   3.778  0.2754 -0.1864  0.3067
   65CHL1   H4A 5922   0.238   6.219   3.716  0.2130  0.7332 -0.2170
   65CHL1   H4B 5923   0.411   6.201   3.746  0.5194  0.4779 -0.2457
   65CHL1    C5 5924   0.292   6.241   3.920  0.3209  0.8426 -0.0062
   65CHL1    C6 5925   0.359   6.170   4.014 -0.2855 -0.4148  0.0351
   65CHL1    H6 5926   0.453   6.124   3.979 -0.0998  1.6643 -2.5771
   65CHL1    C7 5927   0.313   6.156   4.157  0.6903  0.5448  0.1153
   65CHL1   H7A 5928   0.308   6.050   4.189  0.3586  0.4750 -0.1579
   65CHL1   H7B 5929   0.377   6.209   4.231 -0.0592  0.0681  1.1295
   65CHL1    C8 5930   0.171   6.203   4.186 -0.1005 -0.0906  0.4990
   65CHL1    H8 5931   0.103   6.120   4.157  0.4287 -0.0110 -1.0905
   65CHL1   C14 5932   0.158   6.234   4.337 -0.2516  0.4672  0.4713
   65CHL1   H14 5933   0.241   6.305   4.356  0.8894 -0.7311  0.1301
   65CHL1   C15 5934   0.189   6.116   4.430 -0.4913 -1.1800 -0.4451
   65CHL1  H15A 5935   0.152   6.017   4.397 -1.5255 -1.3554  1.1579
   65CHL1  H15B 5936   0.300   6.106   4.431 -0.2028  1.0826 -1.5894
   65CHL1   C16 5937   0.142   6.165   4.567 -0.0953  0.3109 -0.1309
   65CHL1  H16A 5938   0.092   6.085   4.625 -0.3754  0.2875 -0.4015
   65CHL1  H16B 5939   0.225   6.195   4.635 -0.1636 -2.6860  1.4214
   65CHL1   C17 5940   0.057   6.293   4.535  0.5989 -0.2063  0.1972
   65CHL1   H17 5941   0.122   6.382   4.544  0.2869  0.2260 -1.4755
   65CHL1   C13 5942   0.023   6.291   4.384  0.1910 -0.5400 -0.1935
   65CHL1   C18 5943  -0.085   6.177   4.372  0.1937  0.0718 -0.2924
   65CHL1  H18A 5944  -0.065   6.087   4.434  1.1912 -0.1189 -0.8703
   65CHL1  H18B 5945  -0.187   6.213   4.397  1.2579  2.0350  1.5265
   65CHL1  H18C 5946  -0.081   6.137   4.268  1.1545  0.3559 -0.3736
   65CHL1   C12 5947   0.002   6.420   4.309  0.0248 -0.5166  0.1921
   65CHL1  H12A 5948  -0.097   6.465   4.333  0.0063 -0.7335  0.5287
   65CHL1  H12B 5949   0.084   6.493   4.327 -0.6756  0.4733 -0.5289
   65CHL1   C11 5950   0.004   6.396   4.158  0.9887 -0.5106  0.0674
   65CHL1  H11A 5951  -0.083   6.331   4.134  0.8479  0.2923 -1.8204
   65CHL1  H11B 5952  -0.011   6.495   4.110  1.1174 -0.0108  1.0387
   65CHL1    C9 5953   0.141   6.337   4.111  0.5949 -0.0586 -0.1434
   65CHL1    H9 5954   0.223   6.406   4.142 -0.6614  0.9281  1.0966
   65CHL1   C10 5955   0.156   6.317   3.955 -0.4945 -0.1322  0.3374
   65CHL1   C19 5956   0.045   6.229   3.907  0.5788  0.7488 -0.1759
   65CHL1  H19A 5957   0.067   6.199   3.802  0.4825  1.1400 -0.3115
   65CHL1  H19B 5958   0.044   6.129   3.956  1.6160  0.3510 -0.9135
   65CHL1  H19C 5959  -0.050   6.287   3.906  0.4972  0.7063  1.5850
   65CHL1    C1 5960   0.168   6.461   3.898  0.4369  0.2785  0.3313
   65CHL1   H1A 5961   0.076   6.519   3.923  0.0180  0.6216 -1.8004
   65CHL1   H1B 5962   0.253   6.509   3.950 -0.3397  0.6834  1.2726
   65CHL1    C2 5963   0.198   6.473   3.748 -0.6981  0.4651 -0.2329
   65CHL1   H2A 5964   0.182   6.579   3.718 -1.4061  0.4437  0.0554
   65CHL1   H2B 5965   0.127   6.410   3.690  0.7767  0.6512 -2.3401
   65CHL1   C20 5966  -0.061   6.311   4.641 -0.2388 -0.3469 -0.6587
   65CHL1   H20 5967  -0.103   6.208   4.647  0.5389 -0.7132 -1.2213
   65CHL1   C21 5968  -0.172   6.415   4.599 -0.8082  0.2622  0.0463
   65CHL1  H21A 5969  -0.124   6.516   4.597 -2.8378  1.2795 -0.4922
   65CHL1  H21B 5970  -0.254   6.425   4.673 -0.7012 -2.0494  0.5462
   65CHL1  H21C 5971  -0.225   6.388   4.505 -1.1726 -0.8092  0.5449
   65CHL1   C22 5972  -0.000   6.344   4.780  0.7013  0.1004  0.2675
   65CHL1  H22A 5973   0.096   6.289   4.793  0.3198 -0.4396  0.8247
   65CHL1  H22B 5974   0.008   6.455   4.782 -1.7980  0.3378  1.2191
   65CHL1   C23 5975  -0.081   6.288   4.902  0.4003 -0.5054 -0.1423
   65CHL1  H23A 5976  -0.037   6.342   4.989  1.2472  0.4292 -1.1120
   65CHL1  H23B 5977  -0.182   6.333   4.887  0.5588 -0.0870  0.0272
   65CHL1   C24 5978  -0.088   6.137   4.911 -0.1856 -0.3280 -0.1783
   65CHL1  H24A 5979  -0.103   6.088   4.812 -2.1244  1.4227 -0.8114
   65CHL1  H24B 5980   0.012   6.105   4.947 -0.5594 -0.8625  0.4161
   65CHL1   C25 5981  -0.182   6.079   5.013 -0.5876 -0.4189  0.1453
   65CHL1   H25 5982  -0.178   5.969   5.001  0.7062 -0.5488  1.4508
   65CHL1   C26 5983  -0.146   6.109   5.162  0.3480 -0.4468  0.6000
   65CHL1  H26A 5984  -0.038   6.086   5.176  0.5726 -1.3666 -1.9852
   65CHL1  H26B 5985  -0.154   6.219   5.176  1.7201 -0.0956 -1.0270
   65CHL1  H26C 5986  -0.219   6.064   5.233  0.7136 -0.5523  0.9120
   65CHL1   C27 5987  -0.327   6.114   4.976 -0.2953 -0.7228  0.0388
   65CHL1  H27A 5988  -0.341   6.210   5.030  1.9238 -0.1090 -0.3384
   65CHL1  H27B 5989  -0.343   6.125   4.866 -0.1756  1.7570  0.2167
   65CHL1  H27C 5990  -0.397   6.035   5.011  1.0308 -2.1033 -0.2873
   66CHL1    C3 5991   4.369   1.039   3.298  0.0070 -0.0466  0.9570
   66CHL1    H3 5992   4.277   0.981   3.322 -0.6119  0.4305 -0.2119
   66CHL1    O3 5993   4.400   1.018   3.163 -0.0029  0.2977  0.1416
   66CHL1   H3' 5994   4.466   1.080   3.131  1.2838 -2.0457 -2.1475
   66CHL1    C4 5995   4.331   1.187   3.321 -0.2930  0.1323  0.1415
   66CHL1   H4A 5996   4.409   1.251   3.273 -0.2765  0.9646  1.2457
   66CHL1   H4B 5997   4.245   1.204   3.252 -0.2766  0.3947  0.1862
   66CHL1    C5 5998   4.305   1.223   3.467 -0.4057  0.5283  0.5876
   66CHL1    C6 5999   4.191   1.282   3.505  0.5278  0.3449 -0.3407
   66CHL1    H6 6000   4.128   1.314   3.420 -0.8420  1.3722  1.0041
   66CHL1    C7 6001   4.154   1.315   3.646 -0.3542 -0.1052 -0.3785
   66CHL1   H7A 6002   4.099   1.412   3.648 -0.3709 -0.1231  0.1395
   66CHL1   H7B 6003   4.082   1.237   3.679 -0.5053  0.3508  0.3934
   66CHL1    C8 6004   4.278   1.318   3.731  0.9491  0.0571  0.2920
   66CHL1    H8 6005   4.342   1.404   3.703 -0.8477  0.0595 -4.6855
   66CHL1   C14 6006   4.248   1.320   3.877  0.0663  0.0741  0.0430
   66CHL1   H14 6007   4.201   1.220   3.892 -2.4451  1.2164  0.4370
   66CHL1   C15 6008   4.149   1.428   3.919  0.2091  0.4830  0.3335
   66CHL1  H15A 6009   4.176   1.531   3.888  3.8142 -0.0629  1.2076
   66CHL1  H15B 6010   4.043   1.406   3.894 -0.1521  1.0708  1.3136
   66CHL1   C16 6011   4.167   1.429   4.072 -0.1328 -0.2196  0.2831
   66CHL1  H16A 6012   4.199   1.530   4.105 -1.2646  0.1304  0.3528
   66CHL1  H16B 6013   4.073   1.421   4.131 -0.1691 -1.1929  0.1047
   66CHL1   C17 6014   4.283   1.329   4.112 -0.7353 -0.6773 -0.6976
   66CHL1   H17 6015   4.226   1.234   4.125 -3.1155  0.3899 -2.4446
   66CHL1   C13 6016   4.365   1.321   3.977 -0.0531  0.4159  0.6329
   66CHL1   C18 6017   4.446   1.456   3.962  1.1047 -0.3989 -0.2048
   66CHL1  H18A 6018   4.389   1.550   3.978 -1.1242 -1.6101 -0.5154
   66CHL1  H18B 6019   4.517   1.454   4.048  0.2407  2.8280  0.7284
   66CHL1  H18C 6020   4.490   1.450   3.861  1.6430 -0.1158  0.0120
   66CHL1   C12 6021   4.454   1.196   3.946 -0.5777 -0.2414 -0.4017
   66CHL1  H12A 6022   4.545   1.183   4.008  1.3649  0.0941 -3.0090
   66CHL1  H12B 6023   4.396   1.104   3.968  1.2900 -1.8675 -1.8757
   66CHL1   C11 6024   4.494   1.192   3.798  0.1675  0.1231 -0.1063
   66CHL1  H11A 6025   4.559   1.278   3.771  0.6723  0.0353  0.8140
   66CHL1  H11B 6026   4.556   1.101   3.792 -2.3880 -1.8129  1.1436
   66CHL1    C9 6027   4.368   1.193   3.702  0.5504  0.1370 -0.0636
   66CHL1    H9 6028   4.312   1.100   3.722 -1.2651  1.1990  0.0064
   66CHL1   C10 6029   4.417   1.177   3.558  0.4184  0.8606  0.1968
   66CHL1   C19 6030   4.546   1.260   3.521  0.2588  0.6317 -0.1662
   66CHL1  H19A 6031   4.628   1.231   3.591 -0.1999  0.1413  0.1779
   66CHL1  H19B 6032   4.580   1.230   3.419 -1.7110  2.0123 -1.2822
   66CHL1  H19C 6033   4.520   1.368   3.522 -6.0397 -0.5041  0.2624
   66CHL1    C1 6034   4.448   1.025   3.536 -1.0891  0.2539 -0.2433
   66CHL1   H1A 6035   4.540   0.993   3.590 -0.1571 -1.0317 -2.4604
   66CHL1   H1B 6036   4.379   0.949   3.579 -0.3835  0.7230  1.8361
   66CHL1    C2 6037   4.481   0.988   3.389 -0.3458 -0.2827  0.4899
   66CHL1   H2A 6038   4.479   0.878   3.374  2.4059 -0.5359  1.3450
   66CHL1   H2B 6039   4.582   1.019   3.356 -1.5799  2.6321 -0.9281
   66CHL1   C20 6040   4.354   1.367   4.243 -0.7845  0.3989 -0.2602
   66CHL1   H20 6041   4.418   1.458   4.230  0.8616 -0.7445 -0.5049
   66CHL1   C21 6042   4.453   1.249   4.279  0.9173  0.0125 -0.1184
   66CHL1  H21A 6043   4.481   1.259   4.386  1.7586  0.0222 -0.3353
   66CHL1  H21B 6044   4.552   1.266   4.232  0.4561  0.9298 -0.7895
   66CHL1  H21C 6045   4.412   1.146   4.277 -0.4593  0.5224  0.1027
   66CHL1   C22 6046   4.257   1.396   4.362  0.3940  0.1398  0.2666
   66CHL1  H22A 6047   4.186   1.475   4.328 -0.7131 -0.3247  1.4105
   66CHL1  H22B 6048   4.201   1.302   4.384  0.9796 -0.4018 -0.4799
   66CHL1   C23 6049   4.325   1.459   4.490  0.5225 -0.4385 -0.2628
   66CHL1  H23A 6050   4.405   1.394   4.532 -0.7385 -1.6210  0.3752
   66CHL1  H23B 6051   4.381   1.548   4.455  0.5787 -0.0668  0.7507
   66CHL1   C24 6052   4.221   1.489   4.601  0.3786 -0.4896  0.1673
   66CHL1  H24A 6053   4.152   1.560   4.551 -0.1191 -0.8242  0.3696
   66CHL1  H24B 6054   4.159   1.401   4.630  0.9633 -1.2496 -0.8356
   66CHL1   C25 6055   4.289   1.555   4.725  0.0167  0.5243  0.1041
   66CHL1   H25 6056   4.358   1.635   4.691 -1.2531  1.2240 -0.8830
   66CHL1   C26 6057   4.183   1.602   4.819 -0.2075  0.4596  0.0122
   66CHL1  H26A 6058   4.145   1.699   4.781  3.2425  2.2922  0.8273
   66CHL1  H26B 6059   4.106   1.525   4.839  0.8942 -0.6616  0.0729
   66CHL1  H26C 6060   4.239   1.617   4.914 -0.1209  1.7449 -0.2192
   66CHL1   C27 6061   4.381   1.449   4.791  0.6125  0.2600 -0.7293
   66CHL1  H27A 6062   4.443   1.497   4.870  1.6704 -0.6441 -0.9894
   66CHL1  H27B 6063   4.443   1.399   4.714  0.4402  0.5118 -1.0367
   66CHL1  H27C 6064   4.311   1.371   4.827 -0.9113  1.9378  0.1035
   67CHL1    C3 6065   2.781   4.169   3.310  0.0943  0.8937 -0.6971
   67CHL1    H3 6066   2.731   4.261   3.347 -0.5765  0.3390 -0.2134
   67CHL1    O3 6067   2.787   4.174   3.170 -0.2173  0.2402  0.8898
   67CHL1   H3' 6068   2.848   4.244   3.145  0.0675 -0.4185 -0.3565
   67CHL1    C4 6069   2.919   4.129   3.348  0.4039  0.1236 -0.0115
   67CHL1   H4A 6070   2.930   4.029   3.300  1.0637  0.9703 -1.7210
   67CHL1   H4B 6071   3.001   4.187   3.300 -0.3380  0.6751 -0.6147
   67CHL1    C5 6072   2.919   4.124   3.503 -0.4302  0.7274  0.9390
   67CHL1    C6 6073   2.988   4.215   3.573 -0.3457 -0.2127  0.6074
   67CHL1    H6 6074   3.050   4.290   3.522  1.9517 -0.3221  3.0629
   67CHL1    C7 6075   2.990   4.210   3.720 -0.2789 -0.3790 -0.5563
   67CHL1   H7A 6076   3.087   4.248   3.762 -0.9724  1.7596 -0.7532
   67CHL1   H7B 6077   2.919   4.287   3.757  1.2680  0.4849  0.7542
   67CHL1    C8 6078   2.943   4.077   3.782 -0.1590  0.4486  0.3753
   67CHL1    H8 6079   3.021   4.002   3.756 -1.8144 -0.6255 -1.8543
   67CHL1   C14 6080   2.925   4.101   3.929 -0.1498 -0.0822 -0.0453
   67CHL1   H14 6081   2.840   4.172   3.938 -0.1944 -0.2433  0.8595
   67CHL1   C15 6082   3.038   4.153   4.015  0.2574 -0.4461  0.0186
   67CHL1  H15A 6083   3.138   4.106   4.001  0.0459 -1.4157  1.4719
   67CHL1  H15B 6084   3.053   4.263   4.002  0.8378 -0.5228  0.0096
   67CHL1   C16 6085   3.005   4.119   4.159 -0.7527  1.0166  0.0504
   67CHL1  H16A 6086   3.092   4.065   4.202 -0.6619  0.5731 -0.6653
   67CHL1  H16B 6087   2.984   4.203   4.229  2.6742  1.5052  0.7028
   67CHL1   C17 6088   2.880   4.024   4.152 -0.0507 -0.9806  0.2531
   67CHL1   H17 6089   2.804   4.104   4.155  1.3461  0.4853 -1.3067
   67CHL1   C13 6090   2.875   3.978   4.007 -0.2325 -0.6360 -0.2547
   67CHL1   C18 6091   2.962   3.857   4.001  0.1023  0.2855  0.5763
   67CHL1  H18A 6092   3.046   3.865   4.073  0.5043  1.9835 -0.0521
   67CHL1  H18B 6093   2.910   3.763   4.031  0.5041 -0.9926 -2.3474
   67CHL1  H18C 6094   2.998   3.829   3.900 -1.1238 -1.6302  0.6167
   67CHL1   C12 6095   2.736   3.932   3.947  0.3201  0.6685 -0.3793
   67CHL1  H12A 6096   2.714   3.835   3.996 -0.7293 -0.7875 -3.5190
   67CHL1  H12B 6097   2.651   4.002   3.960  0.7031  1.1030 -0.2021
   67CHL1   C11 6098   2.743   3.907   3.789  0.0821 -0.0189  0.1217
   67CHL1  H11A 6099   2.797   3.810   3.775  1.2793  0.6793 -0.2608
   67CHL1  H11B 6100   2.641   3.896   3.747  0.3748  1.7159 -1.1366
   67CHL1    C9 6101   2.813   4.026   3.717 -0.4432 -0.7171  0.3623
   67CHL1    H9 6102   2.749   4.115   3.738  0.5937  0.3736 -0.9279
   67CHL1   C10 6103   2.830   4.015   3.564  0.2531 -0.1881  0.6024
   67CHL1   C19 6104   2.884   3.868   3.528  1.0840  0.2899  0.2997
   67CHL1  H19A 6105   2.897   3.862   3.418  0.9145  3.0665  0.0420
   67CHL1  H19B 6106   2.972   3.843   3.591 -0.6126 -1.7368  2.0272
   67CHL1  H19C 6107   2.802   3.797   3.554  0.4702  2.0769  3.9270
   67CHL1    C1 6108   2.689   4.044   3.506  0.2374 -0.2111  0.2845
   67CHL1   H1A 6109   2.620   3.963   3.540 -1.0674  0.7120 -0.0827
   67CHL1   H1B 6110   2.647   4.135   3.554 -0.1439  0.2786 -0.9500
   67CHL1    C2 6111   2.687   4.056   3.356 -0.1091  0.2606  0.7981
   67CHL1   H2A 6112   2.584   4.079   3.321  0.2309  0.8201  0.1511
   67CHL1   H2B 6113   2.723   3.968   3.299 -1.8394  0.7233 -1.1568
   67CHL1   C20 6114   2.850   3.933   4.276 -0.5686  0.1196  0.4376
   67CHL1   H20 6115   2.916   3.843   4.277 -2.4917 -1.3946  2.8033
   67CHL1   C21 6116   2.715   3.871   4.259 -0.4748  0.5069 -0.4672
   67CHL1  H21A 6117   2.694   3.788   4.189  0.7629 -0.6905  0.5405
   67CHL1  H21B 6118   2.634   3.948   4.253 -1.8669 -0.6660  1.8069
   67CHL1  H21C 6119   2.702   3.821   4.357  1.8015 -0.4005 -0.5768
   67CHL1   C22 6120   2.867   4.011   4.408  0.3074 -0.0365 -0.3810
   67CHL1  H22A 6121   2.975   4.039   4.413 -0.1920  2.0058 -0.0064
   67CHL1  H22B 6122   2.803   4.101   4.403  0.3763  0.0288 -0.1020
   67CHL1   C23 6123   2.820   3.937   4.537  0.0287  0.0638  0.0661
   67CHL1  H23A 6124   2.710   3.951   4.545  0.2180  1.1505  0.9248
   67CHL1  H23B 6125   2.845   3.829   4.530 -1.5728 -0.4343  1.4372
   67CHL1   C24 6126   2.886   3.999   4.661  0.1017  0.1967  0.3906
   67CHL1  H24A 6127   2.995   3.985   4.644  0.3576  0.7318  1.5154
   67CHL1  H24B 6128   2.868   4.108   4.650 -1.5238 -0.2043 -1.7046
   67CHL1   C25 6129   2.838   3.951   4.796  0.5018  0.4376 -0.0262
   67CHL1   H25 6130   2.736   3.990   4.816  0.4179 -0.1740  0.8342
   67CHL1   C26 6131   2.839   3.799   4.803  0.0702  0.3069 -0.2219
   67CHL1  H26A 6132   2.820   3.763   4.907 -0.5780  1.7040  0.1700
   67CHL1  H26B 6133   2.769   3.757   4.728  0.4151 -1.4058  0.3715
   67CHL1  H26C 6134   2.939   3.759   4.777  0.5756  1.6549 -0.4338
   67CHL1   C27 6135   2.914   4.001   4.920 -0.3399 -0.6332 -0.1694
   67CHL1  H27A 6136   2.926   4.111   4.907 -0.8051 -0.5949 -0.2998
   67CHL1  H27B 6137   2.849   3.989   5.009 -3.6876  0.6693 -2.2509
   67CHL1  H27C 6138   3.011   3.949   4.933 -0.5746 -0.7692  1.1359
   68CHL1    C3 6139   0.989   4.437   3.369  0.0674 -0.1069 -0.4291
   68CHL1    H3 6140   1.028   4.334   3.362 -0.0226 -0.0816 -1.4761
   68CHL1    O3 6141   0.981   4.484   3.245 -0.2538 -0.2366  0.0156
   68CHL1   H3' 6142   1.075   4.484   3.222 -0.2713  1.7007 -0.1618
   68CHL1    C4 6143   0.856   4.441   3.437  0.2209 -0.6094  0.1158
   68CHL1   H4A 6144   0.832   4.548   3.418  1.5904 -0.5772 -1.7531
   68CHL1   H4B 6145   0.782   4.380   3.380  0.7288 -1.0059 -0.1242
   68CHL1    C5 6146   0.849   4.409   3.585  0.7304 -0.6227  0.8537
   68CHL1    C6 6147   0.763   4.312   3.623  0.4414  0.4989  0.6362
   68CHL1    H6 6148   0.699   4.258   3.552 -0.5958  0.1015  1.8185
   68CHL1    C7 6149   0.744   4.281   3.774  0.2294  0.1413  0.0165
   68CHL1   H7A 6150   0.640   4.283   3.812  0.2648 -0.2081  0.1376
   68CHL1   H7B 6151   0.780   4.177   3.793 -0.6714 -0.0156  0.9282
   68CHL1    C8 6152   0.832   4.374   3.862  0.3397 -0.6252 -0.2028
   68CHL1    H8 6153   0.773   4.468   3.871  0.8590 -0.2222 -0.9639
   68CHL1   C14 6154   0.853   4.302   3.996 -0.3566 -0.0995  1.1899
   68CHL1   H14 6155   0.898   4.206   3.964 -1.8355 -1.0472  1.8447
   68CHL1   C15 6156   0.724   4.258   4.063  0.2149 -0.0404  0.0276
   68CHL1  H15A 6157   0.649   4.340   4.059 -0.6634 -0.6648  2.2541
   68CHL1  H15B 6158   0.671   4.168   4.027  0.3208  0.2860 -0.9936
   68CHL1   C16 6159   0.768   4.242   4.208 -0.2932 -0.3407  0.7166
   68CHL1  H16A 6160   0.700   4.300   4.273 -2.0605 -2.1058  0.5384
   68CHL1  H16B 6161   0.752   4.138   4.243 -0.0952 -0.4686  0.4313
   68CHL1   C17 6162   0.918   4.293   4.227 -0.4776  0.6559  0.2737
   68CHL1   H17 6163   0.970   4.195   4.216 -1.1272  0.0668  2.0187
   68CHL1   C13 6164   0.939   4.377   4.099  1.2321  0.4035  0.4288
   68CHL1   C18 6165   0.869   4.511   4.139  0.2841  0.1493  0.6873
   68CHL1  H18A 6166   0.768   4.493   4.181  0.5910 -2.1145  0.6041
   68CHL1  H18B 6167   0.935   4.558   4.215  0.7273 -1.7956  1.5880
   68CHL1  H18C 6168   0.862   4.593   4.064  0.5007 -0.6695 -0.2479
   68CHL1   C12 6169   1.078   4.399   4.038  0.1891 -0.6495  0.3459
   68CHL1  H12A 6170   1.148   4.443   4.113  1.7785 -1.6449 -0.4986
   68CHL1  H12B 6171   1.119   4.300   4.009  0.0295 -0.9335  1.0506
   68CHL1   C11 6172   1.056   4.485   3.915 -0.5199  0.1766  0.4993
   68CHL1  H11A 6173   1.017   4.587   3.932 -0.3744  0.2118  0.6247
   68CHL1  H11B 6174   1.155   4.511   3.872 -0.0906  1.6894  2.2788
   68CHL1    C9 6175   0.972   4.412   3.807  0.4293  0.0084 -0.6520
   68CHL1    H9 6176   1.025   4.315   3.799  0.2516 -0.0479 -1.1993
   68CHL1   C10 6177   0.960   4.483   3.673 -0.1496 -1.1039  0.6428
   68CHL1   C19 6178   0.930   4.626   3.689  0.1921 -0.2689 -0.3368
   68CHL1  H19A 6179   0.920   4.680   3.593 -2.1562  0.1928  0.1110
   68CHL1  H19B 6180   0.839   4.654   3.745  0.0574 -0.8095 -0.2773
   68CHL1  H19C 6181   1.016   4.683   3.732  0.3897 -0.8761  0.0937
   68CHL1    C1 6182   1.095   4.471   3.598 -0.0747 -0.6683 -0.2508
   68CHL1   H1A 6183   1.160   4.543   3.652 -2.2286  0.6910  0.6540
   68CHL1   H1B 6184   1.135   4.368   3.609 -0.8661 -0.9011  0.6130
   68CHL1    C2 6185   1.092   4.511   3.448 -0.0416  0.5522  0.1333
   68CHL1   H2A 6186   1.191   4.497   3.400 -0.5312 -0.0062 -0.7467
   68CHL1   H2B 6187   1.066   4.619   3.434 -0.7068  0.1833 -1.8786
   68CHL1   C20 6188   0.957   4.340   4.364  0.6934  0.5875 -0.0249
   68CHL1   H20 6189   0.905   4.436   4.387 -0.3961 -0.2384  1.0673
   68CHL1   C21 6190   1.108   4.365   4.372  0.1379  0.1301  0.2204
   68CHL1  H21A 6191   1.168   4.276   4.343 -0.3302 -0.0306 -0.2584
   68CHL1  H21B 6192   1.143   4.391   4.474 -1.0536  0.2830  0.6077
   68CHL1  H21C 6193   1.140   4.451   4.310 -0.7309  0.3703  0.0907
   68CHL1   C22 6194   0.900   4.238   4.473 -0.2241  0.3656  0.2961
   68CHL1  H22A 6195   0.790   4.231   4.464 -0.0838  0.0242 -1.4170
   68CHL1  H22B 6196   0.941   4.135   4.466  0.9419  0.8736 -0.8802
   68CHL1   C23 6197   0.907   4.287   4.620 -0.2626  0.1300  0.2151
   68CHL1  H23A 6198   1.015   4.289   4.647  0.2067 -0.5226 -1.4755
   68CHL1  H23B 6199   0.854   4.385   4.628 -1.0508 -0.3972  1.7979
   68CHL1   C24 6200   0.850   4.184   4.712  0.8671 -0.4316 -0.5536
   68CHL1  H24A 6201   0.743   4.175   4.682  0.4228  0.4968  0.6637
   68CHL1  H24B 6202   0.901   4.087   4.693  0.3493 -0.2823 -3.0196
   68CHL1   C25 6203   0.844   4.228   4.862  0.0107 -0.5589 -0.4206
   68CHL1   H25 6204   0.950   4.244   4.893 -0.3658  1.0002  0.1581
   68CHL1   C26 6205   0.767   4.357   4.893 -0.0761  0.5524 -0.0462
   68CHL1  H26A 6206   0.659   4.346   4.873  0.0049 -1.2698  0.4099
   68CHL1  H26B 6207   0.787   4.395   4.995  0.1686 -0.0663  0.1411
   68CHL1  H26C 6208   0.813   4.433   4.825  0.8248 -1.6898 -2.0891
   68CHL1   C27 6209   0.796   4.124   4.955  0.7222  0.0051 -0.1012
   68CHL1  H27A 6210   0.686   4.106   4.951  0.4141  1.6260  0.4764
   68CHL1  H27B 6211   0.853   4.036   4.919 -2.3160 -1.0998 -2.6911
   68CHL1  H27C 6212   0.812   4.146   5.063  0.2993 -3.1686  0.7310
   69CHL1    C3 6213   4.034   2.842   3.391  0.1740 -0.6851  0.0560
   69CHL1    H3 6214   3.924   2.831   3.400  0.3949 -1.4057  2.7914
   69CHL1    O3 6215   4.053   2.908   3.267 -0.0601  0.3215 -0.2507
   69CHL1   H3' 6216   3.980   2.900   3.206  0.5029  1.4402 -1.1102
   69CHL1    C4 6217   4.081   2.935   3.505  0.4039 -0.4961  1.0428
   69CHL1   H4A 6218   4.187   2.969   3.495  0.0224  0.2256 -1.0103
   69CHL1   H4B 6219   4.018   3.025   3.496 -1.0439 -1.6098 -0.5667
   69CHL1    C5 6220   4.075   2.861   3.637  0.0732 -0.2169  0.4110
   69CHL1    C6 6221   4.006   2.922   3.737 -0.0774 -0.1916 -0.6891
   69CHL1    H6 6222   3.970   3.024   3.718  0.8363  0.5594  1.3673
   69CHL1    C7 6223   3.997   2.872   3.878  0.3464 -0.1908 -1.0315
   69CHL1   H7A 6224   4.027   2.956   3.944  0.3643 -0.9473 -0.0577
   69CHL1   H7B 6225   3.895   2.838   3.904  0.8914 -2.3336 -1.4764
   69CHL1    C8 6226   4.082   2.742   3.899 -0.4870 -0.4382 -0.4406
   69CHL1    H8 6227   4.184   2.777   3.924  0.2249 -1.3747 -1.8870
   69CHL1   C14 6228   4.035   2.659   4.024  0.1167  0.7403  0.3212
   69CHL1   H14 6229   3.939   2.612   3.992 -0.4057  2.6246 -1.0490
   69CHL1   C15 6230   3.994   2.729   4.151 -0.0346 -0.0499 -0.4198
   69CHL1  H15A 6231   4.069   2.809   4.166 -0.2620  0.5091 -2.0534
   69CHL1  H15B 6232   3.897   2.781   4.168  0.7126  0.8333  1.3488
   69CHL1   C16 6233   4.000   2.622   4.259 -0.2612 -0.0285  0.0002
   69CHL1  H16A 6234   4.065   2.640   4.348 -1.9131  1.3995  0.9975
   69CHL1  H16B 6235   3.898   2.608   4.301 -0.3711 -2.6232 -0.9691
   69CHL1   C17 6236   4.039   2.491   4.185 -0.2377  0.3019 -0.2069
   69CHL1   H17 6237   3.945   2.446   4.146  0.2868  0.6956 -1.9918
   69CHL1   C13 6238   4.112   2.536   4.059  0.3007  0.0901  0.2863
   69CHL1   C18 6239   4.255   2.584   4.100 -0.5161 -0.2883  0.1402
   69CHL1  H18A 6240   4.259   2.657   4.184 -0.6179  3.1045 -2.5595
   69CHL1  H18B 6241   4.332   2.513   4.138 -0.9589 -0.0693  1.5246
   69CHL1  H18C 6242   4.307   2.630   4.013  0.0230 -1.4682 -0.1854
   69CHL1   C12 6243   4.117   2.444   3.939  0.4239 -0.6201 -0.8642
   69CHL1  H12A 6244   4.189   2.363   3.963  1.1656  0.1758 -0.3626
   69CHL1  H12B 6245   4.014   2.405   3.926  1.2307 -2.8290 -0.9272
   69CHL1   C11 6246   4.157   2.508   3.806  0.5890  0.3735 -0.3617
   69CHL1  H11A 6247   4.266   2.526   3.817  0.4829 -0.3237  2.9748
   69CHL1  H11B 6248   4.132   2.440   3.722  0.6325 -1.9436  1.3861
   69CHL1    C9 6249   4.091   2.646   3.775  0.6384 -0.1215  0.0932
   69CHL1    H9 6250   3.990   2.602   3.764  0.6743 -0.4383  0.9999
   69CHL1   C10 6251   4.127   2.720   3.647  0.0944 -0.4955 -0.2772
   69CHL1   C19 6252   4.282   2.720   3.641  0.3351  0.5161  0.8339
   69CHL1  H19A 6253   4.336   2.623   3.630  0.9292  0.9240  0.1133
   69CHL1  H19B 6254   4.307   2.770   3.545 -0.6638  0.4805  0.5523
   69CHL1  H19C 6255   4.327   2.779   3.724  2.4689  0.7164 -0.3788
   69CHL1    C1 6256   4.075   2.635   3.529  0.6412 -0.1388  0.2497
   69CHL1   H1A 6257   4.125   2.536   3.525 -2.0356 -1.5463 -0.7235
   69CHL1   H1B 6258   3.967   2.619   3.550  1.1653 -3.4305  1.0461
   69CHL1    C2 6259   4.094   2.705   3.391 -0.3447 -0.3680 -0.2391
   69CHL1   H2A 6260   4.048   2.639   3.315  0.5041  0.4923 -1.5435
   69CHL1   H2B 6261   4.201   2.723   3.364 -0.3040  0.1055  0.2060
   69CHL1   C20 6262   4.102   2.386   4.282 -0.1429 -0.2790 -0.4924
   69CHL1   H20 6263   4.204   2.425   4.304 -0.0227  0.7829 -2.6936
   69CHL1   C21 6264   4.105   2.245   4.218  0.4105 -0.4224 -0.1464
   69CHL1  H21A 6265   4.014   2.210   4.165 -0.1596 -0.0804  0.5948
   69CHL1  H21B 6266   4.134   2.171   4.295 -0.7095 -1.4674 -0.7024
   69CHL1  H21C 6267   4.189   2.245   4.145  0.2929  3.1660 -0.4581
   69CHL1   C22 6268   4.021   2.368   4.416  0.0847 -0.2224  0.2122
   69CHL1  H22A 6269   3.990   2.468   4.454  0.6487 -0.1011  0.3628
   69CHL1  H22B 6270   3.929   2.308   4.400 -0.6917  0.8449  0.5596
   69CHL1   C23 6271   4.105   2.310   4.528 -0.1117 -0.4517  0.6733
   69CHL1  H23A 6272   4.130   2.206   4.499  2.2528 -0.2966  1.9098
   69CHL1  H23B 6273   4.197   2.371   4.542 -1.5760  1.6212  1.7043
   69CHL1   C24 6274   4.031   2.299   4.661 -1.1623 -0.1311 -0.6265
   69CHL1  H24A 6275   3.934   2.248   4.644 -1.1819 -0.4618  0.4161
   69CHL1  H24B 6276   4.103   2.240   4.722 -1.4828  0.3630  0.2634
   69CHL1   C25 6277   3.999   2.436   4.734  0.4523 -0.3131 -0.3896
   69CHL1   H25 6278   3.936   2.497   4.667 -0.1979  1.0924  1.4150
   69CHL1   C26 6279   3.914   2.398   4.852 -0.1959  0.0683 -0.0249
   69CHL1  H26A 6280   3.841   2.320   4.820  0.5305 -0.5575 -0.1993
   69CHL1  H26B 6281   3.984   2.352   4.925 -0.7063  0.2641  0.5953
   69CHL1  H26C 6282   3.876   2.479   4.917  3.0083 -0.8113  3.2433
   69CHL1   C27 6283   4.130   2.513   4.778  0.1453  0.2639  0.3165
   69CHL1  H27A 6284   4.100   2.603   4.836 -0.6078  0.1381  0.1330
   69CHL1  H27B 6285   4.182   2.451   4.853 -2.0505 -1.0642  0.8456
   69CHL1  H27C 6286   4.188   2.538   4.687  1.0975 -0.7386  0.6336
   70CHL1    C3 6287   1.446   6.685   3.690 -0.6492  0.0731 -0.0023
   70CHL1    H3 6288   1.375   6.611   3.733 -1.6546  1.1959  0.3184
   70CHL1    O3 6289   1.448   6.703   3.551  0.4184  0.2055  0.6645
   70CHL1   H3' 6290   1.503   6.776   3.520  1.6250 -1.0265 -0.2439
   70CHL1    C4 6291   1.411   6.814   3.766 -0.6213  0.2308 -1.0828
   70CHL1   H4A 6292   1.461   6.904   3.724 -1.8756  1.7174  0.4978
   70CHL1   H4B 6293   1.306   6.832   3.736 -1.5084 -0.7532  1.2386
   70CHL1    C5 6294   1.432   6.798   3.910 -0.6981 -0.6433 -0.7529
   70CHL1    C6 6295   1.335   6.802   3.999  0.0448 -0.1365 -0.8183
   70CHL1    H6 6296   1.231   6.819   3.965  0.1512 -0.4633 -1.3204
   70CHL1    C7 6297   1.360   6.802   4.151 -0.4749  0.6193 -0.0864
   70CHL1   H7A 6298   1.311   6.881   4.212  2.3736  1.3474  1.4537
   70CHL1   H7B 6299   1.317   6.703   4.179  1.8530 -0.1470  1.0577
   70CHL1    C8 6300   1.506   6.815   4.196  0.4795  0.6578  0.5255
   70CHL1    H8 6301   1.537   6.922   4.200 -0.1442  0.8225  1.1033
   70CHL1   C14 6302   1.527   6.760   4.340 -0.7704  0.4263  0.8593
   70CHL1   H14 6303   1.509   6.651   4.358 -0.5455  0.5712  1.9930
   70CHL1   C15 6304   1.446   6.828   4.455 -0.1707 -0.5264 -0.0583
   70CHL1  H15A 6305   1.443   6.939   4.442 -3.1082 -0.5421 -0.1827
   70CHL1  H15B 6306   1.341   6.793   4.460 -1.0366  1.9553  0.9285
   70CHL1   C16 6307   1.522   6.804   4.586  0.3506 -0.0152 -0.0591
   70CHL1  H16A 6308   1.542   6.901   4.635 -2.4492  0.8514 -0.4677
   70CHL1  H16B 6309   1.464   6.734   4.652 -0.7938  1.9388  1.1029
   70CHL1   C17 6310   1.654   6.742   4.543 -1.1497  0.0087  0.5349
   70CHL1   H17 6311   1.647   6.632   4.533 -1.9732  0.1569 -0.7289
   70CHL1   C13 6312   1.675   6.786   4.393 -0.1985  0.8519  0.4491
   70CHL1   C18 6313   1.721   6.932   4.392 -0.1350 -0.5075 -0.0878
   70CHL1  H18A 6314   1.670   6.998   4.466  0.0311  0.3149 -0.6973
   70CHL1  H18B 6315   1.828   6.935   4.422  0.0193 -2.2222 -0.3607
   70CHL1  H18C 6316   1.719   6.979   4.291  3.8008  2.3483  0.8897
   70CHL1   C12 6317   1.758   6.695   4.301 -0.0660 -0.7573 -0.6015
   70CHL1  H12A 6318   1.863   6.691   4.337 -0.3261 -3.1560  0.0572
   70CHL1  H12B 6319   1.720   6.592   4.314 -0.2905 -0.8947 -2.1750
   70CHL1   C11 6320   1.743   6.733   4.154 -0.0748  0.4818 -0.0673
   70CHL1  H11A 6321   1.787   6.835   4.150 -1.0420  0.8778 -0.8832
   70CHL1  H11B 6322   1.800   6.667   4.085 -0.4874  0.1805 -0.1225
   70CHL1    C9 6323   1.593   6.736   4.102 -0.1191  0.4261  0.1352
   70CHL1    H9 6324   1.555   6.632   4.099 -1.3299  0.8663 -0.6668
   70CHL1   C10 6325   1.580   6.777   3.948  0.2949 -1.4770 -0.5431
   70CHL1   C19 6326   1.661   6.905   3.905 -0.2336 -0.8495  0.5650
   70CHL1  H19A 6327   1.769   6.887   3.921 -0.2508  0.3408  2.3237
   70CHL1  H19B 6328   1.642   6.928   3.798 -3.1224 -1.0680  0.9315
   70CHL1  H19C 6329   1.636   6.996   3.964 -0.2770 -0.9443  0.6948
   70CHL1    C1 6330   1.626   6.643   3.866  0.4187  0.1294 -0.1417
   70CHL1   H1A 6331   1.735   6.631   3.876  0.4954 -0.1406 -1.1399
   70CHL1   H1B 6332   1.579   6.553   3.912 -2.6340  1.6713  0.0217
   70CHL1    C2 6333   1.597   6.641   3.716  0.5622 -0.1315  0.5799
   70CHL1   H2A 6334   1.612   6.536   3.681  0.5154 -0.6677  2.1173
   70CHL1   H2B 6335   1.668   6.708   3.664 -1.6776 -0.5494 -3.4186
   70CHL1   C20 6336   1.760   6.780   4.643 -0.6528  0.7618 -1.2118
   70CHL1   H20 6337   1.775   6.890   4.647 -0.0220  0.6438  1.8911
   70CHL1   C21 6338   1.893   6.717   4.606 -0.1301  0.8579 -0.1473
   70CHL1  H21A 6339   1.866   6.618   4.564  0.3886  0.5201  0.2853
   70CHL1  H21B 6340   1.952   6.702   4.700 -2.9107  1.2290  1.7840
   70CHL1  H21C 6341   1.957   6.775   4.536  1.4301 -0.2859  0.2628
   70CHL1   C22 6342   1.729   6.749   4.794 -0.0043 -0.2697  0.3438
   70CHL1  H22A 6343   1.816   6.783   4.855  1.7939 -1.8430 -1.2031
   70CHL1  H22B 6344   1.646   6.806   4.839  1.5755  3.2027 -0.7389
   70CHL1   C23 6345   1.703   6.597   4.822 -0.9165 -0.0064 -0.4768
   70CHL1  H23A 6346   1.607   6.569   4.774 -0.1979 -0.0296 -1.9746
   70CHL1  H23B 6347   1.774   6.546   4.753  0.2668  0.2185  0.5369
   70CHL1   C24 6348   1.698   6.552   4.970  0.7106  0.3717  0.0807
   70CHL1  H24A 6349   1.638   6.622   5.032 -0.8461 -0.0629 -0.8814
   70CHL1  H24B 6350   1.643   6.455   4.971  1.1114  0.1318 -0.7754
   70CHL1   C25 6351   1.833   6.532   5.035 -0.3384  0.0935  0.3544
   70CHL1   H25 6352   1.897   6.619   5.010 -1.6371  1.6963  2.2690
   70CHL1   C26 6353   1.818   6.529   5.191 -0.0113  0.3582 -0.6973
   70CHL1  H26A 6354   1.790   6.628   5.233 -0.3780 -0.1720  0.3515
   70CHL1  H26B 6355   1.742   6.456   5.225  0.9082  0.0418  0.7313
   70CHL1  H26C 6356   1.920   6.509   5.231  0.7468  1.3831 -2.0228
   70CHL1   C27 6357   1.901   6.398   4.986 -0.0516  0.4844 -0.5910
   70CHL1  H27A 6358   1.838   6.309   5.006  0.3846  0.4357  0.6650
   70CHL1  H27B 6359   1.921   6.407   4.877 -0.9094  2.0920 -0.6344
   70CHL1  H27C 6360   2.001   6.381   5.032 -0.7471 -1.7418  0.2421
   71CHL1    C3 6361   0.484   5.292   3.584  0.3670 -0.1245  0.1671
   71CHL1    H3 6362   0.571   5.226   3.606 -0.2192 -1.5429 -1.4943
   71CHL1    O3 6363   0.463   5.317   3.446  0.4191 -0.3157 -0.1744
   71CHL1   H3' 6364   0.370   5.336   3.430  0.8108  2.1672  0.0299
   71CHL1    C4 6365   0.360   5.214   3.629  0.6201 -0.1232 -0.5984
   71CHL1   H4A 6366   0.274   5.284   3.620  3.7337  4.0008 -1.0489
   71CHL1   H4B 6367   0.329   5.124   3.572 -0.4657 -0.0258 -0.1946
   71CHL1    C5 6368   0.368   5.192   3.782  0.3106  0.0140  0.7615
   71CHL1    C6 6369   0.363   5.067   3.831  0.2507  0.2555  0.4168
   71CHL1    H6 6370   0.342   4.984   3.762  0.1105 -0.3058  1.1220
   71CHL1    C7 6371   0.352   5.038   3.977 -0.6248 -0.0205  0.6004
   71CHL1   H7A 6372   0.277   4.963   4.012  0.1931 -1.6501 -0.9829
   71CHL1   H7B 6373   0.442   4.982   4.009 -0.6130  0.4662  1.4597
   71CHL1    C8 6374   0.349   5.160   4.074 -0.2620 -0.3794  0.4201
   71CHL1    H8 6375   0.247   5.203   4.080 -0.3918 -0.5259 -0.5428
   71CHL1   C14 6376   0.402   5.125   4.209  0.1223  0.5554 -0.5762
   71CHL1   H14 6377   0.509   5.093   4.200 -0.0126  0.2939 -1.3076
   71CHL1   C15 6378   0.344   5.008   4.290  0.1965  0.1034 -0.6254
   71CHL1  H15A 6379   0.233   5.014   4.282  0.0254 -1.7865 -0.1114
   71CHL1  H15B 6380   0.377   4.913   4.243  1.5415  1.0176 -1.6135
   71CHL1   C16 6381   0.372   5.030   4.438 -0.4183 -0.0713 -0.0724
   71CHL1  H16A 6382   0.278   5.040   4.495 -1.2056 -0.9813 -1.1653
   71CHL1  H16B 6383   0.431   4.941   4.470  1.7935  1.4946  0.4737
   71CHL1   C17 6384   0.449   5.168   4.442 -0.2585 -0.1298  0.4290
   71CHL1   H17 6385   0.555   5.138   4.425 -0.8135 -1.6227 -0.5507
   71CHL1   C13 6386   0.410   5.238   4.310  0.1282 -0.0339  0.4741
   71CHL1   C18 6387   0.265   5.304   4.335  0.6007 -0.1615 -0.2013
   71CHL1  H18A 6388   0.267   5.379   4.417 -3.4852 -0.4998  0.4430
   71CHL1  H18B 6389   0.211   5.347   4.248  0.2445 -2.5650 -1.2615
   71CHL1  H18C 6390   0.200   5.218   4.363 -1.7835  1.4462 -0.4767
   71CHL1   C12 6391   0.500   5.347   4.250  0.2555 -0.2160 -0.8414
   71CHL1  H12A 6392   0.512   5.437   4.314 -0.6925 -0.0373 -0.8928
   71CHL1  H12B 6393   0.603   5.306   4.254 -0.5630 -2.3473  0.0168
   71CHL1   C11 6394   0.472   5.395   4.108 -0.0330  0.1380  0.0255
   71CHL1  H11A 6395   0.379   5.456   4.104  1.2360  2.1412 -0.1207
   71CHL1  H11B 6396   0.552   5.468   4.085 -0.8555  0.7631 -0.9289
   71CHL1    C9 6397   0.444   5.275   4.016  0.2026 -0.0199 -0.2094
   71CHL1    H9 6398   0.537   5.215   4.013  0.2834  0.0057  1.1244
   71CHL1   C10 6399   0.398   5.311   3.872 -0.0015 -0.1764 -0.6894
   71CHL1   C19 6400   0.265   5.404   3.885  0.1574  0.3878  0.7268
   71CHL1  H19A 6401   0.186   5.361   3.950 -0.1307  0.2924  0.3192
   71CHL1  H19B 6402   0.296   5.505   3.919  2.4188 -0.3926  1.1268
   71CHL1  H19C 6403   0.219   5.416   3.784  0.3896  0.7382  0.6623
   71CHL1    C1 6404   0.509   5.395   3.812 -0.3304  0.3409 -0.6127
   71CHL1   H1A 6405   0.523   5.495   3.860 -0.0634  0.7618 -1.5382
   71CHL1   H1B 6406   0.608   5.345   3.824 -0.2471 -0.1966 -3.0809
   71CHL1    C2 6407   0.507   5.421   3.667  0.0738  0.0490 -1.1680
   71CHL1   H2A 6408   0.596   5.471   3.624  1.6886 -1.4859  0.2221
   71CHL1   H2B 6409   0.416   5.481   3.642  0.3043  0.4699 -1.0054
   71CHL1   C20 6410   0.424   5.234   4.576 -0.1521 -0.2949 -0.6661
   71CHL1   H20 6411   0.317   5.263   4.588 -0.0068  0.8362 -1.8694
   71CHL1   C21 6412   0.503   5.355   4.595  0.7777 -0.0075  0.8894
   71CHL1  H21A 6413   0.492   5.393   4.699 -1.4209  0.4493  0.5358
   71CHL1  H21B 6414   0.469   5.434   4.524  2.0381  1.2240  1.6202
   71CHL1  H21C 6415   0.613   5.352   4.578  0.3416 -1.1955 -2.6166
   71CHL1   C22 6416   0.455   5.132   4.692  0.1035 -0.5275  0.4518
   71CHL1  H22A 6417   0.397   5.039   4.671  0.4802 -0.7090  0.2151
   71CHL1  H22B 6418   0.560   5.097   4.679  0.4113 -0.1102  1.6695
   71CHL1   C23 6419   0.428   5.179   4.835 -0.4071  0.1137  0.6472
   71CHL1  H23A 6420   0.484   5.270   4.867  3.5993 -1.1208 -2.1135
   71CHL1  H23B 6421   0.321   5.209   4.838 -0.9366 -1.5006 -0.7246
   71CHL1   C24 6422   0.443   5.072   4.940  0.5264  0.2744 -0.7618
   71CHL1  H24A 6423   0.377   4.984   4.921  1.6529 -0.9619  0.8059
   71CHL1  H24B 6424   0.546   5.032   4.951  0.6185  1.2861  3.5464
   71CHL1   C25 6425   0.406   5.119   5.079  0.2570 -0.5787  0.7001
   71CHL1   H25 6426   0.303   5.159   5.068  1.4250  2.1043 -2.0518
   71CHL1   C26 6427   0.388   5.012   5.187 -0.4169 -0.7650  0.2985
   71CHL1  H26A 6428   0.311   4.932   5.173 -0.8851 -0.3863  0.6813
   71CHL1  H26B 6429   0.480   4.951   5.197 -0.6368 -1.7263 -2.6854
   71CHL1  H26C 6430   0.362   5.062   5.282 -0.4817  2.5175 -1.3201
   71CHL1   C27 6431   0.495   5.227   5.137 -0.1930 -0.6492  0.6927
   71CHL1  H27A 6432   0.601   5.198   5.121 -0.4398 -1.2590  0.1320
   71CHL1  H27B 6433   0.483   5.329   5.093 -0.0353 -1.2707 -0.8470
   71CHL1  H27C 6434   0.487   5.224   5.248  2.0883 -2.4954  0.8857
   72CHL1    C3 6435   5.898   4.636   3.487 -0.4474 -0.0942 -0.1380
   72CHL1    H3 6436   5.959   4.717   3.531 -0.4643 -0.7384  1.1310
   72CHL1    O3 6437   5.916   4.640   3.345 -0.0991  0.5077 -0.2793
   72CHL1   H3' 6438   5.999   4.685   3.329  0.1764 -0.1171 -0.6349
   72CHL1    C4 6439   5.924   4.498   3.556 -0.3099 -0.4399  0.7612
   72CHL1   H4A 6440   5.885   4.411   3.500 -0.6731 -0.2047  0.6449
   72CHL1   H4B 6441   6.034   4.492   3.545 -0.5541 -0.7927 -2.6285
   72CHL1    C5 6442   5.895   4.495   3.705  0.0802 -0.1838 -0.2798
   72CHL1    C6 6443   5.982   4.441   3.784 -0.4612 -0.2675  0.0469
   72CHL1    H6 6444   6.068   4.391   3.736 -1.7980 -4.4337  1.5626
   72CHL1    C7 6445   5.966   4.426   3.936 -0.1651  0.0677  0.1404
   72CHL1   H7A 6446   6.008   4.327   3.965  1.1949 -0.2164 -2.4566
   72CHL1   H7B 6447   6.023   4.505   3.989 -0.7550  1.2607 -0.9589
   72CHL1    C8 6448   5.820   4.455   3.973  0.3022  0.6921 -0.7409
   72CHL1    H8 6449   5.769   4.356   3.967  1.7574 -0.2990  1.6380
   72CHL1   C14 6450   5.805   4.500   4.119 -0.5757  0.7415  0.7473
   72CHL1   H14 6451   5.851   4.600   4.124 -0.0905  0.6122 -0.6593
   72CHL1   C15 6452   5.896   4.415   4.214  0.2329  0.7600 -0.7856
   72CHL1  H15A 6453   5.898   4.306   4.192  0.7424  0.8626 -1.2840
   72CHL1  H15B 6454   6.004   4.442   4.218 -0.8232  5.8081  0.4764
   72CHL1   C16 6455   5.831   4.435   4.355  0.2753  0.2491 -0.1897
   72CHL1  H16A 6456   5.804   4.334   4.393  0.7856 -0.4826 -1.6822
   72CHL1  H16B 6457   5.905   4.484   4.422  0.3333  2.5874 -1.8588
   72CHL1   C17 6458   5.703   4.523   4.335 -0.1782 -0.4725  0.7400
   72CHL1   H17 6459   5.716   4.631   4.360  0.0664 -0.4482  0.5086
   72CHL1   C13 6460   5.670   4.511   4.181 -0.3628 -0.0500 -0.1243
   72CHL1   C18 6461   5.609   4.369   4.164  0.1366 -0.1251  0.0582
   72CHL1  H18A 6462   5.661   4.293   4.225 -0.5199  0.2264  1.0885
   72CHL1  H18B 6463   5.505   4.373   4.204 -1.0819 -2.9623 -2.4114
   72CHL1  H18C 6464   5.596   4.348   4.055 -0.2172 -0.8361  0.2356
   72CHL1   C12 6465   5.591   4.621   4.103 -0.6741 -0.3732  0.0338
   72CHL1  H12A 6466   5.484   4.622   4.133 -0.5335  0.2118  0.5320
   72CHL1  H12B 6467   5.642   4.718   4.122  1.6929 -1.1849 -1.7413
   72CHL1   C11 6468   5.604   4.594   3.954 -0.7517  0.7114 -0.2018
   72CHL1  H11A 6469   5.534   4.510   3.932  0.8856 -0.2465 -2.0548
   72CHL1  H11B 6470   5.553   4.678   3.902  0.6787  0.7813 -1.5537
   72CHL1    C9 6471   5.750   4.566   3.895  0.0386  0.1045 -0.1442
   72CHL1    H9 6472   5.803   4.663   3.909 -1.0335  0.5720  0.9132
   72CHL1   C10 6473   5.755   4.541   3.742 -0.5947 -0.2440 -0.0290
   72CHL1   C19 6474   5.663   4.424   3.707 -0.1403  0.4106  0.0829
   72CHL1  H19A 6475   5.643   4.410   3.599  0.4736  1.7583 -0.2253
   72CHL1  H19B 6476   5.690   4.329   3.758  0.8595  1.1613  1.0120
   72CHL1  H19C 6477   5.559   4.449   3.736  0.4990  2.8915  0.4717
   72CHL1    C1 6478   5.721   4.679   3.668  0.1935  0.3940  0.0860
   72CHL1   H1A 6479   5.613   4.697   3.684 -0.1250 -0.3483 -1.0694
   72CHL1   H1B 6480   5.778   4.762   3.713  1.5462 -0.0447 -0.7347
   72CHL1    C2 6481   5.751   4.682   3.513  0.2055  0.2106 -0.0102
   72CHL1   H2A 6482   5.729   4.781   3.466 -1.5333 -1.6357 -3.5175
   72CHL1   H2B 6483   5.674   4.623   3.458 -1.7613  0.7961  1.9756
   72CHL1   C20 6484   5.600   4.491   4.448  0.1345  0.2996 -0.5395
   72CHL1   H20 6485   5.579   4.382   4.433 -1.9055  0.8332 -2.0038
   72CHL1   C21 6486   5.463   4.569   4.437 -1.0687  0.6007  0.0450
   72CHL1  H21A 6487   5.400   4.518   4.361  1.8845 -1.1795 -1.3877
   72CHL1  H21B 6488   5.480   4.674   4.404 -2.8624  0.4427 -1.5214
   72CHL1  H21C 6489   5.392   4.564   4.523  1.4946 -1.6375  2.2072
   72CHL1   C22 6490   5.660   4.500   4.597  0.2835 -0.4633  0.0297
   72CHL1  H22A 6491   5.573   4.460   4.652 -0.8938 -0.2033 -1.5616
   72CHL1  H22B 6492   5.741   4.425   4.610 -1.8850 -2.7292  1.4742
   72CHL1   C23 6493   5.717   4.635   4.634  0.2729 -0.4345  0.6043
   72CHL1  H23A 6494   5.814   4.644   4.582 -0.6410 -2.8860 -1.8027
   72CHL1  H23B 6495   5.647   4.715   4.601 -0.8472 -0.7558  2.0927
   72CHL1   C24 6496   5.748   4.659   4.784  0.7979  0.0150  0.5410
   72CHL1  H24A 6497   5.649   4.651   4.834  0.0614  0.9136 -0.7149
   72CHL1  H24B 6498   5.809   4.580   4.833 -0.9041 -2.0029 -0.4861
   72CHL1   C25 6499   5.803   4.804   4.817 -0.0447 -0.0821  0.0004
   72CHL1   H25 6500   5.797   4.813   4.927 -0.7524  1.0465 -0.1196
   72CHL1   C26 6501   5.949   4.813   4.768 -0.3223 -0.5596 -0.3409
   72CHL1  H26A 6502   5.959   4.817   4.658  0.2166 -0.5120 -0.2949
   72CHL1  H26B 6503   5.980   4.916   4.798 -0.4339 -0.6511  0.0953
   72CHL1  H26C 6504   6.009   4.732   4.815  0.0437 -0.2309 -0.2373
   72CHL1   C27 6505   5.719   4.924   4.769 -0.0640  0.6381 -0.0890
   72CHL1  H27A 6506   5.716   4.937   4.659 -0.8997 -1.9183 -0.4331
   72CHL1  H27B 6507   5.613   4.913   4.802 -0.9273  3.1657 -1.7293
   72CHL1  H27C 6508   5.752   5.019   4.815 -0.8319  1.8031 -1.8341
   73CHL1    C3 6509   0.067   5.720   3.429  0.6318 -0.6718 -0.1049
   73CHL1    H3 6510   0.048   5.611   3.416  1.2495 -0.6567 -1.2500
   73CHL1    O3 6511   0.070   5.780   3.299  0.3171 -0.4054  0.1257
   73CHL1   H3' 6512   0.158   5.752   3.272  1.3022  2.5960 -0.1673
   73CHL1    C4 6513  -0.057   5.780   3.497  1.1602 -0.3257 -0.1014
   73CHL1   H4A 6514  -0.041   5.889   3.484  3.1584 -0.2411  2.2079
   73CHL1   H4B 6515  -0.143   5.739   3.440  1.0116  0.2365 -0.2851
   73CHL1    C5 6516  -0.071   5.748   3.647  0.1159 -0.0143  0.4728
   73CHL1    C6 6517  -0.184   5.690   3.692  0.1703 -0.4784 -0.1624
   73CHL1    H6 6518  -0.264   5.660   3.624  0.7087 -0.6030 -0.7462
   73CHL1    C7 6519  -0.218   5.652   3.829 -0.2631 -0.2359 -0.2759
   73CHL1   H7A 6520  -0.308   5.700   3.873  0.3770 -0.8513  1.8380
   73CHL1   H7B 6521  -0.239   5.543   3.833  2.2531 -0.7721  0.1509
   73CHL1    C8 6522  -0.098   5.684   3.926  0.1250  0.8141 -0.1282
   73CHL1    H8 6523  -0.120   5.790   3.950 -0.5831  0.3454  1.4345
   73CHL1   C14 6524  -0.105   5.615   4.061  0.4983  0.4244 -1.0873
   73CHL1   H14 6525  -0.062   5.514   4.048 -1.1746 -0.8714  2.3290
   73CHL1   C15 6526  -0.239   5.597   4.129  0.0653 -1.0347 -0.1925
   73CHL1  H15A 6527  -0.297   5.690   4.115  1.0930 -0.3615 -0.0816
   73CHL1  H15B 6528  -0.297   5.506   4.101 -0.6010 -0.9703  0.9234
   73CHL1   C16 6529  -0.201   5.567   4.275  0.5532  0.2885 -0.3170
   73CHL1  H16A 6530  -0.260   5.628   4.347  0.9870 -3.0872  3.2622
   73CHL1  H16B 6531  -0.229   5.465   4.307 -0.8114  1.1022  1.2356
   73CHL1   C17 6532  -0.050   5.594   4.290  0.3077  0.1927 -0.3999
   73CHL1   H17 6533  -0.008   5.493   4.273 -2.4025 -1.0355 -0.2429
   73CHL1   C13 6534  -0.008   5.674   4.167 -0.1869  0.3626 -0.1048
   73CHL1   C18 6535  -0.052   5.826   4.195  0.5208 -0.0823  0.1570
   73CHL1  H18A 6536  -0.162   5.838   4.186  0.6994  0.8879 -1.0547
   73CHL1  H18B 6537  -0.009   5.871   4.287 -0.8025  2.6460 -0.4731
   73CHL1  H18C 6538  -0.013   5.884   4.109 -1.5340 -1.7475 -2.0272
   73CHL1   C12 6539   0.132   5.665   4.116 -0.2512 -0.6473 -0.7922
   73CHL1  H12A 6540   0.202   5.717   4.185  1.6542 -2.0464 -1.5766
   73CHL1  H12B 6541   0.160   5.559   4.101  2.2056 -0.6905  2.7874
   73CHL1   C11 6542   0.152   5.736   3.978  1.2069  0.1984 -0.0839
   73CHL1  H11A 6543   0.158   5.844   4.003  0.8901 -0.2804  2.2639
   73CHL1  H11B 6544   0.251   5.704   3.938  2.3559 -0.1496  2.7920
   73CHL1    C9 6545   0.042   5.685   3.870 -0.5545  0.1617 -0.2174
   73CHL1    H9 6546   0.065   5.578   3.852 -2.2773  0.0231 -1.9926
   73CHL1   C10 6547   0.057   5.757   3.737 -0.0283 -0.8403 -0.0441
   73CHL1   C19 6548   0.069   5.904   3.759 -0.3718 -0.2873  0.0748
   73CHL1  H19A 6549   0.055   5.969   3.670 -2.2310 -2.8915 -1.6506
   73CHL1  H19B 6550  -0.013   5.934   3.829 -0.4458 -0.6630  0.1505
   73CHL1  H19C 6551   0.160   5.939   3.813 -0.0267  0.5848 -1.0343
   73CHL1    C1 6552   0.180   5.695   3.658  0.2616  0.2382  0.2246
   73CHL1   H1A 6553   0.262   5.725   3.727  0.4078  2.6335 -0.9040
   73CHL1   H1B 6554   0.179   5.586   3.642 -0.4454  0.4562 -1.3367
   73CHL1    C2 6555   0.191   5.751   3.513 -0.6229  0.4569  0.0621
   73CHL1   H2A 6556   0.280   5.708   3.463 -1.6630 -0.5207 -1.0127
   73CHL1   H2B 6557   0.211   5.860   3.512  0.5721  0.2978  1.9530
   73CHL1   C20 6558  -0.010   5.635   4.435 -0.7853  0.4231  0.5242
   73CHL1   H20 6559  -0.066   5.729   4.455 -0.8175  0.7216 -0.9101
   73CHL1   C21 6560   0.134   5.673   4.466 -0.3878 -0.2921  0.4126
   73CHL1  H21A 6561   0.203   5.587   4.479  1.0002  0.3965 -1.8256
   73CHL1  H21B 6562   0.150   5.741   4.553  3.1770 -0.2901 -0.1002
   73CHL1  H21C 6563   0.161   5.731   4.375 -1.7714 -2.6534 -1.6074
   73CHL1   C22 6564  -0.060   5.551   4.553 -0.7745 -0.0852  0.8088
   73CHL1  H22A 6565  -0.027   5.613   4.639 -0.4694  2.2662 -0.8950
   73CHL1  H22B 6566  -0.169   5.532   4.561 -0.5256 -2.0648  0.0614
   73CHL1   C23 6567   0.005   5.408   4.561  0.5702  0.3096 -0.3860
   73CHL1  H23A 6568  -0.014   5.354   4.466  0.9121  0.6807 -0.6650
   73CHL1  H23B 6569   0.114   5.424   4.557  0.3709  2.3528  1.0191
   73CHL1   C24 6570  -0.047   5.330   4.691  0.2597  0.2021 -0.4796
   73CHL1  H24A 6571  -0.024   5.393   4.779  1.1435  0.5641 -0.9506
   73CHL1  H24B 6572  -0.156   5.307   4.687  0.8419 -3.1405  0.1803
   73CHL1   C25 6573   0.025   5.193   4.711 -0.4677 -0.3690 -0.1600
   73CHL1   H25 6574   0.132   5.222   4.721 -0.9081  1.0195  0.8371
   73CHL1   C26 6575  -0.027   5.116   4.836 -0.3536  0.0147  0.0736
   73CHL1  H26A 6576   0.003   5.191   4.913  2.4011  0.5876 -1.4272
   73CHL1  H26B 6577  -0.138   5.103   4.831 -0.2202 -1.1206 -0.1478
   73CHL1  H26C 6578   0.020   5.018   4.855  0.7731 -0.0563 -2.6436
   73CHL1   C27 6579   0.020   5.106   4.582 -0.5466  0.7498  0.3074
   73CHL1  H27A 6580   0.102   5.032   4.600 -0.2819  0.7880 -0.6712
   73CHL1  H27B 6581  -0.084   5.069   4.569 -1.7609  4.3230 -1.6219
   73CHL1  H27C 6582   0.048   5.154   4.486 -0.7845 -2.2895 -1.4177
   74CHL1    C3 6583   6.443   5.224   3.410 -0.0962  0.1868 -0.1074
   74CHL1    H3 6584   6.363   5.148   3.418 -1.5021  1.6890  0.6906
   74CHL1    O3 6585   6.435   5.294   3.284 -0.2959  0.4480 -0.1238
   74CHL1   H3' 6586   6.481   5.231   3.227 -1.8751 -0.7837 -0.1171
   74CHL1    C4 6587   6.433   5.328   3.521  0.2847  0.5825  0.6373
   74CHL1   H4A 6588   6.508   5.410   3.509  0.4275  0.3526 -0.1002
   74CHL1   H4B 6589   6.333   5.376   3.519 -0.3310 -0.6114 -1.8384
   74CHL1    C5 6590   6.454   5.271   3.654  0.1298 -0.3627 -0.4801
   74CHL1    C6 6591   6.360   5.280   3.753 -0.2548 -0.2033 -0.3412
   74CHL1    H6 6592   6.268   5.331   3.720 -0.6494 -1.3463 -1.0797
   74CHL1    C7 6593   6.383   5.234   3.898 -1.1921 -0.4480 -0.2511
   74CHL1   H7A 6594   6.385   5.318   3.970 -0.5346 -2.2903  1.9983
   74CHL1   H7B 6595   6.311   5.154   3.924  1.1178 -2.2259  1.1097
   74CHL1    C8 6596   6.526   5.169   3.932  0.3893  0.3055  0.3295
   74CHL1    H8 6597   6.596   5.252   3.956 -0.0101  0.5678  0.5966
   74CHL1   C14 6598   6.529   5.065   4.044  0.3425 -0.3239  0.4523
   74CHL1   H14 6599   6.478   4.971   4.015 -0.8448  0.2475  0.6200
   74CHL1   C15 6600   6.453   5.102   4.183 -0.3931  0.6334  0.3283
   74CHL1  H15A 6601   6.455   5.212   4.195  1.3289  0.6709 -0.0199
   74CHL1  H15B 6602   6.349   5.065   4.168 -0.0281  0.0734 -0.9602
   74CHL1   C16 6603   6.528   5.013   4.286 -0.5199  0.8356  0.8587
   74CHL1  H16A 6604   6.584   5.092   4.341  1.2753  0.2515 -0.0422
   74CHL1  H16B 6605   6.472   4.956   4.363  2.2205 -2.1769  0.8074
   74CHL1   C17 6606   6.629   4.930   4.202 -0.1797  0.2442 -0.3804
   74CHL1   H17 6607   6.573   4.840   4.169  2.0414 -0.8521 -1.3785
   74CHL1   C13 6608   6.668   5.018   4.085 -0.6090 -0.6412  0.0365
   74CHL1   C18 6609   6.762   5.136   4.124  0.7872 -0.3870 -0.1758
   74CHL1  H18A 6610   6.862   5.102   4.158  1.9982  0.1096 -2.9732
   74CHL1  H18B 6611   6.787   5.206   4.042  0.9291 -0.0949  0.1185
   74CHL1  H18C 6612   6.715   5.196   4.205  0.5358  1.3837 -1.5656
   74CHL1   C12 6613   6.727   4.949   3.950  0.2288  0.5850  0.3984
   74CHL1  H12A 6614   6.828   4.938   3.994  0.0081  2.5934  1.5131
   74CHL1  H12B 6615   6.674   4.853   3.929 -0.7764  1.1722  0.1944
   74CHL1   C11 6616   6.737   5.042   3.834 -0.0371  0.3398 -0.2999
   74CHL1  H11A 6617   6.811   5.120   3.863  2.0953 -1.8545  0.4823
   74CHL1  H11B 6618   6.771   4.984   3.746  1.7685  0.1238  0.4945
   74CHL1    C9 6619   6.596   5.104   3.802  1.2091 -0.8993  0.0916
   74CHL1    H9 6620   6.524   5.025   3.772 -0.2341  0.9602 -1.5693
   74CHL1   C10 6621   6.589   5.190   3.669  0.8664 -0.3530  0.2456
   74CHL1   C19 6622   6.698   5.296   3.668  0.4714 -0.6050  0.0081
   74CHL1  H19A 6623   6.701   5.356   3.574  0.6023 -0.3529  0.1740
   74CHL1  H19B 6624   6.692   5.364   3.756 -0.9465 -0.5854 -0.0712
   74CHL1  H19C 6625   6.803   5.263   3.679  0.5578  0.5092  3.7751
   74CHL1    C1 6626   6.606   5.097   3.546 -0.3707  0.7328  0.8230
   74CHL1   H1A 6627   6.710   5.061   3.530 -1.7685 -2.6632 -1.8296
   74CHL1   H1B 6628   6.556   5.002   3.571  1.1916 -0.3770 -0.0477
   74CHL1    C2 6629   6.578   5.147   3.411 -0.2848  0.4709  0.1448
   74CHL1   H2A 6630   6.571   5.063   3.338 -1.2050  0.6712 -0.0172
   74CHL1   H2B 6631   6.668   5.203   3.377 -0.6142  0.2480 -1.1454
   74CHL1   C20 6632   6.748   4.872   4.293  0.4879 -0.2119  0.0782
   74CHL1   H20 6633   6.823   4.949   4.322  0.1831 -0.0168  0.3626
   74CHL1   C21 6634   6.811   4.753   4.205 -0.4041  0.0229 -0.1083
   74CHL1  H21A 6635   6.727   4.685   4.179 -1.5264  0.5784  1.8100
   74CHL1  H21B 6636   6.891   4.697   4.258 -1.3703 -0.9673  0.3281
   74CHL1  H21C 6637   6.849   4.787   4.106  0.9613 -0.6968  0.1481
   74CHL1   C22 6638   6.702   4.813   4.428 -1.0026 -0.4367  0.0028
   74CHL1  H22A 6639   6.653   4.895   4.484 -0.6373 -0.6431  0.6390
   74CHL1  H22B 6640   6.622   4.737   4.412 -0.3190 -1.1433 -0.1479
   74CHL1   C23 6641   6.819   4.748   4.508  0.1331  0.0261  0.5078
   74CHL1  H23A 6642   6.840   4.647   4.469  0.0864 -0.4397  1.6442
   74CHL1  H23B 6643   6.904   4.816   4.486  0.0201 -0.4495 -1.5617
   74CHL1   C24 6644   6.777   4.737   4.654 -0.5099  0.5196  0.0914
   74CHL1  H24A 6645   6.741   4.839   4.682 -2.3970 -0.4690  1.4898
   74CHL1  H24B 6646   6.691   4.668   4.662 -1.1054  1.4453  2.1571
   74CHL1   C25 6647   6.885   4.686   4.760  0.1035  0.4916  0.2031
   74CHL1   H25 6648   6.911   4.582   4.732  0.9478  0.2565  1.7562
   74CHL1   C26 6649   7.017   4.760   4.754  0.2119  0.3492 -0.2751
   74CHL1  H26A 6650   7.015   4.869   4.777 -0.1632  0.2467  0.1829
   74CHL1  H26B 6651   7.093   4.710   4.818  0.6652 -0.5254 -1.4665
   74CHL1  H26C 6652   7.048   4.759   4.647 -1.2520  1.9375 -0.7730
   74CHL1   C27 6653   6.830   4.688   4.901 -0.0253  0.1528  0.4972
   74CHL1  H27A 6654   6.813   4.788   4.947 -1.4368 -0.1518  0.6895
   74CHL1  H27B 6655   6.738   4.626   4.900 -0.7138  1.1357  1.0978
   74CHL1  H27C 6656   6.904   4.641   4.969 -0.8273 -1.3065  0.4079
   75CHL1    C3 6657   1.037   4.061   3.488  0.1853  0.0939 -0.0888
   75CHL1    H3 6658   0.979   4.148   3.526  0.1356 -0.6676  1.6891
   75CHL1    O3 6659   1.007   4.055   3.350  0.1236 -0.4048  0.3484
   75CHL1   H3' 6660   1.050   3.973   3.323  0.8280  0.1460 -0.2705
   75CHL1    C4 6661   1.191   4.072   3.516  0.5984 -0.3263 -0.1903
   75CHL1   H4A 6662   1.253   3.999   3.458  1.8090  0.9316 -0.5326
   75CHL1   H4B 6663   1.225   4.168   3.471  2.7673 -0.4291  1.0689
   75CHL1    C5 6664   1.221   4.066   3.667  0.0140 -0.1622 -0.0740
   75CHL1    C6 6665   1.296   4.161   3.731 -0.0609  0.4480  0.0574
   75CHL1    H6 6666   1.333   4.245   3.670  0.1299  0.1195 -0.2856
   75CHL1    C7 6667   1.336   4.141   3.870  0.4935  0.4800  0.1352
   75CHL1   H7A 6668   1.446   4.151   3.877  0.3748  0.9338  1.8577
   75CHL1   H7B 6669   1.297   4.233   3.918  1.4637  2.7774 -3.1282
   75CHL1    C8 6670   1.298   4.014   3.948  0.4751  0.2629  0.1343
   75CHL1    H8 6671   1.370   3.933   3.923 -1.3635 -1.7384  1.1488
   75CHL1   C14 6672   1.297   4.036   4.101  0.3028  0.2104 -0.2476
   75CHL1   H14 6673   1.205   4.094   4.124 -0.7016 -1.5176  0.2859
   75CHL1   C15 6674   1.405   4.119   4.168  0.2612  0.0706  0.1344
   75CHL1  H15A 6675   1.496   4.089   4.113 -0.3977  0.0717 -0.9846
   75CHL1  H15B 6676   1.385   4.228   4.178  2.7032  0.3781  3.6262
   75CHL1   C16 6677   1.403   4.063   4.312  0.4227 -0.1479  0.6168
   75CHL1  H16A 6678   1.495   4.018   4.355 -0.9676 -1.3705  2.4630
   75CHL1  H16B 6679   1.385   4.146   4.384  0.3564  0.4341 -0.0639
   75CHL1   C17 6680   1.294   3.958   4.327  0.2898 -0.3138 -0.1329
   75CHL1   H17 6681   1.199   4.006   4.359  0.1082 -2.0511  2.1390
   75CHL1   C13 6682   1.271   3.905   4.182 -0.2944 -0.5953  0.1993
   75CHL1   C18 6683   1.392   3.810   4.151 -0.4322  0.4543  0.1318
   75CHL1  H18A 6684   1.486   3.869   4.152  1.3385 -2.1772 -0.9359
   75CHL1  H18B 6685   1.414   3.732   4.228  0.6197  2.1948  1.6915
   75CHL1  H18C 6686   1.383   3.758   4.054 -1.1017 -0.6413  0.7527
   75CHL1   C12 6687   1.135   3.851   4.139 -0.1673  0.1871 -0.2970
   75CHL1  H12A 6688   1.126   3.744   4.169  0.3967  0.0959 -0.4425
   75CHL1  H12B 6689   1.051   3.909   4.184 -0.6899 -0.3680 -0.5444
   75CHL1   C11 6690   1.116   3.842   3.988  0.2030 -1.0534  0.5474
   75CHL1  H11A 6691   1.155   3.741   3.960 -0.0067 -0.9861 -0.0021
   75CHL1  H11B 6692   1.007   3.841   3.964  0.0315 -1.2817  1.3163
   75CHL1    C9 6693   1.165   3.963   3.898  0.6995 -0.4144 -0.1588
   75CHL1    H9 6694   1.093   4.044   3.923 -1.1126 -1.3149 -2.1743
   75CHL1   C10 6695   1.150   3.950   3.747 -0.2565 -0.3736  0.0832
   75CHL1   C19 6696   1.214   3.816   3.704  0.3283 -0.3809  0.4056
   75CHL1  H19A 6697   1.323   3.833   3.710  0.1036  1.3339  0.2775
   75CHL1  H19B 6698   1.178   3.733   3.768 -0.6161 -0.5162 -0.2837
   75CHL1  H19C 6699   1.184   3.790   3.600  0.7378 -0.4017  0.2944
   75CHL1    C1 6700   0.995   3.961   3.715  0.1205  0.2061 -0.3373
   75CHL1   H1A 6701   0.953   3.869   3.761 -1.7244  0.8537 -0.6213
   75CHL1   H1B 6702   0.947   4.054   3.754 -0.1177 -0.8387  2.0480
   75CHL1    C2 6703   0.962   3.951   3.562 -0.3468  1.1656 -0.1155
   75CHL1   H2A 6704   0.855   3.964   3.534 -0.1747 -1.1134 -2.1942
   75CHL1   H2B 6705   0.999   3.851   3.530 -0.0609  0.2400  2.7444
   75CHL1   C20 6706   1.314   3.863   4.445  0.5765  0.3045 -0.7805
   75CHL1   H20 6707   1.396   3.790   4.432 -0.2522 -1.4704  2.8313
   75CHL1   C21 6708   1.180   3.779   4.463 -0.0256 -0.2319  0.4191
   75CHL1  H21A 6709   1.201   3.736   4.564  3.5363 -0.1622 -0.1643
   75CHL1  H21B 6710   1.155   3.710   4.379  1.6227  0.9340 -1.0863
   75CHL1  H21C 6711   1.098   3.852   4.483  1.4328  1.4263  0.5745
   75CHL1   C22 6712   1.344   3.943   4.576 -0.3138 -0.0495  0.6182
   75CHL1  H22A 6713   1.407   4.033   4.558  0.0798 -0.6817 -1.3519
   75CHL1  H22B 6714   1.243   3.975   4.609 -0.3360  1.3574 -0.6909
   75CHL1   C23 6715   1.417   3.858   4.683  0.3482 -0.5205 -0.0345
   75CHL1  H23A 6716   1.380   3.754   4.690 -0.1302 -0.2116  3.5429
   75CHL1  H23B 6717   1.521   3.865   4.644 -0.7259  0.3807 -3.0362
   75CHL1   C24 6718   1.414   3.915   4.822 -0.6490 -0.4883 -0.5366
   75CHL1  H24A 6719   1.438   4.023   4.826 -0.4520 -0.5599  1.2066
   75CHL1  H24B 6720   1.313   3.904   4.869 -0.6557  0.8259 -0.2236
   75CHL1   C25 6721   1.523   3.859   4.924  0.0252 -0.9055  0.2630
   75CHL1   H25 6722   1.626   3.884   4.891 -0.3269  3.3359  1.7444
   75CHL1   C26 6723   1.516   3.923   5.064 -0.1019  0.0510  0.4092
   75CHL1  H26A 6724   1.592   3.875   5.129  2.0103  1.4552 -0.8787
   75CHL1  H26B 6725   1.538   4.032   5.061  0.5303 -0.0763  0.1397
   75CHL1  H26C 6726   1.416   3.916   5.111 -0.4896  2.0453 -0.0233
   75CHL1   C27 6727   1.511   3.710   4.944 -0.3925 -0.5831 -0.3227
   75CHL1  H27A 6728   1.417   3.692   5.001 -1.0261 -0.0726 -1.1823
   75CHL1  H27B 6729   1.508   3.652   4.849 -0.0689 -0.4863 -0.3929
   75CHL1  H27C 6730   1.596   3.664   5.000 -1.7609 -0.4299  2.0231
   76CHL1    C3 6731   4.225   4.117   3.519  0.1062  0.0663 -0.3650
   76CHL1    H3 6732   4.120   4.139   3.549  0.6988  0.1419  1.7776
   76CHL1    O3 6733   4.231   4.131   3.378  0.2321  0.0264  0.3090
   76CHL1   H3' 6734   4.323   4.135   3.350  0.0393  0.0602 -0.3369
   76CHL1    C4 6735   4.320   4.214   3.599  0.0698 -0.1573  0.5311
   76CHL1   H4A 6736   4.420   4.193   3.553 -0.6847  2.1151 -2.4257
   76CHL1   H4B 6737   4.299   4.318   3.568  1.3161 -0.6023 -2.1004
   76CHL1    C5 6738   4.310   4.183   3.751  0.4263 -0.6346  0.6118
   76CHL1    C6 6739   4.275   4.284   3.833  0.7487 -0.1510 -0.4681
   76CHL1    H6 6740   4.266   4.386   3.793  2.0119  0.0311 -0.3371
   76CHL1    C7 6741   4.274   4.262   3.983 -0.1360 -0.0934  0.0802
   76CHL1   H7A 6742   4.343   4.330   4.038  0.7164  0.9891 -2.1904
   76CHL1   H7B 6743   4.172   4.284   4.019 -0.3671 -1.5022  0.3180
   76CHL1    C8 6744   4.327   4.122   4.031  0.6719 -0.0666  0.5610
   76CHL1    H8 6745   4.437   4.131   4.037  0.4849  2.4018  1.5731
   76CHL1   C14 6746   4.269   4.095   4.172 -0.4152  0.0311 -0.4670
   76CHL1   H14 6747   4.159   4.086   4.169 -0.6276 -0.6772  3.6489
   76CHL1   C15 6748   4.306   4.209   4.270 -0.0073 -0.2947 -0.5833
   76CHL1  H15A 6749   4.402   4.250   4.231 -1.5043 -0.0218 -4.4160
   76CHL1  H15B 6750   4.234   4.294   4.270  0.7969  0.4443  1.6015
   76CHL1   C16 6751   4.300   4.138   4.407 -0.2192  0.6415 -0.0587
   76CHL1  H16A 6752   4.396   4.143   4.462 -0.3836  1.3198  0.1759
   76CHL1  H16B 6753   4.219   4.188   4.463 -1.5407  0.0796 -1.3868
   76CHL1   C17 6754   4.256   3.987   4.381 -0.7128 -0.2644 -0.2636
   76CHL1   H17 6755   4.146   3.994   4.365 -0.9103  1.1717  1.4720
   76CHL1   C13 6756   4.311   3.966   4.235 -0.5216 -0.7133 -0.1041
   76CHL1   C18 6757   4.463   3.955   4.243  0.0059 -0.4053  0.0236
   76CHL1  H18A 6758   4.483   3.856   4.288  0.1177 -0.2704  0.2747
   76CHL1  H18B 6759   4.514   3.965   4.145 -2.1436  1.6432 -1.0098
   76CHL1  H18C 6760   4.506   4.021   4.321  1.5560 -1.9474  0.5410
   76CHL1   C12 6761   4.264   3.850   4.146  0.1911  0.2536  0.1154
   76CHL1  H12A 6762   4.306   3.753   4.181  0.0733  0.2077  0.1323
   76CHL1  H12B 6763   4.154   3.862   4.143  0.3162  1.4466 -0.2542
   76CHL1   C11 6764   4.295   3.865   3.994 -0.3950 -0.4522  0.2131
   76CHL1  H11A 6765   4.399   3.828   3.978 -0.2099 -0.0422  0.4574
   76CHL1  H11B 6766   4.238   3.788   3.937  0.1934  1.0568 -2.5713
   76CHL1    C9 6767   4.279   4.008   3.940  0.0478  0.6103 -0.1230
   76CHL1    H9 6768   4.169   4.022   3.927 -0.0108 -0.3021 -0.7172
   76CHL1   C10 6769   4.326   4.032   3.795  0.2100  0.0806  0.5027
   76CHL1   C19 6770   4.477   4.008   3.778 -0.1219 -0.3621 -0.1663
   76CHL1  H19A 6771   4.507   3.902   3.787  0.7704 -0.2616 -1.5715
   76CHL1  H19B 6772   4.510   4.037   3.676 -1.9842 -1.4791 -1.1295
   76CHL1  H19C 6773   4.532   4.081   3.841 -1.9124  0.3065  0.6903
   76CHL1    C1 6774   4.245   3.937   3.700 -0.2129 -0.5188  0.2100
   76CHL1   H1A 6775   4.283   3.835   3.724  1.0037  0.2663  1.7659
   76CHL1   H1B 6776   4.138   3.930   3.729 -0.3363 -2.3104 -0.5101
   76CHL1    C2 6777   4.263   3.970   3.552 -0.3250  0.1074 -0.2420
   76CHL1   H2A 6778   4.211   3.900   3.483  0.5240 -0.1070 -0.6812
   76CHL1   H2B 6779   4.371   3.961   3.526 -0.2916 -0.7088  0.1700
   76CHL1   C20 6780   4.285   3.884   4.492  0.2151 -0.7470  1.0592
   76CHL1   H20 6781   4.391   3.857   4.473  0.3116  1.1792 -1.8252
   76CHL1   C21 6782   4.195   3.758   4.467  0.2567 -0.2949 -0.6315
   76CHL1  H21A 6783   4.206   3.671   4.536  0.2190  0.0826 -0.1487
   76CHL1  H21B 6784   4.218   3.717   4.366  1.7264  1.3657 -1.0262
   76CHL1  H21C 6785   4.088   3.785   4.457 -0.0385 -0.8358  0.8566
   76CHL1   C22 6786   4.270   3.938   4.638 -0.1722  0.1853 -0.3501
   76CHL1  H22A 6787   4.326   4.033   4.647 -0.9821  0.4605  2.6112
   76CHL1  H22B 6788   4.170   3.983   4.656  1.6175  5.4484 -1.6869
   76CHL1   C23 6789   4.305   3.838   4.752 -0.6436  0.2510  0.2160
   76CHL1  H23A 6790   4.230   3.756   4.755 -0.6678  0.1332 -1.8506
   76CHL1  H23B 6791   4.397   3.782   4.728 -2.5783 -2.9265 -0.3581
   76CHL1   C24 6792   4.327   3.898   4.898  0.6081  0.1274 -0.1671
   76CHL1  H24A 6793   4.413   3.966   4.882 -0.6685  1.3127 -2.5976
   76CHL1  H24B 6794   4.239   3.959   4.928  0.7943 -0.6673  2.2227
   76CHL1   C25 6795   4.368   3.801   5.004  0.4862  0.1766  0.0125
   76CHL1   H25 6796   4.461   3.753   4.968 -0.0724  0.1699 -1.4789
   76CHL1   C26 6797   4.407   3.873   5.141 -0.4534 -0.4076  0.5330
   76CHL1  H26A 6798   4.428   3.791   5.214 -0.0827  1.0776  2.1691
   76CHL1  H26B 6799   4.502   3.928   5.130 -0.6542  1.2214  4.9676
   76CHL1  H26C 6800   4.327   3.940   5.181  1.0241  1.1408  0.9919
   76CHL1   C27 6801   4.260   3.694   5.032 -0.3797  0.7089 -0.5959
   76CHL1  H27A 6802   4.292   3.635   5.120  2.3810 -1.6485 -2.9574
   76CHL1  H27B 6803   4.162   3.743   5.051 -0.7924  0.2493 -1.4965
   76CHL1  H27C 6804   4.240   3.618   4.954 -0.6698 -1.4870  1.4983
   77SOPE     N 6805   1.606   0.877   7.663 -0.0927 -0.5866  0.7650
   77SOPE   HN1 6806   1.532   0.949   7.674 -0.2386 -0.7872  1.1375
   77SOPE   HN2 6807   1.637   0.837   7.754 -2.2635  1.2935  2.4437
   77SOPE   HN3 6808   1.687   0.928   7.623  0.2740 -0.4243  1.7011
   77SOPE   C12 6809   1.569   0.772   7.575  0.2142  0.0055 -0.0158
   77SOPE  H12A 6810   1.525   0.692   7.638 -0.3717  1.9429  2.2088
   77SOPE  H12B 6811   1.655   0.734   7.517 -1.7095 -0.7781 -2.5543
   77SOPE   C11 6812   1.467   0.807   7.466  0.3092 -0.4221 -0.0382
   77SOPE  H11A 6813   1.371   0.851   7.502  1.4824  1.8986  0.4191
   77SOPE  H11B 6814   1.445   0.707   7.423 -1.2615  0.1444 -0.6272
   77SOPE     P 6815   1.631   0.886   7.277 -0.2095  0.0970 -0.3776
   77SOPE   O13 6816   1.619   0.742   7.234 -0.4816 -0.0291 -0.4405
   77SOPE   O14 6817   1.756   0.929   7.339 -0.0185 -0.2540  0.0786
   77SOPE   O12 6818   1.510   0.909   7.377 -0.1715 -0.1854 -0.1911
   77SOPE   O11 6819   1.596   0.987   7.158 -0.1089  0.1251 -0.1201
   77SOPE    C1 6820   1.494   0.961   7.073  0.1260  0.4389  0.2352
   77SOPE    HA 6821   1.426   1.048   7.059  0.5285  0.9508  1.4235
   77SOPE    HB 6822   1.433   0.875   7.109 -0.1329  0.6155  0.2170
   77SOPE    C2 6823   1.545   0.920   6.933  0.3201 -0.4591  0.0631
   77SOPE    HS 6824   1.450   0.901   6.879  0.7518 -2.7260  0.0342
   77SOPE   O21 6825   1.635   0.814   6.929  0.3272  0.8123 -0.3239
   77SOPE   C21 6826   1.589   0.688   6.956 -1.2319  1.0930  0.1493
   77SOPE   O22 6827   1.474   0.659   6.972 -0.1151 -0.0535  0.1259
   77SOPE   C22 6828   1.708   0.589   6.956  0.0400  0.5938  0.2222
   77SOPE   H2R 6829   1.730   0.564   7.062  0.9761  0.1897 -0.0552
   77SOPE   H2S 6830   1.797   0.650   6.930 -0.3584  0.8336 -0.6181
   77SOPE    C3 6831   1.586   1.050   6.861 -0.4125 -0.3299 -0.0936
   77SOPE    HX 6832   1.696   1.062   6.874 -0.3493  0.4228 -1.2369
   77SOPE    HY 6833   1.542   1.144   6.899  2.0701  1.6370 -1.7521
   77SOPE   O31 6834   1.549   1.039   6.716  0.2505 -0.6359 -0.1711
   77SOPE   C31 6835   1.636   1.025   6.627 -0.1698 -1.3033  0.6641
   77SOPE   O32 6836   1.760   1.016   6.644 -0.1757 -0.2295 -0.4062
   77SOPE   C32 6837   1.579   1.054   6.482 -0.6439 -0.2470  0.0352
   77SOPE   H2X 6838   1.575   1.163   6.462 -2.0487  0.0030  1.4984
   77SOPE   H2Y 6839   1.473   1.022   6.488 -0.8061  0.3696  0.4839
   77SOPE   C23 6840   1.688   0.475   6.857  0.1247 -0.8443  0.1589
   77SOPE   H3R 6841   1.583   0.443   6.872 -0.4210  0.1914 -1.2269
   77SOPE   H3S 6842   1.770   0.401   6.862  1.4249  0.1277 -3.6495
   77SOPE   C24 6843   1.701   0.529   6.712 -0.4817  0.2362  0.3070
   77SOPE   H4R 6844   1.668   0.633   6.695 -1.0891  0.0791  0.4927
   77SOPE   H4S 6845   1.811   0.528   6.701 -0.5467 -1.9995 -0.6890
   77SOPE   C25 6846   1.645   0.421   6.612 -0.1818 -0.6027  0.9974
   77SOPE   H5R 6847   1.664   0.313   6.628 -0.8475 -1.2337 -1.8665
   77SOPE   H5S 6848   1.537   0.443   6.596  0.2129 -0.2920 -1.6964
   77SOPE   C26 6849   1.700   0.450   6.468 -0.1869 -0.1114  0.5894
   77SOPE   H6R 6850   1.714   0.559   6.450  1.7655 -0.5348 -0.8408
   77SOPE   H6S 6851   1.798   0.402   6.443 -1.0378 -1.3297 -0.5774
   77SOPE   C27 6852   1.607   0.402   6.358  0.0164  0.4874  0.6934
   77SOPE   H7R 6853   1.598   0.293   6.374  0.1395 -0.0031 -2.1731
   77SOPE   H7S 6854   1.508   0.450   6.375 -0.0868 -0.0378  1.6349
   77SOPE   C28 6855   1.657   0.434   6.215 -0.5261  0.1221  0.7490
   77SOPE   H8R 6856   1.659   0.545   6.205 -2.2366  0.1702  0.6357
   77SOPE   H8S 6857   1.759   0.392   6.200 -1.2515 -1.3243 -0.3142
   77SOPE   C29 6858   1.588   0.376   6.095 -0.2655 -0.1349 -0.0732
   77SOPE   H91 6859   1.602   0.267   6.088  0.3343  0.0257 -1.9579
   77SOPE  C210 6860   1.515   0.438   5.998 -0.8094 -0.4048 -0.6084
   77SOPE  H101 6861   1.467   0.377   5.920 -2.3178  0.4622 -0.4009
   77SOPE  C211 6862   1.490   0.588   5.988  0.1972  0.1101  0.5809
   77SOPE  H11R 6863   1.582   0.641   6.021  0.7473 -0.8202  0.5986
   77SOPE  H11S 6864   1.406   0.615   6.054 -1.2028  0.6991 -1.3407
   77SOPE  C212 6865   1.453   0.632   5.848  0.4340 -0.3693  0.2899
   77SOPE  H12R 6866   1.535   0.591   5.785 -0.5386 -1.2443 -0.4497
   77SOPE  H12S 6867   1.443   0.740   5.822 -0.9033 -0.6754 -0.6469
   77SOPE  C213 6868   1.312   0.584   5.800 -0.0176  0.0182  0.3812
   77SOPE  H13R 6869   1.241   0.633   5.869  0.1382  0.8839 -0.0565
   77SOPE  H13S 6870   1.304   0.473   5.804 -3.6221  0.1077 -0.8392
   77SOPE  C214 6871   1.273   0.635   5.659 -0.5951 -0.4793  0.8999
   77SOPE  H14R 6872   1.339   0.594   5.580  0.3911 -0.2258  1.5669
   77SOPE  H14S 6873   1.292   0.744   5.664  1.7563 -0.7758 -0.3418
   77SOPE  C215 6874   1.130   0.611   5.629  0.3677  0.2018 -0.4824
   77SOPE  H15R 6875   1.110   0.501   5.626  0.3334  0.2007 -0.2237
   77SOPE  H15S 6876   1.103   0.647   5.528 -0.2134  1.1559 -0.0032
   77SOPE  C216 6877   1.020   0.672   5.716  0.8614  0.0587  0.2054
   77SOPE  H16R 6878   1.025   0.783   5.714  2.6921 -0.0031 -0.6034
   77SOPE  H16S 6879   1.040   0.645   5.821  1.4649 -2.3627 -0.4777
   77SOPE  C217 6880   0.869   0.627   5.690 -0.5049 -0.0301  0.0946
   77SOPE  H17R 6881   0.840   0.666   5.590  1.3534 -2.8704 -1.6833
   77SOPE  H17S 6882   0.814   0.681   5.770 -0.3001  0.7849 -0.3077
   77SOPE  C218 6883   0.842   0.481   5.708  0.0806  0.2147  0.2357
   77SOPE  H18R 6884   0.883   0.445   5.805 -1.1841  2.0106  1.4950
   77SOPE  H18S 6885   0.904   0.419   5.640  1.2642  0.0294  1.4385
   77SOPE  H18T 6886   0.739   0.441   5.698  0.0182 -0.3023  2.3048
   77SOPE   C33 6887   1.657   0.972   6.383 -0.1658 -0.6162 -0.3180
   77SOPE   H3X 6888   1.660   0.865   6.410  1.3374 -0.1219  1.7650
   77SOPE   H3Y 6889   1.765   0.998   6.387 -0.5285  0.8907  2.1899
   77SOPE   C34 6890   1.605   0.977   6.239 -0.1214 -0.3096  0.1755
   77SOPE   H4X 6891   1.548   1.071   6.227 -1.4922 -0.9993  0.9385
   77SOPE   H4Y 6892   1.531   0.898   6.213 -0.9234  0.1037  1.1158
   77SOPE   C35 6893   1.706   0.963   6.122  0.0724  0.6752  1.0493
   77SOPE   H5X 6894   1.772   0.874   6.132  0.4206  0.9409  1.1456
   77SOPE   H5Y 6895   1.787   1.038   6.137  0.4394  0.0158  2.5885
   77SOPE   C36 6896   1.651   0.954   5.977 -0.5641  0.2072 -0.2893
   77SOPE   H6X 6897   1.634   1.058   5.944 -1.3202 -0.2567 -1.4522
   77SOPE   H6Y 6898   1.562   0.887   5.979  0.8685 -1.7782  0.4372
   77SOPE   C37 6899   1.755   0.894   5.875 -0.0617 -0.5274 -0.5989
   77SOPE   H7X 6900   1.698   0.893   5.780 -1.6162 -0.3437  0.2998
   77SOPE   H7Y 6901   1.783   0.789   5.898 -0.5116 -0.7912 -1.2529
   77SOPE   C38 6902   1.881   0.984   5.854 -0.5728 -0.6293 -0.1920
   77SOPE   H8X 6903   1.945   0.975   5.944  2.7742 -1.0377 -2.4230
   77SOPE   H8Y 6904   1.849   1.087   5.829 -1.2807 -1.3787 -2.6607
   77SOPE   C39 6905   1.978   0.920   5.743 -0.3412 -0.2652 -0.3977
   77SOPE   H9X 6906   2.025   0.842   5.808  0.3742  2.8020  3.1068
   77SOPE   H9Y 6907   2.059   0.991   5.718 -1.3941  0.7689 -0.9197
   77SOPE  C310 6908   1.904   0.878   5.617 -0.9450  1.0211  0.6531
   77SOPE  H10X 6909   1.855   0.966   5.569 -0.9852 -0.3336 -1.8970
   77SOPE  H10Y 6910   1.831   0.798   5.639 -1.2001  1.0625 -0.0206
   77SOPE  C311 6911   2.004   0.813   5.519  0.5214 -0.0256 -0.3672
   77SOPE  H11X 6912   2.057   0.729   5.568 -1.1862 -0.7762  0.2511
   77SOPE  H11Y 6913   2.087   0.887   5.509  1.9594 -1.1121  2.4687
   77SOPE  C312 6914   1.948   0.774   5.381 -0.0877 -0.0703  0.5167
   77SOPE  H12X 6915   2.035   0.758   5.314 -0.1966  1.0857  0.0763
   77SOPE  H12Y 6916   1.905   0.869   5.342 -1.9266  0.3904  3.4036
   77SOPE  C313 6917   1.844   0.663   5.363 -0.1716  0.1895 -0.1643
   77SOPE  H13X 6918   1.777   0.659   5.451  0.5912 -1.8640  0.3605
   77SOPE  H13Y 6919   1.903   0.572   5.385  0.6553  0.6481 -0.4096
   77SOPE  C314 6920   1.774   0.664   5.230 -0.1114  0.2790  0.2141
   77SOPE  H14X 6921   1.738   0.566   5.193 -0.5642  1.0457 -1.4551
   77SOPE  H14Y 6922   1.849   0.701   5.156  2.9544 -0.5875  2.6422
   77SOPE  C315 6923   1.668   0.773   5.216 -0.4966 -0.1347 -0.2714
   77SOPE  H15X 6924   1.647   0.790   5.108 -1.4745 -1.3543 -0.2927
   77SOPE  H15Y 6925   1.701   0.870   5.259 -1.6511  0.2494 -0.2182
   77SOPE  C316 6926   1.539   0.736   5.286  0.5606  0.3753  0.1777
   77SOPE  H16X 6927   1.562   0.742   5.395  1.2002  0.1327  0.0609
   77SOPE  H16Y 6928   1.500   0.635   5.261  0.5219  0.8871 -1.9450
   77SOPE  C317 6929   1.419   0.816   5.245  0.0370  0.0459  0.3061
   77SOPE  H17X 6930   1.412   0.812   5.134 -0.1134 -0.6733  0.3370
   77SOPE  H17Y 6931   1.440   0.922   5.268 -3.1184  0.4421  2.0001
   77SOPE  C318 6932   1.287   0.773   5.315  0.0895  0.2718 -0.9490
   77SOPE  H18X 6933   1.197   0.828   5.279  0.6393 -0.0842 -2.9688
   77SOPE  H18Y 6934   1.298   0.794   5.424  1.0652 -1.9397 -0.5632
   77SOPE  H18Z 6935   1.278   0.663   5.303 -0.0881  0.4251 -2.3943
   78SOPE     N 6936   6.557   0.817   7.413 -0.5156  0.2608  0.4546
   78SOPE   HN1 6937   6.645   0.810   7.358 -1.8429 -0.7361 -1.6478
   78SOPE   HN2 6938   6.493   0.756   7.359 -2.6728  2.6973  0.0464
   78SOPE   HN3 6939   6.533   0.916   7.391  0.5018  0.1640 -1.2671
   78SOPE   C12 6940   6.582   0.775   7.554 -0.7004 -0.6935  0.1599
   78SOPE  H12A 6941   6.523   0.681   7.553 -2.7397  0.4660 -2.9471
   78SOPE  H12B 6942   6.531   0.844   7.625  0.1438 -0.6725  0.7694
   78SOPE   C11 6943   6.736   0.751   7.575  0.2769 -0.2477  0.1514
   78SOPE  H11A 6944   6.748   0.699   7.672 -0.0731 -1.1357 -0.2640
   78SOPE  H11B 6945   6.786   0.850   7.576  1.7218 -0.8994  2.9482
   78SOPE     P 6946   6.777   0.515   7.472  0.0373 -0.2487  0.2185
   78SOPE   O13 6947   6.637   0.466   7.479 -0.1473  0.1470 -0.1444
   78SOPE   O14 6948   6.865   0.477   7.583  0.6017  0.2598  0.4269
   78SOPE   O12 6949   6.783   0.675   7.466  0.0358  0.2946  0.0583
   78SOPE   O11 6950   6.836   0.475   7.335  0.4107  0.0906 -0.1951
   78SOPE    C1 6951   6.793   0.525   7.206 -0.5557  0.2309 -0.8185
   78SOPE    HA 6952   6.696   0.578   7.218 -1.1196 -1.1699  1.4495
   78SOPE    HB 6953   6.778   0.435   7.141 -1.8430  0.0698 -0.3368
   78SOPE    C2 6954   6.913   0.629   7.167  0.2718  0.3657  0.2012
   78SOPE    HS 6955   6.928   0.705   7.246 -1.9889  3.2568 -1.9301
   78SOPE   O21 6956   6.880   0.701   7.045 -0.1253  0.5012 -0.0864
   78SOPE   C21 6957   6.779   0.779   7.050 -0.8275  0.6095 -0.0085
   78SOPE   O22 6958   6.702   0.802   7.147 -0.7676 -0.1646  0.7216
   78SOPE   C22 6959   6.782   0.856   6.919  0.4259 -0.8373  0.0831
   78SOPE   H2R 6960   6.870   0.925   6.921  1.1853 -1.7910  2.2532
   78SOPE   H2S 6961   6.692   0.920   6.930  0.6625 -0.6637  1.1077
   78SOPE    C3 6962   7.040   0.550   7.137 -1.0832  0.3853 -0.4346
   78SOPE    HX 6963   7.073   0.505   7.232 -2.2340 -3.7008 -1.7804
   78SOPE    HY 6964   7.123   0.622   7.117 -1.2029  0.1352 -1.9821
   78SOPE   O31 6965   7.022   0.441   7.038  0.2155  0.0537 -0.2436
   78SOPE   C31 6966   7.139   0.385   6.995  0.5417 -0.4921 -0.9424
   78SOPE   O32 6967   7.244   0.399   7.057 -0.2492 -0.3760 -0.1273
   78SOPE   C32 6968   7.111   0.316   6.857  0.4406  0.2935  0.1037
   78SOPE   H2X 6969   7.006   0.280   6.850  0.8475 -0.5536 -3.1509
   78SOPE   H2Y 6970   7.182   0.233   6.841 -2.4375 -1.8829 -2.4556
   78SOPE   C23 6971   6.780   0.773   6.792 -0.8001  1.0223  0.1136
   78SOPE   H3R 6972   6.682   0.724   6.777 -1.3869  1.8466  1.0895
   78SOPE   H3S 6973   6.855   0.691   6.792 -0.1896  1.5669 -0.4212
   78SOPE   C24 6974   6.802   0.847   6.659 -0.4478  0.2579  0.0503
   78SOPE   H4R 6975   6.754   0.946   6.644 -1.7949 -0.5140 -1.0216
   78SOPE   H4S 6976   6.909   0.876   6.658 -0.5204  0.5389  0.4126
   78SOPE   C25 6977   6.780   0.758   6.541 -0.4747  0.2651 -0.2650
   78SOPE   H5R 6978   6.842   0.668   6.558 -0.8263 -0.2000 -1.3797
   78SOPE   H5S 6979   6.680   0.711   6.547  1.4196 -4.0953  2.3520
   78SOPE   C26 6980   6.803   0.823   6.397  0.0040 -0.3691 -0.4142
   78SOPE   H6R 6981   6.731   0.907   6.393 -0.3523 -0.7031 -1.1792
   78SOPE   H6S 6982   6.897   0.882   6.394 -1.1762  1.5619 -1.5380
   78SOPE   C27 6983   6.792   0.726   6.283 -0.0629  0.6413 -1.1943
   78SOPE   H7R 6984   6.873   0.652   6.300 -1.8479 -1.0410  0.5332
   78SOPE   H7S 6985   6.699   0.667   6.292  0.2640  0.1275 -1.1493
   78SOPE   C28 6986   6.807   0.782   6.143 -0.6124 -0.7599  0.0923
   78SOPE   H8R 6987   6.817   0.702   6.067  0.6970  0.9007 -1.5600
   78SOPE   H8S 6988   6.714   0.841   6.130 -0.0163 -0.0209 -0.9522
   78SOPE   C29 6989   6.938   0.867   6.121 -0.1438 -0.1412  0.3990
   78SOPE   H91 6990   7.010   0.854   6.202  2.0345 -0.5091 -1.4996
   78SOPE  C210 6991   6.974   0.943   6.012 -0.6049  0.2976 -0.0886
   78SOPE  H101 6992   7.075   0.986   6.013 -0.7354  0.7790 -2.2006
   78SOPE  C211 6993   6.884   0.980   5.896 -0.1605 -0.5911  0.1240
   78SOPE  H11R 6994   6.872   1.090   5.896 -1.6425 -0.7228  0.8761
   78SOPE  H11S 6995   6.787   0.926   5.906 -0.4844 -0.1586 -0.5846
   78SOPE  C212 6996   6.945   0.935   5.762 -0.3133  0.3344 -0.0383
   78SOPE  H12R 6997   6.859   0.951   5.694 -0.9998  0.4478  0.8334
   78SOPE  H12S 6998   6.960   0.825   5.759 -1.2354  0.1610  1.0738
   78SOPE  C213 6999   7.052   1.023   5.702  0.3344 -0.1310 -0.0799
   78SOPE  H13R 7000   7.157   0.992   5.720  0.2281 -0.1605  0.4891
   78SOPE  H13S 7001   7.027   1.118   5.754 -1.8684 -0.9737  0.5259
   78SOPE  C214 7002   7.021   1.056   5.558  0.6986 -0.0439  0.3375
   78SOPE  H14R 7003   7.081   1.140   5.516 -0.7228  0.8394  0.0203
   78SOPE  H14S 7004   6.912   1.077   5.550  0.5315 -1.4168 -1.4427
   78SOPE  C215 7005   7.054   0.942   5.454  0.4388  0.3185 -0.7758
   78SOPE  H15R 7006   6.994   0.854   5.486 -0.8771  1.3246 -0.3676
   78SOPE  H15S 7007   7.161   0.916   5.465  0.0417 -0.4444  2.3828
   78SOPE  C216 7008   7.021   0.975   5.308 -0.1569  0.1409 -0.4381
   78SOPE  H16R 7009   7.068   1.068   5.270 -2.8745  1.8364  0.1085
   78SOPE  H16S 7010   6.911   0.990   5.307 -0.3268 -0.5404  2.1279
   78SOPE  C217 7011   7.060   0.872   5.201 -0.4953 -1.2256  0.2418
   78SOPE  H17R 7012   7.168   0.849   5.194 -0.9812 -3.2083 -2.2341
   78SOPE  H17S 7013   7.020   0.910   5.104 -0.9167  0.4218  1.0277
   78SOPE  C218 7014   7.000   0.734   5.225  0.1712  0.2329  0.1360
   78SOPE  H18R 7015   6.989   0.706   5.332  1.0082  0.1788  0.2134
   78SOPE  H18S 7016   7.064   0.651   5.187 -0.3173  0.0472 -0.2900
   78SOPE  H18T 7017   6.905   0.720   5.169  0.7114  0.6083 -0.9008
   78SOPE   C33 7018   7.108   0.417   6.738 -0.3142  0.0976  0.0370
   78SOPE   H3X 7019   7.211   0.460   6.733 -0.5869  0.6167 -1.4570
   78SOPE   H3Y 7020   7.046   0.507   6.758  1.6182  1.4760  0.2344
   78SOPE   C34 7021   7.058   0.365   6.599  0.0451 -0.4173 -0.1336
   78SOPE   H4X 7022   6.947   0.364   6.590  0.1178 -2.6962 -1.4696
   78SOPE   H4Y 7023   7.099   0.262   6.602  0.4078 -0.2577  0.8083
   78SOPE   C35 7024   7.108   0.454   6.482  0.3723 -0.2357 -0.4886
   78SOPE   H5X 7025   7.218   0.438   6.476  0.5885  0.5601  0.8808
   78SOPE   H5Y 7026   7.084   0.561   6.503  0.3892 -0.7474  2.4381
   78SOPE   C36 7027   7.037   0.414   6.350  0.2785  0.6131 -0.0942
   78SOPE   H6X 7028   6.937   0.462   6.361  1.3171  2.9101  0.0901
   78SOPE   H6Y 7029   7.027   0.304   6.339 -1.0070  0.8671 -1.8971
   78SOPE   C37 7030   7.099   0.469   6.221 -0.3495  0.0259  0.4054
   78SOPE   H7X 7031   7.205   0.436   6.213 -0.7716 -1.3609  0.3477
   78SOPE   H7Y 7032   7.110   0.580   6.227 -0.4796  0.1717 -1.3801
   78SOPE   C38 7033   7.010   0.429   6.105 -0.8368 -0.0752 -0.0057
   78SOPE   H8X 7034   6.919   0.492   6.117 -0.5015  0.6938 -1.2625
   78SOPE   H8Y 7035   6.987   0.323   6.126  0.0768 -0.0341  1.3308
   78SOPE   C39 7036   7.091   0.442   5.979 -0.2655  0.2776  0.1350
   78SOPE   H9X 7037   7.034   0.412   5.889 -0.4056 -2.0202  0.9329
   78SOPE   H9Y 7038   7.176   0.371   5.977 -0.3931  0.1383 -0.5019
   78SOPE  C310 7039   7.141   0.587   5.935  0.1934  0.1414  0.1249
   78SOPE  H10X 7040   7.244   0.608   5.971  0.7092 -0.2980 -1.0680
   78SOPE  H10Y 7041   7.066   0.655   5.981  0.4143  0.6984 -0.3232
   78SOPE  C311 7042   7.146   0.602   5.786  0.0325 -0.9854  0.9211
   78SOPE  H11X 7043   7.166   0.709   5.766 -4.0522 -0.3223 -0.4551
   78SOPE  H11Y 7044   7.049   0.575   5.738 -0.1796 -1.0588  1.3923
   78SOPE  C312 7045   7.259   0.517   5.721  0.1151 -0.0277 -0.4704
   78SOPE  H12X 7046   7.227   0.412   5.735  1.5116 -0.6986 -2.0028
   78SOPE  H12Y 7047   7.356   0.523   5.775 -0.1931  2.6410 -0.0539
   78SOPE  C313 7048   7.273   0.546   5.574 -0.3611 -0.7248 -0.0242
   78SOPE  H13X 7049   7.175   0.556   5.523 -0.1963  2.7195  0.1276
   78SOPE  H13Y 7050   7.335   0.464   5.530  0.7884  0.4667 -0.7098
   78SOPE  C314 7051   7.331   0.689   5.535 -0.4839  0.7679  0.8708
   78SOPE  H14X 7052   7.416   0.705   5.604  1.2494  1.6614 -1.3513
   78SOPE  H14Y 7053   7.256   0.766   5.564 -1.1575  0.3595  0.2664
   78SOPE  C315 7054   7.372   0.691   5.386 -0.0936 -0.0138  0.1718
   78SOPE  H15X 7055   7.289   0.673   5.315 -0.2965  1.5555 -0.0328
   78SOPE  H15Y 7056   7.441   0.607   5.363 -2.2503 -0.9898 -3.7578
   78SOPE  C316 7057   7.439   0.822   5.331  1.1766 -0.4186 -0.0135
   78SOPE  H16X 7058   7.539   0.830   5.379  0.6652 -0.6904  1.1238
   78SOPE  H16Y 7059   7.370   0.905   5.355  0.5397 -0.3099 -2.0345
   78SOPE  C317 7060   7.459   0.822   5.176  0.3468 -0.1254 -0.8270
   78SOPE  H17X 7061   7.360   0.809   5.126 -0.0544 -0.2993 -0.0107
   78SOPE  H17Y 7062   7.508   0.724   5.161  0.6097  0.0609 -1.2242
   78SOPE  C318 7063   7.535   0.943   5.120  0.1219  0.2500  0.1993
   78SOPE  H18X 7064   7.554   0.928   5.012 -2.8113 -1.1720 -0.2165
   78SOPE  H18Y 7065   7.632   0.955   5.173 -0.4633  3.2486  0.8174
   78SOPE  H18Z 7066   7.469   1.032   5.136 -1.0186 -0.8018  1.6185
   79SOPE     N 7067   2.126   4.887   7.512 -0.0603  0.8086  0.2186
   79SOPE   HN1 7068   2.128   4.787   7.540  0.4264  0.7946  0.1406
   79SOPE   HN2 7069   2.221   4.930   7.507  0.6425 -0.7611 -0.4258
   79SOPE   HN3 7070   2.091   4.943   7.593  1.1119  1.4897  0.2794
   79SOPE   C12 7071   2.054   4.905   7.380  0.4686 -0.0361 -0.4611
   79SOPE  H12A 7072   1.947   4.888   7.401  0.7489 -1.2782  0.0500
   79SOPE  H12B 7073   2.089   4.833   7.303  0.8514 -2.1829  1.6138
   79SOPE   C11 7074   2.067   5.054   7.329 -0.2355 -0.6958 -0.5904
   79SOPE  H11A 7075   1.998   5.065   7.242 -3.0704  1.4934  1.7238
   79SOPE  H11B 7076   2.172   5.076   7.302  0.5299 -0.6551  2.1347
   79SOPE     P 7077   2.087   5.280   7.467 -0.2866  0.0977 -0.3232
   79SOPE   O13 7078   2.228   5.250   7.492 -0.4216 -0.7137  0.3666
   79SOPE   O14 7079   2.010   5.345   7.577  0.4660 -0.3183  0.5951
   79SOPE   O12 7080   2.019   5.144   7.423 -0.2378 -0.2752 -0.3313
   79SOPE   O11 7081   2.086   5.372   7.334  0.0225  0.3905 -0.1444
   79SOPE    C1 7082   2.088   5.512   7.341  0.0209 -0.7368  0.4947
   79SOPE    HA 7083   2.186   5.549   7.303 -0.6765  1.2575  0.4983
   79SOPE    HB 7084   2.066   5.555   7.441  1.6430 -1.2498  1.1019
   79SOPE    C2 7085   1.965   5.569   7.257  0.6775 -1.0766  0.0834
   79SOPE    HS 7086   1.877   5.530   7.312  1.0986  0.3507  1.8827
   79SOPE   O21 7087   1.965   5.524   7.120  0.1594 -0.0826 -0.1452
   79SOPE   C21 7088   1.850   5.560   7.058  0.3631 -0.1866  0.6707
   79SOPE   O22 7089   1.748   5.605   7.104  0.4110 -0.3071  0.1880
   79SOPE   C22 7090   1.871   5.536   6.917 -0.1578 -0.6097  0.1783
   79SOPE   H2R 7091   1.814   5.608   6.855  0.2764 -1.1831 -0.9195
   79SOPE   H2S 7092   1.827   5.438   6.888 -1.9841  0.7292 -1.8645
   79SOPE    C3 7093   1.959   5.727   7.269  0.0132  0.9085  0.2873
   79SOPE    HX 7094   1.977   5.765   7.372  0.7769 -0.0439  0.5190
   79SOPE    HY 7095   1.858   5.761   7.237 -0.4718 -2.1703 -1.8529
   79SOPE   O31 7096   2.058   5.793   7.190  0.0488 -0.0172 -0.5000
   79SOPE   C31 7097   2.030   5.870   7.081 -0.6979 -0.5065 -0.5754
   79SOPE   O32 7098   1.915   5.907   7.049  0.1357 -0.1262 -0.4985
   79SOPE   C32 7099   2.165   5.902   7.009 -0.1691  0.3726  0.1048
   79SOPE   H2X 7100   2.225   5.809   7.000 -0.4180  0.1038  1.1173
   79SOPE   H2Y 7101   2.230   5.953   7.084 -0.9640 -2.9229  3.2854
   79SOPE   C23 7102   2.013   5.548   6.849  0.2311  0.4227  0.4864
   79SOPE   H3R 7103   2.071   5.455   6.868  0.4218  0.6371  0.9914
   79SOPE   H3S 7104   2.073   5.637   6.880  0.8673  0.7784 -1.6468
   79SOPE   C24 7105   2.006   5.572   6.692 -0.8131  0.3066 -0.7737
   79SOPE   H4R 7106   1.932   5.509   6.639  0.3602  0.7052 -3.0040
   79SOPE   H4S 7107   1.988   5.680   6.676  1.1112  0.7574 -0.1194
   79SOPE   C25 7108   2.140   5.538   6.614  0.3924 -0.3967  0.5306
   79SOPE   H5R 7109   2.209   5.615   6.654 -1.9890  2.0763  0.1489
   79SOPE   H5S 7110   2.178   5.439   6.648  0.6298 -0.4855  0.0201
   79SOPE   C26 7111   2.128   5.550   6.460  0.9213  0.3981 -0.5510
   79SOPE   H6R 7112   2.042   5.486   6.433  1.5825 -0.7552 -0.0047
   79SOPE   H6S 7113   2.111   5.656   6.432  0.9857  0.9290  1.3333
   79SOPE   C27 7114   2.262   5.498   6.399 -0.4560 -0.1294 -0.0058
   79SOPE   H7R 7115   2.346   5.552   6.449 -1.3265  1.4945 -0.2229
   79SOPE   H7S 7116   2.286   5.394   6.429 -0.1928  0.3095  1.4116
   79SOPE   C28 7117   2.262   5.482   6.257  0.2417  0.1507 -0.5322
   79SOPE   H8R 7118   2.345   5.420   6.219  1.8612  1.9696 -0.1172
   79SOPE   H8S 7119   2.166   5.427   6.244 -0.6201  1.9304 -2.3406
   79SOPE   C29 7120   2.248   5.613   6.182  0.1981 -0.2756 -0.0714
   79SOPE   H91 7121   2.265   5.711   6.229  0.9779 -1.3219  1.9746
   79SOPE  C210 7122   2.240   5.611   6.043 -1.3744 -0.3737 -1.3224
   79SOPE  H101 7123   2.235   5.705   5.986  0.8995  0.8933  0.3859
   79SOPE  C211 7124   2.212   5.486   5.963  0.2967  0.1103  0.1970
   79SOPE  H11R 7125   2.123   5.427   5.994  0.4334 -0.9737 -1.3795
   79SOPE  H11S 7126   2.295   5.417   5.989  0.4272 -0.2756 -1.1946
   79SOPE  C212 7127   2.227   5.516   5.811 -0.5472  0.2131  0.0893
   79SOPE  H12R 7128   2.326   5.563   5.792  0.4335 -1.5329  0.6347
   79SOPE  H12S 7129   2.152   5.593   5.783 -1.3357 -1.1356 -1.6983
   79SOPE  C213 7130   2.203   5.388   5.726  0.1704 -0.5440  0.5986
   79SOPE  H13R 7131   2.093   5.372   5.730 -0.1413  0.9765 -0.8392
   79SOPE  H13S 7132   2.243   5.295   5.771  1.6118  0.3984  1.3447
   79SOPE  C214 7133   2.257   5.394   5.583  0.3495  0.5121  0.7831
   79SOPE  H14R 7134   2.260   5.295   5.533  2.1378  0.6890  0.4705
   79SOPE  H14S 7135   2.363   5.428   5.585  1.4664 -2.5903  0.1765
   79SOPE  C215 7136   2.168   5.477   5.487  0.3154  0.0245 -0.0798
   79SOPE  H15R 7137   2.161   5.584   5.516  0.6168  0.1446 -0.4389
   79SOPE  H15S 7138   2.064   5.440   5.484 -0.0473  1.0563 -1.4864
   79SOPE  C216 7139   2.225   5.465   5.347 -0.1950  0.2020  0.2870
   79SOPE  H16R 7140   2.275   5.367   5.333 -1.7189 -0.7544  1.2246
   79SOPE  H16S 7141   2.296   5.547   5.324  0.1548 -1.0150 -3.8694
   79SOPE  C217 7142   2.121   5.469   5.226  0.2052 -0.2684 -0.2274
   79SOPE  H17R 7143   2.075   5.570   5.211  2.0864  0.9006  1.4964
   79SOPE  H17S 7144   2.038   5.409   5.268 -0.1263  0.5175  0.2716
   79SOPE  C218 7145   2.176   5.409   5.099 -0.3259 -0.8221  0.0880
   79SOPE  H18R 7146   2.112   5.434   5.012  1.6990  3.1751 -0.4811
   79SOPE  H18S 7147   2.183   5.298   5.102 -0.5051 -0.8211  0.5600
   79SOPE  H18T 7148   2.280   5.437   5.069 -0.7410  1.5539  0.6608
   79SOPE   C33 7149   2.157   5.985   6.879  0.1589  0.5608  0.0459
   79SOPE   H3X 7150   2.259   6.025   6.860  0.7553 -1.6311 -1.8809
   79SOPE   H3Y 7151   2.093   6.073   6.900  1.1645  0.8095  2.4606
   79SOPE   C34 7152   2.105   5.907   6.749 -0.5645 -0.7402 -0.1216
   79SOPE   H4X 7153   2.003   5.866   6.765 -0.5668 -0.7228 -0.0900
   79SOPE   H4Y 7154   2.179   5.828   6.727  1.7669  1.1038  0.7267
   79SOPE   C35 7155   2.096   6.007   6.628 -0.0782  0.0910 -0.1687
   79SOPE   H5X 7156   2.196   6.040   6.592  0.3578  0.7713  1.5727
   79SOPE   H5Y 7157   2.066   6.109   6.660  0.6364  0.4773 -0.6915
   79SOPE   C36 7158   1.993   5.977   6.523 -0.6580 -0.2143 -0.7130
   79SOPE   H6X 7159   1.898   5.962   6.580 -1.1469  0.4719 -1.3149
   79SOPE   H6Y 7160   2.010   5.880   6.471 -0.3828  0.3007 -1.6013
   79SOPE   C37 7161   1.980   6.085   6.422  0.2788 -0.0646  0.0141
   79SOPE   H7X 7162   2.023   6.183   6.451  2.9637 -0.7417 -1.4005
   79SOPE   H7Y 7163   1.870   6.094   6.405  0.0180 -0.9047  1.1377
   79SOPE   C38 7164   2.036   6.060   6.282  0.0464 -0.5872 -0.0300
   79SOPE   H8X 7165   2.143   6.029   6.287  0.0519 -0.4149  1.0854
   79SOPE   H8Y 7166   2.025   6.158   6.230 -1.5848 -0.8223 -0.1799
   79SOPE   C39 7167   1.957   5.962   6.188  0.3780 -0.4340 -0.4502
   79SOPE   H9X 7168   1.866   6.025   6.176  1.1274  0.7759  0.0251
   79SOPE   H9Y 7169   1.922   5.871   6.243  0.8063 -0.0788  0.4425
   79SOPE  C310 7170   2.017   5.947   6.048  0.3364  0.6561  0.1627
   79SOPE  H10X 7171   2.117   5.900   6.055  0.5375  1.2114  1.4565
   79SOPE  H10Y 7172   2.046   6.051   6.024  2.1917  0.1266 -0.0312
   79SOPE  C311 7173   1.915   5.880   5.948 -0.5196  0.0859 -0.2706
   79SOPE  H11X 7174   1.814   5.927   5.952 -0.2305  0.7750 -0.8578
   79SOPE  H11Y 7175   1.893   5.775   5.978 -1.0219  0.1389 -0.4515
   79SOPE  C312 7176   1.973   5.888   5.807  0.3857  0.6795 -0.2768
   79SOPE  H12X 7177   2.064   5.825   5.818 -0.7066 -0.5990  2.6057
   79SOPE  H12Y 7178   2.003   5.994   5.793  1.5733  0.4556  0.4583
   79SOPE  C313 7179   1.875   5.830   5.711 -0.1321  0.2773 -0.3544
   79SOPE  H13X 7180   1.787   5.897   5.700  0.3451  0.9996  0.1687
   79SOPE  H13Y 7181   1.826   5.735   5.743  0.3514 -0.2956 -1.2832
   79SOPE  C314 7182   1.929   5.808   5.566  0.5162 -0.3870  0.0468
   79SOPE  H14X 7183   1.828   5.790   5.522  0.3948  1.0976 -0.3282
   79SOPE  H14Y 7184   2.000   5.722   5.566  1.4421  0.3067  2.4053
   79SOPE  C315 7185   1.971   5.940   5.502  0.1690 -0.0963 -0.1694
   79SOPE  H15X 7186   2.055   5.985   5.558 -0.4880  0.7150  0.1890
   79SOPE  H15Y 7187   1.895   6.020   5.511  0.1504  0.1059 -1.8259
   79SOPE  C316 7188   2.023   5.940   5.354  0.4142  0.4075 -0.5413
   79SOPE  H16X 7189   1.944   5.909   5.282  0.9888  0.3362 -1.1504
   79SOPE  H16Y 7190   2.102   5.862   5.352  0.8130  0.7931 -0.2027
   79SOPE  C317 7191   2.096   6.068   5.302  0.4246 -0.3190 -0.2699
   79SOPE  H17X 7192   2.186   6.047   5.240  0.4625  2.3961 -1.2701
   79SOPE  H17Y 7193   2.140   6.118   5.391  0.0606  0.3375 -0.4492
   79SOPE  C318 7194   2.001   6.176   5.231 -0.3062  0.2886 -0.4652
   79SOPE  H18X 7195   1.920   6.209   5.299  0.7742  1.7303  0.1857
   79SOPE  H18Y 7196   1.947   6.130   5.146 -1.9168  2.1660 -0.5394
   79SOPE  H18Z 7197   2.058   6.264   5.193 -2.9504  2.4651  0.2960
   80SOPE     N 7198   6.171   0.456   7.595  0.0285  0.1109  0.2463
   80SOPE   HN1 7199   6.206   0.480   7.500 -1.4619 -4.3270 -1.6805
   80SOPE   HN2 7200   6.076   0.498   7.605  0.3133  0.6164  0.9611
   80SOPE   HN3 7201   6.238   0.497   7.663  1.0708  0.2253 -0.8305
   80SOPE   C12 7202   6.154   0.305   7.597 -0.9382  0.1969 -0.0655
   80SOPE  H12A 7203   6.155   0.274   7.703  2.0131  1.1287  0.2862
   80SOPE  H12B 7204   6.246   0.269   7.546 -0.5464 -2.0272  2.0605
   80SOPE   C11 7205   6.030   0.268   7.512  0.5110  0.2101  0.1556
   80SOPE  H11A 7206   5.954   0.337   7.555 -1.2787 -1.9785  0.7089
   80SOPE  H11B 7207   5.996   0.165   7.534  0.4175  0.2266  0.0925
   80SOPE     P 7208   6.116   0.171   7.285  0.3488  0.4644  0.2974
   80SOPE   O13 7209   6.003   0.100   7.231  0.1288  0.1252  0.6488
   80SOPE   O14 7210   6.206   0.093   7.365 -0.7489  0.1155 -0.4603
   80SOPE   O12 7211   6.054   0.281   7.375  0.8047 -0.2718  0.2187
   80SOPE   O11 7212   6.198   0.242   7.169 -0.1448  0.4507 -0.0538
   80SOPE    C1 7213   6.178   0.378   7.141  0.1795 -0.2110  0.1343
   80SOPE    HA 7214   6.209   0.440   7.228 -0.1817  1.9186 -1.2061
   80SOPE    HB 7215   6.073   0.400   7.116 -0.6002 -2.8222  0.7585
   80SOPE    C2 7216   6.279   0.413   7.021  0.4617 -0.3417 -0.4182
   80SOPE    HS 7217   6.238   0.500   6.966  1.7421  0.1632 -0.5898
   80SOPE   O21 7218   6.302   0.304   6.926 -0.2032 -0.2191  0.0735
   80SOPE   C21 7219   6.198   0.263   6.862 -0.3279  0.3548  0.0703
   80SOPE   O22 7220   6.085   0.308   6.863  0.0957  0.0009 -0.1041
   80SOPE   C22 7221   6.242   0.150   6.761  0.4629  0.7224 -0.3127
   80SOPE   H2R 7222   6.352   0.151   6.775  0.5873 -1.3778 -0.9607
   80SOPE   H2S 7223   6.201   0.186   6.664  0.2536  1.8826  0.1905
   80SOPE    C3 7224   6.407   0.470   7.084  0.5876 -0.1646  0.0010
   80SOPE    HX 7225   6.437   0.406   7.169 -0.2221 -2.7079 -1.5306
   80SOPE    HY 7226   6.359   0.565   7.115  2.3872  0.3751  1.3068
   80SOPE   O31 7227   6.510   0.493   6.984 -0.1011  0.0181 -0.3614
   80SOPE   C31 7228   6.582   0.381   6.955  0.4653  0.5737 -0.5271
   80SOPE   O32 7229   6.583   0.277   7.022  0.4304  0.5296 -0.6742
   80SOPE   C32 7230   6.682   0.415   6.845 -0.1539  0.6225 -0.2581
   80SOPE   H2X 7231   6.783   0.394   6.886  0.2733  1.9711 -0.5500
   80SOPE   H2Y 7232   6.677   0.525   6.830 -0.1988  0.3831 -2.3436
   80SOPE   C23 7233   6.186   0.005   6.789 -0.1329 -0.4173  0.4105
   80SOPE   H3R 7234   6.232  -0.037   6.881 -1.4928 -3.1423 -0.0411
   80SOPE   H3S 7235   6.216  -0.068   6.711  2.1601 -1.1076  1.8247
   80SOPE   C24 7236   6.036   0.005   6.806  0.5717  0.6360 -0.3033
   80SOPE   H4R 7237   6.004   0.030   6.909 -1.6354  1.0825 -1.0363
   80SOPE   H4S 7238   5.989   0.092   6.753 -0.8862  1.1597  1.7189
   80SOPE   C25 7239   5.977  -0.132   6.758  1.0739 -0.2837  0.2120
   80SOPE   H5R 7240   6.038  -0.222   6.781  2.0864  0.0425 -1.0634
   80SOPE   H5S 7241   5.878  -0.145   6.806  0.3940  1.2424 -0.6790
   80SOPE   C26 7242   5.951  -0.125   6.606 -0.6048 -0.3864  0.0733
   80SOPE   H6R 7243   5.885  -0.039   6.581  0.8905  1.0601  0.8503
   80SOPE   H6S 7244   6.049  -0.108   6.557 -0.2860 -1.6901  0.2101
   80SOPE   C27 7245   5.903  -0.248   6.551 -0.8051 -0.7039 -0.4372
   80SOPE   H7R 7246   5.980  -0.327   6.560 -1.4074 -1.4946 -1.7651
   80SOPE   H7S 7247   5.819  -0.283   6.615 -1.2272  0.9574 -0.0577
   80SOPE   C28 7248   5.856  -0.233   6.408 -0.0780 -0.6788  0.3972
   80SOPE   H8R 7249   5.762  -0.176   6.404 -0.2260 -0.6918  2.5153
   80SOPE   H8S 7250   5.936  -0.172   6.362 -0.3650 -0.0608  0.7056
   80SOPE   C29 7251   5.845  -0.363   6.331 -0.0123  0.0854 -0.3536
   80SOPE   H91 7252   5.823  -0.452   6.391 -1.2754 -0.9238 -2.2190
   80SOPE  C210 7253   5.868  -0.376   6.199 -0.4762 -0.0000  1.0744
   80SOPE  H101 7254   5.871  -0.477   6.155  2.1094 -0.4885  2.2112
   80SOPE  C211 7255   5.906  -0.270   6.098 -0.4421  0.8238  0.1236
   80SOPE  H11R 7256   6.016  -0.256   6.093 -0.5829  1.6317 -0.9736
   80SOPE  H11S 7257   5.863  -0.171   6.123 -0.1495  1.6672 -2.4213
   80SOPE  C212 7258   5.865  -0.312   5.954  0.0019 -0.4439 -0.3784
   80SOPE  H12R 7259   5.866  -0.225   5.885 -1.5987 -3.1801 -4.1715
   80SOPE  H12S 7260   5.757  -0.340   5.958 -0.5023  1.4636  1.0986
   80SOPE  C213 7261   5.945  -0.428   5.892  0.6943  0.5454  0.5676
   80SOPE  H13R 7262   5.930  -0.508   5.969 -2.0020 -0.0734 -0.5015
   80SOPE  H13S 7263   6.054  -0.412   5.873  1.2652  0.1625  3.0875
   80SOPE  C214 7264   5.890  -0.449   5.751  0.1421  0.1729 -0.0440
   80SOPE  H14R 7265   5.783  -0.479   5.755 -0.5996  2.6231 -0.0659
   80SOPE  H14S 7266   5.940  -0.539   5.708  1.9160  0.7590  0.6965
   80SOPE  C215 7267   5.909  -0.341   5.645 -0.1781 -0.1398  0.5654
   80SOPE  H15R 7268   6.001  -0.279   5.649 -0.3741  0.2766 -0.7985
   80SOPE  H15S 7269   5.830  -0.264   5.649  1.5593  1.8557 -1.3177
   80SOPE  C216 7270   5.913  -0.396   5.504  0.1166  0.0413 -0.0608
   80SOPE  H16R 7271   5.817  -0.443   5.475  0.5853 -2.2702  1.8092
   80SOPE  H16S 7272   5.986  -0.475   5.475 -1.2215 -1.0156 -0.6522
   80SOPE  C217 7273   5.932  -0.275   5.409  0.4817  0.1760 -0.2761
   80SOPE  H17R 7274   6.023  -0.217   5.433  0.1271  0.5373  0.2402
   80SOPE  H17S 7275   5.855  -0.198   5.433  0.7205 -0.4962  3.1990
   80SOPE  C218 7276   5.923  -0.310   5.257  0.7215 -0.6255  0.5273
   80SOPE  H18R 7277   5.942  -0.215   5.203 -1.9515  1.0747  2.3491
   80SOPE  H18S 7278   5.828  -0.352   5.220 -2.3374  3.8296  2.4291
   80SOPE  H18T 7279   6.004  -0.385   5.241  0.0536 -1.8827  2.6862
   80SOPE   C33 7280   6.651   0.335   6.712  0.0068  0.3247  0.0074
   80SOPE   H3X 7281   6.634   0.226   6.726 -1.6735  0.5792  0.2145
   80SOPE   H3Y 7282   6.746   0.349   6.657 -1.5362 -1.7545 -3.6407
   80SOPE   C34 7283   6.525   0.381   6.633  0.6299  0.3811 -0.2286
   80SOPE   H4X 7284   6.539   0.480   6.585  1.4209  0.4525  0.1289
   80SOPE   H4Y 7285   6.437   0.391   6.701  0.0847 -3.5837 -0.1080
   80SOPE   C35 7286   6.481   0.280   6.523 -0.2241 -0.0894 -0.6176
   80SOPE   H5X 7287   6.371   0.283   6.506 -0.1159  1.2749 -1.2222
   80SOPE   H5Y 7288   6.508   0.177   6.556 -1.1993 -0.2182 -0.2035
   80SOPE   C36 7289   6.545   0.294   6.385  0.8098  0.0259  0.1400
   80SOPE   H6X 7290   6.517   0.205   6.324  1.5581 -0.2873  0.2408
   80SOPE   H6Y 7291   6.653   0.293   6.409  0.3466 -1.1410  2.4314
   80SOPE   C37 7292   6.504   0.416   6.304 -0.3798 -0.0706 -0.6670
   80SOPE   H7X 7293   6.542   0.515   6.338 -0.2599 -0.4397  0.3093
   80SOPE   H7Y 7294   6.393   0.421   6.307 -0.4207 -0.8393 -0.7554
   80SOPE   C38 7295   6.548   0.411   6.155  0.6291  0.2906 -0.5280
   80SOPE   H8X 7296   6.532   0.306   6.125 -0.3284  0.2688  0.0461
   80SOPE   H8Y 7297   6.655   0.433   6.133  0.4308  1.4921 -0.4008
   80SOPE   C39 7298   6.459   0.487   6.054  0.7078  0.0459  0.3722
   80SOPE   H9X 7299   6.472   0.595   6.073 -2.5671  0.5180  0.6198
   80SOPE   H9Y 7300   6.352   0.468   6.078  0.6590  1.0478  1.0048
   80SOPE  C310 7301   6.490   0.447   5.909 -0.0912 -0.1788 -0.3161
   80SOPE  H10X 7302   6.408   0.471   5.837 -1.6098 -5.0220 -0.5691
   80SOPE  H10Y 7303   6.501   0.337   5.909  0.5289 -0.1574 -2.0764
   80SOPE  C311 7304   6.612   0.514   5.846  0.1943  0.1636 -0.6494
   80SOPE  H11X 7305   6.697   0.476   5.906 -0.5276  1.3038  1.1814
   80SOPE  H11Y 7306   6.604   0.624   5.863  2.5057  0.0543  1.8760
   80SOPE  C312 7307   6.634   0.494   5.699  0.3933  0.5945  0.5025
   80SOPE  H12X 7308   6.574   0.567   5.640 -0.6836  0.6883  1.6796
   80SOPE  H12Y 7309   6.595   0.396   5.663 -0.4205  0.5082  1.5900
   80SOPE  C313 7310   6.783   0.495   5.662  0.2425 -0.1550 -0.5946
   80SOPE  H13X 7311   6.835   0.418   5.723 -0.6951 -0.1535  0.2202
   80SOPE  H13Y 7312   6.830   0.592   5.691 -1.5647  0.1090  1.7175
   80SOPE  C314 7313   6.814   0.467   5.516 -0.7938 -0.3642 -0.6153
   80SOPE  H14X 7314   6.922   0.475   5.494 -0.6208  0.3839  0.4439
   80SOPE  H14Y 7315   6.753   0.538   5.456 -2.8465 -0.9965  0.6184
   80SOPE  C315 7316   6.787   0.325   5.468 -0.3113  0.0934  0.1240
   80SOPE  H15X 7317   6.676   0.312   5.462 -0.2891 -0.6162  1.0741
   80SOPE  H15Y 7318   6.821   0.261   5.552 -0.4584  0.8656  0.7900
   80SOPE  C316 7319   6.863   0.281   5.339 -0.7685 -1.2253 -0.3044
   80SOPE  H16X 7320   6.838   0.175   5.322 -1.2625 -0.9962 -1.0412
   80SOPE  H16Y 7321   6.970   0.294   5.364 -1.0970  1.0771  0.1671
   80SOPE  C317 7322   6.830   0.369   5.219 -0.8712 -0.9207  0.1371
   80SOPE  H17X 7323   6.856   0.477   5.232  1.8909 -1.3110 -1.3740
   80SOPE  H17Y 7324   6.719   0.368   5.209 -0.8153 -2.3387 -0.5333
   80SOPE  C318 7325   6.894   0.336   5.082  0.6151  0.6430  0.3519
   80SOPE  H18X 7326   6.874   0.416   5.007 -0.7791  0.3876  0.4272
   80SOPE  H18Y 7327   6.847   0.239   5.058 -1.1527  1.8414 -1.4127
   80SOPE  H18Z 7328   7.004   0.322   5.088  0.6053  0.6378  0.5219
   81SOPE     N 7329   2.766   2.870   7.425  0.8306 -0.1545 -0.3599
   81SOPE   HN1 7330   2.819   2.785   7.400  0.3139 -1.0974  1.5705
   81SOPE   HN2 7331   2.832   2.945   7.454  1.2497 -0.5868 -0.1954
   81SOPE   HN3 7332   2.709   2.852   7.510  0.5737  3.4565  0.4133
   81SOPE   C12 7333   2.679   2.929   7.313 -0.0882  0.3852  0.0514
   81SOPE  H12A 7334   2.615   2.843   7.283 -0.4951 -0.0206  1.9670
   81SOPE  H12B 7335   2.739   2.933   7.220 -0.2235  0.0878 -0.0515
   81SOPE   C11 7336   2.623   3.061   7.355  0.4645 -1.3921 -0.1379
   81SOPE  H11A 7337   2.594   3.121   7.266 -2.8968  2.3906  3.1245
   81SOPE  H11B 7338   2.697   3.116   7.416 -1.1413  0.9581 -0.1684
   81SOPE     P 7339   2.430   3.164   7.495 -0.0739 -0.4008  0.0017
   81SOPE   O13 7340   2.524   3.236   7.582 -0.5118 -0.1095  0.1046
   81SOPE   O14 7341   2.305   3.127   7.566 -0.2418  0.2752  0.1808
   81SOPE   O12 7342   2.510   3.038   7.441 -0.0936  0.0961  0.4070
   81SOPE   O11 7343   2.404   3.258   7.372  0.0161 -0.5069 -0.3543
   81SOPE    C1 7344   2.290   3.248   7.288 -0.6739 -0.0834 -0.2061
   81SOPE    HA 7345   2.263   3.353   7.260  0.8039  0.5632  0.6702
   81SOPE    HB 7346   2.201   3.212   7.344 -0.8678  1.0136  0.2367
   81SOPE    C2 7347   2.319   3.167   7.160  0.5916 -0.5012 -0.4324
   81SOPE    HS 7348   2.374   3.076   7.191 -0.6780 -0.9873  0.4945
   81SOPE   O21 7349   2.396   3.245   7.064 -0.1148  0.7902 -0.2109
   81SOPE   C21 7350   2.459   3.173   6.971  0.5166  0.5272 -0.0490
   81SOPE   O22 7351   2.457   3.053   6.965  0.0260 -0.5252 -0.0808
   81SOPE   C22 7352   2.528   3.271   6.873 -0.3931  1.1825  0.4483
   81SOPE   H2R 7353   2.636   3.249   6.888 -0.4287 -0.4918 -1.3393
   81SOPE   H2S 7354   2.506   3.374   6.907  1.4516  1.8385 -0.2192
   81SOPE    C3 7355   2.189   3.120   7.099 -0.6177 -0.2623  0.5742
   81SOPE    HX 7356   2.147   3.051   7.176 -1.2077 -1.4095 -0.7253
   81SOPE    HY 7357   2.224   3.061   7.012  0.4715  0.9684  0.1595
   81SOPE   O31 7358   2.102   3.226   7.067  0.4304 -0.2343  0.2130
   81SOPE   C31 7359   1.979   3.190   7.032  0.0536  0.4344 -0.4551
   81SOPE   O32 7360   1.947   3.071   7.034  0.3905  0.4470  1.0392
   81SOPE   C32 7361   1.901   3.303   6.979  0.1418  0.9391 -0.1224
   81SOPE   H2X 7362   1.967   3.351   6.904  1.5017  1.9154  1.6140
   81SOPE   H2Y 7363   1.889   3.374   7.064 -3.2854  0.4133 -0.0336
   81SOPE   C23 7364   2.492   3.256   6.722  0.1454 -0.1935  0.6000
   81SOPE   H3R 7365   2.453   3.153   6.704 -2.1814  0.9035 -1.2043
   81SOPE   H3S 7366   2.584   3.264   6.660  1.2230 -2.0323  1.8430
   81SOPE   C24 7367   2.377   3.339   6.670  0.1667  0.3797 -0.3674
   81SOPE   H4R 7368   2.404   3.447   6.674  1.4735  0.0298  0.6349
   81SOPE   H4S 7369   2.373   3.303   6.565 -0.0568 -0.5075 -0.0582
   81SOPE   C25 7370   2.232   3.315   6.733  0.8571 -0.6621  0.0711
   81SOPE   H5R 7371   2.228   3.345   6.839 -1.2595 -1.4073  0.2567
   81SOPE   H5S 7372   2.165   3.388   6.683  1.5492  0.5547  0.8972
   81SOPE   C26 7373   2.174   3.172   6.728  0.0652 -0.6069 -0.3454
   81SOPE   H6R 7374   2.246   3.112   6.788 -0.3537 -0.3527  0.4325
   81SOPE   H6S 7375   2.079   3.180   6.785  1.6651  1.5857  2.2838
   81SOPE   C27 7376   2.162   3.102   6.592 -0.2675  0.2314 -0.2968
   81SOPE   H7R 7377   2.253   3.129   6.535  1.2360 -0.5592  1.6470
   81SOPE   H7S 7378   2.166   2.992   6.603  1.1799  0.2985  0.0466
   81SOPE   C28 7379   2.045   3.138   6.495 -0.6365 -1.0118  0.0269
   81SOPE   H8R 7380   2.051   3.248   6.479 -4.7472 -0.7696 -0.8726
   81SOPE   H8S 7381   2.058   3.086   6.398  1.1967 -1.3904  0.4443
   81SOPE   C29 7382   1.914   3.108   6.557  0.1008 -0.6502  0.0283
   81SOPE   H91 7383   1.925   3.035   6.638 -0.9897  0.8704  1.6182
   81SOPE  C210 7384   1.795   3.150   6.517 -0.5853 -0.7146 -0.1222
   81SOPE  H101 7385   1.711   3.098   6.565 -1.4587 -1.3950 -2.2392
   81SOPE  C211 7386   1.761   3.247   6.407  0.1751  0.4173  0.8468
   81SOPE  H11R 7387   1.845   3.314   6.378 -0.9188  0.4695 -2.5469
   81SOPE  H11S 7388   1.685   3.321   6.438  1.4717  2.0044  0.4000
   81SOPE  C212 7389   1.706   3.172   6.288  0.7471  0.0418  0.0476
   81SOPE  H12R 7390   1.659   3.243   6.216  1.4552 -0.2245 -0.6883
   81SOPE  H12S 7391   1.633   3.091   6.309  1.3616 -0.8124 -1.0213
   81SOPE  C213 7392   1.807   3.102   6.198 -0.0056  0.1817  0.6144
   81SOPE  H13R 7393   1.747   3.055   6.117  0.1156  1.4887 -0.2738
   81SOPE  H13S 7394   1.847   3.022   6.263 -2.0240  0.8312  2.7704
   81SOPE  C214 7395   1.911   3.189   6.127  0.3069 -0.5126 -0.0856
   81SOPE  H14R 7396   1.985   3.233   6.198  0.8439 -1.1881 -0.2103
   81SOPE  H14S 7397   1.869   3.278   6.075  0.5248  0.1919  0.9149
   81SOPE  C215 7398   1.995   3.106   6.031 -0.0102 -0.1663  0.2141
   81SOPE  H15R 7399   1.936   3.022   5.987 -0.6398  0.0425  0.6586
   81SOPE  H15S 7400   2.078   3.067   6.093 -0.5783 -1.1624  0.3750
   81SOPE  C216 7401   2.047   3.195   5.920 -0.5349 -0.1658  0.4409
   81SOPE  H16R 7402   2.129   3.128   5.885  0.9405  0.8507  1.8052
   81SOPE  H16S 7403   2.089   3.291   5.959  0.1997  0.1375 -1.0272
   81SOPE  C217 7404   1.936   3.229   5.824  0.3187 -0.2763 -0.5823
   81SOPE  H17R 7405   1.859   3.295   5.869 -0.5202 -2.1342  0.8811
   81SOPE  H17S 7406   1.887   3.132   5.799 -0.9664 -0.7806  3.2384
   81SOPE  C218 7407   1.993   3.296   5.694  0.0181  0.4518 -0.3510
   81SOPE  H18R 7408   2.076   3.236   5.652  1.5926  1.0581  1.7527
   81SOPE  H18S 7409   2.028   3.396   5.728 -0.1935  0.2500  0.4874
   81SOPE  H18T 7410   1.908   3.290   5.622  1.0726  1.3631 -1.7152
   81SOPE   C33 7411   1.773   3.256   6.914  0.6297  0.1226  0.2872
   81SOPE   H3X 7412   1.716   3.196   6.988  2.6031 -0.9630  0.9945
   81SOPE   H3Y 7413   1.800   3.193   6.826  1.4268 -0.1836  0.7425
   81SOPE   C34 7414   1.678   3.371   6.865 -0.2369  0.0780 -0.1375
   81SOPE   H4X 7415   1.721   3.435   6.786 -3.9395  0.7477 -1.8501
   81SOPE   H4Y 7416   1.673   3.440   6.951 -0.4583 -1.6227  1.2731
   81SOPE   C35 7417   1.542   3.335   6.813  0.5843 -0.1641  0.5313
   81SOPE   H5X 7418   1.471   3.288   6.884  0.5831 -0.3119  0.4326
   81SOPE   H5Y 7419   1.555   3.266   6.727  1.3337  0.6546 -0.0338
   81SOPE   C36 7420   1.455   3.455   6.760  0.5250 -0.3905 -0.2991
   81SOPE   H6X 7421   1.472   3.541   6.827 -2.3267  0.7796 -0.9202
   81SOPE   H6Y 7422   1.346   3.441   6.776  0.8156 -1.4646  0.8879
   81SOPE   C37 7423   1.477   3.509   6.619 -0.0359 -0.0965  0.1955
   81SOPE   H7X 7424   1.585   3.521   6.596  0.1457 -1.4831  0.2074
   81SOPE   H7Y 7425   1.435   3.611   6.609 -2.2106 -1.0760 -1.5228
   81SOPE   C38 7426   1.403   3.438   6.506 -0.2822  0.8539 -0.2926
   81SOPE   H8X 7427   1.294   3.430   6.529 -0.2000  2.2621  0.7459
   81SOPE   H8Y 7428   1.440   3.333   6.512 -0.0613  0.8908 -0.9494
   81SOPE   C39 7429   1.432   3.509   6.378  0.1814  1.2713  0.5946
   81SOPE   H9X 7430   1.537   3.545   6.370  1.1623 -1.6408 -0.8894
   81SOPE   H9Y 7431   1.377   3.606   6.384  0.0370  1.1998  0.4349
   81SOPE  C310 7432   1.383   3.440   6.252  0.3471  0.3439  0.4037
   81SOPE  H10X 7433   1.275   3.441   6.229  0.5175 -2.3100 -0.8232
   81SOPE  H10Y 7434   1.402   3.331   6.245 -0.4030  0.1416  1.3274
   81SOPE  C311 7435   1.463   3.495   6.132  0.2689  0.5857 -0.4598
   81SOPE  H11X 7436   1.571   3.507   6.156  0.4276  0.4721 -1.1057
   81SOPE  H11Y 7437   1.432   3.600   6.111  2.9191  1.4890 -0.3002
   81SOPE  C312 7438   1.466   3.403   6.011  0.9060  0.0329  0.7361
   81SOPE  H12X 7439   1.359   3.396   5.981  1.1891  1.6528 -0.7984
   81SOPE  H12Y 7440   1.497   3.300   6.039 -1.5964 -0.7705  0.8154
   81SOPE  C313 7441   1.547   3.465   5.892  0.0091 -0.5624 -0.8738
   81SOPE  H13X 7442   1.652   3.491   5.920 -0.0886 -1.7464  0.7191
   81SOPE  H13Y 7443   1.490   3.555   5.859 -0.1757 -0.0147  0.8512
   81SOPE  C314 7444   1.546   3.367   5.770  0.5211 -0.6934  0.6394
   81SOPE  H14X 7445   1.447   3.318   5.759  0.8660 -1.8009  2.1406
   81SOPE  H14Y 7446   1.621   3.291   5.799  1.7788 -0.2394 -1.2860
   81SOPE  C315 7447   1.578   3.428   5.630  0.0670  0.0347 -0.8513
   81SOPE  H15X 7448   1.583   3.345   5.556  2.7015  0.0173 -0.7652
   81SOPE  H15Y 7449   1.682   3.469   5.631  0.3589 -0.6983 -0.6001
   81SOPE  C316 7450   1.478   3.533   5.579  0.2625 -0.8368  1.0450
   81SOPE  H16X 7451   1.489   3.627   5.637  1.3509  1.2765 -2.3012
   81SOPE  H16Y 7452   1.376   3.496   5.600  0.4658 -1.6310  0.6507
   81SOPE  C317 7453   1.490   3.560   5.429  1.2503  0.2774 -0.0720
   81SOPE  H17X 7454   1.393   3.595   5.386  1.7556  2.2667  0.2806
   81SOPE  H17Y 7455   1.513   3.464   5.378  1.2713 -0.2515  0.9142
   81SOPE  C318 7456   1.613   3.651   5.394 -0.6686 -0.3223 -0.5023
   81SOPE  H18X 7457   1.615   3.662   5.283 -0.9492 -0.7131 -0.5484
   81SOPE  H18Y 7458   1.713   3.613   5.423  0.0398 -0.1854 -2.5552
   81SOPE  H18Z 7459   1.603   3.749   5.446 -0.3499 -1.1286  1.1320
   82SOPE     N 7460   4.343   4.164   7.487 -0.0988 -0.9646  0.3187
   82SOPE   HN1 7461   4.261   4.161   7.425  0.5098  0.6474 -0.6315
   82SOPE   HN2 7462   4.326   4.250   7.543 -0.5685 -1.5868  1.1526
   82SOPE   HN3 7463   4.423   4.183   7.423 -0.1792 -0.3501  0.3885
   82SOPE   C12 7464   4.341   4.041   7.576 -0.6082  0.5005  0.7705
   82SOPE  H12A 7465   4.262   4.066   7.650 -1.2456  0.2611  0.1811
   82SOPE  H12B 7466   4.435   4.041   7.635 -0.7188 -1.7144  1.0366
   82SOPE   C11 7467   4.300   3.909   7.507 -0.2103  0.0791 -0.4135
   82SOPE  H11A 7468   4.194   3.918   7.474 -0.2928 -1.4083 -0.6209
   82SOPE  H11B 7469   4.302   3.835   7.590 -2.0487  2.1810  1.6281
   82SOPE     P 7470   4.524   3.793   7.417  0.2656 -0.0009  0.1903
   82SOPE   O13 7471   4.495   3.650   7.410  0.0084  0.2005 -0.4555
   82SOPE   O14 7472   4.600   3.833   7.536  0.1986 -0.0155  0.0654
   82SOPE   O12 7473   4.391   3.883   7.396 -0.1560  0.1319 -0.4100
   82SOPE   O11 7474   4.611   3.826   7.292 -0.2246 -0.4200  0.2340
   82SOPE    C1 7475   4.557   3.871   7.164 -0.4131  0.3062 -0.8818
   82SOPE    HA 7476   4.630   3.872   7.081 -1.0649 -2.7944 -1.6490
   82SOPE    HB 7477   4.503   3.968   7.169 -3.4222 -1.2816 -0.1061
   82SOPE    C2 7478   4.429   3.783   7.106 -0.5649  0.0277  0.3843
   82SOPE    HS 7479   4.352   3.784   7.186 -1.7072  2.5874 -0.6584
   82SOPE   O21 7480   4.475   3.650   7.073 -0.1084 -0.3464 -0.3399
   82SOPE   C21 7481   4.382   3.556   7.043  0.1354 -0.3109 -0.3889
   82SOPE   O22 7482   4.260   3.567   7.036  0.4584 -0.2313 -0.1452
   82SOPE   C22 7483   4.452   3.426   7.021 -0.4484 -0.4651  0.3911
   82SOPE   H2R 7484   4.445   3.359   7.109 -0.2019 -0.2470  0.5785
   82SOPE   H2S 7485   4.559   3.456   7.016 -0.9284  1.1513 -2.6586
   82SOPE    C3 7486   4.371   3.857   6.984 -0.8309 -0.5121 -0.3558
   82SOPE    HX 7487   4.316   3.941   7.031  0.2733 -0.2402  0.4596
   82SOPE    HY 7488   4.297   3.793   6.931 -1.3378 -0.6899  0.5471
   82SOPE   O31 7489   4.468   3.914   6.890  0.0956  0.2286 -0.0600
   82SOPE   C31 7490   4.499   3.833   6.789 -0.1926  0.6364  0.5782
   82SOPE   O32 7491   4.424   3.749   6.742  0.6818 -0.4705 -0.1009
   82SOPE   C32 7492   4.622   3.888   6.715 -0.5253 -0.4050 -0.4649
   82SOPE   H2X 7493   4.705   3.819   6.741  0.8144  0.4910 -2.1668
   82SOPE   H2Y 7494   4.646   3.991   6.748 -0.5001 -0.8261  0.8653
   82SOPE   C23 7495   4.392   3.345   6.903 -0.5751  0.1008 -0.2107
   82SOPE   H3R 7496   4.284   3.325   6.922 -0.4523 -0.8114 -0.3984
   82SOPE   H3S 7497   4.430   3.240   6.904  0.5751  0.5108  0.1985
   82SOPE   C24 7498   4.402   3.405   6.761  0.0377 -0.3379 -1.0034
   82SOPE   H4R 7499   4.329   3.487   6.747 -2.3732 -2.1442  0.1499
   82SOPE   H4S 7500   4.507   3.441   6.750 -0.0070  0.5312  0.9984
   82SOPE   C25 7501   4.374   3.297   6.659 -0.2220  0.2301  0.2171
   82SOPE   H5R 7502   4.447   3.216   6.683 -0.0129  0.3450 -0.0235
   82SOPE   H5S 7503   4.274   3.249   6.668  0.1894 -0.5801  0.5643
   82SOPE   C26 7504   4.395   3.346   6.519  0.3021  0.5498  0.5064
   82SOPE   H6R 7505   4.393   3.456   6.507 -2.2311  0.3931 -1.2846
   82SOPE   H6S 7506   4.495   3.310   6.487 -0.4642 -0.8063 -0.4833
   82SOPE   C27 7507   4.293   3.300   6.412  0.2054 -0.0698 -0.7675
   82SOPE   H7R 7508   4.292   3.189   6.411 -0.6685 -0.0750 -0.1392
   82SOPE   H7S 7509   4.189   3.336   6.432 -0.2278  1.1280 -4.3392
   82SOPE   C28 7510   4.328   3.345   6.268 -0.1591 -0.6986 -0.1344
   82SOPE   H8R 7511   4.252   3.315   6.194 -2.6766 -0.1531  2.0554
   82SOPE   H8S 7512   4.311   3.455   6.263  0.1127 -0.7362 -3.0362
   82SOPE   C29 7513   4.470   3.328   6.209 -0.3333  0.5307  0.6031
   82SOPE   H91 7514   4.558   3.361   6.265  1.1507  1.7032 -2.2301
   82SOPE  C210 7515   4.503   3.291   6.080  0.1770  0.2987 -0.5770
   82SOPE  H101 7516   4.612   3.282   6.065  0.3511 -0.3896  0.8939
   82SOPE  C211 7517   4.420   3.258   5.957  0.4948 -0.2103  0.2772
   82SOPE  H11R 7518   4.320   3.221   5.989 -0.4348  0.9090 -1.2359
   82SOPE  H11S 7519   4.473   3.172   5.911 -2.5250 -2.5806  0.9221
   82SOPE  C212 7520   4.416   3.372   5.856  0.6086 -0.4222  0.2126
   82SOPE  H12R 7521   4.520   3.395   5.827  0.3217  0.6857  0.0078
   82SOPE  H12S 7522   4.370   3.464   5.897 -0.6025 -1.0455  0.3153
   82SOPE  C213 7523   4.332   3.342   5.731  0.4843  0.8214 -0.0991
   82SOPE  H13R 7524   4.339   3.239   5.691  0.8276  1.3530 -1.4675
   82SOPE  H13S 7525   4.366   3.408   5.647  0.8497 -0.7180 -1.2065
   82SOPE  C214 7526   4.179   3.364   5.763 -0.6341  0.6041 -0.0984
   82SOPE  H14R 7527   4.175   3.472   5.791  1.7150  0.5197  0.8321
   82SOPE  H14S 7528   4.147   3.314   5.856 -1.9758  0.1860 -0.7674
   82SOPE  C215 7529   4.096   3.343   5.646 -0.1343 -0.2598  0.7669
   82SOPE  H15R 7530   4.131   3.425   5.580  1.7825 -0.3957  1.5310
   82SOPE  H15S 7531   3.990   3.372   5.661 -0.9806 -0.6954 -3.2347
   82SOPE  C216 7532   4.101   3.210   5.583 -0.8114  0.0410 -0.5086
   82SOPE  H16R 7533   4.080   3.135   5.661 -0.5255 -1.1798 -1.5704
   82SOPE  H16S 7534   4.202   3.194   5.541 -1.9935 -0.1702 -3.5615
   82SOPE  C217 7535   3.995   3.197   5.472 -0.1845 -0.2694  0.3520
   82SOPE  H17R 7536   4.035   3.228   5.373  0.5650  1.2614  1.1013
   82SOPE  H17S 7537   3.922   3.278   5.494 -0.6863 -1.3562  2.9758
   82SOPE  C218 7538   3.922   3.063   5.457  0.4110  0.1584  0.6428
   82SOPE  H18R 7539   3.849   3.069   5.373  2.4535  1.9385 -1.1068
   82SOPE  H18S 7540   3.870   3.032   5.550  0.4669 -1.8545  0.0521
   82SOPE  H18T 7541   3.995   2.984   5.429 -0.9436  0.1583 -3.6279
   82SOPE   C33 7542   4.602   3.888   6.562  0.1115  0.3474 -0.5527
   82SOPE   H3X 7543   4.523   3.952   6.517 -0.3605 -0.1975 -0.5096
   82SOPE   H3Y 7544   4.583   3.781   6.540  0.4000  0.2578 -0.3763
   82SOPE   C34 7545   4.737   3.923   6.494  0.3533  0.1855 -0.6208
   82SOPE   H4X 7546   4.808   3.890   6.572  0.1427 -0.0469 -0.5245
   82SOPE   H4Y 7547   4.745   4.033   6.482 -0.5052  0.3636  0.2985
   82SOPE   C35 7548   4.759   3.847   6.369 -0.3145  0.2741  0.4475
   82SOPE   H5X 7549   4.765   3.737   6.386 -0.4282  0.0929 -0.6141
   82SOPE   H5Y 7550   4.858   3.870   6.325 -0.7106  0.7060 -0.2412
   82SOPE   C36 7551   4.646   3.882   6.267  0.0563  0.6197 -0.1942
   82SOPE   H6X 7552   4.656   3.991   6.250  1.8689  0.4546 -0.4067
   82SOPE   H6Y 7553   4.539   3.868   6.292  0.6364  1.0615  2.9527
   82SOPE   C37 7554   4.683   3.823   6.130  1.1342  0.4970 -0.0609
   82SOPE   H7X 7555   4.781   3.866   6.100  1.2023  0.3183 -0.0977
   82SOPE   H7Y 7556   4.597   3.855   6.067  1.0719 -4.4817 -3.0281
   82SOPE   C38 7557   4.681   3.669   6.126 -0.3389  0.0115  0.0988
   82SOPE   H8X 7558   4.598   3.632   6.190  1.1065  2.5402  3.7830
   82SOPE   H8Y 7559   4.771   3.624   6.171 -0.7284  0.2622  1.1703
   82SOPE   C39 7560   4.679   3.619   5.983  0.2950 -0.1352 -0.4285
   82SOPE   H9X 7561   4.599   3.674   5.930  0.6924  2.1877  1.2233
   82SOPE   H9Y 7562   4.652   3.511   5.975 -1.6960  0.3168 -0.3278
   82SOPE  C310 7563   4.810   3.637   5.903  0.3064  0.6026  0.2753
   82SOPE  H10X 7564   4.896   3.592   5.957  1.0322  1.4777 -0.1168
   82SOPE  H10Y 7565   4.829   3.746   5.888 -0.0387  0.5982 -0.2158
   82SOPE  C311 7566   4.801   3.555   5.778  0.1924 -1.2242 -0.1933
   82SOPE  H11X 7567   4.712   3.586   5.718 -0.1451 -0.1710  0.8229
   82SOPE  H11Y 7568   4.785   3.452   5.815  0.0919 -0.9738  0.4641
   82SOPE  C312 7569   4.932   3.544   5.690 -0.2269 -0.4575  0.2396
   82SOPE  H12X 7570   5.019   3.551   5.760  0.2554 -0.9063 -0.2981
   82SOPE  H12Y 7571   4.948   3.628   5.620  2.7067  0.6991  2.1039
   82SOPE  C313 7572   4.919   3.412   5.605  0.0986  0.3765  0.0834
   82SOPE  H13X 7573   4.825   3.421   5.546  0.3798 -0.2094 -0.4612
   82SOPE  H13Y 7574   4.892   3.332   5.677 -2.4653  0.4791 -0.6634
   82SOPE  C314 7575   5.035   3.388   5.508 -0.6309 -0.6940 -0.0655
   82SOPE  H14X 7576   5.031   3.292   5.452  1.8085 -1.3397  0.7391
   82SOPE  H14Y 7577   5.130   3.387   5.566 -0.5886  0.3221 -0.1033
   82SOPE  C315 7578   5.058   3.499   5.399  0.4276  0.3081  0.5532
   82SOPE  H15X 7579   5.083   3.589   5.458  0.7784  0.5953 -0.0297
   82SOPE  H15Y 7580   4.963   3.516   5.344 -0.9259 -1.0859  2.3091
   82SOPE  C316 7581   5.168   3.464   5.301 -0.3731 -0.2327  0.9438
   82SOPE  H16X 7582   5.261   3.436   5.353  2.4210  0.5414 -3.1186
   82SOPE  H16Y 7583   5.203   3.547   5.237 -0.3021 -0.6308  0.4573
   82SOPE  C317 7584   5.131   3.353   5.200  0.4738  0.2828  1.1073
   82SOPE  H17X 7585   5.126   3.256   5.255 -0.3060  0.6950  1.7878
   82SOPE  H17Y 7586   5.211   3.351   5.123  2.6056 -1.9455  3.1812
   82SOPE  C318 7587   5.001   3.379   5.121 -1.2566  0.8853 -0.2584
   82SOPE  H18X 7588   4.992   3.298   5.045 -2.0171 -0.3974  1.1293
   82SOPE  H18Y 7589   5.013   3.480   5.078  1.7465  1.0901  0.8216
   82SOPE  H18Z 7590   4.906   3.378   5.179 -0.9810 -0.5222  0.2118
   83SOPE     N 7591   0.770   4.790   2.738 -0.4520  0.0616  0.2925
   83SOPE   HN1 7592   0.673   4.826   2.750 -0.8514 -1.2653  1.3171
   83SOPE   HN2 7593   0.805   4.766   2.834  0.3506 -1.7183 -0.3919
   83SOPE   HN3 7594   0.824   4.872   2.703  0.8866 -0.1273  1.7688
   83SOPE   C12 7595   0.788   4.667   2.651  0.3518 -0.4556 -0.2698
   83SOPE  H12A 7596   0.893   4.631   2.651  0.7044  0.5368 -0.0401
   83SOPE  H12B 7597   0.767   4.707   2.549  2.7435  0.8406 -0.3155
   83SOPE   C11 7598   0.694   4.554   2.696  0.0497  0.2482  0.8981
   83SOPE  H11A 7599   0.727   4.536   2.801  4.7040 -0.0292 -0.4171
   83SOPE  H11B 7600   0.711   4.457   2.645  1.3969 -0.1295  1.9930
   83SOPE     P 7601   0.434   4.505   2.733 -0.0781  0.2624  0.0330
   83SOPE   O13 7602   0.489   4.368   2.755 -0.6443  0.2663 -0.1576
   83SOPE   O14 7603   0.333   4.517   2.623 -0.8345 -0.2504  0.4457
   83SOPE   O12 7604   0.558   4.600   2.701  0.2209  0.1506  0.2370
   83SOPE   O11 7605   0.368   4.547   2.873 -0.0001 -0.1647 -0.0342
   83SOPE    C1 7606   0.440   4.531   2.994  0.4601 -0.7791  1.1850
   83SOPE    HA 7607   0.547   4.562   2.988 -0.0622  1.4614  2.2842
   83SOPE    HB 7608   0.434   4.427   3.033 -0.1395 -1.1215  0.1931
   83SOPE    C2 7609   0.391   4.630   3.106  0.2829 -0.3393  0.1572
   83SOPE    HS 7610   0.474   4.642   3.179  0.0790 -3.1986  0.9815
   83SOPE   O21 7611   0.273   4.581   3.167  0.0840  0.4492  0.2321
   83SOPE   C21 7612   0.303   4.482   3.253 -0.9066  0.2334 -0.4311
   83SOPE   O22 7613   0.416   4.441   3.282 -0.4026  0.2188  0.3615
   83SOPE   C22 7614   0.170   4.435   3.314 -0.7130 -0.0682  0.4074
   83SOPE   H2R 7615   0.093   4.426   3.234 -0.3373  0.2363  0.0062
   83SOPE   H2S 7616   0.146   4.505   3.396  1.1758 -0.1301  1.0656
   83SOPE    C3 7617   0.358   4.771   3.043  0.3042 -0.0111 -0.3145
   83SOPE    HX 7618   0.261   4.768   2.990  0.9358 -0.6382 -1.4899
   83SOPE    HY 7619   0.431   4.802   2.965 -2.0127  2.0164 -1.7941
   83SOPE   O31 7620   0.354   4.863   3.155 -0.0300  0.4354 -0.3317
   83SOPE   C31 7621   0.245   4.920   3.189 -0.2896 -0.0036  1.1035
   83SOPE   O32 7622   0.142   4.922   3.128  0.6141  0.4810  0.1910
   83SOPE   C32 7623   0.273   4.988   3.319  0.9556  0.1055 -0.6854
   83SOPE   H2X 7624   0.277   5.095   3.290 -0.6551  0.2803 -0.3267
   83SOPE   H2Y 7625   0.369   4.951   3.362  1.6810 -2.0141 -3.8244
   83SOPE   C23 7626   0.187   4.301   3.388  0.0168  0.1802  0.3928
   83SOPE   H3R 7627   0.201   4.216   3.318  1.3515 -0.0656  0.9379
   83SOPE   H3S 7628   0.088   4.283   3.436 -1.4259  1.1121 -2.0283
   83SOPE   C24 7629   0.289   4.306   3.498  0.1226  0.4657  0.1352
   83SOPE   H4R 7630   0.390   4.275   3.464  0.1124  1.7901 -1.2010
   83SOPE   H4S 7631   0.274   4.405   3.547  0.7710 -0.3140  1.9582
   83SOPE   C25 7632   0.241   4.204   3.604  0.1834  0.1626 -0.2603
   83SOPE   H5R 7633   0.141   4.235   3.641  0.1968  2.6867 -2.0816
   83SOPE   H5S 7634   0.238   4.101   3.562 -0.0441  0.0702 -0.0244
   83SOPE   C26 7635   0.322   4.210   3.734 -0.6382 -0.0338 -0.8395
   83SOPE   H6R 7636   0.425   4.175   3.711  0.9685  2.4364  1.9308
   83SOPE   H6S 7637   0.345   4.313   3.767  1.9832 -0.6717 -0.4303
   83SOPE   C27 7638   0.252   4.135   3.848 -0.1658 -0.6489  0.1663
   83SOPE   H7R 7639   0.149   4.175   3.855 -0.1953 -0.5847 -0.5725
   83SOPE   H7S 7640   0.246   4.026   3.825  1.1216 -0.6554 -0.2354
   83SOPE   C28 7641   0.323   4.158   3.983  0.0809 -0.1818 -0.0154
   83SOPE   H8R 7642   0.415   4.096   3.979 -0.2104 -0.6210  0.0665
   83SOPE   H8S 7643   0.362   4.261   3.999 -0.9349  0.0476  1.0853
   83SOPE   C29 7644   0.245   4.120   4.108 -0.2238 -0.2124 -0.7404
   83SOPE   H91 7645   0.162   4.188   4.131  1.2553  1.0314  1.2459
   83SOPE  C210 7646   0.264   4.027   4.200  0.4904  0.1118 -0.0011
   83SOPE  H101 7647   0.186   4.027   4.278 -1.3626  3.0622 -1.6278
   83SOPE  C211 7648   0.354   3.912   4.208 -0.3855  0.2049 -0.0272
   83SOPE  H11R 7649   0.452   3.936   4.255 -0.6366 -1.7174  1.6027
   83SOPE  H11S 7650   0.384   3.877   4.107 -0.0436 -0.3321  0.2580
   83SOPE  C212 7651   0.303   3.781   4.285  0.5831 -0.0094  0.6959
   83SOPE  H12R 7652   0.378   3.701   4.264 -1.7893 -1.9404 -1.0761
   83SOPE  H12S 7653   0.205   3.745   4.247  0.6863  0.2889  0.1405
   83SOPE  C213 7654   0.313   3.796   4.439  0.4905  0.1035  0.0904
   83SOPE  H13R 7655   0.260   3.886   4.476 -0.6335 -0.5351  0.0754
   83SOPE  H13S 7656   0.415   3.825   4.472  1.4218 -0.3010 -2.2412
   83SOPE  C214 7657   0.260   3.673   4.526  0.0499 -0.6967 -0.7041
   83SOPE  H14R 7658   0.333   3.589   4.516  1.9046  0.9791 -2.1003
   83SOPE  H14S 7659   0.163   3.638   4.485 -0.8142  1.5925 -0.7053
   83SOPE  C215 7660   0.248   3.698   4.674  0.2488 -0.2195  0.5584
   83SOPE  H15R 7661   0.193   3.794   4.664 -0.7198 -0.8284 -0.1803
   83SOPE  H15S 7662   0.351   3.710   4.714  1.0546 -2.3775 -0.6862
   83SOPE  C216 7663   0.167   3.591   4.753  0.1237  1.1109  0.0396
   83SOPE  H16R 7664   0.237   3.505   4.753  0.5923  1.4243 -2.0005
   83SOPE  H16S 7665   0.082   3.555   4.691  1.4565 -3.0928  0.3618
   83SOPE  C217 7666   0.127   3.644   4.888 -0.0540  0.6693 -0.2960
   83SOPE  H17R 7667   0.072   3.738   4.869  0.2310  0.6235 -1.4327
   83SOPE  H17S 7668   0.219   3.656   4.949  0.1295 -0.2125 -0.3763
   83SOPE  C218 7669   0.035   3.551   4.959  0.5998  0.3867  0.3906
   83SOPE  H18R 7670  -0.045   3.524   4.886 -0.2107  1.7316  0.7449
   83SOPE  H18S 7671  -0.018   3.582   5.052 -2.5402 -2.8439 -0.0819
   83SOPE  H18T 7672   0.084   3.456   4.989  0.6424  0.7748  1.5913
   83SOPE   C33 7673   0.151   4.971   3.412  0.0876 -1.1293 -0.1800
   83SOPE   H3X 7674   0.055   4.979   3.356 -0.4115 -0.1154  0.7699
   83SOPE   H3Y 7675   0.145   5.063   3.474 -0.6283 -1.9433  0.9888
   83SOPE   C34 7676   0.170   4.841   3.495  0.3806  0.0128 -0.0264
   83SOPE   H4X 7677   0.217   4.859   3.594  2.0164  0.9449 -0.9180
   83SOPE   H4Y 7678   0.246   4.781   3.440  0.2856  1.1442 -1.4560
   83SOPE   C35 7679   0.041   4.767   3.526  0.2534 -0.9907  0.4379
   83SOPE   H5X 7680   0.020   4.706   3.436  0.8302  0.2997 -0.6076
   83SOPE   H5Y 7681  -0.050   4.824   3.554 -0.3046 -1.2079 -0.8562
   83SOPE   C36 7682   0.075   4.656   3.637 -0.0502  0.2285  0.2383
   83SOPE   H6X 7683   0.093   4.711   3.732  1.2826 -0.5089  0.4475
   83SOPE   H6Y 7684   0.175   4.608   3.626  0.9034  1.9124  1.1359
   83SOPE   C37 7685  -0.025   4.538   3.649  0.0089 -0.7095 -0.1736
   83SOPE   H7X 7686   0.036   4.447   3.635  2.0341  0.6373 -0.6120
   83SOPE   H7Y 7687  -0.106   4.539   3.573 -0.5112 -0.6154  0.3758
   83SOPE   C38 7688  -0.083   4.529   3.786  1.4466 -0.1144 -0.8015
   83SOPE   H8X 7689  -0.166   4.601   3.801 -1.2766 -3.3112  0.9044
   83SOPE   H8Y 7690  -0.002   4.540   3.861  0.9679 -0.9820 -0.1427
   83SOPE   C39 7691  -0.152   4.391   3.813 -1.0033  0.3351 -0.0001
   83SOPE   H9X 7692  -0.079   4.308   3.804  1.0544  1.9004  1.6191
   83SOPE   H9Y 7693  -0.230   4.387   3.733  0.9666  0.3320 -2.0133
   83SOPE  C310 7694  -0.213   4.385   3.955  0.0801 -0.0884  1.0059
   83SOPE  H10X 7695  -0.296   4.313   3.942  2.0948 -2.1928 -1.1001
   83SOPE  H10Y 7696  -0.238   4.489   3.987 -1.7107 -0.2375  0.1947
   83SOPE  C311 7697  -0.112   4.320   4.049 -0.1634  0.6180 -0.6566
   83SOPE  H11X 7698  -0.034   4.396   4.070 -1.5622  2.3669 -1.5053
   83SOPE  H11Y 7699  -0.061   4.241   3.989  0.0600  0.8231 -0.7380
   83SOPE  C312 7700  -0.162   4.264   4.183 -0.5298 -0.2588  0.0499
   83SOPE  H12X 7701  -0.112   4.170   4.214 -2.0721 -0.5459  1.8194
   83SOPE  H12Y 7702  -0.272   4.246   4.179 -0.5126 -0.1750 -1.3861
   83SOPE  C313 7703  -0.147   4.348   4.303 -0.6490 -0.5025 -0.9977
   83SOPE  H13X 7704  -0.200   4.445   4.290 -0.9227 -0.5276 -0.1169
   83SOPE  H13Y 7705  -0.039   4.362   4.321 -1.2198  0.4208  2.2561
   83SOPE  C314 7706  -0.219   4.284   4.424 -0.1052 -0.1948 -0.2232
   83SOPE  H14X 7707  -0.328   4.285   4.401  0.0587 -0.0892 -1.0122
   83SOPE  H14Y 7708  -0.198   4.354   4.507  1.0394  1.2278 -1.6434
   83SOPE  C315 7709  -0.172   4.143   4.450 -0.3850 -1.1345 -0.2324
   83SOPE  H15X 7710  -0.061   4.148   4.461 -0.5141  1.3913  0.4514
   83SOPE  H15Y 7711  -0.201   4.079   4.365 -1.8218  0.0489 -0.6634
   83SOPE  C316 7712  -0.228   4.081   4.573  0.6160 -0.1465 -0.2280
   83SOPE  H16X 7713  -0.318   4.024   4.545  0.2032  1.1855 -1.7246
   83SOPE  H16Y 7714  -0.242   4.158   4.652  0.9394 -1.7431  1.4654
   83SOPE  C317 7715  -0.139   3.972   4.630  0.5311 -0.1358  0.9741
   83SOPE  H17X 7716  -0.039   4.011   4.661  0.3679  2.2474 -1.1843
   83SOPE  H17Y 7717  -0.122   3.909   4.540 -1.2551 -1.1438  1.2845
   83SOPE  C318 7718  -0.182   3.892   4.752  0.1937 -0.4504 -0.4120
   83SOPE  H18X 7719  -0.197   3.966   4.834 -2.1599  1.2507 -2.2101
   83SOPE  H18Y 7720  -0.117   3.807   4.780  1.1088 -0.6741 -2.9215
   83SOPE  H18Z 7721  -0.282   3.850   4.725 -0.7233  0.7627  0.9603
   84SOPE     N 7722   6.039   1.954   2.932  0.5772 -0.0245  0.8377
   84SOPE   HN1 7723   6.013   2.053   2.955  1.9053  0.1960  1.4888
   84SOPE   HN2 7724   6.058   1.939   2.831 -1.8483  0.8422  0.1589
   84SOPE   HN3 7725   5.960   1.892   2.958  2.1683 -1.0319  3.7003
   84SOPE   C12 7726   6.163   1.931   3.020  0.2770  0.0688  0.0699
   84SOPE  H12A 7727   6.128   1.943   3.125 -0.1317  0.5723 -0.1188
   84SOPE  H12B 7728   6.237   2.010   2.993 -1.0989  0.9644 -1.2206
   84SOPE   C11 7729   6.226   1.795   3.000 -0.1537  0.1394  0.0013
   84SOPE  H11A 7730   6.283   1.770   3.092  0.7412 -0.5936 -0.7364
   84SOPE  H11B 7731   6.297   1.792   2.914 -0.7046 -1.0000 -0.4265
   84SOPE     P 7732   6.071   1.601   3.094  0.1299 -0.4439 -0.1676
   84SOPE   O13 7733   5.921   1.603   3.102  0.3077 -0.3549 -0.1678
   84SOPE   O14 7734   6.145   1.626   3.217 -0.5305  0.0455  0.4081
   84SOPE   O12 7735   6.120   1.699   2.971  0.1503 -0.1552  0.4399
   84SOPE   O11 7736   6.115   1.469   3.028  0.5677  0.3053  0.6010
   84SOPE    C1 7737   6.250   1.434   3.029 -0.1303  0.2910 -0.3989
   84SOPE    HA 7738   6.323   1.516   3.049  1.5047 -0.5950 -2.3813
   84SOPE    HB 7739   6.277   1.412   2.924 -3.0093  1.1607 -1.4094
   84SOPE    C2 7740   6.281   1.301   3.115 -0.2421  0.3429  0.3409
   84SOPE    HS 7741   6.227   1.223   3.058  0.4581 -0.0151  0.1634
   84SOPE   O21 7742   6.225   1.318   3.243 -0.2341 -0.3404 -0.5273
   84SOPE   C21 7743   6.150   1.221   3.293 -0.0833 -0.6720 -0.8193
   84SOPE   O22 7744   6.163   1.102   3.272  0.1339  0.0482  0.4939
   84SOPE   C22 7745   6.068   1.272   3.413  0.2523  0.1757  0.4078
   84SOPE   H2R 7746   6.021   1.368   3.383  0.0761 -0.4985 -1.6380
   84SOPE   H2S 7747   6.142   1.292   3.494 -0.6740 -1.6183  1.7586
   84SOPE    C3 7748   6.436   1.270   3.125 -0.3078  0.3908 -0.9501
   84SOPE    HX 7749   6.485   1.253   3.027 -0.0506  1.6448 -1.0544
   84SOPE    HY 7750   6.433   1.176   3.185  0.0720  1.2193  0.3921
   84SOPE   O31 7751   6.516   1.370   3.189  0.2425  0.1723 -0.8705
   84SOPE   C31 7752   6.641   1.318   3.225 -0.7007  0.0389  0.7125
   84SOPE   O32 7753   6.675   1.201   3.217 -0.4605  0.5050 -0.8495
   84SOPE   C32 7754   6.725   1.428   3.291  0.3154 -0.2024  0.6518
   84SOPE   H2X 7755   6.658   1.515   3.277 -1.1613 -1.6113 -1.5332
   84SOPE   H2Y 7756   6.813   1.450   3.227 -1.2077  0.8703 -1.1361
   84SOPE   C23 7757   5.956   1.174   3.477 -1.1921 -1.0341  0.3257
   84SOPE   H3R 7758   5.895   1.134   3.393 -1.1892 -1.6743  0.6219
   84SOPE   H3S 7759   5.890   1.237   3.540  0.1442  0.7615  0.0234
   84SOPE   C24 7760   6.009   1.066   3.573 -0.0178  0.0295 -0.3196
   84SOPE   H4R 7761   6.061   0.993   3.509  1.1088 -0.8507  1.5018
   84SOPE   H4S 7762   6.099   1.096   3.632  0.3687 -0.8902 -0.4282
   84SOPE   C25 7763   5.892   1.016   3.654 -0.2654  0.1620 -0.2747
   84SOPE   H5R 7764   5.840   1.092   3.716  0.5479 -0.1531  0.8090
   84SOPE   H5S 7765   5.813   0.993   3.579  2.1292 -0.8515 -2.6483
   84SOPE   C26 7766   5.927   0.894   3.747 -0.2138  0.0962 -0.1179
   84SOPE   H6R 7767   5.834   0.846   3.783  0.5944  0.0899  2.0522
   84SOPE   H6S 7768   5.970   0.809   3.689 -0.1360 -0.7206  1.1089
   84SOPE   C27 7769   6.022   0.923   3.859  0.2112  0.0189  0.2253
   84SOPE   H7R 7770   6.064   0.824   3.886  1.2327 -0.8331 -3.9174
   84SOPE   H7S 7771   6.112   0.984   3.835  1.1430 -0.5273  2.1091
   84SOPE   C28 7772   5.957   0.992   3.982  0.2630 -0.7329 -0.1071
   84SOPE   H8R 7773   5.904   1.079   3.938 -1.9628 -2.2158 -0.4853
   84SOPE   H8S 7774   5.885   0.919   4.024  0.7090 -0.4167  1.2726
   84SOPE   C29 7775   6.067   1.008   4.083  0.0218 -1.3129  0.2385
   84SOPE   H91 7776   6.156   1.061   4.046  0.0111 -1.0339  0.6002
   84SOPE  C210 7777   6.069   0.974   4.215 -0.5932 -0.3509  0.2289
   84SOPE  H101 7778   6.166   0.986   4.265 -0.2018  0.0071 -0.6076
   84SOPE  C211 7779   5.965   0.903   4.293 -0.2077  0.2944 -0.3992
   84SOPE  H11R 7780   6.007   0.810   4.337 -0.0803  0.0406 -1.0558
   84SOPE  H11S 7781   5.879   0.874   4.229 -0.1619 -1.4988  0.2885
   84SOPE  C212 7782   5.891   0.969   4.411  0.4531  0.6663 -0.5427
   84SOPE  H12R 7783   5.814   0.901   4.453  1.1565 -0.0935 -0.4503
   84SOPE  H12S 7784   5.828   1.053   4.376 -0.3515 -0.5496 -2.1340
   84SOPE  C213 7785   5.976   0.996   4.537 -1.1126 -0.0940 -1.0110
   84SOPE  H13R 7786   6.068   1.044   4.498 -0.3803 -0.8488 -0.2333
   84SOPE  H13S 7787   5.994   0.894   4.578 -1.5143  0.7490  1.4328
   84SOPE  C214 7788   5.911   1.089   4.640 -0.8029 -0.0920  0.1012
   84SOPE  H14R 7789   5.967   1.067   4.733  1.2009  0.3717 -0.9267
   84SOPE  H14S 7790   5.802   1.070   4.647 -0.5776 -2.0581 -1.0629
   84SOPE  C215 7791   5.939   1.241   4.619  1.0607  0.9693  0.1688
   84SOPE  H15R 7792   5.895   1.278   4.524  0.3272  1.1399  0.5611
   84SOPE  H15S 7793   6.047   1.263   4.608  0.9176  0.6695 -2.7197
   84SOPE  C216 7794   5.884   1.345   4.721 -0.1745  0.6161  0.2964
   84SOPE  H16R 7795   5.775   1.350   4.699 -0.0977 -0.7954 -0.4974
   84SOPE  H16S 7796   5.928   1.443   4.695  2.9052 -1.0111 -1.1124
   84SOPE  C217 7797   5.908   1.312   4.870 -0.8371 -0.2407  0.3185
   84SOPE  H17R 7798   6.018   1.326   4.880 -0.8113 -0.2974  0.1200
   84SOPE  H17S 7799   5.876   1.205   4.874 -0.9844 -0.1646  1.5700
   84SOPE  C218 7800   5.831   1.401   4.971 -0.6941 -0.3827 -0.7197
   84SOPE  H18R 7801   5.863   1.395   5.077  1.2104 -2.4651 -1.3463
   84SOPE  H18S 7802   5.722   1.382   4.963 -1.2181  2.5408 -1.8809
   84SOPE  H18T 7803   5.834   1.506   4.935 -0.8880  0.7307  2.2225
   84SOPE   C33 7804   6.753   1.405   3.439 -0.5659  0.1994 -0.1539
   84SOPE   H3X 7805   6.663   1.367   3.491 -0.0366  1.8821  2.1693
   84SOPE   H3Y 7806   6.779   1.497   3.495  1.6547 -1.9743  2.6901
   84SOPE   C34 7807   6.874   1.310   3.459 -0.3769 -0.0698  0.1696
   84SOPE   H4X 7808   6.966   1.347   3.409  1.1028 -1.8153  1.4565
   84SOPE   H4Y 7809   6.846   1.208   3.424 -0.7573 -0.0192  0.3177
   84SOPE   C35 7810   6.914   1.300   3.606  0.2333  0.2001  0.6992
   84SOPE   H5X 7811   6.929   1.406   3.635 -2.2736  0.0704  2.8856
   84SOPE   H5Y 7812   7.007   1.239   3.603 -0.4783 -0.9303  1.0915
   84SOPE   C36 7813   6.819   1.219   3.697 -0.3133 -0.0198  0.4692
   84SOPE   H6X 7814   6.776   1.137   3.636 -0.7978  1.8144 -1.7926
   84SOPE   H6Y 7815   6.739   1.279   3.745 -0.1306 -0.7113  1.6854
   84SOPE   C37 7816   6.891   1.152   3.814 -0.4407  0.3545 -1.3429
   84SOPE   H7X 7817   6.992   1.120   3.780  0.2648 -0.8116  1.5694
   84SOPE   H7Y 7818   6.832   1.067   3.854 -0.4019  0.7821 -0.3454
   84SOPE   C38 7819   6.923   1.242   3.942  0.0058 -0.1054  0.1721
   84SOPE   H8X 7820   6.825   1.279   3.980  0.3246  1.7502 -0.7375
   84SOPE   H8Y 7821   6.976   1.331   3.903 -2.3580  0.3208 -2.3930
   84SOPE   C39 7822   6.994   1.175   4.058 -0.0297 -0.4150  0.5344
   84SOPE   H9X 7823   7.038   1.250   4.127 -0.0665 -0.1225  0.2441
   84SOPE   H9Y 7824   7.076   1.123   4.004 -1.5666 -1.2758 -1.1026
   84SOPE  C310 7825   6.903   1.075   4.130  0.7955 -0.7357  0.8263
   84SOPE  H10X 7826   6.849   1.014   4.054 -1.4242  0.4191  1.3930
   84SOPE  H10Y 7827   6.816   1.118   4.184  1.6995  2.3153  0.0443
   84SOPE  C311 7828   6.978   0.981   4.231 -0.1399 -0.1006 -0.3272
   84SOPE  H11X 7829   7.031   1.035   4.313 -0.4157 -2.2818  1.3825
   84SOPE  H11Y 7830   7.056   0.922   4.178 -0.0180 -0.2055 -0.0308
   84SOPE  C312 7831   6.885   0.878   4.295  0.4202  0.0426 -0.3863
   84SOPE  H12X 7832   6.833   0.820   4.215  1.8689 -0.8062 -0.7521
   84SOPE  H12Y 7833   6.803   0.931   4.347  1.3998  0.2316  1.0209
   84SOPE  C313 7834   6.968   0.790   4.394 -0.9135  0.2859  0.3984
   84SOPE  H13X 7835   7.060   0.771   4.335 -0.8821  2.1618 -0.2257
   84SOPE  H13Y 7836   6.914   0.694   4.408 -2.6005  1.2224  0.5450
   84SOPE  C314 7837   6.996   0.845   4.537  0.1443  0.3270  1.0596
   84SOPE  H14X 7838   6.905   0.882   4.588 -0.4455  1.1024 -0.4688
   84SOPE  H14Y 7839   7.048   0.940   4.512  0.3441 -0.6136 -2.7576
   84SOPE  C315 7840   7.092   0.759   4.621  0.3957 -0.2679 -0.7839
   84SOPE  H15X 7841   7.187   0.756   4.564  0.7787  0.5900 -0.2111
   84SOPE  H15Y 7842   7.047   0.657   4.619  1.4011 -0.7869  1.1066
   84SOPE  C316 7843   7.104   0.819   4.760 -0.2085  0.4204  0.2469
   84SOPE  H16X 7844   7.157   0.743   4.822 -1.7008 -0.5551  0.3749
   84SOPE  H16Y 7845   7.003   0.826   4.806  0.0423  1.8238  0.6303
   84SOPE  C317 7846   7.176   0.960   4.753 -0.6551 -0.4624  1.1970
   84SOPE  H17X 7847   7.111   1.027   4.692  1.8431  0.4925 -0.5656
   84SOPE  H17Y 7848   7.269   0.937   4.698 -1.2482 -0.3344  0.0995
   84SOPE  C318 7849   7.194   1.020   4.893 -0.1067 -0.1838  0.7181
   84SOPE  H18X 7850   7.261   0.967   4.965 -0.4092  1.8515  2.6325
   84SOPE  H18Y 7851   7.092   1.043   4.931 -0.9857 -1.7977 -0.5496
   84SOPE  H18Z 7852   7.248   1.114   4.871 -0.8309 -0.5975 -3.5603
   85SOPE     N 7853   3.639   1.556   2.796  0.0260  0.5722  0.5210
   85SOPE   HN1 7854   3.545   1.587   2.826 -0.3685  0.3219 -0.4260
   85SOPE   HN2 7855   3.689   1.626   2.737  0.6473  1.0470  1.5696
   85SOPE   HN3 7856   3.634   1.464   2.748 -0.1666  0.3322  0.9970
   85SOPE   C12 7857   3.711   1.525   2.923  0.1608  0.0410  0.4786
   85SOPE  H12A 7858   3.674   1.596   3.000 -0.2307  0.4549 -0.0847
   85SOPE  H12B 7859   3.821   1.532   2.912  0.1737  0.8534  1.0281
   85SOPE   C11 7860   3.675   1.386   2.960  0.4232  0.7855  0.1320
   85SOPE  H11A 7861   3.572   1.381   3.002  0.2310 -0.5480 -0.4369
   85SOPE  H11B 7862   3.744   1.365   3.044 -2.6629  1.4196  3.0296
   85SOPE     P 7863   3.703   1.150   2.880 -0.0792  0.1885  0.0894
   85SOPE   O13 7864   3.839   1.138   2.935  0.0745  0.5902  0.5738
   85SOPE   O14 7865   3.671   1.075   2.761 -0.2131  1.0725 -0.5535
   85SOPE   O12 7866   3.687   1.297   2.841 -0.2019  0.0857  0.1678
   85SOPE   O11 7867   3.592   1.136   2.987 -0.3462 -0.3958  0.1957
   85SOPE    C1 7868   3.617   1.076   3.108  0.3946  0.0536 -0.0329
   85SOPE    HA 7869   3.560   1.131   3.186 -0.3763  0.7892 -1.0879
   85SOPE    HB 7870   3.724   1.073   3.138 -0.1044  1.4517  2.0934
   85SOPE    C2 7871   3.538   0.936   3.106 -0.7655 -0.3412  0.0344
   85SOPE    HS 7872   3.437   0.949   3.061 -1.0029  0.5297  0.8041
   85SOPE   O21 7873   3.519   0.874   3.234 -0.4955  0.2551  0.0914
   85SOPE   C21 7874   3.440   0.931   3.315  0.3444 -0.0842 -0.2856
   85SOPE   O22 7875   3.373   1.032   3.296 -0.0083 -0.3783  0.2228
   85SOPE   C22 7876   3.452   0.849   3.444  0.2995 -0.0392  0.5394
   85SOPE   H2R 7877   3.522   0.904   3.510  1.3255  1.7148 -1.8412
   85SOPE   H2S 7878   3.495   0.749   3.424  1.4025  0.4669  0.3055
   85SOPE    C3 7879   3.597   0.836   3.011  0.5441  0.1411  0.1439
   85SOPE    HX 7880   3.590   0.872   2.907  2.5465 -1.1650 -0.5069
   85SOPE    HY 7881   3.535   0.743   3.011  2.0728 -0.9322 -1.2907
   85SOPE   O31 7882   3.737   0.814   3.035 -0.0252 -0.9733  0.2372
   85SOPE   C31 7883   3.772   0.726   3.132 -0.1014  0.2269 -0.4243
   85SOPE   O32 7884   3.697   0.640   3.182  0.1161  0.3658 -0.1192
   85SOPE   C32 7885   3.920   0.744   3.183  0.2459  0.6503 -0.7608
   85SOPE   H2X 7886   3.958   0.847   3.163 -0.2218  1.1931  0.9232
   85SOPE   H2Y 7887   3.980   0.670   3.126 -1.0198 -0.9871 -0.0437
   85SOPE   C23 7888   3.315   0.830   3.510  0.8655  0.3732 -0.4548
   85SOPE   H3R 7889   3.238   0.788   3.443  1.3006 -0.6353 -0.3411
   85SOPE   H3S 7890   3.257   0.917   3.547  0.4922  0.7478 -1.8626
   85SOPE   C24 7891   3.314   0.732   3.629 -0.9209  0.2722 -0.4176
   85SOPE   H4R 7892   3.209   0.697   3.641 -0.3050 -3.1562 -3.3948
   85SOPE   H4S 7893   3.373   0.642   3.603  0.6670  1.0964  0.2039
   85SOPE   C25 7894   3.385   0.792   3.756 -0.4762 -0.3898 -0.1855
   85SOPE   H5R 7895   3.492   0.809   3.734 -0.1633 -2.4926 -0.4766
   85SOPE   H5S 7896   3.337   0.888   3.785 -0.4608 -0.5372  0.3447
   85SOPE   C26 7897   3.372   0.690   3.871  0.0691  0.2134 -0.1860
   85SOPE   H6R 7898   3.265   0.679   3.898 -0.6178  5.2286  0.2088
   85SOPE   H6S 7899   3.418   0.595   3.837 -1.6793 -0.0216 -2.1296
   85SOPE   C27 7900   3.444   0.749   3.996 -0.3679  0.0902  0.3697
   85SOPE   H7R 7901   3.513   0.675   4.043 -1.2441 -0.2064  1.2310
   85SOPE   H7S 7902   3.516   0.815   3.944  0.1306 -1.2066 -0.6379
   85SOPE   C28 7903   3.348   0.817   4.093 -0.8132 -0.3252 -0.5202
   85SOPE   H8R 7904   3.396   0.900   4.149 -0.7810  0.3240 -1.4874
   85SOPE   H8S 7905   3.274   0.878   4.036  1.4395  2.2116 -0.9178
   85SOPE   C29 7906   3.293   0.716   4.190  0.6494  0.1679 -1.1050
   85SOPE   H91 7907   3.216   0.650   4.149  1.6891 -1.2091 -0.9015
   85SOPE  C210 7908   3.352   0.690   4.308 -0.3853  0.2507  0.2428
   85SOPE  H101 7909   3.300   0.626   4.380  0.7482  0.1437  0.9763
   85SOPE  C211 7910   3.468   0.767   4.364  0.6878  0.0750 -0.0193
   85SOPE  H11R 7911   3.535   0.820   4.293  1.7978  2.2817  2.5031
   85SOPE  H11S 7912   3.536   0.705   4.427 -0.5130  1.3783  2.7263
   85SOPE  C212 7913   3.410   0.872   4.466 -0.6617  0.1535  0.2036
   85SOPE  H12R 7914   3.345   0.821   4.540  1.5483 -0.5806  1.7191
   85SOPE  H12S 7915   3.358   0.958   4.417 -4.2192 -1.7903  0.2826
   85SOPE  C213 7916   3.531   0.914   4.550  0.7114 -0.3100 -0.3313
   85SOPE  H13R 7917   3.593   0.985   4.491  0.4122  0.8996  0.7879
   85SOPE  H13S 7918   3.600   0.829   4.569  0.4532 -0.8554 -1.6984
   85SOPE  C214 7919   3.477   1.009   4.664  0.0295  0.2448 -0.2494
   85SOPE  H14R 7920   3.436   0.942   4.744 -0.3106 -0.1370 -0.7394
   85SOPE  H14S 7921   3.398   1.071   4.618 -2.7428 -0.4938  3.0520
   85SOPE  C215 7922   3.588   1.087   4.738 -0.1516 -0.7803  0.3621
   85SOPE  H15R 7923   3.635   1.153   4.661 -0.6078 -0.1081  0.6492
   85SOPE  H15S 7924   3.670   1.015   4.761  2.8288  2.0005 -0.7948
   85SOPE  C216 7925   3.535   1.165   4.854 -0.0578  0.1088 -0.0337
   85SOPE  H16R 7926   3.619   1.185   4.925  1.1847 -0.4248 -1.2976
   85SOPE  H16S 7927   3.468   1.098   4.912  0.4496 -1.9328 -1.6781
   85SOPE  C217 7928   3.468   1.296   4.818  0.0676 -0.3617 -0.0957
   85SOPE  H17R 7929   3.379   1.264   4.760 -0.3868  0.9045 -0.1400
   85SOPE  H17S 7930   3.535   1.350   4.747  1.0486  0.0919  1.1451
   85SOPE  C218 7931   3.430   1.404   4.929 -0.2113  0.6548  0.5998
   85SOPE  H18R 7932   3.522   1.427   4.986  0.1646  1.9465 -0.4832
   85SOPE  H18S 7933   3.348   1.364   4.993 -0.7064 -0.8465 -0.9012
   85SOPE  H18T 7934   3.403   1.504   4.889  2.1709  1.2295  0.3128
   85SOPE   C33 7935   3.946   0.717   3.334 -0.2336 -0.2844  0.3102
   85SOPE   H3X 7936   3.946   0.609   3.360  1.3691 -0.7516 -1.3478
   85SOPE   H3Y 7937   3.866   0.763   3.395 -0.5409 -0.6629  0.1986
   85SOPE   C34 7938   4.092   0.766   3.367  0.7150  0.1674 -0.6195
   85SOPE   H4X 7939   4.100   0.875   3.345 -1.2201  0.2526 -1.1053
   85SOPE   H4Y 7940   4.166   0.711   3.305 -0.6790 -0.5287 -1.7396
   85SOPE   C35 7941   4.123   0.739   3.514 -0.4599  0.3308 -0.1388
   85SOPE   H5X 7942   4.234   0.740   3.520 -0.3533 -1.2036 -1.2087
   85SOPE   H5Y 7943   4.104   0.631   3.532  0.1551 -0.0797 -1.7305
   85SOPE   C36 7944   4.057   0.830   3.620  0.0460  0.0110 -0.2361
   85SOPE   H6X 7945   3.946   0.824   3.620 -0.0800  1.8063 -0.5129
   85SOPE   H6Y 7946   4.065   0.937   3.590  0.3530 -0.3583 -1.5676
   85SOPE   C37 7947   4.119   0.807   3.756 -0.3527  0.1113  0.1523
   85SOPE   H7X 7948   4.225   0.839   3.760 -0.5835  0.7978  1.0369
   85SOPE   H7Y 7949   4.121   0.697   3.777  0.8983  0.0626 -0.1621
   85SOPE   C38 7950   4.037   0.860   3.881  0.4694  0.3249  0.0804
   85SOPE   H8X 7951   3.933   0.823   3.878  0.9861 -1.2148  0.0819
   85SOPE   H8Y 7952   4.028   0.971   3.875 -1.5095  0.2161  0.4935
   85SOPE   C39 7953   4.111   0.843   4.020 -0.0026  0.0541 -0.6138
   85SOPE   H9X 7954   4.212   0.884   3.997 -0.3312  1.4359  0.2801
   85SOPE   H9Y 7955   4.116   0.734   4.039 -1.5286  0.1043  0.2977
   85SOPE  C310 7956   4.051   0.911   4.143 -0.1020 -0.2294  0.7706
   85SOPE  H10X 7957   3.953   0.863   4.165 -0.2027 -0.1027  0.6074
   85SOPE  H10Y 7958   4.029   1.018   4.120  0.4547 -0.2290  0.2037
   85SOPE  C311 7959   4.131   0.928   4.276 -0.0782  0.1315  0.2610
   85SOPE  H11X 7960   4.232   0.962   4.244 -0.2144 -0.8848 -1.3427
   85SOPE  H11Y 7961   4.138   0.822   4.308  0.9113  0.2580  0.4993
   85SOPE  C312 7962   4.069   1.027   4.372  0.0203 -0.8904 -0.7810
   85SOPE  H12X 7963   3.961   1.001   4.367 -0.0385 -0.5179 -1.8589
   85SOPE  H12Y 7964   4.080   1.134   4.342  1.3822 -0.7157  0.2481
   85SOPE  C313 7965   4.127   0.997   4.507 -0.2056  0.0787  0.2376
   85SOPE  H13X 7966   4.233   1.030   4.505 -0.2594  0.2663 -1.7174
   85SOPE  H13Y 7967   4.133   0.886   4.512 -2.6418 -0.1003  0.5025
   85SOPE  C314 7968   4.058   1.057   4.624  0.8258 -0.3283 -0.3013
   85SOPE  H14X 7969   3.948   1.046   4.621  0.9438 -1.4732 -1.1152
   85SOPE  H14Y 7970   4.094   1.162   4.617  1.9270 -0.6064  0.9098
   85SOPE  C315 7971   4.114   1.008   4.755 -0.3578 -0.0084 -0.9036
   85SOPE  H15X 7972   4.223   1.030   4.759 -0.6033  1.1592  0.4965
   85SOPE  H15Y 7973   4.093   0.900   4.765 -2.1680  0.4128  0.4380
   85SOPE  C316 7974   4.025   1.075   4.872  0.0193 -0.3044  0.6489
   85SOPE  H16X 7975   4.091   1.065   4.960  0.0683  1.1304  0.8052
   85SOPE  H16Y 7976   3.928   1.024   4.890 -0.8127  0.9119 -0.2291
   85SOPE  C317 7977   4.001   1.227   4.854  0.3338 -0.6519 -0.4330
   85SOPE  H17X 7978   3.925   1.249   4.777 -0.2621 -1.2652 -0.0263
   85SOPE  H17Y 7979   4.092   1.265   4.803 -0.0642 -1.6269 -1.9086
   85SOPE  C318 7980   3.981   1.306   4.982  0.0510 -0.3001  0.5994
   85SOPE  H18X 7981   3.986   1.410   4.945  0.8253 -0.2363  0.8756
   85SOPE  H18Y 7982   4.057   1.286   5.060 -1.5803 -2.2858  1.7926
   85SOPE  H18Z 7983   3.877   1.301   5.020 -0.6977  1.8257 -0.9842
   86SOPE     N 7984   3.645   4.695   2.972  0.3097  0.0241  0.2466
   86SOPE   HN1 7985   3.685   4.693   2.876  0.0180 -0.1538  0.1270
   86SOPE   HN2 7986   3.722   4.696   3.042  0.1832  0.9620  0.3804
   86SOPE   HN3 7987   3.580   4.615   2.987  1.5845 -1.1589 -0.3297
   86SOPE   C12 7988   3.572   4.824   2.968 -0.2198 -0.2385 -0.2299
   86SOPE  H12A 7989   3.564   4.866   3.071 -1.5815  0.1039 -0.4689
   86SOPE  H12B 7990   3.475   4.804   2.919 -0.7439  1.1963  0.1754
   86SOPE   C11 7991   3.658   4.921   2.892 -0.0528 -0.7932  0.4500
   86SOPE  H11A 7992   3.625   5.027   2.904  1.7284 -0.1957  0.4414
   86SOPE  H11B 7993   3.658   4.894   2.785  0.0279 -1.1747  0.5450
   86SOPE     P 7994   3.914   4.982   2.880 -0.0859  0.2027  0.7955
   86SOPE   O13 7995   3.883   5.024   2.738  0.0004 -0.4426  0.3436
   86SOPE   O14 7996   4.034   4.906   2.901 -0.3546  0.5736 -0.2706
   86SOPE   O12 7997   3.791   4.903   2.944 -0.3476  0.5361  0.4081
   86SOPE   O11 7998   3.910   5.103   2.986 -0.0656  0.3228  0.3217
   86SOPE    C1 7999   3.831   5.219   2.960 -0.3586  0.0778 -0.8315
   86SOPE    HA 8000   3.725   5.190   2.975 -0.5384  1.0187 -0.1549
   86SOPE    HB 8001   3.852   5.265   2.861  0.1143  0.5038 -0.5380
   86SOPE    C2 8002   3.870   5.336   3.056  0.3741  0.3148 -0.9048
   86SOPE    HS 8003   3.969   5.373   3.020  0.4306  0.7192 -0.3381
   86SOPE   O21 8004   3.864   5.295   3.196 -0.5846  0.1389  0.4704
   86SOPE   C21 8005   3.974   5.327   3.268  0.2067 -0.3156 -0.8311
   86SOPE   O22 8006   4.081   5.352   3.228 -0.1324 -0.0064  0.4795
   86SOPE   C22 8007   3.925   5.301   3.417 -0.1522  0.1800  0.1232
   86SOPE   H2R 8008   3.899   5.194   3.431  1.2305 -0.2291 -0.3767
   86SOPE   H2S 8009   3.836   5.368   3.426  0.2752  0.7357  0.2398
   86SOPE    C3 8010   3.762   5.446   3.037  0.1607  0.7130  0.2700
   86SOPE    HX 8011   3.666   5.392   3.056  0.8758 -0.3932  0.8312
   86SOPE    HY 8012   3.758   5.482   2.932  1.9428  0.3297  0.0524
   86SOPE   O31 8013   3.784   5.546   3.133  0.3296 -0.1549  0.3271
   86SOPE   C31 8014   3.875   5.638   3.101 -0.5846  0.8656 -0.0732
   86SOPE   O32 8015   3.954   5.629   3.009 -0.0970 -0.3883  0.3793
   86SOPE   C32 8016   3.880   5.742   3.220 -0.4027 -0.0588 -0.1060
   86SOPE   H2X 8017   3.779   5.787   3.218 -0.1677  0.5005  0.3025
   86SOPE   H2Y 8018   3.953   5.809   3.170 -0.6009 -0.8406 -1.4937
   86SOPE   C23 8019   4.025   5.342   3.527 -0.1499 -0.5274  0.0569
   86SOPE   H3R 8020   4.049   5.451   3.527 -0.1011 -0.5187  1.6218
   86SOPE   H3S 8021   4.124   5.295   3.510 -0.6640 -1.7488  0.3536
   86SOPE   C24 8022   3.992   5.305   3.670 -0.1072 -0.0910  0.1936
   86SOPE   H4R 8023   3.886   5.333   3.684 -0.1289 -0.3085  0.4838
   86SOPE   H4S 8024   4.015   5.197   3.689  1.2644  0.4173  1.7339
   86SOPE   C25 8025   4.074   5.392   3.764  0.1174 -0.2137 -0.8761
   86SOPE   H5R 8026   4.180   5.362   3.755  0.0280 -0.3456 -1.5141
   86SOPE   H5S 8027   4.066   5.503   3.755 -0.1853 -0.1882 -0.3665
   86SOPE   C26 8028   4.032   5.379   3.914  0.0413 -0.3076  0.3861
   86SOPE   H6R 8029   3.943   5.443   3.934  2.2549  2.4639  2.2524
   86SOPE   H6S 8030   4.014   5.271   3.934 -0.4226 -0.3728 -0.3638
   86SOPE   C27 8031   4.128   5.449   4.021 -0.1699 -0.1638  0.3036
   86SOPE   H7R 8032   4.223   5.391   4.020 -0.8885 -1.3617 -0.5239
   86SOPE   H7S 8033   4.140   5.548   3.973 -4.8872  0.1305 -0.7914
   86SOPE   C28 8034   4.067   5.447   4.158 -1.0215 -0.2667 -0.8584
   86SOPE   H8R 8035   3.965   5.489   4.148 -1.8571 -2.2573 -1.3764
   86SOPE   H8S 8036   4.053   5.337   4.173 -1.4342 -0.0790  0.2083
   86SOPE   C29 8037   4.147   5.511   4.267 -0.4693 -0.0037 -0.3950
   86SOPE   H91 8038   4.254   5.490   4.281 -0.5086  0.2132  0.2433
   86SOPE  C210 8039   4.102   5.584   4.371  0.7336 -0.1355  0.1472
   86SOPE  H101 8040   4.172   5.638   4.436 -1.2867  1.2973  1.2252
   86SOPE  C211 8041   3.954   5.605   4.391  0.7150  0.4509  1.5715
   86SOPE  H11R 8042   3.901   5.512   4.359  1.4164  1.8700 -4.9209
   86SOPE  H11S 8043   3.923   5.684   4.320  1.5292 -1.4132 -1.0272
   86SOPE  C212 8044   3.926   5.635   4.538  0.4067  0.2949 -0.2743
   86SOPE  H12R 8045   3.961   5.560   4.612  0.5131  0.4271 -0.1883
   86SOPE  H12S 8046   3.816   5.633   4.554  0.0238 -1.5895 -2.6796
   86SOPE  C213 8047   3.970   5.779   4.585 -0.2498  0.9391  0.2120
   86SOPE  H13R 8048   3.937   5.848   4.504  1.4454  1.3833 -0.1364
   86SOPE  H13S 8049   4.081   5.779   4.579 -0.2919  0.3782 -0.7799
   86SOPE  C214 8050   3.934   5.821   4.725 -0.0458  0.5327 -0.8176
   86SOPE  H14R 8051   3.994   5.758   4.793  0.3810  0.6273 -1.1057
   86SOPE  H14S 8052   3.829   5.795   4.752 -0.3564  1.3526 -1.1792
   86SOPE  C215 8053   3.981   5.964   4.751 -0.1167 -0.6146 -0.1223
   86SOPE  H15R 8054   3.931   6.030   4.678  0.3599  0.9582  0.9119
   86SOPE  H15S 8055   4.091   5.973   4.737 -0.2481  0.1140 -0.7294
   86SOPE  C216 8056   3.927   6.016   4.884  0.2140 -1.3029  0.0362
   86SOPE  H16R 8057   3.949   5.939   4.961  1.0465 -1.4250 -0.3159
   86SOPE  H16S 8058   3.816   6.015   4.871  0.3865 -0.3301 -1.7592
   86SOPE  C217 8059   3.968   6.151   4.943  0.2767 -1.3756  0.3721
   86SOPE  H17R 8060   4.071   6.160   4.982 -0.0286  0.8229  0.8396
   86SOPE  H17S 8061   3.896   6.175   5.025  0.0091  0.2446 -0.2858
   86SOPE  C218 8062   3.965   6.259   4.828  0.3145 -0.2941  0.0708
   86SOPE  H18R 8063   4.062   6.257   4.773 -0.5679  0.4498 -1.5733
   86SOPE  H18S 8064   3.971   6.362   4.869 -1.7789  0.4927 -1.4433
   86SOPE  H18T 8065   3.887   6.246   4.751 -0.6372  1.1393  0.7561
   86SOPE   C33 8066   3.926   5.684   3.348  0.0518  0.0795 -0.4119
   86SOPE   H3X 8067   4.011   5.613   3.339 -0.0575 -0.2627  0.9314
   86SOPE   H3Y 8068   3.840   5.634   3.398  0.2753  1.2790  1.2520
   86SOPE   C34 8069   3.971   5.796   3.438  0.0424 -0.3862  0.5263
   86SOPE   H4X 8070   3.880   5.861   3.440  0.3193  0.0286  3.0233
   86SOPE   H4Y 8071   4.062   5.837   3.391  0.3225 -1.1208  0.4201
   86SOPE   C35 8072   3.996   5.753   3.581  0.1203  0.3487  1.1038
   86SOPE   H5X 8073   4.058   5.662   3.566  3.0161  1.7420  3.5967
   86SOPE   H5Y 8074   3.905   5.723   3.638 -0.3559  1.1951  0.8052
   86SOPE   C36 8075   4.076   5.863   3.647 -0.2139  0.2784  0.4623
   86SOPE   H6X 8076   4.036   5.964   3.622 -0.3425 -0.1083 -0.9929
   86SOPE   H6Y 8077   4.182   5.860   3.614 -1.2365  0.0209 -3.3077
   86SOPE   C37 8078   4.064   5.844   3.795 -0.0091 -0.2095  0.6595
   86SOPE   H7X 8079   4.111   5.749   3.830 -0.2046 -1.2167 -1.6661
   86SOPE   H7Y 8080   3.953   5.841   3.808 -0.4146  0.7011 -2.1044
   86SOPE   C38 8081   4.116   5.960   3.883  0.5710  0.1227  0.8311
   86SOPE   H8X 8082   4.082   6.058   3.843  0.0612 -0.0035  0.9505
   86SOPE   H8Y 8083   4.226   5.946   3.868 -0.0075 -1.4491 -3.5713
   86SOPE   C39 8084   4.065   5.945   4.025  0.5636  0.2889  0.0603
   86SOPE   H9X 8085   4.066   5.841   4.063  1.0889 -0.6867 -2.3747
   86SOPE   H9Y 8086   3.957   5.970   4.030  0.3399 -0.7195  0.5299
   86SOPE  C310 8087   4.152   6.036   4.121 -0.1302  0.6034  0.0130
   86SOPE  H10X 8088   4.152   6.137   4.076  0.5697  0.2761 -0.7292
   86SOPE  H10Y 8089   4.258   6.002   4.123 -0.1194  0.6376  1.8319
   86SOPE  C311 8090   4.096   6.036   4.257 -0.3544  0.1481 -0.4390
   86SOPE  H11X 8091   4.087   5.937   4.306 -1.3830  0.1156 -0.6700
   86SOPE  H11Y 8092   3.995   6.082   4.257 -0.4097  0.1088  1.4234
   86SOPE  C312 8093   4.176   6.132   4.346 -0.1140 -0.1996  0.4822
   86SOPE  H12X 8094   4.129   6.127   4.447  2.2961 -1.0909  1.6369
   86SOPE  H12Y 8095   4.171   6.230   4.295  0.8032 -0.5556 -0.3332
   86SOPE  C313 8096   4.323   6.096   4.367  0.5761 -0.1601 -0.0725
   86SOPE  H13X 8097   4.392   6.090   4.280 -1.3638 -2.3668 -1.5936
   86SOPE  H13Y 8098   4.346   5.995   4.408  2.1995  1.0164  2.1045
   86SOPE  C314 8099   4.395   6.200   4.466  0.9442  0.2836 -0.3076
   86SOPE  H14X 8100   4.436   6.289   4.415 -1.0625  0.2394 -2.1834
   86SOPE  H14Y 8101   4.476   6.143   4.516  2.3162  2.4084 -0.0143
   86SOPE  C315 8102   4.312   6.240   4.588 -0.5956  0.1638  0.1056
   86SOPE  H15X 8103   4.261   6.149   4.625 -2.4203  1.5780  1.2611
   86SOPE  H15Y 8104   4.232   6.311   4.556 -0.0553  0.9082  0.3659
   86SOPE  C316 8105   4.391   6.297   4.705  0.1245 -0.0895  0.3053
   86SOPE  H16X 8106   4.317   6.334   4.780 -0.2857  0.8409 -0.5456
   86SOPE  H16Y 8107   4.440   6.387   4.664  1.8287 -1.3128 -0.4539
   86SOPE  C317 8108   4.488   6.204   4.779 -0.8346 -0.6833  0.8610
   86SOPE  H17X 8109   4.514   6.255   4.874 -2.3385  1.3664  0.2431
   86SOPE  H17Y 8110   4.580   6.198   4.718  0.2297  2.1558  2.0102
   86SOPE  C318 8111   4.430   6.071   4.808 -0.4527  0.3510 -0.1710
   86SOPE  H18X 8112   4.496   6.006   4.870 -0.3745  0.1277 -0.4909
   86SOPE  H18Y 8113   4.424   6.007   4.718  0.1439 -1.5619  1.0884
   86SOPE  H18Z 8114   4.323   6.076   4.838 -0.2535 -0.9155  0.8663
   87SOPE     N 8115   5.866   4.704   2.725  0.3789 -0.5649  0.1035
   87SOPE   HN1 8116   5.811   4.618   2.705 -1.4762  0.2592  1.3557
   87SOPE   HN2 8117   5.823   4.785   2.675  0.5349 -0.4061  0.2262
   87SOPE   HN3 8118   5.954   4.690   2.671 -2.3351 -0.5889 -4.8694
   87SOPE   C12 8119   5.891   4.727   2.878  0.6901  0.0692 -0.2967
   87SOPE  H12A 8120   5.955   4.818   2.886  1.4490 -0.5829  1.7681
   87SOPE  H12B 8121   5.946   4.641   2.922  0.4928 -0.0317 -0.2469
   87SOPE   C11 8122   5.750   4.725   2.945 -0.0992 -0.1177 -1.0053
   87SOPE  H11A 8123   5.764   4.729   3.055  0.8606  0.6765 -1.1398
   87SOPE  H11B 8124   5.710   4.624   2.925 -1.9457  0.4850 -0.5749
   87SOPE     P 8125   5.679   4.963   2.931 -0.6284 -0.1891 -0.2476
   87SOPE   O13 8126   5.552   5.035   2.949 -0.5441 -0.3149  0.0467
   87SOPE   O14 8127   5.759   5.008   2.815  0.0695 -0.3338  0.3140
   87SOPE   O12 8128   5.651   4.812   2.901 -0.3791 -0.5375  0.1241
   87SOPE   O11 8129   5.769   4.963   3.070  0.3407 -0.6949  0.1131
   87SOPE    C1 8130   5.698   4.978   3.201 -0.1085  0.8172  0.7218
   87SOPE    HA 8131   5.756   4.943   3.289  0.8782  0.0220 -0.2177
   87SOPE    HB 8132   5.604   4.920   3.205 -1.2376  2.4841 -0.4899
   87SOPE    C2 8133   5.662   5.125   3.237 -0.2978  0.2580  0.8482
   87SOPE    HS 8134   5.639   5.177   3.141  1.1215 -1.4967 -0.5322
   87SOPE   O21 8135   5.775   5.187   3.306  0.3937 -0.3916 -0.3861
   87SOPE   C21 8136   5.865   5.233   3.232 -0.0611 -0.6927 -0.0216
   87SOPE   O22 8137   5.868   5.240   3.108  0.3590  0.3192 -0.3254
   87SOPE   C22 8138   5.978   5.295   3.316 -0.2220 -0.2237 -0.1696
   87SOPE   H2R 8139   5.956   5.403   3.323 -0.3774 -0.1140 -1.8309
   87SOPE   H2S 8140   6.069   5.280   3.253  0.5621 -1.1470  1.1252
   87SOPE    C3 8141   5.543   5.131   3.329 -0.5124  0.7257 -0.1438
   87SOPE    HX 8142   5.464   5.071   3.278  1.9017 -1.1210 -1.9991
   87SOPE    HY 8143   5.523   5.239   3.337  1.6748  1.1209  0.8815
   87SOPE   O31 8144   5.588   5.080   3.451 -0.1568 -0.1038  0.0344
   87SOPE   C31 8145   5.500   5.099   3.550 -0.7870  0.0657  0.1638
   87SOPE   O32 8146   5.395   5.158   3.550  0.1931  0.3282 -0.3964
   87SOPE   C32 8147   5.551   5.024   3.676 -0.1017 -1.0117  0.2455
   87SOPE   H2X 8148   5.655   4.988   3.663  0.6511  1.0102  0.3447
   87SOPE   H2Y 8149   5.480   4.938   3.686  0.7399 -1.7553 -0.0201
   87SOPE   C23 8150   5.989   5.227   3.455  0.0466  0.2636 -0.4062
   87SOPE   H3R 8151   5.888   5.222   3.502  1.8828 -1.5470  3.8619
   87SOPE   H3S 8152   6.048   5.286   3.529  0.7389 -0.9683  0.0647
   87SOPE   C24 8153   6.046   5.085   3.451 -0.0414  0.0635  1.1036
   87SOPE   H4R 8154   5.984   5.012   3.395  1.6115 -0.1695 -0.4860
   87SOPE   H4S 8155   6.144   5.095   3.401  0.6541  0.9542  2.5577
   87SOPE   C25 8156   6.089   5.025   3.588  0.1760  0.2631 -0.1454
   87SOPE   H5R 8157   6.095   4.916   3.567 -4.5051 -0.2689  0.2546
   87SOPE   H5S 8158   6.186   5.070   3.619  0.6554 -0.3762 -0.6873
   87SOPE   C26 8159   5.976   5.028   3.693 -0.4693 -0.0942  0.6342
   87SOPE   H6R 8160   5.954   5.135   3.717  2.2943  0.8167 -0.4824
   87SOPE   H6S 8161   5.890   4.977   3.644  0.1146  1.0731 -1.7690
   87SOPE   C27 8162   6.018   4.956   3.822 -0.1460  0.5074 -0.6398
   87SOPE   H7R 8163   6.037   4.849   3.796 -1.9015 -0.3983  1.4871
   87SOPE   H7S 8164   6.109   4.999   3.868 -0.5271 -1.0206  1.7476
   87SOPE   C28 8165   5.915   4.960   3.938  0.4333  0.4184 -0.4383
   87SOPE   H8R 8166   5.916   5.069   3.956 -0.5776  0.3717 -0.0599
   87SOPE   H8S 8167   5.814   4.930   3.905  0.9942 -0.1733 -1.6666
   87SOPE   C29 8168   5.954   4.881   4.060 -0.3034  0.2884 -0.2610
   87SOPE   H91 8169   5.968   4.777   4.028 -0.8339  0.9987 -3.0358
   87SOPE  C210 8170   5.988   4.919   4.181  0.3380  0.2472 -0.1279
   87SOPE  H101 8171   6.022   4.837   4.246 -1.4301 -1.8621 -1.7161
   87SOPE  C211 8172   5.989   5.061   4.233 -0.2292 -0.3801  0.1965
   87SOPE  H11R 8173   5.920   5.130   4.180 -0.3281 -0.6069  0.0284
   87SOPE  H11S 8174   6.094   5.094   4.221 -0.3491 -0.4587 -1.1871
   87SOPE  C212 8175   5.952   5.062   4.384 -0.0831 -0.4230 -0.2408
   87SOPE  H12R 8176   6.024   4.994   4.434  1.2579  1.6648  0.8048
   87SOPE  H12S 8177   5.850   5.025   4.407  0.2505 -2.0702 -1.2684
   87SOPE  C213 8178   5.977   5.204   4.452  0.1328 -0.0138 -0.3746
   87SOPE  H13R 8179   5.925   5.287   4.400 -0.7838  1.0222  2.0539
   87SOPE  H13S 8180   6.083   5.232   4.439  0.9808 -2.7151  0.0217
   87SOPE  C214 8181   5.928   5.183   4.599 -0.0303  0.4189  0.2075
   87SOPE  H14R 8182   5.975   5.093   4.643 -0.6514 -0.7793 -1.5005
   87SOPE  H14S 8183   5.818   5.171   4.599  0.0842 -1.1086 -1.5727
   87SOPE  C215 8184   5.954   5.305   4.688 -0.3581 -0.1786 -0.8841
   87SOPE  H15R 8185   5.895   5.393   4.653 -0.1308  0.2501 -0.2067
   87SOPE  H15S 8186   6.058   5.339   4.674 -0.9904  2.0022 -0.6544
   87SOPE  C216 8187   5.918   5.269   4.836  0.4137  1.2851 -0.0161
   87SOPE  H16R 8188   5.958   5.167   4.856  0.2033  1.2118  0.0328
   87SOPE  H16S 8189   5.811   5.274   4.862  0.4286 -0.6636  0.5955
   87SOPE  C217 8190   5.995   5.363   4.925 -0.3996 -0.1166 -0.3378
   87SOPE  H17R 8191   5.964   5.464   4.890 -1.8943 -0.7716 -0.9983
   87SOPE  H17S 8192   6.105   5.355   4.916 -0.3283  0.0503  0.2962
   87SOPE  C218 8193   5.959   5.344   5.076  0.0170  0.1150  0.8555
   87SOPE  H18R 8194   5.993   5.420   5.149  2.7267 -3.1052  3.2907
   87SOPE  H18S 8195   5.992   5.244   5.112 -0.5307 -0.8026 -1.0510
   87SOPE  H18T 8196   5.848   5.351   5.081 -0.1226 -1.0257 -0.1820
   87SOPE   C33 8197   5.558   5.120   3.801  0.2928 -0.2396 -0.0293
   87SOPE   H3X 8198   5.480   5.199   3.793  1.2961  0.8453  0.5528
   87SOPE   H3Y 8199   5.650   5.180   3.815 -0.5598  0.8813  0.9403
   87SOPE   C34 8200   5.518   5.039   3.924  0.2402  0.0805 -0.2535
   87SOPE   H4X 8201   5.587   4.952   3.917  1.3739  1.0805 -2.3794
   87SOPE   H4Y 8202   5.411   5.009   3.920 -0.3437  1.6062  1.8576
   87SOPE   C35 8203   5.557   5.111   4.054 -0.0961  0.4168 -0.6187
   87SOPE   H5X 8204   5.497   5.205   4.050  0.1681  0.7088  1.1545
   87SOPE   H5Y 8205   5.665   5.138   4.053 -0.2983  1.4402  1.0182
   87SOPE   C36 8206   5.517   5.022   4.178  0.2910 -0.1213  0.5969
   87SOPE   H6X 8207   5.580   4.931   4.195  1.4041  0.6777  0.8977
   87SOPE   H6Y 8208   5.412   4.991   4.160  0.0517  0.1840  1.4641
   87SOPE   C37 8209   5.535   5.095   4.308  0.0012  0.0784  0.4494
   87SOPE   H7X 8210   5.485   5.194   4.294  0.1904 -0.0365 -1.2564
   87SOPE   H7Y 8211   5.645   5.115   4.302 -0.0255 -0.0281 -0.4389
   87SOPE   C38 8212   5.487   5.022   4.435  0.6266  0.0896 -0.4364
   87SOPE   H8X 8213   5.532   5.078   4.519 -3.2627  0.2551  1.8151
   87SOPE   H8Y 8214   5.527   4.919   4.425 -0.7870 -0.3856 -1.6610
   87SOPE   C39 8215   5.336   5.014   4.452 -0.2697 -0.0325 -0.1307
   87SOPE   H9X 8216   5.299   4.941   4.377 -1.1202  1.8361 -1.6265
   87SOPE   H9Y 8217   5.284   5.108   4.425  2.1840  1.4504 -0.0139
   87SOPE  C310 8218   5.312   4.968   4.600 -0.0638  0.6610  0.1624
   87SOPE  H10X 8219   5.409   4.959   4.654  1.6300 -2.3341 -2.9723
   87SOPE  H10Y 8220   5.270   4.865   4.605 -2.0108  1.4672  1.4546
   87SOPE  C311 8221   5.194   5.048   4.670 -0.1506 -0.3202 -0.0877
   87SOPE  H11X 8222   5.103   5.020   4.612 -0.7829 -1.4477  1.3885
   87SOPE  H11Y 8223   5.202   5.158   4.655  1.5254 -0.6407 -1.8508
   87SOPE  C312 8224   5.170   5.008   4.815  0.9055 -0.6393 -0.1722
   87SOPE  H12X 8225   5.256   5.038   4.879  0.7328 -2.4281  0.9464
   87SOPE  H12Y 8226   5.148   4.900   4.825 -0.2261 -0.3453  0.6860
   87SOPE  C313 8227   5.037   5.075   4.873  0.4672  0.4375 -0.8573
   87SOPE  H13X 8228   4.952   5.032   4.815  0.9550  0.6097 -1.7271
   87SOPE  H13Y 8229   5.025   5.185   4.856  0.3913  0.3964 -1.0677
   87SOPE  C314 8230   5.018   5.038   5.019  0.3501  0.2527 -0.5290
   87SOPE  H14X 8231   5.084   5.104   5.080 -1.6794  2.4381 -0.5678
   87SOPE  H14Y 8232   5.049   4.932   5.029 -1.5725 -0.2477  0.5901
   87SOPE  C315 8233   4.871   5.038   5.062  0.2793  0.7545 -0.9226
   87SOPE  H15X 8234   4.801   5.110   5.015 -2.1052 -0.1334  1.0297
   87SOPE  H15Y 8235   4.876   5.059   5.171  0.7806 -1.7215 -0.3968
   87SOPE  C316 8236   4.793   4.905   5.036 -0.1087 -0.5269 -0.7862
   87SOPE  H16X 8237   4.837   4.813   5.080 -1.5610 -0.6065  0.5914
   87SOPE  H16Y 8238   4.787   4.913   4.926 -0.4090  0.5594 -0.7009
   87SOPE  C317 8239   4.652   4.919   5.088  0.1066 -0.2330  0.4888
   87SOPE  H17X 8240   4.599   5.007   5.045 -0.2744  0.2055  1.7955
   87SOPE  H17Y 8241   4.655   4.932   5.198  2.1815  1.4313  0.3012
   87SOPE  C318 8242   4.547   4.811   5.057  0.0381  0.0977 -0.0926
   87SOPE  H18X 8243   4.546   4.801   4.946 -0.3154 -0.2567 -0.0596
   87SOPE  H18Y 8244   4.448   4.840   5.098 -0.7655 -1.2884 -0.9959
   87SOPE  H18Z 8245   4.579   4.713   5.098  0.5967  1.3218  2.6034
   88SOPE     N 8246   1.155   4.906   2.225  0.2277 -0.2462  0.4635
   88SOPE   HN1 8247   1.157   4.807   2.258  1.0374 -0.1300  0.7865
   88SOPE   HN2 8248   1.059   4.937   2.250 -0.0278 -1.8217  1.5877
   88SOPE   HN3 8249   1.165   4.902   2.121  1.2796 -1.4570  0.5796
   88SOPE   C12 8250   1.248   4.992   2.297  0.7070  0.2971  0.0991
   88SOPE  H12A 8251   1.256   5.084   2.234 -2.1692 -0.3788 -1.4297
   88SOPE  H12B 8252   1.348   4.946   2.316  0.2555 -0.4669  0.6701
   88SOPE   C11 8253   1.172   5.049   2.414 -0.0284 -0.3254  0.0272
   88SOPE  H11A 8254   1.084   5.110   2.384 -0.0020 -0.4422 -0.2867
   88SOPE  H11B 8255   1.237   5.127   2.458  0.5296 -0.7649 -0.0080
   88SOPE     P 8256   1.073   4.966   2.642  0.4303 -0.3887  0.1212
   88SOPE   O13 8257   1.119   4.860   2.728 -0.2790  0.4949  0.6489
   88SOPE   O14 8258   0.927   4.983   2.627  0.0382 -0.4311 -0.0286
   88SOPE   O12 8259   1.142   4.944   2.511  0.1701 -0.2934  0.9461
   88SOPE   O11 8260   1.130   5.105   2.682  0.1933  0.1173 -0.1718
   88SOPE    C1 8261   1.075   5.200   2.770 -0.0402 -0.3640  0.0373
   88SOPE    HA 8262   0.965   5.197   2.780  0.0314 -0.5441  0.8707
   88SOPE    HB 8263   1.100   5.299   2.726  1.8049 -0.5027  0.6613
   88SOPE    C2 8264   1.138   5.196   2.908 -0.3272  0.5590 -0.0188
   88SOPE    HS 8265   1.246   5.172   2.893 -0.0990  1.9903 -0.8928
   88SOPE   O21 8266   1.063   5.096   2.985  0.2187 -0.0946 -0.3870
   88SOPE   C21 8267   1.142   5.014   3.063  0.2496  0.1937  0.3877
   88SOPE   O22 8268   1.262   5.028   3.076  0.5069  0.4667  0.2054
   88SOPE   C22 8269   1.053   4.903   3.125 -0.2129  0.4982 -0.5470
   88SOPE   H2R 8270   1.030   4.830   3.045  1.0842 -0.9835  0.3740
   88SOPE   H2S 8271   0.966   4.960   3.165 -0.2723  0.9006 -1.2230
   88SOPE    C3 8272   1.120   5.330   2.976 -0.0015  0.6482  1.2574
   88SOPE    HX 8273   1.013   5.361   2.974 -0.2438 -0.1830  0.1401
   88SOPE    HY 8274   1.172   5.409   2.918  1.1875 -1.4516 -0.7156
   88SOPE   O31 8275   1.161   5.314   3.111  0.4893  0.4386  0.5998
   88SOPE   C31 8276   1.279   5.364   3.147  0.7060  0.1607  0.2823
   88SOPE   O32 8277   1.365   5.410   3.074  0.2682  0.4882 -0.4528
   88SOPE   C32 8278   1.295   5.353   3.304 -0.4808 -0.4806 -0.2059
   88SOPE   H2X 8279   1.282   5.244   3.321 -0.5510 -0.5840 -0.9033
   88SOPE   H2Y 8280   1.206   5.406   3.343 -0.9924 -0.3393 -1.5187
   88SOPE   C23 8281   1.117   4.825   3.241 -0.2618 -0.9527  0.2924
   88SOPE   H3R 8282   1.210   4.776   3.204  1.7865  1.2756  2.2081
   88SOPE   H3S 8283   1.045   4.743   3.261 -1.0177 -0.5813 -0.8517
   88SOPE   C24 8284   1.157   4.908   3.368  0.2991  0.1824  0.6362
   88SOPE   H4R 8285   1.215   4.830   3.422 -0.0041 -1.2884 -1.0439
   88SOPE   H4S 8286   1.221   4.997   3.351 -0.3935  0.3805 -1.1464
   88SOPE   C25 8287   1.037   4.953   3.451  0.2314 -0.3337 -0.0197
   88SOPE   H5R 8288   0.979   5.030   3.395 -0.7133 -1.4451 -0.6156
   88SOPE   H5S 8289   0.963   4.870   3.460 -0.5131  0.1227 -1.5780
   88SOPE   C26 8290   1.083   4.987   3.595  0.0897  0.4301 -0.4378
   88SOPE   H6R 8291   1.105   4.889   3.642 -2.5828 -0.0442  0.0116
   88SOPE   H6S 8292   1.163   5.063   3.587 -0.3414  0.9736  0.3267
   88SOPE   C27 8293   0.976   5.063   3.679 -0.5649 -0.1311 -0.4351
   88SOPE   H7R 8294   0.966   5.160   3.626 -2.8305  0.7621  1.4029
   88SOPE   H7S 8295   0.880   5.007   3.670 -1.3242  0.8684  0.9910
   88SOPE   C28 8296   1.009   5.079   3.831 -0.1418  0.0298  0.5136
   88SOPE   H8R 8297   1.114   5.106   3.855 -0.5252 -0.4327  2.9870
   88SOPE   H8S 8298   0.950   5.164   3.870  0.3601  0.7183 -0.1907
   88SOPE   C29 8299   0.984   4.948   3.887  0.0896 -0.3481 -0.3281
   88SOPE   H91 8300   1.062   4.873   3.864 -2.0234 -2.2165 -1.9726
   88SOPE  C210 8301   0.879   4.902   3.954 -0.3727  0.0217 -0.3473
   88SOPE  H101 8302   0.885   4.799   3.992 -1.1935  0.2041  0.2986
   88SOPE  C211 8303   0.759   4.985   4.004  0.2454  0.0695 -0.0616
   88SOPE  H11R 8304   0.665   4.932   3.981  0.6375 -0.3436 -0.7677
   88SOPE  H11S 8305   0.748   5.086   3.960 -2.0107 -0.7712 -1.6216
   88SOPE  C212 8306   0.764   4.993   4.155  0.3515 -0.3558 -0.1172
   88SOPE  H12R 8307   0.719   5.088   4.191  0.6867 -0.3502  0.3067
   88SOPE  H12S 8308   0.869   5.007   4.189  0.5038  0.3575 -0.8769
   88SOPE  C213 8309   0.716   4.866   4.226  0.6826 -0.8339 -0.4164
   88SOPE  H13R 8310   0.755   4.774   4.178  1.3841  0.3358 -2.1757
   88SOPE  H13S 8311   0.605   4.872   4.234  0.7403 -1.4043  1.2317
   88SOPE  C214 8312   0.763   4.861   4.377  0.7744  0.1463 -0.1294
   88SOPE  H14R 8313   0.742   4.961   4.420  3.7181  1.1800 -0.8788
   88SOPE  H14S 8314   0.873   4.848   4.368  0.8791 -0.5410  1.6972
   88SOPE  C215 8315   0.680   4.749   4.458 -0.8787 -0.9274  0.3889
   88SOPE  H15R 8316   0.721   4.648   4.435  0.6192 -0.8890  2.5970
   88SOPE  H15S 8317   0.575   4.763   4.424 -0.7163 -0.4249  0.0951
   88SOPE  C216 8318   0.692   4.770   4.603  0.2074 -0.3288 -0.3509
   88SOPE  H16R 8319   0.657   4.873   4.622 -1.8910 -1.3008  1.4354
   88SOPE  H16S 8320   0.802   4.768   4.624  0.1777  0.5889 -0.0757
   88SOPE  C217 8321   0.608   4.673   4.691  0.4032  0.0054 -0.0123
   88SOPE  H17R 8322   0.620   4.564   4.669 -0.4958  0.2168 -1.6974
   88SOPE  H17S 8323   0.499   4.688   4.677  0.0094 -1.9302  0.6262
   88SOPE  C218 8324   0.646   4.692   4.838 -0.1398  0.3952 -0.4934
   88SOPE  H18R 8325   0.623   4.797   4.869 -2.1550 -0.0024 -0.4741
   88SOPE  H18S 8326   0.756   4.691   4.852  0.0569  0.5015 -1.8766
   88SOPE  H18T 8327   0.602   4.615   4.904  0.5215  0.6991  0.3114
   88SOPE   C33 8328   1.429   5.394   3.363 -0.2932  0.8791 -0.1495
   88SOPE   H3X 8329   1.482   5.471   3.304 -0.6767  0.6874 -0.7622
   88SOPE   H3Y 8330   1.486   5.299   3.371 -1.1183  0.4362  0.8146
   88SOPE   C34 8331   1.407   5.461   3.502 -0.9318 -1.1995 -0.3496
   88SOPE   H4X 8332   1.321   5.425   3.562 -0.1784 -2.5327 -0.0385
   88SOPE   H4Y 8333   1.367   5.562   3.476 -2.3336 -1.4457  0.7024
   88SOPE   C35 8334   1.532   5.464   3.592 -0.2352 -0.1685  0.2043
   88SOPE   H5X 8335   1.513   5.539   3.672 -1.5552  0.9692 -1.1165
   88SOPE   H5Y 8336   1.614   5.495   3.524 -0.1360 -3.0582 -1.1538
   88SOPE   C36 8337   1.580   5.327   3.646 -0.0580 -0.2052 -0.2350
   88SOPE   H6X 8338   1.681   5.349   3.688 -0.1616 -2.4250  1.3541
   88SOPE   H6Y 8339   1.607   5.264   3.559  0.1056 -0.1443 -0.2296
   88SOPE   C37 8340   1.484   5.243   3.737 -0.6265 -0.6457  0.0621
   88SOPE   H7X 8341   1.515   5.137   3.747  0.4101 -0.3025  0.5896
   88SOPE   H7Y 8342   1.387   5.230   3.684  0.7925 -1.4628 -2.4917
   88SOPE   C38 8343   1.473   5.292   3.883 -0.2770 -0.4785  0.3089
   88SOPE   H8X 8344   1.469   5.403   3.873  1.6285 -0.4475 -0.5672
   88SOPE   H8Y 8345   1.567   5.278   3.940  0.4022  1.5208 -0.2479
   88SOPE   C39 8346   1.354   5.233   3.966 -0.1524  0.2308  0.8518
   88SOPE   H9X 8347   1.253   5.258   3.926 -0.2467  0.9956  1.5315
   88SOPE   H9Y 8348   1.355   5.278   4.067 -3.4556 -0.5918  1.3840
   88SOPE  C310 8349   1.375   5.082   3.984  0.4579  0.7962 -0.0581
   88SOPE  H10X 8350   1.480   5.062   4.016  0.7264  1.1712 -0.6708
   88SOPE  H10Y 8351   1.372   5.026   3.888 -1.9221  0.6882  0.0341
   88SOPE  C311 8352   1.282   5.028   4.099  0.3327  0.5502 -0.2541
   88SOPE  H11X 8353   1.175   5.026   4.070 -0.7884 -1.9004  3.4024
   88SOPE  H11Y 8354   1.288   5.075   4.199  0.1468 -0.3608  0.1974
   88SOPE  C312 8355   1.318   4.879   4.122  0.9210 -0.6239 -1.2919
   88SOPE  H12X 8356   1.424   4.876   4.156  0.6508 -0.6441 -0.4357
   88SOPE  H12Y 8357   1.327   4.832   4.022 -0.9952 -0.1861 -1.7105
   88SOPE  C313 8358   1.213   4.805   4.202 -0.0876 -0.0257  0.8373
   88SOPE  H13X 8359   1.228   4.695   4.209 -1.8241 -0.4605 -1.2123
   88SOPE  H13Y 8360   1.116   4.812   4.149  1.3966  0.5384 -1.9964
   88SOPE  C314 8361   1.221   4.852   4.341 -0.0178  0.3693  0.1352
   88SOPE  H14X 8362   1.173   4.951   4.356 -1.4272 -0.1890 -0.4821
   88SOPE  H14Y 8363   1.326   4.868   4.372 -0.7859  2.2995  1.9994
   88SOPE  C315 8364   1.145   4.753   4.437  0.4923 -0.6039 -0.1913
   88SOPE  H15X 8365   1.183   4.649   4.425  0.7703 -0.6181  0.7029
   88SOPE  H15Y 8366   1.037   4.753   4.410  0.3996 -0.3744  0.1683
   88SOPE  C316 8367   1.153   4.792   4.584  0.1978  0.6754 -0.0478
   88SOPE  H16X 8368   1.101   4.888   4.606 -1.1869  1.4033 -5.1358
   88SOPE  H16Y 8369   1.258   4.789   4.619  0.0854 -0.0041  0.2279
   88SOPE  C317 8370   1.085   4.670   4.659  0.0922 -0.1583 -0.0975
   88SOPE  H17X 8371   1.134   4.572   4.642  0.8110 -0.4924  3.2592
   88SOPE  H17Y 8372   0.975   4.680   4.646  0.1763  1.5544  0.3078
   88SOPE  C318 8373   1.100   4.685   4.816  0.2896 -0.8339 -0.0026
   88SOPE  H18X 8374   1.069   4.589   4.861 -1.2407 -1.8951 -3.0314
   88SOPE  H18Y 8375   1.041   4.772   4.853  1.5795 -0.1705  0.5827
   88SOPE  H18Z 8376   1.206   4.713   4.836 -0.4117  0.9450  1.5947
   89SAPC     N 8377   1.719   6.592   7.437  0.1161 -0.3427 -0.0830
   89SAPC   C12 8378   1.796   6.559   7.313  0.5778  0.1726 -0.9204
   89SAPC  H12A 8379   1.781   6.624   7.228  4.2599  0.4327 -1.5742
   89SAPC  H12B 8380   1.766   6.459   7.285  0.1913 -0.4964  1.6047
   89SAPC   C13 8381   1.574   6.600   7.401 -0.6392  0.0230  0.6263
   89SAPC  H13A 8382   1.556   6.684   7.335  0.4473 -1.0854 -1.1636
   89SAPC  H13B 8383   1.532   6.513   7.353 -0.7967 -1.5169  3.3866
   89SAPC  H13C 8384   1.516   6.619   7.490 -0.0356 -1.4210  1.3432
   89SAPC   C14 8385   1.737   6.492   7.544 -0.9753  0.5986 -0.2139
   89SAPC  H14A 8386   1.843   6.486   7.566 -0.9868 -0.2459 -0.3725
   89SAPC  H14B 8387   1.681   6.522   7.631 -1.2285  0.4248 -0.3189
   89SAPC  H14C 8388   1.702   6.394   7.516  2.3521 -1.6409  2.5641
   89SAPC   C15 8389   1.766   6.728   7.487  1.2867 -0.4521 -0.0403
   89SAPC  H15A 8390   1.727   6.799   7.416 -0.4910 -0.7331  0.6006
   89SAPC  H15B 8391   1.722   6.740   7.585  2.6978  0.4517  0.5210
   89SAPC  H15C 8392   1.874   6.733   7.492  1.2852  0.9279 -0.7415
   89SAPC   C11 8393   1.954   6.557   7.328  0.5131  0.5498  0.1756
   89SAPC  H11A 8394   1.986   6.495   7.242  1.4444 -2.3383  2.4516
   89SAPC  H11B 8395   1.984   6.498   7.418  1.0078  1.1457  0.4096
   89SAPC     P 8396   2.126   6.727   7.424  0.2609  0.0037 -0.0299
   89SAPC   O13 8397   2.064   6.731   7.563  0.0934  0.0012  0.3960
   89SAPC   O14 8398   2.246   6.641   7.404 -0.4900  0.2751  1.0720
   89SAPC   O12 8399   2.010   6.688   7.317 -0.2992  0.2645  0.3359
   89SAPC   O11 8400   2.162   6.872   7.385  0.6879  0.0920  0.0384
   89SAPC    C1 8401   2.070   6.983   7.387  0.6392 -0.7386  0.2397
   89SAPC    HA 8402   1.971   6.960   7.432  0.1705  0.2099 -0.2763
   89SAPC    HB 8403   2.135   7.054   7.443 -0.3077 -0.7298  1.3582
   89SAPC    C2 8404   2.038   7.049   7.250  0.0887 -0.2361 -0.4471
   89SAPC    HS 8405   1.950   7.114   7.270 -1.8096 -2.9472  0.7102
   89SAPC   O21 8406   2.019   6.953   7.140 -0.3618 -0.5309 -0.3482
   89SAPC   C21 8407   1.899   6.890   7.153 -0.2141  0.2942  0.2705
   89SAPC   O22 8408   1.816   6.926   7.233  0.0691 -0.4457 -0.6340
   89SAPC   C22 8409   1.884   6.780   7.050  0.4318  0.9406 -0.6948
   89SAPC   H2R 8410   1.979   6.724   7.062 -1.2359 -1.5806  2.3906
   89SAPC   H2S 8411   1.798   6.718   7.083  0.8654  0.7645  0.1362
   89SAPC    C3 8412   2.147   7.148   7.203  0.1946  0.4263  0.1169
   89SAPC    HX 8413   2.248   7.105   7.217  1.2032  2.6793  0.0807
   89SAPC    HY 8414   2.163   7.228   7.277 -1.8567  0.1592  0.9060
   89SAPC   O31 8415   2.128   7.199   7.078 -0.1190 -0.6539 -0.5119
   89SAPC   C31 8416   2.038   7.293   7.061 -0.1371  0.1204  0.3844
   89SAPC   O32 8417   1.959   7.337   7.139 -0.0613  0.1431 -0.2589
   89SAPC   C32 8418   2.047   7.349   6.917 -0.9428 -0.2679  0.4844
   89SAPC   H2X 8419   1.961   7.308   6.860 -0.2115 -1.2673  0.0786
   89SAPC   H2Y 8420   2.136   7.305   6.869 -0.2062 -0.5261  2.0109
   89SAPC   C23 8421   1.873   6.834   6.905 -0.1810  0.5561 -0.0571
   89SAPC   H3R 8422   1.863   6.742   6.844 -3.5397  0.2910  0.6392
   89SAPC   H3S 8423   1.968   6.882   6.876  0.2089 -0.8558 -1.2296
   89SAPC   C24 8424   1.753   6.918   6.864 -0.2994 -0.4995 -0.2143
   89SAPC   H4R 8425   1.765   6.952   6.759  1.8193  0.2975  0.2415
   89SAPC   H4S 8426   1.747   7.006   6.931  0.2934 -0.0534 -0.7346
   89SAPC   C25 8427   1.631   6.834   6.868 -0.2184  0.2677  0.3279
   89SAPC   H5R 8428   1.591   6.809   6.968 -2.8735 -0.1241 -0.7527
   89SAPC   C26 8429   1.554   6.790   6.771 -0.2979  0.5336 -0.3297
   89SAPC   H6R 8430   1.461   6.742   6.803  1.5374 -2.0158  1.4886
   89SAPC   C27 8431   1.571   6.812   6.622 -0.2767 -0.2668  0.4307
   89SAPC   H7R 8432   1.674   6.793   6.585 -0.6848 -2.1630  0.1300
   89SAPC   H7S 8433   1.552   6.921   6.614  0.6934 -0.0339  1.2229
   89SAPC   C28 8434   1.464   6.738   6.546  0.4235 -0.5170 -0.1594
   89SAPC   H8R 8435   1.389   6.691   6.611  0.2625  2.1657  1.7927
   89SAPC   C29 8436   1.444   6.737   6.412  0.0211 -0.4803 -0.3879
   89SAPC   H9R 8437   1.352   6.691   6.373 -0.7461  0.1816  0.5837
   89SAPC  C210 8438   1.536   6.803   6.313  0.1226  0.1483  0.3370
   89SAPC  H10R 8439   1.600   6.728   6.262  0.1567  0.1611  0.3604
   89SAPC  H10S 8440   1.609   6.869   6.365  0.3065  1.2951 -1.2871
   89SAPC  C211 8441   1.449   6.870   6.211 -0.8423 -0.3200 -0.5906
   89SAPC  H11R 8442   1.432   6.975   6.235  0.5150 -0.0855 -0.5804
   89SAPC  C212 8443   1.412   6.823   6.094 -0.2101 -0.5893 -0.0545
   89SAPC  H12R 8444   1.357   6.885   6.021 -0.2695 -2.6109 -1.8579
   89SAPC  C213 8445   1.433   6.682   6.036 -0.6862  0.5595  0.4760
   89SAPC  H13R 8446   1.451   6.616   6.124  0.5673 -2.0386 -1.6079
   89SAPC  H13S 8447   1.525   6.677   5.975 -0.5730 -1.4231  0.7519
   89SAPC  C214 8448   1.311   6.638   5.954 -0.0055  0.6054 -0.3397
   89SAPC  H14R 8449   1.213   6.682   5.976  1.1833  2.7243  1.1168
   89SAPC  C215 8450   1.322   6.547   5.857  0.3431  0.4843  0.0920
   89SAPC  H15R 8451   1.224   6.515   5.819 -1.2374  1.2919  3.1753
   89SAPC  C216 8452   1.440   6.483   5.794  0.0629  0.6575  0.9442
   89SAPC  H16R 8453   1.433   6.372   5.804 -2.1763  0.5291 -1.1930
   89SAPC  H16S 8454   1.534   6.531   5.829  0.6224 -0.3790  0.9363
   89SAPC  C217 8455   1.444   6.481   5.638 -0.6104  0.0680 -0.4288
   89SAPC  H17R 8456   1.345   6.439   5.609 -0.6023 -0.3376  0.1205
   89SAPC  H17S 8457   1.527   6.421   5.596  0.1847  1.7765 -1.4145
   89SAPC  C218 8458   1.469   6.619   5.577 -0.1555  0.9175  1.2962
   89SAPC  H18R 8459   1.568   6.666   5.597  1.7856 -1.3913 -1.9779
   89SAPC  H18S 8460   1.390   6.689   5.612 -0.2052  0.1950  2.6985
   89SAPC  C219 8461   1.459   6.608   5.424  0.3953 -0.1143 -0.1718
   89SAPC  H19R 8462   1.356   6.569   5.410  0.4078 -0.4886  0.6909
   89SAPC  H19S 8463   1.535   6.531   5.399  0.5859  0.2187 -0.6300
   89SAPC  C220 8464   1.468   6.743   5.351 -0.2033 -1.1592  0.1211
   89SAPC  H20R 8465   1.402   6.816   5.402  3.2238  0.9560  1.8391
   89SAPC  H20S 8466   1.438   6.727   5.245  0.7446 -2.4335  0.0206
   89SAPC  H20T 8467   1.575   6.773   5.354  0.1041 -2.1097 -0.5027
   89SAPC   C33 8468   2.063   7.504   6.911  0.0783 -0.7522  0.5316
   89SAPC   H3X 8469   2.172   7.519   6.915  0.4976 -0.6579 -4.3654
   89SAPC   H3Y 8470   2.009   7.556   6.993 -1.5659  0.6675 -1.3301
   89SAPC   C34 8471   2.011   7.557   6.779  0.6692 -0.1658 -0.5753
   89SAPC   H4X 8472   2.002   7.668   6.775 -2.3989 -0.3581 -0.8411
   89SAPC   H4Y 8473   1.910   7.514   6.762 -0.8208  2.2565  1.4103
   89SAPC   C35 8474   2.105   7.531   6.656  0.0193  0.5200  0.9082
   89SAPC   H5X 8475   2.152   7.430   6.657  1.0872  1.0076  2.2564
   89SAPC   H5Y 8476   2.189   7.603   6.651  0.6234 -0.1473  1.2617
   89SAPC   C36 8477   2.015   7.533   6.531  0.1154  0.2260 -0.4868
   89SAPC   H6X 8478   1.986   7.639   6.514 -0.1078  0.3927  0.8329
   89SAPC   H6Y 8479   1.927   7.466   6.540  0.5970 -0.8312 -2.9749
   89SAPC   C37 8480   2.086   7.493   6.403 -0.1090  0.4508 -0.5785
   89SAPC   H7X 8481   2.136   7.397   6.425  0.3719  1.2971  2.4130
   89SAPC   H7Y 8482   2.170   7.564   6.391 -0.7014  1.7310  2.0860
   89SAPC   C38 8483   1.989   7.502   6.276  0.0718  0.0530 -0.4386
   89SAPC   H8X 8484   1.966   7.606   6.247  1.9213  0.7484  0.4536
   89SAPC   H8Y 8485   1.888   7.463   6.299 -0.1289  1.9533  2.3528
   89SAPC   C39 8486   2.038   7.409   6.157 -0.0348 -0.3296  0.0261
   89SAPC   H9X 8487   2.049   7.305   6.193  0.2539 -0.4492 -0.4124
   89SAPC   H9Y 8488   2.139   7.448   6.132  1.1798 -1.4437  2.7678
   89SAPC  C310 8489   1.944   7.410   6.036 -0.4907 -1.0542 -0.2282
   89SAPC  H10X 8490   1.946   7.509   5.985  2.8472  0.2201  2.0260
   89SAPC  H10Y 8491   1.836   7.389   6.054 -0.8255 -0.0056 -0.9018
   89SAPC  C311 8492   1.994   7.313   5.930  0.0306 -0.4192 -0.5342
   89SAPC  H11X 8493   1.965   7.210   5.960 -0.6139 -0.1625 -0.2649
   89SAPC  H11Y 8494   2.105   7.317   5.922  0.3106 -2.0152  1.5962
   89SAPC  C312 8495   1.931   7.334   5.786 -0.4120 -0.6441 -0.0815
   89SAPC  H12X 8496   2.005   7.295   5.713 -0.7391 -0.9732 -0.2362
   89SAPC  H12Y 8497   1.922   7.445   5.778  0.2846 -0.5267  0.6576
   89SAPC  C313 8498   1.801   7.271   5.770 -0.6364  0.9399 -0.4077
   89SAPC  H13X 8499   1.733   7.312   5.848 -0.1463  2.7962 -0.9027
   89SAPC  H13Y 8500   1.804   7.162   5.788 -1.0787  1.2855  2.2337
   89SAPC  C314 8501   1.739   7.294   5.636  0.1712 -0.1774 -0.3545
   89SAPC  H14X 8502   1.818   7.287   5.558  0.4036  1.5985 -0.3186
   89SAPC  H14Y 8503   1.701   7.398   5.643 -1.3953 -0.6358 -1.5371
   89SAPC  C315 8504   1.628   7.198   5.613 -0.3050 -0.7170  0.0078
   89SAPC  H15X 8505   1.549   7.212   5.690  0.3537  0.7056  0.4545
   89SAPC  H15Y 8506   1.648   7.089   5.609 -0.3855 -0.6980 -3.8128
   89SAPC  C316 8507   1.556   7.217   5.479 -1.2063 -0.0034 -0.0169
   89SAPC  H16X 8508   1.634   7.228   5.401 -1.6505  0.6010 -0.3902
   89SAPC  H16Y 8509   1.511   7.319   5.486  1.8810  1.4777 -0.2033
   89SAPC  C317 8510   1.440   7.121   5.456  0.1565 -0.1433 -0.0044
   89SAPC  H17X 8511   1.373   7.131   5.544 -0.1674  0.6231 -0.3305
   89SAPC  H17Y 8512   1.493   7.023   5.465 -0.6759 -0.4332  3.0275
   89SAPC  C318 8513   1.356   7.151   5.335  0.0215 -0.1924 -0.2034
   89SAPC  H18X 8514   1.280   7.072   5.315 -0.2656  0.4414 -1.7662
   89SAPC  H18Y 8515   1.421   7.144   5.245 -0.2147  3.0405 -0.7507
   89SAPC  H18Z 8516   1.307   7.251   5.338  1.8197  0.7405 -0.2645
   90SAPC     N 8517   4.828   3.515   7.428 -0.2211  0.3441 -0.4403
   90SAPC   C12 8518   4.863   3.618   7.316 -0.3596  0.8779 -0.0139
   90SAPC  H12A 8519   4.777   3.682   7.309 -1.4967 -0.6500 -0.6449
   90SAPC  H12B 8520   4.873   3.563   7.224 -0.2094  1.3051 -0.2516
   90SAPC   C13 8521   4.702   3.436   7.395  0.4697 -0.7056  0.4960
   90SAPC  H13A 8522   4.621   3.506   7.384  0.6231 -0.7568 -1.1263
   90SAPC  H13B 8523   4.718   3.372   7.309  0.6289  0.4547 -0.3563
   90SAPC  H13C 8524   4.675   3.360   7.467  0.3389 -1.0206  0.1197
   90SAPC   C14 8525   4.938   3.410   7.433  0.8540  0.0231  0.1962
   90SAPC  H14A 8526   5.031   3.449   7.473  1.1890 -0.5126 -0.0521
   90SAPC  H14B 8527   4.908   3.330   7.499 -2.6290  0.8684 -0.1986
   90SAPC  H14C 8528   4.950   3.371   7.333  0.1534  1.2619 -0.3906
   90SAPC   C15 8529   4.818   3.589   7.559 -0.3140 -0.4234 -1.1088
   90SAPC  H15A 8530   4.732   3.654   7.548  0.3627  0.4992 -1.0386
   90SAPC  H15B 8531   4.811   3.541   7.656  1.6348  0.5290 -0.4427
   90SAPC  H15C 8532   4.901   3.656   7.577 -0.8893 -0.6960  3.9349
   90SAPC   C11 8533   4.995   3.698   7.324  0.0433 -0.4752  1.0441
   90SAPC  H11A 8534   4.998   3.758   7.417 -1.0765  0.3263  0.5921
   90SAPC  H11B 8535   5.000   3.775   7.243 -1.1139  0.8394  2.1619
   90SAPC     P 8536   5.255   3.659   7.260 -0.1678 -0.8513  0.3378
   90SAPC   O13 8537   5.311   3.767   7.346  0.1375  0.8206  0.2176
   90SAPC   O14 8538   5.323   3.530   7.245  0.2671  0.7542  0.1313
   90SAPC   O12 8539   5.109   3.621   7.312 -0.1271  0.4370  0.1446
   90SAPC   O11 8540   5.223   3.720   7.121  0.4773  0.0291  0.0653
   90SAPC    C1 8541   5.166   3.637   7.016  0.0682 -0.0428 -0.3663
   90SAPC    HA 8542   5.111   3.549   7.056 -0.9485  0.0443 -1.5432
   90SAPC    HB 8543   5.085   3.695   6.966 -0.2622  0.1029  0.3203
   90SAPC    C2 8544   5.284   3.602   6.912  0.7753  0.6760 -0.6457
   90SAPC    HS 8545   5.357   3.541   6.969 -0.1355 -0.1665 -0.3407
   90SAPC   O21 8546   5.330   3.728   6.871 -0.4491 -0.4416 -0.2943
   90SAPC   C21 8547   5.458   3.715   6.828  0.0822 -0.0737 -0.4674
   90SAPC   O22 8548   5.530   3.617   6.836 -0.3752  0.9289  0.3987
   90SAPC   C22 8549   5.510   3.849   6.757 -0.2501  0.3643  0.4907
   90SAPC   H2R 8550   5.425   3.912   6.722  0.5319  0.2270 -1.7830
   90SAPC   H2S 8551   5.568   3.907   6.833 -0.0210  0.4555  0.2461
   90SAPC    C3 8552   5.237   3.511   6.784  0.2356  0.2943  0.4889
   90SAPC    HX 8553   5.163   3.570   6.726  1.1172  0.2480 -0.7169
   90SAPC    HY 8554   5.182   3.424   6.826 -0.5539  0.4503 -0.1921
   90SAPC   O31 8555   5.328   3.458   6.688  0.1665 -0.1570  0.0739
   90SAPC   C31 8556   5.413   3.364   6.718 -0.0896  0.7626  0.5370
   90SAPC   O32 8557   5.433   3.313   6.827  0.4358 -0.1092 -0.2764
   90SAPC   C32 8558   5.491   3.325   6.593 -0.4229  0.6835  0.9157
   90SAPC   H2X 8559   5.533   3.417   6.547  1.8065  0.6410  2.6824
   90SAPC   H2Y 8560   5.417   3.270   6.531  0.5138 -1.0046  1.2503
   90SAPC   C23 8561   5.597   3.824   6.630 -0.0802  0.0765  0.2704
   90SAPC   H3R 8562   5.545   3.758   6.557 -1.1110  1.6680 -0.4875
   90SAPC   H3S 8563   5.689   3.770   6.660  0.1028 -0.2397 -0.7952
   90SAPC   C24 8564   5.650   3.958   6.567 -0.5368 -0.2417 -0.1476
   90SAPC   H4R 8565   5.577   4.041   6.579  1.3657  1.2156  2.6443
   90SAPC   H4S 8566   5.671   3.947   6.459 -0.3785  1.1610 -0.2792
   90SAPC   C25 8567   5.765   4.012   6.653  0.2927  0.2164  1.3040
   90SAPC   H5R 8568   5.754   3.991   6.760 -1.4908  0.4479  1.1873
   90SAPC   C26 8569   5.871   4.089   6.608 -0.6817 -0.6431  0.3526
   90SAPC   H6R 8570   5.952   4.107   6.679  1.3094 -0.5956 -1.8020
   90SAPC   C27 8571   5.886   4.133   6.458  0.0372  0.2136  0.0225
   90SAPC   H7R 8572   5.806   4.202   6.423  0.0543  0.7249  0.9525
   90SAPC   H7S 8573   5.873   4.038   6.402  0.7792 -0.6181  1.2177
   90SAPC   C28 8574   6.028   4.186   6.440 -0.2464 -0.3914 -0.1952
   90SAPC   H8R 8575   6.069   4.231   6.532 -0.8514 -0.8966  0.3297
   90SAPC   C29 8576   6.117   4.171   6.343 -0.5293 -0.1418  0.2178
   90SAPC   H9R 8577   6.221   4.199   6.364  0.3171 -0.8200 -2.6425
   90SAPC  C210 8578   6.092   4.104   6.207  0.3054  0.3918  0.5652
   90SAPC  H10R 8579   5.984   4.120   6.188 -0.2758 -0.2666  2.9421
   90SAPC  H10S 8580   6.113   3.996   6.222  0.9797  0.7269  2.2403
   90SAPC  C211 8581   6.173   4.158   6.098  0.3843  0.1365 -0.6263
   90SAPC  H11R 8582   6.275   4.176   6.136  0.4415  0.6511 -1.0097
   90SAPC  C212 8583   6.149   4.179   5.964  0.6640 -0.7416  0.0226
   90SAPC  H12R 8584   6.229   4.219   5.901  0.3631  0.1119  0.1788
   90SAPC  C213 8585   6.029   4.119   5.893 -0.8431 -0.1984 -0.5333
   90SAPC  H13R 8586   5.984   4.192   5.822  1.4183  1.6536 -0.1873
   90SAPC  H13S 8587   5.950   4.094   5.968 -0.8473 -0.8282 -0.7404
   90SAPC  C214 8588   6.081   3.995   5.825 -0.6484  0.2161 -0.0427
   90SAPC  H14R 8589   6.073   3.902   5.883 -0.4467 -0.4931 -1.1078
   90SAPC  C215 8590   6.111   3.991   5.694  0.2403 -0.3694 -0.1185
   90SAPC  H15R 8591   6.137   3.896   5.646 -0.0190 -0.0172 -0.9739
   90SAPC  C216 8592   6.126   4.110   5.598  0.1219  0.3844 -0.4198
   90SAPC  H16R 8593   6.205   4.076   5.528 -0.2301 -0.0010 -0.6314
   90SAPC  H16S 8594   6.175   4.199   5.643  2.1788 -0.8238 -0.1676
   90SAPC  C217 8595   5.998   4.151   5.519 -0.1227 -0.8744  0.2466
   90SAPC  H17R 8596   5.913   4.171   5.587 -0.0765  2.4795 -0.4932
   90SAPC  H17S 8597   5.977   4.064   5.453 -0.9828  0.8226 -1.8168
   90SAPC  C218 8598   6.036   4.275   5.444  0.3696  0.2778  0.1862
   90SAPC  H18R 8599   6.125   4.267   5.378 -0.4799  1.4674 -1.1425
   90SAPC  H18S 8600   6.059   4.346   5.526  1.3906  0.6949 -0.4453
   90SAPC  C219 8601   5.930   4.327   5.348  0.3742 -0.1167 -0.6748
   90SAPC  H19R 8602   5.843   4.358   5.411 -2.4944 -1.5470 -3.6644
   90SAPC  H19S 8603   5.888   4.249   5.282  0.4310 -1.9152  1.2860
   90SAPC  C220 8604   5.984   4.442   5.269 -0.4718  0.0655  0.2980
   90SAPC  H20R 8605   6.039   4.414   5.177  1.3710  0.3602  1.2763
   90SAPC  H20S 8606   6.066   4.489   5.328  0.2578  0.0256 -0.6691
   90SAPC  H20T 8607   5.898   4.508   5.246 -1.3366 -1.5822 -1.4716
   90SAPC   C33 8608   5.607   3.229   6.616  0.4003  0.1321  0.0039
   90SAPC   H3X 8609   5.555   3.138   6.652  1.4604  0.2929  2.0622
   90SAPC   H3Y 8610   5.664   3.265   6.704  1.4918 -1.9442  0.2115
   90SAPC   C34 8611   5.692   3.198   6.495 -0.2791 -0.3284 -0.2482
   90SAPC   H4X 8612   5.754   3.109   6.519  1.8654  1.3600  0.8731
   90SAPC   H4Y 8613   5.766   3.278   6.475 -0.4490 -0.3144 -0.8389
   90SAPC   C35 8614   5.617   3.184   6.359  0.4621 -0.2913  0.1329
   90SAPC   H5X 8615   5.585   3.280   6.313 -2.0426 -1.9107 -1.8112
   90SAPC   H5Y 8616   5.532   3.112   6.365  1.0960 -1.0206  0.5613
   90SAPC   C36 8617   5.712   3.123   6.255 -0.0969 -0.4083 -0.4108
   90SAPC   H6X 8618   5.752   3.028   6.296 -0.8703 -1.8917 -2.8607
   90SAPC   H6Y 8619   5.787   3.203   6.237  0.1318 -0.4274  0.4388
   90SAPC   C37 8620   5.639   3.099   6.118  0.4755 -0.1728 -0.7206
   90SAPC   H7X 8621   5.603   3.199   6.087 -1.8739 -0.1421  1.6929
   90SAPC   H7Y 8622   5.546   3.042   6.139  0.8483  0.1749  2.5336
   90SAPC   C38 8623   5.725   3.030   6.015 -0.7780 -0.4165  0.4825
   90SAPC   H8X 8624   5.739   2.922   6.039  3.6112 -0.3775 -0.9297
   90SAPC   H8Y 8625   5.824   3.081   6.008 -1.0235 -0.0530 -0.4127
   90SAPC   C39 8626   5.671   3.035   5.870  0.2867  0.0823  0.3252
   90SAPC   H9X 8627   5.672   3.143   5.843 -0.1446  0.6514  2.4073
   90SAPC   H9Y 8628   5.566   2.999   5.877 -0.2414  1.2610 -0.9986
   90SAPC  C310 8629   5.751   2.961   5.765 -0.1587  0.1405  0.1355
   90SAPC  H10X 8630   5.758   2.855   5.799 -0.3360  0.5748  1.5915
   90SAPC  H10Y 8631   5.851   3.009   5.769  0.6195 -1.1024 -2.2259
   90SAPC  C311 8632   5.702   2.968   5.617  0.5315 -0.5158 -0.2903
   90SAPC  H11X 8633   5.671   3.072   5.593  1.0801 -0.2108  0.2843
   90SAPC  H11Y 8634   5.604   2.916   5.608 -0.7566  1.6778  0.3456
   90SAPC  C312 8635   5.809   2.925   5.519  0.0462  0.4180 -1.0280
   90SAPC  H12X 8636   5.855   2.831   5.557 -1.4026 -0.8189 -2.2383
   90SAPC  H12Y 8637   5.893   2.998   5.515  0.0023  0.5044 -0.4438
   90SAPC  C313 8638   5.773   2.892   5.373 -0.2828 -0.0708 -0.4794
   90SAPC  H13X 8639   5.679   2.835   5.387  0.0213 -0.3422  0.6159
   90SAPC  H13Y 8640   5.845   2.812   5.343  0.9492  0.1523  1.6388
   90SAPC  C314 8641   5.761   3.006   5.270 -0.1428 -0.7159 -0.0347
   90SAPC  H14X 8642   5.727   2.956   5.177 -1.1201 -2.7399  1.3462
   90SAPC  H14Y 8643   5.862   3.048   5.249 -0.6702 -0.5626 -2.4992
   90SAPC  C315 8644   5.651   3.114   5.302  0.2705  0.4959  0.1401
   90SAPC  H15X 8645   5.671   3.157   5.402  0.1529 -0.2488  0.4900
   90SAPC  H15Y 8646   5.549   3.069   5.308 -0.3055  1.7275 -0.0878
   90SAPC  C316 8647   5.633   3.226   5.198  0.5013  0.3032 -1.2486
   90SAPC  H16X 8648   5.602   3.180   5.102 -2.3017  1.2293 -0.8738
   90SAPC  H16Y 8649   5.732   3.273   5.180  1.4149 -1.1954 -0.3211
   90SAPC  C317 8650   5.522   3.328   5.237 -0.2419 -0.7642 -0.0045
   90SAPC  H17X 8651   5.506   3.345   5.346  2.6789  1.8336  0.1408
   90SAPC  H17Y 8652   5.422   3.291   5.205 -0.6312 -0.6538  1.0295
   90SAPC  C318 8653   5.532   3.476   5.191  0.0159  0.0280 -0.1835
   90SAPC  H18X 8654   5.504   3.473   5.083 -2.0487 -1.4695  0.3252
   90SAPC  H18Y 8655   5.634   3.516   5.210 -0.1525  0.2288  0.3083
   90SAPC  H18Z 8656   5.456   3.540   5.241  0.2840  1.1495 -1.1637
   91SAPC     N 8657   3.167   2.788   7.628 -0.2223 -0.0773 -0.5988
   91SAPC   C12 8658   3.113   2.916   7.681  0.0601 -0.1832  0.2276
   91SAPC  H12A 8659   3.108   2.915   7.789  0.9186 -1.8092  0.2757
   91SAPC  H12B 8660   3.014   2.917   7.639  0.8175 -2.4948 -1.8288
   91SAPC   C13 8661   3.170   2.783   7.476  0.5373  0.1780 -0.0708
   91SAPC  H13A 8662   3.241   2.852   7.432  0.1765 -0.1547 -1.1969
   91SAPC  H13B 8663   3.202   2.684   7.449 -0.1870 -0.5109  1.4731
   91SAPC  H13C 8664   3.077   2.807   7.426  0.3606 -2.0987 -0.9075
   91SAPC   C14 8665   3.311   2.774   7.668 -1.5332 -0.1589 -0.5041
   91SAPC  H14A 8666   3.364   2.852   7.615 -2.1596 -0.1524 -1.1356
   91SAPC  H14B 8667   3.321   2.797   7.773 -1.9516  0.4849 -0.5980
   91SAPC  H14C 8668   3.358   2.678   7.652  1.5870  1.0772  0.4190
   91SAPC   C15 8669   3.090   2.672   7.672 -0.6797 -0.1268 -0.3468
   91SAPC  H15A 8670   3.103   2.681   7.779  2.1484  0.6722 -0.6707
   91SAPC  H15B 8671   2.987   2.684   7.645 -0.9145  1.1387  0.9947
   91SAPC  H15C 8672   3.136   2.577   7.647 -0.4718  0.0978 -0.8158
   91SAPC   C11 8673   3.179   3.055   7.643  0.2016  0.6467  0.3989
   91SAPC  H11A 8674   3.286   3.059   7.674  0.8497 -2.7491 -0.9502
   91SAPC  H11B 8675   3.140   3.140   7.704  2.2006  0.5675  1.9012
   91SAPC     P 8676   3.050   3.156   7.430  0.1743 -0.1611 -0.0613
   91SAPC   O13 8677   2.923   3.082   7.444  0.5426  0.4362  0.1423
   91SAPC   O14 8678   3.054   3.299   7.478 -0.1419  0.0474  0.0264
   91SAPC   O12 8679   3.167   3.079   7.499  0.3936 -0.0632  0.5022
   91SAPC   O11 8680   3.091   3.146   7.275  0.0324 -0.2785 -0.0415
   91SAPC    C1 8681   3.195   3.059   7.224 -0.5245 -0.2031 -0.3954
   91SAPC    HA 8682   3.296   3.091   7.258 -0.5022 -2.8559  2.5027
   91SAPC    HB 8683   3.173   2.958   7.265 -0.4557  0.4201  1.2447
   91SAPC    C2 8684   3.184   3.062   7.067  0.4876  0.7399 -0.6140
   91SAPC    HS 8685   3.239   2.970   7.034  0.2371  0.6964 -0.9129
   91SAPC   O21 8686   3.221   3.184   7.006 -0.3899 -0.1038 -0.3273
   91SAPC   C21 8687   3.344   3.196   6.970  0.3509  0.0475  0.2268
   91SAPC   O22 8688   3.422   3.101   6.964  0.0001  0.1070 -0.4808
   91SAPC   C22 8689   3.387   3.339   6.946  0.0056  0.2129 -0.5575
   91SAPC   H2R 8690   3.304   3.391   6.895  0.2010  2.4075  1.1818
   91SAPC   H2S 8691   3.398   3.385   7.047 -1.2674  0.5235 -0.5538
   91SAPC    C3 8692   3.035   3.043   7.025 -0.2829  0.7508 -0.0772
   91SAPC    HX 8693   2.976   3.134   7.052 -0.1951  1.1552 -1.1859
   91SAPC    HY 8694   2.991   2.956   7.078 -2.7005  2.2740  0.6019
   91SAPC   O31 8695   3.023   3.017   6.878  0.0060  0.2642 -0.0168
   91SAPC   C31 8696   2.897   3.001   6.837  0.0091  0.0873  0.3858
   91SAPC   O32 8697   2.793   3.011   6.905 -0.2193 -0.2625  0.3199
   91SAPC   C32 8698   2.902   3.001   6.681  0.3452 -1.2055  0.0852
   91SAPC   H2X 8699   2.945   2.901   6.659 -1.2060 -1.9337  0.2182
   91SAPC   H2Y 8700   2.977   3.079   6.657  1.3467 -2.0345  0.4361
   91SAPC   C23 8701   3.520   3.361   6.868 -0.0071 -0.1829  0.3466
   91SAPC   H3R 8702   3.598   3.286   6.894 -0.4522 -0.5679  0.5939
   91SAPC   H3S 8703   3.562   3.459   6.901  0.3391 -0.0382 -0.4993
   91SAPC   C24 8704   3.501   3.384   6.715  0.2023 -0.2214 -0.5920
   91SAPC   H4R 8705   3.587   3.446   6.681  0.1290 -0.3380 -0.9897
   91SAPC   H4S 8706   3.412   3.444   6.684  1.0232  0.4184 -1.7731
   91SAPC   C25 8707   3.510   3.248   6.648  0.3066 -0.4108 -0.4753
   91SAPC   H5R 8708   3.558   3.170   6.709  1.0541  0.7973  0.5260
   91SAPC   C26 8709   3.465   3.217   6.521 -0.0842  0.3641 -0.2525
   91SAPC   H6R 8710   3.478   3.113   6.489 -3.3733 -0.2153 -0.1429
   91SAPC   C27 8711   3.402   3.303   6.420  0.0307 -0.4118  0.8796
   91SAPC   H7R 8712   3.307   3.343   6.460 -0.3126 -0.3068 -0.0206
   91SAPC   H7S 8713   3.371   3.238   6.336 -1.3019 -0.1048  1.1216
   91SAPC   C28 8714   3.488   3.415   6.368  0.0776  0.0962 -0.6118
   91SAPC   H8R 8715   3.544   3.467   6.447  1.6079 -0.6946 -1.1417
   91SAPC   C29 8716   3.519   3.440   6.238 -0.2381  0.0562  0.0570
   91SAPC   H9R 8717   3.575   3.532   6.218  0.7773 -0.3419  0.9866
   91SAPC  C210 8718   3.438   3.379   6.128 -0.1804  0.2834  0.1106
   91SAPC  H10R 8719   3.332   3.398   6.154  0.0137  0.3254  0.8955
   91SAPC  H10S 8720   3.461   3.270   6.127  0.5329  0.4156 -1.6589
   91SAPC  C211 8721   3.479   3.424   5.992  0.0560  0.1891 -0.4103
   91SAPC  H11R 8722   3.477   3.532   5.974  0.4216 -0.0916 -2.3814
   91SAPC  C212 8723   3.493   3.354   5.875  0.2491  0.2950  0.0656
   91SAPC  H12R 8724   3.508   3.418   5.786  0.1122  1.1585  0.6480
   91SAPC  C213 8725   3.484   3.204   5.849  0.2580  0.2224 -0.3333
   91SAPC  H13R 8726   3.398   3.181   5.782 -0.6244 -0.6318  1.0237
   91SAPC  H13S 8727   3.458   3.147   5.942 -3.4706  0.5136 -1.0264
   91SAPC  C214 8728   3.617   3.135   5.817  0.1040  0.4170  0.2899
   91SAPC  H14R 8729   3.710   3.182   5.851 -0.0069  1.7004 -1.0829
   91SAPC  C215 8730   3.629   3.050   5.718 -0.4667  0.2895  0.1680
   91SAPC  H15R 8731   3.725   2.997   5.709 -0.8549 -0.8878  2.1992
   91SAPC  C216 8732   3.510   2.988   5.646 -0.2521  0.0242 -0.2559
   91SAPC  H16R 8733   3.444   3.065   5.601 -0.0634 -0.5185 -1.5115
   91SAPC  H16S 8734   3.456   2.923   5.717  1.1930 -0.5592  0.3453
   91SAPC  C217 8735   3.549   2.902   5.530 -0.4015 -0.1050 -0.3135
   91SAPC  H17R 8736   3.625   2.827   5.562  0.0283  0.6612  0.4927
   91SAPC  H17S 8737   3.601   2.963   5.453 -1.0749 -0.5117 -1.1127
   91SAPC  C218 8738   3.425   2.847   5.449  0.0514 -0.5571  0.2010
   91SAPC  H18R 8739   3.383   2.941   5.407 -0.2756 -0.8889 -0.2161
   91SAPC  H18S 8740   3.348   2.819   5.523 -0.7260 -0.3209 -0.5046
   91SAPC  C219 8741   3.467   2.735   5.357  0.4299  0.4344  0.0962
   91SAPC  H19R 8742   3.497   2.646   5.416 -1.0198  0.8260  1.4999
   91SAPC  H19S 8743   3.562   2.769   5.311  0.7343 -0.0613  0.3443
   91SAPC  C220 8744   3.366   2.695   5.248  0.2552 -0.8720  0.2601
   91SAPC  H20R 8745   3.363   2.584   5.245 -0.5186 -0.9566  2.3404
   91SAPC  H20S 8746   3.409   2.717   5.148  1.3985 -2.9266  0.2534
   91SAPC  H20T 8747   3.263   2.734   5.266  1.0483  0.4600  2.2186
   91SAPC   C33 8748   2.768   3.028   6.612  0.3516  0.7309 -0.6489
   91SAPC   H3X 8749   2.737   3.133   6.633  0.6394  0.5551  0.7924
   91SAPC   H3Y 8750   2.688   2.965   6.658  1.8814  0.7190  2.2111
   91SAPC   C34 8751   2.764   3.006   6.460 -0.5186  0.3468 -0.0588
   91SAPC   H4X 8752   2.755   2.898   6.438 -1.9467  0.2347  0.9247
   91SAPC   H4Y 8753   2.860   3.040   6.415 -1.2344  1.1676 -0.9789
   91SAPC   C35 8754   2.657   3.076   6.376  0.4126 -0.3600  0.1167
   91SAPC   H5X 8755   2.683   3.184   6.374  1.3237 -0.5453  1.0701
   91SAPC   H5Y 8756   2.562   3.058   6.431 -0.3998 -1.2203 -1.5073
   91SAPC   C36 8757   2.642   3.012   6.229 -0.7089 -0.4809 -0.0185
   91SAPC   H6X 8758   2.604   2.909   6.244 -0.4715 -0.7765 -1.2822
   91SAPC   H6Y 8759   2.736   3.016   6.169 -0.8178 -1.7236 -0.3156
   91SAPC   C37 8760   2.530   3.077   6.148 -0.3126  0.7045  0.1182
   91SAPC   H7X 8761   2.567   3.179   6.124  1.5537  0.4303  1.6348
   91SAPC   H7Y 8762   2.431   3.088   6.198 -1.0640 -0.1075 -1.1207
   91SAPC   C38 8763   2.506   3.004   6.009  0.3407  0.2114  0.2210
   91SAPC   H8X 8764   2.419   3.059   5.966 -0.9269  0.5882  3.0415
   91SAPC   H8Y 8765   2.480   2.898   6.029 -2.4269  0.3890 -1.9232
   91SAPC   C39 8766   2.612   3.008   5.897 -0.6134  0.5503  0.3620
   91SAPC   H9X 8767   2.705   2.964   5.938 -1.3191 -2.0249 -0.6120
   91SAPC   H9Y 8768   2.627   3.111   5.859  1.7771 -0.1367 -0.7974
   91SAPC  C310 8769   2.586   2.916   5.780  0.1580 -0.4095 -0.0248
   91SAPC  H10X 8770   2.562   2.819   5.830  0.5453 -0.4926 -0.0010
   91SAPC  H10Y 8771   2.677   2.895   5.721  0.4993  2.9767 -0.9020
   91SAPC  C311 8772   2.467   2.959   5.690  0.2276 -0.3406  0.3037
   91SAPC  H11X 8773   2.459   3.065   5.657 -0.5271  0.0793  1.7748
   91SAPC  H11Y 8774   2.369   2.933   5.734 -0.0027  1.5114  0.9743
   91SAPC  C312 8775   2.462   2.870   5.568 -0.8955 -0.0269  0.2163
   91SAPC  H12X 8776   2.448   2.766   5.605 -2.6463  1.0773  3.0849
   91SAPC  H12Y 8777   2.555   2.871   5.508 -0.3496  0.5392  1.0579
   91SAPC  C313 8778   2.353   2.899   5.466  0.5808 -0.5139 -0.4598
   91SAPC  H13X 8779   2.378   2.994   5.414  0.1668  0.9617  1.8513
   91SAPC  H13Y 8780   2.251   2.899   5.511  0.9288 -0.3547  0.3565
   91SAPC  C314 8781   2.349   2.790   5.362 -0.0805 -0.1233 -0.6644
   91SAPC  H14X 8782   2.253   2.793   5.307  0.7651  1.8342 -2.1297
   91SAPC  H14Y 8783   2.355   2.691   5.413 -1.3383  0.8450  1.4997
   91SAPC  C315 8784   2.454   2.801   5.252 -0.1872 -0.1067  0.2221
   91SAPC  H15X 8785   2.556   2.798   5.295  0.4021  0.8238 -1.0466
   91SAPC  H15Y 8786   2.444   2.899   5.201 -0.5611  0.3602  1.1692
   91SAPC  C316 8787   2.439   2.702   5.138 -0.1387 -0.8000 -0.3181
   91SAPC  H16X 8788   2.333   2.699   5.104 -0.9115  2.1205  1.4779
   91SAPC  H16Y 8789   2.459   2.598   5.172  1.3625 -0.6394 -0.6500
   91SAPC  C317 8790   2.524   2.741   5.012 -0.2358 -0.4289 -0.0769
   91SAPC  H17X 8791   2.501   2.845   4.983  2.0819 -0.3981 -2.1343
   91SAPC  H17Y 8792   2.508   2.671   4.927  3.3767  0.2126 -1.4660
   91SAPC  C318 8793   2.675   2.733   5.030  0.7957 -0.1614 -0.6765
   91SAPC  H18X 8794   2.713   2.784   5.121 -0.4175  2.8855 -1.7731
   91SAPC  H18Y 8795   2.725   2.767   4.937  0.2297  2.2693 -0.1465
   91SAPC  H18Z 8796   2.698   2.625   5.046  0.5272 -0.2502 -0.8905
   92SAPC     N 8797   2.229   4.106   8.070  0.4250  0.4043 -0.8032
   92SAPC   C12 8798   2.323   4.111   7.945 -0.1328  0.5315 -0.3703
   92SAPC  H12A 8799   2.422   4.125   7.984 -0.0615  0.1529 -0.4118
   92SAPC  H12B 8800   2.295   4.196   7.884  0.2482 -0.3328 -1.7711
   92SAPC   C13 8801   2.090   4.098   8.020 -0.4953  0.5742 -0.0822
   92SAPC  H13A 8802   2.084   4.026   7.940  0.9966  0.8871 -0.5177
   92SAPC  H13B 8803   2.022   4.078   8.101  1.0948 -2.0480  0.7312
   92SAPC  H13C 8804   2.056   4.193   7.981  0.1847  0.0933 -1.9529
   92SAPC   C14 8805   2.255   3.994   8.166 -0.0051  0.8038 -0.8875
   92SAPC  H14A 8806   2.181   3.975   8.242  0.4452  0.7944 -0.4421
   92SAPC  H14B 8807   2.277   3.906   8.108 -1.5527  1.1134 -1.9935
   92SAPC  H14C 8808   2.335   4.019   8.234 -1.2868  1.0768  0.5632
   92SAPC   C15 8809   2.247   4.235   8.151 -0.1547  0.3012  0.1704
   92SAPC  H15A 8810   2.184   4.237   8.238  1.6221 -1.7207  1.6171
   92SAPC  H15B 8811   2.351   4.233   8.179  1.0272 -2.3249 -3.5415
   92SAPC  H15C 8812   2.238   4.327   8.095  1.4413  1.1794  1.2758
   92SAPC   C11 8813   2.323   3.981   7.855 -0.3093 -0.0739  0.1436
   92SAPC  H11A 8814   2.342   3.897   7.924 -0.0513  1.6954  2.3299
   92SAPC  H11B 8815   2.406   3.993   7.781 -0.4087  0.4122  0.1071
   92SAPC     P 8816   2.163   4.018   7.659  0.0460  0.0944  0.2812
   92SAPC   O13 8817   2.020   4.023   7.628 -0.1820 -0.5806 -0.2036
   92SAPC   O14 8818   2.217   4.156   7.659  0.3992 -0.6915  0.0349
   92SAPC   O12 8819   2.200   3.950   7.789  0.1400 -0.0640 -0.1390
   92SAPC   O11 8820   2.232   3.932   7.550  0.1867 -0.6008  0.0869
   92SAPC    C1 8821   2.217   3.790   7.543  0.0857  0.3274  0.4813
   92SAPC    HA 8822   2.312   3.736   7.559 -1.2398 -2.7924 -1.2690
   92SAPC    HB 8823   2.146   3.748   7.618 -3.1586  2.1105 -1.3299
   92SAPC    C2 8824   2.190   3.748   7.397 -0.1950  0.8663  0.2207
   92SAPC    HS 8825   2.200   3.637   7.394 -1.5432  0.7129  0.9704
   92SAPC   O21 8826   2.281   3.809   7.309  0.2228 -0.5695  0.3173
   92SAPC   C21 8827   2.400   3.750   7.297  0.6510 -0.8560 -0.4816
   92SAPC   O22 8828   2.444   3.662   7.370 -0.8576 -0.7790 -0.1139
   92SAPC   C22 8829   2.460   3.813   7.171 -0.9002  0.5012  0.1081
   92SAPC   H2R 8830   2.454   3.923   7.176  0.0104  0.7076 -2.2560
   92SAPC   H2S 8831   2.568   3.786   7.173 -1.2971 -1.1760  0.6408
   92SAPC    C3 8832   2.042   3.779   7.346 -0.3578 -0.4500 -0.0041
   92SAPC    HX 8833   2.015   3.886   7.351 -2.6921 -1.0410  1.9964
   92SAPC    HY 8834   1.975   3.733   7.422 -1.4836 -0.2872 -0.8717
   92SAPC   O31 8835   2.012   3.707   7.217 -0.5484 -0.1363 -0.0569
   92SAPC   C31 8836   2.006   3.789   7.112  0.1945 -0.1708  0.1198
   92SAPC   O32 8837   2.038   3.907   7.116 -0.5081  0.2315  0.0602
   92SAPC   C32 8838   1.960   3.712   6.983  0.1040 -0.7481 -0.5667
   92SAPC   H2X 8839   1.861   3.756   6.959 -0.4052 -1.0782  0.7942
   92SAPC   H2Y 8840   1.937   3.608   7.014 -1.1687 -0.2606  0.2509
   92SAPC   C23 8841   2.403   3.754   7.041  1.0156  0.2900  0.3764
   92SAPC   H3R 8842   2.299   3.790   7.031  0.5108 -0.7037  1.8317
   92SAPC   H3S 8843   2.397   3.644   7.049  1.3314  0.2827  0.5332
   92SAPC   C24 8844   2.483   3.780   6.913 -0.6301 -0.3432 -0.1703
   92SAPC   H4R 8845   2.456   3.700   6.841 -0.2809 -1.0093  0.4368
   92SAPC   H4S 8846   2.590   3.768   6.941 -0.6087  1.3851  0.6095
   92SAPC   C25 8847   2.473   3.914   6.846  0.1241  0.0153  0.2143
   92SAPC   H5R 8848   2.477   4.002   6.913 -0.9235 -0.0616  0.3902
   92SAPC   C26 8849   2.446   3.929   6.713  0.1685  0.1002 -0.1952
   92SAPC   H6R 8850   2.444   4.028   6.665 -0.4325 -0.6598 -1.8088
   92SAPC   C27 8851   2.426   3.811   6.620 -0.0004 -0.6351 -1.0047
   92SAPC   H7R 8852   2.356   3.737   6.665  1.0618 -1.8582 -1.3190
   92SAPC   H7S 8853   2.516   3.748   6.629  0.4181  0.2170  1.2556
   92SAPC   C28 8854   2.377   3.850   6.484 -0.2689 -0.4151  0.4586
   92SAPC   H8R 8855   2.289   3.915   6.488  0.2171  0.4398 -1.6392
   92SAPC   C29 8856   2.432   3.816   6.365  0.3807 -0.6227  0.3796
   92SAPC   H9R 8857   2.387   3.859   6.275 -0.7642  0.9599  1.6497
   92SAPC  C210 8858   2.544   3.725   6.349  0.0248 -0.9939  0.2472
   92SAPC  H10R 8859   2.620   3.736   6.430  0.0370  1.7372 -0.0156
   92SAPC  H10S 8860   2.598   3.779   6.268 -1.2117  2.1577  1.3283
   92SAPC  C211 8861   2.520   3.577   6.327 -0.1196 -0.4933  0.1940
   92SAPC  H11R 8862   2.523   3.520   6.421  0.0787 -1.4178 -0.3563
   92SAPC  C212 8863   2.493   3.509   6.215  0.6401  0.8063  0.0215
   92SAPC  H12R 8864   2.466   3.402   6.224 -1.2473  1.3111  0.8011
   92SAPC  C213 8865   2.512   3.561   6.078 -0.0836  0.2619  0.0027
   92SAPC  H13R 8866   2.594   3.636   6.075  0.7348 -0.4745  2.0999
   92SAPC  H13S 8867   2.417   3.608   6.045 -0.4282 -1.4004 -1.5145
   92SAPC  C214 8868   2.549   3.448   5.988 -0.3782 -0.4530  0.5854
   92SAPC  H14R 8869   2.632   3.383   6.022  0.8384 -1.3551 -3.5559
   92SAPC  C215 8870   2.500   3.429   5.867 -0.1020  0.6419  0.3490
   92SAPC  H15R 8871   2.545   3.341   5.820  0.5356  0.6983  0.8294
   92SAPC  C216 8872   2.387   3.502   5.787 -0.0385  0.1021 -0.4094
   92SAPC  H16R 8873   2.328   3.572   5.850 -1.4003 -0.3253 -1.1644
   92SAPC  H16S 8874   2.321   3.417   5.757  0.6905 -0.3089 -0.8963
   92SAPC  C217 8875   2.428   3.579   5.662  0.0018  0.2944  0.1356
   92SAPC  H17R 8876   2.493   3.663   5.693  0.3516  0.1687 -0.2426
   92SAPC  H17S 8877   2.334   3.614   5.614 -0.1297 -2.2786 -1.7399
   92SAPC  C218 8878   2.489   3.479   5.552  0.3369  0.1683 -0.8326
   92SAPC  H18R 8879   2.570   3.420   5.601  0.7011  0.1528 -1.4513
   92SAPC  H18S 8880   2.536   3.538   5.471 -1.1652  2.3148 -0.2190
   92SAPC  C219 8881   2.384   3.386   5.487  0.2146  0.1303  0.1882
   92SAPC  H19R 8882   2.312   3.354   5.566 -0.4651  1.3143  0.0721
   92SAPC  H19S 8883   2.433   3.300   5.438 -0.7582  1.3164 -3.0818
   92SAPC  C220 8884   2.303   3.448   5.377 -0.3244  0.2464  0.5291
   92SAPC  H20R 8885   2.230   3.369   5.348  1.0338 -0.5226 -0.9671
   92SAPC  H20S 8886   2.365   3.467   5.286  1.8336 -1.6106  1.5461
   92SAPC  H20T 8887   2.259   3.548   5.401 -0.7964  1.0290 -2.9540
   92SAPC   C33 8888   2.057   3.717   6.868 -1.2766  0.9338  0.2092
   92SAPC   H3X 8889   2.151   3.672   6.907 -1.7139 -0.6726 -0.5156
   92SAPC   H3Y 8890   2.088   3.820   6.836  2.2522 -0.2395 -0.5965
   92SAPC   C34 8891   2.003   3.620   6.759  0.3907 -0.1884 -0.0763
   92SAPC   H4X 8892   1.902   3.661   6.739  0.3146  0.1174  0.8781
   92SAPC   H4Y 8893   1.988   3.515   6.790 -3.0873  0.5251  1.0962
   92SAPC   C35 8894   2.069   3.634   6.625 -0.1605  0.1902  0.6967
   92SAPC   H5X 8895   2.173   3.597   6.639  0.2636  2.0111  2.9467
   92SAPC   H5Y 8896   2.091   3.739   6.597  0.2132 -0.4025 -1.3597
   92SAPC   C36 8897   1.999   3.571   6.512  0.1823 -0.5586  0.0518
   92SAPC   H6X 8898   1.906   3.629   6.498  1.1850  0.8928 -1.0113
   92SAPC   H6Y 8899   1.970   3.468   6.540 -0.4509  0.0040  1.5788
   92SAPC   C37 8900   2.087   3.581   6.383 -0.1063  0.2268  0.0851
   92SAPC   H7X 8901   2.171   3.509   6.372  1.5659  2.3396 -1.9171
   92SAPC   H7Y 8902   2.146   3.674   6.393  0.7062 -0.4157  1.6574
   92SAPC   C38 8903   2.006   3.572   6.252 -0.0429  0.2327 -0.1962
   92SAPC   H8X 8904   1.923   3.646   6.253 -1.8242 -1.6524 -1.3284
   92SAPC   H8Y 8905   1.963   3.470   6.253  2.1310 -0.7983 -1.7398
   92SAPC   C39 8906   2.097   3.588   6.126 -1.2038 -0.0960 -0.0089
   92SAPC   H9X 8907   2.169   3.504   6.139  0.2024  0.6749 -2.2166
   92SAPC   H9Y 8908   2.153   3.683   6.143 -0.4812 -0.6941  1.0667
   92SAPC  C310 8909   2.041   3.590   5.985 -0.3768 -0.5789 -0.5470
   92SAPC  H10X 8910   2.000   3.489   5.960  0.5822 -1.2075  0.3312
   92SAPC  H10Y 8911   2.122   3.601   5.909  0.7418  0.9987  0.8005
   92SAPC  C311 8912   1.926   3.703   5.958 -1.0054 -0.1150 -0.4927
   92SAPC  H11X 8913   1.952   3.800   6.006  0.3755  0.1161 -1.6523
   92SAPC  H11Y 8914   1.843   3.659   6.018  0.6542 -1.9380  0.6121
   92SAPC  C312 8915   1.893   3.691   5.813  0.2422 -1.0529  0.0292
   92SAPC  H12X 8916   1.862   3.585   5.800  2.2326 -1.7309  0.3764
   92SAPC  H12Y 8917   1.987   3.693   5.754  0.7627 -0.8925  0.8531
   92SAPC  C313 8918   1.790   3.793   5.763 -0.7609 -0.5811 -0.7629
   92SAPC  H13X 8919   1.688   3.773   5.800 -1.0053 -1.4881 -1.8593
   92SAPC  H13Y 8920   1.781   3.775   5.653 -0.1546  1.2391 -1.1579
   92SAPC  C314 8921   1.828   3.939   5.795 -0.2393 -0.1933  0.2981
   92SAPC  H14X 8922   1.935   3.948   5.767 -0.1090 -2.7762 -0.2499
   92SAPC  H14Y 8923   1.831   3.967   5.903 -1.5855 -1.0814  0.5809
   92SAPC  C315 8924   1.753   4.045   5.705  0.3818  0.0205  0.2091
   92SAPC  H15X 8925   1.742   4.021   5.597  0.3515 -0.1645  0.2533
   92SAPC  H15Y 8926   1.812   4.139   5.704  1.5884 -0.7248 -0.2694
   92SAPC  C316 8927   1.615   4.068   5.772 -0.5294  0.0152  0.7385
   92SAPC  H16X 8928   1.644   4.098   5.875 -1.9001 -0.2128  1.2103
   92SAPC  H16Y 8929   1.559   3.972   5.763 -0.3503 -0.0085 -0.3116
   92SAPC  C317 8930   1.541   4.180   5.712  0.3220 -0.3471  0.6053
   92SAPC  H17X 8931   1.617   4.257   5.686 -1.1834  1.0896  0.3174
   92SAPC  H17Y 8932   1.487   4.235   5.792 -1.3319  1.5657 -1.6768
   92SAPC  C318 8933   1.453   4.152   5.591 -0.1326  0.0034  1.0153
   92SAPC  H18X 8934   1.508   4.082   5.524 -1.4959  0.3132 -0.4906
   92SAPC  H18Y 8935   1.428   4.239   5.526 -1.1279 -0.0096  1.3676
   92SAPC  H18Z 8936   1.360   4.105   5.628 -1.5392  1.5503 -0.3851
   93SAPC     N 8937   4.657   5.636   7.342 -0.1488  0.0559 -0.1218
   93SAPC   C12 8938   4.625   5.602   7.205 -0.1124 -0.0483  0.8760
   93SAPC  H12A 8939   4.689   5.658   7.138 -0.2649 -0.5396  0.3062
   93SAPC  H12B 8940   4.526   5.633   7.175 -0.0285 -1.2417 -0.8222
   93SAPC   C13 8941   4.548   5.599   7.434  0.1611  0.7997 -0.3300
   93SAPC  H13A 8942   4.535   5.492   7.424 -1.2193  0.7776  1.1732
   93SAPC  H13B 8943   4.569   5.620   7.538  1.3342 -1.4395 -0.0438
   93SAPC  H13C 8944   4.457   5.648   7.403  0.7456  1.3286 -1.2681
   93SAPC   C14 8945   4.783   5.563   7.384  0.0465  0.4504  0.3680
   93SAPC  H14A 8946   4.872   5.613   7.349  1.9826 -1.3217  2.4695
   93SAPC  H14B 8947   4.786   5.566   7.492  3.8829  1.2885  0.3794
   93SAPC  H14C 8948   4.773   5.457   7.367  0.7057  0.3717  0.4355
   93SAPC   C15 8949   4.675   5.785   7.359 -0.2833 -0.4174  0.2786
   93SAPC  H15A 8950   4.596   5.841   7.311  1.4362 -0.4687 -2.8788
   93SAPC  H15B 8951   4.677   5.816   7.462 -0.5688 -2.6785  1.0022
   93SAPC  H15C 8952   4.766   5.821   7.314 -1.0947  1.3410 -0.0604
   93SAPC   C11 8953   4.627   5.448   7.169  0.1237 -0.1644  0.1352
   93SAPC  H11A 8954   4.730   5.409   7.155 -0.4999 -1.8191 -0.0801
   93SAPC  H11B 8955   4.597   5.425   7.064 -0.7983  2.0671 -0.1424
   93SAPC     P 8956   4.395   5.344   7.240  0.2439 -0.0766 -0.0475
   93SAPC   O13 8957   4.368   5.209   7.183 -0.6891  0.3648  0.3299
   93SAPC   O14 8958   4.323   5.366   7.366 -0.9141 -0.1009 -0.2251
   93SAPC   O12 8959   4.552   5.363   7.261  0.1900 -0.0456  0.2677
   93SAPC   O11 8960   4.345   5.451   7.140  0.1011 -0.4428  0.4253
   93SAPC    C1 8961   4.237   5.432   7.050  0.2916  0.1424 -0.4851
   93SAPC    HA 8962   4.154   5.371   7.093  0.3010  0.1972 -0.3898
   93SAPC    HB 8963   4.204   5.536   7.028  0.8816  1.0454  2.4266
   93SAPC    C2 8964   4.285   5.361   6.919  0.7542 -0.1151  0.4323
   93SAPC    HS 8965   4.296   5.253   6.944 -1.2645 -0.4855 -0.1288
   93SAPC   O21 8966   4.411   5.418   6.873  0.0591  0.6469  0.4274
   93SAPC   C21 8967   4.495   5.329   6.819 -0.2838  0.5105  0.3323
   93SAPC   O22 8968   4.482   5.205   6.822  0.0847 -0.2586  0.8579
   93SAPC   C22 8969   4.623   5.404   6.780  0.0358 -0.6104 -0.3019
   93SAPC   H2R 8970   4.602   5.510   6.756 -2.4507 -1.0626 -0.3951
   93SAPC   H2S 8971   4.699   5.387   6.860 -0.5463  1.0029  0.6303
   93SAPC    C3 8972   4.175   5.378   6.808 -0.0241 -0.3732  0.5138
   93SAPC    HX 8973   4.155   5.486   6.788  0.5657 -0.1144  1.2774
   93SAPC    HY 8974   4.073   5.346   6.839 -0.1916  1.1566  1.6846
   93SAPC   O31 8975   4.207   5.315   6.676  0.0809 -0.1282 -0.2272
   93SAPC   C31 8976   4.192   5.181   6.680 -0.3908 -0.3762 -0.1645
   93SAPC   O32 8977   4.162   5.115   6.779 -0.2393 -0.4994 -0.2391
   93SAPC   C32 8978   4.197   5.119   6.541 -0.2588 -0.2825  0.3219
   93SAPC   H2X 8979   4.266   5.184   6.484  1.9142 -0.9863  1.9721
   93SAPC   H2Y 8980   4.094   5.132   6.503 -0.2041  2.0612  0.8646
   93SAPC   C23 8981   4.679   5.356   6.640 -0.1190 -0.4162 -0.3391
   93SAPC   H3R 8982   4.596   5.366   6.566 -1.3853  0.5251  1.1200
   93SAPC   H3S 8983   4.715   5.251   6.639 -1.8304 -1.0449 -0.0943
   93SAPC   C24 8984   4.792   5.442   6.584 -0.0336 -0.2206 -0.6303
   93SAPC   H4R 8985   4.756   5.546   6.600  0.5670 -0.0163 -0.5592
   93SAPC   H4S 8986   4.802   5.419   6.476  1.8433  1.7082 -0.9242
   93SAPC   C25 8987   4.917   5.413   6.671  0.3311 -0.2888 -0.0807
   93SAPC   H5R 8988   4.897   5.416   6.779 -0.0817  0.8214 -0.1742
   93SAPC   C26 8989   5.043   5.381   6.636  0.1948  0.2721 -0.4837
   93SAPC   H6R 8990   5.117   5.366   6.715  0.7863  0.1581 -1.0513
   93SAPC   C27 8991   5.095   5.358   6.493 -0.3050 -0.4925 -0.0663
   93SAPC   H7R 8992   5.046   5.439   6.434  0.1292  0.3218  0.6561
   93SAPC   H7S 8993   5.051   5.262   6.459  0.3526 -1.0547  0.6360
   93SAPC   C28 8994   5.250   5.373   6.491 -0.6206  0.3626  0.0944
   93SAPC   H8R 8995   5.310   5.330   6.573  2.3036  1.4308 -1.3395
   93SAPC   C29 8996   5.322   5.414   6.385  0.1475 -1.1962 -0.0834
   93SAPC   H9R 8997   5.431   5.405   6.379  0.0692 -2.4269  0.1667
   93SAPC  C210 8998   5.253   5.474   6.266 -0.0509  0.2777  0.2339
   93SAPC  H10R 8999   5.209   5.570   6.299  0.2590  0.6420 -0.3773
   93SAPC  H10S 9000   5.179   5.406   6.218  1.2904 -1.0247 -0.0705
   93SAPC  C211 9001   5.351   5.519   6.160 -0.5267  0.3914  0.2592
   93SAPC  H11R 9002   5.395   5.619   6.176  0.8278 -0.4348  2.0720
   93SAPC  C212 9003   5.386   5.465   6.042  0.1456  0.4309 -1.0063
   93SAPC  H12R 9004   5.464   5.519   5.986 -0.7621  1.9068 -0.8988
   93SAPC  C213 9005   5.331   5.335   5.995  0.1924  0.0579 -0.1823
   93SAPC  H13R 9006   5.220   5.322   6.002  0.2387 -0.6396 -0.6015
   93SAPC  H13S 9007   5.367   5.263   6.071 -0.5635 -0.1743 -0.0353
   93SAPC  C214 9008   5.377   5.301   5.848 -0.4433 -0.1674  0.1004
   93SAPC  H14R 9009   5.485   5.288   5.831 -0.7186 -0.0239 -1.9420
   93SAPC  C215 9010   5.308   5.287   5.742 -0.4087  0.1208 -0.0516
   93SAPC  H15R 9011   5.357   5.242   5.654 -0.8638 -0.7707  0.1406
   93SAPC  C216 9012   5.160   5.303   5.731  0.0996 -1.0006 -0.0815
   93SAPC  H16R 9013   5.145   5.384   5.657 -0.7714 -2.2721 -1.3454
   93SAPC  H16S 9014   5.118   5.338   5.828  2.7214  0.7372  0.5249
   93SAPC  C217 9015   5.074   5.189   5.673  0.1632  0.2742 -0.0832
   93SAPC  H17R 9016   4.967   5.221   5.675 -0.5817 -2.0492  0.9272
   93SAPC  H17S 9017   5.072   5.100   5.740  1.0238 -0.2223 -0.7024
   93SAPC  C218 9018   5.121   5.142   5.536 -0.9674 -0.1060 -0.1160
   93SAPC  H18R 9019   5.208   5.076   5.555 -2.2597 -1.2958  2.1909
   93SAPC  H18S 9020   5.139   5.233   5.475  1.9740  1.6312  3.0024
   93SAPC  C219 9021   5.013   5.048   5.475  0.2863  0.4099  0.5809
   93SAPC  H19R 9022   4.934   5.115   5.435  0.4395  0.6591  0.6924
   93SAPC  H19S 9023   4.969   4.995   5.562  1.0413 -1.2257  0.0024
   93SAPC  C220 9024   5.074   4.947   5.381 -0.4137 -0.6010  0.4467
   93SAPC  H20R 9025   4.997   4.879   5.339  0.6758 -0.3486 -2.1072
   93SAPC  H20S 9026   5.151   4.878   5.420  1.1225  0.2170 -1.0164
   93SAPC  H20T 9027   5.118   5.000   5.294  1.3491  0.3537  1.8650
   93SAPC   C33 9028   4.221   4.966   6.544 -0.5015  0.6699  0.6888
   93SAPC   H3X 9029   4.192   4.914   6.451  3.1882 -2.2676  0.9585
   93SAPC   H3Y 9030   4.159   4.920   6.624 -0.3080 -0.1428  0.3745
   93SAPC   C34 9031   4.373   4.945   6.546 -0.4205 -0.2016 -0.1380
   93SAPC   H4X 9032   4.382   4.835   6.561  1.5515  0.0491  0.7994
   93SAPC   H4Y 9033   4.402   4.996   6.640 -1.0000  0.6566 -0.4169
   93SAPC   C35 9034   4.444   4.986   6.416 -0.1068 -0.6766 -0.9891
   93SAPC   H5X 9035   4.434   5.096   6.403 -1.4633 -0.4688  1.2460
   93SAPC   H5Y 9036   4.399   4.939   6.326 -1.3610 -1.2184 -0.1141
   93SAPC   C36 9037   4.591   4.952   6.421 -0.9019 -0.6118  0.7119
   93SAPC   H6X 9038   4.589   4.843   6.401 -1.7117 -0.4775 -0.0155
   93SAPC   H6Y 9039   4.640   4.971   6.519  0.6488  1.8540 -0.4545
   93SAPC   C37 9040   4.679   5.021   6.306 -0.2118  0.0061 -0.4766
   93SAPC   H7X 9041   4.654   4.985   6.204  1.0092 -2.1822 -0.0717
   93SAPC   H7Y 9042   4.785   4.990   6.316 -0.4005 -0.0743  1.5690
   93SAPC   C38 9043   4.676   5.175   6.311  0.4402  0.0691  0.1359
   93SAPC   H8X 9044   4.725   5.210   6.404  2.4354 -0.0301 -0.8318
   93SAPC   H8Y 9045   4.572   5.214   6.309  0.1478 -0.5690  1.6281
   93SAPC   C39 9046   4.759   5.228   6.187 -0.4965  0.3664 -0.1185
   93SAPC   H9X 9047   4.727   5.174   6.095 -1.2254  3.4223 -1.7987
   93SAPC   H9Y 9048   4.864   5.192   6.193 -0.7658 -0.5286 -0.6168
   93SAPC  C310 9049   4.763   5.379   6.165  0.4049  0.1020  0.1115
   93SAPC  H10X 9050   4.782   5.424   6.264  1.7854 -0.3106  0.0615
   93SAPC  H10Y 9051   4.670   5.417   6.117 -0.3922 -3.2932 -1.3096
   93SAPC  C311 9052   4.883   5.425   6.075  0.3245 -0.8604 -0.0298
   93SAPC  H11X 9053   4.887   5.388   5.971  0.4023 -0.7078 -0.0822
   93SAPC  H11Y 9054   4.970   5.382   6.129  1.5316  0.1366 -1.1199
   93SAPC  C312 9055   4.873   5.578   6.077 -0.3859 -0.2094 -0.3130
   93SAPC  H12X 9056   4.879   5.613   6.182 -0.5588  1.1211 -0.7281
   93SAPC  H12Y 9057   4.768   5.601   6.048 -1.4547 -1.0507  2.5263
   93SAPC  C313 9058   4.978   5.641   5.985 -0.8927  0.3822  0.3180
   93SAPC  H13X 9059   4.950   5.620   5.880  1.2461  0.4162 -0.3036
   93SAPC  H13Y 9060   5.066   5.575   5.999  0.5983  2.2532  0.2280
   93SAPC  C314 9061   5.032   5.788   5.998  0.9678 -0.4391 -0.3713
   93SAPC  H14X 9062   5.087   5.783   6.094  0.1611 -2.7300  0.0217
   93SAPC  H14Y 9063   4.961   5.873   5.990  2.0744  0.3354 -3.8620
   93SAPC  C315 9064   5.147   5.818   5.897 -0.3219 -0.3073  0.1050
   93SAPC  H15X 9065   5.216   5.731   5.900 -0.2419 -0.2389  2.5448
   93SAPC  H15Y 9066   5.220   5.894   5.933  2.6694 -3.2281  0.6409
   93SAPC  C316 9067   5.101   5.853   5.759 -0.7654 -0.1758  0.2125
   93SAPC  H16X 9068   5.064   5.957   5.764 -0.1170  0.1136 -0.7373
   93SAPC  H16Y 9069   5.018   5.785   5.728  0.2216 -1.2765 -0.1052
   93SAPC  C317 9070   5.213   5.844   5.651  0.4230  0.3006  0.5443
   93SAPC  H17X 9071   5.302   5.904   5.681 -0.1366  1.6348 -0.3510
   93SAPC  H17Y 9072   5.172   5.897   5.563  1.4247 -0.9183 -0.6896
   93SAPC  C318 9073   5.244   5.692   5.616  0.8154 -0.3038 -0.2155
   93SAPC  H18X 9074   5.150   5.641   5.588  0.1464  0.1940  1.0129
   93SAPC  H18Y 9075   5.284   5.641   5.706  0.0113  0.5156  0.6382
   93SAPC  H18Z 9076   5.313   5.703   5.530  0.5590  0.7324 -0.3083
   94SAPC     N 9077   1.726   2.341   7.336  0.2074  0.7227  0.0733
   94SAPC   C12 9078   1.768   2.364   7.193 -0.7780 -0.5851 -0.8255
   94SAPC  H12A 9079   1.746   2.466   7.165 -1.1977 -0.4468 -0.0090
   94SAPC  H12B 9080   1.720   2.303   7.119  2.5511 -1.4549 -2.4881
   94SAPC   C13 9081   1.774   2.207   7.385  0.7330 -0.1914  0.0477
   94SAPC  H13A 9082   1.745   2.196   7.489 -1.4525  0.9259 -0.3814
   94SAPC  H13B 9083   1.734   2.128   7.323 -1.4951  2.2645 -1.8761
   94SAPC  H13C 9084   1.881   2.213   7.378  0.6338 -0.2512 -1.8278
   94SAPC   C14 9085   1.787   2.450   7.423 -0.0788  0.0396 -0.5810
   94SAPC  H14A 9086   1.894   2.442   7.431 -0.0689  1.0226  0.4707
   94SAPC  H14B 9087   1.760   2.547   7.381  1.8293  1.5507  1.4694
   94SAPC  H14C 9088   1.751   2.442   7.524  1.2660  1.1654  0.0212
   94SAPC   C15 9089   1.573   2.340   7.340 -0.8671 -0.2181 -0.6303
   94SAPC  H15A 9090   1.523   2.252   7.303 -2.0699 -0.5167  1.5284
   94SAPC  H15B 9091   1.540   2.359   7.441 -0.3277  1.9514 -0.8016
   94SAPC  H15C 9092   1.531   2.420   7.280 -1.9619 -1.5179 -1.6346
   94SAPC   C11 9093   1.920   2.350   7.161  0.3548  0.4665  0.3352
   94SAPC  H11A 9094   1.936   2.376   7.054  2.3636 -1.5943  0.0406
   94SAPC  H11B 9095   1.940   2.241   7.167 -0.7846  0.3033  1.9650
   94SAPC     P 9096   2.060   2.564   7.246 -0.5167 -0.3241 -0.3058
   94SAPC   O13 9097   2.038   2.631   7.374  0.1051 -0.7309 -0.3676
   94SAPC   O14 9098   2.204   2.551   7.203 -0.2838 -0.2770 -0.9956
   94SAPC   O12 9099   2.005   2.414   7.255  0.1586 -0.2054 -0.0745
   94SAPC   O11 9100   1.973   2.625   7.134  0.6658  0.1097  0.3111
   94SAPC    C1 9101   2.006   2.749   7.072 -0.1191 -0.1564 -0.4589
   94SAPC    HA 9102   1.941   2.830   7.110  1.6671  1.1258  0.0003
   94SAPC    HB 9103   2.107   2.793   7.089  0.1395 -0.5692 -0.8871
   94SAPC    C2 9104   1.980   2.729   6.920  0.2873 -0.1955 -0.7300
   94SAPC    HS 9105   1.884   2.676   6.903 -1.0244  1.3949  1.2036
   94SAPC   O21 9106   2.084   2.643   6.873 -0.4646  0.2276  0.2410
   94SAPC   C21 9107   2.066   2.527   6.824  0.3011 -0.2216  0.1277
   94SAPC   O22 9108   1.962   2.461   6.818 -0.0384  0.2780  0.6474
   94SAPC   C22 9109   2.192   2.489   6.749 -0.3691 -0.3855 -0.1941
   94SAPC   H2R 9110   2.237   2.586   6.720 -0.8279 -0.0067  0.3299
   94SAPC   H2S 9111   2.257   2.457   6.834  0.2948  0.5540 -0.3327
   94SAPC    C3 9112   1.969   2.851   6.829 -0.2187 -0.0793  0.4087
   94SAPC    HX 9113   2.062   2.911   6.830  0.1031 -0.5731  0.7832
   94SAPC    HY 9114   1.893   2.917   6.876 -1.0393 -1.3412  0.8986
   94SAPC   O31 9115   1.934   2.805   6.693 -0.6587  0.3671 -0.2367
   94SAPC   C31 9116   1.806   2.781   6.674  0.8718 -0.4032  0.6561
   94SAPC   O32 9117   1.719   2.809   6.754 -0.7164  0.1275 -0.4066
   94SAPC   C32 9118   1.792   2.716   6.540 -0.2551 -0.5282 -0.0773
   94SAPC   H2X 9119   1.841   2.617   6.543  0.1266 -0.3449 -0.2440
   94SAPC   H2Y 9120   1.853   2.787   6.480 -1.6888  0.6178 -0.2357
   94SAPC   C23 9121   2.195   2.390   6.638  0.2768 -0.6305  0.3790
   94SAPC   H3R 9122   2.150   2.294   6.674 -1.2925 -0.3215 -0.6422
   94SAPC   H3S 9123   2.305   2.393   6.624  0.4744 -0.2931  1.8855
   94SAPC   C24 9124   2.112   2.444   6.521  0.9343  0.3160  0.0715
   94SAPC   H4R 9125   2.141   2.546   6.491  0.8529  0.2762 -0.1481
   94SAPC   H4S 9126   2.005   2.435   6.551  0.2134 -0.6913 -2.5171
   94SAPC   C25 9127   2.133   2.364   6.397 -1.0351 -0.6829 -0.1354
   94SAPC   H5R 9128   2.214   2.391   6.327 -1.9731 -0.0686 -1.0071
   94SAPC   C26 9129   2.073   2.251   6.359 -0.3248  0.7313 -0.1855
   94SAPC   H6R 9130   2.096   2.213   6.258  1.1627  2.2207 -0.4316
   94SAPC   C27 9131   1.976   2.170   6.448 -0.4064 -0.1146 -1.0278
   94SAPC   H7R 9132   1.875   2.176   6.401 -1.4590  1.0520  1.2220
   94SAPC   H7S 9133   1.964   2.218   6.547 -1.8967 -1.4119 -0.5380
   94SAPC   C28 9134   2.015   2.027   6.465  0.1059 -0.1702  0.0049
   94SAPC   H8R 9135   2.088   2.008   6.545  1.6379 -0.1981 -1.3255
   94SAPC   C29 9136   1.964   1.917   6.400 -0.0373  0.6197  0.2745
   94SAPC   H9R 9137   1.992   1.817   6.437  0.9636  0.3985 -1.0318
   94SAPC  C210 9138   1.874   1.918   6.280  0.3589 -0.0641 -0.9810
   94SAPC  H10R 9139   1.838   2.022   6.262 -2.0333 -0.6481 -0.0315
   94SAPC  H10S 9140   1.788   1.850   6.297  0.2974  0.4437  1.0438
   94SAPC  C211 9141   1.950   1.886   6.149  0.2106  0.6030  0.1331
   94SAPC  H11R 9142   2.053   1.849   6.160 -0.3099 -1.6259 -1.6358
   94SAPC  C212 9143   1.896   1.879   6.030 -0.0012  0.2736 -0.0822
   94SAPC  H12R 9144   1.962   1.878   5.942 -0.1399  0.5153 -0.1901
   94SAPC  C213 9145   1.752   1.908   5.985  0.3840  0.0163  0.0609
   94SAPC  H13R 9146   1.719   1.971   6.070  1.2700 -2.3938  2.3641
   94SAPC  H13S 9147   1.687   1.819   6.001  0.1716  0.0975 -0.3563
   94SAPC  C214 9148   1.722   1.972   5.850 -0.4196 -0.7670  0.4922
   94SAPC  H14R 9149   1.663   2.065   5.850  1.4091  0.4897 -1.2614
   94SAPC  C215 9150   1.766   1.943   5.729 -0.5005  0.6283  0.5622
   94SAPC  H15R 9151   1.737   2.004   5.642  0.0693  0.2640  0.1097
   94SAPC  C216 9152   1.847   1.822   5.687 -0.3164 -0.0967  0.4455
   94SAPC  H16R 9153   1.822   1.733   5.750 -0.7515 -1.0733 -1.0470
   94SAPC  H16S 9154   1.953   1.843   5.710  0.8111 -2.8177 -1.6895
   94SAPC  C217 9155   1.823   1.783   5.545 -0.1366 -0.1435  0.7164
   94SAPC  H17R 9156   1.719   1.745   5.536 -0.0365 -1.1657  3.0203
   94SAPC  H17S 9157   1.888   1.694   5.528 -1.6520 -0.7847 -2.5264
   94SAPC  C218 9158   1.859   1.882   5.435  0.3083 -0.8250  0.1615
   94SAPC  H18R 9159   1.962   1.918   5.458 -0.0894  0.0648  0.6104
   94SAPC  H18S 9160   1.792   1.971   5.433  1.6395  0.2644 -3.1510
   94SAPC  C219 9161   1.844   1.833   5.290  0.2570  0.1515  0.5740
   94SAPC  H19R 9162   1.910   1.747   5.267 -1.2547 -1.0048  0.4156
   94SAPC  H19S 9163   1.879   1.914   5.223 -1.7603  0.3011 -0.3792
   94SAPC  C220 9164   1.697   1.808   5.242 -1.2418  0.3645 -0.2520
   94SAPC  H20R 9165   1.705   1.753   5.146  1.4460  0.4342 -0.1502
   94SAPC  H20S 9166   1.645   1.905   5.223  0.8079  1.2425 -1.8428
   94SAPC  H20T 9167   1.639   1.748   5.315  0.1383 -0.2318  0.3906
   94SAPC   C33 9168   1.643   2.716   6.495  0.5576 -0.4151  0.7520
   94SAPC   H3X 9169   1.606   2.818   6.472 -1.9043 -1.4721 -0.3835
   94SAPC   H3Y 9170   1.571   2.688   6.575 -2.7364  2.6886 -0.8194
   94SAPC   C34 9171   1.599   2.629   6.377 -0.3335  0.2834 -0.6739
   94SAPC   H4X 9172   1.494   2.594   6.378 -0.1280 -0.4493  1.4804
   94SAPC   H4Y 9173   1.657   2.534   6.378 -0.1200  0.3888  1.0769
   94SAPC   C35 9174   1.635   2.702   6.245 -0.1022  0.3929 -0.8382
   94SAPC   H5X 9175   1.736   2.744   6.259 -0.4305  0.7826  0.5285
   94SAPC   H5Y 9176   1.564   2.786   6.227 -2.0257 -1.0421 -0.3706
   94SAPC   C36 9177   1.639   2.603   6.125 -0.1585 -0.1430 -0.4970
   94SAPC   H6X 9178   1.545   2.544   6.126 -1.0996  1.2256 -2.5828
   94SAPC   H6Y 9179   1.728   2.537   6.123 -0.6167 -0.7917 -0.0518
   94SAPC   C37 9180   1.628   2.678   5.992 -0.2233 -0.1118  0.5357
   94SAPC   H7X 9181   1.560   2.766   6.001 -0.8066 -0.5331  0.3046
   94SAPC   H7Y 9182   1.584   2.614   5.914  0.6369  0.7182 -0.6684
   94SAPC   C38 9183   1.763   2.733   5.940  0.2153 -0.2616  0.0924
   94SAPC   H8X 9184   1.833   2.650   5.962  0.2087 -0.0607  0.9175
   94SAPC   H8Y 9185   1.793   2.823   5.998  1.7713  0.4845 -1.7546
   94SAPC   C39 9186   1.765   2.762   5.794  0.0721 -0.0573 -0.2196
   94SAPC   H9X 9187   1.710   2.856   5.772  1.5304  0.2897 -2.7933
   94SAPC   H9Y 9188   1.707   2.681   5.744 -0.0403  0.7290 -1.3937
   94SAPC  C310 9189   1.914   2.763   5.742 -0.1199 -0.1989 -0.0621
   94SAPC  H10X 9190   1.962   2.667   5.768 -0.9958 -0.7633 -0.4503
   94SAPC  H10Y 9191   1.973   2.850   5.778 -2.6073  1.7664 -0.3825
   94SAPC  C311 9192   1.925   2.758   5.589 -0.2365  0.0168  0.6315
   94SAPC  H11X 9193   1.842   2.704   5.539 -2.4165  2.4562  1.3840
   94SAPC  H11Y 9194   2.020   2.712   5.553 -1.2390 -1.1118 -0.6803
   94SAPC  C312 9195   1.910   2.900   5.541 -0.8879 -0.1647  0.0561
   94SAPC  H12X 9196   1.989   2.967   5.581 -0.3036 -0.7263 -0.1375
   94SAPC  H12Y 9197   1.805   2.921   5.572 -1.6871 -2.3136 -1.0114
   94SAPC  C313 9198   1.921   2.914   5.393  0.1003  0.0760  0.0259
   94SAPC  H13X 9199   1.859   2.848   5.329 -0.8954  1.7748 -0.8540
   94SAPC  H13Y 9200   2.024   2.882   5.366 -0.1586 -1.3551  0.6524
   94SAPC  C314 9201   1.905   3.066   5.358  0.4289 -0.2611  0.5269
   94SAPC  H14X 9202   1.995   3.116   5.397  0.7205  1.3418 -1.9786
   94SAPC  H14Y 9203   1.812   3.104   5.407  0.4216  3.0799 -1.7835
   94SAPC  C315 9204   1.902   3.106   5.206 -0.5516 -0.4932 -0.4211
   94SAPC  H15X 9205   1.797   3.118   5.171 -0.0873  2.5926 -1.0162
   94SAPC  H15Y 9206   1.943   3.019   5.151  1.5164 -0.1231  0.4708
   94SAPC  C316 9207   1.965   3.239   5.185 -0.2294  0.0453  0.0161
   94SAPC  H16X 9208   2.069   3.240   5.224  0.3181  0.7173 -1.3957
   94SAPC  H16Y 9209   1.909   3.319   5.240 -0.9682 -1.2831  1.2893
   94SAPC  C317 9210   1.982   3.292   5.036  0.5855  0.1673  0.1121
   94SAPC  H17X 9211   2.031   3.391   5.044 -0.3274  0.6442 -0.1041
   94SAPC  H17Y 9212   1.880   3.314   4.997  0.8615  0.6528 -0.3519
   94SAPC  C318 9213   2.047   3.198   4.930 -0.4135  0.1100  0.3572
   94SAPC  H18X 9214   1.966   3.130   4.897 -0.7343 -0.2864  1.8827
   94SAPC  H18Y 9215   2.132   3.136   4.966  2.1369  1.5134 -2.7350
   94SAPC  H18Z 9216   2.082   3.257   4.842  0.6528  0.7178  1.1529
   95SAPC     N 9217   3.018   5.503   2.586  0.2756  0.1651 -0.8408
   95SAPC   C12 9218   3.038   5.505   2.737 -0.3770 -0.1094 -0.1711
   95SAPC  H12A 9219   3.121   5.571   2.758  0.7866 -0.7985 -2.3036
   95SAPC  H12B 9220   3.063   5.405   2.769  0.3665 -0.7854 -2.6242
   95SAPC   C13 9221   3.142   5.446   2.526 -0.6839 -0.0288 -0.6298
   95SAPC  H13A 9222   3.148   5.339   2.540  2.8245 -0.0782 -1.5578
   95SAPC  H13B 9223   3.144   5.466   2.420  1.7016 -0.4844 -0.7353
   95SAPC  H13C 9224   3.232   5.492   2.565 -0.5126  0.6591 -1.8042
   95SAPC   C14 9225   2.904   5.414   2.542  0.2676 -0.1556 -0.0902
   95SAPC  H14A 9226   2.810   5.458   2.572  0.8636 -0.5046  2.5187
   95SAPC  H14B 9227   2.900   5.417   2.434 -0.0853  0.5852 -0.0692
   95SAPC  H14C 9228   2.917   5.312   2.574 -2.2715 -0.7723 -0.7229
   95SAPC   C15 9229   3.003   5.641   2.537  0.6047 -0.4792 -0.3861
   95SAPC  H15A 9230   2.960   5.709   2.609 -1.3249  0.9575 -2.7102
   95SAPC  H15B 9231   3.101   5.687   2.527  0.4589 -0.1010 -0.0709
   95SAPC  H15C 9232   2.938   5.653   2.452  0.0772  1.3380  0.2358
   95SAPC   C11 9233   2.914   5.546   2.823 -0.6567  0.0688 -0.4070
   95SAPC  H11A 9234   2.934   5.516   2.928  0.7431  0.7968 -0.4380
   95SAPC  H11B 9235   2.822   5.489   2.801 -1.0109 -0.5802  2.3824
   95SAPC     P 9236   2.956   5.790   2.900  0.4157 -0.0893  0.2768
   95SAPC   O13 9237   3.095   5.787   2.849  0.6541  0.0363  0.3009
   95SAPC   O14 9238   2.885   5.918   2.901  0.6223  0.0858  0.0092
   95SAPC   O12 9239   2.871   5.681   2.816  0.2033  0.0733 -0.6258
   95SAPC   O11 9240   2.960   5.734   3.047  0.0897  0.2759 -0.4839
   95SAPC    C1 9241   2.835   5.690   3.109 -0.1739  0.5091  0.1787
   95SAPC    HA 9242   2.759   5.649   3.039 -0.1141  1.5221 -0.5103
   95SAPC    HB 9243   2.859   5.618   3.190  0.2110 -1.2707 -1.4499
   95SAPC    C2 9244   2.748   5.799   3.182  0.7178 -0.5955  0.0579
   95SAPC    HS 9245   2.714   5.866   3.100  0.8719 -2.1633 -1.3359
   95SAPC   O21 9246   2.826   5.866   3.278 -0.4259  0.3466 -0.0116
   95SAPC   C21 9247   2.775   5.984   3.321  0.1724 -0.0688  0.8292
   95SAPC   O22 9248   2.674   6.042   3.279 -0.0547  0.7528  0.7563
   95SAPC   C22 9249   2.875   6.042   3.418 -0.0431 -0.3384  0.3242
   95SAPC   H2R 9250   2.973   5.992   3.404  0.1670  0.5169 -1.7095
   95SAPC   H2S 9251   2.892   6.144   3.375  1.5346  0.1403  1.9475
   95SAPC    C3 9252   2.631   5.732   3.255 -0.2916  0.0413 -0.9327
   95SAPC    HX 9253   2.570   5.679   3.178 -0.7146  0.6485 -1.0158
   95SAPC    HY 9254   2.561   5.811   3.290 -0.2556 -0.0952 -0.5421
   95SAPC   O31 9255   2.670   5.642   3.358  0.6070  0.3997  0.2279
   95SAPC   C31 9256   2.640   5.686   3.485 -0.2984 -0.5593  0.3991
   95SAPC   O32 9257   2.605   5.799   3.516  0.0619 -0.3216  0.4902
   95SAPC   C32 9258   2.678   5.574   3.574  0.0510  0.1498 -0.4204
   95SAPC   H2X 9259   2.786   5.564   3.555 -0.1256 -0.5237 -1.0989
   95SAPC   H2Y 9260   2.629   5.479   3.544  0.1730  0.5068 -1.8367
   95SAPC   C23 9261   2.825   6.061   3.563 -0.1032  0.1700 -0.1457
   95SAPC   H3R 9262   2.841   5.967   3.621 -1.5283 -0.7517 -1.1624
   95SAPC   H3S 9263   2.719   6.087   3.582  0.1401  1.5468 -0.5802
   95SAPC   C24 9264   2.901   6.176   3.643 -0.5292  0.2802  0.1025
   95SAPC   H4R 9265   2.860   6.156   3.744 -1.4211 -2.2979 -0.6971
   95SAPC   H4S 9266   2.870   6.278   3.612  0.4659  0.3398 -0.7860
   95SAPC   C25 9267   3.054   6.157   3.637  0.3598  0.3499  0.4450
   95SAPC   H5R 9268   3.077   6.073   3.570 -1.1092 -1.5399  2.1640
   95SAPC   C26 9269   3.139   6.195   3.737  0.4161  0.4813  0.4350
   95SAPC   H6R 9270   3.244   6.163   3.745  0.1454 -0.2239  1.3005
   95SAPC   C27 9271   3.092   6.282   3.854 -0.4841  0.1475  0.1356
   95SAPC   H7R 9272   3.033   6.212   3.917 -1.7529  0.7929 -0.3108
   95SAPC   H7S 9273   3.026   6.361   3.811 -0.7844 -0.7038 -1.0175
   95SAPC   C28 9274   3.204   6.342   3.940 -0.6684  0.8551  1.2671
   95SAPC   H8R 9275   3.304   6.332   3.895 -1.1601 -2.8357  0.6418
   95SAPC   C29 9276   3.205   6.385   4.063  0.2376  0.6887 -0.0411
   95SAPC   H9R 9277   3.300   6.417   4.109  0.7237 -1.6343  0.7335
   95SAPC  C210 9278   3.097   6.393   4.158  1.1962  0.1531 -0.2348
   95SAPC  H10R 9279   3.002   6.354   4.116  1.5068  1.0660 -1.8545
   95SAPC  H10S 9280   3.079   6.499   4.189 -1.1691 -0.5850  1.1857
   95SAPC  C211 9281   3.130   6.310   4.286 -0.0447 -0.1138  0.3691
   95SAPC  H11R 9282   3.170   6.362   4.374  0.3815 -0.3335  0.3073
   95SAPC  C212 9283   3.097   6.176   4.304  0.2812 -0.2954 -0.5131
   95SAPC  H12R 9284   3.146   6.127   4.389 -0.3636  0.3122  0.2157
   95SAPC  C213 9285   3.033   6.087   4.201  1.0838 -0.2875  0.4433
   95SAPC  H13R 9286   3.073   6.116   4.102  1.1652  1.4572  0.9615
   95SAPC  H13S 9287   2.924   6.104   4.206  1.2199  0.6880  0.1985
   95SAPC  C214 9288   3.057   5.939   4.220  0.5253 -0.0173 -0.9050
   95SAPC  H14R 9289   3.067   5.919   4.328 -0.2045  1.2266 -0.5809
   95SAPC  C215 9290   3.082   5.843   4.136  0.1786  0.0285 -0.2073
   95SAPC  H15R 9291   3.102   5.741   4.174  1.7348  1.1565  2.3273
   95SAPC  C216 9292   3.078   5.848   3.983 -0.2139 -0.0939  0.2732
   95SAPC  H16R 9293   3.095   5.953   3.952  0.3854  1.4273  4.9754
   95SAPC  H16S 9294   2.973   5.839   3.947  0.0233  1.1177 -0.7985
   95SAPC  C217 9295   3.176   5.755   3.910 -0.0751 -0.5814  0.0922
   95SAPC  H17R 9296   3.152   5.651   3.944 -0.1717  0.4976  3.8006
   95SAPC  H17S 9297   3.279   5.773   3.949 -0.0098 -1.0685  0.1590
   95SAPC  C218 9298   3.190   5.775   3.760  0.0376  0.3694 -0.0856
   95SAPC  H18R 9299   3.275   5.711   3.727 -0.0405 -0.0417  0.4986
   95SAPC  H18S 9300   3.218   5.877   3.728 -2.7193  0.8296 -1.2940
   95SAPC  C219 9301   3.070   5.722   3.692  0.1338 -0.9070  0.4878
   95SAPC  H19R 9302   2.978   5.771   3.730  0.0260 -0.2944 -0.5499
   95SAPC  H19S 9303   3.062   5.611   3.702  1.5973 -1.1160 -0.3813
   95SAPC  C220 9304   3.074   5.738   3.541 -0.1574 -0.3927  0.0549
   95SAPC  H20R 9305   3.103   5.841   3.512 -2.0655  0.7317  1.8035
   95SAPC  H20S 9306   2.976   5.725   3.490  0.6112 -1.1489 -1.2862
   95SAPC  H20T 9307   3.135   5.659   3.493 -0.5870 -1.3584  1.0427
   95SAPC   C33 9308   2.645   5.616   3.721 -0.1757 -0.1650  0.4118
   95SAPC   H3X 9309   2.535   5.606   3.730 -0.2617 -3.7745 -2.2717
   95SAPC   H3Y 9310   2.674   5.720   3.748  0.5184 -0.5776  1.3105
   95SAPC   C34 9311   2.712   5.516   3.821  0.2171 -0.6963  0.0130
   95SAPC   H4X 9312   2.821   5.534   3.816 -0.0545  1.7276  1.2682
   95SAPC   H4Y 9313   2.686   5.410   3.799  2.3809 -0.8013 -2.5654
   95SAPC   C35 9314   2.677   5.538   3.975  0.4962  0.7282  0.6037
   95SAPC   H5X 9315   2.566   5.540   3.972  0.4629 -0.5218  0.4394
   95SAPC   H5Y 9316   2.717   5.639   3.999 -0.5548  2.1921 -3.2554
   95SAPC   C36 9317   2.711   5.418   4.066 -0.2747  0.7331 -0.3538
   95SAPC   H6X 9318   2.814   5.387   4.039 -0.4465 -1.1374  0.9012
   95SAPC   H6Y 9319   2.634   5.344   4.035  0.9415 -0.6762 -0.1281
   95SAPC   C37 9320   2.695   5.439   4.215  0.3168  0.3372  0.3252
   95SAPC   H7X 9321   2.698   5.348   4.280  3.8036  0.3310  0.3198
   95SAPC   H7Y 9322   2.599   5.491   4.235  0.5852 -0.3300  4.1230
   95SAPC   C38 9323   2.814   5.528   4.266  0.7690 -0.4683 -0.0812
   95SAPC   H8X 9324   2.786   5.633   4.240  2.6213 -0.1910 -1.1280
   95SAPC   H8Y 9325   2.907   5.506   4.210  2.1434  0.7730  1.5855
   95SAPC   C39 9326   2.811   5.529   4.419  0.7315  0.6311 -0.6018
   95SAPC   H9X 9327   2.808   5.427   4.463 -0.2284  0.2457 -1.5230
   95SAPC   H9Y 9328   2.718   5.584   4.442  0.1671 -0.4636 -0.1845
   95SAPC  C310 9329   2.922   5.608   4.488  0.0689  0.4223  0.1015
   95SAPC  H10X 9330   2.926   5.711   4.447  0.6701  0.5704  0.5154
   95SAPC  H10Y 9331   3.017   5.563   4.451 -0.2269  1.8734 -2.7198
   95SAPC  C311 9332   2.922   5.603   4.641  0.1998  0.7869  0.1356
   95SAPC  H11X 9333   3.012   5.656   4.679  1.1796 -1.0885  0.5332
   95SAPC  H11Y 9334   2.923   5.497   4.675  2.7113  0.4970 -0.6429
   95SAPC  C312 9335   2.814   5.680   4.703 -0.2920  0.2967 -0.1100
   95SAPC  H12X 9336   2.723   5.616   4.705 -1.2004  1.5589  1.0721
   95SAPC  H12Y 9337   2.803   5.770   4.638  1.8102  0.4769 -0.2809
   95SAPC  C313 9338   2.836   5.731   4.845 -0.0412  0.4655  0.4355
   95SAPC  H13X 9339   2.926   5.795   4.842  0.9101 -0.8478 -0.3428
   95SAPC  H13Y 9340   2.870   5.649   4.911 -0.9249  0.3440  0.7474
   95SAPC  C314 9341   2.720   5.814   4.894 -0.2862 -0.2991 -0.3712
   95SAPC  H14X 9342   2.620   5.765   4.894 -0.5278 -0.0176  2.7051
   95SAPC  H14Y 9343   2.725   5.915   4.847  0.0775  0.1456  0.5944
   95SAPC  C315 9344   2.742   5.842   5.047 -0.2335 -0.5398 -0.6672
   95SAPC  H15X 9345   2.741   5.741   5.092 -1.3116 -0.5913 -0.7623
   95SAPC  H15Y 9346   2.657   5.906   5.080  0.4877 -0.8525  1.9924
   95SAPC  C316 9347   2.877   5.914   5.074  0.1522  0.1608 -0.5543
   95SAPC  H16X 9348   2.886   6.011   5.020  0.8450  0.4148  0.0041
   95SAPC  H16Y 9349   2.961   5.850   5.040  0.0307 -1.2455  1.5763
   95SAPC  C317 9350   2.900   5.914   5.224 -0.1420  0.6663 -0.9015
   95SAPC  H17X 9351   2.906   5.805   5.247  1.0798  0.3844 -2.3817
   95SAPC  H17Y 9352   2.821   5.961   5.286  0.7100  1.0229 -0.0466
   95SAPC  C318 9353   3.033   5.970   5.268 -0.8894  1.0104  0.2881
   95SAPC  H18X 9354   3.037   6.081   5.271 -0.7950  1.0192 -0.1763
   95SAPC  H18Y 9355   3.110   5.943   5.193  0.3156  1.6437  1.2432
   95SAPC  H18Z 9356   3.067   5.936   5.368  0.1085 -1.7982 -0.9179
   96SAPC     N 9357   4.060   0.584   2.468 -0.0965 -0.0126  0.5751
   96SAPC   C12 9358   4.108   0.641   2.600  0.4568 -0.3924  0.1712
   96SAPC  H12A 9359   4.074   0.742   2.616 -1.3412 -1.0955  1.0610
   96SAPC  H12B 9360   4.214   0.662   2.596  1.0400 -3.0998 -0.7071
   96SAPC   C13 9361   4.133   0.454   2.445  0.2752  0.2335  0.5335
   96SAPC  H13A 9362   4.109   0.405   2.351  0.8703  0.3948  0.2916
   96SAPC  H13B 9363   4.239   0.475   2.444  0.6583 -1.5333 -0.4863
   96SAPC  H13C 9364   4.111   0.388   2.527 -2.6521 -1.8174 -1.6721
   96SAPC   C14 9365   3.913   0.562   2.462 -0.2104 -0.0724  0.2934
   96SAPC  H14A 9366   3.850   0.650   2.458 -2.0248 -1.3292  0.2279
   96SAPC  H14B 9367   3.887   0.520   2.366 -0.1192  1.5824 -0.4944
   96SAPC  H14C 9368   3.881   0.507   2.550 -1.2175 -1.5434 -0.9471
   96SAPC   C15 9369   4.102   0.662   2.349 -0.6572  0.2745 -0.1308
   96SAPC  H15A 9370   4.204   0.697   2.355 -1.3488  2.2606  1.2865
   96SAPC  H15B 9371   4.084   0.602   2.261  1.1205 -1.0528  0.3539
   96SAPC  H15C 9372   4.050   0.757   2.343  0.9087  1.0874 -1.4480
   96SAPC   C11 9373   4.101   0.554   2.732  0.0907  0.2422 -0.9135
   96SAPC  H11A 9374   4.122   0.614   2.823 -0.6701 -3.0131  1.5944
   96SAPC  H11B 9375   4.180   0.477   2.724 -0.8315 -0.6754 -1.3911
   96SAPC     P 9376   3.957   0.334   2.762  0.2748 -0.6043  0.1882
   96SAPC   O13 9377   3.818   0.302   2.735 -0.0358 -0.3219 -0.3264
   96SAPC   O14 9378   4.053   0.264   2.682 -0.6474  0.0981  0.0737
   96SAPC   O12 9379   3.979   0.490   2.741 -0.6433 -0.3211  0.1101
   96SAPC   O11 9380   4.001   0.311   2.906  0.2641 -0.3067 -0.0655
   96SAPC    C1 9381   3.983   0.412   3.005  0.1542 -0.5566 -0.0907
   96SAPC    HA 9382   4.075   0.472   3.019 -0.3333 -0.0906  1.2873
   96SAPC    HB 9383   3.902   0.481   2.972  1.1387 -0.3296 -2.2002
   96SAPC    C2 9384   3.940   0.359   3.142  0.0248  0.1144  0.2681
   96SAPC    HS 9385   3.930   0.453   3.200  0.9487  0.2699  0.1859
   96SAPC   O21 9386   4.038   0.269   3.194 -0.9671 -0.5496  0.2931
   96SAPC   C21 9387   4.140   0.332   3.243 -0.3555  0.2134 -0.7401
   96SAPC   O22 9388   4.164   0.452   3.232 -0.1739 -0.0414 -0.1850
   96SAPC   C22 9389   4.238   0.237   3.302 -0.5769 -0.0319  0.4338
   96SAPC   H2R 9390   4.277   0.166   3.226 -0.6788 -0.5492  0.8580
   96SAPC   H2S 9391   4.323   0.299   3.337 -1.4392  0.4059  1.8265
   96SAPC    C3 9392   3.810   0.286   3.133  0.5942 -0.5320 -0.0764
   96SAPC    HX 9393   3.838   0.194   3.078  0.4520  1.2037 -3.2639
   96SAPC    HY 9394   3.740   0.332   3.060 -0.3751  0.3833  1.3590
   96SAPC   O31 9395   3.752   0.253   3.261 -0.1379  0.1143 -0.1936
   96SAPC   C31 9396   3.626   0.281   3.283  0.3656  0.3738 -0.3116
   96SAPC   O32 9397   3.552   0.322   3.191  0.4055  0.2626  0.0003
   96SAPC   C32 9398   3.592   0.264   3.433  0.0387 -0.2017  0.0656
   96SAPC   H2X 9399   3.662   0.189   3.477 -1.0394 -1.7785 -0.7680
   96SAPC   H2Y 9400   3.492   0.217   3.446  0.0147  0.6017  3.6818
   96SAPC   C23 9401   4.185   0.154   3.420 -0.6484  0.0123 -0.3364
   96SAPC   H3R 9402   4.270   0.098   3.466 -2.0189  0.5396  3.1152
   96SAPC   H3S 9403   4.109   0.084   3.379  0.7223 -0.2728 -2.5829
   96SAPC   C24 9404   4.116   0.240   3.531 -0.4757 -0.3171  0.6974
   96SAPC   H4R 9405   4.076   0.166   3.604 -2.9891 -2.0499 -2.2131
   96SAPC   H4S 9406   4.024   0.268   3.476 -0.8535 -0.2096  1.3662
   96SAPC   C25 9407   4.180   0.374   3.584 -0.5784  0.9399  0.3373
   96SAPC   H5R 9408   4.234   0.432   3.508 -1.1748  0.9925 -0.0574
   96SAPC   C26 9409   4.202   0.408   3.716  0.0735  0.0956  0.6935
   96SAPC   H6R 9410   4.250   0.505   3.731  0.1909  0.1489 -0.0041
   96SAPC   C27 9411   4.140   0.337   3.834 -0.1807  0.2617 -0.4876
   96SAPC   H7R 9412   4.073   0.251   3.811  0.3476 -0.6450  1.1817
   96SAPC   H7S 9413   4.072   0.403   3.891  0.6346  0.8258 -0.1459
   96SAPC   C28 9414   4.243   0.269   3.918  0.6795  0.0512  0.0884
   96SAPC   H8R 9415   4.298   0.187   3.869  0.1615 -0.1820 -0.1021
   96SAPC   C29 9416   4.293   0.310   4.033 -0.4934  1.0371 -0.4343
   96SAPC   H9R 9417   4.369   0.253   4.088 -2.6373 -0.3989  1.1910
   96SAPC  C210 9418   4.264   0.432   4.107  0.3475  0.2871 -0.3813
   96SAPC  H10R 9419   4.192   0.499   4.055  0.0849  1.3810  1.2924
   96SAPC  H10S 9420   4.359   0.490   4.109  0.6073 -0.1495  0.6512
   96SAPC  C211 9421   4.229   0.398   4.250  0.0959 -0.6019  0.2729
   96SAPC  H11R 9422   4.145   0.330   4.268 -1.0446  0.9871  1.2762
   96SAPC  C212 9423   4.298   0.440   4.362  0.2776  1.3339  0.6098
   96SAPC  H12R 9424   4.259   0.406   4.459  1.2886  0.4480  0.7165
   96SAPC  C213 9425   4.424   0.515   4.373  0.2593 -0.7475 -0.1030
   96SAPC  H13R 9426   4.486   0.508   4.281  1.2276 -0.4591  0.5211
   96SAPC  H13S 9427   4.481   0.464   4.453 -0.6271  1.1041  1.7887
   96SAPC  C214 9428   4.395   0.655   4.421  0.8901 -0.9528  0.2331
   96SAPC  H14R 9429   4.371   0.726   4.340 -2.2266 -0.6579  1.2973
   96SAPC  C215 9430   4.397   0.703   4.549  0.7307  0.5296 -0.2370
   96SAPC  H15R 9431   4.374   0.810   4.561  0.9866  0.8637 -2.3975
   96SAPC  C216 9432   4.429   0.628   4.667 -0.1516  0.1907  0.2808
   96SAPC  H16R 9433   4.464   0.526   4.638 -0.1105  1.0594 -3.0774
   96SAPC  H16S 9434   4.337   0.609   4.728  0.7932 -3.0602  0.8865
   96SAPC  C217 9435   4.548   0.684   4.756 -0.5812  0.1004 -0.1529
   96SAPC  H17R 9436   4.537   0.622   4.848  0.0001  0.1620 -0.0363
   96SAPC  H17S 9437   4.515   0.783   4.794 -0.2122 -0.5024  1.9022
   96SAPC  C218 9438   4.690   0.656   4.700  0.8990  0.7945  0.2116
   96SAPC  H18R 9439   4.710   0.750   4.645  0.3694 -0.2792 -1.8839
   96SAPC  H18S 9440   4.688   0.575   4.624  2.4328  0.0813  0.8859
   96SAPC  C219 9441   4.795   0.632   4.808  0.1431  0.0103 -1.0537
   96SAPC  H19R 9442   4.890   0.605   4.756 -0.6467 -1.0431 -2.0084
   96SAPC  H19S 9443   4.767   0.547   4.874 -0.9683  0.6850 -0.6366
   96SAPC  C220 9444   4.822   0.751   4.895  0.6154 -0.1987 -0.3124
   96SAPC  H20R 9445   4.917   0.726   4.946  0.4677  1.4053  0.7952
   96SAPC  H20S 9446   4.744   0.767   4.972  0.2886 -1.3984 -0.3674
   96SAPC  H20T 9447   4.847   0.844   4.841  0.4484  1.0450  1.6563
   96SAPC   C33 9448   3.591   0.395   3.515 -0.4797  0.0748 -0.3359
   96SAPC   H3X 9449   3.566   0.384   3.623  1.1284  0.5350  0.1223
   96SAPC   H3Y 9450   3.525   0.470   3.466  2.1999  1.8331 -1.5400
   96SAPC   C34 9451   3.728   0.463   3.509 -0.6812  0.1762  0.0180
   96SAPC   H4X 9452   3.743   0.511   3.409  0.0864 -0.2036 -0.0569
   96SAPC   H4Y 9453   3.806   0.385   3.522  0.8161  1.5216 -0.5314
   96SAPC   C35 9454   3.755   0.560   3.618 -0.0034  0.2990 -0.2928
   96SAPC   H5X 9455   3.683   0.645   3.623  0.0747  0.3556 -0.1215
   96SAPC   H5Y 9456   3.852   0.610   3.599  0.4707  0.1014  1.4354
   96SAPC   C36 9457   3.760   0.496   3.756 -0.6966 -0.5909 -0.2633
   96SAPC   H6X 9458   3.852   0.434   3.760  0.1172  0.6163  0.1077
   96SAPC   H6Y 9459   3.678   0.424   3.776 -0.7473 -1.8553 -4.1720
   96SAPC   C37 9460   3.775   0.595   3.874 -0.4602 -0.0369  0.3341
   96SAPC   H7X 9461   3.691   0.667   3.862 -0.1866  0.0066 -1.6294
   96SAPC   H7Y 9462   3.876   0.639   3.889 -1.2778  1.4171  1.9874
   96SAPC   C38 9463   3.769   0.519   4.014  0.3081 -0.0320  0.5043
   96SAPC   H8X 9464   3.820   0.421   4.002  0.5505  0.2206 -0.6373
   96SAPC   H8Y 9465   3.666   0.508   4.053 -1.2756  0.8924 -3.0230
   96SAPC   C39 9466   3.849   0.598   4.119 -0.0096  0.1400 -0.8996
   96SAPC   H9X 9467   3.821   0.706   4.122  2.6719  0.9661 -2.4709
   96SAPC   H9Y 9468   3.956   0.605   4.089  0.4035  2.7330  0.7697
   96SAPC  C310 9469   3.828   0.529   4.254 -0.0773 -0.4491 -0.6889
   96SAPC  H10X 9470   3.881   0.432   4.251  2.1710  0.7316 -3.2244
   96SAPC  H10Y 9471   3.720   0.506   4.271  0.1478 -1.3360 -0.4330
   96SAPC  C311 9472   3.885   0.613   4.369 -0.3593 -0.0993  0.0361
   96SAPC  H11X 9473   3.850   0.717   4.350 -0.4320  0.3963  2.5547
   96SAPC  H11Y 9474   3.996   0.616   4.380 -0.1632 -0.1888 -1.7172
   96SAPC  C312 9475   3.832   0.569   4.503 -0.0610 -0.1257 -0.3602
   96SAPC  H12X 9476   3.878   0.472   4.532  0.4907 -0.5805 -2.5813
   96SAPC  H12Y 9477   3.721   0.570   4.494  0.0916  0.9481 -4.0352
   96SAPC  C313 9478   3.865   0.668   4.616  0.4130  0.8006  0.3551
   96SAPC  H13X 9479   3.820   0.764   4.583 -1.2424 -0.9602 -3.1727
   96SAPC  H13Y 9480   3.975   0.672   4.628  0.7880 -2.3874 -0.8148
   96SAPC  C314 9481   3.788   0.634   4.747  0.1680 -0.1226  0.4381
   96SAPC  H14X 9482   3.820   0.532   4.778 -3.8176 -2.5190 -2.4626
   96SAPC  H14Y 9483   3.681   0.631   4.718 -0.2580  1.3926  1.6726
   96SAPC  C315 9484   3.806   0.739   4.859  0.1343 -0.4259 -0.5357
   96SAPC  H15X 9485   3.787   0.841   4.819  0.6138  0.0032  0.3055
   96SAPC  H15Y 9486   3.905   0.746   4.907  0.3631 -1.6517 -0.7997
   96SAPC  C316 9487   3.710   0.705   4.979  0.4347 -0.6886 -0.5523
   96SAPC  H16X 9488   3.749   0.606   5.011  5.1622  1.3839  0.9922
   96SAPC  H16Y 9489   3.608   0.696   4.936 -0.2479  1.1780  0.5606
   96SAPC  C317 9490   3.729   0.808   5.091 -0.2454 -0.1908 -0.1278
   96SAPC  H17X 9491   3.716   0.906   5.040  0.4249  0.2479  0.5328
   96SAPC  H17Y 9492   3.830   0.806   5.137 -1.2942 -0.4356  2.2619
   96SAPC  C318 9493   3.622   0.809   5.201 -0.9229 -0.0014  0.3594
   96SAPC  H18X 9494   3.650   0.885   5.277 -0.3708  1.2606 -1.0450
   96SAPC  H18Y 9495   3.618   0.708   5.246  1.9432 -1.0200 -1.3776
   96SAPC  H18Z 9496   3.524   0.846   5.164 -0.5034  0.4843 -0.2942
   97SAPC     N 9497   1.713   5.547   2.918 -0.3239  0.0369  0.1758
   97SAPC   C12 9498   1.765   5.442   3.014 -0.8164  0.1239 -0.1524
   97SAPC  H12A 9499   1.871   5.424   3.000 -0.5064  0.8143  1.0445
   97SAPC  H12B 9500   1.715   5.350   2.989 -1.2545  0.3133  0.0243
   97SAPC   C13 9501   1.763   5.683   2.964 -0.3012 -1.1612 -0.5500
   97SAPC  H13A 9502   1.712   5.767   2.919  1.5806  2.9978  4.1768
   97SAPC  H13B 9503   1.751   5.698   3.070 -0.8810  3.5184 -1.0466
   97SAPC  H13C 9504   1.866   5.698   2.937 -1.0238  0.0625 -2.9772
   97SAPC   C14 9505   1.756   5.524   2.773  0.5547  0.9734 -1.3031
   97SAPC  H14A 9506   1.864   5.528   2.775  0.7487 -2.2799 -0.4309
   97SAPC  H14B 9507   1.739   5.421   2.747  2.9651  0.1709 -0.0595
   97SAPC  H14C 9508   1.704   5.589   2.703 -1.1323  0.8496 -0.2119
   97SAPC   C15 9509   1.567   5.551   2.924 -0.4860  0.1972 -0.3191
   97SAPC  H15A 9510   1.519   5.571   3.018 -1.2649  1.9820 -1.0428
   97SAPC  H15B 9511   1.530   5.620   2.849  1.5469  0.6092 -0.9850
   97SAPC  H15C 9512   1.530   5.456   2.889  3.0351 -0.6778 -2.0392
   97SAPC   C11 9513   1.766   5.465   3.163  0.3170  0.4035 -0.1911
   97SAPC  H11A 9514   1.764   5.361   3.203  0.6630  0.0904 -0.9714
   97SAPC  H11B 9515   1.671   5.517   3.186  0.9033  0.8922  1.2504
   97SAPC     P 9516   2.013   5.465   3.249  0.2528 -0.2487 -0.3635
   97SAPC   O13 9517   2.065   5.394   3.131 -0.3856 -0.4570 -0.1289
   97SAPC   O14 9518   2.105   5.551   3.324 -0.1848 -0.3011  0.9120
   97SAPC   O12 9519   1.880   5.543   3.209  0.1653  0.2352 -0.4020
   97SAPC   O11 9520   1.963   5.348   3.354 -0.3830 -0.1711  1.2444
   97SAPC    C1 9521   1.895   5.396   3.474 -0.3461 -0.2375  0.7024
   97SAPC    HA 9522   1.840   5.491   3.456  1.0077  0.2919 -0.9222
   97SAPC    HB 9523   1.822   5.315   3.492  1.1408 -1.8204 -0.1361
   97SAPC    C2 9524   1.982   5.411   3.597  0.1230 -0.1634 -0.4399
   97SAPC    HS 9525   1.909   5.406   3.680  1.1458  0.5920  0.5526
   97SAPC   O21 9526   2.056   5.536   3.599 -0.5584 -0.0593  0.4139
   97SAPC   C21 9527   1.978   5.652   3.604 -0.5279 -0.6709  0.4981
   97SAPC   O22 9528   1.861   5.649   3.641  0.6231 -0.2787  0.7327
   97SAPC   C22 9529   2.066   5.766   3.575 -0.0101  0.4430 -0.4060
   97SAPC   H2R 9530   2.161   5.761   3.632  1.0093 -0.3213 -2.0916
   97SAPC   H2S 9531   2.098   5.752   3.469 -2.5733  2.4859 -1.5704
   97SAPC    C3 9532   2.079   5.295   3.609  0.3269 -0.1486 -0.5593
   97SAPC    HX 9533   2.158   5.284   3.531  0.3981 -0.7040 -0.4109
   97SAPC    HY 9534   2.010   5.208   3.602  0.4239 -0.8467  4.0711
   97SAPC   O31 9535   2.139   5.289   3.739  0.7101 -0.0318 -0.0583
   97SAPC   C31 9536   2.255   5.360   3.759  1.2109 -0.0301  0.0372
   97SAPC   O32 9537   2.312   5.413   3.669  0.1350  0.2417  0.2796
   97SAPC   C32 9538   2.290   5.366   3.907 -0.1594 -0.3711  0.4619
   97SAPC   H2X 9539   2.401   5.361   3.913 -0.1317 -0.6707 -0.2903
   97SAPC   H2Y 9540   2.242   5.282   3.961 -0.4657 -0.5743 -0.1237
   97SAPC   C23 9541   2.007   5.903   3.595 -0.8281 -1.0920  0.2357
   97SAPC   H3R 9542   1.910   5.922   3.544 -0.1033  1.4635 -0.3245
   97SAPC   H3S 9543   2.080   5.971   3.547 -2.3477  0.4452 -0.0102
   97SAPC   C24 9544   2.005   5.942   3.742  0.0060  0.8631  0.0878
   97SAPC   H4R 9545   1.936   5.868   3.787 -0.1216  0.7839 -0.2370
   97SAPC   H4S 9546   1.955   6.041   3.741 -0.7244  0.5609  1.8746
   97SAPC   C25 9547   2.136   5.944   3.811 -0.0238 -0.4161  0.1967
   97SAPC   H5R 9548   2.219   5.932   3.741  0.5167 -0.4805  0.8398
   97SAPC   C26 9549   2.161   5.941   3.941  0.4344 -0.0099 -0.1118
   97SAPC   H6R 9550   2.267   5.947   3.970  0.3925 -0.9832  0.2694
   97SAPC   C27 9551   2.060   5.939   4.049 -0.1124  0.8064 -0.1208
   97SAPC   H7R 9552   2.074   5.842   4.102  0.8472  0.0390 -1.6913
   97SAPC   H7S 9553   1.957   5.942   4.007  0.0989  1.1601 -0.6356
   97SAPC   C28 9554   2.077   6.059   4.142 -0.7436 -0.1212  0.8770
   97SAPC   H8R 9555   2.136   6.145   4.105  0.3871 -0.4973  1.7499
   97SAPC   C29 9556   2.052   6.067   4.277  0.1368 -0.1592 -0.8070
   97SAPC   H9R 9557   2.065   6.162   4.330 -0.4532  0.1897 -1.2666
   97SAPC  C210 9558   1.993   5.953   4.359 -0.2255  0.6131 -0.7498
   97SAPC  H10R 9559   2.027   5.953   4.465  1.1399 -0.1765 -1.1603
   97SAPC  H10S 9560   2.045   5.861   4.324 -3.0328 -0.8128 -1.5026
   97SAPC  C211 9561   1.851   5.925   4.326  0.5644 -0.5723 -0.0217
   97SAPC  H11R 9562   1.806   5.964   4.234 -1.2494 -1.7874  0.3035
   97SAPC  C212 9563   1.761   5.860   4.407  0.1801 -0.1210  0.6418
   97SAPC  H12R 9564   1.658   5.847   4.371  1.0366  1.0483 -2.5502
   97SAPC  C213 9565   1.788   5.796   4.547  0.5250  0.3000  0.6363
   97SAPC  H13R 9566   1.738   5.851   4.629 -1.0328 -1.3369  0.8505
   97SAPC  H13S 9567   1.898   5.790   4.565  0.6295  0.3642  0.0343
   97SAPC  C214 9568   1.731   5.659   4.545 -0.5600 -0.4337 -0.8289
   97SAPC  H14R 9569   1.625   5.652   4.576  0.0811  0.4977  1.9010
   97SAPC  C215 9570   1.800   5.549   4.518  0.2061  0.1382 -1.2443
   97SAPC  H15R 9571   1.739   5.458   4.530  0.2425  0.0099 -1.9528
   97SAPC  C216 9572   1.945   5.545   4.470 -0.2566  0.6894 -0.4122
   97SAPC  H16R 9573   1.974   5.643   4.424  2.7258 -0.2086 -0.6146
   97SAPC  H16S 9574   1.959   5.466   4.394 -0.4723 -2.8578  2.9356
   97SAPC  C217 9575   2.041   5.505   4.586  0.4408  0.2031  0.6117
   97SAPC  H17R 9576   2.008   5.415   4.642 -0.0466 -0.9696 -1.4630
   97SAPC  H17S 9577   2.040   5.598   4.647  0.3546  1.2480 -0.9332
   97SAPC  C218 9578   2.185   5.482   4.528 -0.3410  0.2034 -0.0105
   97SAPC  H18R 9579   2.221   5.576   4.481  1.8579 -1.4784 -1.9158
   97SAPC  H18S 9580   2.184   5.402   4.451  0.7976 -0.5643  0.7352
   97SAPC  C219 9581   2.282   5.434   4.633  0.2537  0.1017 -0.3902
   97SAPC  H19R 9582   2.261   5.333   4.675  1.8407  0.6070  1.7815
   97SAPC  H19S 9583   2.272   5.498   4.724  2.5492  1.6975 -1.1894
   97SAPC  C220 9584   2.426   5.437   4.588 -0.6712  0.5619 -0.3276
   97SAPC  H20R 9585   2.449   5.539   4.549 -2.1614  0.9172 -0.3496
   97SAPC  H20S 9586   2.437   5.377   4.495 -0.2279  0.5299 -0.2569
   97SAPC  H20T 9587   2.506   5.415   4.662 -1.0655 -1.9629 -0.5753
   97SAPC   C33 9588   2.250   5.499   3.981 -0.4020 -0.8723  0.7205
   97SAPC   H3X 9589   2.191   5.558   3.906 -0.7444 -0.7544  1.0807
   97SAPC   H3Y 9590   2.342   5.552   4.013 -0.5120 -0.6388  0.6542
   97SAPC   C34 9591   2.170   5.476   4.116  0.5172  0.1977  0.3247
   97SAPC   H4X 9592   2.185   5.566   4.179 -1.0711  0.3102  0.5803
   97SAPC   H4Y 9593   2.206   5.384   4.166  0.9220 -0.3949 -1.0143
   97SAPC   C35 9594   2.017   5.442   4.095 -0.4154 -0.4598  0.5926
   97SAPC   H5X 9595   1.986   5.383   4.183  0.0775 -0.9053  0.4733
   97SAPC   H5Y 9596   2.007   5.378   4.005  1.1296 -0.2713  0.2526
   97SAPC   C36 9597   1.939   5.577   4.085 -0.4255 -0.0014 -0.1582
   97SAPC   H6X 9598   1.983   5.644   4.009 -0.6408 -0.3518 -0.5988
   97SAPC   H6Y 9599   1.941   5.639   4.177  1.6826  0.2111 -0.2893
   97SAPC   C37 9600   1.792   5.562   4.052 -0.1933 -0.5514 -0.0378
   97SAPC   H7X 9601   1.742   5.510   4.136  3.1394 -1.2706  1.6842
   97SAPC   H7Y 9602   1.781   5.505   3.957 -0.3452  1.9886 -1.6338
   97SAPC   C38 9603   1.721   5.702   4.030  0.5913 -0.1406 -0.1962
   97SAPC   H8X 9604   1.776   5.767   3.958  0.8115  1.8561  1.6541
   97SAPC   H8Y 9605   1.728   5.768   4.119  0.1727  0.2610 -0.4557
   97SAPC   C39 9606   1.575   5.684   3.986  0.1192 -0.2882  0.7772
   97SAPC   H9X 9607   1.548   5.581   3.954  2.7759 -0.7781 -0.1580
   97SAPC   H9Y 9608   1.565   5.749   3.896  0.6927 -1.7792 -0.4113
   97SAPC  C310 9609   1.482   5.726   4.106  0.2709  0.5502 -0.2454
   97SAPC  H10X 9610   1.384   5.725   4.052  1.1078  1.8189 -1.8720
   97SAPC  H10Y 9611   1.512   5.830   4.132  1.1141  0.5435 -1.1189
   97SAPC  C311 9612   1.487   5.622   4.215  0.3694  0.6362  0.8551
   97SAPC  H11X 9613   1.587   5.647   4.259 -0.7942  3.0675  2.3617
   97SAPC  H11Y 9614   1.481   5.523   4.166 -0.4714  0.6933  0.8340
   97SAPC  C312 9615   1.384   5.641   4.322  0.5092  0.4077  0.6167
   97SAPC  H12X 9616   1.283   5.653   4.278  1.4200 -1.6185 -2.2568
   97SAPC  H12Y 9617   1.401   5.740   4.370  0.3680  0.6693  0.1250
   97SAPC  C313 9618   1.393   5.536   4.436 -0.1890 -0.1810  0.8050
   97SAPC  H13X 9619   1.497   5.532   4.473  0.1025  1.3898  0.2551
   97SAPC  H13Y 9620   1.363   5.436   4.399  0.2996 -0.1195  0.2261
   97SAPC  C314 9621   1.297   5.561   4.555  0.5662  0.3840  0.9998
   97SAPC  H14X 9622   1.204   5.504   4.537  2.7320 -3.0372 -0.5869
   97SAPC  H14Y 9623   1.276   5.670   4.558 -2.4035 -0.0987  0.4432
   97SAPC  C315 9624   1.355   5.526   4.694  0.4454 -0.0631  0.2398
   97SAPC  H15X 9625   1.448   5.580   4.722  0.7654 -0.3008 -0.3454
   97SAPC  H15Y 9626   1.372   5.416   4.696  1.3362 -0.0521 -2.6173
   97SAPC  C316 9627   1.259   5.569   4.801 -0.2919  0.1234 -0.0477
   97SAPC  H16X 9628   1.166   5.509   4.789  1.5029 -2.9384  0.0423
   97SAPC  H16Y 9629   1.241   5.678   4.796  0.9983  0.2732 -2.5445
   97SAPC  C317 9630   1.300   5.528   4.945 -0.2951  0.7329 -0.0978
   97SAPC  H17X 9631   1.388   5.592   4.967 -0.9577  1.5559  0.2205
   97SAPC  H17Y 9632   1.336   5.423   4.941 -1.6729  0.1676  1.2776
   97SAPC  C318 9633   1.182   5.556   5.051  0.2567 -0.1433  0.0981
   97SAPC  H18X 9634   1.207   5.528   5.156 -0.9131 -0.9753  0.1745
   97SAPC  H18Y 9635   1.090   5.501   5.023 -1.1056  1.8226  0.5252
   97SAPC  H18Z 9636   1.153   5.662   5.038 -0.4449 -0.1587  1.3859
   98SAPC     N 9637   0.642   1.345   2.550 -0.3895  0.1205 -0.4178
   98SAPC   C12 9638   0.739   1.249   2.619 -0.5722 -0.1290  0.5175
   98SAPC  H12A 9639   0.717   1.148   2.588 -0.3673 -0.2031  0.6159
   98SAPC  H12B 9640   0.730   1.243   2.727  1.1267 -2.5178  0.6087
   98SAPC   C13 9641   0.499   1.292   2.567 -0.1020  0.6208 -0.1023
   98SAPC  H13A 9642   0.487   1.227   2.653  1.5127  0.7890  0.2782
   98SAPC  H13B 9643   0.426   1.370   2.553  1.0823  1.7349 -0.2489
   98SAPC  H13C 9644   0.478   1.221   2.488 -0.6883 -0.2562  0.8169
   98SAPC   C14 9645   0.652   1.479   2.629 -0.3535  0.0051  0.6202
   98SAPC  H14A 9646   0.740   1.531   2.594 -0.7723 -0.6466 -1.5746
   98SAPC  H14B 9647   0.573   1.551   2.612  1.4908  1.4489 -2.6679
   98SAPC  H14C 9648   0.660   1.451   2.733  4.4510  1.2401  0.7936
   98SAPC   C15 9649   0.671   1.362   2.405 -0.5480  0.3051  0.0410
   98SAPC  H15A 9650   0.777   1.378   2.395 -0.4794  0.0214  0.3160
   98SAPC  H15B 9651   0.654   1.276   2.341 -2.0109  1.2613 -0.9113
   98SAPC  H15C 9652   0.619   1.448   2.366 -0.3202 -0.1869 -1.4185
   98SAPC   C11 9653   0.890   1.276   2.594  0.8702 -0.1327  0.6124
   98SAPC  H11A 9654   0.959   1.226   2.666  1.8308 -1.6934 -1.2843
   98SAPC  H11B 9655   0.915   1.383   2.605 -2.2506  0.9575 -1.5810
   98SAPC     P 9656   1.001   1.112   2.414 -0.0087 -0.1121 -0.3291
   98SAPC   O13 9657   0.908   0.994   2.417  0.1433  0.0550 -0.2438
   98SAPC   O14 9658   1.078   1.138   2.289  0.3850  0.2167  0.1367
   98SAPC   O12 9659   0.918   1.240   2.460  0.3922 -0.0758 -0.1982
   98SAPC   O11 9660   1.110   1.092   2.529  0.6343  0.1730 -0.1744
   98SAPC    C1 9661   1.224   1.169   2.550  0.6785 -0.4514 -0.7952
   98SAPC    HA 9662   1.296   1.155   2.467  0.1408 -2.3923 -0.9891
   98SAPC    HB 9663   1.191   1.274   2.567 -0.0104 -0.9766  1.4722
   98SAPC    C2 9664   1.285   1.120   2.679 -0.2739 -0.7977 -0.0783
   98SAPC    HS 9665   1.320   1.015   2.671  0.1900 -0.8305  1.9607
   98SAPC   O21 9666   1.190   1.146   2.784  0.5456  0.8183  0.4585
   98SAPC   C21 9667   1.157   1.048   2.867 -0.1725  0.4021 -0.2181
   98SAPC   O22 9668   1.212   0.940   2.881  0.0775  0.3063  0.7100
   98SAPC   C22 9669   1.024   1.089   2.942 -0.2155 -0.5754 -0.4654
   98SAPC   H2R 9670   0.971   1.158   2.873  0.9548  0.4250 -0.4027
   98SAPC   H2S 9671   0.971   0.992   2.950  2.7220 -2.1654  1.8599
   98SAPC    C3 9672   1.423   1.191   2.730  0.1819 -0.2372 -0.9519
   98SAPC    HX 9673   1.412   1.302   2.729  0.0283 -0.2490 -0.5008
   98SAPC    HY 9674   1.498   1.166   2.652  1.7053  1.1363  0.0273
   98SAPC   O31 9675   1.483   1.139   2.861 -0.3915 -0.2177  0.4394
   98SAPC   C31 9676   1.511   1.225   2.952  0.1994  0.1179 -0.7492
   98SAPC   O32 9677   1.508   1.346   2.939 -0.0359  0.1217  0.0582
   98SAPC   C32 9678   1.540   1.148   3.085  0.7036  0.3671 -0.0856
   98SAPC   H2X 9679   1.559   1.227   3.161 -1.0212  2.4356 -1.6568
   98SAPC   H2Y 9680   1.633   1.090   3.067 -0.2668 -0.9306 -1.0696
   98SAPC   C23 9681   1.025   1.159   3.076 -0.5415  0.0389 -0.5241
   98SAPC   H3R 9682   0.938   1.226   3.097 -2.4413 -1.9541 -1.5956
   98SAPC   H3S 9683   1.113   1.226   3.067  0.5989 -0.8167  2.8247
   98SAPC   C24 9684   1.032   1.063   3.191  0.0612 -0.1425 -0.2969
   98SAPC   H4R 9685   1.076   1.114   3.280  0.1376 -1.6231  0.5484
   98SAPC   H4S 9686   1.098   0.979   3.161 -0.8614 -0.0521 -2.7661
   98SAPC   C25 9687   0.898   1.001   3.228 -0.8124  0.2481 -0.2490
   98SAPC   H5R 9688   0.839   0.966   3.142 -1.0863  1.3322 -0.5136
   98SAPC   C26 9689   0.851   0.967   3.345  0.8549  0.5965 -0.7554
   98SAPC   H6R 9690   0.752   0.920   3.349 -0.8188  3.8535  2.5433
   98SAPC   C27 9691   0.920   0.981   3.477 -0.2062  0.0807 -0.9125
   98SAPC   H7R 9692   0.856   1.014   3.562 -0.6098  0.2795 -1.2893
   98SAPC   H7S 9693   0.999   1.060   3.471 -0.5057  0.4938  0.1949
   98SAPC   C28 9694   0.979   0.842   3.497 -0.6989 -0.9119 -0.3367
   98SAPC   H8R 9695   1.018   0.793   3.406  1.2166 -0.9717  0.4745
   98SAPC   C29 9696   1.000   0.778   3.614  0.3173  0.4979  0.0659
   98SAPC   H9R 9697   1.050   0.680   3.612 -1.0304 -0.2546  1.1718
   98SAPC  C210 9698   0.977   0.822   3.751 -0.3235 -0.6507  0.0178
   98SAPC  H10R 9699   0.876   0.804   3.793 -0.1351  0.8241  1.1939
   98SAPC  H10S 9700   0.981   0.933   3.749 -0.1693 -0.6416  0.5414
   98SAPC  C211 9701   1.085   0.769   3.843 -0.4226  0.4161 -0.1175
   98SAPC  H11R 9702   1.144   0.684   3.806  0.4353  1.7706 -1.9901
   98SAPC  C212 9703   1.113   0.809   3.974  0.1136  0.5914  0.4126
   98SAPC  H12R 9704   1.179   0.740   4.028 -1.9536 -2.7737 -0.9492
   98SAPC  C213 9705   1.026   0.895   4.049  0.8863  0.1571 -0.1429
   98SAPC  H13R 9706   0.984   0.839   4.135 -0.6848  0.7781 -0.4738
   98SAPC  H13S 9707   0.940   0.934   3.991  1.7224  1.3101 -0.6491
   98SAPC  C214 9708   1.096   1.020   4.093 -0.4837 -0.8755  0.2084
   98SAPC  H14R 9709   1.175   1.067   4.033 -0.0551  0.8304  2.0201
   98SAPC  C215 9710   1.055   1.086   4.207 -0.2196  0.7868  0.4903
   98SAPC  H15R 9711   1.111   1.173   4.243  2.7754 -0.7465 -0.1580
   98SAPC  C216 9712   0.951   1.041   4.307  0.3976  0.1802  0.2576
   98SAPC  H16R 9713   0.933   0.932   4.296 -1.1976  0.3145  1.2308
   98SAPC  H16S 9714   0.854   1.088   4.281  0.8491  1.0575  0.1219
   98SAPC  C217 9715   0.967   1.077   4.450  0.5522  0.6007 -0.2947
   98SAPC  H17R 9716   0.978   1.188   4.457  1.0455  0.5001  0.8512
   98SAPC  H17S 9717   1.053   1.031   4.503  0.4184  0.9316  0.2240
   98SAPC  C218 9718   0.843   1.054   4.539 -0.0279  0.2523  0.6357
   98SAPC  H18R 9719   0.776   0.984   4.486  0.4302  1.4829 -1.6948
   98SAPC  H18S 9720   0.791   1.151   4.555  1.7920  1.3089  0.5126
   98SAPC  C219 9721   0.871   0.997   4.674 -0.1649 -0.9154 -0.7900
   98SAPC  H19R 9722   0.963   0.936   4.668  1.4708  1.2841  0.3979
   98SAPC  H19S 9723   0.780   0.937   4.696 -0.2897 -0.4340  0.0550
   98SAPC  C220 9724   0.880   1.108   4.778 -0.4368  0.5230 -0.0779
   98SAPC  H20R 9725   0.803   1.183   4.751 -0.9958 -0.9000 -2.7857
   98SAPC  H20S 9726   0.977   1.161   4.765 -0.4047 -0.1637 -3.8565
   98SAPC  H20T 9727   0.871   1.066   4.880 -1.3081 -0.8461 -0.6952
   98SAPC   C33 9728   1.424   1.064   3.138  0.1795  0.4448 -0.3461
   98SAPC   H3X 9729   1.431   0.968   3.082  1.2895 -0.7009  1.6582
   98SAPC   H3Y 9730   1.332   1.126   3.131  0.1280  0.6395  1.5597
   98SAPC   C34 9731   1.452   1.033   3.285 -0.3712  0.1958  0.1018
   98SAPC   H4X 9732   1.463   1.121   3.351  0.1524 -0.2431  0.6135
   98SAPC   H4Y 9733   1.553   0.987   3.276  0.1925  1.4384 -0.0235
   98SAPC   C35 9734   1.355   0.934   3.355  0.0032 -0.1213  0.2371
   98SAPC   H5X 9735   1.329   0.848   3.291 -0.4430  0.2552 -0.1000
   98SAPC   H5Y 9736   1.252   0.974   3.373  0.7306  1.7381  0.4607
   98SAPC   C36 9737   1.397   0.895   3.502  0.5286 -0.5802  0.2063
   98SAPC   H6X 9738   1.497   0.845   3.506 -0.8713 -3.5948  0.9708
   98SAPC   H6Y 9739   1.329   0.818   3.543  0.4880 -1.9953 -2.2958
   98SAPC   C37 9740   1.408   1.027   3.591 -0.0364  0.0182  0.0410
   98SAPC   H7X 9741   1.317   1.090   3.577  1.5079  2.6514  1.0953
   98SAPC   H7Y 9742   1.490   1.097   3.565  1.8474 -0.8288  3.1492
   98SAPC   C38 9743   1.407   0.992   3.742 -0.2095 -0.0758  0.2955
   98SAPC   H8X 9744   1.318   0.927   3.755 -0.4653 -0.3436 -2.2787
   98SAPC   H8Y 9745   1.386   1.091   3.788 -1.0960  1.7717 -3.6620
   98SAPC   C39 9746   1.531   0.910   3.773  0.0858  0.2128  0.1216
   98SAPC   H9X 9747   1.620   0.977   3.773 -0.0222  0.4493  2.4628
   98SAPC   H9Y 9748   1.554   0.832   3.698 -0.0887  0.8990 -0.6573
   98SAPC  C310 9749   1.529   0.837   3.914  0.8005 -0.6187  0.6170
   98SAPC  H10X 9750   1.630   0.793   3.925  1.9058  2.2242  3.3681
   98SAPC  H10Y 9751   1.450   0.759   3.922  1.0636 -0.8512  0.9517
   98SAPC  C311 9752   1.513   0.936   4.021 -0.2168  0.1276  0.2084
   98SAPC  H11X 9753   1.425   1.002   4.004  0.0012  0.4933  0.5044
   98SAPC  H11Y 9754   1.599   1.006   4.030  0.5127 -0.7869  0.5399
   98SAPC  C312 9755   1.489   0.870   4.161  0.2602 -0.4441 -0.2425
   98SAPC  H12X 9756   1.577   0.804   4.178  1.0208  0.7100  0.4067
   98SAPC  H12Y 9757   1.401   0.804   4.144  0.4048 -0.4680 -0.9257
   98SAPC  C313 9758   1.460   0.977   4.270 -0.4116  0.3602  0.0772
   98SAPC  H13X 9759   1.400   1.062   4.231  0.7839  0.6752 -1.1537
   98SAPC  H13Y 9760   1.556   1.019   4.307  0.6719 -2.0007  0.1297
   98SAPC  C314 9761   1.391   0.906   4.383 -0.3722  0.3445  0.1277
   98SAPC  H14X 9762   1.420   0.800   4.400 -1.7154 -0.1146 -0.3064
   98SAPC  H14Y 9763   1.287   0.901   4.344 -0.3993 -4.8855  0.1531
   98SAPC  C315 9764   1.406   0.995   4.512  0.9104 -0.3999  0.0391
   98SAPC  H15X 9765   1.392   1.102   4.484 -2.6355 -1.1961 -1.8207
   98SAPC  H15Y 9766   1.512   0.983   4.542  1.2043 -0.5880 -1.0154
   98SAPC  C316 9767   1.316   0.976   4.637  0.5284  0.1723 -0.3589
   98SAPC  H16X 9768   1.327   0.867   4.659  2.1630  0.4507  0.3919
   98SAPC  H16Y 9769   1.212   1.003   4.610  1.2448  1.9874 -1.4805
   98SAPC  C317 9770   1.370   1.064   4.755  0.6826  0.0935  0.0039
   98SAPC  H17X 9771   1.341   1.167   4.727 -0.9332 -0.9860 -2.7246
   98SAPC  H17Y 9772   1.481   1.063   4.759  0.7511  0.4813 -1.2740
   98SAPC  C318 9773   1.315   1.031   4.893  0.0570 -0.7036  0.2044
   98SAPC  H18X 9774   1.319   1.124   4.953 -0.2358  0.0674 -0.9408
   98SAPC  H18Y 9775   1.373   0.949   4.940 -0.3131 -0.6506  0.7497
   98SAPC  H18Z 9776   1.207   1.006   4.897 -0.0931 -0.2952 -0.9338
   99SAPC     N 9777   2.206   2.662   2.790 -0.4036  0.7753 -0.9541
   99SAPC   C12 9778   2.233   2.766   2.903  0.1729 -0.3150  0.6535
   99SAPC  H12A 9779   2.337   2.795   2.899 -0.5082  2.5038  0.9970
   99SAPC  H12B 9780   2.211   2.728   3.001 -1.5865 -1.3709 -0.0941
   99SAPC   C13 9781   2.068   2.628   2.782 -0.2105  0.0965 -0.2148
   99SAPC  H13A 9782   2.003   2.714   2.777  0.1208  0.4084  0.7327
   99SAPC  H13B 9783   2.044   2.570   2.693  1.5217 -1.3504  0.2064
   99SAPC  H13C 9784   2.034   2.563   2.861  1.8697 -0.5711  0.2041
   99SAPC   C14 9785   2.250   2.718   2.656 -0.7933  0.2790  0.3948
   99SAPC  H14A 9786   2.179   2.794   2.626 -2.1710 -1.1254 -0.0449
   99SAPC  H14B 9787   2.342   2.768   2.683  0.0203 -1.0065  0.0799
   99SAPC  H14C 9788   2.263   2.644   2.579  2.3369  0.7719  0.3191
   99SAPC   C15 9789   2.283   2.535   2.813 -0.1766 -0.1632 -0.6186
   99SAPC  H15A 9790   2.241   2.481   2.898  1.1225  2.4333  1.8456
   99SAPC  H15B 9791   2.278   2.471   2.727  0.9994 -3.7950  1.7563
   99SAPC  H15C 9792   2.388   2.551   2.834 -0.4150  2.4825 -1.1753
   99SAPC   C11 9793   2.157   2.904   2.889  0.1154 -0.0914 -0.1518
   99SAPC  H11A 9794   2.196   2.962   2.975  0.7191 -0.4695 -0.1616
   99SAPC  H11B 9795   2.047   2.892   2.898  0.2182 -0.0282  1.4934
   99SAPC     P 9796   2.307   3.070   2.743 -0.4356  0.2468 -0.0239
   99SAPC   O13 9797   2.425   2.992   2.709 -0.9084  0.0974 -0.3395
   99SAPC   O14 9798   2.273   3.175   2.650  0.4852 -0.3839 -0.6654
   99SAPC   O12 9799   2.190   2.971   2.765  0.4870  0.6662  0.2631
   99SAPC   O11 9800   2.332   3.134   2.879  0.1934  0.1550 -0.0622
   99SAPC    C1 9801   2.424   3.234   2.912  0.5915  0.2986  0.1592
   99SAPC    HA 9802   2.519   3.235   2.853  1.1024  2.5615  0.9360
   99SAPC    HB 9803   2.371   3.331   2.903 -0.5439 -0.0523  2.2639
   99SAPC    C2 9804   2.465   3.213   3.056  0.1080 -0.2003  0.3527
   99SAPC    HS 9805   2.481   3.103   3.064 -0.4318 -0.2210  1.2525
   99SAPC   O21 9806   2.348   3.242   3.131 -0.4213  0.0274 -0.2218
   99SAPC   C21 9807   2.333   3.176   3.251 -0.1440 -0.6784 -0.1905
   99SAPC   O22 9808   2.399   3.078   3.284 -0.2174 -0.2909  0.3433
   99SAPC   C22 9809   2.218   3.238   3.330 -0.2418  0.9100  0.6133
   99SAPC   H2R 9810   2.187   3.332   3.279 -0.6683 -0.7170 -2.3131
   99SAPC   H2S 9811   2.127   3.175   3.322 -1.2725  2.5144 -1.1421
   99SAPC    C3 9812   2.589   3.297   3.090 -0.5280  0.0374  0.0768
   99SAPC    HX 9813   2.571   3.405   3.068  1.3685  0.1084 -1.3318
   99SAPC    HY 9814   2.676   3.278   3.025  0.6226  0.4783  1.4295
   99SAPC   O31 9815   2.620   3.298   3.233 -0.1594  0.4034 -0.2793
   99SAPC   C31 9816   2.694   3.201   3.266  0.3810  0.7345 -0.7324
   99SAPC   O32 9817   2.738   3.109   3.190  0.0046 -0.2412 -0.2040
   99SAPC   C32 9818   2.725   3.212   3.419 -0.6878 -0.3640 -0.0208
   99SAPC   H2X 9819   2.732   3.316   3.458  2.8400 -0.9003  1.1399
   99SAPC   H2Y 9820   2.826   3.167   3.434 -0.1860  0.5038 -0.7016
   99SAPC   C23 9821   2.251   3.268   3.479 -0.0246  0.1370  0.7921
   99SAPC   H3R 9822   2.341   3.331   3.492  1.5338 -1.6477 -0.7350
   99SAPC   H3S 9823   2.283   3.174   3.528 -0.7616 -1.0137 -0.8471
   99SAPC   C24 9824   2.152   3.343   3.563  1.2780 -0.8979  0.0649
   99SAPC   H4R 9825   2.127   3.441   3.519  1.4368  0.2225  2.3254
   99SAPC   H4S 9826   2.205   3.370   3.657  2.4104  0.3623 -0.9049
   99SAPC   C25 9827   2.034   3.259   3.583  0.2248  0.5420  0.1008
   99SAPC   H5R 9828   1.962   3.261   3.499  0.2109 -1.8522 -0.0348
   99SAPC   C26 9829   1.996   3.186   3.692 -0.2534  0.1370  1.2536
   99SAPC   H6R 9830   1.908   3.121   3.683  0.7272 -1.0341 -0.3983
   99SAPC   C27 9831   2.073   3.156   3.819  0.0668 -0.0392  0.1380
   99SAPC   H7R 9832   2.178   3.134   3.788 -0.3202  0.2982 -1.5202
   99SAPC   H7S 9833   2.033   3.080   3.889  1.2668 -1.1955 -0.3880
   99SAPC   C28 9834   2.079   3.290   3.887  0.2161 -0.4533  0.5283
   99SAPC   H8R 9835   2.057   3.380   3.827  0.4435 -0.8826 -0.2093
   99SAPC   C29 9836   2.112   3.310   4.014  0.4629 -0.4766  0.3742
   99SAPC   H9R 9837   2.117   3.414   4.049 -0.2471 -0.3339  0.0680
   99SAPC  C210 9838   2.152   3.197   4.106  0.6566 -0.0801  0.1841
   99SAPC  H10R 9839   2.131   3.099   4.057 -4.1879  1.2109 -0.8359
   99SAPC  H10S 9840   2.080   3.192   4.191  0.0753  0.7577 -0.2543
   99SAPC  C211 9841   2.300   3.220   4.149  0.8948  0.2472 -0.2562
   99SAPC  H11R 9842   2.381   3.239   4.077 -0.9472  0.7133 -2.3139
   99SAPC  C212 9843   2.343   3.244   4.275 -0.3526  0.7003  0.9434
   99SAPC  H12R 9844   2.445   3.284   4.277 -0.3029  0.7210 -0.5055
   99SAPC  C213 9845   2.267   3.254   4.404 -0.1618 -0.6340  0.9330
   99SAPC  H13R 9846   2.190   3.333   4.394  0.4780 -0.3537 -3.1088
   99SAPC  H13S 9847   2.337   3.298   4.478 -0.3183  2.0819 -0.4108
   99SAPC  C214 9848   2.188   3.139   4.453 -0.2066  0.0758  0.1577
   99SAPC  H14R 9849   2.084   3.132   4.420  0.1862 -1.7686 -0.8364
   99SAPC  C215 9850   2.233   3.048   4.542 -0.3980  0.4228 -0.0708
   99SAPC  H15R 9851   2.161   2.971   4.573 -0.7590 -0.5112 -2.9204
   99SAPC  C216 9852   2.374   3.065   4.601 -0.1037  0.1207  0.1647
   99SAPC  H16R 9853   2.450   3.130   4.553  0.2393 -0.2831  0.1598
   99SAPC  H16S 9854   2.421   2.964   4.602 -2.5832 -1.1258  1.1339
   99SAPC  C217 9855   2.360   3.124   4.740  0.1919 -0.4878  0.0034
   99SAPC  H17R 9856   2.267   3.091   4.792 -1.0110  0.6997 -1.3116
   99SAPC  H17S 9857   2.366   3.235   4.734 -2.3133 -0.2808  0.0138
   99SAPC  C218 9858   2.473   3.094   4.832  0.5096 -0.9278 -0.2704
   99SAPC  H18R 9859   2.567   3.140   4.796  0.1808  1.0120  1.2353
   99SAPC  H18S 9860   2.495   2.985   4.821  0.4415 -1.0959  1.0731
   99SAPC  C219 9861   2.451   3.128   4.981  0.2045 -0.4890 -0.7128
   99SAPC  H19R 9862   2.544   3.100   5.036  0.9798  1.5246 -0.9222
   99SAPC  H19S 9863   2.371   3.059   5.015 -0.1463  0.8278  1.2905
   99SAPC  C220 9864   2.415   3.274   5.005 -0.5744 -0.1611  0.5528
   99SAPC  H20R 9865   2.463   3.349   4.939  0.3538  1.7927  3.2559
   99SAPC  H20S 9866   2.435   3.301   5.111  2.8393 -4.0101  1.1596
   99SAPC  H20T 9867   2.308   3.287   4.976 -0.2600 -2.0507 -1.7881
   99SAPC   C33 9868   2.640   3.120   3.509  0.1085  0.3758 -0.1214
   99SAPC   H3X 9869   2.668   3.013   3.493  0.5118  0.5379 -0.5391
   99SAPC   H3Y 9870   2.533   3.132   3.484  0.1361 -0.3590 -0.6228
   99SAPC   C34 9871   2.661   3.153   3.657  0.3286 -0.0210 -0.4030
   99SAPC   H4X 9872   2.644   3.263   3.666  1.0651  0.0698 -0.0563
   99SAPC   H4Y 9873   2.764   3.129   3.691  0.4234 -0.3982 -0.9479
   99SAPC   C35 9874   2.552   3.082   3.744  0.2715  0.1117 -0.1007
   99SAPC   H5X 9875   2.576   2.973   3.744 -0.0950  0.0255 -0.5649
   99SAPC   H5Y 9876   2.455   3.095   3.691  0.2818  1.8952  0.2749
   99SAPC   C36 9877   2.551   3.128   3.883 -0.1762 -0.4533 -0.0475
   99SAPC   H6X 9878   2.470   3.087   3.948 -0.2999  0.7298  0.5629
   99SAPC   H6Y 9879   2.539   3.238   3.890  0.8423 -0.3053 -0.4859
   99SAPC   C37 9880   2.671   3.085   3.970 -0.7668 -0.5723 -0.1076
   99SAPC   H7X 9881   2.741   3.171   3.963  0.1558 -1.0506  2.2604
   99SAPC   H7Y 9882   2.718   2.996   3.923  1.4510  0.6085 -0.2531
   99SAPC   C38 9883   2.646   3.069   4.119  0.4162 -0.6971 -0.2897
   99SAPC   H8X 9884   2.552   3.011   4.131 -1.6658  2.0783 -1.9451
   99SAPC   H8Y 9885   2.625   3.172   4.157 -0.4646 -1.1450  0.4812
   99SAPC   C39 9886   2.766   3.002   4.180 -0.0243 -0.1403 -0.1173
   99SAPC   H9X 9887   2.860   3.061   4.169 -0.1839  0.7373  2.5951
   99SAPC   H9Y 9888   2.785   2.908   4.124  1.1968 -1.5911  2.5669
   99SAPC  C310 9889   2.749   2.988   4.329  0.5258  0.7691  0.0928
   99SAPC  H10X 9890   2.645   2.954   4.348  0.1346  0.2654 -2.5630
   99SAPC  H10Y 9891   2.757   3.086   4.380 -2.2111  2.5270 -2.5003
   99SAPC  C311 9892   2.829   2.869   4.381 -0.4206  0.4077 -1.0321
   99SAPC  H11X 9893   2.930   2.880   4.336 -0.7419 -0.1120 -1.9075
   99SAPC  H11Y 9894   2.787   2.770   4.351 -0.3838  0.4087 -1.0877
   99SAPC  C312 9895   2.837   2.860   4.536 -0.7479  0.7255 -0.0581
   99SAPC  H12X 9896   2.739   2.872   4.588 -0.7291  1.5416 -0.2027
   99SAPC  H12Y 9897   2.907   2.938   4.571 -0.8292  0.6748  0.2138
   99SAPC  C313 9898   2.888   2.723   4.584 -0.2228  0.3006  0.5436
   99SAPC  H13X 9899   2.949   2.670   4.508 -1.1296  1.1883 -0.8380
   99SAPC  H13Y 9900   2.804   2.657   4.615  0.2291 -1.3042 -1.4185
   99SAPC  C314 9901   2.985   2.752   4.708  0.2346  0.5774  0.2577
   99SAPC  H14X 9902   2.945   2.799   4.800  0.7688  2.1018 -0.2550
   99SAPC  H14Y 9903   3.077   2.805   4.676  1.1866 -2.0206 -1.6919
   99SAPC  C315 9904   3.037   2.615   4.758  0.3248  0.3515 -0.6427
   99SAPC  H15X 9905   3.113   2.582   4.683 -1.5754 -1.8315 -1.7366
   99SAPC  H15Y 9906   2.956   2.539   4.766  0.9164 -0.3663 -1.2383
   99SAPC  C316 9907   3.113   2.631   4.893  0.1144  0.3674 -0.0870
   99SAPC  H16X 9908   3.052   2.620   4.985 -1.4282  3.1279 -0.6605
   99SAPC  H16Y 9909   3.156   2.733   4.891 -0.4901  0.6182 -0.6103
   99SAPC  C317 9910   3.236   2.535   4.900 -0.5419 -0.2616 -0.0862
   99SAPC  H17X 9911   3.278   2.575   4.995 -0.7642 -2.4414  0.9884
   99SAPC  H17Y 9912   3.298   2.558   4.810  2.3233  0.2408  1.8822
   99SAPC  C318 9913   3.203   2.386   4.893 -0.4131 -0.6690  0.4853
   99SAPC  H18X 9914   3.152   2.356   4.798  0.1325  0.8475 -0.3261
   99SAPC  H18Y 9915   3.137   2.366   4.980  0.4420 -1.6986  0.9156
   99SAPC  H18Z 9916   3.290   2.319   4.883 -0.1865 -0.1485 -1.7506
  100SAPC     N 9917   1.311   3.152   3.025 -1.0643  0.5501 -0.2765
  100SAPC   C12 9918   1.224   3.250   3.097  0.1323 -0.6076 -0.2177
  100SAPC  H12A 9919   1.133   3.209   3.137  0.0465  0.7621  1.0832
  100SAPC  H12B 9920   1.189   3.326   3.030 -2.1289  0.0229  1.5585
  100SAPC   C13 9921   1.235   3.077   2.922 -0.4238  0.1707 -0.0122
  100SAPC  H13A 9922   1.302   3.015   2.864 -1.5396 -3.1362  1.9444
  100SAPC  H13B 9923   1.154   3.018   2.962  0.7833 -0.4168  1.7121
  100SAPC  H13C 9924   1.186   3.135   2.846  0.0507  0.5025 -0.0657
  100SAPC   C14 9925   1.433   3.209   2.963  0.3444  0.7509  0.2645
  100SAPC  H14A 9926   1.504   3.132   2.938  1.8522  1.3682  2.4196
  100SAPC  H14B 9927   1.396   3.260   2.875 -1.1863 -2.0888 -0.8713
  100SAPC  H14C 9928   1.484   3.280   3.025 -0.9564  0.6561  1.4950
  100SAPC   C15 9929   1.361   3.058   3.130  0.3167  0.1377 -0.0013
  100SAPC  H15A 9930   1.279   3.020   3.189 -0.6115 -0.0595 -1.3706
  100SAPC  H15B 9931   1.412   2.977   3.080 -1.6240 -0.3851 -1.2468
  100SAPC  H15C 9932   1.424   3.103   3.205  0.6704 -1.2498  0.5733
  100SAPC   C11 9933   1.287   3.324   3.222  0.3479  0.9754 -0.3611
  100SAPC  H11A 9934   1.301   3.248   3.303 -1.1406  0.7544 -0.2840
  100SAPC  H11B 9935   1.205   3.389   3.260  1.0088  2.1656 -0.9271
  100SAPC     P 9936   1.388   3.545   3.147 -0.5071 -0.1130  0.2266
  100SAPC   O13 9937   1.523   3.595   3.132 -0.5468  0.3824 -0.6272
  100SAPC   O14 9938   1.302   3.551   3.029  0.0191 -1.1114 -0.2571
  100SAPC   O12 9939   1.403   3.391   3.193  0.3877 -0.2908 -0.3817
  100SAPC   O11 9940   1.320   3.618   3.265  0.2137  0.2770 -0.1730
  100SAPC    C1 9941   1.354   3.579   3.401  0.3408  0.7302  0.6980
  100SAPC    HA 9942   1.276   3.620   3.468 -2.0650 -1.3621 -0.6712
  100SAPC    HB 9943   1.345   3.470   3.419  2.2955  0.5660  0.9051
  100SAPC    C2 9944   1.482   3.643   3.460 -0.3412 -0.4030  0.7784
  100SAPC    HS 9945   1.566   3.599   3.402  0.8911  0.3485  1.9366
  100SAPC   O21 9946   1.498   3.628   3.601  0.0235  0.2738  0.5483
  100SAPC   C21 9947   1.544   3.507   3.631  0.0141  0.2463 -0.5552
  100SAPC   O22 9948   1.573   3.420   3.554 -0.0605 -0.0997  0.1486
  100SAPC   C22 9949   1.535   3.487   3.781 -0.2868 -0.3589  0.1815
  100SAPC   H2R 9950   1.575   3.575   3.836  2.1729 -1.2960  0.0177
  100SAPC   H2S 9951   1.426   3.482   3.801 -0.4979 -1.7216 -1.0603
  100SAPC    C3 9952   1.489   3.792   3.419 -0.1314  0.2453 -0.5235
  100SAPC    HX 9953   1.407   3.853   3.462 -1.7903 -1.2841 -1.3890
  100SAPC    HY 9954   1.481   3.797   3.309  1.5920 -2.5333 -0.8636
  100SAPC   O31 9955   1.621   3.839   3.457  0.2602 -0.1334 -0.2689
  100SAPC   C31 9956   1.632   3.971   3.449 -0.7563 -0.0730  0.1706
  100SAPC   O32 9957   1.545   4.041   3.401 -0.2554  0.2635  0.2204
  100SAPC   C32 9958   1.762   4.022   3.504 -0.3675 -0.0918 -0.2574
  100SAPC   H2X 9959   1.836   4.027   3.421  1.1457  1.3745  1.0865
  100SAPC   H2Y 9960   1.802   3.956   3.584  0.6961  0.4427 -0.3273
  100SAPC   C23 9961   1.594   3.357   3.827  0.2934  1.3185  0.1727
  100SAPC   H3R 9962   1.675   3.310   3.768 -1.3344 -3.2816  1.1991
  100SAPC   H3S 9963   1.518   3.276   3.827  2.6027 -1.0391  1.4578
  100SAPC   C24 9964   1.638   3.371   3.973  0.0563 -0.1483 -0.4659
  100SAPC   H4R 9965   1.546   3.382   4.035  1.6163  1.6886  1.6429
  100SAPC   H4S 9966   1.699   3.463   3.981 -0.2370  0.1459 -1.4170
  100SAPC   C25 9967   1.720   3.251   4.012  0.3962  0.2682 -0.1575
  100SAPC   H5R 9968   1.733   3.178   3.931 -0.6266 -0.6979  0.5053
  100SAPC   C26 9969   1.754   3.216   4.140 -0.0977  0.3069 -0.8575
  100SAPC   H6R 9970   1.828   3.135   4.147  0.3175  0.7201 -0.3606
  100SAPC   C27 9971   1.722   3.279   4.271  0.2178 -0.1391  0.2658
  100SAPC   H7R 9972   1.652   3.364   4.258 -0.4448 -0.8646 -1.0752
  100SAPC   H7S 9973   1.820   3.297   4.320  1.0145 -0.9654 -0.9665
  100SAPC   C28 9974   1.643   3.180   4.355  0.1038 -0.5849  0.4024
  100SAPC   H8R 9975   1.538   3.170   4.324  0.2366 -3.2433  0.6300
  100SAPC   C29 9976   1.675   3.110   4.466  0.6669  0.4680 -0.4881
  100SAPC   H9R 9977   1.601   3.040   4.508  2.0204 -1.4718 -1.1855
  100SAPC  C210 9978   1.809   3.102   4.531 -0.1427 -0.7494  1.0714
  100SAPC  H10R 9979   1.797   3.173   4.615  1.6459  0.5766  0.2782
  100SAPC  H10S 9980   1.893   3.133   4.465  0.4967 -0.8888  1.8097
  100SAPC  C211 9981   1.839   2.962   4.583 -0.6884 -0.3261 -0.1809
  100SAPC  H11R 9982   1.915   2.907   4.525  1.1532 -1.0311  2.6684
  100SAPC  C212 9983   1.810   2.907   4.700 -0.3021 -0.3057  0.3333
  100SAPC  H12R 9984   1.855   2.814   4.740  2.2935  0.6834 -0.0567
  100SAPC  C213 9985   1.717   2.975   4.798 -0.4715  0.3294 -0.5601
  100SAPC  H13R 9986   1.696   3.081   4.773 -1.7200  0.5803  1.3383
  100SAPC  H13S 9987   1.767   2.985   4.896 -0.8307  0.4022 -0.3800
  100SAPC  C214 9988   1.589   2.893   4.815  0.1041 -0.4618  0.3120
  100SAPC  H14R 9989   1.604   2.789   4.848  0.0645 -0.5774 -0.0314
  100SAPC  C215 9990   1.464   2.929   4.783  0.0347 -1.1816  0.8763
  100SAPC  H15R 9991   1.395   2.843   4.785  0.5412 -1.5862  1.2701
  100SAPC  C216 9992   1.417   3.054   4.715 -0.3044 -0.3245  0.1748
  100SAPC  H16R 9993   1.397   3.032   4.608 -0.5247  0.7018 -0.0064
  100SAPC  H16S 9994   1.488   3.139   4.723 -2.4195  1.3541  2.7475
  100SAPC  C217 9995   1.295   3.109   4.784  0.5288 -0.2682  0.0254
  100SAPC  H17R 9996   1.208   3.040   4.776 -1.7503  2.1252  2.1502
  100SAPC  H17S 9997   1.263   3.203   4.734  0.5144  0.2844  1.0635
  100SAPC  C218 9998   1.315   3.133   4.936  1.0146 -0.6876  0.6845
  100SAPC  H18R 9999   1.370   3.051   4.986 -0.4350 -2.1382  0.0052
  100SAPC  H18S10000   1.215   3.133   4.984  0.8004  0.5870  0.2866
  100SAPC  C21910001   1.376   3.277   4.958 -0.0431  0.0336  0.1023
  100SAPC  H19R10002   1.310   3.357   4.919  1.7517  2.0403  0.9614
  100SAPC  H19S10003   1.481   3.278   4.921  0.0478 -1.2457  0.2621
  100SAPC  C22010004   1.389   3.316   5.104 -0.1521  0.1079 -0.1339
  100SAPC  H20R10005   1.304   3.274   5.163  1.0340 -1.2593  0.6773
  100SAPC  H20S10006   1.403   3.426   5.108  0.2685  0.0319  0.6100
  100SAPC  H20T10007   1.484   3.267   5.134  0.9768  1.8383 -0.7562
  100SAPC   C3310008   1.757   4.171   3.543  0.0350 -0.3786  0.7556
  100SAPC   H3X10009   1.697   4.225   3.467 -0.8509 -2.9956 -0.5513
  100SAPC   H3Y10010   1.863   4.201   3.537 -0.3146  0.8032  0.0447
  100SAPC   C3410011   1.696   4.224   3.677  0.2020  0.4086  0.0159
  100SAPC   H4X10012   1.606   4.160   3.682  1.3786 -1.6195 -2.5484
  100SAPC   H4Y10013   1.670   4.331   3.664 -0.5840  0.1618 -0.5091
  100SAPC   C3510014   1.802   4.192   3.783 -0.2111  0.0485 -0.0375
  100SAPC   H5X10015   1.881   4.270   3.780  1.4324 -1.5444 -0.2109
  100SAPC   H5Y10016   1.855   4.097   3.761 -2.8634 -2.0008  1.7933
  100SAPC   C3610017   1.739   4.197   3.923 -0.4222  0.5390  0.2001
  100SAPC   H6X10018   1.657   4.123   3.923  1.5806 -1.8063  1.0487
  100SAPC   H6Y10019   1.718   4.300   3.961  1.7307  0.3675  2.1071
  100SAPC   C3710020   1.842   4.142   4.026 -0.8854  0.4807 -0.1599
  100SAPC   H7X10021   1.918   4.223   4.029 -0.6977  0.2855  1.1552
  100SAPC   H7Y10022   1.885   4.049   3.982 -0.9767  0.9405 -1.2519
  100SAPC   C3810023   1.779   4.108   4.159  0.2331 -0.0966 -0.5295
  100SAPC   H8X10024   1.715   4.018   4.154 -0.9782  0.8109 -1.8400
  100SAPC   H8Y10025   1.709   4.194   4.168  1.7027  1.1849 -0.8334
  100SAPC   C3910026   1.889   4.100   4.271  0.4180 -0.0653  0.2825
  100SAPC   H9X10027   1.946   4.195   4.266  0.3965 -0.0375  0.5562
  100SAPC   H9Y10028   1.952   4.009   4.263  0.0189 -0.5961  2.4519
  100SAPC  C31010029   1.811   4.082   4.401  0.4075  0.3203  0.7930
  100SAPC  H10X10030   1.751   3.988   4.405  1.9342 -0.6750  0.8718
  100SAPC  H10Y10031   1.743   4.168   4.421 -1.0103 -0.8452  1.1972
  100SAPC  C31110032   1.906   4.087   4.519 -0.4335 -0.7075 -0.3885
  100SAPC  H11X10033   1.965   4.181   4.525 -2.0288  0.4367 -1.5148
  100SAPC  H11Y10034   1.970   3.996   4.519 -1.1022 -1.1904  0.1665
  100SAPC  C31210035   1.834   4.090   4.653 -0.6398 -0.3817 -0.3923
  100SAPC  H12X10036   1.793   3.987   4.663 -0.5709 -0.4340 -0.6618
  100SAPC  H12Y10037   1.747   4.160   4.656 -1.8420 -1.7130  3.7613
  100SAPC  C31310038   1.924   4.114   4.781  0.6077 -0.4937  0.5265
  100SAPC  H13X10039   1.979   4.210   4.770 -1.6893  0.6531 -2.3110
  100SAPC  H13Y10040   1.997   4.031   4.794  0.3060 -0.4829  2.5698
  100SAPC  C31410041   1.840   4.126   4.907 -0.5090  0.2480 -0.8907
  100SAPC  H14X10042   1.795   4.025   4.922  0.7791 -0.0393  1.6882
  100SAPC  H14Y10043   1.766   4.208   4.892  0.3337  0.9603 -1.2013
  100SAPC  C31510044   1.930   4.158   5.023 -0.2961 -0.1642 -0.2944
  100SAPC  H15X10045   1.969   4.262   5.018 -0.9803  0.0510 -1.9393
  100SAPC  H15Y10046   2.020   4.094   5.015  0.0254  0.4116 -1.4940
  100SAPC  C31610047   1.861   4.137   5.165 -0.1762  0.3115  0.2204
  100SAPC  H16X10048   1.933   4.175   5.241 -0.5052 -0.7406  1.0748
  100SAPC  H16Y10049   1.840   4.030   5.185  1.8980  0.4054  3.6244
  100SAPC  C31710050   1.746   4.224   5.190  0.2860 -0.1903  0.9633
  100SAPC  H17X10051   1.675   4.218   5.105 -0.2455  0.8505  1.3164
  100SAPC  H17Y10052   1.775   4.331   5.192 -2.8240  0.7448  1.8039
  100SAPC  C31810053   1.677   4.198   5.328 -0.0136 -0.3713  0.5638
  100SAPC  H18X10054   1.631   4.097   5.328 -1.9559  0.4727  1.0865
  100SAPC  H18Y10055   1.602   4.279   5.338 -0.6274 -0.9860  1.0534
  100SAPC  H18Z10056   1.763   4.203   5.398 -0.1678  1.8407  0.6609
  101OSM      N10057   2.540   0.140   7.673 -0.0954 -0.3698  0.5338
  101OSM    C1510058   2.523   0.029   7.761  0.3985  0.1905  0.5824
  101OSM   H15A10059   2.618  -0.012   7.793  0.0373 -1.3804 -0.2385
  101OSM   H15B10060   2.482  -0.053   7.703  0.8541  0.7945 -0.6242
  101OSM   H15C10061   2.457   0.047   7.845  0.1726  2.7390 -0.0761
  101OSM    C1410062   2.396   0.202   7.651  0.0599 -0.1733  0.4300
  101OSM   H14A10063   2.337   0.199   7.741 -0.2988  0.2315  0.2169
  101OSM   H14B10064   2.349   0.137   7.579  0.0566 -0.5522  0.7718
  101OSM   H14C10065   2.400   0.308   7.629  0.6815 -0.1258  0.7419
  101OSM    C1310066   2.626   0.247   7.734  0.7447  0.1267  0.2140
  101OSM   H13A10067   2.726   0.212   7.756 -0.3824 -1.8474  2.5976
  101OSM   H13B10068   2.577   0.265   7.828  2.1515 -0.2523  1.0547
  101OSM   H13C10069   2.631   0.332   7.668  0.2078 -1.4107 -1.8951
  101OSM    C1210070   2.592   0.092   7.542 -0.2360 -0.5989 -0.3229
  101OSM   H12A10071   2.604   0.173   7.472 -0.3994 -0.5176 -0.2569
  101OSM   H12B10072   2.520   0.021   7.505 -0.9923  0.3796 -0.7835
  101OSM    C1110073   2.732   0.019   7.534 -0.1372  0.2872  0.0836
  101OSM   H11A10074   2.749  -0.022   7.432  2.1822  1.6569 -0.1450
  101OSM   H11B10075   2.731  -0.066   7.604 -1.1810 -0.2053 -0.5051
  101OSM      P10076   2.889   0.220   7.469 -0.4048  0.1259 -0.4127
  101OSM    O1310077   2.865   0.356   7.524  0.3291  0.5023  0.3723
  101OSM    O1410078   3.030   0.197   7.433 -1.0071  0.3613  0.2538
  101OSM    O1110079   2.803   0.206   7.339  0.2782  0.1662  0.1059
  101OSM    O1210080   2.838   0.102   7.572  0.5005 -0.2498  0.2041
  101OSM    C1S10081   2.852   0.164   7.215  0.1336 -0.2113  0.2948
  101OSM    H1S10082   2.898   0.064   7.231 -1.8669 -1.1483  0.4748
  101OSM    H1T10083   2.937   0.232   7.196  2.2451 -2.5471  0.8293
  101OSM     NF10084   2.826   0.085   6.993 -0.9477 -0.2162 -0.1193
  101OSM    HNF10085   2.862   0.141   6.919 -0.2952  1.2153  1.2142
  101OSM    C2S10086   2.751   0.148   7.098  0.5017 -0.5258  0.2791
  101OSM    H2S10087   2.664   0.085   7.126  0.3455 -1.1093 -1.3763
  101OSM    C3S10088   2.693   0.289   7.054  0.6691  0.4469  0.3835
  101OSM    H3S10089   2.783   0.344   7.020  1.4441 -2.1177 -2.0793
  101OSM     O310090   2.642   0.352   7.173  0.1951  0.5011  0.7821
  101OSM    HO310091   2.683   0.290   7.234 -1.7523  0.3820  2.0371
  101OSM    C4S10092   2.586   0.273   6.943 -0.3329  0.2792 -1.1647
  101OSM    H4S10093   2.501   0.209   6.972  2.4795 -2.6670  1.3133
  101OSM    C5S10094   2.596   0.328   6.819  0.0286 -0.1850 -0.2233
  101OSM    H5S10095   2.682   0.391   6.792 -0.0288  0.0045  0.0353
  101OSM    C6S10096   2.493   0.307   6.704  0.1337 -0.6406 -0.4790
  101OSM    H6S10097   2.531   0.230   6.634  3.9061 -0.8751  1.5016
  101OSM    H6T10098   2.482   0.402   6.648 -1.5446 -0.6150 -0.1538
  101OSM    C7S10099   2.347   0.277   6.746  0.2527  0.7137 -0.0225
  101OSM    H7S10100   2.311   0.327   6.838  0.7621 -1.2562  1.3105
  101OSM    H7T10101   2.341   0.168   6.765  0.3669  0.7604  0.2904
  101OSM    C8S10102   2.241   0.295   6.634 -0.4495  0.6041 -0.0580
  101OSM    H8S10103   2.268   0.246   6.538  0.2585 -0.8222  0.8227
  101OSM    H8T10104   2.229   0.402   6.610  0.0228  0.5813 -0.4043
  101OSM    C9S10105   2.109   0.223   6.664  0.1945  0.5666  0.2295
  101OSM    H9S10106   2.075   0.262   6.762 -1.8145  0.8489 -0.5343
  101OSM    H9T10107   2.142   0.117   6.673 -0.7764 -0.0193 -2.4230
  101OSM   C10S10108   2.004   0.237   6.554  0.0013 -0.0733 -0.4904
  101OSM   H10S10109   1.997   0.345   6.533 -0.3900 -0.3554 -1.9321
  101OSM   H10T10110   1.906   0.204   6.595  1.0618 -0.6752  1.7078
  101OSM   C11S10111   2.042   0.157   6.427 -0.4350 -0.4191 -0.3995
  101OSM   H11S10112   2.058   0.049   6.444  0.0772 -1.0818 -4.1886
  101OSM   H11T10113   2.127   0.212   6.379 -1.3209  1.6617  0.2851
  101OSM   C12S10114   1.943   0.159   6.317 -0.0201 -0.4373  0.1630
  101OSM   H12S10115   1.911   0.264   6.299 -1.5625 -0.5570  1.8259
  101OSM   H12T10116   1.853   0.103   6.352  0.0277 -1.5146 -1.3515
  101OSM   C13S10117   1.975   0.085   6.191 -0.9431  0.8692 -0.7087
  101OSM   H13S10118   2.000  -0.021   6.215 -1.2614  0.7610 -0.8461
  101OSM   H13T10119   2.064   0.127   6.140  0.5653 -0.4679  0.7189
  101OSM   C14S10120   1.856   0.066   6.093  0.1974 -0.5182  0.2537
  101OSM   H14S10121   1.817   0.164   6.059  1.8453  0.2662  0.5502
  101OSM   H14T10122   1.779   0.017   6.157  0.2505 -1.0584 -0.0892
  101OSM   C15S10123   1.882  -0.014   5.965 -0.2725 -0.2746 -0.1954
  101OSM   H15S10124   1.781  -0.046   5.932 -0.8440  2.1971 -1.0747
  101OSM   H15T10125   1.928  -0.114   5.984  1.2343  0.5661  0.7715
  101OSM   C16S10126   1.957   0.055   5.853  0.6351 -0.6844 -0.4443
  101OSM   H16S10127   2.059   0.068   5.895 -0.2184 -1.1993  1.9197
  101OSM   H16T10128   1.909   0.155   5.844 -2.2165 -1.7036  1.8624
  101OSM   C17S10129   1.967  -0.027   5.730  0.3964  0.2543  0.1272
  101OSM   H17S10130   2.012  -0.127   5.748  4.2580  1.9802  1.1096
  101OSM   H17T10131   2.035   0.038   5.671  0.2461  1.2882  1.0739
  101OSM   C18S10132   1.838  -0.052   5.639  0.6070 -0.7440  0.3352
  101OSM   H18S10133   1.818   0.045   5.589 -0.6757  0.0597  2.2749
  101OSM   H18T10134   1.748  -0.072   5.702 -0.3531  0.6714 -0.5237
  101OSM   H18U10135   1.855  -0.139   5.572  0.4238  0.1043 -0.8460
  101OSM    C1F10136   2.855  -0.043   6.979 -0.3541  0.5555  0.3745
  101OSM     OF10137   2.859  -0.117   7.079  0.3963  0.5339  0.0760
  101OSM    C2F10138   2.899  -0.099   6.841  0.5622 -0.0844 -0.1820
  101OSM    H2F10139   2.865  -0.204   6.824  0.9920 -0.4405  1.0149
  101OSM    H2G10140   3.010  -0.099   6.843  0.5705  0.3541  1.7929
  101OSM    C3F10141   2.846  -0.021   6.718  0.6084  0.0299  0.0347
  101OSM    H3F10142   2.875   0.086   6.721 -1.1990  0.6061 -1.0373
  101OSM    H3G10143   2.736  -0.009   6.726  0.6120  1.3962 -1.4035
  101OSM    C4F10144   2.877  -0.072   6.582 -0.3615  0.3858 -0.7670
  101OSM    H4F10145   2.859  -0.182   6.579 -1.2856  0.4743  0.5938
  101OSM    H4G10146   2.986  -0.050   6.579  0.5796 -3.4147  0.2036
  101OSM    C5F10147   2.802   0.003   6.479 -0.1955  0.4295 -0.4202
  101OSM    H5F10148   2.859   0.098   6.474  0.5683  0.4079  3.9164
  101OSM    H5G10149   2.698   0.019   6.514 -0.4408 -2.0043  0.1058
  101OSM    C6F10150   2.808  -0.069   6.345 -0.3849  0.1658  0.3064
  101OSM    H6F10151   2.779  -0.175   6.363 -0.4547  0.0011 -0.7058
  101OSM    H6G10152   2.905  -0.069   6.291 -0.0358  0.5593  0.9203
  101OSM    C7F10153   2.707  -0.005   6.247  0.0108  0.0874  0.7236
  101OSM    H7F10154   2.719   0.105   6.244  1.8938 -0.0923  0.7513
  101OSM    H7G10155   2.599  -0.017   6.271  0.0124  0.7026  1.0560
  101OSM    C8F10156   2.744  -0.029   6.100  0.6253 -0.0814  0.2412
  101OSM    H8F10157   2.844   0.009   6.069 -0.6110  1.4246 -2.2526
  101OSM    H8G10158   2.672   0.019   6.029  1.4040 -0.7962 -1.0711
  101OSM    C9F10159   2.744  -0.178   6.076  0.8925  0.3045 -0.0361
  101OSM    H9F10160   2.735  -0.238   6.168  0.3230  0.3330 -0.0680
  101OSM   C10F10161   2.759  -0.244   5.958  0.3264  0.4017 -0.0735
  101OSM   H10F10162   2.760  -0.354   5.969 -2.0053  0.4661  1.5688
  101OSM   C11F10163   2.784  -0.182   5.820  0.5101 -0.0304 -0.2251
  101OSM   H11F10164   2.802  -0.073   5.830  0.2799  0.0887 -1.0772
  101OSM   H11G10165   2.697  -0.191   5.752 -0.4755 -0.7544  1.0749
  101OSM   C12F10166   2.915  -0.238   5.754  0.2590  0.8763  1.0428
  101OSM   H12F10167   2.903  -0.346   5.729 -0.3357  1.2782 -0.4482
  101OSM   H12G10168   2.997  -0.242   5.829  1.5183 -2.3312 -0.2794
  101OSM   C13F10169   2.951  -0.171   5.622  0.1771  0.3309  0.0494
  101OSM   H13F10170   2.952  -0.060   5.629 -1.6470  0.4630 -1.0539
  101OSM   H13G10171   2.877  -0.197   5.543  0.2801 -1.6195  0.5549
  101OSM   C14F10172   3.087  -0.209   5.572  1.2064  0.1344 -0.2596
  101OSM   H14F10173   3.099  -0.314   5.608  0.8489 -0.7321 -2.4968
  101OSM   H14G10174   3.156  -0.141   5.626  1.0805  1.1462 -1.3390
  101OSM   C15F10175   3.108  -0.207   5.415  0.3247  0.5416 -0.5426
  101OSM   H15F10176   3.217  -0.207   5.392  0.5734 -0.4424  0.5353
  101OSM   H15G10177   3.071  -0.110   5.376  0.5842  0.9748  0.2583
  101OSM   C16F10178   3.052  -0.334   5.348 -0.3034 -0.2837  0.6460
  101OSM   H16F10179   2.944  -0.319   5.370 -1.5169 -1.7928 -3.5044
  101OSM   H16G10180   3.096  -0.426   5.392 -0.2259 -0.4592  0.1979
  101OSM   C17F10181   3.078  -0.340   5.202 -0.6622 -0.0896 -0.5653
  101OSM   H17F10182   3.187  -0.345   5.185 -0.5026 -1.1163  0.6191
  101OSM   H17G10183   3.023  -0.252   5.161  0.1138 -0.0504 -1.5707
  101OSM   C18F10184   3.020  -0.464   5.134  0.3234 -0.2080 -0.0776
  101OSM   H18F10185   3.084  -0.555   5.142 -0.4288 -0.7512 -0.1370
  101OSM   H18G10186   3.007  -0.452   5.025  0.4018  0.8764  0.0235
  101OSM   H18H10187   2.928  -0.501   5.185  0.8687 -2.9054 -0.9065
  102OSM      N10188   4.212   0.116   7.151 -0.2194 -0.4284 -0.5066
  102OSM    C1510189   4.284  -0.010   7.117 -0.3345  0.0589 -0.1906
  102OSM   H15A10190   4.345   0.000   7.028  1.9746 -4.2126  0.6417
  102OSM   H15B10191   4.205  -0.080   7.095 -1.3665  0.4494  2.0501
  102OSM   H15C10192   4.348  -0.043   7.197  2.1100  0.5152 -1.8548
  102OSM    C1410193   4.320   0.220   7.170 -0.0525  0.6540  0.2833
  102OSM   H14A10194   4.395   0.182   7.236  0.4112 -3.1675 -2.1509
  102OSM   H14B10195   4.270   0.315   7.186 -0.4601  0.7582 -1.3718
  102OSM   H14C10196   4.370   0.228   7.074  0.5501  0.4034  0.5779
  102OSM    C1310197   4.130   0.173   7.035 -0.8315  0.3625 -0.8963
  102OSM   H13A10198   4.097   0.273   7.058  0.3013  0.2966  1.1868
  102OSM   H13B10199   4.034   0.125   7.028 -1.3377  1.3512 -0.9624
  102OSM   H13C10200   4.179   0.158   6.940 -0.9895  0.7482 -1.0417
  102OSM    C1210201   4.128   0.114   7.275  0.5657  0.4137 -0.3092
  102OSM   H12A10202   4.057   0.196   7.273 -2.1899 -1.8013  0.0204
  102OSM   H12B10203   4.195   0.130   7.358  0.5229 -0.2544 -0.1436
  102OSM    C1110204   4.035  -0.011   7.291  0.1930 -0.6211 -0.2611
  102OSM   H11A10205   3.986  -0.013   7.391 -0.5437  1.1002 -0.5649
  102OSM   H11B10206   4.103  -0.099   7.300 -0.2248 -0.8093  1.3834
  102OSM      P10207   3.929  -0.165   7.113  0.0408 -0.2162 -0.2629
  102OSM    O1310208   4.065  -0.204   7.059  0.0820  1.0315 -0.1711
  102OSM    O1410209   3.865  -0.263   7.199 -0.0285  0.0281 -0.1016
  102OSM    O1110210   3.841  -0.137   6.986  0.0372  0.1163  0.0187
  102OSM    O1210211   3.940  -0.022   7.190  0.0722  0.0471 -0.0671
  102OSM    C1S10212   3.814  -0.002   6.942  0.3521  0.0974 -0.6942
  102OSM    H1S10213   3.908   0.057   6.939  0.4828 -0.0994 -4.3395
  102OSM    H1T10214   3.753   0.049   7.020 -0.5274 -2.7691  0.6364
  102OSM     NF10215   3.747   0.146   6.753  0.4058  0.1885 -0.2132
  102OSM    HNF10216   3.671   0.209   6.766  0.9672  0.5073  1.8611
  102OSM    C2S10217   3.743   0.014   6.810  0.8017 -0.0322 -0.4217
  102OSM    H2S10218   3.800  -0.034   6.728  2.5550  1.3255 -0.0628
  102OSM    C3S10219   3.602  -0.054   6.822 -0.0177  0.1310  0.7698
  102OSM    H3S10220   3.537   0.014   6.881 -0.2980  0.1822  0.4056
  102OSM     O310221   3.599  -0.177   6.899 -0.2042  0.4845 -0.6999
  102OSM    HO310222   3.692  -0.191   6.920  0.0284  2.7087  0.1049
  102OSM    C4S10223   3.541  -0.072   6.684  0.1875 -0.5838 -0.3118
  102OSM    H4S10224   3.466   0.004   6.658 -1.3660 -1.6513  0.8320
  102OSM    C5S10225   3.568  -0.173   6.592  0.0530  0.5901  0.3862
  102OSM    H5S10226   3.655  -0.240   6.604  0.4840  1.2806  1.2578
  102OSM    C6S10227   3.511  -0.194   6.449 -0.3648  0.0577 -0.8591
  102OSM    H6S10228   3.444  -0.282   6.443  0.5115 -0.6473 -0.5011
  102OSM    H6T10229   3.600  -0.229   6.392 -1.6671 -0.3034 -2.7565
  102OSM    C7S10230   3.463  -0.057   6.404  0.6737  0.1722  0.3763
  102OSM    H7S10231   3.548   0.015   6.407  1.7580 -1.0642  0.0341
  102OSM    H7T10232   3.374  -0.019   6.458  0.6606 -2.7056  2.6263
  102OSM    C8S10233   3.416  -0.066   6.261  0.5361  0.0231  0.4301
  102OSM    H8S10234   3.496  -0.106   6.195  0.2586 -2.6096  1.5728
  102OSM    H8T10235   3.395   0.037   6.226 -1.1825 -0.1420  0.8881
  102OSM    C9S10236   3.270  -0.121   6.236 -0.2945  0.2106 -0.9205
  102OSM    H9S10237   3.202  -0.044   6.278 -0.8082 -1.5302  1.6946
  102OSM    H9T10238   3.259  -0.219   6.287  1.5036 -0.5356 -1.8714
  102OSM   C10S10239   3.236  -0.139   6.089  0.6005  0.5356 -0.2898
  102OSM   H10S10240   3.235  -0.042   6.036  1.0456  0.0359 -1.2393
  102OSM   H10T10241   3.134  -0.180   6.076  1.6164 -2.1557 -0.5922
  102OSM   C11S10242   3.326  -0.235   6.015 -0.2116  0.3432  0.5291
  102OSM   H11S10243   3.435  -0.215   6.016 -0.1781  0.5350 -1.6961
  102OSM   H11T10244   3.321  -0.212   5.906  2.3252  0.0491  0.3063
  102OSM   C12S10245   3.310  -0.385   6.054 -0.1711  0.3508  0.6308
  102OSM   H12S10246   3.204  -0.416   6.062 -0.1947  0.4488  0.6970
  102OSM   H12T10247   3.358  -0.401   6.153  0.1326  0.6363  0.5328
  102OSM   C13S10248   3.369  -0.480   5.953  0.3451 -0.2747 -0.6414
  102OSM   H13S10249   3.342  -0.586   5.971  1.1677 -0.4400 -0.3500
  102OSM   H13T10250   3.479  -0.474   5.962  0.3645  3.5786 -1.8163
  102OSM   C14S10251   3.333  -0.448   5.801 -0.5137 -0.0194 -0.2701
  102OSM   H14S10252   3.394  -0.361   5.768  1.6885 -1.1261  0.6864
  102OSM   H14T10253   3.227  -0.417   5.788 -0.6247 -0.2510  0.0575
  102OSM   C15S10254   3.374  -0.560   5.703  0.3298  0.3265  0.2369
  102OSM   H15S10255   3.334  -0.659   5.732  2.1100 -0.1879  1.0904
  102OSM   H15T10256   3.484  -0.562   5.691  0.1208 -1.4992 -1.7824
  102OSM   C16S10257   3.325  -0.535   5.559 -0.5870  0.2041  0.1521
  102OSM   H16S10258   3.357  -0.434   5.526  0.1178 -0.5072 -1.4672
  102OSM   H16T10259   3.214  -0.533   5.559 -0.6074 -0.1704  1.3297
  102OSM   C17S10260   3.374  -0.636   5.456 -0.2371  0.5749  0.2095
  102OSM   H17S10261   3.326  -0.606   5.360  0.9701  0.2510 -0.5109
  102OSM   H17T10262   3.324  -0.732   5.482  0.0490 -0.1388 -1.7216
  102OSM   C18S10263   3.524  -0.665   5.437 -0.5917 -0.2879  0.5293
  102OSM   H18S10264   3.581  -0.656   5.532 -0.0302 -2.2120  0.4037
  102OSM   H18T10265   3.557  -0.585   5.367 -0.8115  0.6077  1.4163
  102OSM   H18U10266   3.549  -0.760   5.387  0.6075 -0.3014  1.1188
  102OSM    C1F10267   3.862   0.209   6.716  0.6035 -0.1824  0.2060
  102OSM     OF10268   3.978   0.164   6.742  0.8112 -0.1447 -0.2870
  102OSM    C2F10269   3.843   0.339   6.651 -0.3971  0.1379  0.0703
  102OSM    H2F10270   3.914   0.409   6.699  2.0166 -2.5500  0.6577
  102OSM    H2G10271   3.742   0.382   6.671  0.6303  2.6247  0.3084
  102OSM    C3F10272   3.879   0.334   6.503  0.2876  0.4814 -0.0767
  102OSM    H3F10273   3.976   0.292   6.468  0.1295  1.0457 -1.2470
  102OSM    H3G10274   3.878   0.441   6.473  1.2672  0.7821  0.8935
  102OSM    C4F10275   3.764   0.269   6.420  0.2439 -0.1683 -0.2825
  102OSM    H4F10276   3.672   0.332   6.424 -1.0094 -1.8039 -1.6447
  102OSM    H4G10277   3.745   0.176   6.477 -1.1641 -0.0988 -0.5977
  102OSM    C5F10278   3.792   0.250   6.266 -0.1569  0.3712 -0.0261
  102OSM    H5F10279   3.876   0.178   6.257  0.7455  1.5031 -0.8296
  102OSM    H5G10280   3.834   0.345   6.227 -1.1563  0.6192 -0.5427
  102OSM    C6F10281   3.671   0.188   6.192 -0.6626  0.0263 -0.6151
  102OSM    H6F10282   3.586   0.256   6.217 -0.7510 -0.2171 -0.2437
  102OSM    H6G10283   3.662   0.084   6.229  1.0318  0.0839  0.0260
  102OSM    C7F10284   3.684   0.165   6.042 -0.4485 -0.2288  0.1116
  102OSM    H7F10285   3.780   0.117   6.013  1.5016  2.4950  1.6047
  102OSM    H7G10286   3.692   0.267   5.997  0.4638 -1.0090 -1.6072
  102OSM    C8F10287   3.573   0.080   5.968  0.1944  0.1065 -0.3638
  102OSM    H8F10288   3.572  -0.019   6.019  1.4449  0.5163  0.5153
  102OSM    H8G10289   3.607   0.079   5.862 -0.2482  1.9241 -0.5496
  102OSM    C9F10290   3.440   0.132   5.956  0.3850 -0.0485 -0.1416
  102OSM    H9F10291   3.407   0.203   6.033 -1.2137  0.3435 -1.1488
  102OSM   C10F10292   3.358   0.110   5.852 -0.2920  0.4467 -0.8557
  102OSM   H10F10293   3.259   0.154   5.872 -0.5499  0.3944 -1.9135
  102OSM   C11F10294   3.379   0.023   5.734  0.2452  0.3522  0.3940
  102OSM   H11F10295   3.312  -0.063   5.755  0.1306  0.5779  0.9938
  102OSM   H11G10296   3.475  -0.032   5.723 -0.1182 -0.0843 -0.6219
  102OSM   C12F10297   3.362   0.090   5.599  0.3132 -0.9254 -0.4545
  102OSM   H12F10298   3.355   0.012   5.519 -0.4157  0.6613 -2.0140
  102OSM   H12G10299   3.449   0.159   5.591  1.2218 -1.7866  1.4132
  102OSM   C13F10300   3.230   0.166   5.579  0.5407  0.5416 -0.1155
  102OSM   H13F10301   3.194   0.218   5.670 -0.8966  2.4875 -1.6910
  102OSM   H13G10302   3.153   0.096   5.539  0.5779 -0.1938  1.0431
  102OSM   C14F10303   3.263   0.268   5.470 -0.2672 -0.1157 -0.1649
  102OSM   H14F10304   3.274   0.218   5.371 -0.0245  1.5008 -1.0003
  102OSM   H14G10305   3.354   0.327   5.496 -0.7867  0.4758  0.3589
  102OSM   C15F10306   3.152   0.379   5.436  0.8906 -0.6438 -0.3239
  102OSM   H15F10307   3.134   0.445   5.524 -1.2128 -1.8488  0.2213
  102OSM   H15G10308   3.056   0.324   5.423  2.1202 -2.6556 -1.4621
  102OSM   C16F10309   3.195   0.447   5.304  0.2336  0.4460  0.1038
  102OSM   H16F10310   3.106   0.491   5.254  0.7239  0.2420 -0.9814
  102OSM   H16G10311   3.226   0.370   5.230  0.2440 -0.6700  1.2431
  102OSM   C17F10312   3.302   0.561   5.315 -0.8142 -0.2204  0.0975
  102OSM   H17F10313   3.402   0.512   5.311 -0.3868  0.4791  1.4596
  102OSM   H17G10314   3.299   0.611   5.415  2.0226  0.0253  0.1314
  102OSM   C18F10315   3.298   0.662   5.205 -0.1549  0.7315 -0.0335
  102OSM   H18F10316   3.395   0.714   5.222  0.5128 -0.9546  1.6773
  102OSM   H18G10317   3.212   0.732   5.204 -1.6955 -1.0997 -0.3782
  102OSM   H18H10318   3.309   0.610   5.107 -1.1250 -1.4935  0.9707
  103OSM      N10319   1.305   1.273   7.483  0.0493 -0.5096  0.2351
  103OSM    C1510320   1.255   1.250   7.624  0.1268  0.2048  0.2152
  103OSM   H15A10321   1.337   1.231   7.691  0.2066 -0.5657 -0.0837
  103OSM   H15B10322   1.205   1.154   7.620 -0.0584  0.3290 -0.6910
  103OSM   H15C10323   1.188   1.323   7.667  0.2786 -1.4531  3.6040
  103OSM    C1410324   1.370   1.407   7.472  0.0757  0.1633  0.0061
  103OSM   H14A10325   1.437   1.415   7.556 -2.5241  0.8663  2.1631
  103OSM   H14B10326   1.305   1.491   7.491 -1.4582 -0.5874 -1.6577
  103OSM   H14C10327   1.415   1.407   7.374 -1.6908 -0.2111 -0.8405
  103OSM    C1310328   1.406   1.167   7.457 -0.0984 -0.2182 -0.3222
  103OSM   H13A10329   1.452   1.192   7.362 -0.6656 -0.0937 -0.5673
  103OSM   H13B10330   1.358   1.070   7.446 -3.8060  1.6308 -2.3182
  103OSM   H13C10331   1.481   1.162   7.534  0.8544  1.8640 -1.0478
  103OSM    C1210332   1.187   1.264   7.387 -0.2953 -0.3341 -0.1625
  103OSM   H12A10333   1.209   1.320   7.297 -1.0653  1.8879  0.9540
  103OSM   H12B10334   1.102   1.328   7.408 -1.6518 -1.9591 -0.4296
  103OSM    C1110335   1.149   1.125   7.344 -0.6445 -0.0515 -0.1784
  103OSM   H11A10336   1.223   1.097   7.266 -0.4176 -1.3874  0.4831
  103OSM   H11B10337   1.055   1.126   7.285 -0.3412 -1.2921 -0.7045
  103OSM      P10338   1.051   0.909   7.457  0.4236 -0.3217  0.2503
  103OSM    O1310339   1.097   0.827   7.572 -0.1730  0.3982  0.1783
  103OSM    O1410340   0.907   0.946   7.468  0.0299  0.7089  0.0845
  103OSM    O1110341   1.061   0.838   7.321 -0.3386 -0.2774 -0.1092
  103OSM    O1210342   1.149   1.030   7.450  0.3189  0.4603  0.1237
  103OSM    C1S10343   1.179   0.773   7.284 -0.9043  0.2188  0.5325
  103OSM    H1S10344   1.221   0.715   7.369  0.0954  1.0786  0.6558
  103OSM    H1T10345   1.264   0.844   7.268 -1.4747  0.2719 -2.8975
  103OSM     NF10346   1.272   0.590   7.143 -0.0418  0.5017  0.3435
  103OSM    HNF10347   1.350   0.602   7.083  0.4895 -0.7187  0.7605
  103OSM    C2S10348   1.174   0.689   7.151  0.5568 -0.4749  0.6541
  103OSM    H2S10349   1.072   0.646   7.147  0.0196  0.8224 -1.1791
  103OSM    C3S10350   1.167   0.779   7.020 -0.3441 -0.2687 -0.3365
  103OSM    H3S10351   1.272   0.805   6.995 -1.1912  4.5860  0.1463
  103OSM     O310352   1.109   0.903   7.053  0.0729 -0.3093  0.0120
  103OSM    HO310353   1.092   0.893   7.147 -3.1562  2.2649 -0.0827
  103OSM    C4S10354   1.121   0.713   6.892  0.1423 -0.0102 -0.1385
  103OSM    H4S10355   1.202   0.687   6.822 -1.1463 -1.1773 -1.2345
  103OSM    C5S10356   0.995   0.692   6.854 -0.2189  0.1029  0.2998
  103OSM    H5S10357   0.919   0.720   6.928  2.3404  3.3140  1.9918
  103OSM    C6S10358   0.949   0.636   6.720 -0.0855 -0.5145  0.7654
  103OSM    H6S10359   0.919   0.529   6.731 -0.2821 -0.3768  1.6884
  103OSM    H6T10360   1.033   0.643   6.648 -0.8896  1.4363 -0.0471
  103OSM    C7S10361   0.831   0.703   6.643 -0.6726  0.2769  0.2228
  103OSM    H7S10362   0.865   0.808   6.627  1.5446 -0.2532  1.0478
  103OSM    H7T10363   0.746   0.699   6.714 -2.2616 -1.7912 -1.6782
  103OSM    C8S10364   0.796   0.630   6.516 -0.7455  0.0965 -0.1475
  103OSM    H8S10365   0.781   0.520   6.522 -0.1449 -0.0493 -1.2026
  103OSM    H8T10366   0.871   0.657   6.439 -0.1057  2.7640  1.2731
  103OSM    C9S10367   0.663   0.686   6.469  0.9787 -0.4319 -0.2820
  103OSM    H9S10368   0.662   0.796   6.486 -2.1109 -0.4733  0.3676
  103OSM    H9T10369   0.587   0.641   6.536 -2.2843  2.1983 -1.9107
  103OSM   C10S10370   0.624   0.659   6.323 -0.2767  0.4324  0.5480
  103OSM   H10S10371   0.527   0.708   6.301  0.0320  1.4757  1.4191
  103OSM   H10T10372   0.615   0.549   6.313 -0.0731  0.4773 -0.1899
  103OSM   C11S10373   0.717   0.707   6.220 -0.2102  0.1733 -0.1440
  103OSM   H11S10374   0.793   0.771   6.269  1.1791 -0.9591 -0.7312
  103OSM   H11T10375   0.661   0.767   6.146 -0.5186  2.0351  1.5263
  103OSM   C12S10376   0.780   0.598   6.132 -0.0730  0.7083 -0.1551
  103OSM   H12S10377   0.710   0.550   6.061  1.0308 -1.2523  0.0011
  103OSM   H12T10378   0.818   0.521   6.203 -0.2301  0.2123 -0.6020
  103OSM   C13S10379   0.889   0.655   6.047 -0.8045 -0.6295 -0.5183
  103OSM   H13S10380   0.875   0.757   6.005  1.2852  0.8665  2.1233
  103OSM   H13T10381   0.907   0.578   5.968 -1.0822 -0.3006 -0.9079
  103OSM   C14S10382   1.028   0.665   6.122  0.1973  0.5215 -0.1437
  103OSM   H14S10383   1.101   0.630   6.045  2.4143  2.1991  1.0701
  103OSM   H14T10384   1.022   0.585   6.199 -0.9079 -2.4602 -3.0773
  103OSM   C15S10385   1.070   0.799   6.183  0.2656  0.1779 -0.0294
  103OSM   H15S10386   0.993   0.834   6.255 -0.1201 -2.6936  1.1023
  103OSM   H15T10387   1.077   0.866   6.095  0.4564 -0.5433 -0.5705
  103OSM   C16S10388   1.200   0.789   6.265  0.2172 -0.8251  0.1972
  103OSM   H16S10389   1.229   0.892   6.291  0.9050 -1.4464  2.0752
  103OSM   H16T10390   1.284   0.744   6.209 -0.5001 -3.3373  0.9905
  103OSM   C17S10391   1.176   0.729   6.399 -0.2421 -0.0014 -0.2720
  103OSM   H17S10392   1.184   0.619   6.385 -0.3070 -0.5284  2.9569
  103OSM   H17T10393   1.079   0.762   6.443  0.5013  1.6016  0.2376
  103OSM   C18S10394   1.292   0.771   6.496  0.0014  0.1505 -0.2539
  103OSM   H18S10395   1.390   0.724   6.475  0.5043  0.8275  0.5506
  103OSM   H18T10396   1.269   0.741   6.601 -0.8937 -1.0058 -0.7541
  103OSM   H18U10397   1.308   0.878   6.521  0.1378 -0.0414  0.5211
  103OSM    C1F10398   1.274   0.488   7.222 -0.7117 -0.2777 -0.8526
  103OSM     OF10399   1.201   0.486   7.321  0.6483 -0.0732 -0.2836
  103OSM    C2F10400   1.379   0.379   7.196 -0.4291 -0.1390 -0.3640
  103OSM    H2F10401   1.423   0.331   7.286  0.7053 -1.2236 -1.4446
  103OSM    H2G10402   1.455   0.432   7.135 -0.3511  2.0763  1.5156
  103OSM    C3F10403   1.324   0.266   7.108 -0.3877  0.7627 -0.3436
  103OSM    H3F10404   1.243   0.204   7.152  0.7890 -0.4394  0.2001
  103OSM    H3G10405   1.407   0.196   7.087 -0.0934  1.5879 -2.1212
  103OSM    C4F10406   1.277   0.315   6.974 -0.3270 -0.4686 -0.2779
  103OSM    H4F10407   1.352   0.392   6.944 -0.9610 -0.8063 -2.9757
  103OSM    H4G10408   1.189   0.381   6.984  0.1448 -0.0405  1.5525
  103OSM    C5F10409   1.251   0.218   6.860  0.4206  0.5681  0.2769
  103OSM    H5F10410   1.164   0.151   6.880  0.8450  0.0376  0.3712
  103OSM    H5G10411   1.339   0.152   6.845  0.8007  0.6911  1.8071
  103OSM    C6F10412   1.214   0.290   6.729  0.0694  0.0068 -0.1626
  103OSM    H6F10413   1.285   0.371   6.703 -0.0717  0.3412  0.4629
  103OSM    H6G10414   1.121   0.347   6.748  0.2478  0.1745  0.2047
  103OSM    C7F10415   1.191   0.183   6.618  0.5650  0.5287  0.3736
  103OSM    H7F10416   1.125   0.099   6.650  0.6691  0.3592  0.1469
  103OSM    H7G10417   1.285   0.138   6.581 -0.4485  0.4989 -2.3915
  103OSM    C8F10418   1.108   0.243   6.499  1.0971 -0.3689 -0.3790
  103OSM    H8F10419   1.017   0.293   6.538  1.7608  2.1427 -1.7895
  103OSM    H8G10420   1.081   0.152   6.441  0.3921 -1.1713  1.1433
  103OSM    C9F10421   1.195   0.340   6.425 -0.4681 -0.4277  0.7652
  103OSM    H9F10422   1.255   0.411   6.484 -0.1889  0.0700 -0.1030
  103OSM   C10F10423   1.194   0.363   6.287  0.0325 -0.1330  0.3353
  103OSM   H10F10424   1.261   0.437   6.241 -0.1076 -1.0204 -1.4165
  103OSM   C11F10425   1.102   0.281   6.188 -0.0378 -0.1133  0.3483
  103OSM   H11F10426   1.001   0.326   6.193  0.6251  1.8879 -2.1305
  103OSM   H11G10427   1.092   0.178   6.228  0.7919  0.7530  3.0148
  103OSM   C12F10428   1.158   0.285   6.042 -0.0108 -1.0694  0.1682
  103OSM   H12F10429   1.268   0.279   6.034  0.0178  0.6768 -1.3027
  103OSM   H12G10430   1.131   0.386   6.003 -1.2496 -0.9166  1.3400
  103OSM   C13F10431   1.113   0.176   5.952 -0.5073  0.0319  0.1942
  103OSM   H13F10432   1.002   0.183   5.945 -0.4668  0.6951  0.2360
  103OSM   H13G10433   1.153   0.088   6.007 -1.9200  0.5530  2.1676
  103OSM   C14F10434   1.164   0.178   5.806 -0.2899 -0.3703 -0.3378
  103OSM   H14F10435   1.273   0.156   5.803 -0.4758 -1.3433 -0.2804
  103OSM   H14G10436   1.157   0.285   5.776  3.7409  0.2135  0.2171
  103OSM   C15F10437   1.101   0.083   5.704  0.5570 -0.3802 -0.1515
  103OSM   H15F10438   0.993   0.102   5.717  1.1413  0.9352  4.1444
  103OSM   H15G10439   1.126  -0.018   5.744  2.0587 -0.5223 -1.3436
  103OSM   C16F10440   1.136   0.098   5.556  0.1344  0.7794 -0.0152
  103OSM   H16F10441   1.247   0.087   5.561  0.1639  0.6184 -0.8987
  103OSM   H16G10442   1.117   0.201   5.517 -2.8604  0.4782  0.4412
  103OSM   C17F10443   1.091  -0.017   5.464  0.0229  0.4572  0.4131
  103OSM   H17F10444   1.165  -0.099   5.476  1.1569  1.6660  2.2978
  103OSM   H17G10445   1.090   0.025   5.361 -0.0594  1.7473  0.9157
  103OSM   C18F10446   0.944  -0.070   5.481 -0.2919 -0.3753 -0.1144
  103OSM   H18F10447   0.924  -0.107   5.584  0.8745  0.9539  0.6228
  103OSM   H18G10448   0.928  -0.158   5.415 -3.4468 -0.2214  0.3087
  103OSM   H18H10449   0.869   0.005   5.449 -0.4414 -0.7170 -0.5784
  104OSM      N10450   1.137   1.792   7.376 -0.1042 -1.2332 -0.4642
  104OSM    C1510451   1.138   1.686   7.276  0.2253  0.0567  0.2496
  104OSM   H15A10452   1.093   1.718   7.183 -1.2607  0.7408  1.1701
  104OSM   H15B10453   1.075   1.609   7.317  0.5968  0.7965  2.3236
  104OSM   H15C10454   1.233   1.635   7.265 -1.1635 -3.1829  1.9418
  104OSM    C1410455   0.990   1.809   7.417 -0.6452  0.4699 -0.8564
  104OSM   H14A10456   0.954   1.715   7.457 -1.5929  0.8461 -0.7989
  104OSM   H14B10457   0.917   1.830   7.340 -3.3455  0.5353  1.5467
  104OSM   H14C10458   0.990   1.892   7.486  1.4423 -0.2431  0.0721
  104OSM    C1310459   1.208   1.752   7.504 -0.4720  0.5034  0.4961
  104OSM   H13A10460   1.195   1.831   7.577 -0.3352  1.9810 -0.9965
  104OSM   H13B10461   1.314   1.742   7.489 -0.4060 -0.1945  1.3783
  104OSM   H13C10462   1.168   1.656   7.531  0.7219 -0.2357 -0.2844
  104OSM    C1210463   1.185   1.924   7.312  0.1595 -0.6205 -0.4385
  104OSM   H12A10464   1.192   2.002   7.387 -2.3188  1.4528 -2.1775
  104OSM   H12B10465   1.099   1.955   7.254  1.5473  1.2794 -1.5884
  104OSM    C1110466   1.301   1.918   7.221 -0.5005 -0.1600  0.7459
  104OSM   H11A10467   1.321   2.025   7.201  1.4187 -0.6985 -0.5861
  104OSM   H11B10468   1.282   1.863   7.126  1.6163  0.5010 -0.1134
  104OSM      P10469   1.508   1.926   7.383 -0.3052  0.2337  0.5139
  104OSM    O1310470   1.435   2.025   7.463  0.0114 -0.2583  0.1960
  104OSM    O1410471   1.597   1.839   7.460  0.4650  0.1074 -0.0486
  104OSM    O1110472   1.603   2.002   7.282  0.5415 -0.5871  0.0186
  104OSM    O1210473   1.412   1.849   7.284  0.1185 -0.2498 -0.8089
  104OSM    C1S10474   1.689   1.926   7.194 -0.3716 -1.1142 -0.0806
  104OSM    H1S10475   1.720   1.829   7.239 -1.1056 -1.5808 -0.5539
  104OSM    H1T10476   1.780   1.989   7.180 -0.6861 -0.3797  1.0443
  104OSM     NF10477   1.751   1.814   6.982 -0.1650 -0.2755 -0.1478
  104OSM    HNF10478   1.798   1.851   6.902  0.0319 -2.6819 -1.2448
  104OSM    C2S10479   1.648   1.891   7.045  0.0435  0.6186  0.3094
  104OSM    H2S10480   1.557   1.828   7.056  2.1108 -2.4640  1.1472
  104OSM    C3S10481   1.614   2.026   6.974  0.2297  0.3683  0.3445
  104OSM    H3S10482   1.702   2.084   6.939 -1.1900  1.0009 -2.5027
  104OSM     O310483   1.536   2.119   7.051  0.8868  0.1870 -0.1143
  104OSM    HO310484   1.535   2.077   7.137  0.2772  2.0972  0.8834
  104OSM    C4S10485   1.557   1.990   6.845  0.3844  1.0115  0.5018
  104OSM    H4S10486   1.632   1.954   6.773  0.1173  1.5627 -0.0571
  104OSM    C5S10487   1.428   1.987   6.810  0.2366 -0.0699 -0.0879
  104OSM    H5S10488   1.349   2.013   6.881  1.8072  0.9977  1.3229
  104OSM    C6S10489   1.370   1.920   6.693  0.1309  0.0307  0.1751
  104OSM    H6S10490   1.300   1.987   6.638  0.7451  0.2785 -0.3219
  104OSM    H6T10491   1.313   1.831   6.725 -0.6763  0.3269 -0.3965
  104OSM    C7S10492   1.459   1.850   6.581  0.3824 -0.0581 -0.3164
  104OSM    H7S10493   1.513   1.760   6.617  0.7452 -1.2667 -3.5350
  104OSM    H7T10494   1.529   1.927   6.543 -0.8163  2.2000  1.7407
  104OSM    C8S10495   1.377   1.796   6.460  0.2865 -0.6258 -0.4217
  104OSM    H8S10496   1.299   1.867   6.426  2.0547  1.0537 -1.1435
  104OSM    H8T10497   1.322   1.706   6.493  1.3850 -1.2930 -0.3578
  104OSM    C9S10498   1.461   1.775   6.335 -0.5864  0.1763 -0.1668
  104OSM    H9S10499   1.528   1.692   6.366  1.9634  1.4033 -1.9713
  104OSM    H9T10500   1.534   1.855   6.305 -0.8997 -0.3152 -2.4086
  104OSM   C10S10501   1.365   1.746   6.220  0.2803 -0.3120  0.1786
  104OSM   H10S10502   1.319   1.845   6.197  0.1403  1.0993  5.2675
  104OSM   H10T10503   1.287   1.676   6.256  0.0750 -0.8025 -1.1791
  104OSM   C11S10504   1.439   1.713   6.084 -0.3042  0.0694  0.1911
  104OSM   H11S10505   1.474   1.608   6.082  0.9199  0.4663  0.1091
  104OSM   H11T10506   1.533   1.772   6.094 -0.5383  0.2677  1.4136
  104OSM   C12S10507   1.360   1.754   5.961  0.0362 -0.4486 -0.3089
  104OSM   H12S10508   1.376   1.864   5.954  1.7912 -0.4767  1.9817
  104OSM   H12T10509   1.253   1.727   5.967  0.2192 -0.8269  2.1635
  104OSM   C13S10510   1.417   1.686   5.833  0.6307 -0.0143  0.5673
  104OSM   H13S10511   1.385   1.580   5.834 -3.4734  0.9992 -2.0683
  104OSM   H13T10512   1.528   1.691   5.833  0.5995  1.7981  1.2753
  104OSM   C14S10513   1.371   1.743   5.705  0.5945 -0.0044  0.3031
  104OSM   H14S10514   1.414   1.840   5.673  0.0951  0.5637  1.2849
  104OSM   H14T10515   1.262   1.765   5.709 -0.0818 -2.5254 -1.8655
  104OSM   C15S10516   1.388   1.640   5.595  0.2115 -0.7553 -0.4141
  104OSM   H15S10517   1.309   1.567   5.619 -0.9411  0.2804 -0.9358
  104OSM   H15T10518   1.494   1.608   5.600  0.7364  0.9752  0.5961
  104OSM   C16S10519   1.363   1.691   5.443  0.3547 -0.2419 -0.9831
  104OSM   H16S10520   1.430   1.774   5.413  0.3430  0.4581  0.7977
  104OSM   H16T10521   1.259   1.731   5.442  0.2955  0.3176  3.6872
  104OSM   C17S10522   1.371   1.572   5.345  0.1331  0.0813  0.0312
  104OSM   H17S10523   1.297   1.493   5.369 -0.3165  0.3133 -0.5594
  104OSM   H17T10524   1.474   1.530   5.345  1.6687  3.4868 -0.5950
  104OSM   C18S10525   1.350   1.619   5.203  0.3893  0.4774 -0.2148
  104OSM   H18S10526   1.431   1.688   5.172  1.3303  0.7491  2.5136
  104OSM   H18T10527   1.253   1.673   5.200 -0.0358 -0.0674  1.9308
  104OSM   H18U10528   1.352   1.531   5.136  1.3591 -0.1277  0.5668
  104OSM    C1F10529   1.782   1.691   7.019 -0.3412 -0.5485 -0.0417
  104OSM     OF10530   1.709   1.615   7.086 -0.2284  0.1287  0.6701
  104OSM    C2F10531   1.917   1.647   6.970 -0.2958 -0.4172 -0.5599
  104OSM    H2F10532   1.996   1.650   7.048  1.3424 -3.8091 -1.8686
  104OSM    H2G10533   1.960   1.716   6.894  2.6490 -0.8151  0.5944
  104OSM    C3F10534   1.908   1.495   6.932 -0.2329 -0.4077 -0.2950
  104OSM    H3F10535   1.867   1.429   7.012 -3.0297 -0.9601 -2.0620
  104OSM    H3G10536   2.009   1.454   6.909  1.0711  1.8039  1.1514
  104OSM    C4F10537   1.813   1.483   6.813 -0.1383 -0.2242  0.5167
  104OSM    H4F10538   1.809   1.579   6.757 -0.9737 -0.6236 -0.1188
  104OSM    H4G10539   1.707   1.468   6.841 -0.0816 -0.9552  0.3593
  104OSM    C5F10540   1.859   1.373   6.714 -0.1632  0.7928  0.0637
  104OSM    H5F10541   1.846   1.273   6.762  0.8611  0.0859 -1.0676
  104OSM    H5G10542   1.969   1.385   6.708  0.0670  1.3494  3.4626
  104OSM    C6F10543   1.789   1.361   6.571  0.1382 -0.2809  0.2716
  104OSM    H6F10544   1.685   1.397   6.586  0.8742  1.7960  0.6792
  104OSM    H6G10545   1.786   1.256   6.534  0.4216  0.5868 -2.4283
  104OSM    C7F10546   1.852   1.459   6.468  0.7840  0.4098  0.0185
  104OSM    H7F10547   1.955   1.430   6.440 -0.8619 -2.9538 -3.4596
  104OSM    H7G10548   1.851   1.564   6.505  3.2279  0.9961 -1.3615
  104OSM    C8F10549   1.773   1.463   6.335 -0.6403  0.1660  0.0906
  104OSM    H8F10550   1.805   1.558   6.285 -0.3918  0.6129  1.0697
  104OSM    H8G10551   1.665   1.465   6.359 -0.2746 -0.0856  1.9606
  104OSM    C9F10552   1.795   1.350   6.243  0.3020  0.1447  0.2222
  104OSM    H9F10553   1.811   1.257   6.300 -0.9488  0.3748  0.9890
  104OSM   C10F10554   1.794   1.351   6.109  0.2685  0.4963 -0.1545
  104OSM   H10F10555   1.788   1.263   6.042 -0.5885  1.7038 -1.7462
  104OSM   C11F10556   1.767   1.479   6.036 -0.0684 -0.7164  0.1744
  104OSM   H11F10557   1.865   1.515   6.000  0.2420 -0.8303  0.8984
  104OSM   H11G10558   1.725   1.563   6.095  2.0802 -0.0139  0.7747
  104OSM   C12F10559   1.666   1.456   5.923 -0.3922 -0.4214  0.5246
  104OSM   H12F10560   1.653   1.556   5.877 -0.5404  0.5815  2.6172
  104OSM   H12G10561   1.565   1.446   5.968 -1.0773  0.6091 -0.7443
  104OSM   C13F10562   1.703   1.355   5.811 -0.5093  0.4780  0.9450
  104OSM   H13F10563   1.686   1.250   5.842 -1.1675  0.3086  0.0446
  104OSM   H13G10564   1.812   1.372   5.796 -1.0097  4.1507  0.3149
  104OSM   C14F10565   1.633   1.370   5.675  0.2982 -0.3724 -0.0425
  104OSM   H14F10566   1.640   1.478   5.648 -1.5745 -0.2528 -0.1827
  104OSM   H14G10567   1.526   1.343   5.687  0.7974 -2.5064  0.0859
  104OSM   C15F10568   1.696   1.280   5.567 -0.8012 -0.5335 -0.3046
  104OSM   H15F10569   1.692   1.173   5.598  2.1176 -1.2828 -2.1806
  104OSM   H15G10570   1.801   1.312   5.554 -1.0135 -0.3386 -1.6881
  104OSM   C16F10571   1.631   1.292   5.427 -0.4774  0.6136  0.2345
  104OSM   H16F10572   1.650   1.397   5.398  1.0416  0.3788  0.2783
  104OSM   H16G10573   1.522   1.274   5.438 -0.8486  0.9662 -2.2266
  104OSM   C17F10574   1.672   1.183   5.325 -0.0614 -0.4265  1.0495
  104OSM   H17F10575   1.623   1.085   5.346 -1.5338 -0.3572 -1.5766
  104OSM   H17G10576   1.782   1.174   5.311 -0.4997 -1.9290 -2.3435
  104OSM   C18F10577   1.598   1.214   5.192 -0.1623 -0.0199 -0.2797
  104OSM   H18F10578   1.596   1.125   5.125 -1.6846 -0.4459  0.2981
  104OSM   H18G10579   1.639   1.299   5.134 -1.0154 -1.0411 -2.4865
  104OSM   H18H10580   1.490   1.233   5.211  0.2098  0.7145  1.3018
  105OSM      N10581   3.514   2.206   7.543 -0.3966  0.1064  0.2300
  105OSM    C1510582   3.555   2.102   7.644  0.1905 -0.0432 -0.1838
  105OSM   H15A10583   3.465   2.072   7.695  0.7943  0.3607  1.1733
  105OSM   H15B10584   3.616   2.147   7.722 -0.2722  1.7600 -0.8160
  105OSM   H15C10585   3.614   2.019   7.608 -0.1350 -1.1265  1.6457
  105OSM    C1410586   3.436   2.317   7.594 -0.5585 -0.1406 -0.8611
  105OSM   H14A10587   3.339   2.285   7.629  0.0773 -2.7810 -1.3293
  105OSM   H14B10588   3.430   2.385   7.510  0.0811 -1.1050 -1.7112
  105OSM   H14C10589   3.484   2.374   7.672 -1.2508  0.2166 -0.6888
  105OSM    C1310590   3.645   2.260   7.504  0.6416  0.6235  0.3952
  105OSM   H13A10591   3.717   2.181   7.491  0.0530  0.5019 -2.9631
  105OSM   H13B10592   3.688   2.327   7.577  2.9816 -0.8749  0.5114
  105OSM   H13C10593   3.640   2.306   7.407 -1.0293  1.8198  1.0039
  105OSM    C1210594   3.441   2.139   7.427  0.1500 -0.2019  0.0829
  105OSM   H12A10595   3.358   2.087   7.471 -0.0800 -0.3243 -0.4889
  105OSM   H12B10596   3.504   2.059   7.391  0.6630 -0.5872  1.7418
  105OSM    C1110597   3.400   2.225   7.302  0.1730  0.4231 -0.5436
  105OSM   H11A10598   3.348   2.152   7.237  1.3234  1.1562 -2.3485
  105OSM   H11B10599   3.488   2.261   7.244  0.2208 -0.6169 -1.1520
  105OSM      P10600   3.166   2.346   7.353 -0.0580  0.4340 -0.4156
  105OSM    O1310601   3.128   2.282   7.482  0.0236 -0.0189  0.1823
  105OSM    O1410602   3.122   2.483   7.338 -0.5574 -0.3332  0.0933
  105OSM    O1110603   3.111   2.251   7.236 -0.5232  0.2336 -0.4410
  105OSM    O1210604   3.320   2.337   7.337  0.2792 -0.6954  0.1228
  105OSM    C1S10605   3.089   2.316   7.107 -0.4194 -0.4071  0.2978
  105OSM    H1S10606   3.139   2.415   7.101  0.7166 -0.9167  0.9196
  105OSM    H1T10607   2.981   2.334   7.092 -0.6701 -0.9691  1.3522
  105OSM     NF10608   3.132   2.331   6.863 -0.3909 -0.2048  0.7537
  105OSM    HNF10609   3.080   2.317   6.779  3.2004  0.7320 -1.8843
  105OSM    C2S10610   3.130   2.234   6.973  0.7301 -0.7810 -0.1560
  105OSM    H2S10611   3.234   2.200   6.993  1.0527  0.4004  0.2890
  105OSM    C3S10612   3.048   2.106   6.961 -0.5894 -0.3414 -0.0341
  105OSM    H3S10613   2.941   2.136   6.962 -0.0723  1.6899  1.0691
  105OSM     O310614   3.060   2.020   7.075  0.2515  0.0808 -0.0577
  105OSM    HO310615   3.094   2.068   7.150  2.7488  0.8642 -1.5447
  105OSM    C4S10616   3.078   2.033   6.839  1.0625  0.4557 -0.1620
  105OSM    H4S10617   2.985   2.026   6.780 -0.6034 -0.5518  2.4352
  105OSM    C5S10618   3.195   1.979   6.795 -0.2204 -0.7307  0.2458
  105OSM    H5S10619   3.279   1.984   6.865  0.5670  0.3336 -0.7368
  105OSM    C6S10620   3.212   1.911   6.661 -0.2575 -0.2777  0.1394
  105OSM    H6S10621   3.186   1.804   6.670 -0.3548 -0.2894 -0.2948
  105OSM    H6T10622   3.311   1.939   6.620 -0.7417  1.5343  0.0817
  105OSM    C7S10623   3.117   1.954   6.551  0.0708  0.2819  0.0422
  105OSM    H7S10624   3.011   1.932   6.577  0.6618 -1.0302  1.4150
  105OSM    H7T10625   3.144   1.894   6.462  1.5083 -0.6063  1.0456
  105OSM    C8S10626   3.110   2.106   6.520 -0.0388 -0.4433  0.0374
  105OSM    H8S10627   3.078   2.169   6.606  0.3097  1.5983 -1.2635
  105OSM    H8T10628   3.038   2.133   6.441  1.0441  0.8733 -0.5408
  105OSM    C9S10629   3.234   2.166   6.473  0.1513  0.0077  0.1358
  105OSM    H9S10630   3.322   2.127   6.528 -0.9271 -0.2676  1.7490
  105OSM    H9T10631   3.235   2.276   6.486 -0.9176 -0.0151  0.5355
  105OSM   C10S10632   3.263   2.134   6.319  0.5870 -0.5529  0.6967
  105OSM   H10S10633   3.243   2.026   6.305 -1.2807 -0.1084 -0.4207
  105OSM   H10T10634   3.370   2.157   6.304  0.6552 -0.0794  1.8140
  105OSM   C11S10635   3.191   2.233   6.221 -1.2098 -0.1803  0.1978
  105OSM   H11S10636   3.198   2.337   6.260 -0.9691 -0.4209  0.8054
  105OSM   H11T10637   3.085   2.203   6.208 -1.7523  0.6970  2.1932
  105OSM   C12S10638   3.259   2.247   6.085 -0.2712  0.2439 -0.2419
  105OSM   H12S10639   3.242   2.148   6.036 -1.8990  1.3454 -2.0363
  105OSM   H12T10640   3.363   2.267   6.117 -0.7236 -1.1574  2.4163
  105OSM   C13S10641   3.214   2.354   5.990  0.2728  0.4350  0.7155
  105OSM   H13S10642   3.220   2.453   6.041  2.0207  0.3949  0.6540
  105OSM   H13T10643   3.106   2.344   5.965  0.6269 -1.5962 -0.2448
  105OSM   C14S10644   3.296   2.341   5.857 -0.3332 -0.1430  0.3091
  105OSM   H14S10645   3.241   2.266   5.796  0.5981 -2.0989  1.7629
  105OSM   H14T10646   3.395   2.292   5.866 -0.9573 -1.2952  1.1682
  105OSM   C15S10647   3.310   2.469   5.767  0.0952  1.4798 -0.0802
  105OSM   H15S10648   3.400   2.524   5.802 -0.1931  1.0651  1.3753
  105OSM   H15T10649   3.222   2.537   5.767 -1.2286 -0.1700  0.2520
  105OSM   C16S10650   3.334   2.429   5.625 -0.2064  0.0348  0.5487
  105OSM   H16S10651   3.414   2.353   5.614 -0.6636 -0.4868  0.8027
  105OSM   H16T10652   3.374   2.517   5.569  0.5828  0.0820  1.1600
  105OSM   C17S10653   3.208   2.392   5.550  0.2859 -0.0540 -0.1589
  105OSM   H17S10654   3.159   2.302   5.593 -2.5216  1.0141 -0.8977
  105OSM   H17T10655   3.239   2.359   5.448  0.0519  1.2290 -0.6610
  105OSM   C18S10656   3.098   2.499   5.530  0.3706 -0.2736 -0.4454
  105OSM   H18S10657   3.149   2.582   5.476 -0.4090  0.2085 -0.4643
  105OSM   H18T10658   3.059   2.528   5.630  2.1104 -2.3571  0.9069
  105OSM   H18U10659   3.019   2.469   5.458  0.8176  1.8140 -1.9105
  105OSM    C1F10660   3.225   2.424   6.849  0.3111 -0.4353  0.0238
  105OSM     OF10661   3.316   2.430   6.929 -0.3167 -0.0486 -0.0743
  105OSM    C2F10662   3.226   2.513   6.728  0.0070  0.4007  0.1508
  105OSM    H2F10663   3.186   2.612   6.757  0.9493  0.8393  0.0003
  105OSM    H2G10664   3.150   2.472   6.659 -0.5428 -1.6356  1.8728
  105OSM    C3F10665   3.359   2.528   6.655 -0.5199 -0.3696 -0.3014
  105OSM    H3F10666   3.392   2.432   6.609  0.5321  0.4407 -1.3021
  105OSM    H3G10667   3.437   2.554   6.730 -0.2397 -1.6889 -0.1088
  105OSM    C4F10668   3.353   2.650   6.560 -0.2727  0.1946 -0.6990
  105OSM    H4F10669   3.451   2.674   6.513  0.4005 -2.6891 -0.9924
  105OSM    H4G10670   3.316   2.738   6.617  3.6962  1.0593  0.8321
  105OSM    C5F10671   3.271   2.620   6.436  0.1981 -0.0900 -0.4272
  105OSM    H5F10672   3.167   2.594   6.464 -0.6993  2.2196 -1.3152
  105OSM    H5G10673   3.318   2.534   6.385  1.7219  0.2366  0.3670
  105OSM    C6F10674   3.249   2.740   6.334  0.5487  0.1042 -0.0636
  105OSM    H6F10675   3.147   2.734   6.292  0.4739 -1.9321  0.2960
  105OSM    H6G10676   3.318   2.743   6.247  1.1996 -2.6338  0.2736
  105OSM    C7F10677   3.240   2.876   6.396  0.0300  0.7818  0.1783
  105OSM    H7F10678   3.343   2.902   6.428  1.3127 -0.8986 -2.2807
  105OSM    H7G10679   3.168   2.874   6.481  0.7784 -0.2713  0.8082
  105OSM    C8F10680   3.177   2.985   6.302 -0.1657  0.9819  0.0400
  105OSM    H8F10681   3.169   3.068   6.375 -0.0563 -0.3074  1.5760
  105OSM    H8G10682   3.073   2.949   6.284 -0.4671 -0.9872  4.3866
  105OSM    C9F10683   3.265   3.017   6.190 -0.2345 -0.9044  1.0842
  105OSM    H9F10684   3.354   3.078   6.214  0.7398 -1.5473 -0.7685
  105OSM   C10F10685   3.253   2.972   6.064  0.0071 -0.3562 -0.1359
  105OSM   H10F10686   3.307   3.028   5.985 -0.6905  1.0880  0.3627
  105OSM   C11F10687   3.142   2.882   6.014  0.2422 -0.2107  0.1589
  105OSM   H11F10688   3.054   2.876   6.080 -0.7029 -0.2558 -1.0747
  105OSM   H11G10689   3.182   2.779   6.025 -1.7455 -1.0162  0.2517
  105OSM   C12F10690   3.102   2.901   5.869 -0.3435  0.2211 -0.4428
  105OSM   H12F10691   3.055   2.807   5.834 -0.6247  0.5604 -0.9948
  105OSM   H12G10692   3.191   2.915   5.804  0.9251 -3.2744  0.3747
  105OSM   C13F10693   2.997   3.009   5.848 -0.5396 -0.3678  0.6051
  105OSM   H13F10694   3.017   3.099   5.909  0.1638 -0.8630  1.1127
  105OSM   H13G10695   2.898   2.965   5.872 -0.5654 -1.7402 -1.6993
  105OSM   C14F10696   2.993   3.045   5.694  0.2182 -0.6687 -0.2163
  105OSM   H14F10697   2.903   3.107   5.675 -0.4070 -0.8729  1.8135
  105OSM   H14G10698   2.977   2.950   5.638 -1.2725 -0.2530 -0.5462
  105OSM   C15F10699   3.112   3.126   5.635  0.1431 -0.0762 -0.2881
  105OSM   H15F10700   3.211   3.076   5.639  0.8849  1.4109  0.5154
  105OSM   H15G10701   3.124   3.224   5.685 -2.3252  0.5826 -0.8504
  105OSM   C16F10702   3.089   3.162   5.485  0.3367  0.0390 -0.7037
  105OSM   H16F10703   2.994   3.219   5.470 -0.1680 -1.0678 -1.9692
  105OSM   H16G10704   3.089   3.061   5.440  1.1514 -0.4563  0.3907
  105OSM   C17F10705   3.211   3.232   5.428 -0.4029  0.2916 -0.6183
  105OSM   H17F10706   3.299   3.164   5.432  1.6075  2.6110 -2.2999
  105OSM   H17G10707   3.238   3.317   5.494  1.1816  0.1201 -1.0106
  105OSM   C18F10708   3.190   3.275   5.278 -0.2514 -0.4818 -0.4553
  105OSM   H18F10709   3.168   3.182   5.222 -3.2444  0.3874 -0.8755
  105OSM   H18G10710   3.268   3.340   5.233  0.5671 -2.0025 -1.2959
  105OSM   H18H10711   3.092   3.328   5.283 -2.0719 -3.6674  0.4846
  106OSM      N10712   1.177   5.692   7.377  0.0810  0.9104 -0.2973
  106OSM    C1510713   1.228   5.649   7.515  0.3991  0.5211  0.1128
  106OSM   H15A10714   1.162   5.584   7.570 -2.2928 -0.6130 -3.9643
  106OSM   H15B10715   1.257   5.736   7.571 -3.5061  0.9373  1.8244
  106OSM   H15C10716   1.320   5.594   7.505 -0.2269 -0.3457 -1.1923
  106OSM    C1410717   1.294   5.723   7.292  0.5224 -0.0879 -0.6381
  106OSM   H14A10718   1.374   5.652   7.307  1.1546  0.9801  1.4096
  106OSM   H14B10719   1.339   5.814   7.329  1.3485  0.6470 -3.2124
  106OSM   H14C10720   1.276   5.744   7.188  2.0189  0.4071 -0.8264
  106OSM    C1310721   1.101   5.578   7.306  0.0566  0.0840 -0.8731
  106OSM   H13A10722   1.175   5.506   7.275  0.4364  0.3597 -0.6309
  106OSM   H13B10723   1.043   5.612   7.221 -1.3909  1.2719  0.5241
  106OSM   H13C10724   1.033   5.529   7.374 -0.9536 -1.7901 -3.1204
  106OSM    C1210725   1.083   5.813   7.384  0.0587 -0.4820  0.1633
  106OSM   H12A10726   1.000   5.792   7.450 -0.1936  1.2800  0.4653
  106OSM   H12B10727   1.049   5.835   7.284  1.2788  0.6027 -0.0418
  106OSM    C1110728   1.149   5.938   7.446  0.1840 -0.6638 -0.2413
  106OSM   H11A10729   1.152   5.931   7.557 -1.0776  4.8133  0.4052
  106OSM   H11B10730   1.069   6.013   7.429 -1.8841 -2.5349  0.6941
  106OSM      P10731   1.296   6.126   7.344 -0.6358  0.0950 -0.1749
  106OSM    O1310732   1.245   6.142   7.208 -0.4055 -0.1399 -0.0732
  106OSM    O1410733   1.252   6.217   7.454 -0.0465 -0.2415 -0.7769
  106OSM    O1110734   1.451   6.144   7.341  0.2027 -0.1485  0.6983
  106OSM    O1210735   1.273   5.976   7.397 -0.2074  0.4866 -0.5203
  106OSM    C1S10736   1.528   6.042   7.279  0.4403  0.1861  0.1760
  106OSM    H1S10737   1.459   5.965   7.238 -0.7186 -0.0699  2.4749
  106OSM    H1T10738   1.590   5.984   7.351 -0.3215  0.5024  1.1055
  106OSM     NF10739   1.647   6.008   7.056 -0.0957 -0.0761 -0.5348
  106OSM    HNF10740   1.739   5.972   7.050 -0.1616  0.0546 -4.0750
  106OSM    C2S10741   1.617   6.100   7.164  0.7932  0.3485  0.2257
  106OSM    H2S10742   1.546   6.172   7.116 -2.8217 -2.4386  0.8988
  106OSM    C3S10743   1.743   6.164   7.228  0.4991 -0.2329  0.6693
  106OSM    H3S10744   1.816   6.087   7.259  1.6880  0.5374 -0.1451
  106OSM     O310745   1.708   6.243   7.344 -0.2602 -0.4802  0.1171
  106OSM    HO310746   1.613   6.239   7.356 -0.2516 -1.8532 -0.0231
  106OSM    C4S10747   1.802   6.247   7.122 -0.3359  0.5327 -0.7883
  106OSM    H4S10748   1.739   6.334   7.098  0.7442  1.8297  0.8215
  106OSM    C5S10749   1.934   6.236   7.084  0.0472 -0.2297 -0.0769
  106OSM    H5S10750   2.001   6.165   7.133  1.9127  2.2755  1.2341
  106OSM    C6S10751   1.994   6.320   6.974 -0.3526 -0.7265 -0.1258
  106OSM    H6S10752   2.093   6.283   6.941 -0.5173 -0.7269 -0.6194
  106OSM    H6T10753   2.016   6.420   7.017 -2.4638 -0.4476  0.4118
  106OSM    C7S10754   1.902   6.335   6.850  0.1121 -0.5050  0.2251
  106OSM    H7S10755   1.804   6.373   6.883 -0.6390 -1.2739 -1.0249
  106OSM    H7T10756   1.894   6.232   6.810  1.6861 -1.3540  1.9481
  106OSM    C8S10757   1.961   6.444   6.752  0.6383 -0.3261  0.2090
  106OSM    H8S10758   2.057   6.413   6.705  0.0769  0.6533 -1.6972
  106OSM    H8T10759   1.983   6.543   6.797  0.2726  0.7203 -1.7834
  106OSM    C9S10760   1.867   6.468   6.625  0.1232 -0.6539 -0.4928
  106OSM    H9S10761   1.760   6.469   6.654  0.6565 -1.5514  1.7848
  106OSM    H9T10762   1.885   6.370   6.575  2.6606 -0.0301 -0.9647
  106OSM   C10S10763   1.895   6.577   6.528  0.1158 -0.3026 -0.8283
  106OSM   H10S10764   2.002   6.570   6.496 -0.2586  0.6263 -2.3635
  106OSM   H10T10765   1.877   6.678   6.570  0.1937 -0.1344 -1.1885
  106OSM   C11S10766   1.815   6.571   6.399 -0.0967  0.2726 -0.4592
  106OSM   H11S10767   1.833   6.667   6.345  1.6099 -0.6203 -1.5762
  106OSM   H11T10768   1.711   6.583   6.435  0.2908  3.2268 -0.0341
  106OSM   C12S10769   1.855   6.457   6.309  0.0245  0.2853  0.0543
  106OSM   H12S10770   1.881   6.368   6.370 -2.0506 -1.1059 -0.9608
  106OSM   H12T10771   1.939   6.472   6.238 -0.8677  1.3150 -0.8392
  106OSM   C13S10772   1.732   6.427   6.219  0.0638 -0.3275 -0.3901
  106OSM   H13S10773   1.694   6.522   6.175 -1.6159 -0.5599  0.4770
  106OSM   H13T10774   1.649   6.390   6.283  1.0204 -0.1784  0.9989
  106OSM   C14S10775   1.764   6.330   6.098  0.5183 -0.4831 -0.4747
  106OSM   H14S10776   1.671   6.277   6.067 -0.3706  2.0131 -2.4429
  106OSM   H14T10777   1.827   6.251   6.145  0.2784 -0.1807  0.3791
  106OSM   C15S10778   1.824   6.402   5.977 -0.1927 -0.0025  0.0616
  106OSM   H15S10779   1.909   6.459   6.020  0.6921 -1.0056 -0.3330
  106OSM   H15T10780   1.750   6.478   5.943 -0.9419 -0.5781  0.3619
  106OSM   C16S10781   1.868   6.308   5.863  0.1263  0.8888 -0.1141
  106OSM   H16S10782   1.774   6.262   5.827  0.0207 -0.5877  1.8693
  106OSM   H16T10783   1.925   6.219   5.899 -1.4812 -0.7096 -1.3420
  106OSM   C17S10784   1.934   6.378   5.742  0.2370  0.2664  0.1434
  106OSM   H17S10785   2.007   6.449   5.785  1.8411 -0.0500 -1.8858
  106OSM   H17T10786   1.864   6.454   5.701  1.1524 -0.1742 -2.4057
  106OSM   C18S10787   1.980   6.286   5.632  0.6967  0.3355  0.6178
  106OSM   H18S10788   2.028   6.332   5.544 -0.2205  1.9316  0.9160
  106OSM   H18T10789   1.897   6.224   5.591 -0.8750  0.9016  2.7131
  106OSM   H18U10790   2.061   6.219   5.666 -0.0955  0.3217  2.6415
  106OSM    C1F10791   1.553   5.949   6.976  0.1341 -0.8532 -0.8350
  106OSM     OF10792   1.441   6.005   6.964 -0.0987 -0.1104  0.5769
  106OSM    C2F10793   1.582   5.834   6.902 -0.1007  0.6531  0.4226
  106OSM    H2F10794   1.496   5.765   6.913  1.6456 -1.5173  1.2342
  106OSM    H2G10795   1.676   5.783   6.932 -0.3884  0.1320  0.4492
  106OSM    C3F10796   1.598   5.873   6.751 -0.0926  0.2171 -0.5679
  106OSM    H3F10797   1.656   5.966   6.733  0.9350  0.0944  1.7128
  106OSM    H3G10798   1.496   5.896   6.713 -0.7544 -1.1923  0.2751
  106OSM    C4F10799   1.645   5.751   6.668  0.4279 -0.1211 -0.3310
  106OSM    H4F10800   1.607   5.653   6.704  2.9240 -0.4897  1.6305
  106OSM    H4G10801   1.755   5.738   6.676  0.5319 -0.2068 -1.7656
  106OSM    C5F10802   1.625   5.748   6.519 -0.5593 -0.5951 -0.4427
  106OSM    H5F10803   1.683   5.836   6.483 -0.9830  0.0080  0.3275
  106OSM    H5G10804   1.520   5.771   6.492 -0.1831  1.2134 -0.4588
  106OSM    C6F10805   1.669   5.626   6.437 -0.7346  0.7570 -0.3927
  106OSM    H6F10806   1.776   5.648   6.423 -0.7178  3.0376  2.3683
  106OSM    H6G10807   1.622   5.634   6.336 -1.6283  2.0914  0.1003
  106OSM    C7F10808   1.654   5.486   6.493 -0.2088  0.8196  0.7620
  106OSM    H7F10809   1.558   5.465   6.545  0.3515  2.8660  2.7598
  106OSM    H7G10810   1.738   5.461   6.562  1.4801 -0.1404 -1.5064
  106OSM    C8F10811   1.678   5.378   6.381 -0.1910  0.0088  1.2333
  106OSM    H8F10812   1.596   5.383   6.306  0.6929 -0.9158  0.1795
  106OSM    H8G10813   1.675   5.283   6.438  2.8895 -0.8318  0.2026
  106OSM    C9F10814   1.805   5.384   6.304 -0.5704 -0.1474  0.4801
  106OSM    H9F10815   1.891   5.331   6.346  2.0385  2.5396 -1.0552
  106OSM   C10F10816   1.837   5.454   6.189 -0.5667  0.0940 -0.4071
  106OSM   H10F10817   1.938   5.445   6.146 -0.7579  1.4590 -1.1950
  106OSM   C11F10818   1.741   5.547   6.117 -0.2617  0.2566 -0.5040
  106OSM   H11F10819   1.754   5.654   6.144 -0.2038 -0.2328  1.4953
  106OSM   H11G10820   1.638   5.516   6.145 -0.9889  1.1186 -2.0379
  106OSM   C12F10821   1.764   5.534   5.964 -0.1757 -0.3018  0.2804
  106OSM   H12F10822   1.870   5.535   5.930 -0.0275  0.0256  0.7402
  106OSM   H12G10823   1.718   5.616   5.906  0.3471  0.4587  0.9215
  106OSM   C13F10824   1.708   5.414   5.912  0.4557 -0.2729 -0.0654
  106OSM   H13F10825   1.599   5.427   5.899 -0.1091 -1.7879  2.4997
  106OSM   H13G10826   1.720   5.323   5.974 -1.8235  1.0328  2.5149
  106OSM   C14F10827   1.765   5.383   5.768  0.3502 -0.3289 -0.6426
  106OSM   H14F10828   1.875   5.380   5.786  0.5636  2.3504 -1.1733
  106OSM   H14G10829   1.746   5.466   5.697 -1.6104  1.4153  1.7805
  106OSM   C15F10830   1.703   5.259   5.703  0.0860 -0.0657 -0.1490
  106OSM   H15F10831   1.592   5.263   5.700 -0.0621 -0.9505  2.1116
  106OSM   H15G10832   1.739   5.166   5.753  1.7274  0.4690 -0.2834
  106OSM   C16F10833   1.778   5.245   5.571  0.5454 -0.0482  0.9528
  106OSM   H16F10834   1.887   5.260   5.587  0.5132 -1.1357  2.4565
  106OSM   H16G10835   1.738   5.318   5.498  1.2453 -1.8719 -1.3738
  106OSM   C17F10836   1.769   5.099   5.505 -0.6528 -0.0733 -0.1027
  106OSM   H17F10837   1.824   5.028   5.571  0.8180  0.8224 -0.3280
  106OSM   H17G10838   1.826   5.099   5.410 -0.2006  0.1299  0.1670
  106OSM   C18F10839   1.628   5.059   5.467 -0.4430 -0.0325 -0.0237
  106OSM   H18F10840   1.635   4.969   5.403  1.0602 -0.5364  0.7782
  106OSM   H18G10841   1.582   5.147   5.418  1.3811  0.4131 -1.0265
  106OSM   H18H10842   1.570   5.040   5.560  0.9197 -0.1350  0.8427
  107OSM      N10843   0.144   4.822   7.561 -0.2384  0.4002  0.1443
  107OSM    C1510844   0.251   4.762   7.650  0.0723  0.5245 -0.2986
  107OSM   H15A10845   0.335   4.737   7.586 -0.3614 -0.1451 -0.6150
  107OSM   H15B10846   0.210   4.668   7.686  0.9137 -0.8668 -2.6988
  107OSM   H15C10847   0.281   4.834   7.725  2.3712 -0.5811 -0.0533
  107OSM    C1410848   0.082   4.716   7.477 -0.6696  0.6584  0.2936
  107OSM   H14A10849   0.150   4.663   7.412 -1.4846  1.0592 -0.9214
  107OSM   H14B10850   0.009   4.765   7.415  0.4144  0.8980 -0.8297
  107OSM   H14C10851   0.035   4.643   7.542  2.2286  0.1039  1.9650
  107OSM    C1310852   0.038   4.876   7.648  0.0258  0.3315  0.2202
  107OSM   H13A10853  -0.041   4.920   7.589 -2.1027  0.3023  2.8645
  107OSM   H13B10854   0.086   4.945   7.716 -0.5991  0.2620  0.7344
  107OSM   H13C10855  -0.011   4.802   7.709  0.0917 -1.1174 -1.4078
  107OSM    C1210856   0.202   4.928   7.474  0.2548  0.7176 -0.3661
  107OSM   H12A10857   0.249   4.997   7.542 -1.3512  1.0113  0.5074
  107OSM   H12B10858   0.119   4.990   7.443 -1.7866 -1.4722  0.4268
  107OSM    C1110859   0.291   4.887   7.357  0.0706  0.0116 -0.1984
  107OSM   H11A10860   0.323   4.981   7.306  2.5059  0.7705  2.5172
  107OSM   H11B10861   0.223   4.826   7.293  0.9059  1.2650 -2.4151
  107OSM      P10862   0.546   4.848   7.402  0.1369  0.0765 -0.0904
  107OSM    O1310863   0.565   4.994   7.423 -0.2165  0.2581  0.1954
  107OSM    O1410864   0.613   4.757   7.498 -0.5409  0.5561  0.2305
  107OSM    O1110865   0.586   4.806   7.251 -0.1340 -0.2119  0.1645
  107OSM    O1210866   0.397   4.808   7.408  0.3709 -0.7553  0.1322
  107OSM    C1S10867   0.705   4.854   7.188  0.3445 -0.6228  0.0104
  107OSM    H1S10868   0.801   4.803   7.214  1.0460  0.8678  0.4528
  107OSM    H1T10869   0.725   4.959   7.217 -2.7590 -0.4068  1.7393
  107OSM     NF10870   0.839   4.884   6.989  0.2345 -0.3676  0.4670
  107OSM    HNF10871   0.852   4.981   6.970 -0.3990 -0.4080 -0.2370
  107OSM    C2S10872   0.703   4.850   7.036 -0.2285 -0.0166  0.1289
  107OSM    H2S10873   0.671   4.749   7.001 -0.0375  0.0224 -0.1662
  107OSM    C3S10874   0.591   4.954   6.994  0.1265 -0.8537  0.0260
  107OSM    H3S10875   0.608   5.041   7.060 -0.3862 -3.6080  4.2095
  107OSM     O310876   0.450   4.912   7.019 -0.3177 -0.0936  0.1865
  107OSM    HO310877   0.458   4.841   7.084  0.3812 -0.3204 -0.1318
  107OSM    C4S10878   0.600   4.993   6.846 -0.8914 -0.0974  0.2695
  107OSM    H4S10879   0.611   4.906   6.778  0.2387  0.0498  0.2359
  107OSM    C5S10880   0.607   5.121   6.804  0.8040 -0.4188 -0.6624
  107OSM    H5S10881   0.600   5.209   6.870 -0.8903  0.2143 -1.6281
  107OSM    C6S10882   0.622   5.161   6.664 -0.9909  0.0524  0.9134
  107OSM    H6S10883   0.724   5.203   6.649  0.0089 -1.8753  1.8921
  107OSM    H6T10884   0.555   5.241   6.626  0.8699  1.3695  0.2326
  107OSM    C7S10885   0.628   5.056   6.555  0.4677 -0.2025  0.4054
  107OSM    H7S10886   0.528   5.012   6.538  0.6427 -0.8336  0.9610
  107OSM    H7T10887   0.708   4.985   6.585  0.9915  0.3127  0.2548
  107OSM    C8S10888   0.668   5.119   6.424 -0.0211 -0.4967 -0.4840
  107OSM    H8S10889   0.764   5.173   6.438 -1.7984  2.7965  0.1764
  107OSM    H8T10890   0.582   5.186   6.403  0.9014  0.2262 -2.1810
  107OSM    C9S10891   0.668   5.017   6.319  0.2565  0.0742  0.2114
  107OSM    H9S10892   0.576   4.955   6.327  1.5174 -2.3176 -2.1813
  107OSM    H9T10893   0.768   4.969   6.316  2.1251  3.6335 -0.5402
  107OSM   C10S10894   0.644   5.078   6.177  0.0643  0.0587  0.1198
  107OSM   H10S10895   0.537   5.107   6.166 -0.3257 -0.0654  2.7570
  107OSM   H10T10896   0.674   5.002   6.102  0.4683 -1.1662  1.4659
  107OSM   C11S10897   0.731   5.204   6.147 -0.1779 -0.2826  0.5958
  107OSM   H11S10898   0.839   5.176   6.152  0.0759  0.6290  0.4179
  107OSM   H11T10899   0.713   5.281   6.224  0.2528  0.7741 -0.3300
  107OSM   C12S10900   0.697   5.272   6.009 -0.9359  0.1093 -0.6766
  107OSM   H12S10901   0.726   5.377   6.029 -0.2964 -0.0762 -0.6182
  107OSM   H12T10902   0.588   5.271   5.985 -1.0488  1.8655 -0.3620
  107OSM   C13S10903   0.780   5.204   5.894  0.5639  0.3526 -1.0457
  107OSM   H13S10904   0.724   5.113   5.862  0.1659  0.5540 -0.9236
  107OSM   H13T10905   0.876   5.159   5.927  1.5882  3.0264 -0.1558
  107OSM   C14S10906   0.807   5.299   5.772  0.7271  0.5415 -0.2244
  107OSM   H14S10907   0.903   5.262   5.732  0.2741 -0.7009 -0.2087
  107OSM   H14T10908   0.831   5.397   5.818  0.7164  0.7363 -0.6245
  107OSM   C15S10909   0.689   5.310   5.678  0.0519  0.2373 -0.2872
  107OSM   H15S10910   0.702   5.398   5.612 -0.7289 -0.0742 -0.8862
  107OSM   H15T10911   0.590   5.319   5.729 -0.5735 -2.0947 -0.9402
  107OSM   C16S10912   0.675   5.188   5.587  0.1810 -0.1790 -0.0073
  107OSM   H16S10913   0.718   5.105   5.647  0.9328 -0.3099 -0.7071
  107OSM   H16T10914   0.736   5.192   5.494 -0.3880 -1.9724 -0.5047
  107OSM   C17S10915   0.529   5.161   5.551  0.1780 -0.0510  0.4257
  107OSM   H17S10916   0.472   5.136   5.643  0.7179  0.2047  0.8273
  107OSM   H17T10917   0.527   5.081   5.473  2.2900 -0.1006  0.3689
  107OSM   C18S10918   0.454   5.287   5.493 -0.6717  0.0479  0.1694
  107OSM   H18S10919   0.427   5.360   5.572  0.0113  0.4380  0.0441
  107OSM   H18T10920   0.357   5.258   5.448 -1.1672 -0.5071  1.5296
  107OSM   H18U10921   0.500   5.339   5.406 -0.1610 -0.8462 -0.1130
  107OSM    C1F10922   0.947   4.802   7.001 -0.3928  0.0381 -0.3730
  107OSM     OF10923   0.920   4.684   7.024  0.3037 -0.3043  0.5911
  107OSM    C2F10924   1.087   4.859   6.997  0.0454 -0.1909  0.1795
  107OSM    H2F10925   1.166   4.794   7.039  1.7122  1.6704  0.0952
  107OSM    H2G10926   1.076   4.946   7.065  1.1519  2.1046 -2.3338
  107OSM    C3F10927   1.115   4.929   6.860 -0.0588  0.0033 -0.3371
  107OSM    H3F10928   1.225   4.944   6.864  0.4205 -2.4571 -1.6057
  107OSM    H3G10929   1.055   5.021   6.845 -1.2310 -0.7115 -0.2416
  107OSM    C4F10930   1.093   4.842   6.736  0.1588  0.2615  1.1176
  107OSM    H4F10931   0.997   4.786   6.739  0.8646 -1.0626  0.1042
  107OSM    H4G10932   1.167   4.760   6.729 -1.3098 -0.9753 -1.2874
  107OSM    C5F10933   1.092   4.918   6.607  0.8698 -0.6069 -0.1868
  107OSM    H5F10934   1.176   4.991   6.610  2.6925 -2.4286 -2.5906
  107OSM    H5G10935   0.991   4.963   6.596  1.9865  1.9113 -0.8236
  107OSM    C6F10936   1.118   4.833   6.488  0.8786 -0.2269  0.4405
  107OSM    H6F10937   1.055   4.743   6.504  1.2521 -0.0931  3.2174
  107OSM    H6G10938   1.224   4.800   6.478  0.5363 -1.0439 -0.5726
  107OSM    C7F10939   1.076   4.894   6.356  0.2067 -1.0951  0.7835
  107OSM    H7F10940   1.151   4.969   6.322 -0.4821 -0.2758  1.0467
  107OSM    H7G10941   0.984   4.955   6.358 -0.5294 -1.9508 -2.2018
  107OSM    C8F10942   1.053   4.790   6.246  0.5350 -0.3873  0.2624
  107OSM    H8F10943   0.993   4.711   6.296 -0.1486  0.0551  0.1573
  107OSM    H8G10944   1.153   4.749   6.222  0.9037  0.7334 -0.2077
  107OSM    C9F10945   0.978   4.835   6.124 -0.6090  0.6072  0.4423
  107OSM    H9F10946   0.871   4.859   6.137 -0.6015  1.0142 -0.2078
  107OSM   C10F10947   1.027   4.841   5.999  0.5664 -0.2029  0.3801
  107OSM   H10F10948   0.953   4.862   5.920  3.1353  2.7886 -1.4720
  107OSM   C11F10949   1.167   4.805   5.953 -0.2466  0.9798 -0.1909
  107OSM   H11F10950   1.248   4.823   6.027 -0.5398 -1.2833  0.7600
  107OSM   H11G10951   1.205   4.867   5.869  0.4587 -0.7310 -1.1759
  107OSM   C12F10952   1.184   4.662   5.893 -0.2732 -0.1000 -0.5291
  107OSM   H12F10953   1.150   4.585   5.966  2.0011 -1.4435 -0.7941
  107OSM   H12G10954   1.293   4.651   5.878 -0.0929  1.2571 -0.2493
  107OSM   C13F10955   1.108   4.645   5.762 -0.2133  0.5180 -0.1884
  107OSM   H13F10956   1.120   4.736   5.700  0.7683 -0.5362 -1.5888
  107OSM   H13G10957   0.999   4.635   5.784 -0.3469  1.3585 -0.4084
  107OSM   C14F10958   1.178   4.526   5.681 -0.2024  0.4149 -0.0413
  107OSM   H14F10959   1.202   4.436   5.742  0.1905  0.1109 -0.6371
  107OSM   H14G10960   1.279   4.556   5.645 -1.0407  3.5328 -0.0840
  107OSM   C15F10961   1.087   4.477   5.562 -0.1552  0.2740 -1.0614
  107OSM   H15F10962   0.996   4.430   5.605 -1.8577  3.7625 -0.4984
  107OSM   H15G10963   1.141   4.388   5.523 -2.6406 -0.8725 -2.0718
  107OSM   C16F10964   1.060   4.574   5.455  0.6546  0.1306  0.4210
  107OSM   H16F10965   0.993   4.651   5.498 -1.3043 -0.1478 -1.8785
  107OSM   H16G10966   0.994   4.536   5.374 -0.7925  2.8350  0.2107
  107OSM   C17F10967   1.187   4.638   5.385 -0.1591  0.1813 -0.9693
  107OSM   H17F10968   1.262   4.556   5.379 -1.7717 -1.4803  0.4210
  107OSM   H17G10969   1.232   4.718   5.448 -0.6054 -1.7029  1.9302
  107OSM   C18F10970   1.169   4.696   5.246  0.1460 -0.3903  0.4655
  107OSM   H18F10971   1.127   4.613   5.184 -3.3788  1.4087  0.2118
  107OSM   H18G10972   1.267   4.738   5.213 -0.2531  2.3106  2.4558
  107OSM   H18H10973   1.090   4.772   5.258 -1.5344 -2.0635  0.3874
  108OSM      N10974   3.389   3.441   7.455  0.8115 -1.0825  0.2021
  108OSM    C1510975   3.370   3.378   7.316 -0.2121 -0.9854 -0.3215
  108OSM   H15A10976   3.282   3.315   7.325 -0.6909 -0.1040  2.0170
  108OSM   H15B10977   3.460   3.320   7.301  1.3782  0.8908  1.4544
  108OSM   H15C10978   3.351   3.441   7.231  0.5494 -1.1837 -0.6446
  108OSM    C1410979   3.403   3.337   7.552 -1.5729  0.0485  0.1279
  108OSM   H14A10980   3.495   3.282   7.544 -1.3023  0.1367  2.0246
  108OSM   H14B10981   3.319   3.270   7.544 -3.0812  1.9084 -0.4924
  108OSM   H14C10982   3.397   3.365   7.657 -2.5962 -2.6069  0.8623
  108OSM    C1310983   3.506   3.535   7.452  0.2197  0.2442 -0.2286
  108OSM   H13A10984   3.597   3.482   7.426  1.0747  2.4899 -2.3063
  108OSM   H13B10985   3.510   3.583   7.548 -1.1447 -0.4298  0.1781
  108OSM   H13C10986   3.478   3.608   7.377 -0.4253 -0.6700 -0.8972
  108OSM    C1210987   3.270   3.524   7.476  0.1436  0.0833  0.1989
  108OSM   H12A10988   3.178   3.471   7.457  0.9428 -0.8712 -1.2066
  108OSM   H12B10989   3.287   3.606   7.406 -1.1768  0.3612  0.1872
  108OSM    C1110990   3.255   3.593   7.617 -0.2644  0.3846 -0.2082
  108OSM   H11A10991   3.240   3.516   7.696  2.8048 -2.3428 -2.0553
  108OSM   H11B10992   3.159   3.648   7.603  0.7645  1.8362 -2.0226
  108OSM      P10993   3.329   3.832   7.692  0.0425  0.1239  0.4183
  108OSM    O1310994   3.240   3.816   7.805  0.2034 -0.0552  0.5665
  108OSM    O1410995   3.452   3.914   7.714  0.3004  0.2097 -0.5597
  108OSM    O1110996   3.243   3.875   7.557 -0.1655  0.1538  0.0176
  108OSM    O1210997   3.360   3.682   7.651 -0.2459  0.2901  0.1724
  108OSM    C1S10998   3.334   3.909   7.446  0.0764  0.0771 -0.2165
  108OSM    H1S10999   3.411   3.833   7.420  0.0253 -0.1086  0.1684
  108OSM    H1T11000   3.379   4.010   7.448 -0.2625  0.2703 -1.4988
  108OSM     NF11001   3.359   3.925   7.197 -0.2531  0.4559 -0.5216
  108OSM    HNF11002   3.354   4.005   7.137  2.2767  2.3149  1.5163
  108OSM    C2S11003   3.263   3.927   7.306 -0.1736  0.0329 -0.0806
  108OSM    H2S11004   3.203   3.833   7.295  0.0811 -0.1862  0.3521
  108OSM    C3S11005   3.166   4.050   7.316  0.2576 -0.0589  0.2255
  108OSM    H3S11006   3.221   4.144   7.340 -2.5850  1.4960  1.1859
  108OSM     O311007   3.082   4.053   7.429  0.2894  0.5270 -0.8181
  108OSM    HO311008   3.125   4.015   7.506 -2.0422 -0.2719  0.2026
  108OSM    C4S11009   3.088   4.076   7.184 -0.2366  0.8393  0.3122
  108OSM    H4S11010   3.125   4.168   7.136  4.5623  0.0721  1.9437
  108OSM    C5S11011   2.980   4.010   7.140 -0.6687  0.1664 -0.0630
  108OSM    H5S11012   2.935   3.929   7.199  0.5304 -0.7565 -0.3839
  108OSM    C6S11013   2.900   4.059   7.014  0.2245  0.1769  0.6469
  108OSM    H6S11014   2.928   4.166   7.006 -0.3264  0.3071  0.4151
  108OSM    H6T11015   2.791   4.070   7.034  0.1011  0.7165 -0.2594
  108OSM    C7S11016   2.915   3.966   6.888 -0.2375 -0.4394  0.1361
  108OSM    H7S11017   2.865   3.869   6.909  0.8019 -1.3393 -1.3677
  108OSM    H7T11018   3.021   3.964   6.855  0.5881  1.5583  2.3792
  108OSM    C8S11019   2.840   4.024   6.767  0.2793 -0.3492  0.5944
  108OSM    H8S11020   2.883   4.125   6.751  0.4505 -0.5324 -0.1515
  108OSM    H8T11021   2.730   4.023   6.783 -0.6886 -2.1622 -4.4263
  108OSM    C9S11022   2.858   3.948   6.637  0.1314  0.2697 -0.0375
  108OSM    H9S11023   2.829   3.843   6.659  0.2639  0.2624  0.1119
  108OSM    H9T11024   2.969   3.942   6.626  0.1001 -0.8718  0.1778
  108OSM   C10S11025   2.798   4.009   6.512  0.1383 -0.6911 -0.0942
  108OSM   H10S11026   2.773   4.113   6.542  0.5137 -0.8891  0.9325
  108OSM   H10T11027   2.702   3.961   6.484 -0.0936 -0.7557  0.7785
  108OSM   C11S11028   2.899   4.003   6.395 -0.2680  0.9368 -1.0838
  108OSM   H11S11029   2.930   3.901   6.364  1.2310  0.7764  0.7675
  108OSM   H11T11030   2.991   4.054   6.432  1.6612 -0.9192 -3.0496
  108OSM   C12S11031   2.840   4.076   6.283 -0.2344  0.8147 -0.2402
  108OSM   H12S11032   2.807   4.178   6.313 -0.0220  0.5715  0.8585
  108OSM   H12T11033   2.750   4.022   6.247  1.0996 -1.3471 -0.5229
  108OSM   C13S11034   2.940   4.085   6.168 -0.2164 -0.0134  0.4621
  108OSM   H13S11035   2.962   3.984   6.127 -0.3110  0.1864 -0.0969
  108OSM   H13T11036   3.037   4.124   6.204 -0.0732 -0.9650  1.1434
  108OSM   C14S11037   2.900   4.168   6.047 -0.2527  0.6470 -0.4355
  108OSM   H14S11038   2.880   4.274   6.073  0.1839  0.6834 -0.2357
  108OSM   H14T11039   2.808   4.118   6.008  0.1191 -1.2222  0.9508
  108OSM   C15S11040   3.009   4.171   5.939  0.5956 -0.7849  0.2926
  108OSM   H15S11041   3.018   4.061   5.923  0.1206 -0.8713  0.5860
  108OSM   H15T11042   3.099   4.224   5.975 -0.5644  3.1110 -1.9653
  108OSM   C16S11043   2.960   4.240   5.805  0.4801  0.5895  0.0008
  108OSM   H16S11044   3.006   4.341   5.800 -0.4017  1.0355  0.5994
  108OSM   H16T11045   2.849   4.245   5.799  0.4860  0.0945 -0.7325
  108OSM   C17S11046   2.988   4.154   5.678  0.4669 -0.4231  0.1583
  108OSM   H17S11047   2.938   4.055   5.685  0.3557 -0.3476  0.4684
  108OSM   H17T11048   3.098   4.139   5.675  0.4498 -0.6718  0.5916
  108OSM   C18S11049   2.940   4.231   5.553  0.3839 -0.8675 -0.1016
  108OSM   H18S11050   2.990   4.330   5.546 -1.4076  0.0080 -1.0221
  108OSM   H18T11051   2.830   4.246   5.560  0.0701 -3.0396  0.5164
  108OSM   H18U11052   2.968   4.178   5.459  0.6670  0.9866 -1.1075
  108OSM    C1F11053   3.424   3.814   7.163 -0.7244 -1.1758  0.1456
  108OSM     OF11054   3.396   3.703   7.210  0.6307  0.2751  0.2775
  108OSM    C2F11055   3.529   3.835   7.053 -0.0226 -0.2975  0.2701
  108OSM    H2F11056   3.622   3.874   7.098 -1.6040  1.6816  1.9674
  108OSM    H2G11057   3.495   3.921   6.991 -1.7066 -0.0075  1.5264
  108OSM    C3F11058   3.544   3.712   6.959  0.3265  0.3790 -0.0117
  108OSM    H3F11059   3.450   3.661   6.927  2.1101 -2.4305 -1.1504
  108OSM    H3G11060   3.594   3.635   7.021  2.6328  1.2115 -0.7107
  108OSM    C4F11061   3.634   3.723   6.839 -0.2108 -0.1812 -0.2415
  108OSM    H4F11062   3.674   3.625   6.808  2.3936 -0.0041  2.1033
  108OSM    H4G11063   3.726   3.784   6.851 -0.3787  0.4533 -1.8837
  108OSM    C5F11064   3.565   3.779   6.709 -0.2482  0.4021  0.0778
  108OSM    H5F11065   3.549   3.886   6.731  2.9791  1.0302 -0.1298
  108OSM    H5G11066   3.467   3.728   6.699  0.6378 -1.4038  0.2559
  108OSM    C6F11067   3.638   3.748   6.577 -0.4250  0.2093  0.4501
  108OSM    H6F11068   3.643   3.641   6.548  0.4812  0.5005 -0.5414
  108OSM    H6G11069   3.744   3.776   6.597 -1.1049  2.3663  1.2829
  108OSM    C7F11070   3.582   3.813   6.453  0.5513 -0.3182  0.3251
  108OSM    H7F11071   3.545   3.909   6.495  4.3194  0.2977  2.6940
  108OSM    H7G11072   3.492   3.759   6.418 -0.9396  1.3298  1.4375
  108OSM    C8F11073   3.673   3.834   6.331 -0.7876  0.4963  0.8834
  108OSM    H8F11074   3.600   3.877   6.259 -0.6517  1.1855  1.1502
  108OSM    H8G11075   3.717   3.742   6.287 -0.5826  0.9785  0.0588
  108OSM    C9F11076   3.783   3.934   6.347 -0.0778 -0.0044 -0.3297
  108OSM    H9F11077   3.824   3.943   6.449 -0.3045 -0.1796 -0.2235
  108OSM   C10F11078   3.838   4.020   6.252 -0.5151  1.0463 -0.1803
  108OSM   H10F11079   3.934   4.070   6.268  0.8566 -1.3414 -0.4892
  108OSM   C11F11080   3.820   4.009   6.099 -0.0998  0.5180 -0.4558
  108OSM   H11F11081   3.922   4.038   6.065  0.6250  0.1661  1.3025
  108OSM   H11G11082   3.747   4.088   6.071  0.7600  1.0478 -1.2615
  108OSM   C12F11083   3.791   3.865   6.051  0.3194 -0.6954  0.6026
  108OSM   H12F11084   3.685   3.845   6.080  0.6862  0.6524  3.2087
  108OSM   H12G11085   3.852   3.788   6.103 -0.2043 -1.5856 -0.0662
  108OSM   C13F11086   3.807   3.856   5.900 -0.1063 -0.2182 -0.2668
  108OSM   H13F11087   3.901   3.899   5.857 -1.7434  2.1452 -1.7281
  108OSM   H13G11088   3.716   3.905   5.860 -0.6650 -0.0651  1.1454
  108OSM   C14F11089   3.775   3.711   5.854 -0.7114  0.0274  0.2423
  108OSM   H14F11090   3.676   3.690   5.900 -2.0967  0.5351 -2.3294
  108OSM   H14G11091   3.856   3.647   5.897 -0.7739  0.4236  0.9482
  108OSM   C15F11092   3.766   3.700   5.699 -0.5169  0.0926  0.1016
  108OSM   H15F11093   3.843   3.768   5.658 -1.9889  2.1420  0.5824
  108OSM   H15G11094   3.668   3.744   5.669 -0.6642 -0.8030 -0.7811
  108OSM   C16F11095   3.791   3.555   5.644  0.4409 -0.1936 -0.3801
  108OSM   H16F11096   3.732   3.486   5.707 -1.6303  1.2724 -0.6141
  108OSM   H16G11097   3.901   3.538   5.648  0.6749  0.3905 -2.6860
  108OSM   C17F11098   3.743   3.528   5.505  0.1347 -0.2705  0.0278
  108OSM   H17F11099   3.769   3.421   5.486  0.5608 -0.2235  0.3436
  108OSM   H17G11100   3.793   3.598   5.435 -2.5265  3.1149  1.2506
  108OSM   C18F11101   3.594   3.545   5.494 -0.2338  0.1659 -0.1721
  108OSM   H18F11102   3.574   3.651   5.468  0.4721  0.3886  0.1952
  108OSM   H18G11103   3.545   3.516   5.590  0.7582 -0.3276  0.1993
  108OSM   H18H11104   3.550   3.487   5.410  0.8261 -0.9299  0.0015
  109OSM      N11105   0.053   0.107   7.365  0.3032 -0.3749 -0.1561
  109OSM    C1511106   0.064   0.175   7.229 -0.0933  0.8314 -0.1595
  109OSM   H15A11107   0.165   0.154   7.197 -0.0987 -3.6891  1.9533
  109OSM   H15B11108   0.046   0.280   7.244  0.2247  1.0639 -1.2957
  109OSM   H15C11109  -0.008   0.132   7.160 -0.5518  0.0474  0.7834
  109OSM    C1411110  -0.082   0.135   7.417  0.1253 -0.0955 -0.5466
  109OSM   H14A11111  -0.102   0.112   7.520 -1.4717  1.0910 -0.5489
  109OSM   H14B11112  -0.159   0.073   7.373 -1.0459 -0.1380  1.4693
  109OSM   H14C11113  -0.110   0.239   7.406 -0.2180 -0.1846 -0.5342
  109OSM    C1311114   0.069  -0.046   7.348  0.1836 -0.1683 -0.6273
  109OSM   H13A11115   0.060  -0.095   7.444  0.4728 -1.2134 -1.1236
  109OSM   H13B11116   0.167  -0.057   7.304  0.2202 -0.6821 -0.4296
  109OSM   H13C11117  -0.001  -0.091   7.279 -0.0183 -2.2066  0.8155
  109OSM    C1211118   0.161   0.160   7.463  0.6882  0.8045  0.4441
  109OSM   H12A11119   0.169   0.090   7.545  0.2459 -1.3178 -1.2373
  109OSM   H12B11120   0.145   0.259   7.505  2.2699  1.6818 -0.9229
  109OSM    C1111121   0.302   0.166   7.407 -0.8825 -0.1208  0.4080
  109OSM   H11A11122   0.372   0.212   7.480 -2.7623  2.3218  0.8055
  109OSM   H11B11123   0.305   0.237   7.321 -1.3873 -1.1194 -0.4569
  109OSM      P11124   0.393  -0.077   7.470 -0.3208 -0.5126  0.4171
  109OSM    O1311125   0.362  -0.033   7.606 -0.2975  0.3237  0.0174
  109OSM    O1411126   0.320  -0.195   7.420  0.3344 -0.0731  0.3540
  109OSM    O1111127   0.548  -0.096   7.458 -0.2086  0.1834 -0.5132
  109OSM    O1211128   0.362   0.042   7.362 -0.0077 -0.3544  0.2392
  109OSM    C1S11129   0.602  -0.150   7.334  0.2220  0.9561 -0.2282
  109OSM    H1S11130   0.543  -0.230   7.283  4.3837 -1.4636 -1.7428
  109OSM    H1T11131   0.690  -0.214   7.358 -1.3024 -2.7154 -3.4584
  109OSM     NF11132   0.677  -0.111   7.099 -0.0911  0.0742 -0.5817
  109OSM    HNF11133   0.771  -0.105   7.066 -0.0539 -1.6455 -0.8838
  109OSM    C2S11134   0.643  -0.044   7.228 -0.1288 -0.9943  0.0033
  109OSM    H2S11135   0.556   0.021   7.201  0.8697 -0.3096 -1.7803
  109OSM    C3S11136   0.753   0.055   7.290  0.0752  0.3693 -0.4094
  109OSM    H3S11137   0.852   0.005   7.299 -0.1174  0.1166  0.3791
  109OSM     O311138   0.719   0.104   7.415  0.5479 -0.9707 -0.0608
  109OSM    HO311139   0.663   0.037   7.456  0.2199 -0.4646  0.3465
  109OSM    C4S11140   0.773   0.173   7.193 -0.2390  0.1074  1.0252
  109OSM    H4S11141   0.710   0.262   7.204 -0.5373  0.1947 -0.9189
  109OSM    C5S11142   0.861   0.179   7.081  0.3064  0.2036 -0.3475
  109OSM    H5S11143   0.928   0.096   7.054 -0.8294 -1.5753  1.8921
  109OSM    C6S11144   0.869   0.290   6.979  0.5892 -0.1017 -0.8900
  109OSM    H6S11145   0.964   0.344   7.002  0.4139 -0.9744  2.4470
  109OSM    H6T11146   0.789   0.364   6.998  1.1233 -0.2191  2.7131
  109OSM    C7S11147   0.858   0.238   6.838  0.1248  0.0700 -0.5330
  109OSM    H7S11148   0.937   0.163   6.816  1.4206  1.1557  0.2333
  109OSM    H7T11149   0.879   0.323   6.769  0.4228  0.2771 -0.1921
  109OSM    C8S11150   0.716   0.188   6.811  0.5857 -0.5321  0.4121
  109OSM    H8S11151   0.658   0.280   6.831 -1.2772 -1.3235 -1.0254
  109OSM    H8T11152   0.665   0.118   6.881  0.6318  2.6710  3.9904
  109OSM    C9S11153   0.704   0.135   6.671  0.5531 -0.2804 -0.0319
  109OSM    H9S11154   0.769   0.045   6.666 -0.3594 -0.9068 -1.2826
  109OSM    H9T11155   0.745   0.213   6.603  0.6942  1.6187  2.0986
  109OSM   C10S11156   0.564   0.094   6.625  0.5050 -0.9139 -0.1249
  109OSM   H10S11157   0.501   0.185   6.643 -0.5179 -1.6965  0.3838
  109OSM   H10T11158   0.530   0.012   6.692 -0.3879 -0.3868  0.0859
  109OSM   C11S11159   0.567   0.058   6.479  0.0186  0.5485  0.6436
  109OSM   H11S11160   0.497  -0.022   6.447  3.1964 -1.8384 -0.9565
  109OSM   H11T11161   0.671   0.017   6.475  0.0804  0.1435  4.0749
  109OSM   C12S11162   0.546   0.165   6.383  0.0649  0.5798 -0.0146
  109OSM   H12S11163   0.595   0.259   6.416  0.5398  1.0642 -2.0020
  109OSM   H12T11164   0.437   0.188   6.383 -0.3348 -0.8062  3.3381
  109OSM   C13S11165   0.605   0.134   6.247 -0.5965  0.0145 -0.0985
  109OSM   H13S11166   0.564   0.036   6.217  2.6851 -0.7531 -2.6020
  109OSM   H13T11167   0.716   0.127   6.244 -0.4018  2.3444 -0.6818
  109OSM   C14S11168   0.567   0.234   6.140 -0.0275  0.1175  0.0936
  109OSM   H14S11169   0.589   0.338   6.171  0.3594  0.1496 -0.2774
  109OSM   H14T11170   0.458   0.221   6.118  0.6628 -0.7867 -3.3681
  109OSM   C15S11171   0.636   0.205   6.002 -0.0374  0.0500 -0.7491
  109OSM   H15S11172   0.739   0.170   6.026 -1.3927 -2.3301  2.5125
  109OSM   H15T11173   0.632   0.292   5.934 -1.1177 -1.5773 -2.8932
  109OSM   C16S11174   0.574   0.086   5.921  0.1002 -0.6204  0.4599
  109OSM   H16S11175   0.475   0.131   5.897  1.1560  1.5995 -0.0284
  109OSM   H16T11176   0.560  -0.002   5.987 -1.2234  0.0399  1.0975
  109OSM   C17S11177   0.652   0.048   5.789  0.5491  1.0332 -0.0164
  109OSM   H17S11178   0.585  -0.021   5.734 -0.9170  2.2987  0.0959
  109OSM   H17T11179   0.746   0.001   5.825 -1.3808 -2.2337  1.2215
  109OSM   C18S11180   0.667   0.161   5.693 -0.4288  0.1639 -0.0986
  109OSM   H18S11181   0.569   0.215   5.697  0.4400  1.7218  1.4117
  109OSM   H18T11182   0.682   0.130   5.588  3.5416  1.3745 -0.0277
  109OSM   H18U11183   0.744   0.230   5.733  0.3190 -1.5749  1.5899
  109OSM    C1F11184   0.585  -0.184   7.033 -0.1038  0.0666  0.5955
  109OSM     OF11185   0.465  -0.174   7.057 -0.1309 -0.2036 -0.1551
  109OSM    C2F11186   0.627  -0.274   6.927  0.1538  0.5122  0.1300
  109OSM    H2F11187   0.635  -0.376   6.971  0.1148  0.4106 -0.0956
  109OSM    H2G11188   0.722  -0.238   6.882 -1.5883  2.0360 -2.5754
  109OSM    C3F11189   0.524  -0.289   6.809  0.1330 -0.2425 -0.1365
  109OSM    H3F11190   0.483  -0.190   6.780 -2.6493 -0.4279  2.6245
  109OSM    H3G11191   0.434  -0.345   6.843 -0.7010  1.8394  1.2831
  109OSM    C4F11192   0.587  -0.365   6.680 -0.6562 -0.5918 -0.1057
  109OSM    H4F11193   0.573  -0.474   6.694  1.3139 -0.6881  1.6666
  109OSM    H4G11194   0.694  -0.342   6.664 -0.5288 -1.4178 -0.4999
  109OSM    C5F11195   0.523  -0.313   6.545  0.6125 -0.6509  0.1435
  109OSM    H5F11196   0.557  -0.208   6.556 -0.1344 -0.1747 -1.6931
  109OSM    H5G11197   0.413  -0.321   6.560  0.8065  0.2360  2.6017
  109OSM    C6F11198   0.571  -0.378   6.410  1.0069 -0.7975 -0.3768
  109OSM    H6F11199   0.549  -0.487   6.418 -0.7342 -0.4088  0.7415
  109OSM    H6G11200   0.681  -0.369   6.408  0.9497  1.3643  1.9609
  109OSM    C7F11201   0.500  -0.304   6.293 -0.1130 -0.4649  0.8730
  109OSM    H7F11202   0.538  -0.200   6.303 -0.4013 -0.2287 -0.4037
  109OSM    H7G11203   0.389  -0.306   6.305 -0.2025 -1.2152  0.0291
  109OSM    C8F11204   0.519  -0.372   6.154 -0.5182 -0.1708  0.6603
  109OSM    H8F11205   0.477  -0.474   6.155 -1.5504  0.2146 -0.3864
  109OSM    H8G11206   0.628  -0.391   6.149 -0.5696 -0.5953  1.1751
  109OSM    C9F11207   0.478  -0.279   6.036  0.4415 -0.0814 -0.0120
  109OSM    H9F11208   0.484  -0.172   6.063  3.0127 -0.6149  1.9212
  109OSM   C10F11209   0.447  -0.318   5.908 -0.1058 -0.8406 -0.1030
  109OSM   H10F11210   0.416  -0.236   5.842  2.6600 -0.5352 -1.1437
  109OSM   C11F11211   0.424  -0.461   5.854  0.0330 -0.5098 -0.3322
  109OSM   H11F11212   0.321  -0.459   5.813 -2.0918 -2.6651  4.1776
  109OSM   H11G11213   0.411  -0.536   5.935  0.5631  0.0325  0.2622
  109OSM   C12F11214   0.531  -0.516   5.748  0.0648 -0.3293  0.4106
  109OSM   H12F11215   0.618  -0.556   5.805 -0.3133  0.2457  1.4210
  109OSM   H12G11216   0.591  -0.442   5.691  1.3231 -3.4161 -2.6090
  109OSM   C13F11217   0.479  -0.632   5.667  0.2015  0.1322  0.1278
  109OSM   H13F11218   0.450  -0.719   5.731 -0.2864  0.4543  0.3559
  109OSM   H13G11219   0.560  -0.674   5.605 -0.3696 -1.2859  0.3098
  109OSM   C14F11220   0.352  -0.606   5.585  0.6113 -0.2672 -0.0254
  109OSM   H14F11221   0.265  -0.599   5.654  2.1344  0.2644  1.9062
  109OSM   H14G11222   0.333  -0.699   5.527 -0.0575 -0.0825 -0.1121
  109OSM   C15F11223   0.360  -0.494   5.472  0.3199  0.0123  0.2081
  109OSM   H15F11224   0.459  -0.489   5.423  1.5380 -0.7986  2.4588
  109OSM   H15G11225   0.334  -0.402   5.529  0.1696  0.3400 -0.3757
  109OSM   C16F11226   0.250  -0.517   5.361  0.3992  0.1891  0.4710
  109OSM   H16F11227   0.178  -0.434   5.366 -0.8723 -0.6111 -2.4555
  109OSM   H16G11228   0.191  -0.603   5.401 -0.3623  0.8256  0.7267
  109OSM   C17F11229   0.303  -0.552   5.227 -0.6008 -0.0833 -0.6969
  109OSM   H17F11230   0.221  -0.594   5.163 -1.6517  1.7574 -0.6188
  109OSM   H17G11231   0.373  -0.639   5.232 -1.1244 -0.4187  1.6380
  109OSM   C18F11232   0.381  -0.431   5.170  0.3148 -0.1094  0.4893
  109OSM   H18F11233   0.473  -0.403   5.227 -0.1265  2.5667  0.0163
  109OSM   H18G11234   0.311  -0.346   5.164  1.5093  0.9689  1.2857
  109OSM   H18H11235   0.419  -0.458   5.069 -0.6615 -0.4430  0.1988
  110OSM      N11236   1.084   3.232   7.455  0.3357  0.1212 -0.6267
  110OSM    C1511237   1.195   3.289   7.547 -0.7432  0.2195 -0.4074
  110OSM   H15A11238   1.288   3.299   7.494 -1.4323  0.3841 -1.6273
  110OSM   H15B11239   1.205   3.221   7.630 -0.7029 -0.3038 -0.8364
  110OSM   H15C11240   1.167   3.389   7.580  0.2977 -0.2492  2.1518
  110OSM    C1411241   0.962   3.185   7.533 -0.3038  0.1333  0.1927
  110OSM   H14A11242   0.874   3.169   7.472  0.2267  0.5782 -0.6937
  110OSM   H14B11243   0.939   3.245   7.620  1.6582 -0.5950  1.2780
  110OSM   H14C11244   0.983   3.090   7.580 -0.3400  0.5318  1.0311
  110OSM    C1311245   1.047   3.352   7.374 -1.0393  0.2264  1.1515
  110OSM   H13A11246   1.133   3.371   7.311 -3.0794  1.1683 -1.5227
  110OSM   H13B11247   1.018   3.432   7.440 -2.1483  0.7606  0.0429
  110OSM   H13C11248   0.962   3.338   7.310 -0.6920 -1.6959  1.0445
  110OSM    C1211249   1.136   3.119   7.367 -0.2852  0.0762 -0.4835
  110OSM   H12A11250   1.224   3.149   7.313 -0.2885 -1.7529 -1.5625
  110OSM   H12B11251   1.066   3.089   7.291 -0.2278  0.0819 -0.5380
  110OSM    C1111252   1.183   2.994   7.446 -0.2972  1.1971  0.9618
  110OSM   H11A11253   1.252   3.020   7.529  1.7551  0.1974 -0.3228
  110OSM   H11B11254   1.245   2.926   7.383 -2.5603  0.7017 -0.8468
  110OSM      P11255   1.002   2.791   7.443  0.4894  0.3465  0.2374
  110OSM    O1311256   1.067   2.667   7.496  0.1565 -0.3095  0.1472
  110OSM    O1411257   0.850   2.802   7.452 -0.0658 -0.2690  0.1495
  110OSM    O1111258   1.037   2.788   7.291  0.0096  0.0056 -0.6805
  110OSM    O1211259   1.070   2.926   7.492  0.3269 -0.0771  0.1539
  110OSM    C1S11260   0.952   2.832   7.188  0.7947 -0.0013 -0.5985
  110OSM    H1S11261   0.932   2.941   7.199  0.8547 -0.1734  1.5369
  110OSM    H1T11262   0.852   2.782   7.187  0.2864  0.9747 -0.1503
  110OSM     NF11263   0.957   2.899   6.948  0.3396 -0.6625 -0.2264
  110OSM    HNF11264   0.891   2.865   6.881 -1.3126  0.7651  0.5901
  110OSM    C2S11265   1.012   2.809   7.049 -0.2193 -0.7157 -0.3258
  110OSM    H2S11266   1.117   2.842   7.067 -0.2776 -0.9887  0.5573
  110OSM    C3S11267   1.011   2.654   7.021 -0.5569 -0.2611 -0.4417
  110OSM    H3S11268   0.905   2.620   7.023 -0.1056 -1.8215  1.9277
  110OSM     O311269   1.057   2.564   7.126  0.0030  0.8223 -0.1348
  110OSM    HO311270   1.079   2.625   7.197  2.5738  0.8635 -0.8961
  110OSM    C4S11271   1.072   2.618   6.890 -0.6800 -1.4929  0.1914
  110OSM    H4S11272   0.998   2.634   6.810  0.9803  0.4821 -1.0359
  110OSM    C5S11273   1.190   2.563   6.859 -0.0649  0.6898 -0.5171
  110OSM    H5S11274   1.259   2.537   6.941  0.6847  3.3285 -0.2172
  110OSM    C6S11275   1.246   2.536   6.715 -0.6678  0.5409 -0.3887
  110OSM    H6S11276   1.255   2.426   6.714 -0.3276  0.5104  1.8304
  110OSM    H6T11277   1.341   2.592   6.696 -1.1199  0.8899 -1.7369
  110OSM    C7S11278   1.154   2.574   6.607 -0.2601  0.1206  0.2718
  110OSM    H7S11279   1.131   2.683   6.606 -0.6345  0.0413 -0.0790
  110OSM    H7T11280   1.069   2.503   6.616 -0.7748  0.4213 -1.6222
  110OSM    C8S11281   1.206   2.543   6.461  0.2933  0.1504 -0.7361
  110OSM    H8S11282   1.233   2.440   6.431  2.4222  0.1320  1.0336
  110OSM    H8T11283   1.290   2.616   6.456 -1.0898  2.1331  2.1513
  110OSM    C9S11284   1.107   2.597   6.355 -0.2221 -0.1660  0.1310
  110OSM    H9S11285   1.089   2.706   6.370 -0.0860 -0.0148 -0.7232
  110OSM    H9T11286   1.007   2.549   6.359  1.3890 -3.8353 -0.2553
  110OSM   C10S11287   1.163   2.562   6.220  0.1817  0.3413 -0.9500
  110OSM   H10S11288   1.148   2.452   6.210 -0.7774  0.1009  2.1077
  110OSM   H10T11289   1.273   2.579   6.216  0.2309 -0.0035 -1.1024
  110OSM   C11S11290   1.100   2.636   6.104 -0.3018 -0.2487  0.1238
  110OSM   H11S11291   1.098   2.745   6.126  1.2879 -0.5306  1.9061
  110OSM   H11T11292   0.996   2.597   6.098  0.4448 -2.1055 -1.9060
  110OSM   C12S11293   1.170   2.620   5.971  0.0057 -0.7838  0.4638
  110OSM   H12S11294   1.179   2.510   5.960 -0.8312 -0.9461  1.2872
  110OSM   H12T11295   1.272   2.665   5.974 -0.3985  0.3135 -1.1494
  110OSM   C13S11296   1.092   2.668   5.852  0.1531 -0.1528  0.6980
  110OSM   H13S11297   1.101   2.778   5.840 -3.6130  0.0763 -1.7050
  110OSM   H13T11298   0.982   2.657   5.861  0.1189 -0.3812  0.0628
  110OSM   C14S11299   1.137   2.618   5.707 -0.6415  0.0739  0.3245
  110OSM   H14S11300   1.110   2.510   5.697  3.2503 -0.9372 -1.1866
  110OSM   H14T11301   1.248   2.626   5.709 -0.6327  0.2002 -0.4385
  110OSM   C15S11302   1.093   2.707   5.586 -0.4588  0.4885 -0.0253
  110OSM   H15S11303   1.116   2.814   5.602 -0.2049  0.0660  2.9926
  110OSM   H15T11304   0.982   2.703   5.587 -0.5344  0.5628  3.6558
  110OSM   C16S11305   1.153   2.647   5.460 -0.5690 -0.6595 -0.5759
  110OSM   H16S11306   1.263   2.663   5.449 -0.6146 -0.3108 -0.5286
  110OSM   H16T11307   1.117   2.717   5.382 -1.6882 -0.3486  0.2090
  110OSM   C17S11308   1.132   2.502   5.412 -0.0302 -0.2550 -0.5913
  110OSM   H17S11309   1.026   2.483   5.439  0.5864 -1.7739  0.8683
  110OSM   H17T11310   1.194   2.443   5.482 -2.2794 -0.9301  0.9408
  110OSM   C18S11311   1.156   2.480   5.266  0.1966  0.3626  0.7645
  110OSM   H18S11312   1.084   2.537   5.203 -0.1479 -1.1269 -0.2470
  110OSM   H18T11313   1.145   2.373   5.237 -1.8456  0.6937  0.1331
  110OSM   H18U11314   1.254   2.529   5.248 -1.9952  5.0267  0.0071
  110OSM    C1F11315   0.976   3.036   6.951  0.1426  0.3667  0.3522
  110OSM     OF11316   1.040   3.090   7.043  0.0451  0.3777  0.4193
  110OSM    C2F11317   0.909   3.113   6.840 -0.0434  0.0403 -0.5961
  110OSM    H2F11318   0.798   3.105   6.844 -0.2660  1.1612 -2.7653
  110OSM    H2G11319   0.940   3.065   6.745 -1.8414  0.2319 -1.3330
  110OSM    C3F11320   0.950   3.264   6.830 -0.2611  0.1023 -0.2207
  110OSM    H3F11321   1.059   3.273   6.811 -0.4296 -0.3417 -1.5373
  110OSM    H3G11322   0.911   3.302   6.926  0.4000  1.0835 -0.3367
  110OSM    C4F11323   0.879   3.327   6.707 -0.1235  0.2675 -0.6316
  110OSM    H4F11324   0.865   3.436   6.727 -4.2697 -0.1563 -0.3393
  110OSM    H4G11325   0.775   3.289   6.696 -0.2217  0.0015  0.9363
  110OSM    C5F11326   0.961   3.326   6.581 -0.2301 -0.0580  0.9318
  110OSM    H5F11327   0.985   3.223   6.546 -2.3279 -0.1328 -0.5028
  110OSM    H5G11328   1.058   3.370   6.609  0.5275 -2.0801  1.6987
  110OSM    C6F11329   0.890   3.394   6.465  0.1281  0.3594 -0.5257
  110OSM    H6F11330   0.863   3.498   6.492 -1.9020 -0.1070 -0.6542
  110OSM    H6G11331   0.803   3.345   6.418  0.4004  1.2216 -1.9760
  110OSM    C7F11332   0.994   3.398   6.348  0.3980 -0.2704  0.2682
  110OSM    H7F11333   1.052   3.304   6.335  1.9598  0.5323  1.0542
  110OSM    H7G11334   1.071   3.477   6.363  0.6981 -0.7031  1.0462
  110OSM    C8F11335   0.924   3.423   6.215  0.4484  0.4390 -0.0980
  110OSM    H8F11336   0.853   3.509   6.215 -0.8514 -0.5994 -0.6445
  110OSM    H8G11337   0.868   3.331   6.189 -0.3709  0.3040  1.9594
  110OSM    C9F11338   1.024   3.447   6.109  0.2801 -0.0433  0.3136
  110OSM    H9F11339   1.105   3.510   6.147  0.7222 -0.6015  0.2956
  110OSM   C10F11340   1.035   3.377   5.992 -0.3506  0.8333  0.0793
  110OSM   H10F11341   1.124   3.396   5.931 -0.9956  1.0595 -0.8100
  110OSM   C11F11342   0.947   3.263   5.940  0.4516  0.7251 -0.0430
  110OSM   H11F11343   0.846   3.288   5.979  1.3320  1.6729  1.7524
  110OSM   H11G11344   0.966   3.161   5.981  0.4045  0.0434 -1.6332
  110OSM   C12F11345   0.954   3.261   5.784 -0.1262 -0.3402  0.2884
  110OSM   H12F11346   0.948   3.368   5.755 -0.0875 -0.1242  1.0384
  110OSM   H12G11347   0.868   3.206   5.741  1.2405 -3.1068  0.8631
  110OSM   C13F11348   1.082   3.203   5.731 -0.0984  0.0220 -0.1557
  110OSM   H13F11349   1.100   3.106   5.780  1.3888  1.5895  2.6402
  110OSM   H13G11350   1.175   3.260   5.754 -1.1928  2.0422 -0.5184
  110OSM   C14F11351   1.081   3.174   5.578  0.2240 -0.2724 -0.3221
  110OSM   H14F11352   1.006   3.094   5.563  0.0727 -0.2796  0.4577
  110OSM   H14G11353   1.173   3.128   5.535  0.3529  0.9539 -1.4227
  110OSM   C15F11354   1.048   3.297   5.503  0.1022  0.8934 -0.6653
  110OSM   H15F11355   1.125   3.377   5.498  1.7276 -0.6551 -2.0909
  110OSM   H15G11356   0.956   3.342   5.545  0.9983  1.9357  0.2487
  110OSM   C16F11357   1.032   3.254   5.361  0.3773 -0.1984  0.3092
  110OSM   H16F11358   0.958   3.172   5.353 -1.9171  1.6363  1.4094
  110OSM   H16G11359   1.130   3.217   5.322  0.8665 -0.7544  1.9857
  110OSM   C17F11360   0.978   3.366   5.270  0.8573  0.2473 -0.5410
  110OSM   H17F11361   1.050   3.451   5.274  1.7930 -0.5585  1.8186
  110OSM   H17G11362   0.877   3.393   5.307  0.0958 -3.0782  0.2200
  110OSM   C18F11363   0.958   3.316   5.128  0.0600  0.2959 -1.0007
  110OSM   H18F11364   0.891   3.385   5.072  1.6123  1.3382 -1.6628
  110OSM   H18G11365   0.925   3.210   5.126 -0.4717  0.4061  0.4388
  110OSM   H18H11366   1.056   3.312   5.076  1.3380  3.4792  0.8907
  111OSM      N11367   4.978   1.394   7.324  0.4564 -0.0759 -0.5055
  111OSM    C1511368   4.993   1.253   7.270  0.4289 -0.0081  0.3474
  111OSM   H15A11369   5.056   1.252   7.182  0.5427  1.8553  0.3677
  111OSM   H15B11370   4.895   1.211   7.253 -0.2224  0.0841  3.3121
  111OSM   H15C11371   5.040   1.196   7.349 -1.9503 -0.6345  1.3779
  111OSM    C1411372   4.884   1.391   7.444 -0.4331  0.2905  0.1329
  111OSM   H14A11373   4.885   1.492   7.484 -0.1995 -0.0379  0.9921
  111OSM   H14B11374   4.905   1.312   7.514  0.8023  0.2616 -0.2567
  111OSM   H14C11375   4.779   1.378   7.424 -0.6479 -0.5676  1.6316
  111OSM    C1311376   5.096   1.453   7.372 -0.4512 -0.1345 -0.0457
  111OSM   H13A11377   5.082   1.551   7.415  1.0530 -0.5560  1.5106
  111OSM   H13B11378   5.175   1.467   7.300 -1.6654  3.0622 -0.9150
  111OSM   H13C11379   5.132   1.399   7.459 -2.5049 -2.0730 -0.2891
  111OSM    C1211380   4.922   1.488   7.220  0.3251 -0.3818 -0.5218
  111OSM   H12A11381   4.990   1.501   7.137 -0.0817 -0.4647 -0.8719
  111OSM   H12B11382   4.905   1.582   7.269  0.8272 -1.0621  1.0478
  111OSM    C1111383   4.781   1.463   7.166 -0.0762  0.9985  0.0372
  111OSM   H11A11384   4.760   1.358   7.135  0.6311  1.9532 -4.2138
  111OSM   H11B11385   4.779   1.528   7.076  0.1961  0.4062 -0.4032
  111OSM      P11386   4.538   1.442   7.260  0.4646 -0.3328  0.2369
  111OSM    O1311387   4.549   1.296   7.279 -0.4481  0.2247 -0.2882
  111OSM    O1411388   4.458   1.510   7.365 -0.1988 -0.4418  0.5070
  111OSM    O1111389   4.473   1.467   7.120 -0.5274  0.2343  0.2243
  111OSM    O1211390   4.678   1.510   7.253 -0.4483 -0.0583 -0.4100
  111OSM    C1S11391   4.454   1.604   7.082  0.0265 -0.2098  0.0826
  111OSM    H1S11392   4.555   1.645   7.063 -0.1247  1.1384  1.8671
  111OSM    H1T11393   4.401   1.665   7.158  0.5751 -0.0096  0.3055
  111OSM     NF11394   4.372   1.742   6.888 -0.6979 -1.2315 -0.3452
  111OSM    HNF11395   4.285   1.789   6.877 -0.6124 -1.0865 -0.4214
  111OSM    C2S11396   4.369   1.616   6.949  0.0053  1.1683 -0.4950
  111OSM    H2S11397   4.422   1.547   6.879 -0.5376 -0.8766  1.0008
  111OSM    C3S11398   4.228   1.550   6.975  0.7043  0.0044  0.1238
  111OSM    H3S11399   4.175   1.617   7.047 -1.6364 -2.7255  1.1556
  111OSM     O311400   4.227   1.424   7.043  0.4674 -0.3508  0.1721
  111OSM    HO311401   4.310   1.421   7.091  1.0382 -1.0932 -0.8433
  111OSM    C4S11402   4.136   1.547   6.857  0.2656  0.4791 -0.5610
  111OSM    H4S11403   4.061   1.626   6.872 -0.1697 -0.5119  4.3206
  111OSM    C5S11404   4.119   1.458   6.763 -0.1310 -0.3407  0.6029
  111OSM    H5S11405   4.190   1.374   6.758  1.1170  0.7054  0.2132
  111OSM    C6S11406   4.018   1.458   6.649 -0.2721  0.3676  0.0166
  111OSM    H6S11407   3.951   1.547   6.650 -0.3402  0.3552 -1.3798
  111OSM    H6T11408   3.956   1.366   6.652  0.1892  0.0532  0.0667
  111OSM    C7S11409   4.079   1.452   6.510  0.2576 -0.1867  0.2683
  111OSM    H7S11410   4.117   1.348   6.500 -0.4826 -0.8264  3.1738
  111OSM    H7T11411   4.144   1.542   6.497  0.0424 -0.1759 -0.8143
  111OSM    C8S11412   3.963   1.457   6.411  0.4736  0.1966  0.3282
  111OSM    H8S11413   3.891   1.541   6.425 -0.0937 -0.0565 -0.8715
  111OSM    H8T11414   3.897   1.368   6.417  3.9015 -2.8439 -2.4269
  111OSM    C9S11415   4.009   1.456   6.266  0.3618 -0.7620  0.0174
  111OSM    H9S11416   4.060   1.361   6.240  0.1695 -1.1590  1.0522
  111OSM    H9T11417   4.081   1.540   6.256  1.9241 -2.0074  0.2809
  111OSM   C10S11418   3.888   1.481   6.160 -0.7040 -0.0641  0.3233
  111OSM   H10S11419   3.849   1.579   6.195  0.8955  1.1098 -1.0166
  111OSM   H10T11420   3.816   1.398   6.178 -2.3006  0.9728 -0.9440
  111OSM   C11S11421   3.929   1.483   6.016  0.1234  0.0293  1.0023
  111OSM   H11S11422   3.948   1.376   5.992 -2.2424 -1.2416  3.9899
  111OSM   H11T11423   4.012   1.553   5.992 -2.3839  2.6108 -0.7271
  111OSM   C12S11424   3.814   1.523   5.920 -0.4238 -0.0333 -0.0340
  111OSM   H12S11425   3.786   1.627   5.945 -0.1933  0.7864 -2.7602
  111OSM   H12T11426   3.728   1.453   5.924 -0.8518  0.5391  1.2799
  111OSM   C13S11427   3.876   1.527   5.774  0.4086  0.0476 -0.0776
  111OSM   H13S11428   3.914   1.424   5.762 -0.9695 -0.4594 -0.2557
  111OSM   H13T11429   3.956   1.603   5.762 -0.5708  0.7369 -3.1893
  111OSM   C14S11430   3.769   1.539   5.666 -0.8091  0.5230 -1.1291
  111OSM   H14S11431   3.705   1.627   5.685  0.8901  1.2464  1.7919
  111OSM   H14T11432   3.710   1.444   5.672  1.6176 -0.9926  0.5376
  111OSM   C15S11433   3.821   1.549   5.526  0.0761 -0.2244 -0.3933
  111OSM   H15S11434   3.895   1.472   5.497  2.7539  2.7544 -2.1962
  111OSM   H15T11435   3.876   1.646   5.526 -0.1740 -0.0763 -1.3457
  111OSM   C16S11436   3.704   1.551   5.435  0.0569  0.8297  1.7640
  111OSM   H16S11437   3.624   1.622   5.464 -3.1836 -0.9924 -1.7952
  111OSM   H16T11438   3.663   1.448   5.446 -0.9935  1.2434  1.7962
  111OSM   C17S11439   3.749   1.591   5.293 -0.1752 -0.2073 -0.9477
  111OSM   H17S11440   3.830   1.523   5.258 -1.7463 -1.4436 -2.3930
  111OSM   H17T11441   3.810   1.684   5.293  1.0033 -0.9343  0.1227
  111OSM   C18S11442   3.633   1.594   5.196  0.6349  0.2947 -0.8813
  111OSM   H18S11443   3.609   1.491   5.162  0.0324  0.9523 -2.5551
  111OSM   H18T11444   3.654   1.636   5.096  0.7745 -2.3973 -2.0669
  111OSM   H18U11445   3.552   1.656   5.240  0.2286 -0.6619 -0.2510
  111OSM    C1F11446   4.489   1.807   6.861  0.2563  0.0008  0.5758
  111OSM     OF11447   4.594   1.747   6.841 -0.5920  0.0310 -0.1791
  111OSM    C2F11448   4.492   1.957   6.859  0.6457 -0.5738  0.6897
  111OSM    H2F11449   4.510   1.988   6.964  0.7544  0.3352  0.4088
  111OSM    H2G11450   4.395   1.996   6.823  1.6845  0.8630 -0.6671
  111OSM    C3F11451   4.605   2.004   6.767  1.3015  0.4455  0.1942
  111OSM    H3F11452   4.698   1.963   6.810 -0.9816 -2.8685  2.4480
  111OSM    H3G11453   4.609   2.113   6.786 -0.3740  0.1327  3.0297
  111OSM    C4F11454   4.584   1.983   6.617  1.1860  0.0734 -0.7480
  111OSM    H4F11455   4.494   2.039   6.585 -1.2290 -2.2564  1.4717
  111OSM    H4G11456   4.570   1.875   6.593 -0.0745 -0.0550  0.4396
  111OSM    C5F11457   4.711   2.022   6.540  0.5526 -0.0999 -0.2000
  111OSM    H5F11458   4.791   1.959   6.587  0.1734 -0.2903  0.2013
  111OSM    H5G11459   4.736   2.130   6.544 -0.7760  0.1920  1.0553
  111OSM    C6F11460   4.695   1.984   6.394 -0.6901  0.1098 -0.4874
  111OSM    H6F11461   4.623   2.054   6.348  0.1346  1.7298  0.5915
  111OSM    H6G11462   4.656   1.880   6.393 -0.9285  0.1930  0.0272
  111OSM    C7F11463   4.828   1.996   6.317 -0.1555  0.3808  0.2289
  111OSM    H7F11464   4.893   1.912   6.346 -0.8818 -0.5958 -0.8779
  111OSM    H7G11465   4.862   2.101   6.329 -1.4474  1.0416 -1.4159
  111OSM    C8F11466   4.814   1.973   6.164 -0.6699 -0.1617 -0.1004
  111OSM    H8F11467   4.724   2.034   6.141 -1.8949 -0.9355  2.3732
  111OSM    H8G11468   4.791   1.865   6.153 -0.6013 -0.3909  1.8143
  111OSM    C9F11469   4.932   2.020   6.088  0.2766 -0.4530  0.0121
  111OSM    H9F11470   5.027   1.993   6.136  1.9977  1.4071 -2.1281
  111OSM   C10F11471   4.934   2.112   5.979 -0.2045  1.2615 -0.7561
  111OSM   H10F11472   5.032   2.136   5.934 -0.8436  2.4834 -1.5477
  111OSM   C11F11473   4.820   2.165   5.905 -0.1950  0.2524 -0.4521
  111OSM   H11F11474   4.818   2.276   5.901  1.5919  0.3779  0.8538
  111OSM   H11G11475   4.731   2.152   5.969  0.2026 -0.7831 -0.0789
  111OSM   C12F11476   4.801   2.080   5.772 -0.0129 -0.3974  0.0463
  111OSM   H12F11477   4.706   2.121   5.733  1.6266  1.8368 -1.8887
  111OSM   H12G11478   4.792   1.972   5.797 -1.2956 -0.1795  0.5820
  111OSM   C13F11479   4.902   2.102   5.657  0.1721 -0.0249  0.1456
  111OSM   H13F11480   5.004   2.076   5.694  0.3086 -0.1979 -0.3480
  111OSM   H13G11481   4.910   2.210   5.630  2.7956 -0.1855  0.0172
  111OSM   C14F11482   4.871   2.013   5.528 -0.4723 -0.2287  0.4075
  111OSM   H14F11483   4.892   1.906   5.545  2.0528 -0.0466 -1.0605
  111OSM   H14G11484   4.933   2.047   5.442  2.1399  0.7834  2.5364
  111OSM   C15F11485   4.717   2.026   5.497 -0.2730  0.4589  0.1195
  111OSM   H15F11486   4.693   2.132   5.474 -1.6359  0.6573  2.1687
  111OSM   H15G11487   4.656   2.000   5.586  0.3357  0.0822  0.4354
  111OSM   C16F11488   4.658   1.929   5.393 -0.3434 -0.3543  0.1007
  111OSM   H16F11489   4.713   1.965   5.303  2.0042  0.0426  1.6133
  111OSM   H16G11490   4.548   1.941   5.387 -0.5075  0.4387  3.0519
  111OSM   C17F11491   4.703   1.779   5.415 -0.1345 -0.0375  0.1602
  111OSM   H17F11492   4.809   1.775   5.384 -0.2014  0.7464 -0.2056
  111OSM   H17G11493   4.650   1.717   5.339 -1.0489 -1.0834  1.5906
  111OSM   C18F11494   4.683   1.721   5.556 -0.9566  0.2322 -0.0676
  111OSM   H18F11495   4.726   1.619   5.567 -1.5202  0.0968  1.1322
  111OSM   H18G11496   4.579   1.705   5.593 -0.8925 -2.1956 -0.7747
  111OSM   H18H11497   4.748   1.772   5.630 -1.1357  0.5227 -0.1072
  112OSM      N11498   6.031   5.194   7.786  0.3801 -0.8084 -0.5353
  112OSM    C1511499   6.090   5.262   7.660  0.3853  1.1081  0.7077
  112OSM   H15A11500   6.194   5.233   7.657 -0.2627 -1.5646  1.0475
  112OSM   H15B11501   6.088   5.369   7.676 -1.0349  1.1271  0.5794
  112OSM   H15C11502   6.037   5.227   7.573  3.2351  1.5224 -1.2962
  112OSM    C1411503   6.137   5.198   7.892 -0.9185  0.0834  0.1949
  112OSM   H14A11504   6.209   5.118   7.877  1.7931  2.4173 -0.1100
  112OSM   H14B11505   6.084   5.176   7.984 -1.1069  0.6468  0.2214
  112OSM   H14C11506   6.177   5.298   7.901 -0.7347 -0.0647  1.2560
  112OSM    C1311507   5.913   5.277   7.832 -0.1633 -0.5331  0.0172
  112OSM   H13A11508   5.951   5.375   7.859 -1.6366  0.5494 -1.6063
  112OSM   H13B11509   5.866   5.230   7.917  0.5520 -0.7450  0.3017
  112OSM   H13C11510   5.835   5.286   7.758  0.7642 -1.5192 -1.1223
  112OSM    C1211511   5.988   5.054   7.751  0.9542 -0.4622 -1.0806
  112OSM   H12A11512   5.914   5.070   7.673 -0.9577  0.4231  0.8203
  112OSM   H12B11513   5.927   5.008   7.828  0.3021  0.8379 -0.7789
  112OSM    C1111514   6.095   4.950   7.708 -0.9254 -0.0792 -0.2441
  112OSM   H11A11515   6.046   4.851   7.712  2.4719 -1.8877  0.1939
  112OSM   H11B11516   6.173   4.939   7.786 -1.8206 -2.3054  0.4085
  112OSM      P11517   6.063   4.969   7.448 -0.1763  0.4578 -0.0383
  112OSM    O1311518   6.042   4.821   7.431 -0.7164 -0.4485  0.1218
  112OSM    O1411519   5.942   5.053   7.457  0.5965 -0.0704 -0.4700
  112OSM    O1111520   6.166   5.029   7.341  0.7499 -0.0741  0.3431
  112OSM    O1211521   6.146   4.995   7.581  0.1370  0.0764 -0.1024
  112OSM    C1S11522   6.265   4.947   7.278  0.9137  0.7386 -0.4529
  112OSM    H1S11523   6.218   4.854   7.242  0.2792  0.7808  0.2586
  112OSM    H1T11524   6.349   4.918   7.344  2.1446  1.2187 -1.7447
  112OSM     NF11525   6.414   4.934   7.076 -0.6589 -0.3357  0.5708
  112OSM    HNF11526   6.511   4.956   7.068 -0.1973 -2.4946 -0.4242
  112OSM    C2S11527   6.328   5.020   7.161  0.2296 -0.2127  0.0077
  112OSM    H2S11528   6.240   5.049   7.100 -1.4406 -1.1030  1.8827
  112OSM    C3S11529   6.386   5.150   7.197  0.0562  0.0211 -0.2615
  112OSM    H3S11530   6.461   5.134   7.278  1.8714  2.6550 -1.2951
  112OSM     O311531   6.286   5.239   7.250 -0.2215 -0.5826  0.6230
  112OSM    HO311532   6.216   5.176   7.269 -0.8111 -0.2787 -0.4672
  112OSM    C4S11533   6.470   5.211   7.088 -0.5516 -0.3994 -0.6004
  112OSM    H4S11534   6.579   5.209   7.102 -0.6871  0.3844  0.6641
  112OSM    C5S11535   6.422   5.275   6.979  0.0368  0.4103 -0.4093
  112OSM    H5S11536   6.315   5.291   6.959  0.0965 -0.6944 -1.7265
  112OSM    C6S11537   6.518   5.330   6.875 -0.8144 -0.0498 -0.6478
  112OSM    H6S11538   6.619   5.356   6.913 -0.9989 -0.4961  0.1639
  112OSM    H6T11539   6.482   5.428   6.838 -0.3919  1.1511  1.9181
  112OSM    C7S11540   6.534   5.229   6.757 -0.1824 -0.0557  0.2420
  112OSM    H7S11541   6.434   5.187   6.732 -0.9577  2.9083 -2.2764
  112OSM    H7T11542   6.599   5.141   6.775 -0.7111 -0.3678  0.6678
  112OSM    C8S11543   6.582   5.300   6.631 -0.0429  0.2666  0.3672
  112OSM    H8S11544   6.654   5.380   6.660  2.7816 -1.2306 -1.9795
  112OSM    H8T11545   6.494   5.351   6.586 -0.1596 -1.6992 -1.8262
  112OSM    C9S11546   6.632   5.208   6.517 -0.0460  0.0286  0.4077
  112OSM    H9S11547   6.542   5.145   6.498 -0.0670  0.3597 -0.6920
  112OSM    H9T11548   6.720   5.147   6.546  0.6732 -0.0295 -1.7270
  112OSM   C10S11549   6.672   5.298   6.391 -0.3719 -0.5142 -0.4235
  112OSM   H10S11550   6.754   5.360   6.432 -0.7012 -1.1149  1.2253
  112OSM   H10T11551   6.592   5.373   6.371 -0.3389 -0.6139 -0.9324
  112OSM   C11S11552   6.720   5.236   6.256  0.3201 -0.3675  0.5827
  112OSM   H11S11553   6.796   5.159   6.279  1.3442  0.4572  0.0440
  112OSM   H11T11554   6.770   5.306   6.186  0.4014 -0.4643  0.5445
  112OSM   C12S11555   6.608   5.170   6.174  0.1096 -0.2148  0.3851
  112OSM   H12S11556   6.520   5.238   6.171 -0.6837 -1.2445 -0.0927
  112OSM   H12T11557   6.577   5.080   6.230 -4.6467 -0.2428 -1.8167
  112OSM   C13S11558   6.641   5.135   6.033 -1.1524 -0.0122 -0.0422
  112OSM   H13S11559   6.718   5.058   6.055 -0.2971  0.8635  0.1259
  112OSM   H13T11560   6.697   5.223   5.994  0.3913 -0.9940 -0.1499
  112OSM   C14S11561   6.531   5.092   5.940  1.1023  0.1437  0.1810
  112OSM   H14S11562   6.440   5.146   5.975 -1.4644 -2.8893 -1.2432
  112OSM   H14T11563   6.498   4.987   5.954  0.3747  0.1043 -1.5094
  112OSM   C15S11564   6.560   5.128   5.798 -0.1626 -1.1956 -0.4404
  112OSM   H15S11565   6.649   5.070   5.768  0.8154 -0.3022  0.6230
  112OSM   H15T11566   6.587   5.236   5.799 -0.2221 -1.1790  1.0386
  112OSM   C16S11567   6.433   5.106   5.713 -0.4183 -0.3980 -0.0074
  112OSM   H16S11568   6.356   5.175   5.754 -1.1659 -1.5054  0.4889
  112OSM   H16T11569   6.404   4.999   5.719 -1.4451 -0.1678 -0.7922
  112OSM   C17S11570   6.457   5.132   5.565 -0.0621 -0.1065 -0.1529
  112OSM   H17S11571   6.541   5.070   5.529 -0.1754  0.2927 -1.1564
  112OSM   H17T11572   6.475   5.241   5.549 -1.4803  0.1383 -0.2766
  112OSM   C18S11573   6.344   5.096   5.475 -0.4812  0.4491  0.7496
  112OSM   H18S11574   6.372   5.129   5.372  1.8080 -0.4271  1.0343
  112OSM   H18T11575   6.251   5.149   5.504 -0.9211 -0.8980  1.9064
  112OSM   H18U11576   6.337   4.985   5.485  1.9569  0.2716  1.1212
  112OSM    C1F11577   6.361   4.824   7.016 -0.2854  0.0884 -0.3749
  112OSM     OF11578   6.243   4.798   7.025  0.6561  0.0575 -0.1588
  112OSM    C2F11579   6.457   4.728   6.946 -0.8600 -0.2039 -0.1481
  112OSM    H2F11580   6.476   4.637   7.007 -2.2362 -1.8149 -1.9891
  112OSM    H2G11581   6.557   4.767   6.917 -0.3332 -1.4313 -0.0639
  112OSM    C3F11582   6.387   4.694   6.817 -0.4874 -0.5204 -0.1558
  112OSM    H3F11583   6.387   4.774   6.740  1.0070 -0.7520 -0.4249
  112OSM    H3G11584   6.282   4.659   6.829 -1.1910  0.1379 -3.3837
  112OSM    C4F11585   6.452   4.567   6.750 -0.3878 -0.4691 -0.1051
  112OSM    H4F11586   6.437   4.476   6.812 -1.1085 -1.0487 -1.0901
  112OSM    H4G11587   6.559   4.595   6.747 -0.7277  1.1188  0.8862
  112OSM    C5F11588   6.396   4.537   6.607 -0.1749  0.1515 -0.3779
  112OSM    H5F11589   6.403   4.633   6.551  0.5384  1.4244  1.7454
  112OSM    H5G11590   6.294   4.493   6.605 -0.2599  0.3372 -0.2121
  112OSM    C6F11591   6.492   4.436   6.546  0.2103  0.3843  0.8161
  112OSM    H6F11592   6.492   4.339   6.601  1.1820  0.3209  0.7202
  112OSM    H6G11593   6.592   4.483   6.559 -0.0314  0.4388  2.7725
  112OSM    C7F11594   6.453   4.413   6.398 -0.1284 -0.1925  0.0700
  112OSM    H7F11595   6.417   4.512   6.363  0.4673  0.7309  1.9419
  112OSM    H7G11596   6.363   4.349   6.384 -1.3346  1.5697 -0.4999
  112OSM    C8F11597   6.574   4.360   6.320 -0.0607 -0.5748  0.1835
  112OSM    H8F11598   6.588   4.256   6.356 -1.9564 -0.2325  2.1395
  112OSM    H8G11599   6.657   4.426   6.354 -1.3413  1.1356  0.1298
  112OSM    C9F11600   6.554   4.387   6.179  0.3506  0.7047  0.8653
  112OSM    H9F11601   6.548   4.490   6.142 -2.5711 -0.0053 -0.9461
  112OSM   C10F11602   6.536   4.285   6.085  0.0031 -0.5643 -0.6093
  112OSM   H10F11603   6.505   4.337   5.993  0.4241  0.3528 -0.2545
  112OSM   C11F11604   6.524   4.133   6.102  0.4674 -0.2342  0.5960
  112OSM   H11F11605   6.458   4.089   6.024  0.2490 -0.3660  0.8507
  112OSM   H11G11606   6.484   4.112   6.204 -0.1779 -0.0642  0.3831
  112OSM   C12F11607   6.672   4.072   6.085  0.2467  0.1852  0.0511
  112OSM   H12F11608   6.663   3.970   6.127  0.6907  1.0005  2.2963
  112OSM   H12G11609   6.744   4.131   6.146  1.3977  0.3797 -1.4564
  112OSM   C13F11610   6.719   4.076   5.947  0.6353  0.5388  0.5208
  112OSM   H13F11611   6.829   4.062   5.954  0.2943 -2.7680  0.8795
  112OSM   H13G11612   6.692   4.170   5.896 -0.0540 -1.5290 -3.3360
  112OSM   C14F11613   6.669   3.949   5.868  0.2021  0.0877 -0.3036
  112OSM   H14F11614   6.561   3.951   5.843  0.0247 -0.9230  0.3633
  112OSM   H14G11615   6.696   3.865   5.935  2.2052  0.9242  0.0113
  112OSM   C15F11616   6.747   3.923   5.737  0.2949 -0.3722  0.0213
  112OSM   H15F11617   6.738   3.819   5.699  0.7310 -0.4331  0.0830
  112OSM   H15G11618   6.856   3.922   5.756  0.5568  0.2052 -1.3260
  112OSM   C16F11619   6.739   4.040   5.639 -0.0913  0.4184  1.0185
  112OSM   H16F11620   6.795   4.016   5.546  0.2188 -1.1835  1.5852
  112OSM   H16G11621   6.779   4.137   5.677 -4.0740  2.8004 -0.1891
  112OSM   C17F11622   6.590   4.044   5.583 -0.2854 -0.0657 -0.2438
  112OSM   H17F11623   6.517   4.032   5.666 -0.1757  2.6049  0.3464
  112OSM   H17G11624   6.579   3.968   5.502 -0.6416  2.4788 -2.7749
  112OSM   C18F11625   6.559   4.174   5.507 -0.5336  0.3307 -0.8708
  112OSM   H18F11626   6.553   4.256   5.582 -1.5190 -0.5557  0.0687
  112OSM   H18G11627   6.460   4.166   5.457 -0.5462  0.0815 -0.8069
  112OSM   H18H11628   6.638   4.198   5.433  0.6110 -0.5607  0.0147
  113OSM      N11629   3.598   0.350   7.208  0.2340  0.3596  0.1062
  113OSM    C1511630   3.724   0.296   7.266 -0.0645 -0.6128  0.1366
  113OSM   H15A11631   3.807   0.310   7.198 -0.3225 -0.3921 -0.1326
  113OSM   H15B11632   3.713   0.193   7.300 -2.1119 -0.6242 -0.4597
  113OSM   H15C11633   3.746   0.358   7.352 -0.4709 -0.7869  0.3731
  113OSM    C1411634   3.547   0.239   7.121  0.3773 -0.0808 -0.0856
  113OSM   H14A11635   3.629   0.202   7.061  0.8872  0.8891 -0.0199
  113OSM   H14B11636   3.464   0.272   7.061 -0.3146 -0.2005  0.7912
  113OSM   H14C11637   3.515   0.157   7.184 -4.1602  3.0936  2.3114
  113OSM    C1311638   3.506   0.385   7.322  0.7499  0.1609  0.8300
  113OSM   H13A11639   3.490   0.294   7.377  1.7397 -0.1969  0.5502
  113OSM   H13B11640   3.415   0.434   7.289 -0.5983 -1.5329  1.8705
  113OSM   H13C11641   3.557   0.448   7.393 -1.7158  0.1331  2.7501
  113OSM    C1211642   3.630   0.469   7.123 -0.1550  0.6753  0.1801
  113OSM   H12A11643   3.686   0.534   7.188  2.8479 -0.3271 -1.2596
  113OSM   H12B11644   3.543   0.514   7.077  1.0568 -0.2184 -3.2735
  113OSM    C1111645   3.733   0.447   7.010  0.5657  0.0443 -0.2593
  113OSM   H11A11646   3.722   0.536   6.944  1.6050 -0.2193 -0.8143
  113OSM   H11B11647   3.696   0.359   6.954  1.5000 -0.5685  0.0543
  113OSM      P11648   3.964   0.536   7.123 -0.3431 -0.5532 -0.0784
  113OSM    O1311649   3.876   0.640   7.182  0.0307  0.0657  0.2238
  113OSM    O1411650   4.059   0.459   7.205 -0.4280  0.0966  0.0009
  113OSM    O1111651   4.037   0.603   7.000 -0.0065  0.3119  0.5512
  113OSM    O1211652   3.868   0.430   7.050 -0.3618 -0.0859  0.4907
  113OSM    C1S11653   4.069   0.536   6.880  1.3369  0.4082  0.7353
  113OSM    H1S11654   3.984   0.558   6.813  1.3016 -0.0677  0.6227
  113OSM    H1T11655   4.082   0.426   6.873 -1.3778  0.0495  0.5363
  113OSM     NF11656   4.226   0.521   6.681  0.0611  0.1544 -0.4899
  113OSM    HNF11657   4.258   0.428   6.667 -0.2124 -0.0122 -0.0292
  113OSM    C2S11658   4.207   0.585   6.814 -0.0729 -0.3068  0.6549
  113OSM    H2S11659   4.208   0.696   6.806  0.2701 -0.2470  1.4828
  113OSM    C3S11660   4.326   0.556   6.918 -0.1677  0.7545  0.1587
  113OSM    H3S11661   4.331   0.446   6.933 -0.5783  0.6627 -0.3310
  113OSM     O311662   4.307   0.600   7.054 -0.0894  0.0799  0.2493
  113OSM    HO311663   4.213   0.591   7.066 -0.2027 -2.5414 -1.8525
  113OSM    C4S11664   4.454   0.598   6.857  0.5867  0.1957 -0.1977
  113OSM    H4S11665   4.494   0.537   6.774  0.8148 -0.2280  0.2177
  113OSM    C5S11666   4.513   0.717   6.876 -0.5311 -0.9089  0.3179
  113OSM    H5S11667   4.481   0.779   6.961  1.0706  0.3211  0.0814
  113OSM    C6S11668   4.638   0.776   6.811 -0.2293  0.0046  0.1099
  113OSM    H6S11669   4.688   0.699   6.749 -0.4039  1.0601 -1.4024
  113OSM    H6T11670   4.714   0.784   6.891 -0.3512 -2.2703  0.5152
  113OSM    C7S11671   4.645   0.913   6.733  0.1260  0.0026  0.4130
  113OSM    H7S11672   4.753   0.941   6.736  0.5040 -1.3908  0.1082
  113OSM    H7T11673   4.578   0.981   6.790  0.8393 -0.0146  1.3020
  113OSM    C8S11674   4.591   0.913   6.587 -0.4325 -0.9022  0.3300
  113OSM    H8S11675   4.591   1.008   6.529 -1.0894 -3.4229 -4.2509
  113OSM    H8T11676   4.487   0.873   6.582 -0.6562 -0.3313  0.2701
  113OSM    C9S11677   4.678   0.819   6.499 -0.3483  0.4180  0.0528
  113OSM    H9S11678   4.658   0.721   6.548 -0.5821  0.8053  0.7435
  113OSM    H9T11679   4.787   0.837   6.502 -0.4169  1.0109 -0.6363
  113OSM   C10S11680   4.628   0.816   6.354 -0.6203 -0.6546  0.0483
  113OSM   H10S11681   4.519   0.791   6.352 -1.0611  0.9712  1.6325
  113OSM   H10T11682   4.692   0.737   6.310 -1.7864 -0.8044 -1.4846
  113OSM   C11S11683   4.643   0.945   6.271  0.2737 -0.3685  0.2160
  113OSM   H11S11684   4.746   0.984   6.277  0.6989 -1.6359  1.7678
  113OSM   H11T11685   4.576   1.027   6.306  0.9974  0.1623  0.3612
  113OSM   C12S11686   4.630   0.920   6.123 -0.2253 -0.0661 -0.6372
  113OSM   H12S11687   4.692   0.842   6.075 -0.3016 -0.8004  0.4199
  113OSM   H12T11688   4.657   1.013   6.068  1.4874 -2.2679 -3.7767
  113OSM   C13S11689   4.491   0.902   6.070  0.1318  0.5297 -0.0712
  113OSM   H13S11690   4.427   0.989   6.095  0.2719  0.0203  2.3092
  113OSM   H13T11691   4.438   0.813   6.111  0.8090  0.6647  1.1479
  113OSM   C14S11692   4.495   0.887   5.913  0.6208 -0.0805 -0.4986
  113OSM   H14S11693   4.557   0.799   5.887  0.9479 -0.2815  0.8962
  113OSM   H14T11694   4.539   0.981   5.872  1.7899 -0.6926 -0.6919
  113OSM   C15S11695   4.354   0.858   5.851 -0.5039 -0.4195 -0.0131
  113OSM   H15S11696   4.302   0.951   5.880 -0.7212 -1.4934  3.5969
  113OSM   H15T11697   4.302   0.781   5.911  4.5524 -2.6794  2.1087
  113OSM   C16S11698   4.350   0.837   5.703 -0.6195 -0.2818  0.0984
  113OSM   H16S11699   4.368   0.732   5.672 -2.4391 -0.8688  0.9079
  113OSM   H16T11700   4.431   0.897   5.657 -0.5644  0.0572  0.6273
  113OSM   C17S11701   4.205   0.876   5.650 -0.1973 -0.0401 -0.4071
  113OSM   H17S11702   4.204   0.885   5.539 -2.6726 -0.2734 -0.4735
  113OSM   H17T11703   4.184   0.981   5.680  3.1215  0.7526 -0.5153
  113OSM   C18S11704   4.099   0.775   5.689  0.0041  0.1904  0.5238
  113OSM   H18S11705   4.097   0.746   5.796 -2.0954  1.5597  0.9300
  113OSM   H18T11706   4.113   0.680   5.633 -3.2367  0.2303 -0.5204
  113OSM   H18U11707   3.998   0.816   5.668 -0.1927 -0.9188 -0.8161
  113OSM    C1F11708   4.162   0.583   6.585 -0.3858  0.4263  0.2837
  113OSM     OF11709   4.095   0.684   6.604 -0.2091 -0.0663 -0.1730
  113OSM    C2F11710   4.177   0.528   6.443 -0.5056 -0.1612  0.0957
  113OSM    H2F11711   4.091   0.469   6.405  1.0544 -1.0660 -2.2550
  113OSM    H2G11712   4.266   0.461   6.444  0.3108  0.8715 -0.9927
  113OSM    C3F11713   4.203   0.637   6.338 -0.5511  0.2840 -0.4374
  113OSM    H3F11714   4.289   0.693   6.381 -1.2544  0.4919  0.7525
  113OSM    H3G11715   4.126   0.717   6.333  0.7920  1.5380 -1.8237
  113OSM    C4F11716   4.214   0.595   6.194 -0.0629 -0.0107  0.2846
  113OSM    H4F11717   4.308   0.542   6.170  0.0550  0.7034 -0.9348
  113OSM    H4G11718   4.216   0.687   6.132  0.9248  0.3124  0.7905
  113OSM    C5F11719   4.100   0.503   6.150  0.1899  0.1151  0.2712
  113OSM    H5F11720   4.007   0.547   6.193  0.2873 -0.8463  1.5224
  113OSM    H5G11721   4.109   0.409   6.207  2.5013 -0.3967 -0.8391
  113OSM    C6F11722   4.084   0.487   5.999  0.1121 -0.8535  0.6906
  113OSM    H6F11723   4.180   0.445   5.962  0.9617  1.3006  0.2929
  113OSM    H6G11724   4.075   0.586   5.949 -1.1907 -0.1660  2.1685
  113OSM    C7F11725   3.965   0.392   5.971 -0.5692  0.8036 -0.7362
  113OSM    H7F11726   3.872   0.433   6.016 -0.6351 -1.0709  0.9910
  113OSM    H7G11727   3.983   0.298   6.028  0.9239  1.0798 -0.7052
  113OSM    C8F11728   3.938   0.386   5.817  0.4520  0.2324 -0.1251
  113OSM    H8F11729   3.872   0.299   5.797  0.7374 -0.5010  1.8784
  113OSM    H8G11730   4.033   0.372   5.762  0.3177 -0.4515 -0.1873
  113OSM    C9F11731   3.867   0.510   5.765  0.3718 -1.0952 -0.2230
  113OSM    H9F11732   3.891   0.600   5.825 -4.2144  1.2398 -1.4257
  113OSM   C10F11733   3.780   0.520   5.662  0.5407  0.3146 -0.4295
  113OSM   H10F11734   3.739   0.616   5.626 -0.1715 -0.0977 -0.7356
  113OSM   C11F11735   3.736   0.401   5.581 -0.5502  0.2000  0.7703
  113OSM   H11F11736   3.625   0.390   5.579 -0.4952 -0.4795 -1.6425
  113OSM   H11G11737   3.781   0.309   5.624  1.0907 -0.0758 -1.3789
  113OSM   C12F11738   3.784   0.395   5.437 -0.2771  0.8527  0.3155
  113OSM   H12F11739   3.758   0.489   5.384  0.4674  1.7450  1.4894
  113OSM   H12G11740   3.732   0.315   5.380  0.0862  1.6061 -1.1387
  113OSM   C13F11741   3.927   0.357   5.425 -0.1004  0.4119 -0.7061
  113OSM   H13F11742   3.940   0.252   5.458  0.1560  0.7377  0.2659
  113OSM   H13G11743   3.983   0.419   5.498  0.2584  0.7112 -1.2342
  113OSM   C14F11744   3.994   0.367   5.292  0.1349  0.1298  0.2779
  113OSM   H14F11745   3.943   0.304   5.216  0.0450  1.3931 -0.7562
  113OSM   H14G11746   4.093   0.317   5.299  0.6797  0.6300 -2.5957
  113OSM   C15F11747   4.018   0.513   5.246 -0.4718 -0.2131  0.0222
  113OSM   H15F11748   4.076   0.562   5.326  1.8413  1.4514 -2.4795
  113OSM   H15G11749   3.921   0.567   5.245 -0.5331 -0.3257 -0.2341
  113OSM   C16F11750   4.076   0.525   5.104  0.1250 -0.0982 -0.5677
  113OSM   H16F11751   4.000   0.495   5.029 -2.1580  4.6545 -0.5186
  113OSM   H16G11752   4.163   0.456   5.090  1.4926  1.9099 -2.7360
  113OSM   C17F11753   4.126   0.662   5.076  0.0331  0.3153  0.2565
  113OSM   H17F11754   4.200   0.687   5.155  0.5911 -0.2916 -0.0664
  113OSM   H17G11755   4.042   0.735   5.071  0.0667  0.4589  1.4359
  113OSM   C18F11756   4.208   0.674   4.947  0.0925 -0.1259 -0.3486
  113OSM   H18F11757   4.146   0.644   4.860 -1.4225 -0.8883  0.9428
  113OSM   H18G11758   4.296   0.608   4.962 -0.2351 -0.5361 -0.1947
  113OSM   H18H11759   4.237   0.780   4.930  1.2389 -0.5023 -0.7517
  114OSM      N11760   3.153   4.413   7.646 -0.0987 -0.7822  0.0735
  114OSM    C1511761   3.046   4.519   7.641 -0.4467 -0.2523 -0.2593
  114OSM   H15A11762   3.082   4.603   7.585 -1.8259  0.4546 -0.1317
  114OSM   H15B11763   3.035   4.556   7.742  0.7155 -1.5213  0.3669
  114OSM   H15C11764   2.957   4.474   7.600 -1.3021 -0.0699  1.3150
  114OSM    C1411765   3.273   4.487   7.701 -0.3615  0.2237  0.1897
  114OSM   H14A11766   3.262   4.532   7.798  0.1257 -0.8172  0.7452
  114OSM   H14B11767   3.302   4.569   7.636  0.4997 -0.5458 -0.4280
  114OSM   H14C11768   3.356   4.418   7.707 -0.3265  0.1162 -1.0990
  114OSM    C1311769   3.117   4.302   7.735 -0.2950 -0.1252 -0.3336
  114OSM   H13A11770   3.207   4.252   7.767 -0.4130  0.2555  0.6428
  114OSM   H13B11771   3.051   4.234   7.683 -0.8214 -0.9630  1.3556
  114OSM   H13C11772   3.065   4.337   7.823 -0.4485  0.8452 -0.8050
  114OSM    C1211773   3.177   4.360   7.504  0.6169 -1.4383  0.7345
  114OSM   H12A11774   3.091   4.307   7.467 -1.2565  3.5898 -3.3905
  114OSM   H12B11775   3.261   4.292   7.504 -0.1624 -2.4480 -0.5307
  114OSM    C1111776   3.215   4.466   7.397  0.5140 -0.0449 -0.2639
  114OSM   H11A11777   3.142   4.549   7.399 -0.3671 -0.7007 -2.4858
  114OSM   H11B11778   3.198   4.428   7.294  0.9084  1.9004 -1.0933
  114OSM      P11779   3.474   4.421   7.423  0.2823  0.6325 -0.0444
  114OSM    O1311780   3.587   4.501   7.459 -0.0563  0.3892  0.5424
  114OSM    O1411781   3.449   4.307   7.508  0.1218  0.0833  0.8138
  114OSM    O1111782   3.484   4.371   7.275  0.0150 -0.3755  0.6600
  114OSM    O1211783   3.348   4.510   7.418 -0.1054 -0.9535  0.3834
  114OSM    C1S11784   3.504   4.472   7.167 -0.2816 -0.1084  0.2527
  114OSM    H1S11785   3.601   4.524   7.179 -0.5543  0.3970  0.3150
  114OSM    H1T11786   3.419   4.545   7.173  1.3055  1.6927  2.5637
  114OSM     NF11787   3.505   4.500   6.920 -0.1170  1.1984 -0.3080
  114OSM    HNF11788   3.421   4.543   6.887 -0.2912  1.2396  0.1688
  114OSM    C2S11789   3.499   4.400   7.026  0.2852  0.3642 -0.3202
  114OSM    H2S11790   3.585   4.331   7.010  0.4049 -0.1587  2.1783
  114OSM    C3S11791   3.365   4.318   7.025  0.5460 -0.7371  0.3949
  114OSM    H3S11792   3.278   4.370   7.070  0.3703 -0.7144  0.0395
  114OSM     O311793   3.371   4.206   7.104  0.5617 -0.2406 -0.7000
  114OSM    HO311794   3.419   4.238   7.181 -0.4409  2.5873 -1.1209
  114OSM    C4S11795   3.325   4.274   6.881  0.4654  1.3898 -0.0508
  114OSM    H4S11796   3.403   4.223   6.823  1.0187  3.3598 -1.1034
  114OSM    C5S11797   3.202   4.281   6.830  0.6178  0.0602  0.6335
  114OSM    H5S11798   3.120   4.312   6.897  1.3691 -0.8946  2.0441
  114OSM    C6S11799   3.170   4.222   6.696  0.2735 -0.4413 -0.0648
  114OSM    H6S11800   3.082   4.280   6.661  0.3718  0.0577  0.5089
  114OSM    H6T11801   3.142   4.115   6.690 -1.1322 -0.1167  0.3855
  114OSM    C7S11802   3.278   4.248   6.590 -0.4188  0.1330 -0.1780
  114OSM    H7S11803   3.379   4.217   6.626 -0.6745 -0.1008  0.3455
  114OSM    H7T11804   3.295   4.356   6.572  1.1992 -0.0184  0.2266
  114OSM    C8S11805   3.244   4.181   6.451 -0.3016  0.7045 -0.2265
  114OSM    H8S11806   3.154   4.221   6.400 -1.0037 -0.5579 -0.0056
  114OSM    H8T11807   3.248   4.071   6.466  2.5290  0.4600 -1.9025
  114OSM    C9S11808   3.362   4.185   6.354 -0.5259  0.4387  0.0124
  114OSM    H9S11809   3.447   4.131   6.400 -0.9957 -0.6508 -0.3741
  114OSM    H9T11810   3.385   4.294   6.345 -2.1066  1.1887  3.3266
  114OSM   C10S11811   3.324   4.139   6.212 -0.1738 -0.2445  0.2543
  114OSM   H10S11812   3.410   4.174   6.151  0.8930  0.6834  2.2192
  114OSM   H10T11813   3.249   4.207   6.165  0.4170 -0.2901 -0.8023
  114OSM   C11S11814   3.302   3.986   6.197  0.0348  0.3884  0.8648
  114OSM   H11S11815   3.210   3.957   6.253  1.0887 -1.1609  1.8502
  114OSM   H11T11816   3.383   3.940   6.256  1.5303 -0.8545 -1.9836
  114OSM   C12S11817   3.315   3.953   6.046 -0.1290  0.2604  0.0629
  114OSM   H12S11818   3.415   3.984   6.010  0.2006 -1.1859 -0.3294
  114OSM   H12T11819   3.234   4.013   5.998 -0.3422  0.7492  1.0172
  114OSM   C13S11820   3.288   3.806   6.023 -0.1612  0.3724  1.3130
  114OSM   H13S11821   3.180   3.789   6.042 -0.2421 -0.0424  0.5095
  114OSM   H13T11822   3.331   3.731   6.094  1.1701  0.3160  0.4771
  114OSM   C14S11823   3.323   3.769   5.879 -0.9314 -0.2786 -0.0234
  114OSM   H14S11824   3.298   3.661   5.870 -2.0540 -0.4496  3.5082
  114OSM   H14T11825   3.434   3.778   5.869 -0.7584 -2.4451 -0.6009
  114OSM   C15S11826   3.254   3.856   5.772  0.1627 -0.3874  0.4610
  114OSM   H15S11827   3.302   3.956   5.778  2.3836 -1.3127 -0.5908
  114OSM   H15T11828   3.144   3.858   5.787 -0.2798  0.6597 -2.3535
  114OSM   C16S11829   3.281   3.802   5.632 -0.2231  0.8583  0.0848
  114OSM   H16S11830   3.255   3.694   5.628  0.1278  0.7452  0.6992
  114OSM   H16T11831   3.392   3.802   5.619 -0.0343 -4.6276 -0.4502
  114OSM   C17S11832   3.206   3.874   5.512  0.0471  0.4766 -0.1688
  114OSM   H17S11833   3.239   3.979   5.524  1.0790  0.0685  0.7593
  114OSM   H17T11834   3.097   3.855   5.513 -0.0124  0.7460  1.5166
  114OSM   C18S11835   3.270   3.823   5.378 -0.1398 -0.5965 -0.1491
  114OSM   H18S11836   3.366   3.876   5.356 -0.9731  1.4510  0.9193
  114OSM   H18T11837   3.196   3.828   5.296 -1.5318  2.8244  1.1200
  114OSM   H18U11838   3.307   3.719   5.393 -1.8424 -0.8964  2.5288
  114OSM    C1F11839   3.626   4.557   6.908  0.3027 -0.4436 -0.3197
  114OSM     OF11840   3.732   4.506   6.953  0.0270 -0.8296 -0.4567
  114OSM    C2F11841   3.635   4.681   6.821  0.1701  0.1603  0.1182
  114OSM    H2F11842   3.603   4.776   6.867  0.4227  2.0481 -3.2501
  114OSM    H2G11843   3.574   4.674   6.728  0.6205  2.5442 -0.4265
  114OSM    C3F11844   3.775   4.711   6.756  0.6139 -0.3323 -0.1487
  114OSM    H3F11845   3.804   4.616   6.707 -1.5978 -1.5816  0.8167
  114OSM    H3G11846   3.853   4.725   6.834  1.4570 -0.4057 -0.9607
  114OSM    C4F11847   3.783   4.823   6.655 -0.6933  0.0298 -0.2126
  114OSM    H4F11848   3.816   4.908   6.718 -0.3271  0.1128 -0.5097
  114OSM    H4G11849   3.679   4.843   6.621 -1.5592  0.7898  2.6001
  114OSM    C5F11850   3.885   4.806   6.536 -0.7779 -0.2120 -0.9923
  114OSM    H5F11851   3.847   4.714   6.486  1.2301 -1.7084  0.1006
  114OSM    H5G11852   3.989   4.784   6.567 -0.1442  1.3973 -1.8404
  114OSM    C6F11853   3.888   4.933   6.438 -0.4659 -0.1451 -0.2787
  114OSM    H6F11854   3.939   5.014   6.494  1.7283  0.6431 -3.2235
  114OSM    H6G11855   3.786   4.972   6.420 -1.1471 -2.4586 -1.9740
  114OSM    C7F11856   3.959   4.902   6.309 -0.1410  0.4655 -0.1295
  114OSM    H7F11857   3.889   4.836   6.254  1.6456  0.1350 -2.1283
  114OSM    H7G11858   4.053   4.845   6.320 -1.5253 -1.7452  0.8720
  114OSM    C8F11859   3.974   5.029   6.219  0.1910 -0.4028  0.3764
  114OSM    H8F11860   4.054   5.086   6.270 -0.7626  0.8431  0.5278
  114OSM    H8G11861   3.878   5.085   6.227  0.3166  0.2801 -2.1892
  114OSM    C9F11862   3.991   5.000   6.073 -0.1006  0.3761  0.3224
  114OSM    H9F11863   3.908   4.956   6.016  1.0546  0.6407 -1.6469
  114OSM   C10F11864   4.103   5.026   5.999  0.0169  0.0520 -0.0941
  114OSM   H10F11865   4.090   5.003   5.893 -1.3150  0.0520  0.0549
  114OSM   C11F11866   4.235   5.075   6.046 -0.3626  0.2994 -0.5746
  114OSM   H11F11867   4.231   5.097   6.155 -3.6393 -0.0714 -0.5006
  114OSM   H11G11868   4.271   5.165   5.991 -1.1326  0.5259 -0.7261
  114OSM   C12F11869   4.346   4.967   6.046  0.6710 -0.3921  0.0829
  114OSM   H12F11870   4.321   4.875   6.103 -0.2995 -0.8041 -0.9781
  114OSM   H12G11871   4.435   5.017   6.090 -0.0090  0.3735  0.6206
  114OSM   C13F11872   4.380   4.928   5.906  0.9744  0.3590  0.9461
  114OSM   H13F11873   4.292   4.873   5.865  0.2789  1.8849  0.3183
  114OSM   H13G11874   4.462   4.853   5.910 -0.0140 -0.8881 -0.7745
  114OSM   C14F11875   4.408   5.039   5.798 -0.2873 -0.4203 -0.1314
  114OSM   H14F11876   4.486   5.103   5.844 -0.1267 -1.1494  0.6379
  114OSM   H14G11877   4.317   5.101   5.779  0.2675  0.4075 -0.1663
  114OSM   C15F11878   4.472   4.991   5.672  0.1797  0.5447  0.7918
  114OSM   H15F11879   4.406   4.928   5.608 -0.2919 -0.3906  2.1367
  114OSM   H15G11880   4.554   4.921   5.700  0.9894  1.0761 -0.1939
  114OSM   C16F11881   4.519   5.104   5.580 -0.1138  0.5016 -0.1956
  114OSM   H16F11882   4.625   5.125   5.602  0.6831 -0.2516 -2.9361
  114OSM   H16G11883   4.448   5.189   5.582 -0.9562 -0.1943  1.2337
  114OSM   C17F11884   4.526   5.051   5.432 -0.0855 -0.4961 -0.0297
  114OSM   H17F11885   4.434   4.992   5.408 -2.3695  3.6087 -2.6732
  114OSM   H17G11886   4.623   5.003   5.409  2.0853  3.1976  0.7186
  114OSM   C18F11887   4.534   5.173   5.339  0.3526 -0.7951  0.4066
  114OSM   H18F11888   4.450   5.244   5.350  1.9636  1.4898 -0.9404
  114OSM   H18G11889   4.533   5.128   5.237 -0.6455 -0.7753  0.4071
  114OSM   H18H11890   4.628   5.233   5.341 -0.1869  0.1979 -1.4813
  115OSM      N11891   2.954   1.559   7.130  0.2903 -0.2913 -0.2117
  115OSM    C1511892   2.930   1.567   7.279  0.3839 -0.2458 -0.4002
  115OSM   H15A11893   2.909   1.668   7.311  0.8803  0.5836 -2.5877
  115OSM   H15B11894   3.018   1.527   7.327 -0.4568 -1.6062  0.0694
  115OSM   H15C11895   2.845   1.508   7.312  0.0857  0.0088 -0.6997
  115OSM    C1411896   3.082   1.628   7.101  0.5333  0.2592  0.0498
  115OSM   H14A11897   3.069   1.683   7.009 -1.6251 -0.0788  0.1136
  115OSM   H14B11898   3.161   1.556   7.084  2.6948  2.4921  0.1765
  115OSM   H14C11899   3.112   1.693   7.182  0.9712  0.3352 -0.1687
  115OSM    C1311900   2.952   1.417   7.086  0.2448 -0.8345  0.4390
  115OSM   H13A11901   2.994   1.401   6.987  0.4079  2.9179 -0.2433
  115OSM   H13B11902   2.854   1.373   7.089  0.6595 -1.7305  1.2736
  115OSM   H13C11903   3.010   1.357   7.155 -0.3610  0.3381  2.0140
  115OSM    C1211904   2.844   1.628   7.049 -0.0037  0.8118  0.8243
  115OSM   H12A11905   2.754   1.569   7.046 -0.5133  1.5801 -1.8146
  115OSM   H12B11906   2.874   1.639   6.946 -0.3270  0.9916  0.7468
  115OSM    C1111907   2.804   1.766   7.089 -0.4328  0.3338 -0.4866
  115OSM   H11A11908   2.748   1.818   7.008 -1.5429  1.1428  0.7494
  115OSM   H11B11909   2.889   1.837   7.081 -0.5337  0.5884  0.5346
  115OSM      P11910   2.584   1.746   7.216 -0.4019  0.3911  0.3563
  115OSM    O1311911   2.536   1.695   7.341  0.2805 -0.0248  0.5682
  115OSM    O1411912   2.514   1.867   7.166  0.1154  0.1852 -0.4578
  115OSM    O1111913   2.572   1.638   7.104 -0.4829  0.6725 -0.1783
  115OSM    O1211914   2.736   1.766   7.219 -0.4297 -0.5608  0.2858
  115OSM    C1S11915   2.455   1.605   7.034  0.7768 -0.3061  0.7146
  115OSM    H1S11916   2.415   1.696   6.985  0.8176 -0.6256  0.0882
  115OSM    H1T11917   2.374   1.563   7.098  0.1869  0.8685  0.7686
  115OSM     NF11918   2.352   1.519   6.820 -0.1838 -0.2534  0.5050
  115OSM    HNF11919   2.290   1.441   6.813 -1.0580  0.5123 -0.7047
  115OSM    C2S11920   2.469   1.518   6.908 -0.7666 -1.0949  0.2462
  115OSM    H2S11921   2.553   1.569   6.856 -1.8143  1.4826  0.9010
  115OSM    C3S11922   2.520   1.376   6.951 -0.5411  0.2054  0.2523
  115OSM    H3S11923   2.440   1.322   7.007  1.6640 -0.9753  2.4794
  115OSM     O311924   2.625   1.373   7.053 -0.5431 -0.3422 -0.3103
  115OSM    HO311925   2.614   1.451   7.108  1.8923  0.4820 -0.8484
  115OSM    C4S11926   2.558   1.301   6.824  0.0574 -0.4313 -0.7295
  115OSM    H4S11927   2.655   1.328   6.780  2.5963 -2.0578  3.2646
  115OSM    C5S11928   2.495   1.193   6.784 -0.0243  0.6376  0.1939
  115OSM    H5S11929   2.403   1.169   6.839  1.0027 -1.7829  0.9572
  115OSM    C6S11930   2.533   1.104   6.671 -0.3496 -0.3200  0.7596
  115OSM    H6S11931   2.438   1.069   6.624 -0.7629  3.2662 -1.4034
  115OSM    H6T11932   2.578   1.012   6.714 -1.9177 -2.0099 -1.0049
  115OSM    C7S11933   2.642   1.156   6.573  0.0727 -0.1501 -0.4081
  115OSM    H7S11934   2.734   1.166   6.635 -0.7421  0.3174  0.7665
  115OSM    H7T11935   2.613   1.255   6.534  0.9844 -1.0909 -3.7828
  115OSM    C8S11936   2.648   1.040   6.466 -1.3830  0.4322  0.7934
  115OSM    H8S11937   2.545   1.017   6.433 -0.8747 -0.8890  0.0310
  115OSM    H8T11938   2.703   0.956   6.513 -2.2980  0.9253  2.8802
  115OSM    C9S11939   2.723   1.082   6.339 -0.6262  0.6140  0.7581
  115OSM    H9S11940   2.742   0.988   6.282  0.6912  0.8064  0.8475
  115OSM    H9T11941   2.821   1.123   6.373  0.1725 -0.0404 -0.6260
  115OSM   C10S11942   2.643   1.176   6.248 -0.3673  0.8738  0.5528
  115OSM   H10S11943   2.602   1.248   6.322  0.2893 -0.7448  2.5674
  115OSM   H10T11944   2.557   1.118   6.208  1.3002 -1.2695 -0.1223
  115OSM   C11S11945   2.724   1.243   6.127 -0.4405 -0.1085 -0.0100
  115OSM   H11S11946   2.752   1.154   6.067  1.0113  1.1579 -1.2635
  115OSM   H11T11947   2.813   1.295   6.170 -1.2416  0.5662  0.8840
  115OSM   C12S11948   2.645   1.338   6.043  0.1060 -0.8538 -0.2922
  115OSM   H12S11949   2.593   1.417   6.101  1.5427  0.2639 -0.4549
  115OSM   H12T11950   2.569   1.283   5.983 -0.1790 -1.0572  0.2551
  115OSM   C13S11951   2.736   1.409   5.934  0.5884 -0.0663  0.2436
  115OSM   H13S11952   2.776   1.320   5.881 -0.6170  0.5007 -1.7236
  115OSM   H13T11953   2.827   1.464   5.969  1.1589 -0.3948 -0.6802
  115OSM   C14S11954   2.664   1.496   5.832  0.0641  0.1374 -0.3085
  115OSM   H14S11955   2.633   1.599   5.860  0.7597  0.7772 -1.7712
  115OSM   H14T11956   2.570   1.444   5.806  0.3621 -0.6980  0.2496
  115OSM   C15S11957   2.745   1.516   5.700  0.5348  0.3433 -0.2164
  115OSM   H15S11958   2.761   1.414   5.659 -0.0755  0.3317 -0.4299
  115OSM   H15T11959   2.842   1.568   5.718  0.0118  1.9924 -1.8874
  115OSM   C16S11960   2.665   1.598   5.594 -0.1919  0.0632  0.0726
  115OSM   H16S11961   2.633   1.695   5.636  0.6472  0.4607 -0.1888
  115OSM   H16T11962   2.569   1.543   5.579  0.0977 -0.2001 -0.9247
  115OSM   C17S11963   2.734   1.606   5.461 -0.5447 -0.3044 -0.4735
  115OSM   H17S11964   2.781   1.513   5.422  0.7712  0.4156 -0.6867
  115OSM   H17T11965   2.825   1.668   5.481 -0.8253 -0.6172  2.1743
  115OSM   C18S11966   2.664   1.686   5.348 -0.0391 -0.5257 -0.1976
  115OSM   H18S11967   2.725   1.682   5.255  2.1675 -1.1993  1.2249
  115OSM   H18T11968   2.651   1.788   5.388  1.3028 -1.0710  1.7634
  115OSM   H18U11969   2.564   1.639   5.332 -0.7520 -0.8188  3.9555
  115OSM    C1F11970   2.311   1.623   6.743  0.0430  0.2482  0.2997
  115OSM     OF11971   2.367   1.727   6.746 -0.2214 -0.2488  0.0733
  115OSM    C2F11972   2.201   1.611   6.651 -0.7496 -0.1923 -0.1943
  115OSM    H2F11973   2.124   1.688   6.676 -0.1232  0.5236 -0.4419
  115OSM    H2G11974   2.162   1.509   6.669  2.0319 -1.4751 -0.9468
  115OSM    C3F11975   2.245   1.626   6.499  0.1765  0.7037 -0.1975
  115OSM    H3F11976   2.309   1.716   6.484  0.8028  0.0157 -1.8084
  115OSM    H3G11977   2.162   1.643   6.428 -1.8470 -0.0450  1.8734
  115OSM    C4F11978   2.324   1.505   6.449  0.3875  0.3806  0.7224
  115OSM    H4F11979   2.254   1.419   6.456  1.4772 -0.5766  0.3088
  115OSM    H4G11980   2.402   1.478   6.524 -0.3933 -1.2554  1.0026
  115OSM    C5F11981   2.383   1.510   6.310  0.5168 -0.1448  0.1778
  115OSM    H5F11982   2.437   1.418   6.279  1.4455  0.1005  1.0224
  115OSM    H5G11983   2.467   1.583   6.314  1.2143 -0.7907 -1.6300
  115OSM    C6F11984   2.284   1.548   6.197  0.2899 -0.5424  0.2674
  115OSM    H6F11985   2.263   1.655   6.217  1.6731  0.0966 -1.3816
  115OSM    H6G11986   2.191   1.493   6.221  0.5838  0.3572  4.1921
  115OSM    C7F11987   2.326   1.529   6.052 -0.5621 -0.0747 -0.5466
  115OSM    H7F11988   2.359   1.423   6.047  1.2712  0.4535 -0.3423
  115OSM    H7G11989   2.424   1.578   6.036  0.1809 -1.7651 -1.5202
  115OSM    C8F11990   2.216   1.567   5.952  0.1144 -1.0899  0.0455
  115OSM    H8F11991   2.263   1.598   5.856 -1.6753 -0.6376 -0.7253
  115OSM    H8G11992   2.147   1.644   5.993  0.9348 -1.3684  2.0499
  115OSM    C9F11993   2.134   1.449   5.920 -0.2173 -0.2864 -0.1899
  115OSM    H9F11994   2.075   1.402   6.001  0.9940 -2.0282 -0.2652
  115OSM   C10F11995   2.127   1.386   5.804  0.2079 -0.3147  0.3560
  115OSM   H10F11996   2.047   1.312   5.790 -0.4408  0.5599 -0.6858
  115OSM   C11F11997   2.194   1.436   5.679 -0.8161 -0.3426 -0.1176
  115OSM   H11F11998   2.303   1.420   5.694 -1.0491 -0.9541  1.0108
  115OSM   H11G11999   2.174   1.545   5.666  1.8184  0.1960 -0.3284
  115OSM   C12F12000   2.156   1.354   5.548 -0.5143 -0.8371  0.3427
  115OSM   H12F12001   2.176   1.412   5.455  0.6493 -0.5314  0.7585
  115OSM   H12G12002   2.047   1.336   5.544 -0.8234  0.2028  2.5534
  115OSM   C13F12003   2.221   1.210   5.538  0.1835 -1.0573  0.2098
  115OSM   H13F12004   2.154   1.148   5.474  0.2480  1.1467 -2.1037
  115OSM   H13G12005   2.235   1.175   5.643  4.3779  0.7221  0.4316
  115OSM   C14F12006   2.353   1.224   5.471 -0.3528  0.0493  0.0950
  115OSM   H14F12007   2.397   1.300   5.539 -1.7391  0.8773  0.0966
  115OSM   H14G12008   2.354   1.275   5.373 -2.0957 -0.3012 -0.1294
  115OSM   C15F12009   2.428   1.094   5.474 -0.2455  0.5671  0.4234
  115OSM   H15F12010   2.398   1.050   5.377  1.8410  2.9337 -1.4274
  115OSM   H15G12011   2.418   1.031   5.566  3.3892 -1.2598 -0.2591
  115OSM   C16F12012   2.584   1.095   5.453  0.2036  0.0529 -0.5796
  115OSM   H16F12013   2.603   1.161   5.365  0.8349  0.2704 -0.2912
  115OSM   H16G12014   2.630   0.996   5.431  0.9717 -0.2595  2.0730
  115OSM   C17F12015   2.657   1.165   5.574  0.6521 -0.1510 -1.0454
  115OSM   H17F12016   2.647   1.100   5.664 -1.3946 -0.6279 -1.5565
  115OSM   H17G12017   2.609   1.264   5.588  1.5236 -0.0370  1.9277
  115OSM   C18F12018   2.798   1.175   5.541 -1.0621 -0.0119 -0.0321
  115OSM   H18F12019   2.859   1.231   5.615 -1.3917 -0.7218  0.7969
  115OSM   H18G12020   2.813   1.226   5.444  0.4098  1.5014  0.9200
  115OSM   H18H12021   2.836   1.071   5.527 -0.5970 -0.6524  4.4140
  116OSM      N12022   6.324   5.914   7.523 -0.2030  0.1505  0.1723
  116OSM    C1512023   6.421   5.827   7.444 -0.6664  0.6943  0.1582
  116OSM   H15A12024   6.450   5.738   7.498 -0.4617  0.9277  0.4358
  116OSM   H15B12025   6.510   5.888   7.432 -0.0592 -0.4001 -1.1293
  116OSM   H15C12026   6.376   5.804   7.349 -0.3024 -0.1021  0.1685
  116OSM    C1412027   6.197   5.832   7.540 -0.6195  0.0954  0.3157
  116OSM   H14A12028   6.206   5.750   7.610 -1.5563 -0.4610 -0.2039
  116OSM   H14B12029   6.167   5.797   7.442  1.0273 -1.0060  0.1558
  116OSM   H14C12030   6.115   5.887   7.584 -1.3911 -1.6661  1.1683
  116OSM    C1312031   6.380   5.953   7.649  0.2184 -0.0518  0.3583
  116OSM   H13A12032   6.387   5.869   7.717  1.2281 -1.3282 -1.2523
  116OSM   H13B12033   6.326   6.033   7.697  0.1808 -1.3508  2.6360
  116OSM   H13C12034   6.482   5.987   7.632 -0.0723  1.3529  1.2003
  116OSM    C1212035   6.304   6.034   7.440  0.0877  0.3250  0.7772
  116OSM   H12A12036   6.255   6.008   7.347  2.1519 -1.9866  0.2453
  116OSM   H12B12037   6.398   6.081   7.418  0.7323 -0.6516  1.4061
  116OSM    C1112038   6.206   6.146   7.497 -0.0294 -0.1372  0.1441
  116OSM   H11A12039   6.190   6.230   7.427  0.1741  0.1750  0.4713
  116OSM   H11B12040   6.233   6.187   7.597  1.2572  1.7813 -0.9401
  116OSM      P12041   5.950   6.086   7.426  0.3929  0.4752 -0.0690
  116OSM    O1312042   5.866   5.967   7.450  0.3268  0.2729 -0.2800
  116OSM    O1412043   5.880   6.219   7.432  0.0801  0.0897 -0.4743
  116OSM    O1112044   6.024   6.071   7.284  0.3415 -0.2218 -0.9238
  116OSM    O1212045   6.081   6.088   7.519 -0.6899  0.7764 -0.5015
  116OSM    C1S12046   5.932   6.034   7.175 -0.7032  0.2613  0.5393
  116OSM    H1S12047   5.875   6.124   7.145 -1.5811 -0.8564 -1.3114
  116OSM    H1T12048   5.856   5.957   7.201 -0.4829 -0.8752 -1.9039
  116OSM     NF12049   5.923   5.959   6.939 -0.3639  0.7327  0.6695
  116OSM    HNF12050   5.925   5.869   6.897  0.9235  0.2490  1.7388
  116OSM    C2S12051   6.011   5.984   7.048 -0.1442 -0.8297 -0.7881
  116OSM    H2S12052   6.077   6.067   7.016 -0.8439 -0.4000 -1.1287
  116OSM    C3S12053   6.098   5.863   7.087  0.5091  0.3803  0.3808
  116OSM    H3S12054   6.036   5.775   7.112 -0.9043  1.2433 -0.0179
  116OSM     O312055   6.170   5.882   7.202 -0.5027 -0.3927 -0.3835
  116OSM    HO312056   6.117   5.948   7.247  1.5520  0.3890  1.0266
  116OSM    C4S12057   6.190   5.830   6.980 -0.0720 -0.3669 -0.0044
  116OSM    H4S12058   6.250   5.914   6.942 -1.6772 -0.5072 -3.1377
  116OSM    C5S12059   6.194   5.711   6.912  0.6460 -0.1700 -0.1222
  116OSM    H5S12060   6.133   5.626   6.947 -1.6285  1.1316 -0.7481
  116OSM    C6S12061   6.274   5.678   6.792 -0.2514  0.0290 -0.7062
  116OSM    H6S12062   6.371   5.650   6.838 -0.4909  1.3695  0.6773
  116OSM    H6T12063   6.301   5.770   6.736  1.1467  0.2542  0.2674
  116OSM    C7S12064   6.218   5.575   6.698  0.3209 -1.1202  0.0857
  116OSM    H7S12065   6.108   5.591   6.691  0.0933 -2.4788  0.3529
  116OSM    H7T12066   6.226   5.474   6.743 -0.7699  0.4204  4.1744
  116OSM    C8S12067   6.294   5.574   6.564  0.4805  0.2346 -0.7910
  116OSM    H8S12068   6.398   5.539   6.581  0.7671  1.2205 -0.4495
  116OSM    H8T12069   6.308   5.682   6.542  2.0890  0.0335 -0.9035
  116OSM    C9S12070   6.221   5.499   6.457 -0.5600  0.1100 -0.0060
  116OSM    H9S12071   6.119   5.543   6.449 -0.0305  1.1155 -2.0262
  116OSM    H9T12072   6.204   5.394   6.490  0.0166 -0.2363 -0.7831
  116OSM   C10S12073   6.295   5.516   6.325 -0.0228 -0.3838  0.5005
  116OSM   H10S12074   6.397   5.475   6.339  0.6990  1.3848  0.7146
  116OSM   H10T12075   6.288   5.624   6.301 -1.2641 -0.5396  0.1109
  116OSM   C11S12076   6.242   5.438   6.206 -0.7880 -0.6466  0.3303
  116OSM   H11S12077   6.140   5.477   6.185 -0.4040 -0.4934 -1.3694
  116OSM   H11T12078   6.231   5.328   6.216 -1.5732 -0.5589  0.5215
  116OSM   C12S12079   6.317   5.462   6.075 -0.1283 -0.5758 -0.4454
  116OSM   H12S12080   6.421   5.424   6.073  0.3857  0.7942 -0.2361
  116OSM   H12T12081   6.327   5.572   6.076 -0.9945 -0.3629  3.8471
  116OSM   C13S12082   6.236   5.413   5.953 -0.0017 -0.0822 -0.0236
  116OSM   H13S12083   6.127   5.405   5.973  0.3031 -4.4082  0.8895
  116OSM   H13T12084   6.260   5.307   5.930 -0.3872  0.1157 -1.4121
  116OSM   C14S12085   6.269   5.499   5.844 -0.6880 -0.0411 -0.1912
  116OSM   H14S12086   6.377   5.526   5.839 -0.9258  0.8357 -0.9614
  116OSM   H14T12087   6.210   5.589   5.872 -2.0187 -0.6382 -0.9792
  116OSM   C15S12088   6.229   5.450   5.700 -0.2568 -0.2469 -0.0587
  116OSM   H15S12089   6.124   5.413   5.694 -0.5766  0.6001  0.0852
  116OSM   H15T12090   6.309   5.383   5.662  1.0104  0.8907  0.5217
  116OSM   C16S12091   6.231   5.565   5.600  0.6455  0.2678 -0.0328
  116OSM   H16S12092   6.331   5.614   5.599  1.3743 -1.1360  0.2056
  116OSM   H16T12093   6.150   5.629   5.640 -0.3490  0.4019 -2.1485
  116OSM   C17S12094   6.191   5.535   5.453 -0.4415  0.3778 -0.4109
  116OSM   H17S12095   6.111   5.458   5.450 -0.9471  0.8863 -0.1788
  116OSM   H17T12096   6.273   5.483   5.398 -0.6981  0.3775 -0.7968
  116OSM   C18S12097   6.143   5.665   5.385  0.6988 -0.0781  0.6906
  116OSM   H18S12098   6.053   5.696   5.443  0.4923 -1.0899  0.9201
  116OSM   H18T12099   6.111   5.652   5.279  1.2089  0.5586  0.4493
  116OSM   H18U12100   6.213   5.751   5.391 -0.5962  0.9600  1.6486
  116OSM    C1F12101   5.840   6.050   6.883 -0.5336 -0.9568  0.3589
  116OSM     OF12102   5.815   6.162   6.933  0.1004 -0.1277  0.5780
  116OSM    C2F12103   5.768   5.995   6.756 -0.3551  0.4128  0.4513
  116OSM    H2F12104   5.661   5.977   6.780 -0.2255 -0.5525  0.3228
  116OSM    H2G12105   5.818   5.899   6.731 -0.3131  1.2127 -2.9280
  116OSM    C3F12106   5.777   6.085   6.631 -0.0072  0.8859 -0.8438
  116OSM    H3F12107   5.745   6.189   6.656  1.6606  0.7354  2.4881
  116OSM    H3G12108   5.709   6.045   6.554  0.6664  0.0306 -1.0171
  116OSM    C4F12109   5.918   6.079   6.577  0.4608 -0.3216  0.5182
  116OSM    H4F12110   5.994   6.111   6.651  2.2821 -1.5332 -0.7391
  116OSM    H4G12111   5.913   6.146   6.488 -0.8204  0.9201  1.4873
  116OSM    C5F12112   5.948   5.937   6.526  0.3320  0.0609  0.1899
  116OSM    H5F12113   5.855   5.886   6.493  1.4942 -1.6682 -0.5975
  116OSM    H5G12114   5.983   5.867   6.605 -2.4103 -2.0822 -0.3278
  116OSM    C6F12115   6.057   5.919   6.408  0.5165 -0.2638  1.1734
  116OSM    H6F12116   6.085   5.811   6.411 -0.3757 -0.6461 -1.6332
  116OSM    H6G12117   6.150   5.975   6.430  0.2058  1.3340 -1.2666
  116OSM    C7F12118   6.004   5.968   6.276 -0.4367  0.6073  0.5767
  116OSM    H7F12119   5.969   6.072   6.290 -2.3679 -0.2107  2.4975
  116OSM    H7G12120   5.914   5.905   6.257  0.3422 -0.5949  0.7560
  116OSM    C8F12121   6.102   5.942   6.155  0.2302  0.1591 -0.1335
  116OSM    H8F12122   6.094   5.835   6.128  0.3688 -0.2973  1.5686
  116OSM    H8G12123   6.205   5.957   6.192  0.8277  1.1176 -2.0338
  116OSM    C9F12124   6.086   6.039   6.045  0.3219 -0.4521  0.3161
  116OSM    H9F12125   6.057   6.137   6.084 -0.6915 -0.5431 -0.1564
  116OSM   C10F12126   6.096   6.021   5.912 -0.8004 -0.2541  0.2724
  116OSM   H10F12127   6.058   6.102   5.848 -1.7014 -0.5742  0.3841
  116OSM   C11F12128   6.139   5.896   5.840  0.4734 -0.9167  0.1158
  116OSM   H11F12129   6.089   5.892   5.741  0.5480  1.8181 -0.1067
  116OSM   H11G12130   6.113   5.802   5.894  1.2308  0.0661  2.3080
  116OSM   C12F12131   6.291   5.878   5.823 -0.4117 -0.0418  0.1746
  116OSM   H12F12132   6.313   5.771   5.801 -1.4809 -1.0432  3.4125
  116OSM   H12G12133   6.347   5.884   5.919  0.7812 -0.4179 -0.4707
  116OSM   C13F12134   6.355   5.980   5.722  0.3248  0.3930  0.1857
  116OSM   H13F12135   6.465   5.982   5.735  0.6995 -2.2343 -1.5959
  116OSM   H13G12136   6.309   6.078   5.744 -1.7512 -0.7526  1.2936
  116OSM   C14F12137   6.311   5.950   5.575 -0.0167 -0.5019 -0.7404
  116OSM   H14F12138   6.200   5.949   5.569 -0.1413 -4.2443 -0.2521
  116OSM   H14G12139   6.338   5.843   5.560  0.7517 -0.2005 -1.5543
  116OSM   C15F12140   6.382   6.042   5.475  0.7850  0.2766 -0.0112
  116OSM   H15F12141   6.366   6.006   5.371  0.2378 -0.2932  0.2618
  116OSM   H15G12142   6.490   6.056   5.495  1.1996  1.3050 -2.5736
  116OSM   C16F12143   6.314   6.180   5.461  0.0148  0.3051  0.1968
  116OSM   H16F12144   6.354   6.254   5.533 -0.2066  0.6250 -0.0060
  116OSM   H16G12145   6.204   6.175   5.474  0.0125  0.4513  0.2462
  116OSM   C17F12146   6.346   6.248   5.322  0.0426 -0.3204  0.0554
  116OSM   H17F12147   6.318   6.180   5.239  1.4616 -0.8630 -0.0140
  116OSM   H17G12148   6.457   6.255   5.315  0.2269 -1.2760  1.5097
  116OSM   C18F12149   6.281   6.392   5.300  0.4993 -0.2572 -0.3540
  116OSM   H18F12150   6.191   6.406   5.364 -0.0103  0.9640 -1.2885
  116OSM   H18G12151   6.245   6.404   5.195  0.4711  0.5947 -0.2535
  116OSM   H18H12152   6.343   6.480   5.328 -0.7743  0.4022  0.4851
  117OSM      N12153   3.792   1.426   7.112  0.1015  0.1246  0.0725
  117OSM    C1512154   3.932   1.453   7.161 -0.4963 -0.4881 -0.4501
  117OSM   H15A12155   3.966   1.353   7.185 -1.4606 -0.6059  0.5241
  117OSM   H15B12156   3.945   1.508   7.253 -0.6535 -0.3940 -0.4844
  117OSM   H15C12157   3.997   1.500   7.089 -0.0210  0.8799  0.8167
  117OSM    C1412158   3.805   1.333   6.999  0.0895 -0.3405 -0.2088
  117OSM   H14A12159   3.871   1.367   6.920 -0.6453 -0.9948 -1.1397
  117OSM   H14B12160   3.710   1.321   6.949  0.2386  0.1795 -0.6293
  117OSM   H14C12161   3.851   1.243   7.039 -0.7749 -0.3181  0.8663
  117OSM    C1312162   3.703   1.368   7.220 -0.7571  0.1813 -0.2696
  117OSM   H13A12163   3.696   1.429   7.309 -1.5423 -0.1159 -0.1187
  117OSM   H13B12164   3.728   1.269   7.253 -1.1789  0.3950  0.7132
  117OSM   H13C12165   3.610   1.352   7.168 -1.6710  0.9931  1.0653
  117OSM    C1212166   3.722   1.553   7.068  0.2357 -0.0255 -0.2999
  117OSM   H12A12167   3.693   1.594   7.163 -2.1060 -1.7370 -0.1855
  117OSM   H12B12168   3.633   1.515   7.020  0.9993 -0.4364 -1.4622
  117OSM    C1112169   3.794   1.655   6.973  0.1395  0.3993  0.6007
  117OSM   H11A12170   3.710   1.717   6.934  0.2111  0.1235  0.0006
  117OSM   H11B12171   3.845   1.597   6.894 -1.0239 -2.4771  1.8073
  117OSM      P12172   3.844   1.830   7.158  0.1225 -0.0712 -0.2028
  117OSM    O1312173   3.777   1.757   7.271  0.2319 -0.4402  0.3859
  117OSM    O1412174   3.966   1.903   7.196  0.3920 -0.7368  0.6065
  117OSM    O1112175   3.742   1.925   7.085 -0.0013  0.7400  0.2153
  117OSM    O1212176   3.884   1.726   7.049  0.0128  0.1912  0.2370
  117OSM    C1S12177   3.784   2.043   7.021  0.2290 -0.7716  0.4728
  117OSM    H1S12178   3.892   2.066   7.038 -0.0459  1.7152 -0.7682
  117OSM    H1T12179   3.723   2.127   7.059 -1.8385 -1.7191 -0.5798
  117OSM     NF12180   3.849   2.157   6.800  0.3083 -0.3633 -0.1334
  117OSM    HNF12181   3.804   2.217   6.735 -1.1703  1.1870  2.1712
  117OSM    C2S12182   3.777   2.048   6.863 -0.9677 -0.1221 -0.2847
  117OSM    H2S12183   3.823   1.951   6.833 -0.1843  0.9675 -2.9156
  117OSM    C3S12184   3.625   2.039   6.818  0.1834  0.0650 -0.4360
  117OSM    H3S12185   3.596   2.146   6.819 -2.9823 -0.6637  1.6332
  117OSM     O312186   3.538   1.967   6.915  0.0159 -0.1975 -0.3528
  117OSM    HO312187   3.596   1.971   6.991  2.1485  0.9325 -1.9245
  117OSM    C4S12188   3.618   1.985   6.679 -0.0086 -0.5171  0.3845
  117OSM    H4S12189   3.620   2.068   6.607  1.4277 -0.1188  0.8395
  117OSM    C5S12190   3.596   1.857   6.650 -0.3157 -0.2186  0.0915
  117OSM    H5S12191   3.600   1.791   6.738  0.9502  2.2005  1.9439
  117OSM    C6S12192   3.582   1.795   6.515  0.0064 -0.0011  0.5490
  117OSM    H6S12193   3.491   1.732   6.508  1.1876 -1.7358  0.0274
  117OSM    H6T12194   3.669   1.729   6.492 -0.9442 -1.2697  0.5086
  117OSM    C7S12195   3.581   1.896   6.389 -0.1101  0.0382  0.3056
  117OSM    H7S12196   3.665   1.969   6.399 -0.0038 -0.2049  1.3704
  117OSM    H7T12197   3.491   1.960   6.407 -1.5348 -1.1852 -2.0649
  117OSM    C8S12198   3.556   1.825   6.257  0.1409  0.5930  0.0866
  117OSM    H8S12199   3.469   1.757   6.264 -1.1124  1.8629 -1.9181
  117OSM    H8T12200   3.644   1.758   6.244 -1.1490 -1.8327  2.9214
  117OSM    C9S12201   3.529   1.923   6.143  0.8573 -0.0572  0.1538
  117OSM    H9S12202   3.592   2.012   6.163 -3.4425  3.1489  0.8655
  117OSM    H9T12203   3.425   1.963   6.140  1.4860  1.7375  0.9014
  117OSM   C10S12204   3.558   1.865   6.008 -0.6991 -0.3509 -0.0083
  117OSM   H10S12205   3.493   1.777   5.989  0.6914 -0.9517 -2.3005
  117OSM   H10T12206   3.664   1.836   5.993  0.4070  3.0036  0.4382
  117OSM   C11S12207   3.530   1.961   5.895  0.3805  0.8547  0.2332
  117OSM   H11S12208   3.593   2.053   5.895 -0.1313  1.2189  1.0169
  117OSM   H11T12209   3.424   1.996   5.905  0.7051  2.9690 -2.4576
  117OSM   C12S12210   3.531   1.905   5.747 -0.2824  0.1031  0.1650
  117OSM   H12S12211   3.467   1.814   5.740  2.7040 -2.1459  0.4765
  117OSM   H12T12212   3.628   1.855   5.728 -0.2378  0.0714  0.4742
  117OSM   C13S12213   3.513   2.010   5.640 -0.2618 -0.5628  0.0436
  117OSM   H13S12214   3.596   2.084   5.650 -1.8044  1.4320 -1.1318
  117OSM   H13T12215   3.424   2.075   5.654  0.4634  0.3417  0.6018
  117OSM   C14S12216   3.510   1.945   5.496  0.1390 -0.7591  0.2746
  117OSM   H14S12217   3.420   1.882   5.477  0.2093 -0.9246  0.4866
  117OSM   H14T12218   3.603   1.885   5.482  0.9538  0.4844  0.2566
  117OSM   C15S12219   3.513   2.046   5.378 -0.0767 -0.0639  0.2875
  117OSM   H15S12220   3.604   2.108   5.391  0.8232 -1.3373  0.1530
  117OSM   H15T12221   3.437   2.127   5.391  1.7206  1.9802 -1.1766
  117OSM   C16S12222   3.509   1.971   5.243  0.1816 -0.0629  0.9373
  117OSM   H16S12223   3.422   1.901   5.246 -0.2696  0.4918  0.9055
  117OSM   H16T12224   3.597   1.904   5.233 -1.0769 -1.6645 -0.1273
  117OSM   C17S12225   3.498   2.069   5.124 -0.2340 -0.0953  0.0031
  117OSM   H17S12226   3.598   2.112   5.101  0.2830 -0.9188  0.6383
  117OSM   H17T12227   3.424   2.146   5.151  1.7365  1.5998  0.8472
  117OSM   C18S12228   3.452   1.998   4.997 -0.0274  0.6232 -0.0211
  117OSM   H18S12229   3.355   1.945   5.011 -0.0437 -0.0828 -2.3619
  117OSM   H18T12230   3.520   1.917   4.966 -0.8860  0.7082 -2.3375
  117OSM   H18U12231   3.419   2.076   4.925 -3.2687  0.3026  0.9502
  117OSM    C1F12232   3.980   2.190   6.817  0.3524  0.1558 -0.1222
  117OSM     OF12233   4.050   2.103   6.859  0.2038 -0.5845  0.2411
  117OSM    C2F12234   4.021   2.332   6.794  0.4209 -0.3314  0.3698
  117OSM    H2F12235   4.038   2.381   6.892 -0.9879 -1.8383  1.4291
  117OSM    H2G12236   3.933   2.384   6.748 -0.4581 -0.7619  1.5151
  117OSM    C3F12237   4.135   2.355   6.697 -0.0135 -0.0953 -0.1704
  117OSM    H3F12238   4.144   2.465   6.691  3.5779 -0.3103 -0.5800
  117OSM    H3G12239   4.098   2.327   6.596 -0.6159  0.7778 -0.2022
  117OSM    C4F12240   4.279   2.309   6.730  0.2532 -0.3902  0.1208
  117OSM    H4F12241   4.282   2.198   6.726 -1.1722 -0.5032  1.1024
  117OSM    H4G12242   4.305   2.340   6.833 -1.0707  2.0576 -0.2007
  117OSM    C5F12243   4.373   2.369   6.637 -0.8931 -0.2687 -0.8308
  117OSM    H5F12244   4.474   2.342   6.674  0.1723  2.0661 -1.8343
  117OSM    H5G12245   4.368   2.479   6.643  0.7004 -0.1849 -0.5470
  117OSM    C6F12246   4.365   2.309   6.497 -0.6851 -0.3591 -0.4578
  117OSM    H6F12247   4.262   2.340   6.469 -0.2563  0.2013 -1.4334
  117OSM    H6G12248   4.374   2.199   6.512  0.6474 -0.3389 -0.9167
  117OSM    C7F12249   4.486   2.360   6.416 -0.1076  0.2312  0.4530
  117OSM    H7F12250   4.579   2.319   6.460 -0.1784 -0.2107  0.1988
  117OSM    H7G12251   4.494   2.471   6.405  1.9056 -0.0677 -1.9882
  117OSM    C8F12252   4.482   2.303   6.272 -0.2819  0.3440 -0.5183
  117OSM    H8F12253   4.482   2.192   6.272  2.7473  0.1903 -2.9048
  117OSM    H8G12254   4.579   2.336   6.228 -0.0134  0.9310  0.4829
  117OSM    C9F12255   4.359   2.348   6.200  0.6014  0.8020  0.5547
  117OSM    H9F12256   4.272   2.323   6.262  0.6478  0.3052  0.4244
  117OSM   C10F12257   4.354   2.405   6.074 -0.2624 -0.1527 -0.1478
  117OSM   H10F12258   4.259   2.441   6.033  0.7928 -0.5761 -3.2623
  117OSM   C11F12259   4.474   2.448   5.989 -0.3607 -0.7793  0.4057
  117OSM   H11F12260   4.569   2.449   6.045  1.2693 -0.0699 -2.1750
  117OSM   H11G12261   4.460   2.556   5.969 -1.4184 -1.0597 -0.5280
  117OSM   C12F12262   4.502   2.368   5.864 -0.3705 -0.0621  0.3830
  117OSM   H12F12263   4.486   2.258   5.867 -1.2311  0.0846  1.7679
  117OSM   H12G12264   4.610   2.379   5.841 -0.3358  1.0530  1.0002
  117OSM   C13F12265   4.431   2.424   5.746 -0.5207  0.1625  0.1100
  117OSM   H13F12266   4.460   2.529   5.729  3.1524 -0.7085  0.0893
  117OSM   H13G12267   4.324   2.405   5.772 -0.5013 -0.0308  0.0520
  117OSM   C14F12268   4.442   2.346   5.608  0.2759  0.2603  0.5225
  117OSM   H14F12269   4.408   2.240   5.616  0.6636  0.2370  2.3652
  117OSM   H14G12270   4.549   2.341   5.579 -0.0007 -0.7786 -0.3709
  117OSM   C15F12271   4.367   2.411   5.493  0.0730 -0.0868  0.4712
  117OSM   H15F12272   4.381   2.521   5.492  0.9329 -0.1936 -0.3358
  117OSM   H15G12273   4.262   2.389   5.523  0.9919 -1.6705  2.7650
  117OSM   C16F12274   4.401   2.341   5.362  0.7900  0.5798  0.0100
  117OSM   H16F12275   4.419   2.238   5.398  1.2923  1.1142  1.3501
  117OSM   H16G12276   4.490   2.370   5.303  1.5170 -2.1738 -0.3888
  117OSM   C17F12277   4.279   2.337   5.260  0.2274 -0.1800  0.2293
  117OSM   H17F12278   4.231   2.436   5.244 -2.2628 -1.2723  0.4586
  117OSM   H17G12279   4.198   2.282   5.313 -0.9819  1.2009 -0.1237
  117OSM   C18F12280   4.325   2.284   5.124 -0.7251  0.1588  0.5509
  117OSM   H18F12281   4.254   2.294   5.040 -0.4068  0.6467  0.3319
  117OSM   H18G12282   4.348   2.175   5.122  2.8959  0.7971 -1.9038
  117OSM   H18H12283   4.424   2.327   5.096 -0.4868  0.1016  1.2731
  118OSM      N12284   4.294   1.012   7.435  0.0101 -0.5137 -0.3616
  118OSM    C1512285   4.277   1.152   7.394  0.4800  0.4563  0.4115
  118OSM   H15A12286   4.289   1.205   7.487 -0.1464 -0.3685  0.9781
  118OSM   H15B12287   4.176   1.170   7.362 -0.0750 -0.0606  1.8081
  118OSM   H15C12288   4.342   1.184   7.314  2.0375  1.1114  1.8624
  118OSM    C1412289   4.413   1.004   7.513  0.1193 -0.2434  0.5792
  118OSM   H14A12290   4.442   0.912   7.562  1.2620 -0.4582 -0.4592
  118OSM   H14B12291   4.405   1.083   7.587 -0.3410  0.9661 -0.7120
  118OSM   H14C12292   4.504   1.036   7.466 -1.2729  1.2322 -1.2815
  118OSM    C1312293   4.177   0.979   7.519 -0.8602  0.3907  0.3097
  118OSM   H13A12294   4.155   1.049   7.598 -0.2793  0.7285  0.1753
  118OSM   H13B12295   4.192   0.876   7.550  2.0527  0.7901  0.4930
  118OSM   H13C12296   4.095   0.987   7.449 -0.0911  0.5888 -0.5726
  118OSM    C1212297   4.292   0.921   7.307  0.1716  0.3110  0.0524
  118OSM   H12A12298   4.280   0.817   7.335 -1.2353  0.6912  1.0069
  118OSM   H12B12299   4.383   0.933   7.252 -0.2445 -0.1447 -0.7437
  118OSM    C1112300   4.187   0.947   7.201 -0.2900  0.2874 -1.0375
  118OSM   H11A12301   4.188   0.866   7.126  1.4372  0.0956 -0.8443
  118OSM   H11B12302   4.216   1.039   7.145 -0.6835 -0.6856 -2.9013
  118OSM      P12303   3.943   1.053   7.219  0.3558 -0.1229  0.1970
  118OSM    O1312304   3.807   0.996   7.240  0.3531 -0.2474 -0.4745
  118OSM    O1412305   3.967   1.178   7.292  0.2254  0.2720 -0.0722
  118OSM    O1112306   3.960   1.081   7.062 -0.0048  0.7567  1.1107
  118OSM    O1212307   4.057   0.947   7.255 -0.1934  0.1923  1.1426
  118OSM    C1S12308   3.926   0.973   6.966  0.1038  0.1182 -0.1965
  118OSM    H1S12309   3.820   0.943   6.983 -0.6089  1.4603 -1.9706
  118OSM    H1T12310   3.991   0.886   6.986  0.4127  0.3697 -0.0901
  118OSM     NF12311   3.914   0.895   6.727 -0.1036 -0.1216 -0.6521
  118OSM    HNF12312   3.986   0.828   6.709 -0.9600 -1.1173 -0.4570
  118OSM    C2S12313   3.958   1.007   6.815  0.3704  0.3559  0.5140
  118OSM    H2S12314   3.904   1.100   6.789 -0.7710 -0.8187 -1.6598
  118OSM    C3S12315   4.115   1.046   6.800 -0.1722 -0.0955 -0.2976
  118OSM    H3S12316   4.168   0.953   6.829  0.5852  1.1326  2.5895
  118OSM     O312317   4.161   1.149   6.886 -0.3122 -0.1954  0.5855
  118OSM    HO312318   4.107   1.130   6.963  0.2419  0.2725  1.0946
  118OSM    C4S12319   4.157   1.082   6.662  0.3997 -0.7319 -0.4974
  118OSM    H4S12320   4.117   1.177   6.625 -1.6477 -0.7932  1.3499
  118OSM    C5S12321   4.228   1.002   6.579  0.3516 -0.6504  0.5066
  118OSM    H5S12322   4.243   0.896   6.603  0.3115 -0.3122  2.1474
  118OSM    C6S12323   4.288   1.049   6.446  0.2156 -0.1139  0.4411
  118OSM    H6S12324   4.389   1.005   6.432 -0.2715 -1.8735  1.9743
  118OSM    H6T12325   4.308   1.158   6.452  1.1619 -0.2109 -0.5661
  118OSM    C7S12326   4.208   1.022   6.312  0.0915  0.0581 -0.0590
  118OSM    H7S12327   4.224   0.917   6.281  1.7964 -0.7879  3.2451
  118OSM    H7T12328   4.259   1.087   6.237  2.1424 -1.6703 -0.2507
  118OSM    C8S12329   4.056   1.047   6.323 -0.2898 -0.3541  0.2759
  118OSM    H8S12330   4.038   1.142   6.377  0.4655 -0.2917  0.4256
  118OSM    H8T12331   4.002   0.968   6.381 -0.0970 -0.5371  0.2060
  118OSM    C9S12332   3.997   1.079   6.186  0.1320  1.1275  0.0462
  118OSM    H9S12333   4.065   1.154   6.140  2.2102 -1.1590 -0.8449
  118OSM    H9T12334   3.897   1.118   6.215 -0.4070 -0.4817  0.4328
  118OSM   C10S12335   3.990   0.953   6.111  0.2331 -0.2873 -0.3596
  118OSM   H10S12336   3.931   0.876   6.166 -2.0136  2.3580  1.1868
  118OSM   H10T12337   4.094   0.917   6.100  1.2114  2.4205 -0.7952
  118OSM   C11S12338   3.933   0.965   5.972  0.2310  0.1559 -0.7734
  118OSM   H11S12339   3.938   0.862   5.929 -3.7941 -0.6394  0.2544
  118OSM   H11T12340   3.992   1.037   5.911 -0.1980 -0.1232 -1.5402
  118OSM   C12S12341   3.787   1.005   5.970 -0.1978  0.3004 -0.3713
  118OSM   H12S12342   3.785   1.114   5.986  1.8711  0.2884  0.1967
  118OSM   H12T12343   3.729   0.961   6.055  1.2119 -2.1519 -0.5652
  118OSM   C13S12344   3.716   0.972   5.839 -0.1158 -0.8222 -0.5122
  118OSM   H13S12345   3.612   1.009   5.854  0.4767  0.6344  0.1160
  118OSM   H13T12346   3.710   0.861   5.826 -0.2587 -0.8486 -0.2334
  118OSM   C14S12347   3.790   1.033   5.724 -0.1774 -0.3692  0.0507
  118OSM   H14S12348   3.882   0.976   5.701  0.2953  0.9534 -1.5914
  118OSM   H14T12349   3.820   1.137   5.750  0.5299 -0.4689 -0.3594
  118OSM   C15S12350   3.707   1.046   5.594 -0.0900 -0.1099  0.4751
  118OSM   H15S12351   3.617   1.109   5.611  0.1177  0.6490 -1.0482
  118OSM   H15T12352   3.655   0.952   5.565  1.6246 -1.1372  0.5849
  118OSM   C16S12353   3.776   1.100   5.474  0.1313 -0.4709 -0.6780
  118OSM   H16S12354   3.815   1.202   5.492 -0.0612 -0.4632 -0.2794
  118OSM   H16T12355   3.705   1.122   5.391 -0.2452  1.0491  0.0067
  118OSM   C17S12356   3.890   1.016   5.409 -0.0428 -0.3573  0.4191
  118OSM   H17S12357   3.842   0.918   5.389  0.1832 -0.6872  1.4523
  118OSM   H17T12358   3.973   0.997   5.481  0.1604 -3.5064 -0.4663
  118OSM   C18S12359   3.932   1.091   5.275  0.0218 -0.2213  0.1460
  118OSM   H18S12360   3.993   1.180   5.301  2.0331 -1.3903 -0.3197
  118OSM   H18T12361   3.843   1.126   5.220  0.9960  2.4201  0.0943
  118OSM   H18U12362   3.993   1.025   5.210  0.0966  0.4878 -0.5064
  118OSM    C1F12363   3.788   0.858   6.709  0.7736 -0.3439 -0.3917
  118OSM     OF12364   3.696   0.927   6.748  0.5299 -0.2416  0.5294
  118OSM    C2F12365   3.763   0.716   6.648 -0.1772 -0.1314 -0.1825
  118OSM    H2F12366   3.696   0.664   6.720  0.2387  0.0137  0.3194
  118OSM    H2G12367   3.862   0.664   6.642 -1.2580 -2.5430  1.3304
  118OSM    C3F12368   3.686   0.736   6.515 -0.4569 -0.5282  0.1317
  118OSM    H3F12369   3.735   0.802   6.440  0.0060 -1.7927 -0.7192
  118OSM    H3G12370   3.595   0.792   6.544 -1.9624 -2.2844 -0.9845
  118OSM    C4F12371   3.642   0.605   6.450  0.0429  0.4948  0.2395
  118OSM    H4F12372   3.535   0.581   6.468  0.4637 -1.8728 -0.1263
  118OSM    H4G12373   3.695   0.525   6.504  0.0203 -0.4232 -1.0482
  118OSM    C5F12374   3.686   0.598   6.304  0.2776  0.3387  0.6608
  118OSM    H5F12375   3.648   0.501   6.267 -0.9622  0.8972  0.4190
  118OSM    H5G12376   3.796   0.601   6.290  0.4129 -3.2884  0.1685
  118OSM    C6F12377   3.610   0.706   6.215  0.5508 -0.6766  0.0576
  118OSM    H6F12378   3.658   0.803   6.239 -0.4009 -0.0168 -0.6320
  118OSM    H6G12379   3.511   0.716   6.263  0.9520 -0.2706  0.8124
  118OSM    C7F12380   3.605   0.669   6.064 -0.1105 -0.5651  0.3811
  118OSM    H7F12381   3.694   0.606   6.047  0.5934  0.1428  1.3487
  118OSM    H7G12382   3.622   0.758   6.000 -1.7848 -1.8456 -2.0202
  118OSM    C8F12383   3.474   0.612   6.023 -0.1207 -0.4318 -0.6905
  118OSM    H8F12384   3.395   0.689   6.034  0.8671  0.5979 -0.6247
  118OSM    H8G12385   3.449   0.528   6.091  2.0728  1.9339  3.4003
  118OSM    C9F12386   3.491   0.574   5.880 -0.4299 -0.3972  0.2218
  118OSM    H9F12387   3.594   0.540   5.859 -0.7825 -0.9029 -0.7922
  118OSM   C10F12388   3.412   0.608   5.777 -0.3561 -0.4229  0.3376
  118OSM   H10F12389   3.428   0.567   5.677 -0.9689  0.4806 -0.1431
  118OSM   C11F12390   3.272   0.672   5.792 -0.2437  0.2359 -0.1795
  118OSM   H11F12391   3.231   0.640   5.890  1.8434 -1.6286  0.1654
  118OSM   H11G12392   3.206   0.636   5.710 -1.4490  1.9460  0.0054
  118OSM   C12F12393   3.274   0.825   5.777 -0.3218  0.3683  0.0818
  118OSM   H12F12394   3.348   0.867   5.848 -0.6066 -1.6178  1.6256
  118OSM   H12G12395   3.172   0.859   5.806 -0.4102  0.4103 -0.2703
  118OSM   C13F12396   3.298   0.860   5.627 -0.3449 -0.1375  0.1252
  118OSM   H13F12397   3.217   0.824   5.561  0.6303 -2.6698  0.2153
  118OSM   H13G12398   3.381   0.802   5.583  0.3085  0.8845 -0.0335
  118OSM   C14F12399   3.319   1.008   5.618 -0.0454 -0.0981 -0.7658
  118OSM   H14F12400   3.416   1.040   5.663  0.2048 -0.9572 -0.6710
  118OSM   H14G12401   3.246   1.080   5.662 -0.3969  1.3095 -3.4572
  118OSM   C15F12402   3.327   1.070   5.475 -0.0551 -0.1390 -0.4965
  118OSM   H15F12403   3.414   1.027   5.421 -1.6003 -1.6765 -1.8941
  118OSM   H15G12404   3.344   1.178   5.492  2.4908 -0.4920 -0.3585
  118OSM   C16F12405   3.198   1.047   5.401 -0.1512  0.3967 -0.2841
  118OSM   H16F12406   3.108   1.083   5.455 -0.5819  1.1949 -1.5034
  118OSM   H16G12407   3.176   0.941   5.377 -0.3157  0.4296 -0.2822
  118OSM   C17F12408   3.192   1.114   5.265  0.3429  0.3439  0.2568
  118OSM   H17F12409   3.217   1.045   5.181 -3.7328 -0.0991 -0.8155
  118OSM   H17G12410   3.257   1.204   5.267  0.6423  0.2415 -1.9939
  118OSM   C18F12411   3.056   1.187   5.236  0.0381  0.4141  0.8259
  118OSM   H18F12412   3.065   1.244   5.142 -2.0041  0.4713  0.6292
  118OSM   H18G12413   3.036   1.258   5.319  0.2568  1.0461  0.3481
  118OSM   H18H12414   2.976   1.112   5.222 -3.2783  3.9366 -0.6242
  119OSM      N12415   5.288   4.144   7.227  0.0648  0.7798 -0.2823
  119OSM    C1512416   5.166   4.117   7.312 -0.5491  0.6548 -0.0680
  119OSM   H15A12417   5.123   4.205   7.357 -1.6357  0.1813 -0.1466
  119OSM   H15B12418   5.192   4.052   7.394 -1.0704  0.5062 -0.0163
  119OSM   H15C12419   5.086   4.071   7.256 -0.9587 -0.0475  1.0576
  119OSM    C1412420   5.235   4.236   7.113  0.3095 -0.3069  0.6761
  119OSM   H14A12421   5.229   4.338   7.148  1.7558 -0.1506  0.5456
  119OSM   H14B12422   5.140   4.196   7.081  0.4226 -0.4087  0.4660
  119OSM   H14C12423   5.294   4.233   7.022 -2.9034 -2.1487 -1.5352
  119OSM    C1312424   5.394   4.210   7.308 -0.3623  0.0006  0.1181
  119OSM   H13A12425   5.383   4.316   7.325 -1.0163 -0.1347  0.5612
  119OSM   H13B12426   5.488   4.205   7.255 -0.3755  1.3475 -0.0672
  119OSM   H13C12427   5.409   4.158   7.401  0.6016 -1.4188 -0.7953
  119OSM    C1212428   5.318   4.010   7.162  0.5379  0.8984  0.2568
  119OSM   H12A12429   5.231   3.984   7.104  0.4426  1.2966  0.2185
  119OSM   H12B12430   5.327   3.932   7.235 -1.9873  1.6281  1.4510
  119OSM    C1112431   5.449   3.996   7.080 -1.0494  0.3573 -0.9767
  119OSM   H11A12432   5.455   4.072   6.999  0.8422  0.5408 -0.7035
  119OSM   H11B12433   5.449   3.894   7.037  0.6247  0.9656 -2.5655
  119OSM      P12434   5.708   4.013   7.084  0.0591  0.3355  0.2139
  119OSM    O1312435   5.812   4.051   7.187 -0.2753  0.7975 -0.1288
  119OSM    O1412436   5.722   3.873   7.024  0.2580 -0.5560 -0.0737
  119OSM    O1112437   5.690   4.122   6.974 -0.5647  0.4548  0.5142
  119OSM    O1212438   5.566   4.017   7.161 -0.3713  0.2494  0.3413
  119OSM    C1S12439   5.692   4.260   7.009 -0.4795 -0.4702  0.6374
  119OSM    H1S12440   5.774   4.291   7.077  0.6289 -1.5491 -0.1488
  119OSM    H1T12441   5.605   4.289   7.072  0.2942  0.4324  1.3076
  119OSM     NF12442   5.735   4.489   6.911 -0.7655 -0.2538 -0.1643
  119OSM    HNF12443   5.661   4.551   6.887 -0.3636  0.4129  0.3139
  119OSM    C2S12444   5.704   4.348   6.884 -0.1371 -0.6964  0.1714
  119OSM    H2S12445   5.789   4.314   6.822  0.9766  0.5752  0.9500
  119OSM    C3S12446   5.574   4.339   6.797 -0.0601  0.4335 -0.5824
  119OSM    H3S12447   5.489   4.365   6.864  1.7393 -0.6460  2.3331
  119OSM     O312448   5.528   4.205   6.765  0.4024  0.0129  0.4418
  119OSM    HO312449   5.565   4.142   6.827 -3.1025 -2.0373  0.7055
  119OSM    C4S12450   5.567   4.424   6.673  0.0901 -0.3682 -0.2497
  119OSM    H4S12451   5.646   4.402   6.599  0.8476 -0.0125  0.4333
  119OSM    C5S12452   5.467   4.513   6.648 -0.0767  0.0183 -0.2909
  119OSM    H5S12453   5.385   4.508   6.722  0.7139 -0.7253  0.5661
  119OSM    C6S12454   5.447   4.588   6.520  0.2200  0.1816  0.7319
  119OSM    H6S12455   5.504   4.682   6.532  2.4467 -0.8043 -1.2853
  119OSM    H6T12456   5.338   4.602   6.506 -0.1588 -2.3597  0.6285
  119OSM    C7S12457   5.483   4.504   6.390 -0.9349 -0.5427  0.3423
  119OSM    H7S12458   5.414   4.418   6.372  0.2866 -1.7795  1.3528
  119OSM    H7T12459   5.588   4.469   6.394 -0.7976 -0.0144  1.8005
  119OSM    C8S12460   5.466   4.594   6.260  0.5549 -0.2218  0.0092
  119OSM    H8S12461   5.484   4.536   6.168  2.9802  2.2090 -1.2060
  119OSM    H8T12462   5.520   4.690   6.278  1.8250 -1.1760  1.5981
  119OSM    C9S12463   5.323   4.638   6.230 -0.4428  0.2088 -0.0376
  119OSM    H9S12464   5.316   4.698   6.137  1.1943 -1.4143 -1.3010
  119OSM    H9T12465   5.284   4.707   6.307  1.0812  1.6816 -0.5306
  119OSM   C10S12466   5.215   4.530   6.217  0.2397 -0.1668  0.5018
  119OSM   H10S12467   5.121   4.581   6.184  0.6680  1.3227  1.4673
  119OSM   H10T12468   5.201   4.483   6.317  0.8365  2.0521  1.6905
  119OSM   C11S12469   5.247   4.421   6.122 -0.0428 -0.5500  0.5269
  119OSM   H11S12470   5.176   4.337   6.140 -1.8057  1.1719  1.9916
  119OSM   H11T12471   5.347   4.379   6.145 -1.4049 -3.5784  1.4675
  119OSM   C12S12472   5.244   4.463   5.979 -0.2025 -0.0656  0.1852
  119OSM   H12S12473   5.331   4.527   5.954 -1.5388  2.1806  1.0312
  119OSM   H12T12474   5.152   4.525   5.968  0.9247  1.5279 -0.5238
  119OSM   C13S12475   5.251   4.344   5.893  0.3146  1.0371  0.1798
  119OSM   H13S12476   5.159   4.282   5.899 -0.0174  1.5351  0.3616
  119OSM   H13T12477   5.333   4.279   5.930 -0.8940  0.0721  1.2833
  119OSM   C14S12478   5.260   4.375   5.746 -0.1276 -0.4541 -0.4194
  119OSM   H14S12479   5.174   4.438   5.714 -2.8498 -3.7600 -0.2640
  119OSM   H14T12480   5.266   4.283   5.684 -0.3019 -0.8608  0.1535
  119OSM   C15S12481   5.390   4.440   5.710 -0.3778  0.5348 -0.7753
  119OSM   H15S12482   5.473   4.397   5.770 -1.2943  1.0409  0.9361
  119OSM   H15T12483   5.394   4.546   5.743  2.8446 -0.0351  1.1505
  119OSM   C16S12484   5.429   4.413   5.563 -0.0257 -0.5735 -0.3007
  119OSM   H16S12485   5.341   4.445   5.503 -0.1826  0.2064  0.3341
  119OSM   H16T12486   5.448   4.305   5.544  0.9630 -0.9204  2.2858
  119OSM   C17S12487   5.542   4.506   5.523 -0.6392  0.6315  0.2294
  119OSM   H17S12488   5.636   4.454   5.550  0.9971  2.6263 -1.2470
  119OSM   H17T12489   5.542   4.610   5.562 -0.1934 -0.3403  3.1130
  119OSM   C18S12490   5.556   4.524   5.370 -0.3774 -0.2142  0.0736
  119OSM   H18S12491   5.622   4.611   5.345 -0.7183 -0.0525 -0.2697
  119OSM   H18T12492   5.455   4.552   5.334  0.1778  2.4495  0.3899
  119OSM   H18U12493   5.583   4.427   5.323  0.0624  0.4227 -1.0194
  119OSM    C1F12494   5.854   4.532   6.954  0.6747 -0.4006  0.5578
  119OSM     OF12495   5.939   4.455   6.997 -0.3337  0.1530 -0.2424
  119OSM    C2F12496   5.874   4.677   6.951  0.1992 -0.1245  0.2841
  119OSM    H2F12497   5.925   4.718   7.041  0.1095 -1.8341  1.1619
  119OSM    H2G12498   5.778   4.733   6.960  1.5496  2.2106  1.1855
  119OSM    C3F12499   5.964   4.714   6.833  0.1836  0.5241  0.1258
  119OSM    H3F12500   6.071   4.690   6.852  0.2422 -0.1703 -0.9978
  119OSM    H3G12501   5.964   4.825   6.827 -1.2027  0.5955  1.2431
  119OSM    C4F12502   5.904   4.666   6.698  0.3403 -0.0127  0.2988
  119OSM    H4F12503   5.794   4.676   6.708  0.4036  0.5660  0.5060
  119OSM    H4G12504   5.929   4.559   6.687  1.1229  0.3389 -1.6674
  119OSM    C5F12505   5.948   4.751   6.578 -0.7429  0.2727 -0.2826
  119OSM    H5F12506   6.059   4.745   6.584 -0.7216  0.3134 -0.6313
  119OSM    H5G12507   5.918   4.849   6.619 -0.1529 -0.3543  1.7832
  119OSM    C6F12508   5.893   4.712   6.440  1.0202 -0.4061 -0.0767
  119OSM    H6F12509   5.926   4.779   6.357  1.8329  0.8310  1.1768
  119OSM    H6G12510   5.784   4.726   6.456  0.6764 -0.8056 -1.8489
  119OSM    C7F12511   5.908   4.565   6.396  0.1126  0.1168 -0.5547
  119OSM    H7F12512   5.843   4.557   6.306 -1.3381 -0.0264  0.4744
  119OSM    H7G12513   5.867   4.501   6.477  0.3725 -0.0296 -0.5415
  119OSM    C8F12514   6.047   4.513   6.351 -1.0766  0.3697 -0.0040
  119OSM    H8F12515   6.028   4.431   6.278  0.3047  1.8839 -2.1788
  119OSM    H8G12516   6.096   4.470   6.441  2.4536  1.1508 -1.3838
  119OSM    C9F12517   6.151   4.608   6.302 -0.1388  0.5973  0.2965
  119OSM    H9F12518   6.181   4.676   6.383 -0.0358  1.6406 -0.5882
  119OSM   C10F12519   6.205   4.618   6.177  0.4180 -0.8438 -0.0784
  119OSM   H10F12520   6.269   4.704   6.155 -1.7380  0.1652 -3.0768
  119OSM   C11F12521   6.174   4.537   6.052  0.2856 -0.2729  0.1262
  119OSM   H11F12522   6.067   4.507   6.054  0.5347 -1.2211 -0.3964
  119OSM   H11G12523   6.244   4.452   6.065  1.0984  0.4070  0.3480
  119OSM   C12F12524   6.213   4.612   5.920 -0.7943 -0.2137  0.5310
  119OSM   H12F12525   6.143   4.694   5.893  0.4061  0.2441 -1.3744
  119OSM   H12G12526   6.195   4.528   5.849 -0.2315  0.1073  0.0090
  119OSM   C13F12527   6.359   4.665   5.913  0.5935 -0.8496  0.2402
  119OSM   H13F12528   6.437   4.602   5.961  0.8051 -1.7375 -1.2003
  119OSM   H13G12529   6.355   4.763   5.964 -2.0186 -0.3356 -0.7706
  119OSM   C14F12530   6.401   4.691   5.761  0.5079  0.5291 -0.9336
  119OSM   H14F12531   6.489   4.757   5.743  0.1416  0.9603 -1.1896
  119OSM   H14G12532   6.307   4.739   5.727 -1.3285 -2.6313 -0.6956
  119OSM   C15F12533   6.410   4.567   5.681 -0.0967  0.1702  0.3155
  119OSM   H15F12534   6.343   4.490   5.724  0.0725 -0.4145 -0.4504
  119OSM   H15G12535   6.513   4.526   5.691 -0.1433 -0.2754 -0.8724
  119OSM   C16F12536   6.385   4.572   5.526  0.2241  0.1536 -0.2891
  119OSM   H16F12537   6.284   4.608   5.499 -0.6263 -1.8849  0.0449
  119OSM   H16G12538   6.396   4.468   5.491 -1.3651  0.5977 -2.2928
  119OSM   C17F12539   6.489   4.649   5.447  0.5667 -0.4151  0.7792
  119OSM   H17F12540   6.594   4.614   5.453  1.0964  1.0985  0.7360
  119OSM   H17G12541   6.490   4.750   5.492  0.8174  0.0327 -0.2112
  119OSM   C18F12542   6.447   4.664   5.302 -0.6401 -0.6845 -0.1237
  119OSM   H18F12543   6.460   4.563   5.257 -0.1729 -1.0239  0.7434
  119OSM   H18G12544   6.509   4.742   5.253 -0.6809 -1.0680 -0.7978
  119OSM   H18H12545   6.340   4.689   5.288 -0.8329 -0.5161  1.4472
  120OSM      N12546   0.118   2.720   7.203 -0.5774 -0.9491 -0.7054
  120OSM    C1512547   0.041   2.826   7.275 -0.0437  0.1724 -0.2099
  120OSM   H15A12548  -0.037   2.779   7.334 -1.4691  0.6046 -1.6703
  120OSM   H15B12549  -0.011   2.890   7.206 -1.0243  0.1697  0.4935
  120OSM   H15C12550   0.099   2.889   7.341  2.6450 -1.5128 -0.7987
  120OSM    C1412551   0.198   2.642   7.301  0.0367 -0.2087 -0.0138
  120OSM   H14A12552   0.265   2.584   7.239 -1.4785 -1.0813 -0.9137
  120OSM   H14B12553   0.131   2.574   7.353 -2.3058  1.8516 -0.1631
  120OSM   H14C12554   0.260   2.691   7.374  1.5844 -1.2040 -0.6220
  120OSM    C1312555   0.016   2.632   7.135 -0.7304  0.1880  0.2232
  120OSM   H13A12556  -0.036   2.581   7.216  0.7545  2.8498  3.0398
  120OSM   H13B12557   0.066   2.559   7.073 -0.7442  1.2580 -1.0770
  120OSM   H13C12558  -0.057   2.685   7.076  0.6012  0.6824 -1.0327
  120OSM    C1212559   0.205   2.786   7.097  0.6492  0.2710 -0.0652
  120OSM   H12A12560   0.274   2.857   7.141  0.7993  1.9639 -2.7855
  120OSM   H12B12561   0.142   2.846   7.033  0.1812 -1.8038 -1.6684
  120OSM    C1112562   0.279   2.692   6.993  0.8612 -0.2489 -0.7792
  120OSM   H11A12563   0.335   2.748   6.915  1.9529  0.6883  0.6176
  120OSM   H11B12564   0.204   2.630   6.941  1.4335 -2.2141  0.6028
  120OSM      P12565   0.517   2.643   7.083 -0.1393  0.3180  0.3068
  120OSM    O1312566   0.521   2.773   7.155  0.0554  0.3533 -0.4124
  120OSM    O1412567   0.592   2.533   7.134  0.4985 -0.0917  0.2446
  120OSM    O1112568   0.570   2.661   6.933 -0.8065  0.0099  0.0654
  120OSM    O1212569   0.370   2.601   7.060  0.2203  0.1294  0.4151
  120OSM    C1S12570   0.575   2.550   6.839 -0.9835  0.7153 -0.4530
  120OSM    H1S12571   0.479   2.495   6.836 -1.5081  1.4456  1.3881
  120OSM    H1T12572   0.666   2.486   6.846 -0.2491  1.4874 -2.2955
  120OSM     NF12573   0.587   2.523   6.590  0.5974  0.7262 -0.3089
  120OSM    HNF12574   0.670   2.481   6.553  0.5765  0.7170 -0.3454
  120OSM    C2S12575   0.597   2.611   6.699 -0.7776 -0.3173  0.0670
  120OSM    H2S12576   0.517   2.687   6.687  0.0802  0.3229 -1.8976
  120OSM    C3S12577   0.738   2.683   6.697  0.3085 -0.4175 -0.5715
  120OSM    H3S12578   0.802   2.595   6.717 -1.4130 -1.4715  0.6489
  120OSM     O312579   0.773   2.763   6.809  0.0444 -0.0433  0.5340
  120OSM    HO312580   0.718   2.731   6.880 -0.7145  3.3140  1.6314
  120OSM    C4S12581   0.771   2.752   6.571  0.4405  0.3755  0.5682
  120OSM    H4S12582   0.793   2.687   6.485 -1.1616  1.4729 -0.7347
  120OSM    C5S12583   0.762   2.886   6.545 -0.4810  0.4641 -0.4384
  120OSM    H5S12584   0.728   2.957   6.623  3.2059  0.8875  0.9889
  120OSM    C6S12585   0.809   2.954   6.417 -0.2986 -0.3783 -0.9234
  120OSM    H6S12586   0.919   2.950   6.405 -0.0309 -1.1853  1.2656
  120OSM    H6T12587   0.785   3.062   6.427  1.3372  0.1318 -2.1897
  120OSM    C7S12588   0.750   2.889   6.292 -1.3814 -0.3149 -0.4919
  120OSM    H7S12589   0.640   2.872   6.296 -1.2733 -0.9368  0.0179
  120OSM    H7T12590   0.794   2.787   6.283  1.6471  1.0191 -2.3352
  120OSM    C8S12591   0.780   2.966   6.162 -0.3102  0.9756  0.7071
  120OSM    H8S12592   0.890   2.980   6.154 -0.1694  0.2476  1.1945
  120OSM    H8T12593   0.721   3.059   6.172 -3.7042 -0.4319 -3.1588
  120OSM    C9S12594   0.739   2.875   6.045 -0.0167 -0.1817 -0.6325
  120OSM    H9S12595   0.629   2.856   6.047 -0.1815  0.5407  2.7002
  120OSM    H9T12596   0.780   2.772   6.049  0.1854 -0.0554  1.5164
  120OSM   C10S12597   0.784   2.926   5.912 -0.0310  0.4214  0.1389
  120OSM   H10S12598   0.892   2.951   5.911  0.0435  0.1020 -1.0729
  120OSM   H10T12599   0.727   3.022   5.911 -0.0509  0.4332 -1.8349
  120OSM   C11S12600   0.736   2.854   5.787  0.3634 -0.0216  1.2323
  120OSM   H11S12601   0.626   2.837   5.795 -0.2948  3.4007  1.2938
  120OSM   H11T12602   0.790   2.759   5.771  2.3166  1.1829  0.2476
  120OSM   C12S12603   0.749   2.932   5.651 -0.5557  0.4980  0.6179
  120OSM   H12S12604   0.856   2.961   5.641 -0.0918 -1.8147 -2.8614
  120OSM   H12T12605   0.691   3.026   5.645 -1.4460 -0.1295 -2.1385
  120OSM   C13S12606   0.699   2.844   5.530  0.2089  0.0922  0.3319
  120OSM   H13S12607   0.746   2.744   5.522 -2.2521 -1.1818  0.7499
  120OSM   H13T12608   0.709   2.891   5.430 -0.1192  1.3627  0.8733
  120OSM   C14S12609   0.544   2.829   5.529 -0.1969  0.5615  0.6912
  120OSM   H14S12610   0.500   2.931   5.525  0.1348  0.6546 -1.4585
  120OSM   H14T12611   0.503   2.776   5.618 -1.3034 -1.3631 -0.8672
  120OSM   C15S12612   0.495   2.742   5.409  0.6269 -0.0498 -0.2071
  120OSM   H15S12613   0.542   2.643   5.422  1.7762  0.4912 -0.0960
  120OSM   H15T12614   0.535   2.788   5.316  1.5287  1.0129  0.6692
  120OSM   C16S12615   0.344   2.718   5.386  0.6749 -0.0891 -1.0585
  120OSM   H16S12616   0.284   2.808   5.362  1.3883  0.3074 -1.4098
  120OSM   H16T12617   0.296   2.679   5.478  1.4094 -0.0068 -0.6307
  120OSM   C17S12618   0.332   2.627   5.268 -1.0149  0.8037 -0.6326
  120OSM   H17S12619   0.399   2.540   5.284  2.6808  3.4216 -0.7397
  120OSM   H17T12620   0.377   2.673   5.177  0.6677  1.7418  0.6368
  120OSM   C18S12621   0.199   2.587   5.225  0.4905 -0.2868  1.0813
  120OSM   H18S12622   0.197   2.506   5.149  0.6041  0.7487 -0.0614
  120OSM   H18T12623   0.156   2.676   5.173  0.4578 -0.0851  1.4569
  120OSM   H18U12624   0.140   2.555   5.313  0.1896 -1.0233  0.6181
  120OSM    C1F12625   0.471   2.456   6.556 -0.5102  0.2767  0.2501
  120OSM     OF12626   0.363   2.469   6.622 -1.0740 -0.1942 -0.5620
  120OSM    C2F12627   0.468   2.351   6.440  0.1817 -0.1326 -0.1018
  120OSM    H2F12628   0.409   2.262   6.472 -0.0117  0.3747  1.0110
  120OSM    H2G12629   0.573   2.320   6.418 -0.5585 -1.0762 -2.6824
  120OSM    C3F12630   0.406   2.411   6.321 -0.4915 -0.4030  0.8298
  120OSM    H3F12631   0.307   2.455   6.346 -0.9793 -0.2119 -1.2472
  120OSM    H3G12632   0.386   2.339   6.238 -1.1683  1.1973 -0.4433
  120OSM    C4F12633   0.496   2.523   6.257 -0.1763  0.2115 -0.3354
  120OSM    H4F12634   0.534   2.590   6.337 -0.6201 -0.3398  0.3501
  120OSM    H4G12635   0.444   2.591   6.186 -1.3823 -0.3019  0.0387
  120OSM    C5F12636   0.634   2.475   6.206  0.2941  0.0692 -0.2027
  120OSM    H5F12637   0.688   2.411   6.279  0.7413 -0.0994 -0.6701
  120OSM    H5G12638   0.703   2.562   6.194  1.1311 -0.4965  0.4256
  120OSM    C6F12639   0.614   2.398   6.079  0.3602  0.3950 -0.7802
  120OSM    H6F12640   0.556   2.305   6.099  0.0274  0.5860 -0.8374
  120OSM    H6G12641   0.713   2.353   6.059 -0.8003 -1.7499 -2.1142
  120OSM    C7F12642   0.564   2.475   5.962 -0.1359 -0.2394  0.0292
  120OSM    H7F12643   0.614   2.573   5.952  2.5704 -1.3139  1.7763
  120OSM    H7G12644   0.456   2.495   5.975 -0.1453  0.5374 -1.1369
  120OSM    C8F12645   0.590   2.383   5.832  0.8496  0.2788  0.0872
  120OSM    H8F12646   0.539   2.286   5.852 -1.7987  1.2197 -1.4942
  120OSM    H8G12647   0.696   2.359   5.811  0.7482 -1.1056  1.0506
  120OSM    C9F12648   0.531   2.452   5.714  0.5772  0.0062  0.5934
  120OSM    H9F12649   0.585   2.546   5.698  1.8961 -0.4710  2.0272
  120OSM   C10F12650   0.415   2.431   5.642 -0.6173  0.0027  0.0438
  120OSM   H10F12651   0.390   2.499   5.560 -2.9933 -0.4033  0.3620
  120OSM   C11F12652   0.323   2.322   5.668  0.1154  1.0102 -0.6245
  120OSM   H11F12653   0.251   2.358   5.744  0.6263 -1.6920  1.2888
  120OSM   H11G12654   0.379   2.242   5.720  1.5862  2.2572 -0.2084
  120OSM   C12F12655   0.230   2.251   5.559  0.7331 -0.8489 -0.0105
  120OSM   H12F12656   0.169   2.340   5.534  3.2137  1.5043  1.6913
  120OSM   H12G12657   0.165   2.168   5.594  1.3480 -1.0042  0.8121
  120OSM   C13F12658   0.309   2.215   5.430  0.6367  0.1323  0.7344
  120OSM   H13F12659   0.373   2.125   5.444  0.8237  0.1664  0.1269
  120OSM   H13G12660   0.372   2.302   5.402 -1.2156  0.7565 -1.9403
  120OSM   C14F12661   0.221   2.177   5.306  0.4658  0.8210 -0.5484
  120OSM   H14F12662   0.156   2.260   5.270 -2.3247 -2.1588 -3.0213
  120OSM   H14G12663   0.153   2.095   5.339  0.0535  2.1939  2.3249
  120OSM   C15F12664   0.305   2.126   5.182  0.1616  0.3458 -0.0237
  120OSM   H15F12665   0.400   2.079   5.216 -0.2547 -0.4935 -0.0057
  120OSM   H15G12666   0.340   2.225   5.147 -0.1655  0.5194  0.1342
  120OSM   C16F12667   0.220   2.050   5.078  0.4448  0.1238  0.2785
  120OSM   H16F12668   0.224   2.106   4.982  0.0644 -1.1833 -0.5353
  120OSM   H16G12669   0.115   2.054   5.114  0.6504  2.4006  0.7393
  120OSM   C17F12670   0.269   1.905   5.042  0.2290  0.0044  0.4923
  120OSM   H17F12671   0.378   1.914   5.063  0.0499 -1.3732  2.1673
  120OSM   H17G12672   0.258   1.889   4.933 -2.1929 -1.5583  0.9016
  120OSM   C18F12673   0.207   1.798   5.129  1.0083  0.5103  0.0473
  120OSM   H18F12674   0.105   1.774   5.093  1.0554  1.3277 -0.6753
  120OSM   H18G12675   0.209   1.833   5.234  1.6160  0.1505  0.1631
  120OSM   H18H12676   0.272   1.707   5.126  2.0545  1.2045  0.9203
  121OSM      N12677   3.469   5.611   7.229 -0.3449  0.9953  0.0076
  121OSM    C1512678   3.476   5.459   7.235 -0.2583 -0.1261 -0.1533
  121OSM   H15A12679   3.555   5.428   7.303  0.7978 -1.0362 -1.7234
  121OSM   H15B12680   3.504   5.420   7.138  1.2682  0.8952 -0.1519
  121OSM   H15C12681   3.385   5.408   7.265  0.8153 -0.6435  2.5473
  121OSM    C1412682   3.550   5.670   7.115 -0.6982  0.3047 -0.5760
  121OSM   H14A12683   3.534   5.619   7.021  0.3512 -1.7536  0.2954
  121OSM   H14B12684   3.654   5.670   7.144 -0.5463  1.5306 -1.0642
  121OSM   H14C12685   3.525   5.774   7.098  1.8637  0.9482 -0.7771
  121OSM    C1312686   3.323   5.662   7.209 -0.0592 -0.5081  0.0821
  121OSM   H13A12687   3.295   5.627   7.110 -0.2722  1.4783 -0.5959
  121OSM   H13B12688   3.317   5.769   7.212 -1.0475 -0.5376 -0.4366
  121OSM   H13C12689   3.263   5.613   7.284 -0.9199  1.6193  0.8556
  121OSM    C1212690   3.518   5.661   7.369 -0.2295 -0.3343  0.5673
  121OSM   H12A12691   3.446   5.632   7.444 -0.4729  0.6524  0.7322
  121OSM   H12B12692   3.493   5.766   7.365 -0.0222 -0.2359  1.5865
  121OSM    C1112693   3.666   5.643   7.421  0.1353 -0.6214  0.2169
  121OSM   H11A12694   3.676   5.533   7.426 -1.1491 -0.7453  0.1653
  121OSM   H11B12695   3.680   5.686   7.522 -1.3447  2.1830 -0.6533
  121OSM      P12696   3.911   5.686   7.351 -0.1309  0.2793  0.0012
  121OSM    O1312697   3.949   5.793   7.447  0.2937  0.5464  0.3686
  121OSM    O1412698   3.943   5.546   7.390  0.0767 -0.1412  0.0532
  121OSM    O1112699   3.971   5.736   7.214 -0.2794 -0.1030 -0.6350
  121OSM    O1212700   3.757   5.702   7.325 -0.0004  0.0312 -0.2214
  121OSM    C1S12701   3.916   5.856   7.157 -0.4105  0.6069 -0.1362
  121OSM    H1S12702   3.952   5.942   7.217  0.8904 -0.9792  1.4514
  121OSM    H1T12703   3.805   5.858   7.153 -0.4273  2.4660  0.3055
  121OSM     NF12704   3.919   5.984   6.951 -0.0768 -0.0620  0.2386
  121OSM    HNF12705   3.841   5.994   6.889 -1.1857  3.2301  1.9142
  121OSM    C2S12706   3.953   5.853   7.004 -0.2870 -0.6021 -0.3162
  121OSM    H2S12707   4.062   5.837   6.994 -0.5310 -1.5415 -1.7271
  121OSM    C3S12708   3.892   5.730   6.938  0.4826 -0.3544  0.4903
  121OSM    H3S12709   3.787   5.713   6.968  0.5714 -1.7630  0.0821
  121OSM     O312710   3.954   5.607   6.967  0.5023 -0.3086 -0.1194
  121OSM    HO312711   4.005   5.626   7.046 -0.7629  1.4614  0.3341
  121OSM    C4S12712   3.885   5.747   6.788  0.1790  0.5927 -0.0139
  121OSM    H4S12713   3.982   5.742   6.735  1.2829  2.5950  1.6620
  121OSM    C5S12714   3.766   5.772   6.726  0.3596 -0.4346  0.5775
  121OSM    H5S12715   3.674   5.783   6.785  1.5070  0.1389  2.3674
  121OSM    C6S12716   3.735   5.800   6.578  0.6923 -0.0199 -0.7089
  121OSM    H6S12717   3.651   5.874   6.577 -0.4512 -1.2418  0.8000
  121OSM    H6T12718   3.689   5.709   6.535 -2.1243  0.0940  1.7508
  121OSM    C7S12719   3.852   5.859   6.494 -0.3232 -0.0725 -0.0337
  121OSM    H7S12720   3.942   5.793   6.501  0.9960  0.9552 -4.2238
  121OSM    H7T12721   3.884   5.959   6.530  0.2197 -0.1946 -0.1674
  121OSM    C8S12722   3.824   5.882   6.343 -0.3489 -0.4310  0.4399
  121OSM    H8S12723   3.724   5.929   6.336 -0.6187 -0.8324  1.4440
  121OSM    H8T12724   3.809   5.788   6.284  1.1604  0.7211 -1.9272
  121OSM    C9S12725   3.933   5.969   6.276  0.1925 -0.4488 -0.1922
  121OSM    H9S12726   4.009   5.892   6.253 -1.6437 -2.1269 -0.9914
  121OSM    H9T12727   3.968   6.048   6.346 -1.8665 -0.6835  1.1929
  121OSM   C10S12728   3.882   6.021   6.140  0.8665 -0.0030 -0.5140
  121OSM   H10S12729   3.975   6.064   6.098  1.0782  1.0016  0.9175
  121OSM   H10T12730   3.815   6.107   6.160  0.2931 -0.7798  1.0622
  121OSM   C11S12731   3.827   5.910   6.049  0.4691  1.0208  0.7534
  121OSM   H11S12732   3.731   5.868   6.087  1.3275 -0.9237  0.8826
  121OSM   H11T12733   3.902   5.829   6.058  0.1783  0.7712  0.9599
  121OSM   C12S12734   3.826   5.962   5.901  0.0230  0.1027 -0.0611
  121OSM   H12S12735   3.931   5.992   5.882 -0.1776  1.5472  0.9420
  121OSM   H12T12736   3.772   6.059   5.901 -1.1950 -0.5328  1.5530
  121OSM   C13S12737   3.779   5.871   5.787 -0.1149 -0.1880 -0.1389
  121OSM   H13S12738   3.669   5.854   5.797 -0.0815  0.2899  1.4880
  121OSM   H13T12739   3.835   5.776   5.798  2.0066  1.0929  0.7685
  121OSM   C14S12740   3.809   5.943   5.658 -0.4188 -0.3261  0.5858
  121OSM   H14S12741   3.911   5.987   5.648 -1.4427  2.1646  0.3192
  121OSM   H14T12742   3.729   6.020   5.652 -2.5161 -2.4346  0.0176
  121OSM   C15S12743   3.783   5.857   5.530 -0.0247  0.4773  0.6610
  121OSM   H15S12744   3.744   5.924   5.451  1.1240 -2.0583 -2.2868
  121OSM   H15T12745   3.707   5.780   5.553  0.9642 -0.6881  0.1436
  121OSM   C16S12746   3.912   5.789   5.473  0.7427  0.2848 -0.2310
  121OSM   H16S12747   3.939   5.703   5.539 -1.8745 -0.0167  0.5568
  121OSM   H16T12748   3.990   5.863   5.499  2.0713 -1.1921  0.1679
  121OSM   C17S12749   3.924   5.769   5.323  0.3185  0.1347 -0.5891
  121OSM   H17S12750   3.838   5.701   5.306  1.0721 -0.8185 -0.7330
  121OSM   H17T12751   4.018   5.710   5.314  0.7645  0.6187  0.7457
  121OSM   C18S12752   3.917   5.884   5.220  0.3228 -0.3450 -0.1529
  121OSM   H18S12753   3.892   5.847   5.119  1.6611 -0.8212 -0.3412
  121OSM   H18T12754   4.012   5.941   5.206  0.0567  0.0345 -0.4188
  121OSM   H18U12755   3.834   5.953   5.246 -1.1123 -1.7529 -0.8763
  121OSM    C1F12756   3.987   6.093   6.974 -0.0490 -0.4893  0.1689
  121OSM     OF12757   4.071   6.088   7.066  0.2500 -0.2813 -0.7117
  121OSM    C2F12758   3.946   6.223   6.907  0.8741  0.1274 -0.4945
  121OSM    H2F12759   4.024   6.297   6.881  0.3904  0.9835  0.4024
  121OSM    H2G12760   3.886   6.279   6.983  0.5057  3.5729 -3.0703
  121OSM    C3F12761   3.840   6.195   6.794 -0.1929  0.7508  1.1694
  121OSM    H3F12762   3.741   6.157   6.824  0.4866 -1.0398  1.2351
  121OSM    H3G12763   3.860   6.109   6.727  0.7181  0.5397  1.6985
  121OSM    C4F12764   3.816   6.322   6.704  0.2812 -0.4135 -0.3154
  121OSM    H4F12765   3.906   6.378   6.670  1.3908 -2.0820 -0.2161
  121OSM    H4G12766   3.746   6.388   6.760  0.6662 -0.2007 -0.0793
  121OSM    C5F12767   3.746   6.291   6.568 -0.3111 -0.4747 -0.0288
  121OSM    H5F12768   3.815   6.240   6.498  0.8975  1.0305  0.0105
  121OSM    H5G12769   3.722   6.384   6.512  0.1813 -1.4836 -2.0103
  121OSM    C6F12770   3.614   6.198   6.593  0.1143  0.0567  0.6460
  121OSM    H6F12771   3.556   6.247   6.675  0.4348 -1.1611  1.6394
  121OSM    H6G12772   3.634   6.096   6.633  0.5572 -1.4809 -3.1517
  121OSM    C7F12773   3.530   6.184   6.466 -0.6098 -0.3716 -0.6327
  121OSM    H7F12774   3.580   6.146   6.375 -0.3922  2.0910 -1.6233
  121OSM    H7G12775   3.505   6.289   6.438 -0.3708 -0.3155 -0.6332
  121OSM    C8F12776   3.398   6.110   6.474  0.3510  0.9806 -0.0782
  121OSM    H8F12777   3.329   6.135   6.390 -1.8757 -2.3502  0.5549
  121OSM    H8G12778   3.356   6.141   6.572  0.1031 -0.4211  0.2810
  121OSM    C9F12779   3.420   5.962   6.474  0.5653 -0.2413  0.4834
  121OSM    H9F12780   3.435   5.924   6.576  4.0280  1.6667  0.8489
  121OSM   C10F12781   3.436   5.883   6.366  0.3473 -0.3750  0.9882
  121OSM   H10F12782   3.444   5.774   6.379 -0.5820 -1.0219 -2.7388
  121OSM   C11F12783   3.439   5.936   6.225  0.5326  0.5301  0.2057
  121OSM   H11F12784   3.545   5.953   6.199  1.2458  0.3097  2.6572
  121OSM   H11G12785   3.382   6.031   6.224 -1.1176 -0.4166 -1.0130
  121OSM   C12F12786   3.377   5.825   6.134 -0.4156 -0.1268 -0.0690
  121OSM   H12F12787   3.267   5.815   6.148 -0.1920  1.0002  3.6340
  121OSM   H12G12788   3.423   5.727   6.161  0.3684 -0.2860 -1.8564
  121OSM   C13F12789   3.404   5.863   5.990  0.0824  0.1605  0.2958
  121OSM   H13F12790   3.514   5.857   5.971  0.0615 -0.5147  0.3625
  121OSM   H13G12791   3.366   5.965   5.970  0.4258  0.1700 -0.3223
  121OSM   C14F12792   3.348   5.758   5.891 -0.2180 -0.6395 -0.7983
  121OSM   H14F12793   3.243   5.747   5.925 -1.0364  2.1728 -2.0568
  121OSM   H14G12794   3.406   5.665   5.904  3.4848  1.2835 -2.1325
  121OSM   C15F12795   3.346   5.816   5.748 -0.2401  0.0121 -0.4605
  121OSM   H15F12796   3.419   5.898   5.735 -0.5876  0.1693 -1.5053
  121OSM   H15G12797   3.244   5.855   5.730 -0.0365  0.7446 -0.0341
  121OSM   C16F12798   3.361   5.707   5.633 -0.2250  0.0916  0.3928
  121OSM   H16F12799   3.312   5.614   5.666  1.9276 -0.7230  1.5270
  121OSM   H16G12800   3.466   5.671   5.620 -0.6610 -1.2642  0.5263
  121OSM   C17F12801   3.314   5.754   5.489  0.2395 -0.7040 -0.6211
  121OSM   H17F12802   3.359   5.852   5.464  0.3319 -0.7391 -0.5920
  121OSM   H17G12803   3.204   5.765   5.476  0.1322 -0.6826  0.2563
  121OSM   C18F12804   3.364   5.669   5.374  0.0636  0.4671  0.0566
  121OSM   H18F12805   3.303   5.577   5.364 -0.7842  0.9692  0.4987
  121OSM   H18G12806   3.468   5.641   5.401 -0.2541  0.7650  1.6845
  121OSM   H18H12807   3.357   5.714   5.272 -0.2313 -0.3279 -0.2790
  122OSM      N12808   1.896   2.955   7.529 -0.2646 -0.0077  0.2612
  122OSM    C1512809   1.790   3.052   7.579 -0.2208  0.3966  0.5294
  122OSM   H15A12810   1.803   3.063   7.685  2.1501 -3.3847  0.8055
  122OSM   H15B12811   1.695   3.010   7.547 -0.5645  1.6481 -0.1540
  122OSM   H15C12812   1.806   3.145   7.526 -0.6946  0.1073 -0.1345
  122OSM    C1412813   1.888   2.927   7.387  0.5187  0.8752  0.1724
  122OSM   H14A12814   1.951   2.845   7.356  0.9053  0.4884  1.8365
  122OSM   H14B12815   1.897   3.019   7.331  0.6872  1.1750  0.6844
  122OSM   H14C12816   1.787   2.894   7.369  0.6928 -1.3083  2.5817
  122OSM    C1312817   2.032   3.016   7.558  0.9150  0.5759  1.0439
  122OSM   H13A12818   2.111   2.964   7.506  0.4485  0.5661  0.3328
  122OSM   H13B12819   2.056   3.027   7.663 -0.3569  1.6576  1.2604
  122OSM   H13C12820   2.028   3.115   7.514 -0.2474  0.2312  0.3315
  122OSM    C1212821   1.874   2.825   7.605 -0.3823  0.1938 -0.3972
  122OSM   H12A12822   1.898   2.834   7.710 -1.3774  0.6542 -0.1978
  122OSM   H12B12823   1.944   2.750   7.571 -0.2019 -0.5204  1.4342
  122OSM    C1112824   1.731   2.771   7.596  0.3976  0.3884  0.5834
  122OSM   H11A12825   1.673   2.824   7.674 -0.9022 -1.0391  0.6319
  122OSM   H11B12826   1.739   2.665   7.628  0.9772  0.1646 -0.2423
  122OSM      P12827   1.517   2.774   7.453 -0.7558  0.3342  0.0847
  122OSM    O1312828   1.463   2.639   7.477 -0.1011  0.4689  0.7802
  122OSM    O1412829   1.471   2.889   7.531 -0.2389 -0.6291 -0.2023
  122OSM    O1112830   1.495   2.799   7.303  0.0057 -0.4482  0.6491
  122OSM    O1212831   1.680   2.766   7.460  0.3062  0.3755 -1.2696
  122OSM    C1S12832   1.582   2.742   7.208  0.0612 -0.3921 -0.4487
  122OSM    H1S12833   1.597   2.632   7.215  2.7346 -0.1250 -1.1493
  122OSM    H1T12834   1.676   2.801   7.216  0.2607 -0.8938  1.6019
  122OSM     NF12835   1.588   2.685   6.961 -0.2612 -0.5217  0.4497
  122OSM    HNF12836   1.632   2.731   6.885  0.7495 -1.2193  0.5953
  122OSM    C2S12837   1.524   2.769   7.066  0.6994 -0.3753 -0.1126
  122OSM    H2S12838   1.418   2.737   7.069  0.5530  0.1687  1.5283
  122OSM    C3S12839   1.513   2.927   7.039  0.1709  0.4185 -0.2222
  122OSM    H3S12840   1.616   2.960   7.062 -0.4056  0.6904  2.2691
  122OSM     O312841   1.437   2.993   7.145  0.5728  0.1098  1.0200
  122OSM    HO312842   1.439   2.926   7.213 -0.3742  0.9378  1.8815
  122OSM    C4S12843   1.457   2.959   6.903 -0.3634  0.5012 -0.0382
  122OSM    H4S12844   1.539   2.959   6.829 -0.0909 -2.2508  0.1511
  122OSM    C5S12845   1.328   2.971   6.871 -0.6326  0.0198  0.4787
  122OSM    H5S12846   1.260   2.952   6.955  0.1905  0.4246  1.2430
  122OSM    C6S12847   1.272   2.997   6.736  0.3532  0.2703 -0.1858
  122OSM    H6S12848   1.227   3.095   6.710 -1.8704  0.1012  2.5534
  122OSM    H6T12849   1.176   2.940   6.738  1.5916 -1.9244  1.3361
  122OSM    C7S12850   1.347   2.940   6.608  0.1945  0.2519  0.1519
  122OSM    H7S12851   1.375   2.835   6.635  1.6295  0.8642  1.1533
  122OSM    H7T12852   1.433   3.007   6.585  0.3652 -0.5108 -1.5822
  122OSM    C8S12853   1.251   2.940   6.489 -0.4501 -0.1669  0.3894
  122OSM    H8S12854   1.187   3.030   6.502 -0.2316  0.1874 -0.8791
  122OSM    H8T12855   1.185   2.851   6.486 -2.2246  1.1172 -0.8334
  122OSM    C9S12856   1.315   2.959   6.348  0.0326  0.1005 -0.8870
  122OSM    H9S12857   1.338   2.855   6.317 -0.7892  0.0031 -1.1909
  122OSM    H9T12858   1.409   3.015   6.370  0.3081 -0.8551  0.5802
  122OSM   C10S12859   1.220   3.026   6.244  0.9886  0.0575 -0.1527
  122OSM   H10S12860   1.161   3.107   6.292  3.7589  0.6500  2.6021
  122OSM   H10T12861   1.141   2.953   6.216  0.2145  1.0568 -0.6272
  122OSM   C11S12862   1.292   3.086   6.128 -0.1872 -0.3663  0.3971
  122OSM   H11S12863   1.386   3.138   6.156 -0.2537  0.7564 -1.3316
  122OSM   H11T12864   1.227   3.158   6.075 -0.6083 -0.7492  0.3838
  122OSM   C12S12865   1.308   2.976   6.020 -0.6492 -0.6770  0.5153
  122OSM   H12S12866   1.209   2.946   5.980  0.4197 -0.9800 -2.1458
  122OSM   H12T12867   1.356   2.889   6.068  0.3569 -0.2438  0.3192
  122OSM   C13S12868   1.380   3.037   5.898  0.4899  0.1294  0.9647
  122OSM   H13S12869   1.488   3.047   5.925  1.1169 -1.8876 -0.4552
  122OSM   H13T12870   1.337   3.134   5.866 -1.7632 -0.5441  1.8179
  122OSM   C14S12871   1.381   2.933   5.780  0.3384  0.1455  0.2460
  122OSM   H14S12872   1.277   2.918   5.744  0.7314 -1.4188 -0.3093
  122OSM   H14T12873   1.416   2.832   5.810 -0.9013 -0.9134 -1.6817
  122OSM   C15S12874   1.457   2.974   5.651 -0.6784  0.3222  0.2157
  122OSM   H15S12875   1.561   2.975   5.689 -0.7143  0.1050  0.3231
  122OSM   H15T12876   1.443   3.078   5.615  0.3091 -0.0091 -1.2102
  122OSM   C16S12877   1.435   2.888   5.533  1.5019  0.6222 -0.3365
  122OSM   H16S12878   1.328   2.858   5.524  1.4050  0.4592  1.1279
  122OSM   H16T12879   1.499   2.801   5.561  0.8170  0.8820  2.3609
  122OSM   C17S12880   1.478   2.946   5.398  0.3271  0.4192  0.3679
  122OSM   H17S12881   1.586   2.966   5.411  0.5046 -0.0312 -0.3601
  122OSM   H17T12882   1.420   3.037   5.374 -0.6082 -0.0249  0.8904
  122OSM   C18S12883   1.467   2.843   5.287  0.4066 -0.3729 -0.5435
  122OSM   H18S12884   1.517   2.879   5.194  1.4111  0.3009  0.2404
  122OSM   H18T12885   1.361   2.826   5.258  0.1477 -0.3596  0.3662
  122OSM   H18U12886   1.510   2.749   5.327 -1.8028 -0.4446  2.0044
  122OSM    C1F12887   1.574   2.558   6.951 -0.0190  0.4086  0.2849
  122OSM     OF12888   1.530   2.494   7.041  0.3874  0.4116  0.3188
  122OSM    C2F12889   1.599   2.504   6.812  0.8456 -0.3848 -0.5117
  122OSM    H2F12890   1.692   2.555   6.778  2.3326  0.7835  4.5191
  122OSM    H2G12891   1.516   2.526   6.742 -0.1005 -0.1033  0.6651
  122OSM    C3F12892   1.622   2.349   6.822 -0.5895  0.1680  0.1825
  122OSM    H3F12893   1.533   2.298   6.865  0.2697 -0.4175  1.3410
  122OSM    H3G12894   1.709   2.330   6.889  1.2325  1.1962 -1.7884
  122OSM    C4F12895   1.663   2.288   6.684 -0.3719 -0.2007  0.1595
  122OSM    H4F12896   1.697   2.183   6.698 -1.0269 -0.4161  0.1767
  122OSM    H4G12897   1.749   2.349   6.649 -0.7330  1.2926  1.7074
  122OSM    C5F12898   1.542   2.275   6.595  0.1341 -0.3218  0.2346
  122OSM    H5F12899   1.496   2.376   6.598  0.2309 -0.2026 -1.4635
  122OSM    H5G12900   1.457   2.210   6.626 -2.0365  2.0775 -0.3083
  122OSM    C6F12901   1.588   2.239   6.449  0.0242 -0.3296  0.6538
  122OSM    H6F12902   1.636   2.139   6.457 -1.0754 -1.0026 -0.8237
  122OSM    H6G12903   1.666   2.314   6.421  0.0114 -0.9442 -1.1685
  122OSM    C7F12904   1.474   2.243   6.346  0.3942 -0.1800  0.5066
  122OSM    H7F12905   1.429   2.344   6.335 -1.0897 -0.6080  2.1549
  122OSM    H7G12906   1.387   2.186   6.384  0.1643 -0.3594 -0.2599
  122OSM    C8F12907   1.508   2.192   6.202  0.7710  0.9073 -0.5632
  122OSM    H8F12908   1.582   2.110   6.215 -1.6924 -1.4272 -0.5818
  122OSM    H8G12909   1.560   2.275   6.148  0.2571  1.6032 -0.0091
  122OSM    C9F12910   1.388   2.136   6.128  0.6850  0.3738 -0.1433
  122OSM    H9F12911   1.330   2.066   6.190 -0.2602  0.7718 -0.5419
  122OSM   C10F12912   1.356   2.170   6.002 -0.1971 -0.2329  0.2239
  122OSM   H10F12913   1.264   2.127   5.960  0.4725 -1.2665 -0.2043
  122OSM   C11F12914   1.435   2.252   5.907 -0.0575 -0.3200 -0.1107
  122OSM   H11F12915   1.544   2.253   5.931  0.2192 -0.0370 -1.3287
  122OSM   H11G12916   1.402   2.358   5.909  0.4782 -0.1574  1.1024
  122OSM   C12F12917   1.424   2.196   5.764  0.5413 -0.9349 -0.6943
  122OSM   H12F12918   1.320   2.198   5.725  0.3171 -0.6611 -0.0919
  122OSM   H12G12919   1.451   2.088   5.758 -0.5129 -1.1628 -1.6472
  122OSM   C13F12920   1.519   2.267   5.654 -0.2615 -0.9350 -0.2626
  122OSM   H13F12921   1.584   2.183   5.620  1.5160 -0.0563  0.8318
  122OSM   H13G12922   1.590   2.336   5.705  1.2661 -1.2974 -1.7822
  122OSM   C14F12923   1.447   2.357   5.556 -0.1785  0.1561 -0.4225
  122OSM   H14F12924   1.398   2.441   5.610  0.2377  0.0889  0.0696
  122OSM   H14G12925   1.374   2.291   5.505  1.4571 -0.1591 -2.5137
  122OSM   C15F12926   1.526   2.432   5.447 -0.1730 -0.0352  0.0383
  122OSM   H15F12927   1.609   2.490   5.494 -0.7995  2.9994 -2.2941
  122OSM   H15G12928   1.461   2.508   5.398 -0.5331  0.2509  0.9486
  122OSM   C16F12929   1.582   2.331   5.341 -0.0699 -0.1776  0.2325
  122OSM   H16F12930   1.600   2.230   5.383 -0.0839 -0.4776 -0.4651
  122OSM   H16G12931   1.679   2.366   5.300  0.7166 -1.5347  0.8721
  122OSM   C17F12932   1.489   2.304   5.219  0.2482 -0.5267  0.1656
  122OSM   H17F12933   1.471   2.394   5.156 -2.1610 -2.2864 -1.8835
  122OSM   H17G12934   1.391   2.263   5.251  1.1700 -1.8170  1.4375
  122OSM   C18F12935   1.558   2.203   5.121  0.8234  0.1991  0.0058
  122OSM   H18F12936   1.502   2.198   5.025  1.1580 -3.4163 -0.1533
  122OSM   H18G12937   1.547   2.101   5.163 -1.8801 -0.0662 -1.1344
  122OSM   H18H12938   1.665   2.224   5.101  1.0844 -2.2393 -1.7097
  123OSM      N12939   2.452   0.719   2.636 -0.4765  0.2014  0.1610
  123OSM    C1512940   2.551   0.776   2.534  0.0287  0.3338 -0.1457
  123OSM   H15A12941   2.649   0.777   2.580  0.4783  1.6187 -1.0782
  123OSM   H15B12942   2.523   0.877   2.509 -1.6720  0.2646  1.2671
  123OSM   H15C12943   2.550   0.720   2.442  1.7417  1.8528 -1.1498
  123OSM    C1412944   2.516   0.607   2.714 -1.0310 -0.2934 -0.7595
  123OSM   H14A12945   2.516   0.523   2.646 -2.8437  0.6384 -2.0046
  123OSM   H14B12946   2.454   0.573   2.795 -0.8857 -0.8343 -0.8712
  123OSM   H14C12947   2.620   0.626   2.733 -1.1301 -1.8651  1.6332
  123OSM    C1312948   2.433   0.834   2.736  0.2349  0.2097  0.7911
  123OSM   H13A12949   2.370   0.805   2.818  1.0135  1.1157  1.7355
  123OSM   H13B12950   2.403   0.927   2.689  2.3142  1.0141  0.9028
  123OSM   H13C12951   2.524   0.860   2.789  0.3548  1.4726  0.0172
  123OSM    C1212952   2.316   0.675   2.579  0.3339 -0.6546 -0.2228
  123OSM   H12A12953   2.328   0.604   2.498 -2.4811 -0.9942 -0.4584
  123OSM   H12B12954   2.270   0.761   2.531  0.2212 -0.2652  0.5757
  123OSM    C1112955   2.219   0.603   2.679 -0.0087 -0.4986  0.4143
  123OSM   H11A12956   2.261   0.504   2.704 -2.8542 -1.3339  2.3264
  123OSM   H11B12957   2.123   0.572   2.631 -0.0472 -0.9759  0.7987
  123OSM      P12958   2.087   0.790   2.797  0.5025 -0.5295 -0.3264
  123OSM    O1312959   2.139   0.916   2.859 -0.5610 -0.4228 -0.3404
  123OSM    O1412960   2.027   0.803   2.663 -0.2495 -1.0046  0.5904
  123OSM    O1112961   1.968   0.735   2.901 -0.2894 -0.7250 -0.4288
  123OSM    O1212962   2.191   0.669   2.801 -0.6797 -0.1843 -1.0400
  123OSM    C1S12963   1.999   0.677   3.026  0.8913 -0.5075  0.4365
  123OSM    H1S12964   2.092   0.617   3.025  1.2259 -0.0016  0.7937
  123OSM    H1T12965   1.918   0.607   3.056 -1.3707  1.2537 -1.2390
  123OSM     NF12966   2.029   0.710   3.266  0.0589  0.4582  0.1596
  123OSM    HNF12967   1.963   0.696   3.339  0.7731  0.0592  0.7387
  123OSM    C2S12968   1.993   0.779   3.143  0.0233 -0.8187  0.0672
  123OSM    H2S12969   2.071   0.858   3.132  0.0232 -0.5789  1.5482
  123OSM    C3S12970   1.850   0.843   3.149  0.3198 -0.2281 -0.8087
  123OSM    H3S12971   1.775   0.762   3.161  0.1921  0.0425  0.3015
  123OSM     O312972   1.799   0.901   3.024  0.4905 -0.6985 -0.0861
  123OSM    HO312973   1.867   0.874   2.961  0.7341  1.9521 -1.1189
  123OSM    C4S12974   1.831   0.944   3.266 -0.8105 -0.3655 -0.4284
  123OSM    H4S12975   1.816   0.912   3.370 -0.0140  3.4855  1.0312
  123OSM    C5S12976   1.844   1.075   3.256 -0.8610 -0.1235  0.1633
  123OSM    H5S12977   1.869   1.123   3.159 -2.1953 -0.1934 -0.2336
  123OSM    C6S12978   1.832   1.166   3.378  0.1019 -0.1611 -0.0045
  123OSM    H6S12979   1.930   1.197   3.420  0.4545  1.3598 -1.8591
  123OSM    H6T12980   1.784   1.112   3.463  1.9120 -0.1594  1.0637
  123OSM    C7S12981   1.767   1.302   3.346  0.9313  0.8076  1.2206
  123OSM    H7S12982   1.659   1.291   3.320  0.7540 -0.2475  2.3085
  123OSM    H7T12983   1.821   1.341   3.257  1.7407 -1.1788  0.7923
  123OSM    C8S12984   1.791   1.403   3.452  0.2906  0.3279  0.0002
  123OSM    H8S12985   1.736   1.498   3.433  0.4638  0.2411 -0.9932
  123OSM    H8T12986   1.898   1.431   3.450  0.3419  0.3663  1.9171
  123OSM    C9S12987   1.756   1.346   3.591 -0.2063 -0.2368  0.2646
  123OSM    H9S12988   1.836   1.271   3.608  0.8598  0.2496 -2.1607
  123OSM    H9T12989   1.661   1.287   3.584  0.8208 -1.7988 -1.3104
  123OSM   C10S12990   1.758   1.453   3.695 -0.8360  0.6237 -0.2133
  123OSM   H10S12991   1.656   1.497   3.705 -1.0008  0.2534 -0.2467
  123OSM   H10T12992   1.822   1.538   3.663 -1.5654  0.5054 -2.1588
  123OSM   C11S12993   1.806   1.404   3.837  0.0643 -0.1301 -0.1119
  123OSM   H11S12994   1.917   1.393   3.832 -0.2096 -3.0261 -1.4475
  123OSM   H11T12995   1.753   1.312   3.869 -0.9731  0.7488  0.7964
  123OSM   C12S12996   1.791   1.521   3.941 -0.0723  0.8176  0.1008
  123OSM   H12S12997   1.688   1.559   3.957  0.0675  0.8930  0.8919
  123OSM   H12T12998   1.855   1.601   3.899 -0.1383  0.0491 -1.5498
  123OSM   C13S12999   1.845   1.464   4.075  0.7522 -0.1364 -0.5049
  123OSM   H13S13000   1.947   1.422   4.064  0.5677 -0.2905 -1.8237
  123OSM   H13T13001   1.777   1.384   4.111 -1.8267  0.9709 -2.5660
  123OSM   C14S13002   1.855   1.578   4.176 -0.1226 -0.1988  0.0737
  123OSM   H14S13003   1.767   1.643   4.156  0.4664  0.5097 -0.2498
  123OSM   H14T13004   1.945   1.639   4.153 -1.1759  1.5971  0.5169
  123OSM   C15S13005   1.867   1.542   4.325  0.0864  0.0656 -0.4908
  123OSM   H15S13006   1.789   1.467   4.350 -0.9012  0.3083 -2.6857
  123OSM   H15T13007   1.840   1.627   4.392  0.9653  0.4325 -0.5856
  123OSM   C16S13008   2.004   1.494   4.353  0.5541  0.6117 -0.2154
  123OSM   H16S13009   2.087   1.557   4.314  0.7466  0.6970  0.3228
  123OSM   H16T13010   2.015   1.395   4.305  3.1106 -0.3616  2.0926
  123OSM   C17S13011   2.039   1.464   4.500  0.4369 -0.3611 -0.0578
  123OSM   H17S13012   2.136   1.410   4.510  1.5317  1.6112  0.3826
  123OSM   H17T13013   1.965   1.391   4.541  0.2372 -0.2577 -0.2346
  123OSM   C18S13014   2.038   1.583   4.600 -0.4834  0.1837  0.1478
  123OSM   H18S13015   2.108   1.660   4.560 -1.7661  1.9731  1.2132
  123OSM   H18T13016   2.057   1.545   4.703  3.8523 -0.9274 -0.8329
  123OSM   H18U13017   1.944   1.641   4.586 -0.2915  0.6070  0.6185
  123OSM    C1F13018   2.155   0.677   3.289  0.4526  0.8923  0.4568
  123OSM     OF13019   2.255   0.699   3.220 -0.2818 -0.2491 -0.3433
  123OSM    C2F13020   2.171   0.594   3.418 -0.5381  1.0481 -0.4243
  123OSM    H2F13021   2.170   0.488   3.386  2.1893  0.1161  2.0891
  123OSM    H2G13022   2.083   0.622   3.479 -0.1489  1.1719  0.0950
  123OSM    C3F13023   2.298   0.602   3.500 -0.2537 -0.1790  0.1110
  123OSM    H3F13024   2.325   0.710   3.506  1.7557 -0.5480 -1.0709
  123OSM    H3G13025   2.386   0.560   3.446  0.6784  1.5079  0.2522
  123OSM    C4F13026   2.279   0.552   3.638  0.5654 -0.3185 -1.3173
  123OSM    H4F13027   2.261   0.442   3.627 -0.7832 -0.2157 -0.3904
  123OSM    H4G13028   2.192   0.598   3.689  0.8600 -0.8312 -0.3029
  123OSM    C5F13029   2.408   0.583   3.719 -0.0612  0.2224  0.3943
  123OSM    H5F13030   2.398   0.693   3.731 -0.6793  0.1360  0.7530
  123OSM    H5G13031   2.499   0.543   3.670 -1.0772 -2.1090  0.2501
  123OSM    C6F13032   2.385   0.536   3.860 -0.5843 -0.3856 -0.3833
  123OSM    H6F13033   2.478   0.493   3.902  1.3638  3.2748 -0.5410
  123OSM    H6G13034   2.323   0.445   3.870 -1.3053  0.0842 -0.5013
  123OSM    C7F13035   2.331   0.643   3.957 -0.8466  0.6319  0.3261
  123OSM    H7F13036   2.238   0.691   3.918 -2.8002 -1.1286  2.5240
  123OSM    H7G13037   2.406   0.724   3.962  1.9602 -1.7766 -0.1812
  123OSM    C8F13038   2.310   0.586   4.105  0.2954  0.5475  0.3327
  123OSM    H8F13039   2.252   0.492   4.102  2.3671 -0.8511  1.2944
  123OSM    H8G13040   2.242   0.657   4.156 -1.8577 -1.1053 -0.1217
  123OSM    C9F13041   2.436   0.561   4.183 -0.4722 -0.4075  0.1641
  123OSM    H9F13042   2.512   0.502   4.128 -0.9746 -0.0652 -0.9235
  123OSM   C10F13043   2.465   0.587   4.310 -0.3808 -0.5595 -0.1047
  123OSM   H10F13044   2.561   0.547   4.348 -0.3560 -0.8670 -0.4846
  123OSM   C11F13045   2.372   0.657   4.404 -0.0265  0.2450 -0.3213
  123OSM   H11F13046   2.358   0.580   4.483  2.2601 -0.7739 -0.8192
  123OSM   H11G13047   2.270   0.662   4.360 -0.0251 -1.6083 -0.6286
  123OSM   C12F13048   2.394   0.796   4.452  0.1973 -0.4362 -0.2447
  123OSM   H12F13049   2.307   0.833   4.509  1.2542  1.3279  0.2988
  123OSM   H12G13050   2.399   0.860   4.362  0.6228 -1.0729 -0.6858
  123OSM   C13F13051   2.504   0.796   4.557  0.0191  1.0766 -0.8450
  123OSM   H13F13052   2.514   0.900   4.594 -3.5053  0.4416  2.5658
  123OSM   H13G13053   2.602   0.767   4.514  1.4023  0.6107  2.3248
  123OSM   C14F13054   2.478   0.711   4.680 -0.2480 -0.2348  0.8492
  123OSM   H14F13055   2.522   0.610   4.663 -0.8226 -0.2773 -0.4919
  123OSM   H14G13056   2.370   0.702   4.704 -0.5918  2.3570  0.5615
  123OSM   C15F13057   2.549   0.761   4.810  0.6700  0.3175 -0.9206
  123OSM   H15F13058   2.658   0.776   4.796  0.7402  0.6985 -0.0628
  123OSM   H15G13059   2.547   0.675   4.881  0.9823 -0.9100 -2.3655
  123OSM   C16F13060   2.485   0.881   4.881 -0.0774 -0.4575  0.0217
  123OSM   H16F13061   2.390   0.855   4.934  0.3585 -0.3672  0.8568
  123OSM   H16G13062   2.479   0.958   4.801  3.2256  1.4914  1.4475
  123OSM   C17F13063   2.585   0.949   4.980 -0.0277  0.1032  0.0154
  123OSM   H17F13064   2.671   0.976   4.915 -0.6606  0.1429 -0.8228
  123OSM   H17G13065   2.620   0.868   5.048  0.2752 -1.0729 -1.4696
  123OSM   C18F13066   2.522   1.069   5.062 -0.2023 -0.2075  0.2418
  123OSM   H18F13067   2.597   1.112   5.132 -0.4961  0.1955  0.3121
  123OSM   H18G13068   2.441   1.025   5.124  0.4021  0.2798  1.4143
  123OSM   H18H13069   2.497   1.152   4.992  0.5007  1.4830  1.9013
  124OSM      N13070   1.855   3.169   2.645  0.6920  0.1993 -0.8602
  124OSM    C1513071   1.713   3.177   2.619 -0.1271  0.4077  0.5624
  124OSM   H15A13072   1.701   3.230   2.526  1.9628  0.4955  0.2942
  124OSM   H15B13073   1.653   3.233   2.689  0.2019  1.4944 -0.0123
  124OSM   H15C13074   1.682   3.075   2.600  1.2859  0.0876 -0.1118
  124OSM    C1413075   1.917   3.077   2.548 -0.6493 -0.0548  0.0796
  124OSM   H14A13076   1.874   2.978   2.550 -0.7227 -0.0348 -0.4613
  124OSM   H14B13077   2.020   3.067   2.578 -0.4657  2.9701  0.8472
  124OSM   H14C13078   1.926   3.126   2.453  0.8521 -0.1928  0.1361
  124OSM    C1313079   1.929   3.299   2.638  0.3063  0.0057 -0.1030
  124OSM   H13A13080   1.883   3.371   2.570 -2.2152 -0.1765  1.2800
  124OSM   H13B13081   2.032   3.275   2.618 -0.1551 -2.9513  0.6351
  124OSM   H13C13082   1.932   3.348   2.734 -0.9334 -2.4267  1.2434
  124OSM    C1213083   1.887   3.116   2.784 -0.1550 -0.6182  0.2101
  124OSM   H12A13084   1.987   3.149   2.810 -1.3365  3.3688  0.2736
  124OSM   H12B13085   1.880   3.008   2.779  0.5621 -0.7347  1.3882
  124OSM    C1113086   1.791   3.146   2.899 -0.2208 -0.0119 -0.0907
  124OSM   H11A13087   1.760   3.252   2.903  0.0237  0.0272  1.7153
  124OSM   H11B13088   1.843   3.137   2.997 -2.1851  1.3582  1.1522
  124OSM      P13089   1.687   2.911   2.925 -0.3485 -0.1138 -0.1182
  124OSM    O1313090   1.549   2.865   2.954 -0.4654  0.0151  0.2094
  124OSM    O1413091   1.761   2.846   2.808  0.1283 -0.2078  0.2887
  124OSM    O1113092   1.788   2.889   3.053  0.6841 -0.6080 -0.1472
  124OSM    O1213093   1.677   3.061   2.887  0.0454 -0.3486 -0.3438
  124OSM    C1S13094   1.730   2.926   3.178 -0.0412 -0.0800 -0.0265
  124OSM    H1S13095   1.633   2.875   3.198  0.1171 -0.5761 -0.5116
  124OSM    H1T13096   1.724   3.037   3.189 -0.9471 -0.1345  0.1306
  124OSM     NF13097   1.744   2.855   3.420  0.3337  0.7417 -0.0533
  124OSM    HNF13098   1.735   2.938   3.475 -0.5724  0.2489  0.5558
  124OSM    C2S13099   1.819   2.864   3.298  0.4199 -0.0535 -0.7127
  124OSM    H2S13100   1.861   2.767   3.265  1.7207  0.5237 -0.8354
  124OSM    C3S13101   1.933   2.962   3.305 -0.2851  0.2589  0.2969
  124OSM    H3S13102   1.882   3.057   3.332 -0.8633  0.4488 -1.3670
  124OSM     O313103   2.006   2.996   3.184 -0.1302 -0.8360  0.7619
  124OSM    HO313104   1.966   2.942   3.116  1.7474  1.1440 -2.1046
  124OSM    C4S13105   2.026   2.924   3.417  0.3304 -0.7258 -0.1046
  124OSM    H4S13106   1.997   2.960   3.517 -1.2522 -0.9896 -0.4439
  124OSM    C5S13107   2.151   2.872   3.423  0.3424 -0.2347  0.6803
  124OSM    H5S13108   2.191   2.844   3.324 -3.1908  0.6542 -1.1564
  124OSM    C6S13109   2.249   2.870   3.540 -0.7234  0.5292  0.4190
  124OSM    H6S13110   2.302   2.966   3.554 -1.9566  1.3207 -0.1852
  124OSM    H6T13111   2.339   2.813   3.512  0.2203  2.0834  0.1920
  124OSM    C7S13112   2.186   2.810   3.672  0.1324  0.2053  0.1416
  124OSM    H7S13113   2.148   2.708   3.648  2.0351 -0.2499 -1.2810
  124OSM    H7T13114   2.100   2.873   3.703 -0.8866 -0.1912 -1.7404
  124OSM    C8S13115   2.281   2.800   3.787 -0.1814  0.2775 -0.2645
  124OSM    H8S13116   2.316   2.904   3.807 -2.8546  1.2139 -0.0199
  124OSM    H8T13117   2.364   2.733   3.756  0.0632  0.3685  0.1869
  124OSM    C9S13118   2.222   2.740   3.923 -0.7914 -0.5379 -0.6174
  124OSM    H9S13119   2.208   2.631   3.911  1.2214 -1.0546  1.1593
  124OSM    H9T13120   2.126   2.794   3.933 -0.7592 -0.4144 -0.9348
  124OSM   C10S13121   2.318   2.751   4.049 -0.4481  0.0063  0.7959
  124OSM   H10S13122   2.363   2.852   4.052  0.1066  0.0381 -3.0888
  124OSM   H10T13123   2.409   2.688   4.041  0.1277  0.6734  1.9027
  124OSM   C11S13124   2.249   2.732   4.183 -0.8141 -0.6072  0.2292
  124OSM   H11S13125   2.179   2.645   4.185 -1.6023  0.0323  0.7969
  124OSM   H11T13126   2.190   2.823   4.205  1.5750  0.7134  1.5237
  124OSM   C12S13127   2.361   2.710   4.282  1.0937  0.1637  0.1479
  124OSM   H12S13128   2.432   2.795   4.274  0.7842  0.5806  1.5494
  124OSM   H12T13129   2.410   2.618   4.243  0.1624 -0.1085 -0.4129
  124OSM   C13S13130   2.296   2.685   4.422 -0.4987  0.3998  0.6489
  124OSM   H13S13131   2.212   2.618   4.394  0.8782 -0.2559 -2.3259
  124OSM   H13T13132   2.252   2.777   4.467 -1.6301  0.1635  0.0673
  124OSM   C14S13133   2.384   2.619   4.525  0.3478 -0.4275 -0.6553
  124OSM   H14S13134   2.471   2.681   4.555 -2.4334  3.1524  0.7794
  124OSM   H14T13135   2.414   2.518   4.488  1.2438 -0.7221  0.7802
  124OSM   C15S13136   2.310   2.593   4.660  0.2262 -0.1475  0.0497
  124OSM   H15S13137   2.380   2.533   4.723 -2.5231 -1.2991  2.1758
  124OSM   H15T13138   2.218   2.540   4.627  1.4899 -1.6341 -1.3214
  124OSM   C16S13139   2.260   2.718   4.731  0.0570 -0.0803 -0.1279
  124OSM   H16S13140   2.198   2.774   4.657 -1.3777 -2.5808 -0.9302
  124OSM   H16T13141   2.350   2.779   4.757 -0.1514 -0.0032  0.4363
  124OSM   C17S13142   2.185   2.692   4.861 -0.3527 -0.0142  0.0147
  124OSM   H17S13143   2.257   2.631   4.920  0.2080  1.9830  1.4908
  124OSM   H17T13144   2.103   2.619   4.846 -0.7905  0.5581 -0.4051
  124OSM   C18S13145   2.154   2.813   4.937  0.0991 -0.8250 -0.5264
  124OSM   H18S13146   2.117   2.797   5.041 -0.4648  1.6194 -0.2873
  124OSM   H18T13147   2.073   2.871   4.888  0.8705  1.0539  0.3413
  124OSM   H18U13148   2.242   2.880   4.945  0.0430 -0.8024 -0.0514
  124OSM    C1F13149   1.661   2.751   3.448  0.1875  0.4073 -0.0535
  124OSM     OF13150   1.626   2.679   3.355 -0.2833 -0.0530 -0.5891
  124OSM    C2F13151   1.605   2.731   3.584  0.0131  0.6101  0.3109
  124OSM    H2F13152   1.621   2.623   3.602  1.3209  0.8449  0.6675
  124OSM    H2G13153   1.499   2.764   3.573 -0.0588  0.3683  0.2805
  124OSM    C3F13154   1.672   2.808   3.699  0.7345  0.8703  0.1516
  124OSM    H3F13155   1.658   2.918   3.694  1.3028  0.9422  0.0775
  124OSM    H3G13156   1.781   2.789   3.686  0.1672 -2.7617 -0.3240
  124OSM    C4F13157   1.641   2.754   3.839 -0.3622  0.7785  0.7048
  124OSM    H4F13158   1.650   2.643   3.839 -0.6772  0.7296 -1.3012
  124OSM    H4G13159   1.535   2.781   3.862 -0.6476 -1.4128  2.3228
  124OSM    C5F13160   1.745   2.810   3.936  0.2299 -0.0852 -0.7440
  124OSM    H5F13161   1.723   2.918   3.950 -0.0790  0.2969 -3.6188
  124OSM    H5G13162   1.849   2.815   3.896  0.1927  1.7735 -0.6795
  124OSM    C6F13163   1.738   2.730   4.065  0.7775  0.3839  0.3720
  124OSM    H6F13164   1.730   2.620   4.049  0.0692  0.5701 -0.5662
  124OSM    H6G13165   1.638   2.752   4.108  0.6530  0.9535 -0.2079
  124OSM    C7F13166   1.846   2.761   4.157 -0.3872  0.2305  0.1330
  124OSM    H7F13167   1.857   2.871   4.167  1.4869  0.0506  0.5428
  124OSM    H7G13168   1.939   2.728   4.106 -0.7514  0.8683 -0.9673
  124OSM    C8F13169   1.839   2.692   4.304 -0.2604  0.0976 -0.2680
  124OSM    H8F13170   1.917   2.737   4.368 -1.3034  0.1846  0.9748
  124OSM    H8G13171   1.862   2.588   4.273  0.5572  0.0121  0.5663
  124OSM    C9F13172   1.707   2.702   4.372  0.0273  0.2198  0.6236
  124OSM    H9F13173   1.664   2.802   4.387 -1.7424 -0.6653  1.7363
  124OSM   C10F13174   1.635   2.597   4.421 -0.3349  0.6365 -0.6498
  124OSM   H10F13175   1.542   2.607   4.478  0.3765 -0.4489  0.7814
  124OSM   C11F13176   1.666   2.448   4.405 -0.5557 -0.8006  0.0489
  124OSM   H11F13177   1.738   2.433   4.322 -0.7921  1.2785 -0.5853
  124OSM   H11G13178   1.575   2.389   4.378  0.1530 -1.7421 -0.3535
  124OSM   C12F13179   1.714   2.394   4.547  0.2877  0.2354  0.2674
  124OSM   H12F13180   1.721   2.284   4.532 -0.3481  0.3177 -0.7135
  124OSM   H12G13181   1.630   2.414   4.617 -0.2392  0.1717 -0.3425
  124OSM   C13F13182   1.847   2.455   4.593  0.3876  0.1858  0.3901
  124OSM   H13F13183   1.821   2.551   4.643  1.5529  0.4229  0.5510
  124OSM   H13G13184   1.925   2.471   4.516  1.3762  2.2211  1.7167
  124OSM   C14F13185   1.909   2.381   4.714 -0.3729  1.0605  1.0094
  124OSM   H14F13186   2.005   2.428   4.742  1.9320 -1.9968 -1.0782
  124OSM   H14G13187   1.928   2.274   4.689 -2.1804  1.2316 -1.4574
  124OSM   C15F13188   1.808   2.386   4.836  0.0088 -0.0983 -0.4681
  124OSM   H15F13189   1.847   2.325   4.919 -1.7819  0.6272  0.9756
  124OSM   H15G13190   1.710   2.340   4.810 -0.3109  0.4964 -0.3254
  124OSM   C16F13191   1.790   2.524   4.905 -0.3263  0.1845  0.4097
  124OSM   H16F13192   1.712   2.586   4.857 -0.1636  2.0514  2.3769
  124OSM   H16G13193   1.879   2.579   4.870 -0.7680 -0.0592 -1.1939
  124OSM   C17F13194   1.781   2.526   5.052  0.4342  0.0275 -0.2373
  124OSM   H17F13195   1.856   2.449   5.077 -0.3042 -1.3506 -1.9682
  124OSM   H17G13196   1.677   2.487   5.062  0.0463  1.2016  0.4541
  124OSM   C18F13197   1.797   2.658   5.117  0.3032 -0.2791  0.5036
  124OSM   H18F13198   1.893   2.701   5.082  0.3232  0.4442  1.3873
  124OSM   H18G13199   1.812   2.642   5.226  1.2606  1.8327  0.7301
  124OSM   H18H13200   1.712   2.726   5.093  0.5839  0.1655  0.7394
  125OSM      N13201   2.456   6.332   2.615  0.2510 -0.0068  0.9075
  125OSM    C1513202   2.343   6.394   2.540  0.4610 -0.3050 -0.6764
  125OSM   H15A13203   2.265   6.404   2.613 -0.5547  1.0373 -1.8683
  125OSM   H15B13204   2.296   6.331   2.465 -1.6427 -0.7012  0.8896
  125OSM   H15C13205   2.368   6.479   2.477  0.6643  1.8169  2.0564
  125OSM    C1413206   2.427   6.182   2.626 -0.2370 -0.5443  0.0590
  125OSM   H14A13207   2.439   6.149   2.523 -0.8455 -3.2986  0.7733
  125OSM   H14B13208   2.328   6.152   2.655 -0.3704 -0.4038 -0.2524
  125OSM   H14C13209   2.505   6.155   2.695 -0.0094  1.7628  0.7776
  125OSM    C1313210   2.585   6.354   2.540 -0.4478  0.5336  0.7979
  125OSM   H13A13211   2.585   6.318   2.438 -2.0078  2.5200  0.0443
  125OSM   H13B13212   2.668   6.303   2.586 -1.0068  0.3690  1.6501
  125OSM   H13C13213   2.608   6.459   2.539 -0.3833  0.5238 -0.2570
  125OSM    C1213214   2.471   6.389   2.760 -0.4499  0.3897  0.5249
  125OSM   H12A13215   2.511   6.488   2.745  0.1621 -0.2186 -2.4951
  125OSM   H12B13216   2.548   6.330   2.806  2.9224  3.1459 -1.0925
  125OSM    C1113217   2.348   6.390   2.853 -0.0201 -0.7184 -0.1636
  125OSM   H11A13218   2.368   6.409   2.961 -0.0669 -0.1184 -0.2540
  125OSM   H11B13219   2.302   6.289   2.845  1.1970 -1.3587  0.6212
  125OSM      P13220   2.246   6.634   2.825  0.3954  0.2671  0.1132
  125OSM    O1313221   2.357   6.688   2.751 -0.2549  0.3146 -0.1331
  125OSM    O1413222   2.116   6.677   2.776  0.0566  0.0617  0.8028
  125OSM    O1113223   2.249   6.670   2.982 -0.4925 -0.7746 -0.6433
  125OSM    O1213224   2.242   6.480   2.811 -0.2880  0.0225 -0.1329
  125OSM    C1S13225   2.149   6.599   3.061 -0.5366  0.1950  0.0184
  125OSM    H1S13226   2.169   6.491   3.076 -0.7241  0.4200  2.1052
  125OSM    H1T13227   2.043   6.603   3.027 -1.4177  0.9091  2.6487
  125OSM     NF13228   2.025   6.564   3.277  0.6422  0.3425 -0.9157
  125OSM    HNF13229   1.944   6.618   3.298  0.8915  1.9533 -3.6656
  125OSM    C2S13230   2.121   6.646   3.209  0.3573  0.7626 -0.2654
  125OSM    H2S13231   2.217   6.627   3.262 -1.1974 -0.2046  2.3946
  125OSM    C3S13232   2.078   6.795   3.198 -0.2559  0.2173 -0.2859
  125OSM    H3S13233   1.979   6.775   3.152 -1.5447 -1.5901  2.9303
  125OSM     O313234   2.151   6.895   3.130  0.3095 -0.2104  0.1111
  125OSM    HO313235   2.212   6.849   3.072 -0.4590 -1.1462  0.0350
  125OSM    C4S13236   2.046   6.855   3.336 -0.8777  0.3400  0.2401
  125OSM    H4S13237   1.940   6.876   3.351 -1.1722  0.1611 -1.3527
  125OSM    C5S13238   2.145   6.902   3.417  0.9896 -0.2555 -0.0188
  125OSM    H5S13239   2.249   6.894   3.382  0.3920 -2.9640 -1.5441
  125OSM    C6S13240   2.105   6.969   3.550  0.0878  0.7283 -0.1830
  125OSM    H6S13241   1.998   6.954   3.576  0.1394 -0.8858 -0.7651
  125OSM    H6T13242   2.122   7.079   3.544 -2.5998  1.2311  0.0213
  125OSM    C7S13243   2.179   6.905   3.664  0.1041  0.3246 -0.8506
  125OSM    H7S13244   2.289   6.913   3.645  0.0609  2.1041 -0.5955
  125OSM    H7T13245   2.161   6.797   3.681 -0.7742  0.3570 -1.5255
  125OSM    C8S13246   2.143   6.984   3.792 -0.1977  0.3287  0.0416
  125OSM    H8S13247   2.032   6.994   3.798 -0.1315  0.6419  0.7905
  125OSM    H8T13248   2.192   7.082   3.775  2.8921 -1.1780 -0.4364
  125OSM    C9S13249   2.200   6.918   3.921  1.0077  0.3309  0.3821
  125OSM    H9S13250   2.309   6.912   3.899  0.8548 -0.4836 -0.1809
  125OSM    H9T13251   2.151   6.820   3.939 -1.6844  1.5099 -0.0702
  125OSM   C10S13252   2.182   7.002   4.045  0.7539 -0.5006 -0.3654
  125OSM   H10S13253   2.075   7.017   4.071  1.0814 -1.4320  1.6633
  125OSM   H10T13254   2.231   7.099   4.021 -0.8765 -0.1412 -2.5567
  125OSM   C11S13255   2.241   6.935   4.173 -0.3603  0.1094 -0.6394
  125OSM   H11S13256   2.348   6.909   4.160  0.3712  1.3687  2.1199
  125OSM   H11T13257   2.188   6.843   4.205  0.9519 -0.1521  0.8693
  125OSM   C12S13258   2.234   7.026   4.299 -0.9252  0.2428  0.5701
  125OSM   H12S13259   2.137   7.080   4.300 -0.8339  0.6146 -2.3148
  125OSM   H12T13260   2.306   7.108   4.278 -1.1290 -0.1368 -1.9163
  125OSM   C13S13261   2.256   6.946   4.429  0.1863  0.3214  0.0819
  125OSM   H13S13262   2.359   6.903   4.428  0.1006  0.0453  1.2811
  125OSM   H13T13263   2.192   6.855   4.428  0.3756  0.1726 -1.4112
  125OSM   C14S13264   2.235   7.021   4.569  0.0113 -0.0233 -0.1066
  125OSM   H14S13265   2.275   7.124   4.557  0.1297  0.0623  0.9808
  125OSM   H14T13266   2.299   6.967   4.642  0.0028  1.4990  1.0700
  125OSM   C15S13267   2.082   7.021   4.608  0.4447  0.2921  0.4581
  125OSM   H15S13268   2.061   6.916   4.642 -0.7115  0.8137  1.4680
  125OSM   H15T13269   2.018   7.037   4.519 -1.1197  2.3751  1.8404
  125OSM   C16S13270   2.032   7.115   4.718 -0.1395 -0.0930 -0.4067
  125OSM   H16S13271   2.073   7.075   4.813 -0.4026 -0.9434 -0.6346
  125OSM   H16T13272   1.923   7.105   4.740 -0.0041  1.0756  0.9271
  125OSM   C17S13273   2.074   7.259   4.705  0.7095 -0.0956 -1.0287
  125OSM   H17S13274   2.030   7.301   4.612 -0.7264 -1.1899 -0.8779
  125OSM   H17T13275   2.184   7.265   4.689  0.6918 -0.5908 -1.3649
  125OSM   C18S13276   2.058   7.343   4.831 -0.3528  0.3146 -0.5068
  125OSM   H18S13277   2.126   7.318   4.915 -1.5916 -1.6110 -0.0070
  125OSM   H18T13278   1.951   7.352   4.860 -0.4387 -1.3078 -0.2051
  125OSM   H18U13279   2.082   7.450   4.813 -1.2335  0.1850 -2.7115
  125OSM    C1F13280   2.039   6.434   3.314  0.2050 -0.3881 -0.5118
  125OSM     OF13281   2.129   6.373   3.262 -0.0490  0.1129 -0.2765
  125OSM    C2F13282   1.951   6.375   3.425  0.0607 -0.2159 -0.5326
  125OSM    H2F13283   1.878   6.303   3.382 -0.5786 -0.7809  1.3835
  125OSM    H2G13284   1.894   6.459   3.470  0.1292  0.8291 -2.2923
  125OSM    C3F13285   2.026   6.285   3.522 -0.1818  0.0228 -0.2521
  125OSM    H3F13286   2.074   6.207   3.460  0.6930  0.8975 -0.6868
  125OSM    H3G13287   1.962   6.236   3.599  2.8229 -1.3030  1.5813
  125OSM    C4F13288   2.136   6.361   3.594 -0.0628  0.2440 -0.2064
  125OSM    H4F13289   2.194   6.426   3.526 -0.8712  1.2124  0.0130
  125OSM    H4G13290   2.214   6.293   3.637  1.1364  1.9326  0.3942
  125OSM    C5F13291   2.087   6.455   3.705 -0.0202 -0.5996  0.0674
  125OSM    H5F13292   2.006   6.520   3.663  1.1442  0.1470 -1.1092
  125OSM    H5G13293   2.176   6.510   3.743  0.1139 -0.6710 -0.1409
  125OSM    C6F13294   2.039   6.381   3.826  0.4742  0.0688 -0.2087
  125OSM    H6F13295   2.097   6.286   3.827  0.9827  0.2945 -2.3488
  125OSM    H6G13296   1.934   6.351   3.811 -0.8267  3.2673  1.5862
  125OSM    C7F13297   2.040   6.467   3.953  0.2679  0.1824 -0.0519
  125OSM    H7F13298   1.979   6.412   4.028  0.4558 -0.5845 -0.4437
  125OSM    H7G13299   1.997   6.566   3.930 -1.4141 -0.6355 -0.5675
  125OSM    C8F13300   2.179   6.495   4.022  0.0192  0.3159 -0.0770
  125OSM    H8F13301   2.240   6.546   3.945  1.2822 -1.8129 -0.5713
  125OSM    H8G13302   2.238   6.403   4.041  1.3476  1.3700  1.1460
  125OSM    C9F13303   2.163   6.585   4.146  0.7391 -0.3771  0.5411
  125OSM    H9F13304   2.108   6.679   4.130 -2.0600 -2.1540 -1.1107
  125OSM   C10F13305   2.212   6.542   4.265 -0.9571 -0.2788  0.0066
  125OSM   H10F13306   2.182   6.610   4.346  2.5363  0.9638  0.4511
  125OSM   C11F13307   2.300   6.417   4.291 -0.2935  0.0028 -0.3818
  125OSM   H11F13308   2.396   6.413   4.236  0.6779  0.2514  1.2416
  125OSM   H11G13309   2.241   6.324   4.272 -1.1089  0.4714 -0.1767
  125OSM   C12F13310   2.335   6.407   4.438 -0.1867 -0.3762  0.8384
  125OSM   H12F13311   2.402   6.493   4.460  1.2188 -1.4748  0.9868
  125OSM   H12G13312   2.393   6.317   4.466  1.1381 -0.1276 -0.9699
  125OSM   C13F13313   2.205   6.412   4.523 -0.2493  0.6823 -0.0157
  125OSM   H13F13314   2.120   6.360   4.474 -1.8235  2.3606  0.8265
  125OSM   H13G13315   2.163   6.511   4.553  0.9034  0.3151  3.0779
  125OSM   C14F13316   2.224   6.334   4.656 -0.0194 -0.0339 -0.6778
  125OSM   H14F13317   2.255   6.231   4.629 -3.0505 -1.3103  0.2573
  125OSM   H14G13318   2.124   6.330   4.704  0.5118  3.4059  1.0314
  125OSM   C15F13319   2.331   6.405   4.742  0.7601  0.6478  0.2631
  125OSM   H15F13320   2.420   6.435   4.682  0.7751  2.8818  1.3046
  125OSM   H15G13321   2.362   6.338   4.826 -0.0439 -0.4503 -0.2829
  125OSM   C16F13322   2.285   6.534   4.810 -0.0871  0.0880 -0.3741
  125OSM   H16F13323   2.202   6.518   4.882 -1.2023 -0.9000 -1.8467
  125OSM   H16G13324   2.244   6.595   4.727 -0.7376  0.3482  0.1327
  125OSM   C17F13325   2.402   6.608   4.884 -0.3522 -0.4791 -0.3611
  125OSM   H17F13326   2.491   6.590   4.820  0.3608 -1.0747  0.7714
  125OSM   H17G13327   2.425   6.566   4.984 -0.4083  1.4273  0.4995
  125OSM   C18F13328   2.371   6.758   4.908  0.0608  0.0051 -0.3882
  125OSM   H18F13329   2.471   6.803   4.924  0.3371 -0.9742  0.7372
  125OSM   H18G13330   2.312   6.771   5.001  0.5269  2.4892 -0.3699
  125OSM   H18H13331   2.328   6.805   4.817 -1.4974 -0.0942  0.2736
  126OSM      N13332   5.733   6.315   3.018  0.1472  0.0519  0.2411
  126OSM    C1513333   5.599   6.369   2.988  0.1878  0.5020 -0.2245
  126OSM   H15A13334   5.566   6.458   3.039 -2.7616 -0.6144  0.0416
  126OSM   H15B13335   5.534   6.285   3.008  0.4923  0.5852  1.2247
  126OSM   H15C13336   5.586   6.378   2.881  0.5703  0.0486 -0.3107
  126OSM    C1413337   5.771   6.209   2.920 -0.2777  0.3431  0.3442
  126OSM   H14A13338   5.722   6.116   2.945  3.1684 -1.7169  0.1106
  126OSM   H14B13339   5.877   6.190   2.930  0.1363  2.2907  0.0405
  126OSM   H14C13340   5.738   6.236   2.820 -1.1720 -3.4473 -0.5479
  126OSM    C1313341   5.836   6.421   3.000 -0.1905 -0.9948 -0.2016
  126OSM   H13A13342   5.794   6.510   3.046  0.0824 -1.2510  0.5681
  126OSM   H13B13343   5.845   6.434   2.894  0.1083  0.7672  0.0067
  126OSM   H13C13344   5.930   6.397   3.048 -0.0168  0.2821  0.1227
  126OSM    C1213345   5.742   6.255   3.159 -0.0245 -0.0501  0.5913
  126OSM   H12A13346   5.721   6.327   3.237 -0.4820 -0.9089  1.2805
  126OSM   H12B13347   5.847   6.231   3.174 -0.0647 -0.4738  0.2084
  126OSM    C1113348   5.663   6.127   3.179 -0.0443  1.0677  0.8052
  126OSM   H11A13349   5.681   6.092   3.282  2.4675  0.3049  0.1857
  126OSM   H11B13350   5.713   6.050   3.117  1.5265  1.8908  0.9717
  126OSM      P13351   5.419   6.195   3.256 -0.6946 -0.0349 -0.0528
  126OSM    O1313352   5.458   6.337   3.284 -0.1979 -0.5017  0.1500
  126OSM    O1413353   5.294   6.166   3.192 -0.0533 -0.2494  0.7601
  126OSM    O1113354   5.433   6.103   3.394  0.6086 -0.2536 -0.6784
  126OSM    O1213355   5.529   6.137   3.156 -0.2519 -0.0535 -0.1529
  126OSM    C1S13356   5.435   5.963   3.377  0.3641 -0.8474  0.1106
  126OSM    H1S13357   5.526   5.926   3.326 -0.5502 -0.9400 -1.5274
  126OSM    H1T13358   5.340   5.939   3.323 -0.5129  0.8316  0.8364
  126OSM     NF13359   5.462   5.754   3.505 -0.5755  0.0813  0.3310
  126OSM    HNF13360   5.391   5.687   3.528 -0.5891 -0.8818 -2.1293
  126OSM    C2S13361   5.428   5.895   3.518  0.1880 -0.1268 -0.2202
  126OSM    H2S13362   5.512   5.930   3.583  0.3071  2.2015 -1.5196
  126OSM    C3S13363   5.295   5.925   3.588 -0.0562  0.4095  0.0816
  126OSM    H3S13364   5.213   5.880   3.528  0.9744 -2.2200  0.5152
  126OSM     O313365   5.261   6.060   3.601 -0.2869 -0.5818  0.4181
  126OSM    HO313366   5.330   6.105   3.550  0.5512  0.9794  2.7752
  126OSM    C4S13367   5.280   5.855   3.726  0.1331 -0.6394  0.3557
  126OSM    H4S13368   5.228   5.760   3.707 -1.2515  0.1306  0.1706
  126OSM    C5S13369   5.332   5.896   3.842  0.5696  0.4361  0.4792
  126OSM    H5S13370   5.405   5.978   3.847  0.1276  0.8898 -0.3335
  126OSM    C6S13371   5.319   5.814   3.960  0.3097 -0.1388  0.1584
  126OSM    H6S13372   5.404   5.742   3.961  0.6948  0.1800 -2.3771
  126OSM    H6T13373   5.226   5.753   3.962 -0.7199  1.4009  1.1700
  126OSM    C7S13374   5.325   5.887   4.088 -0.3949 -0.1848 -1.1348
  126OSM    H7S13375   5.258   5.976   4.085 -0.8023 -0.2916  1.6958
  126OSM    H7T13376   5.429   5.926   4.094  0.5620 -2.3551 -2.6052
  126OSM    C8S13377   5.321   5.797   4.216  0.5870 -0.1385  0.5442
  126OSM    H8S13378   5.401   5.720   4.212  1.1995  0.5166 -0.2611
  126OSM    H8T13379   5.223   5.746   4.208  1.6645 -2.1644 -0.7689
  126OSM    C9S13380   5.324   5.873   4.351  0.6580 -0.1888  0.4257
  126OSM    H9S13381   5.242   5.947   4.355  1.0595  0.2079  1.4620
  126OSM    H9T13382   5.417   5.933   4.360  0.2919  1.7671 -4.9001
  126OSM   C10S13383   5.287   5.784   4.473 -0.7623  0.1981 -0.6133
  126OSM   H10S13384   5.349   5.692   4.475 -0.0370  0.6424  2.9853
  126OSM   H10T13385   5.178   5.763   4.475 -0.5717 -0.7710  0.2677
  126OSM   C11S13386   5.329   5.859   4.598  0.1836 -0.7130  0.0971
  126OSM   H11S13387   5.285   5.961   4.606  2.6764  0.5484 -1.1654
  126OSM   H11T13388   5.440   5.865   4.596  0.1648 -0.3046  0.1602
  126OSM   C12S13389   5.292   5.789   4.729 -0.5051  0.0301 -0.5477
  126OSM   H12S13390   5.322   5.682   4.730  1.0682  0.4096 -1.9999
  126OSM   H12T13391   5.182   5.783   4.742 -0.2221 -0.2347  2.2864
  126OSM   C13S13392   5.339   5.861   4.852 -0.7636  0.5247 -0.1459
  126OSM   H13S13393   5.268   5.945   4.868  0.9134  2.1918 -0.9591
  126OSM   H13T13394   5.442   5.901   4.839  1.1643 -3.0109  2.5694
  126OSM   C14S13395   5.341   5.762   4.978  0.7180 -0.0007 -0.3943
  126OSM   H14S13396   5.386   5.664   4.951 -2.8105 -1.6379 -0.8372
  126OSM   H14T13397   5.238   5.733   5.007  1.8380  0.2498  4.9485
  126OSM   C15S13398   5.407   5.807   5.105 -0.7402  0.0258  0.3894
  126OSM   H15S13399   5.500   5.858   5.071  0.9337  0.1565  4.5600
  126OSM   H15T13400   5.442   5.732   5.179  1.4672  1.2483  0.6893
  126OSM   C16S13401   5.304   5.906   5.168 -0.0739  0.4763  0.4469
  126OSM   H16S13402   5.210   5.854   5.195  0.9071 -2.0023 -0.5977
  126OSM   H16T13403   5.294   5.996   5.102 -1.1038  0.9310  1.2111
  126OSM   C17S13404   5.374   5.962   5.299  0.1944  0.3425 -0.0593
  126OSM   H17S13405   5.469   6.009   5.265 -0.0561 -0.7573 -2.5148
  126OSM   H17T13406   5.394   5.869   5.357  1.9753  0.4794 -0.3847
  126OSM   C18S13407   5.288   6.065   5.379 -0.4590 -0.4003  0.3005
  126OSM   H18S13408   5.184   6.038   5.408 -0.8577 -1.1130 -1.6732
  126OSM   H18T13409   5.301   6.161   5.324  3.3052 -1.2809 -0.5889
  126OSM   H18U13410   5.352   6.092   5.466  0.3940  1.1381 -0.7511
  126OSM    C1F13411   5.584   5.717   3.469  0.5863 -0.0616  0.4788
  126OSM     OF13412   5.672   5.797   3.464  0.5557  0.0663  0.1826
  126OSM    C2F13413   5.611   5.574   3.456 -0.3105  1.1453  0.5623
  126OSM    H2F13414   5.613   5.551   3.347  0.6284  2.9910  0.1377
  126OSM    H2G13415   5.531   5.511   3.499 -0.6290  0.6536 -0.7098
  126OSM    C3F13416   5.749   5.530   3.518  0.1781 -0.3579  0.2645
  126OSM    H3F13417   5.835   5.577   3.466 -0.2481  0.4167  0.2414
  126OSM    H3G13418   5.752   5.422   3.493 -1.1260  0.0256 -1.7954
  126OSM    C4F13419   5.769   5.566   3.675 -0.0304  0.3181  0.6056
  126OSM    H4F13420   5.791   5.674   3.692  2.2573  0.2671 -1.4354
  126OSM    H4G13421   5.857   5.511   3.714  0.3604  0.1911 -0.4202
  126OSM    C5F13422   5.637   5.538   3.758  0.1123  0.3527  0.4649
  126OSM    H5F13423   5.593   5.440   3.727  1.7616 -0.6256  1.0880
  126OSM    H5G13424   5.564   5.616   3.727  2.2790  2.9909  1.5773
  126OSM    C6F13425   5.654   5.534   3.912 -0.5524  0.6680 -0.1698
  126OSM    H6F13426   5.555   5.515   3.958 -0.2953 -0.9935 -0.2231
  126OSM    H6G13427   5.690   5.636   3.939 -0.4818  0.9162 -1.1624
  126OSM    C7F13428   5.748   5.425   3.968  0.4575 -0.7842 -0.9440
  126OSM    H7F13429   5.848   5.464   3.942 -0.1929  0.5518 -1.5266
  126OSM    H7G13430   5.742   5.327   3.916 -0.8559 -0.5250 -1.3388
  126OSM    C8F13431   5.750   5.411   4.123  0.2562  0.2998 -0.0570
  126OSM    H8F13432   5.830   5.338   4.146  0.6431  0.5407 -0.6428
  126OSM    H8G13433   5.650   5.368   4.147 -0.1955  0.9477 -0.7741
  126OSM    C9F13434   5.784   5.538   4.197 -0.0378 -1.2004 -0.2844
  126OSM    H9F13435   5.855   5.604   4.146 -1.1875  0.9981  0.8011
  126OSM   C10F13436   5.725   5.575   4.314  0.2351  0.0181 -0.3203
  126OSM   H10F13437   5.747   5.666   4.371  0.4780 -0.4726  0.3747
  126OSM   C11F13438   5.614   5.498   4.383  0.3271 -0.6294  0.4088
  126OSM   H11F13439   5.577   5.420   4.313 -0.3413 -0.0291  0.0748
  126OSM   H11G13440   5.525   5.565   4.376  0.4592 -0.1596  2.6465
  126OSM   C12F13441   5.638   5.450   4.532 -0.2806 -0.3238  0.6131
  126OSM   H12F13442   5.689   5.533   4.586  1.0454  0.0421 -1.1035
  126OSM   H12G13443   5.699   5.358   4.534  0.0771 -0.0792  1.9428
  126OSM   C13F13444   5.511   5.420   4.612 -0.1262 -0.1522  0.2374
  126OSM   H13F13445   5.475   5.323   4.572  1.0396 -0.1014 -1.0374
  126OSM   H13G13446   5.443   5.505   4.592 -0.2306 -0.3145 -0.1155
  126OSM   C14F13447   5.540   5.390   4.762  0.3504 -0.2051 -0.1765
  126OSM   H14F13448   5.608   5.473   4.792  0.1415  0.1766 -0.7411
  126OSM   H14G13449   5.603   5.298   4.763  0.1677 -0.3305  0.0335
  126OSM   C15F13450   5.415   5.364   4.857  0.3240 -0.7707 -0.4916
  126OSM   H15F13451   5.378   5.262   4.833 -0.4287 -0.6683  0.1597
  126OSM   H15G13452   5.341   5.447   4.850  0.0290 -0.9800  0.0274
  126OSM   C16F13453   5.464   5.358   5.003 -0.8382 -1.1067  0.5026
  126OSM   H16F13454   5.521   5.453   5.001  0.1026 -1.6842 -0.8173
  126OSM   H16G13455   5.529   5.269   5.014  1.0890  0.3228  1.2785
  126OSM   C17F13456   5.353   5.361   5.105 -0.6951  0.9027  0.5062
  126OSM   H17F13457   5.312   5.259   5.120  2.1445 -0.0645  2.7048
  126OSM   H17G13458   5.272   5.424   5.062  0.4087  0.9451 -1.6267
  126OSM   C18F13459   5.389   5.414   5.242  0.1460 -0.1396 -0.0135
  126OSM   H18F13460   5.454   5.350   5.304  2.3221  0.0414 -1.9567
  126OSM   H18G13461   5.297   5.434   5.300  0.6865  0.7738  0.5620
  126OSM   H18H13462   5.449   5.507   5.225  0.4780 -0.1834  0.9002
  127OSM      N13463   0.636   2.787   2.432 -0.4259 -0.2732  0.9313
  127OSM    C1513464   0.664   2.912   2.347  0.0780  0.7166  0.0228
  127OSM   H15A13465   0.729   2.984   2.394  1.7538 -0.3091 -0.6246
  127OSM   H15B13466   0.575   2.960   2.310 -0.6546  0.8770  1.9023
  127OSM   H15C13467   0.708   2.876   2.255  2.4558 -0.4948  1.5344
  127OSM    C1413468   0.517   2.705   2.389  0.3851  0.1172 -0.1266
  127OSM   H14A13469   0.507   2.691   2.282 -3.1685 -0.2587  0.1545
  127OSM   H14B13470   0.429   2.761   2.417  1.5338  1.6699  0.5298
  127OSM   H14C13471   0.532   2.609   2.435  0.9400 -0.0347 -0.6078
  127OSM    C1313472   0.757   2.696   2.416 -0.0367  0.0962 -0.3046
  127OSM   H13A13473   0.840   2.733   2.474  0.7858 -3.3339  0.9774
  127OSM   H13B13474   0.779   2.687   2.310 -2.2095  0.2559 -0.8132
  127OSM   H13C13475   0.738   2.597   2.455 -1.5033  0.6738  0.4950
  127OSM    C1213476   0.619   2.829   2.579  0.0105 -0.1514  0.4819
  127OSM   H12A13477   0.617   2.739   2.638 -0.2234  0.0040  0.7128
  127OSM   H12B13478   0.527   2.883   2.595  1.2648  2.0058  0.8395
  127OSM    C1113479   0.730   2.924   2.640 -0.8073 -0.2375 -0.1024
  127OSM   H11A13480   0.830   2.890   2.607  0.2274  0.6273  1.9769
  127OSM   H11B13481   0.709   2.918   2.749  0.9284 -0.0658  0.2676
  127OSM      P13482   0.603   3.159   2.646  0.0535 -0.5610 -0.4451
  127OSM    O1313483   0.604   3.278   2.561  0.3841  0.2389  0.3551
  127OSM    O1413484   0.473   3.091   2.656 -0.0963 -0.0032 -0.1739
  127OSM    O1113485   0.669   3.187   2.784  0.3955 -0.2840  0.7963
  127OSM    O1213486   0.715   3.060   2.591  0.4102 -0.4201  0.0910
  127OSM    C1S13487   0.600   3.156   2.908 -0.2847  0.3529 -0.7009
  127OSM    H1S13488   0.615   3.048   2.934  3.4342  0.7695 -0.5135
  127OSM    H1T13489   0.490   3.160   2.899 -0.2804 -1.0575 -1.8472
  127OSM     NF13490   0.560   3.180   3.147 -0.5317  0.2403 -0.7929
  127OSM    HNF13491   0.482   3.233   3.180 -0.1516  0.7582 -0.7144
  127OSM    C2S13492   0.641   3.236   3.038  0.2922 -1.0586  0.8199
  127OSM    H2S13493   0.749   3.223   3.060  0.3258 -2.6528 -0.1203
  127OSM    C3S13494   0.622   3.391   3.014  0.2063 -0.5783 -0.7058
  127OSM    H3S13495   0.512   3.403   3.010  0.4475  2.7992 -0.3984
  127OSM     O313496   0.672   3.437   2.892  0.2462 -0.7257  0.9152
  127OSM    HO313497   0.702   3.355   2.851  0.4334  0.5949 -1.7397
  127OSM    C4S13498   0.666   3.474   3.125 -0.2532  0.3306 -0.2352
  127OSM    H4S13499   0.589   3.515   3.192  1.2630  0.4262  1.5317
  127OSM    C5S13500   0.793   3.519   3.139  0.1414  0.3211 -0.4835
  127OSM    H5S13501   0.867   3.489   3.063 -0.6146 -1.1751 -0.6841
  127OSM    C6S13502   0.833   3.608   3.255 -0.4567  0.4890  0.2629
  127OSM    H6S13503   0.752   3.653   3.317 -1.0949  2.1703 -1.6872
  127OSM    H6T13504   0.887   3.697   3.216  1.9702 -0.9261  0.1611
  127OSM    C7S13505   0.935   3.552   3.354 -0.2997  0.6832 -0.7250
  127OSM    H7S13506   0.958   3.635   3.423  0.8080 -0.1071 -0.0988
  127OSM    H7T13507   1.022   3.527   3.289  0.6479 -0.6325  0.9801
  127OSM    C8S13508   0.891   3.422   3.431  0.3915 -0.2805  0.1205
  127OSM    H8S13509   0.870   3.353   3.347 -0.1649 -0.3987  0.3558
  127OSM    H8T13510   0.801   3.450   3.490  1.5387  0.7601  1.4622
  127OSM    C9S13511   0.994   3.368   3.528 -0.1097 -0.0517  0.6869
  127OSM    H9S13512   1.089   3.340   3.478  0.4403 -0.1036  1.7190
  127OSM    H9T13513   0.945   3.277   3.568 -2.8759 -0.0338 -2.3190
  127OSM   C10S13514   1.023   3.450   3.647  0.0188  0.4761 -0.2546
  127OSM   H10S13515   0.925   3.477   3.692 -0.1409 -1.1123  0.4180
  127OSM   H10T13516   1.088   3.534   3.615  0.6536  0.2258  0.3531
  127OSM   C11S13517   1.099   3.367   3.754 -0.4588 -0.4849 -0.7122
  127OSM   H11S13518   1.190   3.327   3.704  1.0926 -0.2490  1.8004
  127OSM   H11T13519   1.040   3.283   3.797  2.1106 -1.0704  1.9957
  127OSM   C12S13520   1.126   3.451   3.888 -0.0615  0.3948  0.4371
  127OSM   H12S13521   1.026   3.490   3.918 -0.4201  0.9548 -1.3534
  127OSM   H12T13522   1.183   3.542   3.859 -0.6960  0.4982 -0.5461
  127OSM   C13S13523   1.189   3.370   3.998 -0.0227 -1.1401  0.1336
  127OSM   H13S13524   1.293   3.342   3.971  0.3910  0.4803 -0.1111
  127OSM   H13T13525   1.142   3.271   4.011 -2.1790 -0.0322  1.2543
  127OSM   C14S13526   1.176   3.442   4.131  0.7450  0.4572 -0.0958
  127OSM   H14S13527   1.074   3.444   4.174  0.1131 -0.9976 -1.4355
  127OSM   H14T13528   1.207   3.548   4.116  2.1748 -0.2338 -2.5033
  127OSM   C15S13529   1.283   3.394   4.229  0.4261  0.2963 -0.1501
  127OSM   H15S13530   1.387   3.392   4.190  1.2504 -0.4410  1.9491
  127OSM   H15T13531   1.254   3.290   4.255  0.7668  0.1539 -0.3298
  127OSM   C16S13532   1.284   3.474   4.357  0.4396 -0.2202  0.0743
  127OSM   H16S13533   1.180   3.476   4.396  1.1111  1.1685  1.9779
  127OSM   H16T13534   1.334   3.574   4.350 -0.4686  0.2953  0.7382
  127OSM   C17S13535   1.372   3.405   4.460 -0.2786  0.2706 -0.0028
  127OSM   H17S13536   1.473   3.387   4.418 -0.9243 -1.2546 -0.9977
  127OSM   H17T13537   1.335   3.301   4.467 -0.8117  0.2343 -2.3509
  127OSM   C18S13538   1.384   3.458   4.602 -0.1802  0.4340 -0.0124
  127OSM   H18S13539   1.428   3.559   4.595 -2.6276  1.4816 -2.2008
  127OSM   H18T13540   1.458   3.396   4.657  0.0668  0.1873 -0.6092
  127OSM   H18U13541   1.294   3.465   4.668  0.1185  1.1544  0.3230
  127OSM    C1F13542   0.596   3.063   3.209 -0.5805 -0.1882  0.1212
  127OSM     OF13543   0.695   2.995   3.182  0.0453 -0.3784  0.3831
  127OSM    C2F13544   0.505   3.015   3.316  0.3910 -0.1003  0.3666
  127OSM    H2F13545   0.472   2.916   3.278  1.1044  0.4727 -1.9619
  127OSM    H2G13546   0.425   3.092   3.321  0.7144  0.2432  0.3284
  127OSM    C3F13547   0.576   3.010   3.447 -0.4504 -0.1928  0.3935
  127OSM    H3F13548   0.660   2.938   3.440 -0.0268  0.3171  0.1278
  127OSM    H3G13549   0.508   2.969   3.525 -2.1062  3.5562  1.1729
  127OSM    C4F13550   0.616   3.145   3.509 -0.1305 -0.1431 -0.5707
  127OSM    H4F13551   0.528   3.213   3.512  0.2551  0.3251  0.4656
  127OSM    H4G13552   0.696   3.191   3.446 -0.6101  0.8561 -0.4772
  127OSM    C5F13553   0.671   3.133   3.653  0.0486  1.1945  0.7419
  127OSM    H5F13554   0.771   3.084   3.658 -0.4066  0.0715 -0.5138
  127OSM    H5G13555   0.598   3.081   3.719 -0.2641 -0.5082 -0.8686
  127OSM    C6F13556   0.683   3.269   3.723  0.3639  0.1244 -0.5188
  127OSM    H6F13557   0.583   3.312   3.744 -0.3686 -0.8886 -1.7657
  127OSM    H6G13558   0.735   3.339   3.653  3.2626 -1.8265 -0.5007
  127OSM    C7F13559   0.769   3.263   3.841  0.6049  0.1438 -0.4706
  127OSM    H7F13560   0.812   3.363   3.863 -0.7052  0.1538  2.4067
  127OSM    H7G13561   0.852   3.191   3.825  0.2198 -0.4249  0.0677
  127OSM    C8F13562   0.685   3.218   3.962 -0.0017  0.0005 -0.1994
  127OSM    H8F13563   0.635   3.123   3.938 -1.4617  0.6354  0.2097
  127OSM    H8G13564   0.592   3.278   3.976 -1.4663 -2.2236  0.0838
  127OSM    C9F13565   0.766   3.193   4.089  0.2390 -0.2369 -0.2591
  127OSM    H9F13566   0.851   3.124   4.078 -0.2577 -0.9359  0.1952
  127OSM   C10F13567   0.732   3.235   4.211  0.4120 -0.6125  0.4317
  127OSM   H10F13568   0.784   3.191   4.298  0.3532  0.0214  0.7948
  127OSM   C11F13569   0.617   3.326   4.243  0.1907 -0.4061 -0.5320
  127OSM   H11F13570   0.520   3.283   4.211 -0.3749  1.6741 -1.8139
  127OSM   H11G13571   0.615   3.420   4.183 -1.7079  0.6885  1.1230
  127OSM   C12F13572   0.597   3.384   4.382  0.3834  0.0552 -1.1712
  127OSM   H12F13573   0.537   3.477   4.380  0.1491 -0.1001 -1.6409
  127OSM   H12G13574   0.698   3.402   4.424  0.6205 -2.2944 -0.5435
  127OSM   C13F13575   0.522   3.287   4.467  0.0815  0.7016 -1.4812
  127OSM   H13F13576   0.578   3.191   4.457  2.1268  1.7468 -0.5638
  127OSM   H13G13577   0.421   3.272   4.423  0.6255 -0.8825 -2.2786
  127OSM   C14F13578   0.517   3.318   4.619  0.2892 -0.3961  0.0980
  127OSM   H14F13579   0.470   3.235   4.675  1.8774 -0.7041  1.0617
  127OSM   H14G13580   0.449   3.404   4.635  0.1375 -0.5500  0.2836
  127OSM   C15F13581   0.653   3.347   4.698  0.0809  0.2250  0.2827
  127OSM   H15F13582   0.645   3.342   4.809 -2.5084 -2.8093  0.1334
  127OSM   H15G13583   0.686   3.446   4.661  1.1417 -0.2267 -0.0254
  127OSM   C16F13584   0.747   3.226   4.665  0.4826  0.0806  0.0104
  127OSM   H16F13585   0.777   3.237   4.558 -0.0085 -1.1689 -0.2769
  127OSM   H16G13586   0.696   3.128   4.678 -0.1772  0.2687 -1.0775
  127OSM   C17F13587   0.877   3.221   4.748 -0.9074 -0.5698  0.3629
  127OSM   H17F13588   0.911   3.115   4.751  1.1275  0.0714  1.5302
  127OSM   H17G13589   0.846   3.261   4.846 -0.8409 -0.4690  0.3425
  127OSM   C18F13590   0.990   3.311   4.689 -0.4474 -0.0227 -1.1124
  127OSM   H18F13591   0.994   3.280   4.583 -1.1434 -1.4022 -0.7611
  127OSM   H18G13592   1.088   3.293   4.740  0.2518  1.6082 -1.8158
  127OSM   H18H13593   0.966   3.417   4.714 -1.3111 -0.4771  0.0653
  128OSM      N13594   1.202   6.117   2.851 -0.5490  0.2151  0.4972
  128OSM    C1513595   1.299   6.190   2.765 -0.0567 -0.1893 -0.2702
  128OSM   H15A13596   1.276   6.295   2.758  1.9442  0.5172  2.1927
  128OSM   H15B13597   1.311   6.152   2.665 -1.7426 -1.1037 -0.1651
  128OSM   H15C13598   1.401   6.189   2.801 -0.5514  1.8752  1.4143
  128OSM    C1413599   1.060   6.152   2.813  0.8244  0.0206 -0.2426
  128OSM   H14A13600   1.031   6.253   2.839  0.0659 -0.2945  0.1472
  128OSM   H14B13601   0.981   6.106   2.869  0.0822 -0.3769 -1.5693
  128OSM   H14C13602   1.039   6.125   2.710 -2.6916 -0.6271  0.5418
  128OSM    C1313603   1.226   5.971   2.822 -0.1238  0.8568  0.4378
  128OSM   H13A13604   1.161   5.944   2.739 -1.2413  2.9655  0.5363
  128OSM   H13B13605   1.209   5.907   2.907 -0.7629  2.6655  1.7327
  128OSM   H13C13606   1.326   5.949   2.787 -0.9761  3.1557 -4.3286
  128OSM    C1213607   1.213   6.150   3.003 -0.1069  0.0842 -0.0309
  128OSM   H12A13608   1.309   6.112   3.035  0.6634  0.6797 -1.5288
  128OSM   H12B13609   1.124   6.100   3.038 -0.7876 -0.0188 -1.7998
  128OSM    C1113610   1.197   6.290   3.053 -0.1962  0.4162  0.6086
  128OSM   H11A13611   1.292   6.339   3.022 -1.0297  2.7765  1.6147
  128OSM   H11B13612   1.207   6.302   3.163 -0.1761 -1.2177  0.8151
  128OSM      P13613   0.951   6.380   3.057 -0.3407  0.1421  0.1243
  128OSM    O1313614   0.877   6.471   2.965  0.3620  0.4433 -0.1001
  128OSM    O1413615   0.901   6.239   3.077  0.7776  0.2373  0.3885
  128OSM    O1113616   0.971   6.444   3.202  0.0153  0.5193 -0.8326
  128OSM    O1213617   1.094   6.373   2.995  0.1125 -0.6156 -0.1624
  128OSM    C1S13618   1.059   6.555   3.223  0.0113  0.6369 -0.7343
  128OSM    H1S13619   1.006   6.648   3.191  2.3326  2.4967  0.5117
  128OSM    H1T13620   1.153   6.547   3.166 -1.6501 -1.8656 -3.3452
  128OSM     NF13621   1.165   6.693   3.399  0.4202 -0.5665  0.1799
  128OSM    HNF13622   1.264   6.698   3.410  0.3867 -0.6230  0.5065
  128OSM    C2S13623   1.101   6.565   3.369 -0.4074  0.2508  0.4651
  128OSM    H2S13624   1.010   6.549   3.430 -0.0019 -3.0101  0.3969
  128OSM    C3S13625   1.188   6.435   3.394  0.5545  0.7249  0.9783
  128OSM    H3S13626   1.271   6.420   3.322 -0.4521 -0.7062  0.0430
  128OSM     O313627   1.106   6.323   3.374  0.0488 -0.3974  0.1200
  128OSM    HO313628   1.041   6.360   3.314 -0.5300  0.8834  1.4647
  128OSM    C4S13629   1.245   6.419   3.536 -0.3130 -0.4017  0.0994
  128OSM    H4S13630   1.351   6.449   3.536  0.1827 -1.9792 -1.2337
  128OSM    C5S13631   1.194   6.370   3.648  0.2203 -0.0872  0.0055
  128OSM    H5S13632   1.096   6.323   3.631 -0.8862  2.4909 -1.1758
  128OSM    C6S13633   1.253   6.345   3.787  0.4221  0.2500  0.6101
  128OSM    H6S13634   1.350   6.398   3.795  0.1368  0.5368  2.4907
  128OSM    H6T13635   1.279   6.238   3.802  0.1529  0.1990  0.7158
  128OSM    C7S13636   1.171   6.403   3.905 -0.3936 -0.6377  0.9930
  128OSM    H7S13637   1.072   6.352   3.909 -1.2497  1.0473  2.2172
  128OSM    H7T13638   1.152   6.511   3.889  2.7907  0.1524  1.7989
  128OSM    C8S13639   1.245   6.404   4.035 -0.4353  0.3054 -0.0017
  128OSM    H8S13640   1.335   6.469   4.035  0.7620 -1.2250  2.5461
  128OSM    H8T13641   1.283   6.304   4.065 -0.1398  0.2260 -0.6182
  128OSM    C9S13642   1.158   6.448   4.162 -0.3674  0.5327  0.4726
  128OSM    H9S13643   1.077   6.374   4.147  0.9282 -0.8546  0.0122
  128OSM    H9T13644   1.116   6.551   4.153 -0.9182  0.2591 -0.1482
  128OSM   C10S13645   1.245   6.419   4.282  0.3601  0.6283 -0.5717
  128OSM   H10S13646   1.347   6.460   4.267  1.1943 -1.9201 -2.7001
  128OSM   H10T13647   1.258   6.309   4.283  2.5377  0.8371 -1.3895
  128OSM   C11S13648   1.189   6.473   4.414 -0.0602  0.0063 -0.0330
  128OSM   H11S13649   1.083   6.438   4.419 -0.0926  0.2136  0.8643
  128OSM   H11T13650   1.171   6.582   4.411 -0.1838 -0.0293 -0.8105
  128OSM   C12S13651   1.269   6.435   4.544 -0.1928 -0.9541  0.0690
  128OSM   H12S13652   1.372   6.451   4.506  0.0608 -2.8559 -0.1668
  128OSM   H12T13653   1.266   6.325   4.563  0.6416 -1.5683 -2.7774
  128OSM   C13S13654   1.242   6.522   4.667 -0.6923 -0.4656 -0.5729
  128OSM   H13S13655   1.134   6.546   4.681 -0.7612 -0.7174 -0.6796
  128OSM   H13T13656   1.291   6.621   4.655 -0.9576 -0.3716 -0.9009
  128OSM   C14S13657   1.291   6.458   4.791 -0.1530 -0.2934 -0.0166
  128OSM   H14S13658   1.397   6.426   4.780 -0.0851 -0.7033  1.5105
  128OSM   H14T13659   1.248   6.357   4.807  0.7234 -0.5702  0.7121
  128OSM   C15S13660   1.278   6.547   4.914 -0.0861 -0.3243 -0.6959
  128OSM   H15S13661   1.171   6.578   4.920  0.1036  0.1119  1.0784
  128OSM   H15T13662   1.349   6.632   4.913  0.7884 -0.8705  2.7535
  128OSM   C16S13663   1.300   6.461   5.044  0.1468 -0.5450  0.1428
  128OSM   H16S13664   1.365   6.516   5.116 -0.7137  0.4674  0.1694
  128OSM   H16T13665   1.336   6.360   5.016  2.0231  0.4678 -1.3311
  128OSM   C17S13666   1.167   6.435   5.117 -0.0629 -0.0604  0.3412
  128OSM   H17S13667   1.197   6.368   5.201 -1.1022 -0.6006  0.3073
  128OSM   H17T13668   1.094   6.384   5.049  0.7826  0.2024 -0.7859
  128OSM   C18S13669   1.115   6.567   5.176 -0.1775  0.2818  0.1802
  128OSM   H18S13670   1.015   6.555   5.223 -0.7271  3.1561 -0.0553
  128OSM   H18T13671   1.083   6.640   5.098 -4.3389 -0.5602  0.8566
  128OSM   H18U13672   1.179   6.600   5.260 -2.0947 -0.0686  1.8730
  128OSM    C1F13673   1.093   6.808   3.405 -0.1402  0.2882 -0.6255
  128OSM     OF13674   0.967   6.803   3.416 -0.7222 -0.0487 -0.1927
  128OSM    C2F13675   1.172   6.938   3.408  0.4031 -0.2187 -0.0636
  128OSM    H2F13676   1.210   6.970   3.309  1.0618 -0.8941 -0.0362
  128OSM    H2G13677   1.257   6.916   3.477 -1.3993  1.2315  2.8625
  128OSM    C3F13678   1.084   7.055   3.455  0.0940 -0.1622 -0.0796
  128OSM    H3F13679   0.991   7.058   3.395  0.4154  3.2815 -0.5751
  128OSM    H3G13680   1.137   7.147   3.422 -0.7331  1.0737  1.8659
  128OSM    C4F13681   1.062   7.052   3.604 -0.5356 -0.1216  0.0892
  128OSM    H4F13682   1.162   7.026   3.645  0.2833  0.1898 -1.6105
  128OSM    H4G13683   0.990   6.970   3.620  1.2599 -1.4417  1.9998
  128OSM    C5F13684   1.000   7.176   3.674 -0.4873 -0.2294 -0.4038
  128OSM    H5F13685   0.918   7.223   3.615 -0.8915  1.6903  1.5795
  128OSM    H5G13686   1.069   7.262   3.681  0.4893 -1.0238 -0.0076
  128OSM    C6F13687   0.968   7.157   3.825 -0.9769 -0.1432  0.2596
  128OSM    H6F13688   1.057   7.102   3.862 -0.8150 -1.4738 -1.9549
  128OSM    H6G13689   0.881   7.089   3.833 -0.0334 -1.4608 -0.2761
  128OSM    C7F13690   0.934   7.284   3.907 -0.4746  0.9529 -0.1947
  128OSM    H7F13691   0.841   7.318   3.857 -0.6002  1.5971  0.4515
  128OSM    H7G13692   1.018   7.357   3.907 -0.0174  0.4419  0.4403
  128OSM    C8F13693   0.906   7.235   4.057 -0.1881 -1.1048  0.1842
  128OSM    H8F13694   0.996   7.275   4.110 -0.5671  0.3558 -0.2234
  128OSM    H8G13695   0.914   7.126   4.074 -1.0320 -1.2451 -0.2748
  128OSM    C9F13696   0.777   7.268   4.118  0.2397  0.3218 -0.4846
  128OSM    H9F13697   0.689   7.231   4.064 -2.0522  2.5579  1.5026
  128OSM   C10F13698   0.750   7.344   4.226  0.0064 -0.2346  0.0747
  128OSM   H10F13699   0.645   7.347   4.258 -0.0696  1.8835 -0.2305
  128OSM   C11F13700   0.848   7.401   4.327  0.3890 -0.2651  0.1661
  128OSM   H11F13701   0.854   7.512   4.319  1.7139 -0.3293  0.0470
  128OSM   H11G13702   0.948   7.354   4.317  0.9443  0.2293  2.6710
  128OSM   C12F13703   0.811   7.365   4.475  0.4958 -0.2424 -0.1940
  128OSM   H12F13704   0.898   7.384   4.541  1.7743  0.7102 -2.0561
  128OSM   H12G13705   0.778   7.259   4.475 -0.8030  0.1104  1.9679
  128OSM   C13F13706   0.695   7.454   4.525 -0.6457 -0.1927 -0.1951
  128OSM   H13F13707   0.603   7.407   4.486 -0.2350 -0.0726 -1.3344
  128OSM   H13G13708   0.696   7.555   4.479 -1.2509  1.4259  3.0637
  128OSM   C14F13709   0.691   7.474   4.675  0.5428  0.4222  0.0143
  128OSM   H14F13710   0.613   7.548   4.702  0.7918  0.9283 -0.6293
  128OSM   H14G13711   0.789   7.514   4.710  0.8929 -0.6097  0.2592
  128OSM   C15F13712   0.650   7.347   4.751 -0.5263  0.1275 -0.1871
  128OSM   H15F13713   0.735   7.277   4.735  0.8821  1.1939  2.0970
  128OSM   H15G13714   0.562   7.304   4.699  0.7462 -0.2061 -2.1714
  128OSM   C16F13715   0.615   7.371   4.894 -0.7343  0.2526  0.1929
  128OSM   H16F13716   0.538   7.450   4.882 -2.2924 -1.2215  0.1268
  128OSM   H16G13717   0.701   7.407   4.955 -1.7438  0.0560  1.7825
  128OSM   C17F13718   0.547   7.251   4.956  0.1751  0.0447  0.0602
  128OSM   H17F13719   0.617   7.169   4.982  1.7719  1.3665  0.0448
  128OSM   H17G13720   0.472   7.209   4.885  0.9090  0.3163 -0.8874
  128OSM   C18F13721   0.472   7.296   5.084  0.2779  0.5029 -0.8247
  128OSM   H18F13722   0.432   7.399   5.076  0.9912  1.2274  3.0084
  128OSM   H18G13723   0.543   7.291   5.170  2.4144  1.0572 -2.4714
  128OSM   H18H13724   0.391   7.228   5.119 -0.5125  1.4100 -0.8439
  129OSM      N13725   3.462   0.419   2.444  0.0020  0.8102  0.2698
  129OSM    C1513726   3.550   0.515   2.375 -0.1296 -0.3988  0.0599
  129OSM   H15A13727   3.485   0.584   2.323 -0.2394 -2.4945 -2.7903
  129OSM   H15B13728   3.613   0.455   2.311 -0.0383 -1.6558  1.2740
  129OSM   H15C13729   3.595   0.577   2.452 -0.1509  0.6708 -0.7623
  129OSM    C1413730   3.373   0.350   2.338  0.8733  0.0984  0.3149
  129OSM   H14A13731   3.305   0.296   2.402  0.1922  3.8111  3.0963
  129OSM   H14B13732   3.425   0.289   2.266  1.1009  1.0879 -0.3834
  129OSM   H14C13733   3.309   0.415   2.281  0.2441 -0.5707  0.2599
  129OSM    C1313734   3.557   0.318   2.514 -0.0202  0.2190 -0.4873
  129OSM   H13A13735   3.593   0.360   2.607 -1.1340  1.4389 -0.5798
  129OSM   H13B13736   3.636   0.287   2.447  0.3308 -1.7156  0.7324
  129OSM   H13C13737   3.498   0.230   2.536  0.4054  0.0148 -0.1405
  129OSM    C1213738   3.375   0.487   2.550  0.1117 -0.2714  0.5549
  129OSM   H12A13739   3.316   0.557   2.493  0.0321 -0.5834  0.2477
  129OSM   H12B13740   3.439   0.551   2.608  0.1395  1.1420 -0.9751
  129OSM    C1113741   3.280   0.408   2.644  0.5343 -0.6020  1.4320
  129OSM   H11A13742   3.236   0.482   2.714  0.7394  1.3180 -0.3573
  129OSM   H11B13743   3.335   0.332   2.703  1.0894 -0.8496  0.6130
  129OSM      P13744   3.048   0.395   2.547 -0.0982 -0.1905 -0.0001
  129OSM    O1313745   3.064   0.522   2.466 -0.5250  0.5899 -0.0133
  129OSM    O1413746   2.971   0.290   2.483 -0.6152 -0.5896 -0.1546
  129OSM    O1113747   2.991   0.427   2.686  0.0941  0.4233  0.3292
  129OSM    O1213748   3.185   0.334   2.581  0.0911 -0.7017  0.0173
  129OSM    C1S13749   2.996   0.344   2.795 -0.2013  0.0785 -0.9763
  129OSM    H1S13750   3.096   0.351   2.842 -1.0087 -0.7332  1.0040
  129OSM    H1T13751   2.971   0.236   2.781 -0.7467 -0.1512  1.2560
  129OSM     NF13752   2.919   0.345   3.045 -0.1050  0.7456 -0.3344
  129OSM    HNF13753   2.891   0.253   3.070  1.2012  0.8072  1.5834
  129OSM    C2S13754   2.886   0.382   2.905  0.0802 -0.1620 -0.2272
  129OSM    H2S13755   2.872   0.492   2.908 -0.0259 -0.1282 -1.4801
  129OSM    C3S13756   2.747   0.329   2.848  0.2052  0.2749  0.0512
  129OSM    H3S13757   2.756   0.218   2.852 -1.3333  0.1514  1.4620
  129OSM     O313758   2.716   0.350   2.711 -0.2220  0.2245 -0.6430
  129OSM    HO313759   2.794   0.395   2.677 -0.4833 -0.3093 -2.0172
  129OSM    C4S13760   2.633   0.362   2.941  0.1895 -0.5015  0.7995
  129OSM    H4S13761   2.611   0.468   2.959 -0.5585 -0.7902  1.6590
  129OSM    C5S13762   2.540   0.269   2.978  0.1115  0.1645 -0.2669
  129OSM    H5S13763   2.552   0.163   2.954 -0.3579 -0.0624  0.4464
  129OSM    C6S13764   2.422   0.298   3.065 -0.0162  0.6746  0.2526
  129OSM    H6S13765   2.327   0.266   3.017  0.2734 -0.9461  0.7223
  129OSM    H6T13766   2.422   0.406   3.092  2.3852  0.5734  0.8692
  129OSM    C7S13767   2.422   0.211   3.198  0.3732 -0.2616  0.4215
  129OSM    H7S13768   2.424   0.102   3.175 -1.5275  0.1306 -1.9436
  129OSM    H7T13769   2.322   0.229   3.243  0.2670 -1.6305  0.7707
  129OSM    C8S13770   2.525   0.261   3.296 -0.6363 -0.9607 -0.0104
  129OSM    H8S13771   2.508   0.369   3.316  0.6538 -0.7248 -0.1100
  129OSM    H8T13772   2.620   0.230   3.249  0.3276  0.6980  0.7498
  129OSM    C9S13773   2.499   0.198   3.436 -0.0427  0.1511 -0.7775
  129OSM    H9S13774   2.550   0.100   3.447 -0.9175 -0.0826  1.8962
  129OSM    H9T13775   2.389   0.192   3.448  0.0089  0.3577 -0.1092
  129OSM   C10S13776   2.568   0.275   3.551 -0.3325  0.3276 -0.4023
  129OSM   H10S13777   2.536   0.380   3.534  1.4821  1.2367  1.3985
  129OSM   H10T13778   2.678   0.269   3.542 -0.2264 -1.7901  1.4478
  129OSM   C11S13779   2.547   0.212   3.688  0.1967  0.0884  0.1057
  129OSM   H11S13780   2.562   0.102   3.688  0.7724  0.1259 -1.8452
  129OSM   H11T13781   2.443   0.241   3.713  0.0979  2.4157 -2.5888
  129OSM   C12S13782   2.653   0.264   3.795  0.2468 -0.0513  0.7932
  129OSM   H12S13783   2.640   0.375   3.796 -0.6013 -0.1406  0.7744
  129OSM   H12T13784   2.753   0.242   3.751 -0.6040 -0.8021 -0.8733
  129OSM   C13S13785   2.634   0.203   3.934  0.2376 -0.0290 -0.0837
  129OSM   H13S13786   2.634   0.093   3.922 -1.0199 -0.2540  1.6419
  129OSM   H13T13787   2.535   0.241   3.968  0.4868 -0.8535  1.6770
  129OSM   C14S13788   2.749   0.238   4.032 -0.4056  0.4073 -0.2890
  129OSM   H14S13789   2.779   0.343   4.011  3.1091 -0.3402  0.5035
  129OSM   H14T13790   2.839   0.174   4.026  0.0228  0.8982  0.7221
  129OSM   C15S13791   2.704   0.219   4.176  0.2834 -0.6620 -0.4164
  129OSM   H15S13792   2.638   0.132   4.194  0.7687 -0.9906 -0.1878
  129OSM   H15T13793   2.635   0.304   4.195 -0.3490 -1.2978  0.2043
  129OSM   C16S13794   2.821   0.209   4.274  0.5393 -0.3467  0.2473
  129OSM   H16S13795   2.892   0.292   4.257 -1.1068  0.8715 -1.0399
  129OSM   H16T13796   2.879   0.115   4.259  0.3217 -0.6845  1.3824
  129OSM   C17S13797   2.774   0.192   4.423  0.4841 -0.3743 -0.3595
  129OSM   H17S13798   2.856   0.195   4.497  0.6741  1.8828 -0.5927
  129OSM   H17T13799   2.718   0.096   4.433 -0.8508  0.3527 -0.5481
  129OSM   C18S13800   2.668   0.298   4.462 -0.0747  0.2987 -0.5110
  129OSM   H18S13801   2.569   0.276   4.416 -0.5965  1.0481  0.2134
  129OSM   H18T13802   2.705   0.400   4.440  0.9616  0.6849  2.4658
  129OSM   H18U13803   2.645   0.288   4.571 -0.9247  0.5166 -0.6602
  129OSM    C1F13804   3.001   0.414   3.121  0.4024 -0.1605  0.4143
  129OSM     OF13805   3.048   0.525   3.084  0.1596  0.1519 -0.1559
  129OSM    C2F13806   3.034   0.356   3.250 -0.5201  0.5569 -0.0665
  129OSM    H2F13807   3.055   0.247   3.245  1.7074  0.9360  0.0561
  129OSM    H2G13808   2.948   0.372   3.319 -1.6401  1.1925 -1.5743
  129OSM    C3F13809   3.163   0.411   3.312  0.2087 -0.7651 -0.1025
  129OSM    H3F13810   3.153   0.519   3.339  0.7055 -0.6579 -0.3415
  129OSM    H3G13811   3.245   0.403   3.238  0.2186  2.0687 -0.5340
  129OSM    C4F13812   3.196   0.348   3.449  0.2304 -0.4125 -0.3101
  129OSM    H4F13813   3.302   0.380   3.461  0.2542 -1.0796  1.6388
  129OSM    H4G13814   3.196   0.238   3.441 -0.2158 -0.3480 -1.3330
  129OSM    C5F13815   3.112   0.398   3.563  1.2585  0.0990 -0.3771
  129OSM    H5F13816   3.015   0.345   3.558  0.7119  1.1373 -1.7953
  129OSM    H5G13817   3.097   0.506   3.540 -0.6324 -0.0023  0.2509
  129OSM    C6F13818   3.175   0.372   3.696  0.1987 -0.5833 -0.2653
  129OSM    H6F13819   3.271   0.427   3.705  0.4598 -1.2848  1.6064
  129OSM    H6G13820   3.189   0.263   3.715 -0.1017 -0.3554  1.4838
  129OSM    C7F13821   3.092   0.434   3.815 -1.1291 -0.2389  0.6017
  129OSM    H7F13822   2.982   0.422   3.818 -1.0813 -0.5555  1.3788
  129OSM    H7G13823   3.101   0.545   3.812  2.0070 -0.4082 -0.3021
  129OSM    C8F13824   3.147   0.401   3.956 -0.2350 -0.0809 -0.0501
  129OSM    H8F13825   3.119   0.482   4.027  0.5891  0.5566 -0.4492
  129OSM    H8G13826   3.257   0.417   3.953 -0.0057 -1.1878 -4.8522
  129OSM    C9F13827   3.120   0.264   4.006  0.6127  0.2249 -0.6850
  129OSM    H9F13828   3.065   0.204   3.932 -1.5120  1.1464  0.0639
  129OSM   C10F13829   3.159   0.220   4.124 -0.4867  0.4446  0.5872
  129OSM   H10F13830   3.126   0.117   4.142  1.4474 -0.1957  0.6974
  129OSM   C11F13831   3.234   0.282   4.241  0.1195  0.2252  0.1445
  129OSM   H11F13832   3.273   0.384   4.223  1.1588 -0.5205 -2.2243
  129OSM   H11G13833   3.327   0.223   4.255  0.4589  0.7855  0.2545
  129OSM   C12F13834   3.157   0.280   4.375  0.3673  0.4649 -0.3596
  129OSM   H12F13835   3.120   0.177   4.396  0.3342  0.0094 -2.4310
  129OSM   H12G13836   3.061   0.335   4.368 -0.2014  0.2972  3.7980
  129OSM   C13F13837   3.233   0.338   4.494 -0.7188 -0.7761 -0.1358
  129OSM   H13F13838   3.230   0.448   4.480  0.6377 -0.8131 -0.8138
  129OSM   H13G13839   3.341   0.313   4.488 -0.6530 -1.0766  1.7543
  129OSM   C14F13840   3.172   0.294   4.628 -0.8551 -0.0212  0.2861
  129OSM   H14F13841   3.122   0.197   4.611 -1.4400  0.4811 -1.0083
  129OSM   H14G13842   3.102   0.372   4.663 -1.6147 -1.1967  1.4606
  129OSM   C15F13843   3.281   0.276   4.737 -0.3989 -0.4760 -0.1486
  129OSM   H15F13844   3.320   0.373   4.773  1.1827 -1.1026 -0.1076
  129OSM   H15G13845   3.363   0.226   4.682 -1.3929 -1.3234 -0.8936
  129OSM   C16F13846   3.231   0.186   4.856 -0.1043 -0.6905  0.0795
  129OSM   H16F13847   3.203   0.086   4.816 -1.3647 -1.1662  1.9922
  129OSM   H16G13848   3.149   0.236   4.912  1.4593  0.8419  1.1056
  129OSM   C17F13849   3.337   0.163   4.960  0.1422  0.2409 -0.6239
  129OSM   H17F13850   3.387   0.259   4.984 -0.4354  0.8601 -1.8410
  129OSM   H17G13851   3.407   0.092   4.911 -0.1565 -0.8867  0.5091
  129OSM   C18F13852   3.288   0.094   5.096  0.8071 -0.0966  0.8705
  129OSM   H18F13853   3.180   0.120   5.104  0.7753  0.0839  0.0130
  129OSM   H18G13854   3.339   0.137   5.185  0.5417  1.2506  0.4076
  129OSM   H18H13855   3.287  -0.016   5.087  0.1837 -0.0395  0.0713
  130OSM      N13856   6.637   1.480   2.578  0.1891 -0.0671 -0.0912
  130OSM    C1513857   6.572   1.506   2.444  0.0572  0.0060 -0.0401
  130OSM   H15A13858   6.639   1.477   2.364 -1.4422 -1.5457 -0.7836
  130OSM   H15B13859   6.528   1.604   2.432 -2.5003 -1.0343  0.1811
  130OSM   H15C13860   6.498   1.429   2.428  0.9506 -0.7973 -0.4504
  130OSM    C1413861   6.525   1.483   2.683  0.2746  0.4673 -0.5206
  130OSM   H14A13862   6.469   1.391   2.680 -0.4196  0.7787  1.3616
  130OSM   H14B13863   6.464   1.571   2.670 -0.0307  0.0202 -2.4146
  130OSM   H14C13864   6.575   1.489   2.778 -1.1109  1.4221  0.1828
  130OSM    C1313865   6.693   1.337   2.587  0.3707 -0.5177 -0.1817
  130OSM   H13A13866   6.753   1.320   2.499  1.2195  1.8237 -0.1221
  130OSM   H13B13867   6.618   1.262   2.568  1.0440 -1.0390 -0.8496
  130OSM   H13C13868   6.738   1.311   2.682 -4.2398 -0.5203  2.2788
  130OSM    C1213869   6.751   1.580   2.597  0.0348 -0.7635 -0.3102
  130OSM   H12A13870   6.707   1.678   2.588  2.2046  0.2021 -1.0610
  130OSM   H12B13871   6.818   1.576   2.512  0.3079  1.1256 -0.2443
  130OSM    C1113872   6.843   1.575   2.723 -0.0932  0.4373 -0.6117
  130OSM   H11A13873   6.865   1.466   2.725 -1.1780  0.2105  1.0683
  130OSM   H11B13874   6.788   1.608   2.814  1.5398  0.6488  0.3290
  130OSM      P13875   7.089   1.603   2.654  0.0899 -0.6341 -0.3091
  130OSM    O1313876   7.073   1.495   2.546  0.3207 -0.1954 -0.2821
  130OSM    O1413877   7.186   1.714   2.623 -0.3744 -0.5947  0.8345
  130OSM    O1113878   7.121   1.544   2.796  0.8334 -0.5285  0.1211
  130OSM    O1213879   6.950   1.667   2.681 -0.0194 -0.1492 -0.6992
  130OSM    C1S13880   7.118   1.626   2.913 -0.5989 -0.3677 -0.0286
  130OSM    H1S13881   7.023   1.679   2.933  0.3173  0.4512  2.6153
  130OSM    H1T13882   7.206   1.694   2.913 -1.3875  0.6782 -0.1525
  130OSM     NF13883   7.134   1.633   3.162  0.4357 -0.0534 -0.1842
  130OSM    HNF13884   7.217   1.668   3.206 -0.8127  1.4107  1.1522
  130OSM    C2S13885   7.145   1.548   3.046 -0.1794 -0.4943  0.2321
  130OSM    H2S13886   7.062   1.475   3.056 -0.7722  0.3924  2.3957
  130OSM    C3S13887   7.273   1.460   3.049 -0.1057  0.0270 -0.0942
  130OSM    H3S13888   7.359   1.528   3.031  1.1545 -1.6107 -0.4599
  130OSM     O313889   7.288   1.366   2.934  0.8732 -0.1269 -0.1363
  130OSM    HO313890   7.232   1.409   2.869  0.1112 -0.1870  0.4534
  130OSM    C4S13891   7.306   1.390   3.180  0.5397 -0.0123 -0.0760
  130OSM    H4S13892   7.360   1.453   3.253 -0.9160  0.2287  0.8392
  130OSM    C5S13893   7.287   1.259   3.198 -0.1936 -0.4000  0.6534
  130OSM    H5S13894   7.241   1.193   3.123  0.4780  0.2671 -0.3860
  130OSM    C6S13895   7.327   1.187   3.318 -0.4577 -0.1696  0.5748
  130OSM    H6S13896   7.385   1.253   3.386  1.2655 -0.1059 -0.8887
  130OSM    H6T13897   7.392   1.098   3.304 -1.5263 -0.9813  0.6388
  130OSM    C7S13898   7.203   1.118   3.376 -0.3650  0.1945 -0.3063
  130OSM    H7S13899   7.167   1.038   3.307 -0.3738  0.6135 -0.7882
  130OSM    H7T13900   7.119   1.185   3.401 -0.0851 -0.2509  2.1014
  130OSM    C8S13901   7.241   1.047   3.513 -0.6174  0.6856  0.3601
  130OSM    H8S13902   7.296   0.951   3.498 -2.0558 -0.2875  1.0319
  130OSM    H8T13903   7.142   1.022   3.557  0.7424 -0.8620  2.8112
  130OSM    C9S13904   7.313   1.128   3.617 -0.1506 -0.5394 -0.7287
  130OSM    H9S13905   7.262   1.224   3.638  3.3581  1.4440 -0.6158
  130OSM    H9T13906   7.416   1.152   3.584 -0.4753  0.7933 -0.8105
  130OSM   C10S13907   7.340   1.046   3.751  0.3131 -0.5829 -0.1775
  130OSM   H10S13908   7.384   0.946   3.730  1.3572 -0.1451 -0.1446
  130OSM   H10T13909   7.252   1.024   3.815  0.4817 -1.6945 -0.3044
  130OSM   C11S13910   7.447   1.117   3.841  0.1377  0.8103  0.9063
  130OSM   H11S13911   7.404   1.217   3.863 -0.0555  0.6043  1.5078
  130OSM   H11T13912   7.536   1.129   3.775 -1.0227 -0.7813 -1.0493
  130OSM   C12S13913   7.489   1.036   3.963 -0.3265  0.3910 -0.4509
  130OSM   H12S13914   7.579   1.081   4.011 -1.7371  0.8164  1.9522
  130OSM   H12T13915   7.522   0.938   3.923 -2.4679  0.0378 -1.5037
  130OSM   C13S13916   7.387   1.029   4.080  0.1946  0.8080 -0.3469
  130OSM   H13S13917   7.425   0.962   4.161 -0.2842 -0.2789 -0.9983
  130OSM   H13T13918   7.291   0.986   4.046  0.6184 -1.0690  0.6490
  130OSM   C14S13919   7.381   1.172   4.154 -0.2392  0.4907 -0.2869
  130OSM   H14S13920   7.338   1.241   4.079  2.0909  1.9082 -0.4083
  130OSM   H14T13921   7.480   1.217   4.175  0.1588 -1.1862  1.8928
  130OSM   C15S13922   7.302   1.184   4.280  0.0401  0.1513 -0.2164
  130OSM   H15S13923   7.328   1.097   4.343  0.2822 -0.8155 -1.5952
  130OSM   H15T13924   7.194   1.173   4.256  0.1297  0.3527 -0.7247
  130OSM   C16S13925   7.321   1.320   4.347  0.1195 -0.0128  0.9126
  130OSM   H16S13926   7.286   1.404   4.283  2.1050 -0.4625 -0.8718
  130OSM   H16T13927   7.427   1.349   4.366 -0.7353  1.7060  3.6150
  130OSM   C17S13928   7.256   1.332   4.495 -0.2255 -0.1841  0.7572
  130OSM   H17S13929   7.270   1.436   4.529  0.0574  0.5356 -1.4053
  130OSM   H17T13930   7.305   1.260   4.563 -0.3696 -0.7887  0.2357
  130OSM   C18S13931   7.106   1.301   4.496  0.6015  0.8024  0.4669
  130OSM   H18S13932   7.045   1.368   4.432 -0.9513  0.6382  1.7185
  130OSM   H18T13933   7.061   1.306   4.598 -2.3571 -0.3214 -0.6684
  130OSM   H18U13934   7.089   1.194   4.472  0.9330  1.2524 -1.9887
  130OSM    C1F13935   7.024   1.692   3.199  0.3577  1.0457 -0.5955
  130OSM     OF13936   6.923   1.664   3.135  0.0110  0.0738 -0.3765
  130OSM    C2F13937   7.025   1.779   3.325 -0.0354  0.5496 -0.0718
  130OSM    H2F13938   6.994   1.880   3.291  0.6556  0.9644  0.5083
  130OSM    H2G13939   7.130   1.791   3.358  0.1456 -0.5961 -0.1892
  130OSM    C3F13940   6.950   1.706   3.438  0.4409  0.0527  0.5335
  130OSM    H3F13941   6.991   1.604   3.448 -0.0802 -0.1731  0.4053
  130OSM    H3G13942   6.844   1.696   3.406  1.0241 -0.9552 -1.2240
  130OSM    C4F13943   6.964   1.777   3.571 -0.6728  0.9230  0.4093
  130OSM    H4F13944   7.071   1.795   3.596  0.1474 -1.6173 -0.9489
  130OSM    H4G13945   6.924   1.712   3.652  1.5824 -1.9185 -0.6024
  130OSM    C5F13946   6.889   1.912   3.583 -0.3303  1.0682 -0.0443
  130OSM    H5F13947   6.782   1.900   3.554  0.1381 -1.4334 -0.8871
  130OSM    H5G13948   6.934   1.975   3.503  1.1699  0.6658  0.4572
  130OSM    C6F13949   6.880   1.973   3.720  0.4935  0.0271  0.9277
  130OSM    H6F13950   6.826   2.069   3.706 -0.7681 -0.8079 -0.1239
  130OSM    H6G13951   6.978   1.987   3.770  1.2672 -1.3604 -0.1646
  130OSM    C7F13952   6.801   1.895   3.820 -0.4812 -0.3795  0.7686
  130OSM    H7F13953   6.845   1.796   3.843 -0.7144 -0.8525 -0.6818
  130OSM    H7G13954   6.700   1.883   3.775 -0.2516 -2.9003  0.7716
  130OSM    C8F13955   6.765   1.989   3.936  0.2234 -0.5182 -0.3461
  130OSM    H8F13956   6.676   1.951   3.991 -0.8776  1.5484 -0.5911
  130OSM    H8G13957   6.718   2.087   3.912 -0.5220 -0.2265  2.0950
  130OSM    C9F13958   6.880   2.007   4.031 -0.0711  0.1821  0.1797
  130OSM    H9F13959   6.943   2.096   4.013 -0.8406  0.5981 -0.5135
  130OSM   C10F13960   6.930   1.928   4.122  0.7646  0.2460  0.2811
  130OSM   H10F13961   7.029   1.954   4.162  1.1875  0.3290 -0.7769
  130OSM   C11F13962   6.882   1.791   4.153 -0.4690 -0.3586 -0.5767
  130OSM   H11F13963   6.788   1.770   4.096 -0.5897  0.6023 -0.7444
  130OSM   H11G13964   6.856   1.795   4.261  3.4831  1.7370  0.4563
  130OSM   C12F13965   6.992   1.679   4.141  0.3332  0.4761  0.1183
  130OSM   H12F13966   6.963   1.582   4.187  1.9845  1.4558  3.5426
  130OSM   H12G13967   7.073   1.729   4.199  0.1198  1.5497 -0.4699
  130OSM   C13F13968   7.049   1.643   3.997  0.4474 -0.0239  0.1412
  130OSM   H13F13969   7.087   1.734   3.947 -1.7257  0.1479 -1.3296
  130OSM   H13G13970   6.963   1.599   3.942  0.8327 -2.4877  1.3509
  130OSM   C14F13971   7.155   1.527   4.006  0.5800  0.2744  0.5836
  130OSM   H14F13972   7.099   1.441   4.048 -0.1778  0.8016  0.6750
  130OSM   H14G13973   7.239   1.555   4.072  1.9847  0.3488 -1.1457
  130OSM   C15F13974   7.218   1.478   3.880  0.0079  0.1969  0.5973
  130OSM   H15F13975   7.144   1.425   3.816 -1.2949  0.5320  1.7923
  130OSM   H15G13976   7.300   1.405   3.898  3.6715  3.4049 -1.4155
  130OSM   C16F13977   7.278   1.583   3.777  1.1943  0.1391 -0.5215
  130OSM   H16F13978   7.363   1.636   3.825 -0.1566  2.4747 -0.5902
  130OSM   H16G13979   7.205   1.664   3.758  0.1285  0.1732  3.0270
  130OSM   C17F13980   7.311   1.520   3.643 -0.5664 -0.3606  0.3404
  130OSM   H17F13981   7.215   1.481   3.603  1.7422 -6.3452 -0.4626
  130OSM   H17G13982   7.364   1.422   3.641 -0.9624 -0.6170 -2.4193
  130OSM   C18F13983   7.388   1.614   3.552 -0.2597  0.3341 -0.1535
  130OSM   H18F13984   7.481   1.645   3.606 -0.1392 -2.5576  1.4866
  130OSM   H18G13985   7.322   1.701   3.529  0.9672  1.4666  0.4476
  130OSM   H18H13986   7.400   1.570   3.451  3.3923 -0.3448  0.4437
  131OSM      N13987   6.791   6.371   2.988  0.4143  0.2257  0.3556
  131OSM    C1513988   6.814   6.359   3.133 -0.2232  0.5154  0.5044
  131OSM   H15A13989   6.792   6.457   3.171  1.6230  1.3823 -0.5429
  131OSM   H15B13990   6.921   6.348   3.148 -0.3889 -1.5524  0.5617
  131OSM   H15C13991   6.747   6.290   3.182  0.0761  0.5860  1.0241
  131OSM    C1413992   6.642   6.377   2.968  0.1082  0.7041 -0.2295
  131OSM   H14A13993   6.621   6.409   2.867 -0.4317  1.0634 -0.0028
  131OSM   H14B13994   6.600   6.446   3.040 -2.8882 -1.7630  0.5784
  131OSM   H14C13995   6.591   6.282   2.976 -0.6473  0.7543 -3.1910
  131OSM    C1313996   6.844   6.499   2.937 -0.1402 -0.6648  0.1124
  131OSM   H13A13997   6.952   6.500   2.944 -0.2456  0.1544  1.8787
  131OSM   H13B13998   6.813   6.586   2.991 -0.0374 -1.3230  1.2574
  131OSM   H13C13999   6.808   6.509   2.835 -1.3387  1.4232  0.6862
  131OSM    C1214000   6.842   6.249   2.923 -0.3219  0.1064  0.8631
  131OSM   H12A14001   6.833   6.251   2.815  0.0793  1.9127  0.8318
  131OSM   H12B14002   6.782   6.164   2.953  0.5889 -1.0788 -0.5094
  131OSM    C1114003   6.997   6.212   2.950  0.0298 -0.4860  0.7696
  131OSM   H11A14004   7.013   6.114   2.901 -0.3240  0.1634 -0.6972
  131OSM   H11B14005   7.025   6.221   3.057  0.5015 -1.6571  0.7596
  131OSM      P14006   7.194   6.394   2.927  0.4349 -0.2522 -0.3381
  131OSM    O1314007   7.305   6.396   2.834  0.1835  0.1211  0.2184
  131OSM    O1414008   7.150   6.524   2.983 -0.2215  0.7396  0.1216
  131OSM    O1114009   7.239   6.298   3.044  0.5296 -0.7353 -0.0440
  131OSM    O1214010   7.075   6.304   2.866 -0.1557 -0.1815  0.3008
  131OSM    C1S14011   7.359   6.329   3.118  0.0725 -0.9303  0.5200
  131OSM    H1S14012   7.362   6.437   3.145  3.0610 -1.0107  0.8190
  131OSM    H1T14013   7.449   6.311   3.056  0.9205  0.8753  1.1511
  131OSM     NF14014   7.480   6.310   3.339  0.0346 -0.1204 -0.2529
  131OSM    HNF14015   7.558   6.253   3.362 -0.1479  1.0439  3.9338
  131OSM    C2S14016   7.372   6.254   3.251 -0.5387 -0.0676 -0.2539
  131OSM    H2S14017   7.280   6.279   3.308 -0.7832 -2.6778  0.5976
  131OSM    C3S14018   7.373   6.097   3.225  0.3699  0.3461 -0.8760
  131OSM    H3S14019   7.462   6.085   3.160  1.4546  0.4229  0.5310
  131OSM     O314020   7.270   6.055   3.138 -0.1889  0.0397 -0.0320
  131OSM    HO314021   7.220   6.136   3.123 -1.9649  0.0823  4.5558
  131OSM    C4S14022   7.375   6.025   3.356  0.1265  0.5663  0.6813
  131OSM    H4S14023   7.477   6.025   3.398  0.3764 -0.9128  0.1513
  131OSM    C5S14024   7.278   5.965   3.422 -0.3140  0.1201 -0.3612
  131OSM    H5S14025   7.178   5.953   3.378 -1.7193  0.3481  2.5680
  131OSM    C6S14026   7.298   5.891   3.550  1.3638  0.3928  0.3095
  131OSM    H6S14027   7.286   5.782   3.532  0.9959  0.2846  1.1672
  131OSM    H6T14028   7.215   5.916   3.620  2.5594  2.1192  1.1740
  131OSM    C7S14029   7.439   5.894   3.625 -0.0674 -0.4595 -0.1396
  131OSM    H7S14030   7.465   6.001   3.644 -0.0205 -0.8019  2.0163
  131OSM    H7T14031   7.505   5.845   3.550  1.7198  0.7159  0.5793
  131OSM    C8S14032   7.445   5.808   3.753 -0.0703  0.5561 -0.2536
  131OSM    H8S14033   7.549   5.806   3.790  0.8370  0.7519 -2.6414
  131OSM    H8T14034   7.412   5.705   3.726  0.3155  0.2850  0.3014
  131OSM    C9S14035   7.350   5.854   3.871  0.3181 -0.7433  0.5531
  131OSM    H9S14036   7.244   5.844   3.841 -0.5100  1.7435  2.3265
  131OSM    H9T14037   7.365   5.962   3.892 -0.1713 -0.5622  0.0045
  131OSM   C10S14038   7.365   5.775   3.996 -0.6412  0.0139 -0.4947
  131OSM   H10S14039   7.469   5.736   4.002  0.4860  2.9264  0.9958
  131OSM   H10T14040   7.320   5.674   3.986 -0.3979 -0.0762 -0.6912
  131OSM   C11S14041   7.329   5.849   4.126 -0.3349 -0.6384  0.0752
  131OSM   H11S14042   7.225   5.886   4.127  0.3142  1.5156 -1.9300
  131OSM   H11T14043   7.379   5.949   4.130 -1.8430  0.2255 -1.3201
  131OSM   C12S14044   7.338   5.758   4.251 -0.3427 -0.0777 -0.4949
  131OSM   H12S14045   7.447   5.743   4.266 -0.1623  2.0188  0.7059
  131OSM   H12T14046   7.297   5.655   4.239  3.6212 -2.0008  0.7228
  131OSM   C13S14047   7.274   5.833   4.376 -0.5691  0.2394  0.3166
  131OSM   H13S14048   7.166   5.851   4.359 -0.8711 -1.7321 -0.0575
  131OSM   H13T14049   7.316   5.935   4.374 -1.5438  0.6427 -0.3050
  131OSM   C14S14050   7.298   5.768   4.518  1.0980  0.1320  0.0747
  131OSM   H14S14051   7.407   5.777   4.539  1.2538  1.1539 -1.0797
  131OSM   H14T14052   7.280   5.659   4.510  2.2221 -0.4211  3.3755
  131OSM   C15S14053   7.220   5.840   4.635  0.4960  0.6918 -0.5654
  131OSM   H15S14054   7.111   5.832   4.616  0.6241  0.2688 -1.1769
  131OSM   H15T14055   7.244   5.948   4.637  0.0784  0.8364  2.9553
  131OSM   C16S14056   7.254   5.778   4.770  0.3831  0.4580  0.6714
  131OSM   H16S14057   7.365   5.778   4.777  0.5063  0.6251 -0.9543
  131OSM   H16T14058   7.224   5.671   4.769 -1.1101  0.8498  0.4417
  131OSM   C17S14059   7.194   5.842   4.890  0.3763 -0.0875 -0.3065
  131OSM   H17S14060   7.229   5.793   4.984  1.7001  0.9084 -0.2429
  131OSM   H17T14061   7.084   5.829   4.883 -0.0713  2.8021  0.0181
  131OSM   C18S14062   7.209   5.986   4.905 -0.2791 -0.0241 -0.1957
  131OSM   H18S14063   7.170   6.053   4.826 -0.0254  2.7963  1.9080
  131OSM   H18T14064   7.317   6.010   4.901  0.3261 -2.6061 -1.2348
  131OSM   H18U14065   7.167   6.015   5.004 -0.3535 -0.1001 -0.2055
  131OSM    C1F14066   7.469   6.418   3.409 -0.6668  0.3012  0.0363
  131OSM     OF14067   7.377   6.499   3.387 -0.4273 -0.0506 -0.3669
  131OSM    C2F14068   7.571   6.438   3.514  0.0543 -0.7596 -0.5343
  131OSM    H2F14069   7.586   6.548   3.508  0.0671 -0.7426 -0.1936
  131OSM    H2G14070   7.668   6.389   3.493  1.1532  1.7971 -1.8385
  131OSM    C3F14071   7.512   6.412   3.653  0.6576  0.2482 -0.6860
  131OSM    H3F14072   7.478   6.306   3.666 -0.0721  0.7657  2.3222
  131OSM    H3G14073   7.433   6.485   3.681  0.3524 -0.9682  1.9603
  131OSM    C4F14074   7.613   6.424   3.770  0.2011 -0.8358  0.8443
  131OSM    H4F14075   7.655   6.526   3.758  0.0996 -0.8463  0.3837
  131OSM    H4G14076   7.685   6.342   3.747 -0.3001 -1.6945  2.2036
  131OSM    C5F14077   7.549   6.414   3.907 -0.0305  0.1319 -0.0981
  131OSM    H5F14078   7.495   6.318   3.914 -2.4832  1.4766  0.3752
  131OSM    H5G14079   7.474   6.496   3.911  0.4506  0.5878 -0.2578
  131OSM    C6F14080   7.629   6.410   4.034  0.2735  0.1884 -0.1966
  131OSM    H6F14081   7.682   6.507   4.045  0.4591  0.0070  0.5321
  131OSM    H6G14082   7.700   6.325   4.023  0.7067  0.0138  3.0194
  131OSM    C7F14083   7.544   6.380   4.161 -0.4476 -0.4041  0.6988
  131OSM    H7F14084   7.495   6.280   4.154  0.5858 -0.9622  1.1624
  131OSM    H7G14085   7.464   6.453   4.139 -0.2498 -0.7643 -1.3804
  131OSM    C8F14086   7.606   6.384   4.305  0.0972 -0.3074  0.6697
  131OSM    H8F14087   7.527   6.397   4.383 -0.4463  1.7892 -0.1664
  131OSM    H8G14088   7.666   6.477   4.311  1.7290 -1.2305 -0.4624
  131OSM    C9F14089   7.701   6.275   4.340  0.4007 -0.1817 -0.0321
  131OSM    H9F14090   7.807   6.301   4.324  0.4036 -0.2740 -0.1595
  131OSM   C10F14091   7.676   6.165   4.413  0.1171 -0.4628  0.2412
  131OSM   H10F14092   7.754   6.087   4.417  0.3947 -0.2994 -1.4152
  131OSM   C11F14093   7.543   6.127   4.478  0.5189 -0.2010 -0.2986
  131OSM   H11F14094   7.520   6.018   4.479 -1.0984  0.0381  2.8855
  131OSM   H11G14095   7.458   6.175   4.425  0.3432  0.0145  0.1714
  131OSM   C12F14096   7.543   6.157   4.632  0.3333 -0.6275 -0.3059
  131OSM   H12F14097   7.448   6.140   4.687  0.4013  0.4351  0.1625
  131OSM   H12G14098   7.575   6.262   4.648  0.2513 -0.6812  0.2176
  131OSM   C13F14099   7.635   6.066   4.708  0.0421 -0.5170 -0.2742
  131OSM   H13F14100   7.732   6.065   4.654 -0.9020  0.2499 -2.0447
  131OSM   H13G14101   7.601   5.960   4.699  0.2225 -0.5412 -0.6726
  131OSM   C14F14102   7.663   6.109   4.860 -0.5025  0.5117  0.1671
  131OSM   H14F14103   7.563   6.119   4.908 -1.3923  1.2541 -1.7125
  131OSM   H14G14104   7.710   6.208   4.845  1.3443 -0.1015  1.6096
  131OSM   C15F14105   7.747   6.010   4.942 -0.5506 -0.4760  0.1084
  131OSM   H15F14106   7.686   5.917   4.939  0.1506 -0.9273 -0.5487
  131OSM   H15G14107   7.770   6.041   5.046 -0.5290 -0.7480  0.1848
  131OSM   C16F14108   7.879   5.974   4.880  0.4529  1.1097 -0.0941
  131OSM   H16F14109   7.873   5.946   4.773 -0.9277 -0.1593  0.2806
  131OSM   H16G14110   7.913   5.874   4.913 -0.4765  1.0477  0.7149
  131OSM   C17F14111   7.988   6.067   4.908 -0.0656 -0.7701 -0.3144
  131OSM   H17F14112   8.011   6.076   5.016  0.1299  1.4240 -0.5009
  131OSM   H17G14113   7.968   6.172   4.878  2.4553 -0.5011 -1.3017
  131OSM   C18F14114   8.128   6.030   4.864 -0.2672  0.6885  0.3764
  131OSM   H18F14115   8.135   6.018   4.754  2.1699  0.8341  0.4696
  131OSM   H18G14116   8.171   5.938   4.908 -0.8752  1.5100  2.8655
  131OSM   H18H14117   8.188   6.121   4.883  0.4009  0.2985  0.1663
  132OSM      N14118   0.692   6.771   3.082  0.6610  0.9066 -0.5245
  132OSM    C1514119   0.827   6.829   3.042 -0.2862  1.1142  0.1375
  132OSM   H15A14120   0.883   6.749   2.996 -2.2484 -0.3286  0.1413
  132OSM   H15B14121   0.881   6.867   3.128  0.3591 -0.1490  0.3153
  132OSM   H15C14122   0.810   6.904   2.966 -1.7924  0.8658  0.1899
  132OSM    C1414123   0.625   6.711   2.963 -0.5036  0.2755  0.1977
  132OSM   H14A14124   0.620   6.777   2.878  0.1864  0.2355  0.1212
  132OSM   H14B14125   0.524   6.697   2.998 -0.4258  1.6756  1.0890
  132OSM   H14C14126   0.672   6.616   2.941 -2.4810 -0.8034  0.3730
  132OSM    C1314127   0.709   6.662   3.185  0.2081 -0.5722 -0.0146
  132OSM   H13A14128   0.617   6.638   3.236 -0.5652  0.1186 -1.0393
  132OSM   H13B14129   0.784   6.684   3.259  2.6440  0.5969 -2.6480
  132OSM   H13C14130   0.740   6.569   3.139  1.9255  0.7441 -1.6468
  132OSM    C1214131   0.610   6.887   3.132  0.0270 -0.3816 -0.1632
  132OSM   H12A14132   0.610   6.968   3.061 -0.9682  0.3779  0.6764
  132OSM   H12B14133   0.663   6.938   3.212 -1.5752  3.9420 -1.5793
  132OSM    C1114134   0.464   6.859   3.171 -0.0196  0.2355  1.2046
  132OSM   H11A14135   0.421   6.921   3.252 -2.2528 -2.3818  2.1648
  132OSM   H11B14136   0.459   6.755   3.211  2.0307  0.0224  0.9993
  132OSM      P14137   0.331   6.994   2.980  0.3049  0.1142 -0.2782
  132OSM    O1314138   0.421   7.034   2.871 -0.4450  0.2645 -0.2746
  132OSM    O1414139   0.185   6.978   2.954  0.3522  0.3707  0.1096
  132OSM    O1114140   0.339   7.110   3.079  0.5522 -0.2023 -0.0373
  132OSM    O1214141   0.389   6.871   3.053  0.1843 -0.0977 -0.2709
  132OSM    C1S14142   0.237   7.125   3.180 -0.0153 -0.0687 -0.0292
  132OSM    H1S14143   0.190   7.030   3.213 -2.1201  0.9011 -0.1061
  132OSM    H1T14144   0.161   7.202   3.153 -1.2542 -1.7143 -1.3741
  132OSM     NF14145   0.205   7.194   3.410  0.1722 -0.3157  0.3248
  132OSM    HNF14146   0.159   7.283   3.408 -1.1901 -0.9581 -2.7166
  132OSM    C2S14147   0.307   7.177   3.312 -0.5189  0.5518 -0.1111
  132OSM    H2S14148   0.388   7.107   3.341  0.6972  2.0672  0.2974
  132OSM    C3S14149   0.380   7.315   3.274  0.1649  0.4851  0.3802
  132OSM    H3S14150   0.294   7.385   3.267  1.7698  2.4687 -0.2181
  132OSM     O314151   0.449   7.327   3.151  0.2267 -0.0823  0.6008
  132OSM    HO314152   0.404   7.259   3.100  0.2780  0.7627 -0.6284
  132OSM    C4S14153   0.459   7.373   3.386 -0.4275  0.3019 -0.2054
  132OSM    H4S14154   0.382   7.405   3.458 -2.6479 -1.4716 -1.6586
  132OSM    C5S14155   0.593   7.374   3.392 -0.4946 -0.8713  0.3987
  132OSM    H5S14156   0.649   7.336   3.306 -0.6967  0.3044 -0.2785
  132OSM    C6S14157   0.678   7.422   3.502  0.7150 -0.1293 -0.6280
  132OSM    H6S14158   0.757   7.491   3.466  0.1628 -0.9941 -3.9123
  132OSM    H6T14159   0.744   7.336   3.526  3.3250  1.9426 -0.0618
  132OSM    C7S14160   0.626   7.494   3.626  0.2620  1.2747 -0.0811
  132OSM    H7S14161   0.548   7.569   3.598 -1.3163 -0.0118  0.7387
  132OSM    H7T14162   0.708   7.542   3.684 -0.1164  0.5237  1.0988
  132OSM    C8S14163   0.563   7.394   3.733 -0.1311 -0.0452  0.3055
  132OSM    H8S14164   0.639   7.345   3.797 -0.7559 -1.3589  0.0856
  132OSM    H8T14165   0.509   7.314   3.677 -0.7495  2.4587 -3.0273
  132OSM    C9S14166   0.472   7.470   3.834 -0.1379  0.2441  0.4238
  132OSM    H9S14167   0.392   7.522   3.778 -0.6494  0.5047  1.3885
  132OSM    H9T14168   0.534   7.546   3.886 -1.9285  1.9934  0.1015
  132OSM   C10S14169   0.413   7.371   3.936 -0.1527  0.2987  0.6137
  132OSM   H10S14170   0.498   7.310   3.973 -0.2933  0.0784  0.5703
  132OSM   H10T14171   0.344   7.300   3.886 -2.7274  0.8656  3.0591
  132OSM   C11S14172   0.340   7.427   4.066 -0.4871  0.1807 -0.2617
  132OSM   H11S14173   0.250   7.483   4.034 -1.1509 -1.2851 -1.0973
  132OSM   H11T14174   0.412   7.494   4.117 -0.3637  1.7164 -2.3014
  132OSM   C12S14175   0.281   7.317   4.157 -0.8552 -0.6146  0.1758
  132OSM   H12S14176   0.242   7.231   4.097  2.9728 -3.0473  0.8492
  132OSM   H12T14177   0.199   7.374   4.204  1.1639  0.7388  2.2482
  132OSM   C13S14178   0.371   7.278   4.279  0.2339 -0.1830 -0.6039
  132OSM   H13S14179   0.419   7.369   4.322  1.7060 -1.0249 -0.3971
  132OSM   H13T14180   0.452   7.215   4.237  1.1042  1.8786 -2.2017
  132OSM   C14S14181   0.294   7.197   4.384 -0.0378 -0.0890 -0.3026
  132OSM   H14S14182   0.297   7.098   4.333  2.9325  0.7614 -2.0044
  132OSM   H14T14183   0.196   7.238   4.416 -0.5567 -0.8799 -0.8505
  132OSM   C15S14184   0.379   7.170   4.514 -0.6304 -0.1373  0.2053
  132OSM   H15S14185   0.412   7.265   4.561 -1.2480 -1.0955  2.7672
  132OSM   H15T14186   0.474   7.130   4.474  0.5860  2.4378  0.3481
  132OSM   C16S14187   0.312   7.082   4.617 -0.6552  0.7824 -0.4690
  132OSM   H16S14188   0.379   7.073   4.706  2.0625  0.1673 -2.4611
  132OSM   H16T14189   0.309   6.981   4.573 -1.2326 -0.0869  1.4513
  132OSM   C17S14190   0.174   7.114   4.662  0.1451  1.0211  0.0939
  132OSM   H17S14191   0.104   7.113   4.576  0.9033  3.6602 -0.6363
  132OSM   H17T14192   0.175   7.212   4.715  2.4422  1.5008 -0.7582
  132OSM   C18S14193   0.118   7.005   4.763  0.7965  0.3564 -0.4236
  132OSM   H18S14194   0.087   6.922   4.696 -0.5913 -0.0035  0.6433
  132OSM   H18T14195   0.029   7.034   4.821  0.8556 -0.8480  0.2925
  132OSM   H18U14196   0.196   6.988   4.841  0.3653  2.5790  0.5594
  132OSM    C1F14197   0.154   7.086   3.468  0.1062  0.1605  0.3113
  132OSM     OF14198   0.214   6.983   3.470  0.1278  0.3101  0.0411
  132OSM    C2F14199   0.029   7.105   3.553 -0.4073  0.7506 -0.0331
  132OSM    H2F14200  -0.048   7.028   3.530 -0.0756  0.6152 -0.7147
  132OSM    H2G14201  -0.021   7.195   3.510  1.7467  1.2824 -1.6001
  132OSM    C3F14202   0.042   7.109   3.712  0.1989 -0.1683  0.3802
  132OSM    H3F14203  -0.057   7.153   3.735  0.3957  2.5279 -3.0890
  132OSM    H3G14204   0.119   7.185   3.737 -0.0179 -0.6919  2.9072
  132OSM    C4F14205   0.069   6.973   3.778 -0.0010  0.2153  0.1834
  132OSM    H4F14206   0.172   6.935   3.759  0.4735  1.2427  0.6297
  132OSM    H4G14207  -0.010   6.905   3.739  0.0338  0.1835  0.1690
  132OSM    C5F14208   0.031   6.980   3.930 -0.2067  0.7911 -0.0394
  132OSM    H5F14209  -0.076   7.008   3.930 -0.8317 -1.4028  0.5993
  132OSM    H5G14210   0.083   7.069   3.973 -0.1956  1.3207 -1.1265
  132OSM    C6F14211   0.059   6.853   4.005 -0.0318 -0.2890 -0.4080
  132OSM    H6F14212   0.168   6.829   4.005  0.2550  0.9189 -0.5245
  132OSM    H6G14213   0.008   6.772   3.950 -1.1771 -0.4375  0.8079
  132OSM    C7F14214   0.012   6.844   4.151 -0.1569 -0.0243 -0.6493
  132OSM    H7F14215  -0.014   6.737   4.158  0.0212 -0.1066 -1.2271
  132OSM    H7G14216  -0.083   6.899   4.171  0.2366  0.3815  0.1698
  132OSM    C8F14217   0.119   6.890   4.263 -0.0042 -0.1383  0.5838
  132OSM    H8F14218   0.112   6.999   4.285  0.9630  0.3029 -1.1099
  132OSM    H8G14219   0.222   6.879   4.222 -0.2791  4.8038 -2.2494
  132OSM    C9F14220   0.098   6.821   4.399 -0.3210 -0.0548  0.3887
  132OSM    H9F14221  -0.005   6.839   4.434 -0.7445 -0.1622 -0.7601
  132OSM   C10F14222   0.179   6.744   4.470 -0.3864  0.0578  0.2546
  132OSM   H10F14223   0.139   6.688   4.556 -1.1866 -0.6532 -0.5566
  132OSM   C11F14224   0.321   6.703   4.436  0.2403  0.5462  0.9223
  132OSM   H11F14225   0.394   6.749   4.505  0.1856  1.2049  0.5495
  132OSM   H11G14226   0.354   6.742   4.337 -0.8696  2.5938  1.3014
  132OSM   C12F14227   0.358   6.557   4.443 -0.0042 -0.4431 -0.2665
  132OSM   H12F14228   0.454   6.534   4.391 -1.4374 -1.9277 -2.3983
  132OSM   H12G14229   0.287   6.503   4.376  0.8215 -1.5800 -0.2458
  132OSM   C13F14230   0.356   6.506   4.583 -0.0304 -0.2224 -0.5065
  132OSM   H13F14231   0.309   6.406   4.593 -0.3338 -0.0284  0.0515
  132OSM   H13G14232   0.308   6.568   4.661  0.2048 -0.7601  0.0705
  132OSM   C14F14233   0.505   6.508   4.631 -0.1640  0.6525  0.1875
  132OSM   H14F14234   0.545   6.611   4.620  2.5627 -0.2055  1.3915
  132OSM   H14G14235   0.568   6.432   4.581 -0.8470  0.8901 -1.0820
  132OSM   C15F14236   0.507   6.485   4.781  0.7087 -0.8320  0.2387
  132OSM   H15F14237   0.451   6.391   4.800 -0.1678 -0.4197 -0.2503
  132OSM   H15G14238   0.452   6.569   4.829 -0.2948 -0.4754 -1.4763
  132OSM   C16F14239   0.646   6.463   4.844 -0.2142 -0.2366  0.1260
  132OSM   H16F14240   0.726   6.482   4.770  2.5988  0.1995  3.0770
  132OSM   H16G14241   0.661   6.355   4.866 -2.2422 -0.1211  2.5391
  132OSM   C17F14242   0.669   6.541   4.973 -0.0004 -0.0422 -0.1809
  132OSM   H17F14243   0.599   6.502   5.050 -0.2417  0.6834 -0.0181
  132OSM   H17G14244   0.644   6.648   4.956  0.8647  0.1497 -0.2739
  132OSM   C18F14245   0.811   6.542   5.024  0.8335  0.4394  0.2595
  132OSM   H18F14246   0.825   6.438   5.061 -0.4838  0.6364  1.3718
  132OSM   H18G14247   0.830   6.619   5.101 -0.6152 -0.9679  2.0910
  132OSM   H18H14248   0.885   6.559   4.943  0.0934 -0.8420 -0.7316
  133OSM      N14249   0.057   2.658   2.971 -0.0391 -0.3141  0.3525
  133OSM    C1514250   0.155   2.748   2.905 -0.2026 -0.3070  0.0477
  133OSM   H15A14251   0.193   2.702   2.815 -1.4394  2.3972 -2.0168
  133OSM   H15B14252   0.234   2.782   2.970 -0.6097 -1.4345  1.1722
  133OSM   H15C14253   0.099   2.832   2.864  0.4229 -1.0017 -2.4228
  133OSM    C1414254  -0.055   2.630   2.875  0.1684  0.1637 -0.3752
  133OSM   H14A14255  -0.023   2.570   2.791  0.8267 -0.8718  0.5878
  133OSM   H14B14256  -0.093   2.719   2.827  0.0512  1.9482  2.7294
  133OSM   H14C14257  -0.138   2.579   2.924 -0.6192  0.0552 -1.7716
  133OSM    C1314258   0.123   2.531   3.001  0.3044  0.2414 -0.0556
  133OSM   H13A14259   0.057   2.465   3.054  0.8635 -1.0828 -0.9576
  133OSM   H13B14260   0.212   2.540   3.062  0.3466 -0.9464  0.0894
  133OSM   H13C14261   0.152   2.481   2.910 -0.7350  0.2474 -0.4025
  133OSM    C1214262   0.003   2.726   3.092  0.0704 -0.1689  0.1741
  133OSM   H12A14263  -0.029   2.827   3.069 -0.0464 -0.3535 -0.4971
  133OSM   H12B14264   0.082   2.729   3.166  1.6476 -1.1609 -1.4123
  133OSM    C1114265  -0.126   2.664   3.152 -0.0318  0.3534  0.0385
  133OSM   H11A14266  -0.210   2.668   3.080 -0.2273  0.8657  0.2913
  133OSM   H11B14267  -0.154   2.727   3.239 -1.4704 -1.6330  1.0689
  133OSM      P14268  -0.174   2.403   3.163  0.0131 -0.3367  0.2023
  133OSM    O1314269  -0.169   2.399   3.016 -0.3828  0.0293 -0.3027
  133OSM    O1414270  -0.123   2.283   3.238  0.0485  0.0019  0.4867
  133OSM    O1114271  -0.317   2.440   3.215 -0.1640 -0.0095 -0.4057
  133OSM    O1214272  -0.095   2.530   3.197  0.2260 -0.3926 -0.0156
  133OSM    C1S14273  -0.364   2.417   3.351  0.7029 -0.7882 -0.0365
  133OSM    H1S14274  -0.326   2.494   3.422 -0.3532  0.0169 -0.3232
  133OSM    H1T14275  -0.320   2.322   3.388  0.5119 -1.1461 -0.7139
  133OSM     NF14276  -0.553   2.390   3.508 -0.8593  0.6097  0.2364
  133OSM    HNF14277  -0.574   2.299   3.544 -0.7673  0.5447  0.1243
  133OSM    C2S14278  -0.520   2.398   3.368 -0.3694  0.1310  0.1195
  133OSM    H2S14279  -0.559   2.496   3.334 -0.9010  0.1246  0.6955
  133OSM    C3S14280  -0.576   2.281   3.276 -0.0574 -0.3384  0.0341
  133OSM    H3S14281  -0.542   2.182   3.313 -0.6841 -1.6981 -2.7521
  133OSM     O314282  -0.542   2.272   3.135 -0.4342 -0.5426  0.1721
  133OSM    HO314283  -0.503   2.356   3.108  0.3330 -0.1448  2.3176
  133OSM    C4S14284  -0.734   2.281   3.294 -0.5759  0.0355  0.0158
  133OSM    H4S14285  -0.766   2.219   3.379  1.1030 -0.1168  0.5732
  133OSM    C5S14286  -0.827   2.349   3.214 -0.2271 -0.3371 -0.5228
  133OSM    H5S14287  -0.795   2.407   3.126  0.6757  1.0378  0.6634
  133OSM    C6S14288  -0.970   2.350   3.252  0.5695  0.3457  0.3139
  133OSM    H6S14289  -1.027   2.272   3.197  2.1077 -0.9323  0.4501
  133OSM    H6T14290  -1.004   2.451   3.221 -2.0245 -0.0757  1.5228
  133OSM    C7S14291  -1.008   2.343   3.404  0.3761  0.6527  0.1406
  133OSM    H7S14292  -0.958   2.431   3.449 -1.5185  2.0814 -0.4534
  133OSM    H7T14293  -0.969   2.249   3.450 -0.2557 -0.1661 -0.9498
  133OSM    C8S14294  -1.165   2.346   3.419  0.1445  0.6053  0.4633
  133OSM    H8S14295  -1.210   2.254   3.377  0.7459  1.5455 -2.5170
  133OSM    H8T14296  -1.208   2.432   3.365 -0.2877  1.2512  1.7946
  133OSM    C9S14297  -1.212   2.361   3.569  0.1201 -0.0247 -0.1265
  133OSM    H9S14298  -1.175   2.455   3.614 -0.9676  0.6097 -0.5312
  133OSM    H9T14299  -1.167   2.277   3.627  1.1503 -0.7232 -1.8455
  133OSM   C10S14300  -1.358   2.356   3.594 -0.2033  0.1519 -0.3510
  133OSM   H10S14301  -1.389   2.253   3.624 -0.6915  0.9636  2.1632
  133OSM   H10T14302  -1.416   2.390   3.506 -2.7373  1.1706  1.5802
  133OSM   C11S14303  -1.411   2.439   3.717 -0.9143  0.6432 -0.0151
  133OSM   H11S14304  -1.521   2.426   3.716 -0.8497 -0.0910  1.1584
  133OSM   H11T14305  -1.391   2.549   3.712 -1.0702  0.7310  1.1408
  133OSM   C12S14306  -1.348   2.390   3.852  0.2672  0.1987  0.0671
  133OSM   H12S14307  -1.257   2.453   3.864  1.5292 -1.8063  1.6304
  133OSM   H12T14308  -1.307   2.289   3.831  3.0316  1.6044 -1.9538
  133OSM   C13S14309  -1.435   2.401   3.973  0.2415  0.1515  0.3007
  133OSM   H13S14310  -1.532   2.349   3.954  0.8018 -0.1963 -1.9347
  133OSM   H13T14311  -1.451   2.510   3.986 -0.4947  0.4834 -2.5758
  133OSM   C14S14312  -1.377   2.332   4.100  0.3024  0.3871 -0.5203
  133OSM   H14S14313  -1.429   2.357   4.195 -0.1740  1.0620 -0.9441
  133OSM   H14T14314  -1.278   2.378   4.120  0.2496 -0.2445  1.4177
  133OSM   C15S14315  -1.351   2.177   4.093 -1.0294 -0.1972 -0.5796
  133OSM   H15S14316  -1.276   2.170   4.011 -0.5391 -2.0317 -0.0387
  133OSM   H15T14317  -1.445   2.123   4.071  0.2074 -1.5771 -2.9205
  133OSM   C16S14318  -1.297   2.137   4.231  0.1962 -0.0017 -0.6864
  133OSM   H16S14319  -1.383   2.136   4.301  1.2863 -3.1926  0.8043
  133OSM   H16T14320  -1.228   2.219   4.260 -0.0039  1.0116 -2.8876
  133OSM   C17S14321  -1.242   1.996   4.236 -0.2368  0.7925 -0.1953
  133OSM   H17S14322  -1.164   1.968   4.161 -1.5064 -0.0271 -1.2407
  133OSM   H17T14323  -1.326   1.924   4.230 -0.7055  1.3734 -0.7390
  133OSM   C18S14324  -1.179   1.969   4.375  0.9198  0.1666 -0.6223
  133OSM   H18S14325  -1.245   2.015   4.451  2.1918 -0.1434  0.7115
  133OSM   H18T14326  -1.084   2.025   4.381  1.4320 -0.8146  0.8895
  133OSM   H18U14327  -1.161   1.860   4.387  1.3786  0.0894 -1.8308
  133OSM    C1F14328  -0.535   2.495   3.590 -0.2575 -0.7322  0.4766
  133OSM     OF14329  -0.503   2.603   3.541 -0.1707  0.4377  0.2348
  133OSM    C2F14330  -0.565   2.469   3.733 -0.0212 -0.8419  0.0078
  133OSM    H2F14331  -0.508   2.380   3.769  1.0488 -0.8097 -1.5102
  133OSM    H2G14332  -0.674   2.454   3.744  0.0011 -1.3787 -0.4368
  133OSM    C3F14333  -0.526   2.593   3.830 -0.2537 -0.0594  0.2345
  133OSM    H3F14334  -0.577   2.686   3.797 -0.3376 -0.8471 -2.0366
  133OSM    H3G14335  -0.419   2.617   3.813 -0.0961  0.4832  1.8700
  133OSM    C4F14336  -0.553   2.578   3.984 -0.3813 -0.0140  0.1919
  133OSM    H4F14337  -0.506   2.481   4.006 -0.4375  0.3741  2.1940
  133OSM    H4G14338  -0.660   2.559   4.007 -0.9144  2.0189 -0.3192
  133OSM    C5F14339  -0.494   2.694   4.072 -0.2785  0.3575 -0.2320
  133OSM    H5F14340  -0.541   2.792   4.048 -2.2875 -0.3822  0.4607
  133OSM    H5G14341  -0.388   2.709   4.042  0.0929  0.5541  1.1097
  133OSM    C6F14342  -0.506   2.676   4.222 -0.3674  0.0058 -0.5927
  133OSM    H6F14343  -0.453   2.585   4.259 -0.7016  0.3889  0.8781
  133OSM    H6G14344  -0.610   2.670   4.261 -0.2667 -0.5770 -0.3963
  133OSM    C7F14345  -0.448   2.796   4.300 -0.5673  0.0126  0.6916
  133OSM    H7F14346  -0.507   2.888   4.283  0.6116  1.4610  3.7071
  133OSM    H7G14347  -0.343   2.814   4.270 -1.0073  0.0907 -0.9084
  133OSM    C8F14348  -0.450   2.790   4.449  0.0994  0.2713 -1.0569
  133OSM    H8F14349  -0.402   2.882   4.488  1.1453 -0.3567 -0.8159
  133OSM    H8G14350  -0.381   2.705   4.471 -0.9906 -0.8569 -1.8372
  133OSM    C9F14351  -0.586   2.781   4.516 -0.0906  0.1924 -0.0187
  133OSM    H9F14352  -0.663   2.853   4.484  0.0486  0.0734 -0.6392
  133OSM   C10F14353  -0.620   2.681   4.602  0.6655  0.5846  0.1898
  133OSM   H10F14354  -0.719   2.692   4.647  0.7424  2.4631 -0.0377
  133OSM   C11F14355  -0.532   2.574   4.649  0.0946 -1.1567 -0.0179
  133OSM   H11F14356  -0.573   2.537   4.746  0.3099  0.4201  0.6918
  133OSM   H11G14357  -0.440   2.626   4.681 -0.2577 -0.5996  0.0869
  133OSM   C12F14358  -0.522   2.451   4.562  0.3480  1.0812  0.0323
  133OSM   H12F14359  -0.488   2.475   4.459 -0.2692  1.7869 -0.0098
  133OSM   H12G14360  -0.623   2.408   4.547  1.0480 -0.2793 -1.0545
  133OSM   C13F14361  -0.427   2.330   4.610  0.1278  0.0228 -0.0623
  133OSM   H13F14362  -0.460   2.295   4.710 -1.8970 -2.5145 -1.5143
  133OSM   H13G14363  -0.322   2.366   4.608  0.3259 -0.5691 -0.9923
  133OSM   C14F14364  -0.446   2.204   4.526 -0.3873  0.0931  0.6320
  133OSM   H14F14365  -0.554   2.178   4.535  0.4019 -2.9469  3.5656
  133OSM   H14G14366  -0.375   2.128   4.565 -2.2220 -0.9079  2.2433
  133OSM   C15F14367  -0.411   2.219   4.374  0.2383 -0.6752 -0.3068
  133OSM   H15F14368  -0.306   2.255   4.368  0.2590 -0.4176  1.0995
  133OSM   H15G14369  -0.486   2.281   4.321  2.0912 -0.7223 -3.2111
  133OSM   C16F14370  -0.414   2.079   4.312  0.1045  0.8347  0.2516
  133OSM   H16F14371  -0.518   2.041   4.310  1.3440 -2.8660 -1.2323
  133OSM   H16G14372  -0.360   1.995   4.360  0.4079 -0.4307 -2.1392
  133OSM   C17F14373  -0.374   2.088   4.165 -0.0230 -0.0647 -0.0025
  133OSM   H17F14374  -0.266   2.107   4.142 -0.0607 -1.6637 -1.8090
  133OSM   H17G14375  -0.434   2.174   4.127 -0.3313 -0.2045  0.1681
  133OSM   C18F14376  -0.421   1.970   4.088  0.2027 -0.1479  0.2155
  133OSM   H18F14377  -0.366   1.884   4.133 -0.8709 -2.1993 -2.1708
  133OSM   H18G14378  -0.391   1.983   3.982  1.1240 -1.4798  0.2846
  133OSM   H18H14379  -0.531   1.956   4.098 -0.0197  1.3429  0.0996
  134OSM      N14380   3.332   2.508   2.317  0.2936  0.4769 -0.6967
  134OSM    C1514381   3.226   2.584   2.249 -0.2229 -0.0381 -0.7067
  134OSM   H15A14382   3.184   2.663   2.310  0.0072 -0.8680  0.5551
  134OSM   H15B14383   3.136   2.529   2.226 -0.5795 -0.1928  0.9311
  134OSM   H15C14384   3.266   2.625   2.157  1.0472  0.2580 -0.0425
  134OSM    C1414385   3.372   2.404   2.216 -0.7782 -0.7293 -0.1778
  134OSM   H14A14386   3.396   2.450   2.121 -2.4844 -1.3740 -0.9553
  134OSM   H14B14387   3.284   2.343   2.208 -2.8881  1.1719  4.6324
  134OSM   H14C14388   3.458   2.345   2.244 -0.0113  1.0973  1.5680
  134OSM    C1314389   3.448   2.600   2.336  0.0206 -0.2159  0.7547
  134OSM   H13A14390   3.411   2.689   2.385 -1.2274  0.8961 -2.0046
  134OSM   H13B14391   3.491   2.637   2.244  0.2018  0.4364  1.0901
  134OSM   H13C14392   3.519   2.549   2.400 -0.8023 -3.3275 -0.6592
  134OSM    C1214393   3.286   2.449   2.451 -0.1782 -0.4628  0.2339
  134OSM   H12A14394   3.360   2.380   2.489 -0.3784 -1.0363 -0.4048
  134OSM   H12B14395   3.190   2.407   2.426 -2.7899  4.9889 -0.4453
  134OSM    C1114396   3.253   2.547   2.571  0.0069  0.0852  0.4523
  134OSM   H11A14397   3.213   2.488   2.656 -0.6838 -0.2934 -0.1250
  134OSM   H11B14398   3.173   2.620   2.547  0.7098  1.0443  0.9862
  134OSM      P14399   3.472   2.588   2.711 -0.5285  0.2444  0.9588
  134OSM    O1314400   3.527   2.457   2.674  0.1347  0.2183 -0.6573
  134OSM    O1414401   3.564   2.700   2.727 -0.6792 -1.3218 -0.6476
  134OSM    O1114402   3.381   2.574   2.842 -0.0339  0.8669  0.0652
  134OSM    O1214403   3.368   2.623   2.598  0.4731  0.1705 -0.2191
  134OSM    C1S14404   3.382   2.689   2.929 -0.3168 -0.5523 -0.1890
  134OSM    H1S14405   3.311   2.767   2.893 -0.2168  0.6244  2.0046
  134OSM    H1T14406   3.477   2.744   2.945 -0.2779 -0.8457  0.6165
  134OSM     NF14407   3.274   2.797   3.130 -0.4007 -0.0841 -0.3172
  134OSM    HNF14408   3.326   2.822   3.211 -1.4417  1.0251  0.0367
  134OSM    C2S14409   3.317   2.671   3.070  0.7349 -0.1663  0.2421
  134OSM    H2S14410   3.225   2.609   3.058  0.5206  0.4053 -1.2229
  134OSM    C3S14411   3.416   2.584   3.152 -0.1583  0.0400  0.4912
  134OSM    H3S14412   3.510   2.641   3.161 -0.5945  0.5561  1.9855
  134OSM     O314413   3.454   2.462   3.098 -0.1830  0.4379 -0.2302
  134OSM    HO314414   3.420   2.464   3.009  0.5170  2.3541 -0.5022
  134OSM    C4S14415   3.369   2.576   3.292  0.0206 -0.1458 -0.8631
  134OSM    H4S14416   3.424   2.630   3.371 -1.1997 -0.3321  0.1454
  134OSM    C5S14417   3.251   2.518   3.336 -0.3881 -0.7786  0.2983
  134OSM    H5S14418   3.187   2.471   3.260  0.2358 -0.3630 -0.5013
  134OSM    C6S14419   3.206   2.518   3.478  0.3617  0.0262 -0.0961
  134OSM    H6S14420   3.114   2.580   3.482 -0.6785 -1.3980 -0.7395
  134OSM    H6T14421   3.275   2.566   3.550 -1.5869  0.3062  1.7020
  134OSM    C7S14422   3.179   2.368   3.514  0.1890  1.1556  0.5821
  134OSM    H7S14423   3.266   2.307   3.483  0.3044  0.1775  2.6986
  134OSM    H7T14424   3.093   2.332   3.455  1.8995  0.0348 -1.3621
  134OSM    C8S14425   3.158   2.345   3.662 -0.6310 -0.0734 -0.2296
  134OSM    H8S14426   3.108   2.247   3.676 -0.1100 -0.9086 -3.4164
  134OSM    H8T14427   3.092   2.427   3.701  0.8246  0.3901  1.3729
  134OSM    C9S14428   3.278   2.357   3.757  0.2626 -0.0586  0.5912
  134OSM    H9S14429   3.254   2.314   3.857 -0.8321 -3.2032 -0.9021
  134OSM    H9T14430   3.320   2.459   3.771  0.9372 -0.3781  0.9344
  134OSM   C10S14431   3.395   2.270   3.704 -0.2039 -0.0551  0.2727
  134OSM   H10S14432   3.479   2.283   3.776 -0.8004  0.1581  0.9408
  134OSM   H10T14433   3.422   2.282   3.597  0.7034 -3.0648  0.0469
  134OSM   C11S14434   3.360   2.124   3.689  0.8700  0.0944  0.1715
  134OSM   H11S14435   3.289   2.110   3.604  1.5937  0.8556 -0.5743
  134OSM   H11T14436   3.311   2.082   3.779  1.1776 -0.7972 -0.0637
  134OSM   C12S14437   3.483   2.048   3.648  0.5758  0.3830  0.0913
  134OSM   H12S14438   3.558   2.062   3.729  1.3003  1.7880 -0.7831
  134OSM   H12T14439   3.537   2.100   3.566 -1.3331  0.2463 -1.3290
  134OSM   C13S14440   3.459   1.899   3.621 -0.3149 -0.0873  0.3301
  134OSM   H13S14441   3.547   1.860   3.566 -1.4259 -3.3107  0.6358
  134OSM   H13T14442   3.370   1.894   3.554 -0.4921 -1.9576  0.6384
  134OSM   C14S14443   3.438   1.818   3.751  0.4832 -0.3720 -0.0619
  134OSM   H14S14444   3.354   1.851   3.815  0.2775  1.0002 -0.9931
  134OSM   H14T14445   3.529   1.844   3.810  0.4522 -0.4360  0.0141
  134OSM   C15S14446   3.421   1.665   3.734  0.8726  0.3087 -0.4701
  134OSM   H15S14447   3.503   1.622   3.673  1.4007 -0.8896  1.0368
  134OSM   H15T14448   3.323   1.644   3.685 -0.2870 -0.0887  1.9023
  134OSM   C16S14449   3.391   1.581   3.861 -0.2380  0.1829  0.5233
  134OSM   H16S14450   3.395   1.475   3.828 -0.9436  0.1244  0.6098
  134OSM   H16T14451   3.285   1.591   3.894 -1.1046  1.6308 -2.3544
  134OSM   C17S14452   3.481   1.603   3.982  0.6709 -0.1349  0.2257
  134OSM   H17S14453   3.436   1.551   4.070  1.4749 -1.1065  0.0821
  134OSM   H17T14454   3.481   1.707   4.020  0.5919  0.5816 -1.6191
  134OSM   C18S14455   3.620   1.529   3.973 -0.2532 -0.1422  0.0851
  134OSM   H18S14456   3.597   1.422   3.953 -1.5066  0.5606 -2.6084
  134OSM   H18T14457   3.672   1.546   4.070 -2.0953  0.8921  0.9371
  134OSM   H18U14458   3.684   1.570   3.892  0.7221 -0.9095  0.4401
  134OSM    C1F14459   3.187   2.881   3.085  0.4012  0.2055 -0.0562
  134OSM     OF14460   3.098   2.844   3.008 -0.3557 -0.0271 -0.1910
  134OSM    C2F14461   3.183   3.025   3.144 -1.1947  0.4382  0.3898
  134OSM    H2F14462   3.114   3.092   3.089 -1.8094  1.0435  1.8309
  134OSM    H2G14463   3.287   3.061   3.130 -1.0743  1.7318  3.6681
  134OSM    C3F14464   3.160   3.023   3.300  0.4456  0.4898 -0.8165
  134OSM    H3F14465   3.119   3.124   3.325  1.3696  1.0988 -1.7071
  134OSM    H3G14466   3.255   2.998   3.351 -0.9106 -2.2133  0.5627
  134OSM    C4F14467   3.041   2.940   3.342 -0.3716  0.2586  0.0827
  134OSM    H4F14468   3.059   2.831   3.326  0.8191  0.0947  2.2057
  134OSM    H4G14469   2.946   2.972   3.294 -0.8887  1.0323  1.5521
  134OSM    C5F14470   2.996   2.959   3.492 -0.2446 -0.0955 -0.2157
  134OSM    H5F14471   2.896   2.912   3.502  0.5546 -1.8545 -0.0753
  134OSM    H5G14472   2.989   3.068   3.513 -2.5990  0.7275 -4.2446
  134OSM    C6F14473   3.077   2.885   3.599  0.1948  0.7568 -0.6778
  134OSM    H6F14474   3.186   2.900   3.579  0.4408 -1.6741 -1.6128
  134OSM    H6G14475   3.067   2.774   3.595 -1.4877  0.8404  0.4067
  134OSM    C7F14476   3.031   2.934   3.737 -0.0349 -0.2250 -0.4559
  134OSM    H7F14477   2.933   2.883   3.749  0.8023 -1.4238  1.8105
  134OSM    H7G14478   3.021   3.044   3.749 -3.9804 -0.5645  0.9424
  134OSM    C8F14479   3.119   2.875   3.853  0.0766  0.0439 -0.2157
  134OSM    H8F14480   3.202   2.948   3.858 -0.4042  0.4896  1.9941
  134OSM    H8G14481   3.162   2.779   3.818 -0.6482 -0.0180 -0.9574
  134OSM    C9F14482   3.049   2.871   3.987 -0.5388 -0.2201 -0.5476
  134OSM    H9F14483   3.008   2.971   4.008 -1.6595 -0.6100 -0.8030
  134OSM   C10F14484   3.057   2.770   4.078  0.2373 -1.2420  0.2852
  134OSM   H10F14485   3.017   2.785   4.179  0.1528  1.2227 -0.0492
  134OSM   C11F14486   3.135   2.644   4.065  0.3522 -0.1892 -0.1022
  134OSM   H11F14487   3.231   2.652   4.120  0.4859 -1.0133 -0.2024
  134OSM   H11G14488   3.146   2.607   3.961 -1.3897  1.5594 -0.9762
  134OSM   C12F14489   3.053   2.532   4.143  0.3501 -0.7255 -0.1689
  134OSM   H12F14490   2.953   2.512   4.101  0.1698 -0.2323  0.0171
  134OSM   H12G14491   3.031   2.554   4.250  1.4747 -1.1195  0.1669
  134OSM   C13F14492   3.118   2.398   4.127 -0.0138 -0.1391 -0.6398
  134OSM   H13F14493   3.227   2.408   4.146 -0.1520 -0.8006  0.6309
  134OSM   H13G14494   3.103   2.357   4.025 -1.7870 -0.2370 -0.3702
  134OSM   C14F14495   3.071   2.282   4.225 -0.3789 -0.1348 -0.1791
  134OSM   H14F14496   2.962   2.269   4.207 -0.5599  0.6098  0.3429
  134OSM   H14G14497   3.081   2.324   4.327 -1.3627  1.9616 -0.8887
  134OSM   C15F14498   3.142   2.149   4.202 -0.9755  0.4995 -0.1576
  134OSM   H15F14499   3.163   2.113   4.304 -0.3822  1.9978  0.2799
  134OSM   H15G14500   3.242   2.170   4.158 -0.2324 -0.5530  0.9962
  134OSM   C16F14501   3.063   2.048   4.129 -0.6142 -0.1129  0.0761
  134OSM   H16F14502   3.018   2.091   4.037  2.8804  1.8128 -0.8909
  134OSM   H16G14503   2.978   2.010   4.190 -0.3551 -2.9587 -1.2104
  134OSM   C17F14504   3.150   1.928   4.082 -0.4966 -0.3364 -0.1712
  134OSM   H17F14505   3.162   1.870   4.176  0.3743  0.3867  0.1851
  134OSM   H17G14506   3.254   1.957   4.054 -0.1507 -1.3983 -0.0310
  134OSM   C18F14507   3.096   1.847   3.966  0.6829  1.1083  0.3963
  134OSM   H18F14508   3.093   1.912   3.875  0.0595  0.3238 -0.1608
  134OSM   H18G14509   3.001   1.801   3.999  1.1372 -1.6746 -1.7533
  134OSM   H18H14510   3.166   1.762   3.949 -0.2807  0.3858 -0.0406
  135OSM      N14511   6.013   3.287   2.739 -0.1183 -0.1535 -1.0669
  135OSM    C1514512   5.963   3.358   2.856  0.1116 -0.6400 -0.2228
  135OSM   H15A14513   5.923   3.453   2.823 -1.2902 -1.9844 -2.6862
  135OSM   H15B14514   6.031   3.380   2.937 -1.4202  0.8179  0.7287
  135OSM   H15C14515   5.882   3.305   2.904 -0.7119  0.9504  0.2226
  135OSM    C1414516   5.908   3.228   2.653 -0.2133  0.0360 -0.0236
  135OSM   H14A14517   5.848   3.168   2.720  1.1952  1.2605  2.5080
  135OSM   H14B14518   5.949   3.163   2.577 -0.9293  2.4220 -2.5765
  135OSM   H14C14519   5.861   3.305   2.595 -1.4101 -0.4813  0.2360
  135OSM    C1314520   6.091   3.373   2.646 -0.1041  0.1156  0.0604
  135OSM   H13A14521   6.032   3.441   2.586  2.6411  0.1547 -2.8313
  135OSM   H13B14522   6.144   3.311   2.575 -1.7069 -1.2002 -0.0376
  135OSM   H13C14523   6.157   3.434   2.705 -0.5676 -1.6084  2.4856
  135OSM    C1214524   6.099   3.168   2.793 -0.3683 -0.2477 -0.0375
  135OSM   H12A14525   6.187   3.222   2.828  0.1140  0.3220 -2.0280
  135OSM   H12B14526   6.141   3.112   2.711  0.7595  1.3690 -0.6282
  135OSM    C1114527   6.056   3.074   2.920  0.5471  0.1669  0.5991
  135OSM   H11A14528   6.062   3.138   3.011  2.1805  0.4812  0.3142
  135OSM   H11B14529   6.137   3.000   2.939 -1.3390 -1.9956  0.5829
  135OSM      P14530   5.801   3.028   2.980 -0.1128 -0.4098 -0.4860
  135OSM    O1314531   5.731   3.149   2.942 -0.4783  0.0078  0.2248
  135OSM    O1414532   5.720   2.905   2.972 -0.7957  0.1326 -0.1284
  135OSM    O1114533   5.868   3.043   3.125  0.4985 -0.3463  0.5406
  135OSM    O1214534   5.930   3.017   2.889 -0.1618  0.6516 -0.0194
  135OSM    C1S14535   5.776   3.093   3.227  1.0774 -0.2128 -0.0341
  135OSM    H1S14536   5.691   3.023   3.242 -0.0303  1.1906  0.5862
  135OSM    H1T14537   5.726   3.189   3.201 -0.5752 -0.5073  1.8433
  135OSM     NF14538   5.734   3.139   3.467  0.0796  0.2917  0.1523
  135OSM    HNF14539   5.728   3.237   3.487  0.7472  0.4137 -0.2311
  135OSM    C2S14540   5.836   3.094   3.369  0.4178 -0.1745  0.0491
  135OSM    H2S14541   5.867   2.990   3.394 -1.1733 -0.9401 -1.0647
  135OSM    C3S14542   5.971   3.180   3.374 -0.1124  0.5578  0.3986
  135OSM    H3S14543   5.947   3.287   3.353  1.9077  0.4952 -3.0241
  135OSM     O314544   6.059   3.139   3.267  0.3806 -0.6679  0.5398
  135OSM    HO314545   6.000   3.090   3.209  1.0185 -0.1025 -0.6346
  135OSM    C4S14546   6.032   3.169   3.513  0.3753  0.2460  0.1505
  135OSM    H4S14547   6.003   3.254   3.576 -3.9567 -0.4330 -0.6248
  135OSM    C5S14548   6.101   3.068   3.561  0.1221  0.6042  0.6378
  135OSM    H5S14549   6.104   2.970   3.510 -3.6923 -0.1286  1.4937
  135OSM    C6S14550   6.167   3.079   3.695  0.3797 -0.8018  0.6244
  135OSM    H6S14551   6.220   3.176   3.692  3.3500 -2.3056  0.9112
  135OSM    H6T14552   6.241   2.999   3.716  1.8249 -0.1682 -1.6965
  135OSM    C7S14553   6.069   3.096   3.821 -0.4042 -0.8346  0.7475
  135OSM    H7S14554   6.005   3.006   3.837 -0.0479 -1.3984 -0.8647
  135OSM    H7T14555   5.996   3.176   3.794  0.2975 -0.0295  1.2034
  135OSM    C8S14556   6.143   3.119   3.952 -0.2316  0.6488 -0.5548
  135OSM    H8S14557   6.216   3.202   3.943  0.2705  0.3013  0.1902
  135OSM    H8T14558   6.194   3.024   3.981 -0.7272  0.5662  0.0652
  135OSM    C9S14559   6.042   3.139   4.067  0.0727  0.8263 -0.7826
  135OSM    H9S14560   5.974   3.052   4.079 -0.9616  1.6015 -0.9267
  135OSM    H9T14561   5.981   3.230   4.051 -2.1291 -0.3128  0.6189
  135OSM   C10S14562   6.116   3.148   4.198 -0.0519  0.9158 -0.5444
  135OSM   H10S14563   6.186   3.234   4.188 -0.6381  1.1745 -3.1983
  135OSM   H10T14564   6.184   3.061   4.203 -1.1656 -0.0401 -1.5369
  135OSM   C11S14565   6.028   3.155   4.316  0.2774  0.1583 -0.6561
  135OSM   H11S14566   5.946   3.229   4.303  0.0807 -0.2269 -1.7557
  135OSM   H11T14567   6.077   3.194   4.407  0.6889 -1.6308 -0.0565
  135OSM   C12S14568   5.965   3.020   4.357  0.3707 -0.1727  0.3668
  135OSM   H12S14569   6.034   2.934   4.347 -0.6424 -1.1357  1.5141
  135OSM   H12T14570   5.880   2.996   4.290  0.3578 -0.1654  0.3801
  135OSM   C13S14571   5.908   3.031   4.498  0.7543  0.1819  0.1084
  135OSM   H13S14572   5.836   3.112   4.473 -0.4297 -0.8949 -0.0694
  135OSM   H13T14573   5.993   3.065   4.561  1.0556 -0.1877 -0.0972
  135OSM   C14S14574   5.826   2.918   4.557 -0.1566 -0.3609  0.4370
  135OSM   H14S14575   5.880   2.828   4.521 -0.0779 -1.1067  2.3341
  135OSM   H14T14576   5.730   2.920   4.501  1.4740  0.2453 -2.5407
  135OSM   C15S14577   5.818   2.927   4.708 -0.2116 -0.4789  0.0987
  135OSM   H15S14578   5.790   3.030   4.737  1.1128 -0.1430  0.2430
  135OSM   H15T14579   5.910   2.899   4.764 -0.6825 -0.4627  0.8946
  135OSM   C16S14580   5.704   2.837   4.753  0.0030  0.1826 -0.2784
  135OSM   H16S14581   5.707   2.740   4.697 -2.7292 -1.6957  2.4919
  135OSM   H16T14582   5.611   2.886   4.718  1.1793  1.5119 -1.6671
  135OSM   C17S14583   5.692   2.810   4.902 -0.7261  0.0159  0.2551
  135OSM   H17S14584   5.597   2.756   4.922 -0.4394 -1.0308 -1.1444
  135OSM   H17T14585   5.678   2.914   4.940  0.3468  0.2739 -0.0118
  135OSM   C18S14586   5.811   2.743   4.968  0.2020 -0.3929 -0.1406
  135OSM   H18S14587   5.911   2.772   4.927  0.5596  0.4137  1.2448
  135OSM   H18T14588   5.805   2.634   4.948  0.5161 -0.3876 -0.2715
  135OSM   H18U14589   5.805   2.754   5.078 -0.6066 -1.1635 -0.0970
  135OSM    C1F14590   5.625   3.064   3.493  0.3088 -0.5484 -0.0951
  135OSM     OF14591   5.600   2.958   3.450  0.4149  0.4380 -0.3202
  135OSM    C2F14592   5.519   3.144   3.575 -0.6533  0.4053  0.3017
  135OSM    H2F14593   5.497   3.244   3.531 -2.9375 -0.0621  0.2344
  135OSM    H2G14594   5.554   3.166   3.678  1.0827 -2.1271  0.3376
  135OSM    C3F14595   5.384   3.072   3.576  0.1666 -0.0607  0.4541
  135OSM    H3F14596   5.363   3.055   3.468 -0.2809  0.8777  0.3866
  135OSM    H3G14597   5.315   3.145   3.623 -1.4647 -0.9985 -0.3781
  135OSM    C4F14598   5.374   2.949   3.663 -0.4742 -0.2412  0.5165
  135OSM    H4F14599   5.440   2.869   3.623 -1.1506 -0.8971  0.6931
  135OSM    H4G14600   5.268   2.917   3.664 -1.1692  1.8704 -0.2448
  135OSM    C5F14601   5.421   2.971   3.811  0.1376 -0.7430  0.6622
  135OSM    H5F14602   5.360   3.058   3.843 -1.7551 -1.6500 -0.2997
  135OSM    H5G14603   5.529   2.988   3.792 -0.4968  2.8951 -0.3041
  135OSM    C6F14604   5.402   2.841   3.889  0.0412 -1.1084 -0.4617
  135OSM    H6F14605   5.452   2.759   3.834  0.4965 -1.2224  0.1116
  135OSM    H6G14606   5.294   2.816   3.880 -0.4584  0.4567  0.6041
  135OSM    C7F14607   5.444   2.845   4.035 -0.5975  0.1750 -0.2287
  135OSM    H7F14608   5.555   2.857   4.033 -0.4012 -1.4116 -0.3453
  135OSM    H7G14609   5.432   2.747   4.086  0.2119  0.4236  0.4605
  135OSM    C8F14610   5.375   2.946   4.122  0.5747  0.1141 -0.0286
  135OSM    H8F14611   5.266   2.944   4.100  0.6829  0.5237 -0.6323
  135OSM    H8G14612   5.411   3.047   4.092 -1.4400  0.5553 -1.1498
  135OSM    C9F14613   5.406   2.932   4.268 -0.8102  0.2618 -0.5837
  135OSM    H9F14614   5.453   2.836   4.295  2.6079  1.8823 -0.3304
  135OSM   C10F14615   5.365   3.008   4.370 -0.5180 -0.0928 -0.2205
  135OSM   H10F14616   5.399   2.988   4.473 -0.6252 -1.4820 -0.4369
  135OSM   C11F14617   5.301   3.143   4.352  0.1490  0.1383 -0.5725
  135OSM   H11F14618   5.219   3.160   4.425  0.5206 -0.8025  0.0846
  135OSM   H11G14619   5.250   3.145   4.254 -0.9222 -0.5744 -0.0529
  135OSM   C12F14620   5.404   3.258   4.359  0.5319 -0.2207 -0.0017
  135OSM   H12F14621   5.481   3.250   4.279  0.8357  1.9560  0.0086
  135OSM   H12G14622   5.465   3.243   4.451  0.9680 -1.0675 -0.4149
  135OSM   C13F14623   5.344   3.397   4.374  0.3735 -0.3189 -0.7292
  135OSM   H13F14624   5.422   3.477   4.381  0.9824 -0.9882  0.3163
  135OSM   H13G14625   5.281   3.407   4.465 -0.1026  0.2362 -1.1110
  135OSM   C14F14626   5.247   3.428   4.267 -0.1665 -0.3115  0.4244
  135OSM   H14F14627   5.148   3.397   4.307 -1.0032 -0.8040 -1.8935
  135OSM   H14G14628   5.251   3.371   4.172 -0.9881  0.2914  0.0128
  135OSM   C15F14629   5.240   3.584   4.247  0.1399 -0.0013 -0.2245
  135OSM   H15F14630   5.260   3.634   4.344  0.5935  0.3385 -0.4928
  135OSM   H15G14631   5.135   3.603   4.213  0.7272 -0.5465 -2.5033
  135OSM   C16F14632   5.343   3.637   4.141  0.2882 -0.1183 -0.4623
  135OSM   H16F14633   5.451   3.625   4.166  0.5382  0.7904 -1.0872
  135OSM   H16G14634   5.332   3.746   4.125  1.9409  0.3724  1.2928
  135OSM   C17F14635   5.325   3.559   4.010  0.0785 -0.0758  0.0825
  135OSM   H17F14636   5.217   3.559   3.986  0.5540  0.9410 -2.4452
  135OSM   H17G14637   5.359   3.456   4.032  0.1865 -0.7933 -2.9230
  135OSM   C18F14638   5.391   3.612   3.885  0.2458  0.1996 -0.0900
  135OSM   H18F14639   5.334   3.699   3.846  0.4130 -0.4080 -1.7517
  135OSM   H18G14640   5.397   3.542   3.799  0.1137  0.2981 -0.1792
  135OSM   H18H14641   5.495   3.634   3.916 -0.4458  0.1913  2.5350
  136OSM      N14642   2.805   4.652   2.713  0.6095  0.2988  0.1218
  136OSM    C1514643   2.736   4.782   2.680 -0.2316 -0.2079 -0.4852
  136OSM   H15A14644   2.738   4.814   2.577 -0.1718  1.1770 -0.0841
  136OSM   H15B14645   2.783   4.857   2.743  0.8435  0.3379 -1.8755
  136OSM   H15C14646   2.640   4.799   2.726  0.9017  4.3545  0.7950
  136OSM    C1414647   2.823   4.649   2.863 -0.1102 -0.1761  0.9943
  136OSM   H14A14648   2.743   4.686   2.925  0.8898  0.0659  2.1892
  136OSM   H14B14649   2.909   4.710   2.887 -1.0455  1.7249 -0.2306
  136OSM   H14C14650   2.817   4.546   2.895 -3.0956 -0.3832  0.0940
  136OSM    C1314651   2.717   4.536   2.665  0.0211 -0.5304 -0.0820
  136OSM   H13A14652   2.618   4.531   2.709 -0.5377 -0.1399 -1.2521
  136OSM   H13B14653   2.758   4.440   2.690  1.2240 -0.0885 -0.3078
  136OSM   H13C14654   2.712   4.538   2.557  0.3143  0.2602 -0.0859
  136OSM    C1214655   2.945   4.648   2.646  0.6413  0.3478  0.8171
  136OSM   H12A14656   2.933   4.659   2.539 -1.2488 -2.5379  0.6133
  136OSM   H12B14657   2.982   4.547   2.657  0.1303 -0.1480 -1.4767
  136OSM    C1114658   3.045   4.762   2.692  0.8610  0.4902  0.2057
  136OSM   H11A14659   3.005   4.865   2.676  0.1380  0.1662 -0.0816
  136OSM   H11B14660   3.124   4.752   2.615 -0.6009 -2.1631 -1.0813
  136OSM      P14661   3.186   4.624   2.860 -0.0633  0.0646  0.4641
  136OSM    O1314662   3.106   4.497   2.867  0.4739 -0.2948 -0.1176
  136OSM    O1414663   3.310   4.629   2.771 -0.0063  0.0239 -0.4152
  136OSM    O1114664   3.227   4.665   3.004 -0.2854 -0.6824  0.1136
  136OSM    O1214665   3.091   4.747   2.824  0.1735 -0.1047 -0.3407
  136OSM    C1S14666   3.130   4.723   3.099 -0.1507  0.2959 -0.0436
  136OSM    H1S14667   3.024   4.700   3.074  0.1316 -1.3353  0.1010
  136OSM    H1T14668   3.144   4.832   3.109  2.5451 -0.2209  4.5716
  136OSM     NF14669   3.027   4.682   3.331  0.4283  0.2716 -0.3955
  136OSM    HNF14670   3.033   4.717   3.424 -2.5162  1.2583 -0.4969
  136OSM    C2S14671   3.142   4.650   3.242  0.2964  0.2942  0.0879
  136OSM    H2S14672   3.134   4.541   3.222  1.1131  0.2442 -0.0036
  136OSM    C3S14673   3.280   4.681   3.298  0.1351  0.2470 -0.0331
  136OSM    H3S14674   3.268   4.781   3.345 -0.7495 -0.7457  1.9864
  136OSM     O314675   3.387   4.695   3.204 -0.4441 -0.0554  0.3356
  136OSM    HO314676   3.342   4.698   3.119 -0.5480 -2.0659  0.2687
  136OSM    C4S14677   3.304   4.578   3.402 -0.5383  0.3149  0.3350
  136OSM    H4S14678   3.278   4.616   3.502  3.1221  2.4999  0.6258
  136OSM    C5S14679   3.374   4.465   3.391  0.3620 -0.0425  0.4457
  136OSM    H5S14680   3.433   4.447   3.299 -0.8976 -1.4282 -0.1383
  136OSM    C6S14681   3.411   4.377   3.503 -0.3557  0.1452  1.1167
  136OSM    H6S14682   3.522   4.375   3.506 -0.2038  0.0904 -1.9399
  136OSM    H6T14683   3.371   4.278   3.475 -0.2532 -0.0273  1.5666
  136OSM    C7S14684   3.362   4.409   3.646 -0.5485 -0.2339 -0.2513
  136OSM    H7S14685   3.253   4.430   3.658 -0.5484 -0.9209  1.2079
  136OSM    H7T14686   3.422   4.498   3.674 -1.3237  0.6959 -1.4621
  136OSM    C8S14687   3.387   4.293   3.750 -0.6097  0.1206 -0.4572
  136OSM    H8S14688   3.491   4.261   3.727 -0.1667  0.2871  1.2201
  136OSM    H8T14689   3.320   4.207   3.728 -0.8145  0.0048  0.5606
  136OSM    C9S14690   3.376   4.333   3.892 -0.0609 -0.0858  0.1545
  136OSM    H9S14691   3.269   4.355   3.909  0.2577  0.6343  1.3220
  136OSM    H9T14692   3.445   4.419   3.900  0.8868 -0.9773  2.2284
  136OSM   C10S14693   3.423   4.231   3.996 -0.1151 -1.1428  0.4212
  136OSM   H10S14694   3.534   4.230   3.989 -0.2066  0.0136 -2.0919
  136OSM   H10T14695   3.389   4.130   3.966  1.8919 -2.0633  1.0594
  136OSM   C11S14696   3.370   4.269   4.142  0.4185 -0.2419  0.7330
  136OSM   H11S14697   3.261   4.286   4.147  0.3997  0.5186 -1.1803
  136OSM   H11T14698   3.421   4.367   4.156 -0.8440  0.2277  2.2087
  136OSM   C12S14699   3.412   4.175   4.247 -0.5910  1.1170  0.6155
  136OSM   H12S14700   3.523   4.169   4.246 -0.5603  1.7536 -0.1045
  136OSM   H12T14701   3.369   4.075   4.226 -0.3515  1.5777 -2.4176
  136OSM   C13S14702   3.359   4.226   4.380  0.2700 -0.1075 -0.9624
  136OSM   H13S14703   3.251   4.245   4.366  0.0169  0.8828  1.6346
  136OSM   H13T14704   3.408   4.323   4.404  0.5860 -0.7999  1.6016
  136OSM   C14S14705   3.403   4.143   4.508 -0.0583 -0.2370 -0.0269
  136OSM   H14S14706   3.513   4.154   4.522  0.1463 -0.3568 -1.3674
  136OSM   H14T14707   3.384   4.034   4.505 -1.1525 -0.0637 -0.0904
  136OSM   C15S14708   3.339   4.201   4.634 -0.1008 -0.1469 -0.1314
  136OSM   H15S14709   3.238   4.228   4.595  0.6849  1.6444 -1.0881
  136OSM   H15T14710   3.396   4.292   4.663 -0.3157 -0.1695  0.3640
  136OSM   C16S14711   3.349   4.111   4.757 -0.2097 -0.3607  0.0048
  136OSM   H16S14712   3.454   4.077   4.767 -0.6418 -1.1994  2.2341
  136OSM   H16T14713   3.295   4.015   4.748  1.2261 -1.1418 -0.6715
  136OSM   C17S14714   3.295   4.189   4.883 -0.3752  0.0735 -0.0944
  136OSM   H17S14715   3.197   4.240   4.865 -0.3642 -0.3464 -1.4305
  136OSM   H17T14716   3.376   4.262   4.906 -0.3146  0.2115 -0.7350
  136OSM   C18S14717   3.283   4.104   5.013 -0.0431 -0.1070 -0.1455
  136OSM   H18S14718   3.200   4.029   5.014  1.4187 -1.8620  2.8683
  136OSM   H18T14719   3.284   4.171   5.101  1.3659 -0.4470  0.1162
  136OSM   H18U14720   3.370   4.036   5.018 -0.5588 -0.9152 -1.4541
  136OSM    C1F14721   2.904   4.647   3.306 -0.3471  0.1765 -0.4990
  136OSM     OF14722   2.873   4.592   3.203 -0.2012  1.0722  0.1018
  136OSM    C2F14723   2.807   4.671   3.421  0.6560  0.2823  0.5486
  136OSM    H2F14724   2.742   4.748   3.374 -1.0394 -0.2279  1.9610
  136OSM    H2G14725   2.859   4.718   3.507 -2.0530  0.3922  2.2232
  136OSM    C3F14726   2.735   4.546   3.475 -0.0298 -0.2276  0.1247
  136OSM    H3F14727   2.795   4.453   3.473 -2.4954 -1.9076 -1.7921
  136OSM    H3G14728   2.658   4.531   3.397  1.1686  1.5728 -1.4942
  136OSM    C4F14729   2.666   4.565   3.609  0.6332 -0.1807 -0.1745
  136OSM    H4F14730   2.589   4.645   3.616  2.2963  1.4941 -0.1729
  136OSM    H4G14731   2.742   4.606   3.680  0.9511  0.4943 -0.8750
  136OSM    C5F14732   2.616   4.430   3.668 -0.4090  0.0394 -0.0634
  136OSM    H5F14733   2.702   4.362   3.683  0.0926  0.6763 -0.0043
  136OSM    H5G14734   2.542   4.383   3.601 -0.8674 -1.3055  1.3219
  136OSM    C6F14735   2.559   4.444   3.811  0.1872  0.1685  0.6194
  136OSM    H6F14736   2.521   4.349   3.855  1.4238 -0.1184  1.0960
  136OSM    H6G14737   2.479   4.521   3.817 -0.5326 -0.6704  2.6951
  136OSM    C7F14738   2.659   4.489   3.912  0.7326 -0.3558 -0.2736
  136OSM    H7F14739   2.696   4.589   3.882 -0.0953 -0.1733 -0.7155
  136OSM    H7G14740   2.750   4.427   3.924  0.4155 -0.7173  0.3393
  136OSM    C8F14741   2.600   4.515   4.054 -0.7258 -0.0036 -0.2611
  136OSM    H8F14742   2.501   4.562   4.038 -1.4287 -0.7042  1.7039
  136OSM    H8G14743   2.666   4.580   4.115 -0.0145 -0.7705 -0.2019
  136OSM    C9F14744   2.574   4.380   4.122  0.3936 -0.2432 -0.3143
  136OSM    H9F14745   2.538   4.299   4.057  1.7114 -0.4246 -0.8562
  136OSM   C10F14746   2.587   4.356   4.253  0.0573 -0.1354  0.6589
  136OSM   H10F14747   2.558   4.260   4.299  0.0688  0.1536  1.2801
  136OSM   C11F14748   2.625   4.453   4.357  0.1164 -0.0833 -0.1021
  136OSM   H11F14749   2.529   4.497   4.393 -0.4258 -0.9338 -0.4752
  136OSM   H11G14750   2.694   4.527   4.311  0.1112  0.4804  0.7831
  136OSM   C12F14751   2.690   4.379   4.478 -0.3220 -0.1698 -0.1259
  136OSM   H12F14752   2.786   4.331   4.448 -0.8275 -1.2962  0.0002
  136OSM   H12G14753   2.617   4.303   4.514  0.9512  0.0041  3.2316
  136OSM   C13F14754   2.714   4.464   4.602 -0.0425 -0.1264 -0.3267
  136OSM   H13F14755   2.619   4.491   4.653 -0.2182 -0.9380 -0.2122
  136OSM   H13G14756   2.760   4.558   4.564 -1.7413  0.4900 -0.9556
  136OSM   C14F14757   2.809   4.395   4.713  0.5701 -0.3725  0.2664
  136OSM   H14F14758   2.905   4.366   4.666  0.9357 -1.1894  1.4738
  136OSM   H14G14759   2.768   4.297   4.745 -1.4801  0.5303  0.5646
  136OSM   C15F14760   2.852   4.482   4.832 -0.1136 -0.1088  0.5634
  136OSM   H15F14761   2.757   4.497   4.888 -0.7632  1.0221 -0.7942
  136OSM   H15G14762   2.897   4.581   4.808 -0.5123  0.3532  1.6555
  136OSM   C16F14763   2.937   4.396   4.923  0.0734  0.5966  0.1092
  136OSM   H16F14764   3.027   4.352   4.875  0.8315 -0.1736  2.1292
  136OSM   H16G14765   2.870   4.313   4.955  1.4035 -0.2489  0.8230
  136OSM   C17F14766   2.977   4.472   5.054 -0.3808  0.5799  0.5728
  136OSM   H17F14767   2.901   4.540   5.097  0.2129  1.0981  0.8154
  136OSM   H17G14768   3.059   4.542   5.025  1.5400 -1.9336 -0.4363
  136OSM   C18F14769   3.020   4.373   5.169 -0.5446  0.3308  0.5578
  136OSM   H18F14770   3.081   4.291   5.127  0.3480  1.0524  0.4268
  136OSM   H18G14771   2.927   4.336   5.219  0.5909 -0.4992  2.1545
  136OSM   H18H14772   3.080   4.426   5.246  1.1502  0.6576 -0.9398
  137OSM      N14773   6.772   4.028   2.291  0.3918  0.3676  0.5384
  137OSM    C1514774   6.740   4.112   2.170 -0.0687  0.2768  0.1003
  137OSM   H15A14775   6.817   4.187   2.153  0.3017 -0.3854 -1.3061
  137OSM   H15B14776   6.647   4.160   2.196 -0.2902 -0.7696  1.2903
  137OSM   H15C14777   6.735   4.054   2.079  0.4213 -0.9033  0.8132
  137OSM    C1414778   6.910   3.980   2.287  0.4394  0.1454 -0.1017
  137OSM   H14A14779   6.943   3.934   2.378 -1.3499  0.7604  0.9010
  137OSM   H14B14780   6.968   4.071   2.289 -1.2093  1.2387  1.5629
  137OSM   H14C14781   6.929   3.922   2.198 -2.2421  0.5883 -1.0487
  137OSM    C1314782   6.751   4.111   2.409 -0.0357  0.4865  0.8078
  137OSM   H13A14783   6.828   4.186   2.412  0.5036 -0.0195 -0.0320
  137OSM   H13B14784   6.769   4.054   2.499  0.9086  1.4478  1.2390
  137OSM   H13C14785   6.654   4.157   2.422  0.6127  2.0357  0.3750
  137OSM    C1214786   6.671   3.917   2.290 -0.1309 -0.2242 -0.0506
  137OSM   H12A14787   6.685   3.864   2.197 -0.4938  0.9034 -0.7667
  137OSM   H12B14788   6.573   3.961   2.277 -0.1577 -0.0410  0.7346
  137OSM    C1114789   6.672   3.829   2.415 -0.4285  0.1633 -0.3516
  137OSM   H11A14790   6.778   3.820   2.445 -1.2294 -0.7664  2.5400
  137OSM   H11B14791   6.645   3.723   2.393  0.9191 -0.6101  1.5136
  137OSM      P14792   6.466   3.848   2.578 -0.0163 -0.0035  0.0889
  137OSM    O1314793   6.435   3.940   2.692 -0.1584  0.6244 -0.2532
  137OSM    O1414794   6.377   3.848   2.456  0.7148 -0.2422  0.0558
  137OSM    O1114795   6.472   3.695   2.632  0.0635  0.1639  0.3902
  137OSM    O1214796   6.612   3.880   2.537  0.2833 -0.4722 -0.1271
  137OSM    C1S14797   6.534   3.678   2.762  0.1471  0.5717 -0.6155
  137OSM    H1S14798   6.618   3.746   2.785 -0.5369  2.2901 -2.8694
  137OSM    H1T14799   6.567   3.572   2.772 -2.0928  0.0124  2.4229
  137OSM     NF14800   6.520   3.660   3.000 -0.0684 -0.8451  0.0399
  137OSM    HNF14801   6.521   3.568   3.037 -0.3712 -1.9984 -2.6337
  137OSM    C2S14802   6.433   3.685   2.890 -0.5777  0.6919  0.9392
  137OSM    H2S14803   6.387   3.785   2.902 -1.4824  0.6220 -1.3767
  137OSM    C3S14804   6.308   3.589   2.863  0.5159 -0.1544  0.4370
  137OSM    H3S14805   6.351   3.487   2.870  0.1899 -0.3777 -0.6430
  137OSM     O314806   6.241   3.616   2.735  0.0858 -0.4523  0.0276
  137OSM    HO314807   6.308   3.651   2.677 -1.0309 -0.1797 -1.1420
  137OSM    C4S14808   6.216   3.609   2.971 -0.0795  0.2926 -0.6245
  137OSM    H4S14809   6.147   3.695   2.967  0.2086  0.5444 -0.2325
  137OSM    C5S14810   6.212   3.537   3.089  0.6357 -0.5094  0.2787
  137OSM    H5S14811   6.279   3.451   3.105  2.7205  0.9076 -0.5848
  137OSM    C6S14812   6.122   3.572   3.212 -0.2330 -0.2029  0.2246
  137OSM    H6S14813   6.030   3.510   3.210 -0.5575  0.2781  0.0837
  137OSM    H6T14814   6.085   3.676   3.202 -1.4969 -0.8200 -2.5243
  137OSM    C7S14815   6.200   3.542   3.342 -0.0597  0.1346  0.2729
  137OSM    H7S14816   6.283   3.615   3.348 -2.2568  2.7089  0.7547
  137OSM    H7T14817   6.241   3.438   3.342  0.5580  0.3358 -1.7444
  137OSM    C8S14818   6.118   3.567   3.468 -0.0641 -0.3451 -0.2992
  137OSM    H8S14819   6.034   3.495   3.456  0.7061 -0.9113 -3.0664
  137OSM    H8T14820   6.074   3.668   3.477 -1.0345 -0.7261 -0.6075
  137OSM    C9S14821   6.185   3.548   3.603  0.3406  0.0425 -0.2842
  137OSM    H9S14822   6.287   3.593   3.609  1.3879 -2.2298  0.0176
  137OSM    H9T14823   6.192   3.439   3.625 -1.3941  0.4801  2.9756
  137OSM   C10S14824   6.109   3.607   3.724 -0.2893 -0.6405  0.1560
  137OSM   H10S14825   6.000   3.608   3.702 -0.7585  1.1349  2.1929
  137OSM   H10T14826   6.128   3.717   3.723  0.7558 -0.8127 -0.1186
  137OSM   C11S14827   6.147   3.538   3.854  0.3082  0.4242  0.2128
  137OSM   H11S14828   6.256   3.519   3.867 -0.1809 -2.9392  0.2644
  137OSM   H11T14829   6.109   3.433   3.857  1.3312  0.0127 -0.5300
  137OSM   C12S14830   6.114   3.620   3.977  0.2211 -0.2569 -0.7808
  137OSM   H12S14831   6.005   3.639   3.970  0.2603 -0.1581 -1.1075
  137OSM   H12T14832   6.144   3.726   3.968 -2.8657  0.9776  1.6438
  137OSM   C13S14833   6.158   3.559   4.111  0.1820 -0.9373 -0.2406
  137OSM   H13S14834   6.269   3.557   4.107  0.3071  1.3009  0.4966
  137OSM   H13T14835   6.126   3.455   4.136 -1.6708 -0.4406 -0.4474
  137OSM   C14S14836   6.129   3.661   4.224  0.1872 -0.2188 -0.3425
  137OSM   H14S14837   6.019   3.670   4.231  0.4618  3.5101  3.7984
  137OSM   H14T14838   6.185   3.754   4.200 -0.1927  0.2196  0.4490
  137OSM   C15S14839   6.176   3.615   4.364  0.1737 -0.1943 -0.3869
  137OSM   H15S14840   6.279   3.576   4.368 -1.2720 -4.3670  1.8663
  137OSM   H15T14841   6.112   3.529   4.394 -1.2642  1.4362  1.5031
  137OSM   C16S14842   6.179   3.732   4.463 -0.1448 -0.1648  0.3219
  137OSM   H16S14843   6.084   3.790   4.465 -0.7371 -1.1143  0.9709
  137OSM   H16T14844   6.260   3.802   4.436 -0.0008 -0.5023 -0.1313
  137OSM   C17S14845   6.226   3.684   4.597 -0.3653 -0.2180 -1.0569
  137OSM   H17S14846   6.336   3.670   4.602 -0.3730  0.0156  2.1678
  137OSM   H17T14847   6.170   3.591   4.622 -3.0631  1.5497 -0.0536
  137OSM   C18S14848   6.209   3.793   4.713  0.4441 -0.6848  0.5433
  137OSM   H18S14849   6.279   3.878   4.701 -0.5351 -0.0073 -0.5892
  137OSM   H18T14850   6.235   3.744   4.809 -1.3321 -1.3774  0.7085
  137OSM   H18U14851   6.104   3.830   4.715  1.1540  1.4956  0.2362
  137OSM    C1F14852   6.611   3.748   3.050 -0.0195 -0.0657  0.0110
  137OSM     OF14853   6.638   3.857   2.997 -0.4005 -0.0372  0.3154
  137OSM    C2F14854   6.664   3.700   3.180 -0.5958  0.6339 -0.8990
  137OSM    H2F14855   6.775   3.708   3.173 -0.4652 -0.5133 -0.3657
  137OSM    H2G14856   6.637   3.594   3.196  1.5044  0.1577 -0.2085
  137OSM    C3F14857   6.626   3.777   3.310 -0.1276 -0.3521 -0.1356
  137OSM    H3F14858   6.526   3.738   3.338 -0.3270  0.1376 -0.1677
  137OSM    H3G14859   6.606   3.881   3.277 -0.9235 -0.4944 -0.1103
  137OSM    C4F14860   6.731   3.768   3.421  0.5511 -0.0521 -0.5581
  137OSM    H4F14861   6.831   3.786   3.375  0.3790 -1.4406 -1.5439
  137OSM    H4G14862   6.734   3.667   3.467  0.1776  0.7270  1.2998
  137OSM    C5F14863   6.691   3.859   3.530 -0.4000 -0.6718 -0.7428
  137OSM    H5F14864   6.589   3.852   3.573 -0.5597 -0.2360 -1.0487
  137OSM    H5G14865   6.697   3.961   3.487  1.4745  0.2612  1.4884
  137OSM    C6F14866   6.790   3.844   3.641 -0.2425 -0.0344  0.3602
  137OSM    H6F14867   6.793   3.943   3.691 -1.3149 -1.6509  3.9473
  137OSM    H6G14868   6.892   3.815   3.607  0.3360  1.9107  0.2859
  137OSM    C7F14869   6.740   3.746   3.750 -0.2221 -0.1252  0.3132
  137OSM    H7F14870   6.755   3.648   3.699  2.2093 -0.9122  2.3190
  137OSM    H7G14871   6.632   3.763   3.766 -0.3865  0.9234 -1.5773
  137OSM    C8F14872   6.818   3.737   3.883 -0.2177  0.8954 -0.6529
  137OSM    H8F14873   6.925   3.719   3.861 -0.2243 -1.3091  0.8459
  137OSM    H8G14874   6.793   3.649   3.945 -0.2775  1.5760  0.3018
  137OSM    C9F14875   6.783   3.861   3.956  0.1350 -0.3957 -0.4159
  137OSM    H9F14876   6.809   3.958   3.912  0.1364 -1.0358 -1.9056
  137OSM   C10F14877   6.726   3.861   4.074 -0.2148 -0.2027 -0.2034
  137OSM   H10F14878   6.696   3.963   4.104  0.2409  0.6200 -2.3357
  137OSM   C11F14879   6.653   3.744   4.147  0.1026  0.3026 -0.1352
  137OSM   H11F14880   6.721   3.656   4.140  0.8100  0.8748 -0.5191
  137OSM   H11G14881   6.549   3.724   4.112 -0.8267  0.9261  2.1022
  137OSM   C12F14882   6.643   3.783   4.291  0.7547  0.7403  0.3009
  137OSM   H12F14883   6.570   3.867   4.301 -1.0861 -0.3565 -2.6109
  137OSM   H12G14884   6.742   3.799   4.339  1.7077 -1.1336 -0.9407
  137OSM   C13F14885   6.580   3.665   4.370 -0.0498 -0.6317 -0.4237
  137OSM   H13F14886   6.498   3.603   4.327  0.7127 -1.9463 -0.0722
  137OSM   H13G14887   6.526   3.714   4.454  1.1775 -2.4225  1.5359
  137OSM   C14F14888   6.679   3.568   4.439 -0.1937 -0.2755 -0.3043
  137OSM   H14F14889   6.765   3.628   4.475 -0.1054 -0.2413 -0.5711
  137OSM   H14G14890   6.716   3.491   4.368  0.1229 -0.7268  0.3350
  137OSM   C15F14891   6.628   3.499   4.564  0.3146 -0.2030  0.0671
  137OSM   H15F14892   6.621   3.572   4.648 -1.7341 -0.8707  0.5090
  137OSM   H15G14893   6.699   3.422   4.603  1.6856  0.7472 -0.4433
  137OSM   C16F14894   6.502   3.425   4.548 -0.0902  0.6040  0.3732
  137OSM   H16F14895   6.510   3.352   4.465 -1.0680  0.2652  0.5676
  137OSM   H16G14896   6.421   3.498   4.525  0.6286  1.4620  0.5236
  137OSM   C17F14897   6.448   3.354   4.670 -0.1479 -0.2177 -0.3513
  137OSM   H17F14898   6.441   3.433   4.747 -0.3293  2.2377 -2.7491
  137OSM   H17G14899   6.519   3.277   4.709 -1.1456 -1.1540 -0.3380
  137OSM   C18F14900   6.318   3.285   4.630  0.0281  0.4252 -0.0773
  137OSM   H18F14901   6.330   3.202   4.556  0.3227 -0.0651  0.5161
  137OSM   H18G14902   6.235   3.350   4.594 -0.9046 -0.7131 -0.0639
  137OSM   H18H14903   6.270   3.241   4.720 -1.6520 -0.0893 -1.1708
  138OSM      N14904   5.299   4.974   2.689 -0.6618  0.2287 -0.9644
  138OSM    C1514905   5.433   4.975   2.622 -0.0513  0.8033  0.3518
  138OSM   H15A14906   5.454   4.873   2.593  0.6032  0.4403  1.9829
  138OSM   H15B14907   5.514   5.007   2.686  0.2753  0.2374  0.2240
  138OSM   H15C14908   5.427   5.034   2.532  1.1684  0.8152  0.2591
  138OSM    C1414909   5.269   5.108   2.736  0.0152 -1.0399  0.6070
  138OSM   H14A14910   5.272   5.177   2.652 -2.1075 -1.1200  0.4122
  138OSM   H14B14911   5.341   5.149   2.805  2.0535 -0.3438 -1.7786
  138OSM   H14C14912   5.170   5.109   2.778 -0.8799 -0.9682 -1.3658
  138OSM    C1314913   5.198   4.931   2.588  0.4674  0.3796  0.3068
  138OSM   H13A14914   5.095   4.925   2.619  0.5692  1.4717  0.9260
  138OSM   H13B14915   5.234   4.840   2.544 -1.2573 -0.3699  0.3958
  138OSM   H13C14916   5.192   5.000   2.505  1.8789  0.4099  0.2017
  138OSM    C1214917   5.305   4.882   2.808  0.1544  0.1922 -0.2874
  138OSM   H12A14918   5.374   4.919   2.882  1.6826 -0.9763 -1.0833
  138OSM   H12B14919   5.353   4.790   2.778  2.0875  1.3728 -0.9666
  138OSM    C1114920   5.174   4.848   2.874  0.8985 -0.5762 -0.1326
  138OSM   H11A14921   5.115   4.942   2.884 -0.9541 -1.7885  1.1672
  138OSM   H11B14922   5.197   4.815   2.978 -2.1020 -2.2677  0.1272
  138OSM      P14923   4.945   4.752   2.789  0.2441  0.0264 -0.0704
  138OSM    O1314924   4.912   4.852   2.682  0.3432 -0.3404 -0.2027
  138OSM    O1414925   4.887   4.618   2.776  0.2322 -0.0567 -0.6815
  138OSM    O1114926   4.887   4.818   2.924  0.1526 -0.1737 -0.6182
  138OSM    O1214927   5.104   4.744   2.804  0.4539 -0.1844 -0.4700
  138OSM    C1S14928   4.763   4.788   2.971  0.1967  0.3532 -0.3214
  138OSM    H1S14929   4.756   4.677   2.980  2.5224  0.2232  0.4884
  138OSM    H1T14930   4.682   4.834   2.909 -1.1290 -2.8405 -1.1769
  138OSM     NF14931   4.611   4.822   3.160 -0.4471 -0.2107  0.5435
  138OSM    HNF14932   4.540   4.891   3.167 -0.6321 -0.4234  0.7603
  138OSM    C2S14933   4.734   4.858   3.107 -0.0950 -1.1533 -0.6546
  138OSM    H2S14934   4.816   4.816   3.169  0.6600  1.2747  0.1406
  138OSM    C3S14935   4.765   5.011   3.108  1.0566  0.1741  0.0083
  138OSM    H3S14936   4.673   5.045   3.056 -1.0646 -1.7095  2.3078
  138OSM     O314937   4.883   5.058   3.040 -0.2704  0.6119 -0.0813
  138OSM    HO314938   4.904   4.980   2.987 -3.3582  0.0517 -0.6538
  138OSM    C4S14939   4.758   5.067   3.245  0.0711  0.6188  0.1470
  138OSM    H4S14940   4.843   5.030   3.304 -0.6168 -0.3485  0.5771
  138OSM    C5S14941   4.672   5.162   3.300 -0.0774 -0.0267  0.3676
  138OSM    H5S14942   4.610   5.224   3.235  0.7430  1.0053  0.5540
  138OSM    C6S14943   4.673   5.201   3.446  0.1913 -0.5387 -0.6164
  138OSM    H6S14944   4.579   5.162   3.490 -1.0020  0.2450 -2.3748
  138OSM    H6T14945   4.663   5.311   3.441  0.7585 -0.4548 -0.0235
  138OSM    C7S14946   4.795   5.159   3.519  0.5177 -0.5212 -0.3482
  138OSM    H7S14947   4.889   5.195   3.469 -0.6010  3.6655  0.1479
  138OSM    H7T14948   4.795   5.049   3.532 -2.6055 -0.6700 -0.9270
  138OSM    C8S14949   4.798   5.212   3.662  0.6681  0.1713 -0.1263
  138OSM    H8S14950   4.798   5.323   3.658  1.5256  0.1510 -0.9953
  138OSM    H8T14951   4.893   5.169   3.702  0.8907  1.0112  0.2792
  138OSM    C9S14952   4.676   5.161   3.742 -0.2987  0.2548 -0.7022
  138OSM    H9S14953   4.665   5.053   3.720  2.6546 -0.1594 -0.5699
  138OSM    H9T14954   4.586   5.222   3.718  0.4786  2.2361  1.1352
  138OSM   C10S14955   4.700   5.164   3.894  0.0174 -0.1359  0.3077
  138OSM   H10S14956   4.782   5.094   3.919  0.5179  0.4301  0.2699
  138OSM   H10T14957   4.605   5.129   3.939  0.5169  2.1006  3.4824
  138OSM   C11S14958   4.713   5.304   3.958  0.0591  0.4836  0.5709
  138OSM   H11S14959   4.620   5.363   3.947 -0.9488 -0.9477  1.1545
  138OSM   H11T14960   4.789   5.366   3.906 -0.1846  1.4242  1.3112
  138OSM   C12S14961   4.746   5.302   4.112  0.3868 -0.3018 -0.2290
  138OSM   H12S14962   4.789   5.404   4.126  1.6500 -0.5764 -1.8027
  138OSM   H12T14963   4.826   5.232   4.145  0.0827 -0.0058  1.2499
  138OSM   C13S14964   4.614   5.289   4.201 -0.2751  0.1053 -0.2591
  138OSM   H13S14965   4.572   5.187   4.190 -1.0244  0.3544  0.2285
  138OSM   H13T14966   4.535   5.352   4.154 -1.1540 -1.6359 -1.2201
  138OSM   C14S14967   4.623   5.309   4.357  0.0086 -0.5936 -0.5308
  138OSM   H14S14968   4.528   5.336   4.406  0.2675 -3.0731  1.5322
  138OSM   H14T14969   4.689   5.398   4.362 -0.3471 -0.2406 -1.7746
  138OSM   C15S14970   4.677   5.183   4.428 -0.1273 -0.1135  0.1310
  138OSM   H15S14971   4.778   5.161   4.389 -0.1132  0.0044  0.0997
  138OSM   H15T14972   4.609   5.100   4.399  0.5264 -1.1591  1.4828
  138OSM   C16S14973   4.677   5.200   4.585  0.0182 -0.7418 -0.0057
  138OSM   H16S14974   4.582   5.230   4.633 -0.2970 -1.2747 -0.2926
  138OSM   H16T14975   4.760   5.271   4.608  2.5765 -3.4861 -0.0968
  138OSM   C17S14976   4.729   5.072   4.653  0.0424  0.0279  0.3099
  138OSM   H17S14977   4.723   5.089   4.763 -0.9891  2.4106 -0.0738
  138OSM   H17T14978   4.838   5.065   4.631  0.1556  3.2317 -0.5565
  138OSM   C18S14979   4.655   4.935   4.623 -0.4357 -0.9153  0.5449
  138OSM   H18S14980   4.641   4.904   4.517  0.6205 -3.2359  1.0259
  138OSM   H18T14981   4.553   4.935   4.667 -0.2337  1.2225  1.1317
  138OSM   H18U14982   4.708   4.852   4.674 -0.4094 -0.1270  1.8507
  138OSM    C1F14983   4.577   4.700   3.181  0.4044  0.2936 -0.1315
  138OSM     OF14984   4.646   4.596   3.171 -0.6531  0.3030  1.0341
  138OSM    C2F14985   4.441   4.682   3.232 -0.3011  0.1974 -0.5208
  138OSM    H2F14986   4.386   4.613   3.165  1.7049  0.1872 -2.2499
  138OSM    H2G14987   4.384   4.777   3.221 -1.5769 -0.7494 -2.7704
  138OSM    C3F14988   4.434   4.613   3.372  0.1567 -0.1243  0.1184
  138OSM    H3F14989   4.492   4.520   3.355 -0.1120 -0.3029  0.1846
  138OSM    H3G14990   4.335   4.577   3.405  0.8397 -0.1275  2.2885
  138OSM    C4F14991   4.493   4.681   3.491  0.3618 -0.6831  0.0852
  138OSM    H4F14992   4.448   4.782   3.503 -1.4625 -1.2317 -1.6533
  138OSM    H4G14993   4.602   4.688   3.469  0.3366  0.7149  0.2732
  138OSM    C5F14994   4.468   4.610   3.625  0.2182 -0.0503 -0.6409
  138OSM    H5F14995   4.502   4.505   3.641  0.0237  0.1468  1.2775
  138OSM    H5G14996   4.361   4.612   3.657  0.0884 -0.5031 -1.0332
  138OSM    C6F14997   4.551   4.680   3.729  0.1456 -0.4905 -0.3869
  138OSM    H6F14998   4.535   4.790   3.740 -2.0791 -0.9303  1.5294
  138OSM    H6G14999   4.654   4.664   3.690  0.5440 -0.3060  0.5433
  138OSM    C7F15000   4.545   4.622   3.872  0.0480  0.7636 -0.0077
  138OSM    H7F15001   4.565   4.515   3.855  0.3929  0.9404 -0.7429
  138OSM    H7G15002   4.440   4.626   3.909  0.2003 -0.4127  0.5905
  138OSM    C8F15003   4.643   4.685   3.965  0.4135 -0.3757 -0.4627
  138OSM    H8F15004   4.732   4.714   3.906 -0.3682  2.7911 -0.2737
  138OSM    H8G15005   4.677   4.602   4.030 -1.4146 -2.4281 -2.0018
  138OSM    C9F15006   4.595   4.812   4.027 -0.6543  0.2244 -0.5399
  138OSM    H9F15007   4.572   4.895   3.958  0.4297  0.0157 -1.1614
  138OSM   C10F15008   4.583   4.823   4.162  0.1115 -0.3721  0.1709
  138OSM   H10F15009   4.550   4.921   4.200  0.4534 -0.8447  1.7504
  138OSM   C11F15010   4.621   4.726   4.273  0.8638 -0.2684 -0.5128
  138OSM   H11F15011   4.663   4.784   4.358 -1.7169  0.2999  0.4623
  138OSM   H11G15012   4.696   4.653   4.234  0.7681  0.2447 -1.7113
  138OSM   C12F15013   4.508   4.639   4.341 -0.3274 -0.8669 -0.0950
  138OSM   H12F15014   4.493   4.554   4.271 -2.0790 -2.0408  1.5876
  138OSM   H12G15015   4.416   4.701   4.349  0.0661 -0.4196  1.2946
  138OSM   C13F15016   4.539   4.584   4.482 -0.0773 -0.0990  0.3794
  138OSM   H13F15017   4.566   4.678   4.536 -0.7443  1.1301 -1.3454
  138OSM   H13G15018   4.622   4.512   4.474  0.8020  0.6706  2.0534
  138OSM   C14F15019   4.422   4.522   4.555 -0.1678  0.0739  0.1533
  138OSM   H14F15020   4.419   4.414   4.529  4.5350 -0.3802  0.6484
  138OSM   H14G15021   4.328   4.578   4.537 -0.1172 -0.0912 -0.6827
  138OSM   C15F15022   4.441   4.528   4.703 -0.2926  0.7271  0.3222
  138OSM   H15F15023   4.454   4.633   4.737  1.1764  0.5932  0.2552
  138OSM   H15G15024   4.527   4.463   4.733 -1.2835 -1.0501 -0.5018
  138OSM   C16F15025   4.316   4.468   4.775 -0.3603 -0.0629  0.0120
  138OSM   H16F15026   4.273   4.379   4.725 -0.1529 -1.1141  1.6295
  138OSM   H16G15027   4.233   4.542   4.781 -2.6465 -2.5014  0.3010
  138OSM   C17F15028   4.348   4.431   4.922 -0.0858  0.7599 -0.1608
  138OSM   H17F15029   4.257   4.467   4.976  0.2806  2.5630 -0.6744
  138OSM   H17G15030   4.425   4.499   4.963 -1.1031  0.9527  1.5421
  138OSM   C18F15031   4.382   4.279   4.945 -0.2191 -0.3685 -0.0324
  138OSM   H18F15032   4.294   4.212   4.933  0.7115 -1.4951 -0.7358
  138OSM   H18G15033   4.406   4.278   5.054 -0.7695  0.0570  0.0946
  138OSM   H18H15034   4.475   4.244   4.895  1.2126  1.4266  1.2094
  139OSM      N15035   5.934   2.721   2.680  0.4513 -0.4456 -0.1955
  139OSM    C1515036   5.928   2.632   2.557 -0.9595  0.2838  0.0217
  139OSM   H15A15037   5.916   2.530   2.589  0.3215  0.1914  0.2626
  139OSM   H15B15038   6.025   2.642   2.510 -0.2573 -1.0193  1.1221
  139OSM   H15C15039   5.863   2.669   2.479  1.2293 -1.4223 -2.7982
  139OSM    C1415040   5.983   2.850   2.649 -0.3736 -0.2708  0.6030
  139OSM   H14A15041   5.929   2.922   2.708 -1.1937  0.2646 -0.7617
  139OSM   H14B15042   5.967   2.891   2.551  1.3769  2.4874  1.3651
  139OSM   H14C15043   6.090   2.850   2.665  0.0608 -2.3937 -1.6783
  139OSM    C1315044   5.797   2.750   2.729  0.1529  0.5081  0.8127
  139OSM   H13A15045   5.799   2.795   2.827 -2.4024  0.4773  0.9382
  139OSM   H13B15046   5.736   2.661   2.733  0.5598  0.2488  1.4174
  139OSM   H13C15047   5.741   2.820   2.669 -0.3458  1.3411  2.2030
  139OSM    C1215048   6.007   2.653   2.793 -0.4857  0.1858  0.0146
  139OSM   H12A15049   5.956   2.564   2.828 -1.5886  1.1913  1.0556
  139OSM   H12B15050   5.999   2.713   2.883 -2.8755 -0.2921  0.1945
  139OSM    C1115051   6.155   2.606   2.774  0.0965  1.1181  0.1634
  139OSM   H11A15052   6.163   2.525   2.699  0.2976  0.3410  1.0078
  139OSM   H11B15053   6.188   2.560   2.870 -0.8445  1.9761  0.9210
  139OSM      P15054   6.338   2.786   2.834  0.2479 -0.2801 -0.1163
  139OSM    O1315055   6.445   2.692   2.859  0.3332  0.0593  0.2347
  139OSM    O1415056   6.380   2.919   2.791 -0.0813  0.0421  0.5732
  139OSM    O1115057   6.245   2.804   2.966  0.2971  0.0599 -0.0392
  139OSM    O1215058   6.233   2.720   2.737  0.7454  0.1388 -0.0039
  139OSM    C1S15059   6.323   2.796   3.088  0.1925 -0.2412 -0.1909
  139OSM    H1S15060   6.397   2.879   3.086 -0.7539  0.6254 -2.2803
  139OSM    H1T15061   6.376   2.699   3.099  2.3425  0.9682  0.6914
  139OSM     NF15062   6.317   2.813   3.329  0.7399  0.1036 -0.0609
  139OSM    HNF15063   6.307   2.738   3.393  0.0261  0.4929  0.2985
  139OSM    C2S15064   6.225   2.823   3.212  0.4485  0.3352  0.1563
  139OSM    H2S15065   6.184   2.926   3.209  3.7622  1.7621  0.2961
  139OSM    C3S15066   6.110   2.720   3.208 -0.2985  0.4385  0.5112
  139OSM    H3S15067   6.153   2.619   3.227 -3.2768 -1.1237 -0.4966
  139OSM     O315068   6.036   2.694   3.086 -0.2129  0.7794 -0.4043
  139OSM    HO315069   6.086   2.736   3.016  0.0992 -1.2839 -1.4910
  139OSM    C4S15070   6.007   2.751   3.308  0.5888  0.4581 -0.2854
  139OSM    H4S15071   5.932   2.825   3.277 -1.4334 -0.3966  2.1696
  139OSM    C5S15072   5.993   2.691   3.431  0.1600  0.1422  0.2258
  139OSM    H5S15073   6.050   2.600   3.456 -0.8773 -0.9615 -1.2861
  139OSM    C6S15074   5.873   2.730   3.521 -0.4180  0.3303 -0.1169
  139OSM    H6S15075   5.777   2.677   3.505  0.3591 -1.5397  1.1030
  139OSM    H6T15076   5.860   2.840   3.526  1.1928  0.4953  3.0427
  139OSM    C7S15077   5.895   2.681   3.665 -0.0370 -0.5222 -0.1713
  139OSM    H7S15078   5.990   2.710   3.714 -0.6128 -2.6405  2.3894
  139OSM    H7T15079   5.887   2.570   3.670 -2.6697 -0.4170 -0.4256
  139OSM    C8S15080   5.784   2.739   3.755 -0.1668  0.5671 -0.1187
  139OSM    H8S15081   5.692   2.736   3.693 -0.5409  3.1184  0.2059
  139OSM    H8T15082   5.806   2.844   3.782  1.1922  1.4299 -3.9890
  139OSM    C9S15083   5.767   2.666   3.886  0.3934 -0.2789  0.0204
  139OSM    H9S15084   5.771   2.556   3.869 -0.5964 -0.4200  0.6333
  139OSM    H9T15085   5.668   2.697   3.926  0.3208 -0.5366  0.0401
  139OSM   C10S15086   5.876   2.716   3.984 -0.7805 -0.1389 -0.1161
  139OSM   H10S15087   5.847   2.821   4.005 -0.4228 -0.1638  0.5304
  139OSM   H10T15088   5.975   2.726   3.934 -0.0154 -1.0097  1.1759
  139OSM   C11S15089   5.881   2.634   4.119  0.6741 -0.7555 -0.4882
  139OSM   H11S15090   5.980   2.652   4.167  0.8954  0.0868 -1.2281
  139OSM   H11T15091   5.878   2.525   4.099  1.8844 -0.9255  0.1547
  139OSM   C12S15092   5.765   2.669   4.208  0.1996  0.2057  0.5857
  139OSM   H12S15093   5.677   2.685   4.141 -0.0234  0.9081  1.0286
  139OSM   H12T15094   5.789   2.763   4.262  1.5976 -0.1905  0.6804
  139OSM   C13S15095   5.738   2.556   4.316 -0.2457 -0.4811 -1.1322
  139OSM   H13S15096   5.834   2.534   4.368 -0.5520 -0.8444 -0.7163
  139OSM   H13T15097   5.700   2.474   4.252 -0.4863 -1.7433  0.5493
  139OSM   C14S15098   5.622   2.598   4.410  0.3060 -0.0954 -0.0312
  139OSM   H14S15099   5.538   2.622   4.342 -0.1153  1.5920  1.0338
  139OSM   H14T15100   5.652   2.691   4.463  2.5883 -2.0607  2.4535
  139OSM   C15S15101   5.585   2.490   4.516 -0.2856 -0.2959 -0.0215
  139OSM   H15S15102   5.676   2.453   4.570  1.1160 -0.7567 -2.5265
  139OSM   H15T15103   5.543   2.406   4.457 -1.1817  1.0307 -1.3143
  139OSM   C16S15104   5.482   2.542   4.623  0.2428  0.4502  0.0834
  139OSM   H16S15105   5.381   2.548   4.575 -0.9606  1.9646  2.6083
  139OSM   H16T15106   5.507   2.644   4.659  0.3063  0.2776  0.5358
  139OSM   C17S15107   5.468   2.441   4.740 -0.0561 -0.8954  0.5076
  139OSM   H17S15108   5.389   2.484   4.804 -2.3905 -1.9298 -1.5068
  139OSM   H17T15109   5.553   2.447   4.811 -0.1758 -0.9088  0.6522
  139OSM   C18S15110   5.420   2.305   4.697  0.0373  0.2682  0.1070
  139OSM   H18S15111   5.315   2.297   4.659 -0.1121 -0.8053  0.6878
  139OSM   H18T15112   5.406   2.242   4.788  0.6845 -0.2175 -0.1234
  139OSM   H18U15113   5.485   2.251   4.625 -0.9748  1.1160 -1.4995
  139OSM    C1F15114   6.420   2.896   3.357 -0.2484  0.2621  0.2398
  139OSM     OF15115   6.446   2.991   3.287  0.0628  0.0397  0.1407
  139OSM    C2F15116   6.500   2.866   3.479 -0.7613  0.0381 -0.1309
  139OSM    H2F15117   6.514   2.757   3.496  1.0794  0.4410  1.1878
  139OSM    H2G15118   6.451   2.885   3.577 -1.6488 -1.3540 -0.2713
  139OSM    C3F15119   6.634   2.938   3.473 -0.3126  0.3125  0.2045
  139OSM    H3F15120   6.641   3.048   3.469  3.5822  0.1787 -0.6063
  139OSM    H3G15121   6.673   2.913   3.372 -0.3173 -1.1531  0.5373
  139OSM    C4F15122   6.732   2.893   3.581 -0.3429  0.8528 -0.9782
  139OSM    H4F15123   6.827   2.948   3.561  0.2725  0.4488  0.7056
  139OSM    H4G15124   6.752   2.784   3.572 -0.9113  0.6589  0.0164
  139OSM    C5F15125   6.679   2.928   3.720 -0.5489  0.8559  0.0812
  139OSM    H5F15126   6.633   2.837   3.762 -2.1283  1.6934  0.2326
  139OSM    H5G15127   6.613   3.018   3.716  0.5989  1.7307  0.2938
  139OSM    C6F15128   6.810   2.960   3.805  0.2213 -0.4989  0.9066
  139OSM    H6F15129   6.869   3.036   3.750  0.2615 -0.7544  0.5924
  139OSM    H6G15130   6.879   2.874   3.802 -0.2281 -0.8542 -1.0995
  139OSM    C7F15131   6.789   3.011   3.944  0.5372 -0.3440 -0.1711
  139OSM    H7F15132   6.744   3.112   3.930  0.1404 -0.7514 -2.1488
  139OSM    H7G15133   6.889   3.025   3.989  0.1306 -1.7674  1.2761
  139OSM    C8F15134   6.690   2.935   4.042 -0.2965  0.3744  0.3201
  139OSM    H8F15135   6.736   2.834   4.045  0.7257  0.7902 -0.7878
  139OSM    H8G15136   6.585   2.929   4.007  0.1512  1.5701 -1.3516
  139OSM    C9F15137   6.709   3.006   4.173 -0.1597 -0.4067 -0.1320
  139OSM    H9F15138   6.804   2.971   4.215  0.2421 -0.6919 -1.2427
  139OSM   C10F15139   6.632   3.097   4.228  0.0408 -0.0143 -0.2723
  139OSM   H10F15140   6.660   3.128   4.330  2.1270 -0.1338 -0.7730
  139OSM   C11F15141   6.507   3.156   4.168 -1.1442  0.9812 -0.2388
  139OSM   H11F15142   6.423   3.128   4.235 -0.1480  1.2904  1.1878
  139OSM   H11G15143   6.483   3.107   4.071 -0.0285 -0.4887  0.1958
  139OSM   C12F15144   6.508   3.311   4.156  0.0976 -0.1180 -0.1650
  139OSM   H12F15145   6.538   3.353   4.254  1.0642  1.0513 -0.9346
  139OSM   H12G15146   6.408   3.344   4.122  0.7567  2.5355  0.2826
  139OSM   C13F15147   6.597   3.357   4.043 -0.5345 -0.0662  0.3271
  139OSM   H13F15148   6.696   3.305   4.039 -0.8649 -0.6452 -0.6422
  139OSM   H13G15149   6.625   3.461   4.071  4.8957 -1.6144  1.8474
  139OSM   C14F15150   6.527   3.350   3.903 -0.0572 -0.2314 -0.2686
  139OSM   H14F15151   6.435   3.411   3.916 -0.1572 -0.5672  0.6951
  139OSM   H14G15152   6.491   3.246   3.887 -1.6030  0.4517 -1.4959
  139OSM   C15F15153   6.613   3.383   3.790  0.4478 -0.5775 -0.5909
  139OSM   H15F15154   6.706   3.325   3.807 -1.1013 -2.2445  3.3616
  139OSM   H15G15155   6.641   3.491   3.790 -1.8957  0.0732  0.1368
  139OSM   C16F15156   6.556   3.343   3.653 -0.1387  0.0824 -0.7179
  139OSM   H16F15157   6.454   3.383   3.641 -0.8227 -1.7485 -1.3742
  139OSM   H16G15158   6.537   3.233   3.651 -1.8973  0.3229 -4.1056
  139OSM   C17F15159   6.646   3.382   3.533  0.1597  0.4893 -0.4711
  139OSM   H17F15160   6.710   3.292   3.525 -1.2810 -0.7146  0.6896
  139OSM   H17G15161   6.711   3.466   3.564 -0.4405  0.8097 -0.0622
  139OSM   C18F15162   6.575   3.396   3.396 -1.3361  0.1884 -0.4287
  139OSM   H18F15163   6.508   3.313   3.367  1.3486 -2.4931  0.5149
  139OSM   H18G15164   6.657   3.400   3.321  0.0955 -2.5245  0.8566
  139OSM   H18H15165   6.526   3.496   3.406 -1.6813  0.2090 -2.0390
  140OSM      N15166   4.581   4.839   2.522 -0.3414  0.0303  0.1075
  140OSM    C1515167   4.701   4.782   2.450 -0.1677 -0.4898  0.3645
  140OSM   H15A15168   4.668   4.707   2.379 -0.4961 -0.7734  0.8098
  140OSM   H15B15169   4.771   4.740   2.521 -1.6860 -1.3285  1.4395
  140OSM   H15C15170   4.755   4.860   2.399 -0.2860 -1.2779 -1.0021
  140OSM    C1415171   4.474   4.882   2.423 -0.7536 -0.2332 -0.7163
  140OSM   H14A15172   4.510   4.936   2.336 -0.4840 -1.2527 -1.2513
  140OSM   H14B15173   4.417   4.949   2.485  0.5533 -1.5524  2.0631
  140OSM   H14C15174   4.411   4.804   2.384 -1.0538  0.6442 -2.0532
  140OSM    C1315175   4.533   4.734   2.618  0.0481  0.1515 -0.2766
  140OSM   H13A15176   4.503   4.653   2.554  1.3971 -0.9328  0.4045
  140OSM   H13B15177   4.445   4.764   2.673  0.8324 -2.0999  2.4799
  140OSM   H13C15178   4.602   4.702   2.695  0.8091  2.1960 -0.0549
  140OSM    C1215179   4.636   4.961   2.593 -1.0116 -0.0857 -0.3907
  140OSM   H12A15180   4.648   5.041   2.521 -3.0722  0.0374 -0.6579
  140OSM   H12B15181   4.736   4.942   2.628  0.4185  1.8519 -2.9767
  140OSM    C1115182   4.540   5.018   2.696  0.0669  0.3984 -0.0241
  140OSM   H11A15183   4.595   5.091   2.759  0.1433 -2.4459  3.5163
  140OSM   H11B15184   4.521   4.947   2.779  1.3395 -0.5367 -0.5124
  140OSM      P15185   4.404   5.230   2.646  0.0652 -0.3057  0.0786
  140OSM    O1315186   4.514   5.285   2.558 -0.4207  0.1810  0.0658
  140OSM    O1415187   4.261   5.269   2.630  0.2921 -0.4634 -0.3521
  140OSM    O1115188   4.435   5.268   2.798 -0.3181 -0.0605  0.1856
  140OSM    O1215189   4.417   5.070   2.636  0.1698  0.0862 -0.8139
  140OSM    C1S15190   4.343   5.227   2.902  0.4385  0.7968  0.1257
  140OSM    H1S15191   4.341   5.116   2.906 -2.9573  0.7646  0.4204
  140OSM    H1T15192   4.240   5.267   2.891 -0.4753 -1.1425  1.1792
  140OSM     NF15193   4.316   5.221   3.145  0.6308 -0.2556 -0.0931
  140OSM    HNF15194   4.231   5.269   3.165  1.4743  1.3418 -0.1227
  140OSM    C2S15195   4.392   5.284   3.037 -0.0714  0.0540  0.3633
  140OSM    H2S15196   4.500   5.258   3.048  0.1374  0.1616 -1.2422
  140OSM    C3S15197   4.401   5.444   3.027  1.1742 -0.4922 -0.0190
  140OSM    H3S15198   4.302   5.481   2.991  2.3623  2.5108 -0.5022
  140OSM     O315199   4.503   5.495   2.940  0.3335  0.4757 -0.3775
  140OSM    HO315200   4.530   5.427   2.878  0.4692 -1.1725  1.3825
  140OSM    C4S15201   4.415   5.509   3.173 -0.3480 -0.2168  0.0130
  140OSM    H4S15202   4.473   5.450   3.245  1.1459  0.1155 -0.8800
  140OSM    C5S15203   4.337   5.605   3.221  0.8262 -0.1757 -0.4817
  140OSM    H5S15204   4.257   5.633   3.151  0.9793  0.9412 -0.2319
  140OSM    C6S15205   4.324   5.649   3.366 -0.7424 -0.3355  1.2391
  140OSM    H6S15206   4.220   5.647   3.405 -0.7611  0.8541  1.2985
  140OSM    H6T15207   4.336   5.759   3.359  1.7173 -0.4784  2.2038
  140OSM    C7S15208   4.420   5.575   3.467  0.0041  0.0930 -0.1979
  140OSM    H7S15209   4.527   5.593   3.444  0.8751 -2.2458  1.7626
  140OSM    H7T15210   4.400   5.466   3.476 -2.5300  0.4167 -0.9968
  140OSM    C8S15211   4.394   5.635   3.605 -0.3705 -0.3818 -0.3854
  140OSM    H8S15212   4.284   5.638   3.612 -0.2408  1.3895  2.5633
  140OSM    H8T15213   4.439   5.736   3.601 -1.4316  0.1049 -0.1168
  140OSM    C9S15214   4.458   5.552   3.717 -0.0046  0.2640 -0.1365
  140OSM    H9S15215   4.568   5.537   3.706  0.0418 -0.2938  0.9626
  140OSM    H9T15216   4.415   5.450   3.711  1.4103 -0.3307 -0.6366
  140OSM   C10S15217   4.423   5.583   3.864  0.1820  0.1550 -0.7125
  140OSM   H10S15218   4.427   5.497   3.935  0.5881  0.6611 -0.1149
  140OSM   H10T15219   4.316   5.614   3.864 -0.2317 -1.1507  0.2588
  140OSM   C11S15220   4.513   5.699   3.905  0.2614  0.0852 -0.5507
  140OSM   H11S15221   4.513   5.775   3.824  3.4287  0.7729 -0.0331
  140OSM   H11T15222   4.623   5.682   3.909  0.3033  0.5935  2.1317
  140OSM   C12S15223   4.471   5.770   4.035 -0.0732  0.1312 -0.6233
  140OSM   H12S15224   4.362   5.790   4.035 -0.0141  0.4556 -1.0039
  140OSM   H12T15225   4.530   5.863   4.047  1.4542 -0.9891  1.2612
  140OSM   C13S15226   4.499   5.677   4.163  0.4922 -0.8656  1.2562
  140OSM   H13S15227   4.608   5.656   4.173  0.6410  0.6688  3.4835
  140OSM   H13T15228   4.447   5.578   4.161  2.7211 -2.1068 -0.6266
  140OSM   C14S15229   4.468   5.750   4.298 -0.0522 -0.6876  0.3181
  140OSM   H14S15230   4.357   5.744   4.294  0.0447 -3.0634 -2.5525
  140OSM   H14T15231   4.503   5.856   4.295  0.6832 -0.9185  0.4238
  140OSM   C15S15232   4.515   5.672   4.415  0.6704  0.5515 -0.4698
  140OSM   H15S15233   4.626   5.660   4.417  0.6197  0.1333  0.0986
  140OSM   H15T15234   4.482   5.566   4.409  1.6543  0.1146  1.1047
  140OSM   C16S15235   4.478   5.741   4.546  0.1308 -0.2316  0.0573
  140OSM   H16S15236   4.376   5.783   4.528 -0.0935 -0.0272  1.6089
  140OSM   H16T15237   4.552   5.820   4.566 -0.2360  0.4160 -1.0448
  140OSM   C17S15238   4.473   5.646   4.667  0.3814  0.1484 -0.2875
  140OSM   H17S15239   4.452   5.543   4.630  0.6792 -0.1407  0.3241
  140OSM   H17T15240   4.396   5.674   4.742  1.6577  1.5412  0.5669
  140OSM   C18S15241   4.608   5.636   4.742  0.2416  0.1496 -0.2757
  140OSM   H18S15242   4.697   5.618   4.678  2.7774  1.1271  2.7188
  140OSM   H18T15243   4.596   5.548   4.809  0.5619 -0.1771 -0.6365
  140OSM   H18U15244   4.633   5.729   4.796 -0.1466  0.1144 -0.0416
  140OSM    C1F15245   4.324   5.103   3.200 -0.0467 -0.4768  0.7959
  140OSM     OF15246   4.400   5.020   3.152  0.1648  0.1913  0.1633
  140OSM    C2F15247   4.250   5.065   3.321 -0.5097 -0.5358 -0.4526
  140OSM    H2F15248   4.201   4.967   3.300  0.6482 -0.6480 -3.1055
  140OSM    H2G15249   4.173   5.144   3.330  0.7702  0.9846 -2.0043
  140OSM    C3F15250   4.340   5.067   3.441 -0.0808 -0.6266 -0.5205
  140OSM    H3F15251   4.394   5.164   3.444 -1.0584 -0.0536 -1.0277
  140OSM    H3G15252   4.423   4.993   3.429  0.2394 -0.5580  1.1244
  140OSM    C4F15253   4.275   5.007   3.566 -0.0208  0.3880 -0.9516
  140OSM    H4F15254   4.268   4.896   3.565 -0.8417  0.4345 -0.8528
  140OSM    H4G15255   4.171   5.045   3.558  0.1032  0.7232 -0.9877
  140OSM    C5F15256   4.336   5.061   3.699 -0.4450 -0.4696 -0.6150
  140OSM    H5F15257   4.316   5.170   3.694 -0.9289 -0.5326 -0.1498
  140OSM    H5G15258   4.446   5.043   3.703 -0.0783  1.7433  0.8163
  140OSM    C6F15259   4.265   5.010   3.820 -0.8289 -0.0774 -0.2597
  140OSM    H6F15260   4.294   4.904   3.839 -0.6125 -0.0291 -0.3187
  140OSM    H6G15261   4.155   5.004   3.803 -0.6271 -2.7692 -1.0807
  140OSM    C7F15262   4.286   5.101   3.944  0.2896  0.3157 -0.0622
  140OSM    H7F15263   4.272   5.206   3.911  1.6003  1.1845  1.9383
  140OSM    H7G15264   4.394   5.090   3.967  0.5371  0.7661 -0.9645
  140OSM    C8F15265   4.190   5.085   4.066  0.1007 -0.3365 -0.0666
  140OSM    H8F15266   4.090   5.070   4.019  0.2974  0.2256 -0.6783
  140OSM    H8G15267   4.192   5.180   4.123  0.7693 -0.6864  0.5108
  140OSM    C9F15268   4.225   4.961   4.150 -0.0883 -0.6164  0.1546
  140OSM    H9F15269   4.225   4.866   4.095  2.5585 -1.2844  1.1498
  140OSM   C10F15270   4.233   4.965   4.287  0.2050  0.1507  0.8103
  140OSM   H10F15271   4.255   4.873   4.342  3.1331  0.8668  0.9849
  140OSM   C11F15272   4.231   5.098   4.367 -0.5766 -0.0029  0.4636
  140OSM   H11F15273   4.123   5.119   4.380 -1.6778 -2.9917 -2.5348
  140OSM   H11G15274   4.267   5.187   4.311  1.1590 -0.9057  0.0797
  140OSM   C12F15275   4.296   5.086   4.502 -0.8275 -0.2352 -0.8060
  140OSM   H12F15276   4.318   5.190   4.535  0.1290 -0.8075  0.4275
  140OSM   H12G15277   4.381   5.015   4.509 -0.3491  0.5205  1.8230
  140OSM   C13F15278   4.192   5.027   4.603 -0.0871  0.3221  0.0289
  140OSM   H13F15279   4.139   4.938   4.563  1.0589 -0.7781  0.8872
  140OSM   H13G15280   4.108   5.097   4.621  0.9422  1.0314  2.5736
  140OSM   C14F15281   4.246   5.007   4.744 -0.5152  0.3684  0.0697
  140OSM   H14F15282   4.265   5.102   4.798 -1.4520  1.1462 -0.9236
  140OSM   H14G15283   4.346   4.958   4.740 -0.6637  0.1294 -2.1579
  140OSM   C15F15284   4.161   4.912   4.831  0.8975  0.2891  0.4161
  140OSM   H15F15285   4.140   4.825   4.766  0.8430 -0.6446  1.6407
  140OSM   H15G15286   4.074   4.980   4.846  0.7960  0.4003 -0.6569
  140OSM   C16F15287   4.229   4.857   4.953  0.4047  0.0172 -0.5772
  140OSM   H16F15288   4.257   4.936   5.025 -0.7523 -0.5715  0.5507
  140OSM   H16G15289   4.319   4.801   4.917 -0.7051 -1.9782 -0.4030
  140OSM   C17F15290   4.140   4.766   5.037  0.2421 -0.0983  0.1008
  140OSM   H17F15291   4.196   4.735   5.128 -2.0177 -1.5297  1.0706
  140OSM   H17G15292   4.111   4.677   4.977  2.8017 -0.5342 -0.6443
  140OSM   C18F15293   4.010   4.838   5.089 -0.4945  0.3169 -0.1791
  140OSM   H18F15294   3.956   4.770   5.160 -1.4439 -0.9200 -1.9909
  140OSM   H18G15295   3.931   4.861   5.014 -2.2930 -2.6965  0.5770
  140OSM   H18H15296   4.046   4.920   5.155  2.1815 -2.2025  1.7496
  141OSM      N15297   1.480   4.822   2.678 -0.5465  0.1039  0.3694
  141OSM    C1515298   1.450   4.966   2.665  0.2597 -0.3861  0.0351
  141OSM   H15A15299   1.513   5.009   2.589 -1.3872  2.3925  0.1328
  141OSM   H15B15300   1.477   5.021   2.754  0.8699 -0.9598  0.2129
  141OSM   H15C15301   1.346   4.979   2.640  0.7066  2.2903 -0.7541
  141OSM    C1415302   1.460   4.769   2.538 -0.4593  0.2032  0.0566
  141OSM   H14A15303   1.487   4.665   2.531  0.9974  0.5934 -0.3577
  141OSM   H14B15304   1.533   4.824   2.480  1.1940 -0.0656  1.8292
  141OSM   H14C15305   1.361   4.774   2.494  0.8087  0.7139 -3.0291
  141OSM    C1315306   1.628   4.816   2.713 -0.1048  0.2076 -0.1299
  141OSM   H13A15307   1.659   4.713   2.720 -1.5100 -0.4902 -2.9245
  141OSM   H13B15308   1.646   4.858   2.811 -0.3746 -0.1131  0.0586
  141OSM   H13C15309   1.687   4.874   2.644 -1.2242  0.9295 -0.5020
  141OSM    C1215310   1.389   4.757   2.773 -0.9335 -0.3545  0.4949
  141OSM   H12A15311   1.404   4.650   2.766 -2.1248 -0.5017 -0.0023
  141OSM   H12B15312   1.285   4.777   2.748 -0.4235  0.1045 -1.4427
  141OSM    C1115313   1.417   4.793   2.926  0.4802 -0.2209  0.5815
  141OSM   H11A15314   1.327   4.761   2.982  0.1637 -0.0344  0.1791
  141OSM   H11B15315   1.424   4.902   2.945 -2.3629  0.0341  0.6101
  141OSM      P15316   1.555   4.567   2.983 -0.2129 -0.5367 -0.1740
  141OSM    O1315317   1.428   4.495   2.972 -0.1355 -1.0724 -0.4775
  141OSM    O1415318   1.653   4.542   2.882 -1.0980 -0.3236 -0.3189
  141OSM    O1115319   1.611   4.542   3.122  0.1119  0.8328  0.5003
  141OSM    O1215320   1.534   4.729   2.980  0.3853  0.5198 -0.3821
  141OSM    C1S15321   1.585   4.619   3.242 -0.1216 -0.3902  0.4126
  141OSM    H1S15322   1.476   4.606   3.258 -0.3474 -1.1177 -1.5052
  141OSM    H1T15323   1.598   4.728   3.223  0.8393 -0.8248 -1.6399
  141OSM     NF15324   1.624   4.608   3.495 -0.4916 -0.0978  0.0361
  141OSM    HNF15325   1.669   4.684   3.541 -0.4287  0.3753 -0.8070
  141OSM    C2S15326   1.679   4.566   3.365  0.1873 -0.5073 -0.0125
  141OSM    H2S15327   1.681   4.455   3.363 -0.9904 -0.6190  2.1294
  141OSM    C3S15328   1.823   4.614   3.339 -0.3561  0.1197  0.2175
  141OSM    H3S15329   1.817   4.724   3.332 -1.2949  0.1558  1.2657
  141OSM     O315330   1.884   4.553   3.226 -0.5624 -0.2626  0.7487
  141OSM    HO315331   1.815   4.518   3.170  1.2108  1.6784 -2.9792
  141OSM    C4S15332   1.923   4.586   3.448 -0.1352 -0.1834 -0.2456
  141OSM    H4S15333   1.968   4.680   3.483  0.3626 -0.6217  0.3136
  141OSM    C5S15334   1.961   4.469   3.506  0.3005  0.5739  0.0565
  141OSM    H5S15335   1.917   4.378   3.463 -0.1091  0.9651 -0.3550
  141OSM    C6S15336   2.059   4.447   3.616  0.8833 -0.2241 -0.6008
  141OSM    H6S15337   2.161   4.475   3.583 -0.4121  2.9918 -2.3478
  141OSM    H6T15338   2.056   4.338   3.635 -0.0931  0.1299  1.5673
  141OSM    C7S15339   2.020   4.507   3.750  0.6177 -0.4462 -0.1156
  141OSM    H7S15340   1.911   4.496   3.771  0.5400 -1.9963 -1.1528
  141OSM    H7T15341   2.036   4.617   3.745  2.5763 -0.6672  0.3765
  141OSM    C8S15342   2.096   4.449   3.872  0.1696 -0.2873 -0.1990
  141OSM    H8S15343   2.205   4.463   3.863  0.1282  0.7863  0.7724
  141OSM    H8T15344   2.075   4.340   3.880  1.0758 -0.3565  1.9461
  141OSM    C9S15345   2.052   4.513   4.008 -0.0666  0.0613 -0.4206
  141OSM    H9S15346   1.945   4.504   4.038 -0.5342  2.3123 -1.1606
  141OSM    H9T15347   2.071   4.622   4.001 -0.1268  0.0756 -0.3726
  141OSM   C10S15348   2.135   4.457   4.122 -0.7762 -0.0299 -0.3038
  141OSM   H10S15349   2.243   4.465   4.096 -0.7052 -0.5277 -0.1690
  141OSM   H10T15350   2.106   4.352   4.140  1.5390 -0.7525 -0.4685
  141OSM   C11S15351   2.121   4.528   4.253 -0.0075 -0.7914  0.3169
  141OSM   H11S15352   2.013   4.553   4.262  0.1613  0.0490  0.0887
  141OSM   H11T15353   2.178   4.624   4.248 -2.7732  0.9438 -0.1808
  141OSM   C12S15354   2.186   4.447   4.368 -0.1813  0.4395  0.1819
  141OSM   H12S15355   2.294   4.430   4.353 -0.2630  1.1797 -1.4486
  141OSM   H12T15356   2.127   4.354   4.380  1.9881 -0.9275  0.7643
  141OSM   C13S15357   2.170   4.519   4.498 -0.0851  0.0410 -0.3426
  141OSM   H13S15358   2.062   4.512   4.526  0.7283  1.7409  4.1139
  141OSM   H13T15359   2.188   4.628   4.489 -2.0805  0.2896 -2.2605
  141OSM   C14S15360   2.255   4.460   4.601  0.8098  0.0928  0.3071
  141OSM   H14S15361   2.360   4.494   4.587  1.6719 -3.2551 -2.7543
  141OSM   H14T15362   2.237   4.350   4.598 -1.4260  0.4425 -1.3530
  141OSM   C15S15363   2.228   4.503   4.740 -0.6607  1.0916  0.5742
  141OSM   H15S15364   2.258   4.426   4.814  2.0410  1.9184  0.4476
  141OSM   H15T15365   2.118   4.503   4.756 -0.9440  1.2641 -1.1279
  141OSM   C16S15366   2.292   4.635   4.776  0.3252 -0.3417 -0.0999
  141OSM   H16S15367   2.249   4.716   4.713 -0.4913 -0.5522  0.1734
  141OSM   H16T15368   2.401   4.634   4.757  0.2027  0.2214 -0.8926
  141OSM   C17S15369   2.271   4.668   4.927  0.1159 -0.8342  0.1957
  141OSM   H17S15370   2.305   4.772   4.945  0.0736 -1.0554  1.6269
  141OSM   H17T15371   2.339   4.598   4.980  1.7246 -1.0114 -1.9805
  141OSM   C18S15372   2.128   4.655   4.975  0.0939  0.2820 -0.4329
  141OSM   H18S15373   2.111   4.681   5.081  0.5886  1.4543 -0.6280
  141OSM   H18T15374   2.100   4.547   4.977  0.2892  0.2197  2.0186
  141OSM   H18U15375   2.065   4.720   4.910  0.8552 -0.7919 -2.3382
  141OSM    C1F15376   1.528   4.546   3.557  0.0075  0.2773  0.0400
  141OSM     OF15377   1.465   4.456   3.506 -0.6277 -0.3877  0.4777
  141OSM    C2F15378   1.490   4.610   3.685 -0.0243  0.5985 -0.6386
  141OSM    H2F15379   1.389   4.656   3.673 -0.7580 -0.9402 -0.6477
  141OSM    H2G15380   1.549   4.702   3.700 -2.4082  2.4688 -1.9960
  141OSM    C3F15381   1.500   4.518   3.806 -0.0583  0.8808  0.1488
  141OSM    H3F15382   1.607   4.494   3.821  0.9948  3.6731 -1.9329
  141OSM    H3G15383   1.441   4.424   3.792  1.5238  0.0678 -1.5526
  141OSM    C4F15384   1.460   4.583   3.939 -0.1783 -0.8757  0.6941
  141OSM    H4F15385   1.351   4.602   3.933 -0.0040 -0.2622 -1.3614
  141OSM    H4G15386   1.518   4.678   3.944 -1.6666  0.2075 -1.2362
  141OSM    C5F15387   1.505   4.498   4.052  1.1300  0.0369 -0.5859
  141OSM    H5F15388   1.611   4.468   4.044  1.5494  1.0623  0.7722
  141OSM    H5G15389   1.441   4.408   4.063 -0.4894  1.2461  0.4961
  141OSM    C6F15390   1.506   4.577   4.183  0.8198 -0.4384 -0.7054
  141OSM    H6F15391   1.403   4.588   4.222  0.1424 -0.0703 -2.5172
  141OSM    H6G15392   1.534   4.680   4.153 -2.2140 -0.4576 -4.2296
  141OSM    C7F15393   1.602   4.523   4.286  0.3999  0.0687 -0.0630
  141OSM    H7F15394   1.702   4.521   4.238  0.6085 -0.7389  0.3850
  141OSM    H7G15395   1.571   4.417   4.292 -4.2981  1.1727 -1.1253
  141OSM    C8F15396   1.610   4.597   4.416 -0.7128 -0.3288  0.0319
  141OSM    H8F15397   1.512   4.593   4.468  0.3253 -1.2521  2.0171
  141OSM    H8G15398   1.620   4.706   4.394 -1.4048 -0.1679  0.4915
  141OSM    C9F15399   1.731   4.550   4.503 -0.0938 -0.6102 -0.5413
  141OSM    H9F15400   1.811   4.500   4.446 -1.0846  0.4154 -2.9611
  141OSM   C10F15401   1.734   4.556   4.640 -0.0702  0.0061 -0.3474
  141OSM   H10F15402   1.821   4.514   4.692  0.7320  0.3548 -1.3658
  141OSM   C11F15403   1.633   4.611   4.736 -0.2914  0.0472 -0.7422
  141OSM   H11F15404   1.567   4.682   4.681  2.2033  1.3725 -2.1925
  141OSM   H11G15405   1.687   4.672   4.812  0.9992 -0.1874 -1.4527
  141OSM   C12F15406   1.566   4.487   4.808  0.5024  0.7580 -0.1821
  141OSM   H12F15407   1.505   4.533   4.888 -0.5068 -1.1302  0.1804
  141OSM   H12G15408   1.635   4.408   4.845  1.1173  0.8860 -1.0082
  141OSM   C13F15409   1.467   4.414   4.718  0.1787  0.0084 -0.5945
  141OSM   H13F15410   1.498   4.370   4.621  2.3381 -0.9005  0.4538
  141OSM   H13G15411   1.381   4.485   4.713  0.7246  0.9661  1.9471
  141OSM   C14F15412   1.395   4.296   4.797 -0.5448 -0.5382 -0.3796
  141OSM   H14F15413   1.471   4.219   4.822 -1.2609 -0.8216  1.0099
  141OSM   H14G15414   1.320   4.247   4.732 -1.3171  0.3637 -0.1795
  141OSM   C15F15415   1.324   4.340   4.929  0.0528  0.1100 -0.4573
  141OSM   H15F15416   1.251   4.419   4.899  0.2170  0.7694  0.8086
  141OSM   H15G15417   1.400   4.387   4.995  0.6428  1.0831 -1.7643
  141OSM   C16F15418   1.243   4.215   4.989  0.4054  0.0877  0.0257
  141OSM   H16F15419   1.306   4.124   5.000 -0.3452 -0.4032  0.3144
  141OSM   H16G15420   1.158   4.190   4.922 -0.4487 -1.5049  1.6163
  141OSM   C17F15421   1.171   4.241   5.120 -0.3126  0.1912 -0.0564
  141OSM   H17F15422   1.139   4.143   5.160 -0.5837  0.6318  0.8281
  141OSM   H17G15423   1.073   4.294   5.113 -0.5158  0.4968  3.4524
  141OSM   C18F15424   1.261   4.320   5.224  0.3635 -0.1424 -0.5611
  141OSM   H18F15425   1.353   4.260   5.238  0.9590  1.1030  1.1659
  141OSM   H18G15426   1.210   4.334   5.322  1.3904  1.5744 -0.2317
  141OSM   H18H15427   1.285   4.423   5.191 -0.4581  0.8289  1.6731
  142OSM      N15428   1.908   6.308   2.860  0.2594 -0.1644 -0.1695
  142OSM    C1515429   2.048   6.280   2.907 -0.1990  0.0045 -0.5078
  142OSM   H15A15430   2.106   6.365   2.937 -0.1260 -0.3893  0.4900
  142OSM   H15B15431   2.100   6.229   2.827 -0.0097  0.9560 -1.0077
  142OSM   H15C15432   2.054   6.210   2.989 -1.9939  0.9505  0.4764
  142OSM    C1415433   1.897   6.425   2.761  0.4952  0.8850 -0.1363
  142OSM   H14A15434   1.976   6.418   2.688  2.1439  0.8300  1.5749
  142OSM   H14B15435   1.901   6.516   2.818  1.9649  0.2080  0.8997
  142OSM   H14C15436   1.803   6.428   2.708  1.3048  0.2836 -1.6792
  142OSM    C1315437   1.865   6.187   2.792  0.0269  0.1241  0.3201
  142OSM   H13A15438   1.916   6.099   2.829  0.8365  1.1852  1.8324
  142OSM   H13B15439   1.888   6.194   2.687  0.7608 -0.4926  0.4273
  142OSM   H13C15440   1.759   6.169   2.798  0.1155 -0.1992  1.0412
  142OSM    C1215441   1.815   6.339   2.974  0.1060 -0.0725  0.9067
  142OSM   H12A15442   1.711   6.353   2.948  0.3792  0.5530  0.0825
  142OSM   H12B15443   1.848   6.433   3.015 -0.6692  1.0222 -0.8475
  142OSM    C1115444   1.815   6.243   3.098 -0.3201 -0.4404  0.2299
  142OSM   H11A15445   1.759   6.297   3.177  0.8836  0.0331  0.7832
  142OSM   H11B15446   1.918   6.234   3.138 -0.4666  0.7519  0.9319
  142OSM      P15447   1.605   6.094   3.064  0.1768  0.6064 -0.4621
  142OSM    O1315448   1.553   6.193   2.972  0.9195  0.2375 -0.0035
  142OSM    O1415449   1.580   5.953   3.039  0.2050 -0.4256 -0.4324
  142OSM    O1115450   1.538   6.123   3.202 -0.1791 -0.5478  0.0069
  142OSM    O1215451   1.763   6.113   3.075  0.4936 -0.0243 -0.5929
  142OSM    C1S15452   1.588   6.095   3.329 -0.2784  0.1211 -0.2795
  142OSM    H1S15453   1.656   6.178   3.357  1.2138 -1.5773  1.3683
  142OSM    H1T15454   1.640   5.997   3.334  0.7748  0.7648  2.3312
  142OSM     NF15455   1.541   6.083   3.563 -0.3423  0.2010 -0.1764
  142OSM    HNF15456   1.544   5.990   3.598 -1.9286  1.1150  2.6804
  142OSM    C2S15457   1.481   6.091   3.435  0.8975 -0.3390 -0.1459
  142OSM    H2S15458   1.420   6.183   3.425  0.1408 -0.8261 -0.1096
  142OSM    C3S15459   1.391   5.962   3.400 -0.5368 -0.4265 -0.0908
  142OSM    H3S15460   1.446   5.869   3.424  1.7441  0.3979 -1.7263
  142OSM     O315461   1.348   5.952   3.266  0.6337  0.0399 -0.2063
  142OSM    HO315462   1.419   5.999   3.222 -1.0554  0.4273 -2.7367
  142OSM    C4S15463   1.273   5.965   3.487  0.7020  0.6499 -0.5349
  142OSM    H4S15464   1.214   6.057   3.477  0.4686  0.7973  1.5715
  142OSM    C5S15465   1.226   5.875   3.577 -0.3823 -0.0475  0.4314
  142OSM    H5S15466   1.278   5.778   3.571 -1.1539 -0.3571 -2.7173
  142OSM    C6S15467   1.097   5.882   3.658  0.0334  0.0295  0.2375
  142OSM    H6S15468   1.118   5.811   3.740  1.0351 -2.0384 -1.7098
  142OSM    H6T15469   1.013   5.851   3.591  0.3076 -1.0659  0.3878
  142OSM    C7S15470   1.054   6.022   3.716 -0.4899  0.0511 -0.5032
  142OSM    H7S15471   1.019   6.084   3.630 -2.1744 -0.9531 -0.5890
  142OSM    H7T15472   1.154   6.056   3.750  0.2338 -1.5507 -0.9405
  142OSM    C8S15473   0.945   6.012   3.819 -0.4601  0.2510 -0.3823
  142OSM    H8S15474   0.848   5.985   3.771 -0.7001 -1.9350  1.2106
  142OSM    H8T15475   0.933   6.117   3.852  1.3565 -0.0331  1.3224
  142OSM    C9S15476   0.964   5.917   3.945  0.6225 -0.4110 -0.3078
  142OSM    H9S15477   0.968   5.813   3.907 -1.5612  0.4395 -3.2529
  142OSM    H9T15478   0.869   5.941   3.998 -0.7784  0.5761 -3.0726
  142OSM   C10S15479   1.096   5.946   4.022  0.0920  0.2159 -0.3890
  142OSM   H10S15480   1.111   6.050   4.058  0.4739 -0.0236  0.1609
  142OSM   H10T15481   1.178   5.924   3.951  0.1028  0.3274 -0.4112
  142OSM   C11S15482   1.121   5.846   4.141 -0.3196  1.0396 -0.3510
  142OSM   H11S15483   1.225   5.861   4.177 -0.1510  0.0182 -0.3944
  142OSM   H11T15484   1.134   5.743   4.100 -1.3697  0.5147  0.5952
  142OSM   C12S15485   1.009   5.847   4.239 -0.3249  0.3699  0.9976
  142OSM   H12S15486   0.914   5.815   4.191 -0.0344  1.2387 -0.2134
  142OSM   H12T15487   0.995   5.955   4.260 -1.0021  0.6468 -0.6999
  142OSM   C13S15488   1.046   5.772   4.367  0.1419 -0.3039  0.8102
  142OSM   H13S15489   1.145   5.793   4.411 -0.7093  2.3693  1.6643
  142OSM   H13T15490   1.059   5.671   4.324  4.0626  0.3763  0.0685
  142OSM   C14S15491   0.934   5.778   4.472 -0.3359  0.8134 -0.3652
  142OSM   H14S15492   0.841   5.739   4.425  0.2133 -1.9769  0.6583
  142OSM   H14T15493   0.914   5.879   4.513  0.2625  0.2840  1.2951
  142OSM   C15S15494   0.963   5.689   4.592 -0.4654 -0.0794  0.3009
  142OSM   H15S15495   1.031   5.741   4.663  1.5039 -1.8464 -0.2056
  142OSM   H15T15496   1.007   5.596   4.551  0.1047  1.2490 -2.2984
  142OSM   C16S15497   0.835   5.661   4.672 -0.4866  0.1894 -0.4838
  142OSM   H16S15498   0.759   5.589   4.633 -1.3082  0.1939  1.0326
  142OSM   H16T15499   0.792   5.763   4.681 -0.2160  0.4873 -2.2209
  142OSM   C17S15500   0.872   5.603   4.813 -0.1314  0.2653  0.1734
  142OSM   H17S15501   0.945   5.672   4.860  1.0762  0.0524 -1.2953
  142OSM   H17T15502   0.919   5.504   4.794  0.8871  1.1111 -2.1147
  142OSM   C18S15503   0.752   5.587   4.899  0.2883 -0.6591  0.1858
  142OSM   H18S15504   0.781   5.568   5.005 -0.7552 -0.9660  0.4322
  142OSM   H18T15505   0.695   5.496   4.870 -0.5554  0.5522 -2.1470
  142OSM   H18U15506   0.679   5.670   4.908  0.2031 -0.9332  3.1815
  142OSM    C1F15507   1.595   6.187   3.634 -0.9785  0.3041 -0.4520
  142OSM     OF15508   1.600   6.292   3.580 -0.2298  0.3722 -0.1482
  142OSM    C2F15509   1.666   6.159   3.764 -0.7191 -0.4662 -0.5793
  142OSM    H2F15510   1.775   6.171   3.747 -0.8434 -0.0857 -1.1420
  142OSM    H2G15511   1.647   6.059   3.807 -1.5445 -0.5587 -1.1214
  142OSM    C3F15512   1.639   6.262   3.876 -0.6153  0.4387  0.5945
  142OSM    H3F15513   1.535   6.302   3.883 -0.2811  1.0451  2.4095
  142OSM    H3G15514   1.704   6.351   3.869 -1.0718  0.9455  2.3335
  142OSM    C4F15515   1.656   6.189   4.008 -1.2853 -0.3530  0.0237
  142OSM    H4F15516   1.762   6.156   4.013 -1.6791 -1.5429  0.6717
  142OSM    H4G15517   1.592   6.099   4.013 -1.4648 -0.3516 -1.5982
  142OSM    C5F15518   1.628   6.286   4.126 -0.3244 -0.3508 -1.5654
  142OSM    H5F15519   1.522   6.320   4.120 -0.8901 -2.1275 -1.9837
  142OSM    H5G15520   1.698   6.372   4.123  1.0066 -1.3705 -0.8287
  142OSM    C6F15521   1.634   6.209   4.257  0.2460  0.1681 -0.6314
  142OSM    H6F15522   1.735   6.167   4.277  0.1954  0.9236  1.5078
  142OSM    H6G15523   1.573   6.118   4.239  2.5132 -1.2676 -1.4857
  142OSM    C7F15524   1.601   6.296   4.379 -0.1241  0.3078  0.0527
  142OSM    H7F15525   1.493   6.318   4.366  0.3138  2.0860 -0.7598
  142OSM    H7G15526   1.652   6.394   4.385 -2.6628  1.6364  3.7958
  142OSM    C8F15527   1.636   6.215   4.504  0.2086 -0.2558 -0.2930
  142OSM    H8F15528   1.729   6.155   4.496 -1.0007 -2.1403 -0.8477
  142OSM    H8G15529   1.561   6.133   4.511 -0.4475  0.2520 -1.0319
  142OSM    C9F15530   1.642   6.294   4.635 -0.5587  0.7759 -0.1657
  142OSM    H9F15531   1.608   6.398   4.628 -0.0969  0.9878  0.6033
  142OSM   C10F15532   1.684   6.237   4.751  0.2114  0.0953 -0.2231
  142OSM   H10F15533   1.682   6.299   4.842  0.7947 -0.3494  0.0996
  142OSM   C11F15534   1.713   6.090   4.768 -0.4867  0.4000 -0.4038
  142OSM   H11F15535   1.807   6.059   4.718  0.6848  0.6078  1.5963
  142OSM   H11G15536   1.638   6.035   4.706  0.7518 -0.6807 -0.9940
  142OSM   C12F15537   1.705   6.047   4.914  0.1402  0.3298 -0.3615
  142OSM   H12F15538   1.606   6.071   4.958  0.8951  0.5840  1.2751
  142OSM   H12G15539   1.774   6.107   4.977 -0.3730  0.6077 -0.0582
  142OSM   C13F15540   1.728   5.890   4.928 -0.4456 -0.4253  0.9628
  142OSM   H13F15541   1.832   5.861   4.901  0.0426 -0.5274  2.7996
  142OSM   H13G15542   1.665   5.837   4.853  0.9115 -0.6414 -0.0713
  142OSM   C14F15543   1.691   5.831   5.063 -1.1530  0.1733 -0.6274
  142OSM   H14F15544   1.582   5.847   5.072 -1.4206 -1.3299 -0.8979
  142OSM   H14G15545   1.745   5.876   5.150 -1.9072 -0.6427  0.2770
  142OSM   C15F15546   1.706   5.674   5.073  0.3577 -0.7995  0.4455
  142OSM   H15F15547   1.776   5.639   4.994  0.4772  1.5780 -0.5910
  142OSM   H15G15548   1.607   5.654   5.026 -0.7783  1.2032  1.8409
  142OSM   C16F15549   1.758   5.616   5.204  1.2165 -0.0987  1.1277
  142OSM   H16F15550   1.839   5.685   5.235  0.1142  1.3194  0.9680
  142OSM   H16G15551   1.797   5.512   5.197 -0.8026 -0.8875  0.8437
  142OSM   C17F15552   1.661   5.625   5.318  0.2501 -0.2543  0.3319
  142OSM   H17F15553   1.618   5.720   5.356  0.3321 -0.0038 -0.2024
  142OSM   H17G15554   1.710   5.580   5.407 -0.8739  0.9042  1.5884
  142OSM   C18F15555   1.536   5.536   5.291 -0.0456  0.2576  0.3407
  142OSM   H18F15556   1.568   5.450   5.228  1.2428 -0.2935  1.7033
  142OSM   H18G15557   1.461   5.601   5.239 -0.1694  2.1552  2.7010
  142OSM   H18H15558   1.483   5.501   5.382 -1.6194  1.4341 -0.0697
  143OSM      N15559   6.162   5.742   2.971  0.1834 -0.1317  0.1581
  143OSM    C1515560   6.204   5.758   3.112  0.3380 -0.1624 -0.5747
  143OSM   H15A15561   6.178   5.671   3.170 -1.0486  0.8282  0.3592
  143OSM   H15B15562   6.157   5.843   3.159  3.4139  0.9017  0.7741
  143OSM   H15C15563   6.310   5.776   3.104  0.1676  1.1720  0.0273
  143OSM    C1415564   6.218   5.620   2.901 -0.2200 -0.6459  0.0721
  143OSM   H14A15565   6.159   5.587   2.817  0.4903  0.7670 -1.0193
  143OSM   H14B15566   6.210   5.539   2.972  1.8114 -3.0811 -2.2548
  143OSM   H14C15567   6.324   5.632   2.881 -0.5117  2.1314 -0.1871
  143OSM    C1315568   6.015   5.726   2.962  0.0422 -0.1279 -0.3931
  143OSM   H13A15569   5.953   5.802   3.008  1.3583  0.2878  0.7912
  143OSM   H13B15570   5.987   5.642   3.025  1.3464 -1.1083 -1.0668
  143OSM   H13C15571   5.973   5.697   2.867 -1.3113  2.7407 -0.7714
  143OSM    C1215572   6.213   5.870   2.899 -0.4491  0.6049 -0.0576
  143OSM   H12A15573   6.173   5.953   2.955 -2.0827  1.3045 -2.1329
  143OSM   H12B15574   6.170   5.881   2.800 -0.0235 -1.4355 -0.5210
  143OSM    C1115575   6.375   5.899   2.890 -0.0255  0.0128 -0.2267
  143OSM   H11A15576   6.386   5.987   2.823 -2.9240 -0.0046 -0.8570
  143OSM   H11B15577   6.428   5.813   2.845  1.0169  1.0477 -1.0403
  143OSM      P15578   6.470   6.058   3.076  0.1244 -0.0072 -0.3388
  143OSM    O1315579   6.609   6.080   3.029  0.3636  0.8668  0.3367
  143OSM    O1415580   6.371   6.167   3.059  0.0349 -0.0422 -0.0017
  143OSM    O1115581   6.478   6.019   3.223  0.3148 -0.3627  0.1952
  143OSM    O1215582   6.416   5.922   3.023 -0.4582  0.6733 -0.5701
  143OSM    C1S15583   6.366   6.024   3.304  1.2630  0.4948  0.4199
  143OSM    H1S15584   6.296   5.947   3.264  1.6276 -0.5145  1.6610
  143OSM    H1T15585   6.319   6.124   3.314  0.1407 -0.0146  0.3998
  143OSM     NF15586   6.285   5.904   3.504  0.1838  0.3807  0.5383
  143OSM    HNF15587   6.216   5.952   3.557 -0.2984 -0.6588  0.8711
  143OSM    C2S15588   6.396   5.975   3.452  0.0014 -0.4219 -0.3239
  143OSM    H2S15589   6.491   5.918   3.456  1.8619  2.5068  0.5981
  143OSM    C3S15590   6.439   6.103   3.528  0.4784 -0.0339 -0.0112
  143OSM    H3S15591   6.345   6.163   3.528 -0.8124 -1.9322  0.8155
  143OSM     O315592   6.537   6.179   3.452  0.9527  0.8252  0.3029
  143OSM    HO315593   6.538   6.143   3.363  2.5296  0.7615  0.3105
  143OSM    C4S15594   6.484   6.067   3.671 -0.0467 -1.2201  0.4226
  143OSM    H4S15595   6.566   5.995   3.680  0.9642 -0.2036 -0.2836
  143OSM    C5S15596   6.433   6.120   3.781 -0.2373  0.3808  0.2151
  143OSM    H5S15597   6.344   6.184   3.775 -0.5034  0.0065  0.1113
  143OSM    C6S15598   6.494   6.095   3.919  0.4747 -0.3204  0.4932
  143OSM    H6S15599   6.561   6.177   3.954  1.4246 -0.0462 -1.7915
  143OSM    H6T15600   6.554   6.002   3.929  1.1727  0.2447  1.8401
  143OSM    C7S15601   6.372   6.095   4.014  0.4008  0.5421 -0.5838
  143OSM    H7S15602   6.292   6.026   3.980 -0.2170  2.2435 -2.7817
  143OSM    H7T15603   6.316   6.191   4.020 -0.1971  0.2393 -1.2402
  143OSM    C8S15604   6.422   6.056   4.157  0.5683 -0.1505 -0.3851
  143OSM    H8S15605   6.503   6.124   4.189 -0.6147  1.2947 -0.3316
  143OSM    H8T15606   6.449   5.948   4.163 -0.6136 -0.4562 -0.3007
  143OSM    C9S15607   6.323   6.075   4.275 -0.4615 -0.6491 -0.5372
  143OSM    H9S15608   6.280   5.974   4.292  1.8362 -2.3404 -3.6165
  143OSM    H9T15609   6.241   6.147   4.252  0.6045  1.9229  2.8702
  143OSM   C10S15610   6.384   6.129   4.407 -0.1356  0.2421  0.2276
  143OSM   H10S15611   6.420   6.234   4.399 -1.6749  0.8615  0.9743
  143OSM   H10T15612   6.472   6.063   4.421  1.1425  2.0093  0.9135
  143OSM   C11S15613   6.283   6.129   4.528  0.3315  0.1354  0.6323
  143OSM   H11S15614   6.229   6.033   4.534 -1.3851  1.0235  0.0239
  143OSM   H11T15615   6.205   6.201   4.496 -0.7170 -1.6609 -1.0415
  143OSM   C12S15616   6.352   6.155   4.653  0.2820  0.3302  0.0074
  143OSM   H12S15617   6.438   6.223   4.635  0.3969  0.4225  0.8603
  143OSM   H12T15618   6.406   6.062   4.684  2.5263  1.6155  0.1581
  143OSM   C13S15619   6.254   6.212   4.755 -0.1854 -0.4320 -0.3993
  143OSM   H13S15620   6.198   6.291   4.700  1.2252 -0.4664 -1.9646
  143OSM   H13T15621   6.308   6.258   4.841 -1.9802 -2.8698  2.2169
  143OSM   C14S15622   6.156   6.101   4.815  0.2003  0.0726 -0.1383
  143OSM   H14S15623   6.219   6.010   4.820 -0.1126 -0.2731 -1.8916
  143OSM   H14T15624   6.068   6.087   4.749  0.7343  3.1792 -1.6911
  143OSM   C15S15625   6.107   6.127   4.958 -0.4419  0.4724  0.4308
  143OSM   H15S15626   6.200   6.122   5.018 -1.7063  1.2650  2.5814
  143OSM   H15T15627   6.038   6.046   4.991 -1.0857  0.3660 -1.1196
  143OSM   C16S15628   6.038   6.265   4.975 -0.0857 -0.3101 -0.2248
  143OSM   H16S15629   6.107   6.341   4.933 -1.8708  2.1092  0.9870
  143OSM   H16T15630   6.029   6.286   5.084 -3.0079 -0.7068 -0.3227
  143OSM   C17S15631   5.913   6.290   4.892 -0.5506  0.2068 -0.1349
  143OSM   H17S15632   5.843   6.210   4.924  1.6378 -1.8356 -0.1955
  143OSM   H17T15633   5.934   6.286   4.783  1.6714 -0.9687  0.2693
  143OSM   C18S15634   5.845   6.427   4.913 -0.4220 -0.8159 -0.2732
  143OSM   H18S15635   5.933   6.488   4.882  1.4166 -5.0541 -4.6736
  143OSM   H18T15636   5.808   6.454   5.015 -1.9489 -2.8688 -0.2175
  143OSM   H18U15637   5.766   6.462   4.844  1.6371  1.3542 -1.6808
  143OSM    C1F15638   6.278   5.772   3.489  0.7312  0.6223  0.2271
  143OSM     OF15639   6.364   5.708   3.432 -0.0073 -0.1805  0.0415
  143OSM    C2F15640   6.154   5.700   3.544 -0.7673  0.0153  0.5068
  143OSM    H2F15641   6.106   5.644   3.461  0.6545  0.4814 -0.6738
  143OSM    H2G15642   6.082   5.779   3.572 -2.1498 -0.5343 -1.3123
  143OSM    C3F15643   6.194   5.604   3.663 -0.5620 -0.2585 -0.2055
  143OSM    H3F15644   6.294   5.560   3.643 -0.7172 -1.1900  0.9558
  143OSM    H3G15645   6.124   5.518   3.668  0.8674 -1.4415  0.3799
  143OSM    C4F15646   6.180   5.662   3.803  0.1166  0.1207 -0.1070
  143OSM    H4F15647   6.072   5.684   3.815 -0.3175 -0.7338 -2.0522
  143OSM    H4G15648   6.239   5.755   3.820 -1.6368  1.5702 -1.5137
  143OSM    C5F15649   6.218   5.576   3.928 -0.1667  0.3185  0.6645
  143OSM    H5F15650   6.325   5.548   3.939 -0.7934 -2.8307 -0.2248
  143OSM    H5G15651   6.160   5.482   3.922 -1.1597  0.9120  0.7443
  143OSM    C6F15652   6.163   5.641   4.053 -0.7076  0.2834  0.0455
  143OSM    H6F15653   6.059   5.676   4.034 -1.2253 -1.2047  0.0059
  143OSM    H6G15654   6.245   5.712   4.073  0.6899 -0.9429 -1.1025
  143OSM    C7F15655   6.173   5.543   4.167  0.1678 -0.0583  0.8402
  143OSM    H7F15656   6.275   5.500   4.173 -0.7382 -2.1442  2.3906
  143OSM    H7G15657   6.107   5.455   4.153  1.6389 -0.8949 -1.5694
  143OSM    C8F15658   6.144   5.609   4.301  0.3567  0.3715 -0.3489
  143OSM    H8F15659   6.078   5.546   4.365 -1.1030  3.5545  1.5423
  143OSM    H8G15660   6.080   5.700   4.295 -2.4089 -1.4536 -0.3716
  143OSM    C9F15661   6.256   5.641   4.390  0.5217 -0.6624 -0.5421
  143OSM    H9F15662   6.298   5.736   4.354 -3.2681  1.4347  0.0541
  143OSM   C10F15663   6.314   5.576   4.488 -0.2517  0.5316 -0.3813
  143OSM   H10F15664   6.396   5.623   4.544 -0.2673 -1.9089  1.9062
  143OSM   C11F15665   6.275   5.440   4.538  0.1826 -0.5350  0.2686
  143OSM   H11F15666   6.188   5.401   4.480  0.4498 -0.9876  0.1704
  143OSM   H11G15667   6.250   5.450   4.645 -1.4323 -2.3616  0.1198
  143OSM   C12F15668   6.385   5.342   4.499 -0.3345 -0.0352 -0.3613
  143OSM   H12F15669   6.482   5.386   4.530 -0.0737 -0.8633  0.0402
  143OSM   H12G15670   6.381   5.328   4.389 -1.7533 -0.0017 -0.3377
  143OSM   C13F15671   6.373   5.196   4.574  0.3377 -0.2517 -0.0009
  143OSM   H13F15672   6.461   5.131   4.559 -0.4908 -1.1447 -1.1967
  143OSM   H13G15673   6.281   5.146   4.536  0.7863 -0.2302 -1.1657
  143OSM   C14F15674   6.352   5.213   4.728 -1.3678 -0.0141 -0.5098
  143OSM   H14F15675   6.271   5.284   4.756 -1.7988 -0.8521  0.4617
  143OSM   H14G15676   6.450   5.252   4.765 -0.6104  1.1066 -3.4363
  143OSM   C15F15677   6.317   5.077   4.793  0.4579  0.3878 -0.1906
  143OSM   H15F15678   6.395   5.003   4.765  0.3973 -0.4689  1.7534
  143OSM   H15G15679   6.217   5.050   4.753  0.0916 -0.9429  1.5067
  143OSM   C16F15680   6.289   5.079   4.946 -0.1492 -0.1691  0.4995
  143OSM   H16F15681   6.240   5.169   4.990  1.1362  0.2651  1.0979
  143OSM   H16G15682   6.382   5.070   5.006 -0.3434 -0.3254  0.7778
  143OSM   C17F15683   6.222   4.949   4.984 -0.0202 -0.5871  0.3425
  143OSM   H17F15684   6.280   4.863   4.943  0.3407 -0.9570  1.5896
  143OSM   H17G15685   6.121   4.957   4.937  0.7382 -0.6093 -1.3785
  143OSM   C18F15686   6.208   4.930   5.130 -0.4548 -0.1632  0.6029
  143OSM   H18F15687   6.307   4.925   5.181 -0.9928  0.4438  1.7502
  143OSM   H18G15688   6.150   4.839   5.158  0.5679 -0.7271  0.9547
  143OSM   H18H15689   6.180   5.020   5.189  1.8979 -0.8474  2.9644
  144OSM      N15690   0.031   5.113   2.768 -0.3157 -0.5624 -0.3952
  144OSM    C1515691   0.043   5.257   2.710  0.3535  0.1439 -0.0491
  144OSM   H15A15692  -0.048   5.279   2.656 -0.4109  1.2169  1.5857
  144OSM   H15B15693   0.135   5.291   2.665 -0.9270  1.9340 -1.4450
  144OSM   H15C15694   0.037   5.331   2.788  1.6145 -0.0386  0.2313
  144OSM    C1415695  -0.111   5.096   2.799 -0.7998  0.3892 -0.0820
  144OSM   H14A15696  -0.140   5.163   2.879  1.2498  0.2043  0.9030
  144OSM   H14B15697  -0.131   4.997   2.837 -0.7047 -0.7474 -2.7726
  144OSM   H14C15698  -0.177   5.113   2.716 -2.0849  1.0436  1.0222
  144OSM    C1315699   0.068   5.023   2.658 -0.0810  0.2062 -0.0562
  144OSM   H13A15700   0.014   5.049   2.568 -0.2526 -0.9192 -0.2896
  144OSM   H13B15701   0.048   4.919   2.681 -1.0120  0.9495  2.8735
  144OSM   H13C15702   0.170   5.033   2.625 -0.2332 -2.2419 -1.5589
  144OSM    C1215703   0.113   5.092   2.894 -0.8808 -0.6453  0.0452
  144OSM   H12A15704   0.090   4.991   2.925 -0.4226 -0.8928 -0.3910
  144OSM   H12B15705   0.067   5.158   2.966 -2.7608  1.3282 -2.7756
  144OSM    C1115706   0.269   5.108   2.874  0.2146  0.1927 -0.4041
  144OSM   H11A15707   0.306   5.075   2.973 -0.2714  1.6758  0.3040
  144OSM   H11B15708   0.297   5.215   2.860  1.8061  0.2668  2.4959
  144OSM      P15709   0.475   5.045   2.732 -0.0484  0.2126  0.1142
  144OSM    O1315710   0.533   4.921   2.693 -0.0364  0.0066  0.0939
  144OSM    O1415711   0.462   5.139   2.618 -0.6979  0.3555 -0.4158
  144OSM    O1115712   0.548   5.103   2.860  0.0545 -0.1247 -0.7582
  144OSM    O1215713   0.326   5.015   2.777 -0.2610 -0.0873 -0.6983
  144OSM    C1S15714   0.590   5.035   2.979  0.7649  0.7916 -0.4832
  144OSM    H1S15715   0.616   4.929   2.956 -1.2360  0.6917 -2.6683
  144OSM    H1T15716   0.501   5.038   3.046 -0.2923  1.7257 -1.8906
  144OSM     NF15717   0.690   5.080   3.199  0.0579  0.3461  0.1338
  144OSM    HNF15718   0.675   5.158   3.260  0.4803  1.1657 -0.7784
  144OSM    C2S15719   0.698   5.120   3.058  0.3839  0.5553  0.1051
  144OSM    H2S15720   0.796   5.087   3.016 -0.3672 -2.0686  0.2540
  144OSM    C3S15721   0.681   5.264   3.036  0.0443  0.4926 -0.1922
  144OSM    H3S15722   0.577   5.303   3.043 -0.2413 -0.5412  2.3805
  144OSM     O315723   0.722   5.302   2.905  0.2444  0.0861 -0.1093
  144OSM    HO315724   0.682   5.230   2.857 -3.8635  2.4085 -0.6360
  144OSM    C4S15725   0.773   5.335   3.128  0.3114  0.0105 -0.5127
  144OSM    H4S15726   0.878   5.302   3.132  0.1470 -0.4701  2.2670
  144OSM    C5S15727   0.737   5.445   3.206 -0.6339 -0.5667 -0.4287
  144OSM    H5S15728   0.645   5.490   3.167 -0.3406 -0.9009 -1.5191
  144OSM    C6S15729   0.821   5.527   3.289  0.4521 -0.0835 -0.0397
  144OSM    H6S15730   0.759   5.612   3.325  0.0287 -0.3944 -0.0279
  144OSM    H6T15731   0.892   5.577   3.220  1.5868 -2.2638 -0.5600
  144OSM    C7S15732   0.896   5.466   3.413 -0.1618 -0.0026  0.2695
  144OSM    H7S15733   0.955   5.380   3.372  0.6819 -1.0160  3.3619
  144OSM    H7T15734   0.817   5.421   3.476 -0.5606  0.0800 -0.1670
  144OSM    C8S15735   0.970   5.575   3.494 -0.8422 -0.0702  0.8627
  144OSM    H8S15736   0.914   5.671   3.504  1.3473  1.2452  1.2022
  144OSM    H8T15737   1.050   5.612   3.427 -2.7518  1.1456 -0.8675
  144OSM    C9S15738   1.043   5.521   3.613 -0.0523  0.6504 -0.0619
  144OSM    H9S15739   1.138   5.575   3.633  0.3322  0.5415 -1.4758
  144OSM    H9T15740   1.052   5.411   3.609 -1.1516  0.4028  2.2919
  144OSM   C10S15741   0.957   5.533   3.749 -0.2415 -0.1255  0.8350
  144OSM   H10S15742   0.874   5.463   3.725  1.8823 -1.8678 -2.0978
  144OSM   H10T15743   0.912   5.633   3.769 -2.6533 -1.0471  0.4220
  144OSM   C11S15744   1.031   5.483   3.868  0.2825 -0.5041 -0.2641
  144OSM   H11S15745   1.124   5.541   3.891  0.3214 -0.5920 -0.2012
  144OSM   H11T15746   1.050   5.375   3.852  1.6301 -1.0387  3.7065
  144OSM   C12S15747   0.954   5.486   4.003 -0.8655 -0.6875 -0.0832
  144OSM   H12S15748   0.850   5.448   3.990 -0.4514 -2.8338  2.0082
  144OSM   H12T15749   0.936   5.590   4.038 -1.1108 -0.8791  0.3799
  144OSM   C13S15750   1.024   5.398   4.115 -0.1790  0.2418 -0.0972
  144OSM   H13S15751   1.116   5.455   4.141 -1.6791  2.0714  1.5720
  144OSM   H13T15752   1.055   5.295   4.089 -0.6322  0.0809 -0.0089
  144OSM   C14S15753   0.946   5.383   4.244  0.6943  0.1802  0.1958
  144OSM   H14S15754   0.840   5.356   4.225  0.5962  0.7061 -0.0226
  144OSM   H14T15755   0.958   5.474   4.306 -0.3002 -0.2746  1.0750
  144OSM   C15S15756   0.994   5.270   4.339 -0.0769 -0.3861  0.2859
  144OSM   H15S15757   1.100   5.292   4.360  0.4125 -2.0378 -0.2864
  144OSM   H15T15758   0.991   5.179   4.275  0.4514  0.4416 -0.9693
  144OSM   C16S15759   0.915   5.253   4.466 -0.1028  0.5279  0.4236
  144OSM   H16S15760   0.812   5.227   4.435  0.3443 -2.1039  0.9630
  144OSM   H16T15761   0.892   5.343   4.528  0.2588  0.3228  0.8590
  144OSM   C17S15762   0.959   5.136   4.557 -0.0908  0.9592 -0.6030
  144OSM   H17S15763   1.057   5.156   4.606  0.2308 -0.3601 -0.6693
  144OSM   H17T15764   0.980   5.056   4.483  0.4523  1.0407 -0.5371
  144OSM   C18S15765   0.859   5.096   4.660 -0.2139  0.1160 -0.7617
  144OSM   H18S15766   0.872   4.996   4.706  1.2966  0.8875  0.5785
  144OSM   H18T15767   0.757   5.097   4.615  0.6055 -1.3571 -2.8187
  144OSM   H18U15768   0.864   5.174   4.739 -0.7018  0.2483 -0.8585
  144OSM    C1F15769   0.689   4.956   3.254  0.2795  0.5686 -0.0497
  144OSM     OF15770   0.723   4.862   3.184 -0.1425 -0.0658  0.2604
  144OSM    C2F15771   0.652   4.939   3.395  0.0888 -0.0020 -0.3578
  144OSM    H2F15772   0.579   5.018   3.423 -0.2421  0.3060 -1.9887
  144OSM    H2G15773   0.743   4.945   3.458  0.0612  1.1178 -0.4113
  144OSM    C3F15774   0.596   4.800   3.430 -0.1412  0.6496 -0.1373
  144OSM    H3F15775   0.661   4.721   3.387  0.0879  1.1566 -0.7340
  144OSM    H3G15776   0.498   4.783   3.379  0.7879 -0.2759 -1.6833
  144OSM    C4F15777   0.578   4.769   3.582 -0.0155 -0.0348 -0.0433
  144OSM    H4F15778   0.533   4.850   3.644 -1.0037 -0.9260  0.4513
  144OSM    H4G15779   0.682   4.749   3.617 -0.8490 -0.6823  2.3097
  144OSM    C5F15780   0.492   4.646   3.604  0.1609  0.0736 -0.7791
  144OSM    H5F15781   0.519   4.563   3.535  1.6467 -0.3037  0.2202
  144OSM    H5G15782   0.390   4.687   3.589 -0.0926  1.3665  3.4436
  144OSM    C6F15783   0.501   4.596   3.749  0.4473 -0.2893 -0.5909
  144OSM    H6F15784   0.597   4.548   3.775 -0.2638  0.0033  3.3421
  144OSM    H6G15785   0.423   4.517   3.754  0.0436 -0.0594 -2.5769
  144OSM    C7F15786   0.459   4.697   3.866 -0.3568  0.1748 -0.3581
  144OSM    H7F15787   0.356   4.734   3.850 -0.0023  0.7259 -1.4998
  144OSM    H7G15788   0.529   4.783   3.860  1.8634 -1.5280 -0.3821
  144OSM    C8F15789   0.484   4.642   4.009  0.2550 -0.5811  0.6777
  144OSM    H8F15790   0.480   4.725   4.083  0.3168  1.9768 -1.9838
  144OSM    H8G15791   0.589   4.608   4.010  1.4051  2.5836 -0.7440
  144OSM    C9F15792   0.380   4.542   4.053 -0.1886 -0.1504  0.2475
  144OSM    H9F15793   0.308   4.509   3.976  0.8584 -2.2832  0.1248
  144OSM   C10F15794   0.374   4.491   4.184  0.1071  0.5053  0.4732
  144OSM   H10F15795   0.296   4.420   4.213  1.2337 -0.1599  2.0123
  144OSM   C11F15796   0.465   4.529   4.300 -0.3346  0.3785  0.4476
  144OSM   H11F15797   0.508   4.631   4.290 -1.1398  0.7088  0.2574
  144OSM   H11G15798   0.545   4.452   4.306  0.2040  0.7744 -1.2137
  144OSM   C12F15799   0.374   4.553   4.420 -0.4681  0.0315 -0.0370
  144OSM   H12F15800   0.301   4.635   4.401 -0.4509 -0.2952 -1.7097
  144OSM   H12G15801   0.442   4.601   4.494  2.1794  1.0569 -2.9228
  144OSM   C13F15802   0.325   4.426   4.491  0.0376 -0.0404 -0.0685
  144OSM   H13F15803   0.233   4.391   4.440 -1.1138  2.0722  0.4540
  144OSM   H13G15804   0.298   4.465   4.591 -0.0732 -0.2174 -0.0287
  144OSM   C14F15805   0.411   4.296   4.481  0.9361 -0.6103 -0.2477
  144OSM   H14F15806   0.516   4.325   4.502 -0.3075  4.2453  0.4035
  144OSM   H14G15807   0.404   4.276   4.372  0.8208  2.7039 -0.9424
  144OSM   C15F15808   0.366   4.174   4.567  0.3534  0.1857 -0.4630
  144OSM   H15F15809   0.419   4.086   4.523  0.3817  0.2882 -0.6369
  144OSM   H15G15810   0.261   4.145   4.546  1.1637 -4.1880  0.5254
  144OSM   C16F15811   0.395   4.207   4.718  0.2797 -0.9916 -0.7750
  144OSM   H16F15812   0.341   4.299   4.747  2.3565  0.8714 -2.4437
  144OSM   H16G15813   0.501   4.238   4.727 -0.5964  2.0318  0.3677
  144OSM   C17F15814   0.358   4.085   4.810  0.1548  0.0674 -0.2246
  144OSM   H17F15815   0.379   4.101   4.918 -1.2083 -1.5634  0.3117
  144OSM   H17G15816   0.425   4.008   4.767  0.7377  1.9589 -3.0484
  144OSM   C18F15817   0.220   4.036   4.797 -0.7232  0.4201  0.2442
  144OSM   H18F15818   0.200   3.950   4.865  0.6248  0.7341  1.0854
  144OSM   H18G15819   0.188   4.013   4.693  1.3120  1.4790 -0.6694
  144OSM   H18H15820   0.153   4.118   4.830  0.3952  1.2726  0.4337
  145SAPE     N15821   4.698   6.438   7.163  0.5017  0.2191 -0.6952
  145SAPE   HN115822   4.613   6.493   7.187 -0.5788 -1.9033  0.6060
  145SAPE   HN215823   4.665   6.361   7.102  1.1378  0.0532 -0.8311
  145SAPE   HN315824   4.734   6.401   7.253 -2.8885 -1.1645  0.2456
  145SAPE   C1215825   4.795   6.506   7.076 -0.1416 -0.1368 -0.1554
  145SAPE  H12A15826   4.744   6.528   6.980  0.3996 -2.2944 -0.9971
  145SAPE  H12B15827   4.872   6.429   7.054 -0.0887 -1.2030  3.1806
  145SAPE   C1115828   4.861   6.633   7.140  0.3766 -0.5690 -0.4365
  145SAPE  H11A15829   4.924   6.694   7.072  0.0598  0.8926  0.5323
  145SAPE  H11B15830   4.934   6.592   7.214 -1.1149 -0.1033  1.3829
  145SAPE     P15831   4.650   6.799   7.132  0.0723  0.1196 -0.5102
  145SAPE   O1315832   4.577   6.712   7.038 -0.4421  0.4949 -0.6110
  145SAPE   O1415833   4.573   6.875   7.234  0.7121  0.8026  0.1248
  145SAPE   O1215834   4.764   6.713   7.212  0.1854  0.4725  0.1322
  145SAPE   O1115835   4.726   6.900   7.046 -0.4871  0.1035 -0.3160
  145SAPE    C115836   4.819   6.985   7.117  0.1149 -0.7492 -0.4870
  145SAPE    HA15837   4.762   7.032   7.200  0.0786 -0.2329 -0.7996
  145SAPE    HB15838   4.906   6.928   7.158 -0.0304 -2.0481 -1.9136
  145SAPE    C215839   4.875   7.086   7.012 -0.6743 -0.3813  0.1398
  145SAPE    HS15840   4.788   7.131   6.960  0.1262  0.2592 -0.6984
  145SAPE   O2115841   4.970   7.023   6.917  0.4853 -0.6794 -0.4307
  145SAPE   C2115842   4.945   7.058   6.790  0.7080 -0.6313 -0.3603
  145SAPE   O2215843   4.866   7.143   6.757  0.2743 -0.8309 -0.2308
  145SAPE   C2215844   5.049   7.001   6.698 -0.0709  0.0438  0.0926
  145SAPE   H2R15845   5.125   7.080   6.715 -2.2741  2.0026  1.3729
  145SAPE   H2S15846   5.072   6.901   6.741 -2.5241 -0.4143  0.4866
  145SAPE    C315847   4.942   7.196   7.097  0.1168  0.0951  0.2143
  145SAPE    HX15848   5.038   7.166   7.143 -0.1065  0.6021  1.0413
  145SAPE    HY15849   4.879   7.204   7.189  0.4672 -0.3177  0.4910
  145SAPE   O3115850   4.933   7.324   7.029  0.1678 -0.1190  0.2227
  145SAPE   C3115851   5.050   7.375   6.984 -0.2551  0.3387  0.4879
  145SAPE   O3215852   5.158   7.312   6.981  0.0327 -0.3232 -0.0161
  145SAPE   C3215853   5.027   7.509   6.906  0.4038  0.5873 -0.2657
  145SAPE   H2X15854   5.053   7.594   6.973 -3.0982  2.8748 -1.4962
  145SAPE   H2Y15855   4.916   7.512   6.900  0.4157  0.2284 -0.7085
  145SAPE   C2315856   4.996   6.971   6.553  0.1439 -0.5472  0.2583
  145SAPE   H3R15857   4.940   7.057   6.512 -0.5252 -0.9756  0.2672
  145SAPE   H3S15858   4.917   6.893   6.556 -1.3452  0.9180  0.4436
  145SAPE   C2415859   5.101   6.912   6.457  0.0847  0.3832  0.0308
  145SAPE   H4R15860   5.057   6.849   6.377 -0.0663 -2.0863  1.9192
  145SAPE   H4S15861   5.146   6.829   6.516 -1.8682 -1.9331 -1.5499
  145SAPE   C2515862   5.199   7.010   6.401  0.7280 -0.4927 -0.2722
  145SAPE   H5R15863   5.247   7.067   6.483 -1.5509 -0.7580  1.3688
  145SAPE   C2615864   5.210   7.037   6.267 -0.4987 -1.4459  0.7022
  145SAPE   H6R15865   5.279   7.120   6.247 -0.4164 -0.9237  2.9291
  145SAPE   C2715866   5.146   6.970   6.148 -0.2507  0.7827  0.8235
  145SAPE   H7R15867   5.186   7.026   6.061 -1.0755  1.5853  0.9424
  145SAPE   H7S15868   5.035   6.976   6.150 -0.3370 -0.5367  0.9499
  145SAPE   C2815869   5.192   6.830   6.132 -0.0670 -0.1398 -0.4264
  145SAPE   H8R15870   5.257   6.801   6.215 -0.7291  0.3161  0.2588
  145SAPE   C2915871   5.188   6.751   6.024  0.0627  0.1408  0.4188
  145SAPE   H9R15872   5.239   6.654   6.030  1.1870  0.6249 -0.8248
  145SAPE  C21015873   5.135   6.778   5.889 -0.0710 -0.5716  0.3905
  145SAPE  H10R15874   5.192   6.710   5.823 -0.7749  0.2352 -1.1061
  145SAPE  H10S15875   5.165   6.879   5.854  0.0479  0.1782  2.5109
  145SAPE  C21115876   4.988   6.744   5.875 -0.7594  0.7346  0.0682
  145SAPE  H11R15877   4.926   6.713   5.960 -0.9328 -0.3620 -0.4341
  145SAPE  C21215878   4.934   6.737   5.752 -0.0189  0.1883  0.0832
  145SAPE  H12R15879   4.825   6.732   5.761 -0.2071  1.9009 -0.7790
  145SAPE  C21315880   4.991   6.769   5.614  0.1454 -0.1418  0.3670
  145SAPE  H13R15881   4.978   6.696   5.531  1.8671 -0.2309  0.1431
  145SAPE  H13S15882   5.102   6.779   5.612  0.1801  1.1410 -4.3159
  145SAPE  C21415883   4.951   6.910   5.576  0.7131 -0.1561  0.1163
  145SAPE  H14R15884   4.921   6.976   5.658 -0.0757 -1.6168  1.0565
  145SAPE  C21515885   4.953   6.963   5.452 -0.2301  0.8599  0.8201
  145SAPE  H15R15886   4.912   7.063   5.433 -0.4626  1.0054  1.9931
  145SAPE  C21615887   4.966   6.891   5.320 -0.5336 -0.2882 -0.3272
  145SAPE  H16R15888   4.903   6.936   5.240  2.8641  0.2963 -2.8934
  145SAPE  H16S15889   4.945   6.782   5.334 -2.2550  0.1450  0.7351
  145SAPE  C21715890   5.114   6.891   5.262 -0.0426  0.5513  0.4880
  145SAPE  H17R15891   5.190   6.848   5.332  0.7858  0.8626 -0.2059
  145SAPE  H17S15892   5.142   6.998   5.253 -0.7596  0.7046  0.0596
  145SAPE  C21815893   5.115   6.811   5.131 -0.4619 -0.4224  0.6749
  145SAPE  H18R15894   5.031   6.850   5.070  1.6463 -1.9884 -3.5950
  145SAPE  H18S15895   5.081   6.706   5.139 -1.3181 -0.3138 -1.0420
  145SAPE  C21915896   5.252   6.820   5.048  0.7006 -0.4674 -0.0721
  145SAPE  H19R15897   5.265   6.929   5.031 -1.3180 -0.2039 -0.1664
  145SAPE  H19S15898   5.244   6.763   4.953  1.7695 -0.0688 -0.4197
  145SAPE  C22015899   5.367   6.772   5.127  0.3176  0.5851 -0.4315
  145SAPE  H20R15900   5.466   6.809   5.092  0.0655  0.0080 -1.7913
  145SAPE  H20S15901   5.374   6.661   5.130 -2.3886  0.3057 -1.7196
  145SAPE  H20T15902   5.375   6.807   5.232  4.1113  1.7600 -0.9521
  145SAPE   C3315903   5.100   7.532   6.769 -0.2153  0.4066 -0.1209
  145SAPE   H3X15904   5.208   7.504   6.771  0.1582  1.7475 -0.7908
  145SAPE   H3Y15905   5.091   7.642   6.761 -0.4707  1.0194  5.1392
  145SAPE   C3415906   5.026   7.468   6.655 -0.1022 -0.2738 -0.4165
  145SAPE   H4X15907   4.925   7.511   6.640  0.3956  1.3987  0.7300
  145SAPE   H4Y15908   5.027   7.357   6.667 -0.4765 -0.0944  1.6167
  145SAPE   C3515909   5.097   7.493   6.524  0.0784  0.0122  0.0877
  145SAPE   H5X15910   5.201   7.457   6.513  0.1402  0.2489 -0.0937
  145SAPE   H5Y15911   5.094   7.600   6.498 -0.3416 -0.6554 -2.9638
  145SAPE   C3615912   5.023   7.420   6.416  0.4069 -0.4131 -0.2720
  145SAPE   H6X15913   4.929   7.475   6.395  1.4301  0.9355 -1.6096
  145SAPE   H6Y15914   4.988   7.319   6.445  0.4538  0.2741  2.4887
  145SAPE   C3715915   5.107   7.425   6.289  0.2949 -0.3288 -0.0471
  145SAPE   H7X15916   5.205   7.377   6.307  1.7800  1.9295 -1.6282
  145SAPE   H7Y15917   5.133   7.533   6.278 -0.3637  0.2007  2.8048
  145SAPE   C3815918   5.039   7.371   6.166 -0.2640 -0.0107  0.1377
  145SAPE   H8X15919   4.939   7.418   6.155 -0.8889 -1.1499  0.7038
  145SAPE   H8Y15920   5.016   7.265   6.190  0.9256 -0.3661 -0.2514
  145SAPE   C3915921   5.125   7.373   6.037 -0.3946 -0.3614 -0.2991
  145SAPE   H9X15922   5.221   7.318   6.047 -0.1688  0.3160  1.9040
  145SAPE   H9Y15923   5.161   7.478   6.027  2.2691 -0.9582  1.7000
  145SAPE  C31015924   5.042   7.344   5.907 -0.3127 -0.0990  0.4639
  145SAPE  H10X15925   4.963   7.419   5.887  1.3814  1.5189 -0.4526
  145SAPE  H10Y15926   4.984   7.251   5.925  0.4856 -0.9774 -1.2367
  145SAPE  C31115927   5.132   7.327   5.780  0.1173  0.8650  0.3091
  145SAPE  H11X15928   5.189   7.232   5.789 -1.9806 -0.4232  0.9332
  145SAPE  H11Y15929   5.208   7.408   5.777  0.7343  0.2914  0.2497
  145SAPE  C31215930   5.056   7.317   5.641  0.0671  0.0972 -0.2296
  145SAPE  H12X15931   4.983   7.400   5.630 -0.6542 -0.5907 -0.8319
  145SAPE  H12Y15932   5.015   7.214   5.643 -1.9153  0.8440  0.3551
  145SAPE  C31315933   5.152   7.334   5.520 -0.5276 -0.3621 -0.2735
  145SAPE  H13X15934   5.214   7.242   5.527 -0.1397 -0.0795  0.0803
  145SAPE  H13Y15935   5.217   7.419   5.546  0.8899 -1.3115 -0.6227
  145SAPE  C31415936   5.078   7.352   5.389 -0.5128 -0.3466  0.6877
  145SAPE  H14X15937   5.022   7.447   5.406  2.4835  1.9969 -1.5234
  145SAPE  H14Y15938   5.005   7.271   5.365 -0.1214 -0.6657  0.5739
  145SAPE  C31515939   5.173   7.365   5.266 -0.4130  0.2590 -0.1052
  145SAPE  H15X15940   5.235   7.275   5.282  0.5337  0.7812 -0.7057
  145SAPE  H15Y15941   5.238   7.455   5.267  0.1267 -0.1281 -0.3060
  145SAPE  C31615942   5.095   7.355   5.139 -0.3217 -0.1106 -0.2022
  145SAPE  H16X15943   5.156   7.392   5.054 -3.8367  1.3355 -2.3065
  145SAPE  H16Y15944   4.998   7.409   5.143  0.3016  1.0183  0.2091
  145SAPE  C31715945   5.068   7.211   5.105 -0.3098  0.8558 -0.4641
  145SAPE  H17X15946   4.991   7.168   5.173 -0.6428  0.4496 -1.0903
  145SAPE  H17Y15947   5.163   7.155   5.118 -1.5302 -0.7555  2.2208
  145SAPE  C31815948   5.017   7.197   4.962 -0.0521  0.2144  0.0979
  145SAPE  H18X15949   5.005   7.089   4.937  2.4024 -0.0334 -0.2103
  145SAPE  H18Y15950   5.081   7.244   4.885 -0.1568  3.8392  2.0268
  145SAPE  H18Z15951   4.914   7.235   4.945 -0.7474 -1.0146  1.2733
  146SAPE     N15952   2.097   0.993   7.718 -0.2689 -0.0772 -0.3545
  146SAPE   HN115953   2.037   0.940   7.651 -0.8139  0.0795  0.0059
  146SAPE   HN215954   2.199   0.992   7.699 -0.4206  0.6487 -1.2353
  146SAPE   HN315955   2.077   0.957   7.814 -2.6895  0.8788 -0.4406
  146SAPE   C1215956   2.058   1.147   7.713  0.1575 -0.1794  0.3093
  146SAPE  H12A15957   2.103   1.193   7.804  1.6187 -0.0921 -0.4317
  146SAPE  H12B15958   1.947   1.146   7.719  0.1003 -1.8815 -0.3191
  146SAPE   C1115959   2.115   1.204   7.586  0.1144 -0.5176  0.0913
  146SAPE  H11A15960   2.119   1.315   7.583  2.1188 -0.5800 -1.5317
  146SAPE  H11B15961   2.031   1.171   7.521  1.3122 -0.7584 -1.3839
  146SAPE     P15962   2.319   1.161   7.420  0.2577  0.5802  0.4720
  146SAPE   O1315963   2.407   1.277   7.435 -0.3183  0.0253 -0.5037
  146SAPE   O1415964   2.385   1.031   7.391 -0.6541 -0.0157 -0.0077
  146SAPE   O1215965   2.239   1.139   7.556 -0.4105  0.3441  0.2711
  146SAPE   O1115966   2.216   1.203   7.317 -0.3571  0.3458 -0.2718
  146SAPE    C115967   2.110   1.105   7.283  0.1052  0.0866 -0.6135
  146SAPE    HA15968   2.106   1.015   7.347  2.9440 -0.9720 -1.7636
  146SAPE    HB15969   2.016   1.163   7.296 -0.0898 -0.5802  1.2929
  146SAPE    C215970   2.111   1.051   7.134  0.4223 -0.2119  0.0323
  146SAPE    HS15971   2.023   0.984   7.125 -0.8107  1.3795 -0.4414
  146SAPE   O2115972   2.236   0.989   7.108 -0.7596 -0.3458  0.6463
  146SAPE   C2115973   2.264   0.875   7.165  0.3217  0.2142  0.2276
  146SAPE   O2215974   2.191   0.807   7.231  0.7989 -0.5105  0.0374
  146SAPE   C2215975   2.404   0.844   7.135 -0.4187 -0.3576  0.1627
  146SAPE   H2R15976   2.461   0.934   7.102  2.1182 -2.3283 -1.1802
  146SAPE   H2S15977   2.456   0.820   7.230  0.0420  0.0521  0.0208
  146SAPE    C315978   2.087   1.165   7.036 -0.5964 -0.2985 -0.2657
  146SAPE    HX15979   2.171   1.237   7.045  0.1171 -1.1711  0.2580
  146SAPE    HY15980   1.997   1.214   7.078  0.7695 -0.6096  3.3958
  146SAPE   O3115981   2.072   1.117   6.903 -0.6250  0.0634 -0.3078
  146SAPE   C3115982   2.137   1.179   6.810  0.3334  0.2106 -1.0203
  146SAPE   O3215983   2.204   1.280   6.826 -0.2383 -0.0184 -0.2246
  146SAPE   C3215984   2.115   1.111   6.676  0.0934  0.7775  0.2375
  146SAPE   H2X15985   2.005   1.096   6.675  0.1460 -0.3756  2.9435
  146SAPE   H2Y15986   2.153   1.006   6.673 -2.2538 -0.1156 -1.3698
  146SAPE   C2315987   2.430   0.733   7.027  0.4565  0.1609  0.3175
  146SAPE   H3R15988   2.388   0.766   6.930 -1.4671 -3.0059 -0.0522
  146SAPE   H3S15989   2.380   0.639   7.057  0.7204  0.1818  0.8339
  146SAPE   C2415990   2.583   0.700   7.014  0.7721  0.7292  0.4402
  146SAPE   H4R15991   2.598   0.612   6.948  2.1178  0.8230  0.5925
  146SAPE   H4S15992   2.627   0.679   7.114 -0.8884  1.6973  1.4395
  146SAPE   C2515993   2.673   0.818   6.973  0.5197 -0.3271  0.2071
  146SAPE   H5R15994   2.683   0.895   7.051 -0.7681  2.0131 -1.8081
  146SAPE   C2615995   2.718   0.838   6.845 -0.1289  0.1151  0.1415
  146SAPE   H6R15996   2.790   0.918   6.822  1.6029 -1.6834 -1.0344
  146SAPE   C2715997   2.706   0.740   6.731 -0.5252 -0.1942  0.8373
  146SAPE   H7R15998   2.761   0.645   6.751  1.6526  0.6664 -0.6706
  146SAPE   H7S15999   2.760   0.788   6.647  1.6566  0.4447  2.5193
  146SAPE   C2816000   2.564   0.703   6.689  0.1158 -0.4618 -0.3326
  146SAPE   H8R16001   2.488   0.712   6.768 -0.9542 -0.8033 -1.3130
  146SAPE   C2916002   2.518   0.681   6.565 -0.3345 -0.0289  0.0273
  146SAPE   H9R16003   2.412   0.656   6.546 -1.2883  3.9213 -0.6645
  146SAPE  C21016004   2.590   0.676   6.434 -0.6353 -0.4691 -0.3406
  146SAPE  H10R16005   2.655   0.766   6.429 -1.7871  0.3177 -2.5853
  146SAPE  H10S16006   2.516   0.697   6.354 -1.9394  0.7554  1.0993
  146SAPE  C21116007   2.668   0.551   6.401  0.9036  0.4266  0.6335
  146SAPE  H11R16008   2.726   0.506   6.482  1.6685  0.9387  0.3851
  146SAPE  C21216009   2.668   0.490   6.274  0.3342  0.0580 -0.1115
  146SAPE  H12R16010   2.732   0.403   6.252  0.9816  1.1119 -2.7679
  146SAPE  C21316011   2.587   0.535   6.156 -0.0739 -0.2536 -0.0720
  146SAPE  H13R16012   2.627   0.503   6.057  0.3927 -1.0935  0.3751
  146SAPE  H13S16013   2.599   0.645   6.151  0.3406 -0.2185  1.3633
  146SAPE  C21416014   2.438   0.515   6.170 -0.2944  0.1066  0.0424
  146SAPE  H14R16015   2.386   0.612   6.179 -0.0150  0.4172 -1.3880
  146SAPE  C21516016   2.372   0.397   6.159  0.3367  0.0703 -0.0762
  146SAPE  H15R16017   2.265   0.390   6.182  0.4092 -1.6071 -0.1013
  146SAPE  C21616018   2.439   0.262   6.132 -0.8898  0.0949 -1.2033
  146SAPE  H16R16019   2.413   0.188   6.210  1.6323  1.0482  0.7035
  146SAPE  H16S16020   2.550   0.270   6.133 -0.9423  0.9044 -0.7846
  146SAPE  C21716021   2.401   0.201   5.995  0.0039 -0.2327  0.2483
  146SAPE  H17R16022   2.294   0.173   6.004  0.2074 -0.2744  3.9842
  146SAPE  H17S16023   2.450   0.103   5.984 -1.0613 -0.7224 -0.3022
  146SAPE  C21816024   2.419   0.298   5.868  0.2809 -0.3453  0.5408
  146SAPE  H18R16025   2.523   0.334   5.851  0.8674 -2.3232 -0.2950
  146SAPE  H18S16026   2.356   0.385   5.895  0.4999  0.0731 -0.2426
  146SAPE  C21916027   2.367   0.245   5.730 -0.2434 -0.3330 -0.2083
  146SAPE  H19R16028   2.356   0.332   5.662 -0.6372 -1.4352 -1.5960
  146SAPE  H19S16029   2.259   0.220   5.744 -0.0647 -0.1604  1.8071
  146SAPE  C22016030   2.450   0.128   5.674 -0.1194  0.2814  0.1883
  146SAPE  H20R16031   2.537   0.165   5.617  1.3521  0.0926  2.2114
  146SAPE  H20S16032   2.392   0.059   5.609  0.2942  0.9400 -0.8954
  146SAPE  H20T16033   2.491   0.063   5.754 -1.1996 -0.5162  0.1145
  146SAPE   C3316034   2.160   1.173   6.545  0.5237 -0.8082 -0.2237
  146SAPE   H3X16035   2.267   1.203   6.551  0.4575 -0.8180  1.6669
  146SAPE   H3Y16036   2.105   1.268   6.528  1.6044  0.4257  2.5079
  146SAPE   C3416037   2.136   1.080   6.424  0.2338  0.7567 -0.2324
  146SAPE   H4X16038   2.031   1.049   6.406  1.2835 -2.4800 -1.4106
  146SAPE   H4Y16039   2.194   0.993   6.462 -2.1118  0.0199  1.9294
  146SAPE   C3516040   2.178   1.145   6.296  0.4357  0.0476 -0.2307
  146SAPE   H5X16041   2.244   1.232   6.317  0.1243 -0.0143  1.0385
  146SAPE   H5Y16042   2.087   1.193   6.253 -1.1511 -2.8055 -0.2773
  146SAPE   C3616043   2.229   1.052   6.185  0.0066 -0.1580 -0.4770
  146SAPE   H6X16044   2.156   0.973   6.160  1.6609 -2.0632  0.4505
  146SAPE   H6Y16045   2.308   0.996   6.239 -0.4916 -0.8171 -0.4278
  146SAPE   C3716046   2.282   1.136   6.070  0.3292  0.0810  0.1318
  146SAPE   H7X16047   2.363   1.194   6.120  0.0081 -0.9985  1.9886
  146SAPE   H7Y16048   2.203   1.209   6.043 -1.2327 -1.8002 -0.5579
  146SAPE   C3816049   2.325   1.049   5.948 -0.1736 -0.0764  0.3220
  146SAPE   H8X16050   2.367   1.117   5.871  1.3046  0.0461  1.2126
  146SAPE   H8Y16051   2.232   1.006   5.905  0.8775 -1.2745 -0.8448
  146SAPE   C3916052   2.413   0.935   5.970  0.0745  0.1449  0.0226
  146SAPE   H9X16053   2.439   0.900   6.072  0.4745 -1.3196 -0.5380
  146SAPE   H9Y16054   2.517   0.949   5.933  0.6171  0.5108  1.5990
  146SAPE  C31016055   2.364   0.803   5.904  0.0584 -0.4532  0.8516
  146SAPE  H10X16056   2.261   0.775   5.936 -0.9903 -0.0506 -1.9138
  146SAPE  H10Y16057   2.438   0.724   5.926 -1.6549 -2.2811  0.3597
  146SAPE  C31116058   2.354   0.822   5.746  0.2904  0.2072  0.3986
  146SAPE  H11X16059   2.442   0.882   5.714  0.3022 -1.3985 -2.9735
  146SAPE  H11Y16060   2.267   0.884   5.715  0.8533  0.7717 -0.0795
  146SAPE  C31216061   2.366   0.683   5.681  0.5412 -0.4724  0.3326
  146SAPE  H12X16062   2.277   0.626   5.715 -1.5368  2.0491 -0.5674
  146SAPE  H12Y16063   2.461   0.639   5.721  1.0238  1.7859  1.8760
  146SAPE  C31316064   2.368   0.691   5.522  1.0988 -0.2310 -0.2870
  146SAPE  H13X16065   2.462   0.736   5.484  0.1452  1.4362 -0.7476
  146SAPE  H13Y16066   2.288   0.765   5.503 -0.3872 -1.5891  0.4197
  146SAPE  C31416067   2.327   0.557   5.455  0.0517 -0.7481  0.0090
  146SAPE  H14X16068   2.220   0.553   5.486  0.5335  0.5957  1.9878
  146SAPE  H14Y16069   2.380   0.471   5.502  0.7490 -2.8517 -4.1297
  146SAPE  C31516070   2.347   0.557   5.308  0.6832  0.5575  0.3558
  146SAPE  H15X16071   2.456   0.566   5.290  0.8161 -0.2651  0.6792
  146SAPE  H15Y16072   2.289   0.644   5.271  0.5093  1.4141  2.4918
  146SAPE  C31616073   2.271   0.437   5.234  0.1861 -0.5468 -0.3454
  146SAPE  H16X16074   2.309   0.446   5.130  0.8208  3.2826  0.0829
  146SAPE  H16Y16075   2.164   0.462   5.244  0.8123  1.3667  2.9570
  146SAPE  C31716076   2.291   0.296   5.285  0.4690  0.0756  0.0580
  146SAPE  H17X16077   2.216   0.239   5.226 -0.4299  0.2841  0.9712
  146SAPE  H17Y16078   2.247   0.280   5.385 -0.1296 -1.3358 -0.4077
  146SAPE  C31816079   2.424   0.231   5.255 -0.3920 -0.1950  0.7465
  146SAPE  H18X16080   2.501   0.283   5.316 -0.9904  0.1513  1.2170
  146SAPE  H18Y16081   2.444   0.233   5.146  0.2479 -2.3304  0.7715
  146SAPE  H18Z16082   2.436   0.125   5.288 -0.9378 -1.1535 -1.8539
  147SAPE     N16083   0.569   2.883   7.390  0.9136  0.4757  0.1580
  147SAPE   HN116084   0.528   2.809   7.450  1.6563 -0.3854 -0.3725
  147SAPE   HN216085   0.561   2.857   7.290 -0.4805  0.5118  0.2438
  147SAPE   HN316086   0.669   2.887   7.419  1.5896  0.2900 -2.0315
  147SAPE   C1216087   0.487   3.008   7.410 -0.4623  0.0017 -0.5972
  147SAPE  H12A16088   0.545   3.092   7.368  2.0669 -0.3729  1.8485
  147SAPE  H12B16089   0.479   3.027   7.520 -1.7941  1.2163 -0.8758
  147SAPE   C1116090   0.332   2.991   7.367  0.3594  0.5230  0.2575
  147SAPE  H11A16091   0.302   2.903   7.429  4.5295  0.4377  2.5532
  147SAPE  H11B16092   0.340   2.979   7.257 -2.0695 -0.0597  0.0825
  147SAPE     P16093   0.167   3.203   7.323 -0.7179 -0.0948  0.1970
  147SAPE   O1316094   0.033   3.146   7.324  0.2319 -0.9442  0.7751
  147SAPE   O1416095   0.178   3.343   7.372  0.0558  0.2356  0.2873
  147SAPE   O1216096   0.260   3.107   7.407 -0.4063 -0.4013  0.9177
  147SAPE   O1116097   0.230   3.188   7.179 -0.2682  0.4334 -0.2282
  147SAPE    C116098   0.358   3.225   7.131 -0.8818  1.3376  0.0950
  147SAPE    HA16099   0.430   3.242   7.214 -2.6603 -3.1822  2.9226
  147SAPE    HB16100   0.399   3.142   7.070 -1.4363  2.2400 -1.5759
  147SAPE    C216101   0.355   3.343   7.041  0.2376  0.0664  0.7477
  147SAPE    HS16102   0.325   3.426   7.109 -1.4763 -1.1764  1.6131
  147SAPE   O2116103   0.270   3.317   6.926 -0.5442  0.0025 -0.0735
  147SAPE   C2116104   0.180   3.412   6.904  0.6776 -0.1971 -0.1234
  147SAPE   O2216105   0.144   3.507   6.969 -0.8054 -0.2043 -0.5672
  147SAPE   C2216106   0.099   3.381   6.777 -0.8428 -0.4669  0.3295
  147SAPE   H2R16107   0.169   3.315   6.722  0.6743 -0.2784  1.9483
  147SAPE   H2S16108   0.008   3.325   6.807 -2.6628  0.0835 -3.5714
  147SAPE    C316109   0.492   3.379   6.991 -0.3300  0.4385  0.5739
  147SAPE    HX16110   0.544   3.298   6.935 -0.3485 -0.2173  1.4902
  147SAPE    HY16111   0.558   3.390   7.079  0.5106  1.6269 -0.1766
  147SAPE   O3116112   0.488   3.496   6.909 -0.7967  0.1512 -0.8380
  147SAPE   C3116113   0.595   3.573   6.923 -0.8788  0.5883  0.2091
  147SAPE   O3216114   0.701   3.542   6.974  0.1074 -0.2086  0.2618
  147SAPE   C3216115   0.568   3.702   6.841  0.2200  0.7031  0.0421
  147SAPE   H2X16116   0.619   3.780   6.901  0.7559 -0.7373  1.5511
  147SAPE   H2Y16117   0.459   3.720   6.849  0.5840  3.4188 -0.1156
  147SAPE   C2316118   0.054   3.504   6.697 -0.3491 -0.0934 -0.3092
  147SAPE   H3R16119  -0.014   3.569   6.756  1.3758  0.2266  1.4216
  147SAPE   H3S16120  -0.024   3.476   6.623 -0.9588  1.1855 -0.1712
  147SAPE   C2416121   0.168   3.582   6.638  0.6244 -0.5195 -0.0996
  147SAPE   H4R16122   0.248   3.576   6.714  0.5144  1.5864  0.2562
  147SAPE   H4S16123   0.132   3.687   6.625 -0.4725 -1.1796 -3.4949
  147SAPE   C2516124   0.217   3.524   6.508 -0.4815  0.0354  0.1241
  147SAPE   H5R16125   0.291   3.444   6.524 -0.8818 -0.1511  1.1135
  147SAPE   C2616126   0.179   3.560   6.386 -0.7618 -0.2304 -0.5134
  147SAPE   H6R16127   0.233   3.511   6.304  0.7595 -1.0619  0.9292
  147SAPE   C2716128   0.080   3.668   6.343  0.5057  0.6032 -0.3614
  147SAPE   H7R16129   0.044   3.718   6.436 -1.4997  0.5442 -1.0516
  147SAPE   H7S16130  -0.015   3.627   6.303  0.7575  0.3652 -0.7130
  147SAPE   C2816131   0.136   3.762   6.240 -0.4598 -0.2546 -0.2619
  147SAPE   H8R16132   0.144   3.869   6.264  0.6207 -0.2813 -0.4339
  147SAPE   C2916133   0.148   3.734   6.102  0.2109 -0.2256 -0.2385
  147SAPE   H9R16134   0.196   3.799   6.027 -4.2366  0.5300 -2.7747
  147SAPE  C21016135   0.120   3.598   6.043 -0.0825  0.7276 -0.2795
  147SAPE  H10R16136   0.070   3.530   6.115  1.2555  0.5269  0.4994
  147SAPE  H10S16137   0.222   3.557   6.023 -0.3855 -1.2568  1.8340
  147SAPE  C21116138   0.037   3.608   5.924  0.2385 -0.8059  0.2023
  147SAPE  H11R16139  -0.069   3.598   5.951  0.3043  1.4822  1.5337
  147SAPE  C21216140   0.077   3.618   5.796  0.0421 -0.2837  0.0578
  147SAPE  H12R16141  -0.000   3.630   5.718  0.8305 -0.6821 -0.7993
  147SAPE  C21316142   0.221   3.629   5.750  0.6791 -0.3471  0.2630
  147SAPE  H13R16143   0.282   3.595   5.836 -0.8816 -2.0499  0.7425
  147SAPE  H13S16144   0.237   3.735   5.718 -0.3422 -0.4416 -0.5938
  147SAPE  C21416145   0.262   3.540   5.632 -0.0035  0.9160  0.1244
  147SAPE  H14R16146   0.351   3.478   5.651 -0.9838 -0.9981 -1.2229
  147SAPE  C21516147   0.235   3.560   5.501  0.4186  0.0597 -0.7275
  147SAPE  H15R16148   0.275   3.492   5.424  1.3069  0.6519 -0.7950
  147SAPE  C21616149   0.121   3.648   5.463 -0.3527  0.2877  0.4024
  147SAPE  H16R16150   0.083   3.700   5.554  2.2313 -1.2136  2.4812
  147SAPE  H16S16151   0.040   3.585   5.420 -0.6408 -0.7347  2.3176
  147SAPE  C21716152   0.175   3.743   5.353  0.6738 -0.3370 -0.2772
  147SAPE  H17R16153   0.219   3.690   5.266  3.4996  1.2406  0.0667
  147SAPE  H17S16154   0.261   3.808   5.381  1.4084 -0.9446 -1.0746
  147SAPE  C21816155   0.063   3.834   5.292  0.0529 -0.9617  0.5447
  147SAPE  H18R16156   0.029   3.896   5.378  0.3609 -1.5500  1.0901
  147SAPE  H18S16157  -0.025   3.771   5.266 -0.6570 -0.5114  1.7624
  147SAPE  C21916158   0.110   3.917   5.168 -0.2508 -0.6805  0.0323
  147SAPE  H19R16159   0.157   3.853   5.090  0.1227 -1.0603  0.5612
  147SAPE  H19S16160   0.182   3.996   5.196 -0.2306 -1.8249  3.7746
  147SAPE  C22016161  -0.012   3.987   5.105 -1.0469  0.2649  0.3046
  147SAPE  H20R16162   0.021   4.082   5.057 -0.4770  0.1642  0.4953
  147SAPE  H20S16163  -0.085   4.019   5.182 -0.0711  0.2123  1.2790
  147SAPE  H20T16164  -0.041   3.915   5.026  0.6265 -0.5387  0.3766
  147SAPE   C3316165   0.603   3.694   6.691 -0.2244 -0.2523  0.3705
  147SAPE   H3X16166   0.563   3.604   6.640  1.4075 -1.8536  1.7779
  147SAPE   H3Y16167   0.713   3.692   6.676 -0.0228  1.1848  1.4293
  147SAPE   C3416168   0.545   3.821   6.617 -0.4313  0.2857 -0.1780
  147SAPE   H4X16169   0.588   3.909   6.668  2.7354 -1.4850  0.4996
  147SAPE   H4Y16170   0.435   3.823   6.635 -0.3729  1.0454  0.1114
  147SAPE   C3516171   0.599   3.820   6.476  0.3853 -0.4055 -0.0127
  147SAPE   H5X16172   0.552   3.729   6.431  2.2323 -1.8599  0.8865
  147SAPE   H5Y16173   0.709   3.819   6.465  0.4337  1.0774  0.1408
  147SAPE   C3616174   0.560   3.948   6.404 -0.0488 -0.3923  0.5264
  147SAPE   H6X16175   0.579   4.028   6.478  1.1155  0.4919 -0.6684
  147SAPE   H6Y16176   0.453   3.951   6.376  0.6171 -0.4264 -2.4278
  147SAPE   C3716177   0.646   3.971   6.272  0.2475  0.5810  0.6351
  147SAPE   H7X16178   0.751   3.984   6.308  1.2161 -0.9257 -1.4396
  147SAPE   H7Y16179   0.608   4.064   6.223 -1.4738 -0.7389 -0.6650
  147SAPE   C3816180   0.622   3.853   6.173 -0.5620 -0.2680 -0.1908
  147SAPE   H8X16181   0.513   3.831   6.167 -0.0079 -3.2064 -0.9856
  147SAPE   H8Y16182   0.676   3.764   6.212  1.2601  1.6516  1.9394
  147SAPE   C3916183   0.667   3.884   6.033  0.4928  0.1877 -0.3128
  147SAPE   H9X16184   0.751   3.956   6.039  0.1851  0.4648  1.4942
  147SAPE   H9Y16185   0.583   3.924   5.972  1.1875 -0.4603 -1.7367
  147SAPE  C31016186   0.714   3.751   5.970 -0.2119  0.0106  0.6317
  147SAPE  H10X16187   0.645   3.668   5.994  0.4293 -0.4169  1.0328
  147SAPE  H10Y16188   0.812   3.721   6.013  0.7044  0.3041 -1.1867
  147SAPE  C31116189   0.723   3.770   5.815  0.7901 -0.5221  0.6113
  147SAPE  H11X16190   0.821   3.817   5.793  1.6027 -2.1447  0.6483
  147SAPE  H11Y16191   0.632   3.823   5.780  1.1174 -0.8375 -0.7908
  147SAPE  C31216192   0.706   3.641   5.733 -0.2560  0.8459  0.0012
  147SAPE  H12X16193   0.613   3.591   5.765  1.1695 -0.4476  2.3506
  147SAPE  H12Y16194   0.798   3.579   5.744  0.0490  1.2011 -0.4899
  147SAPE  C31316195   0.703   3.673   5.583 -0.1622  0.3822  0.3544
  147SAPE  H13X16196   0.755   3.587   5.534  1.1241  0.9488  0.6936
  147SAPE  H13Y16197   0.774   3.758   5.579  2.9044 -2.0319 -0.9329
  147SAPE  C31416198   0.569   3.692   5.512 -0.1143 -0.1027 -0.2240
  147SAPE  H14X16199   0.528   3.786   5.554 -1.5475 -0.3940 -0.9233
  147SAPE  H14Y16200   0.503   3.604   5.526  0.5302 -0.4996  0.3708
  147SAPE  C31516201   0.572   3.708   5.357  0.4225  0.0157 -0.2310
  147SAPE  H15X16202   0.648   3.787   5.338  1.2412 -0.6477  0.2070
  147SAPE  H15Y16203   0.468   3.740   5.336  0.5622  0.6427  0.0031
  147SAPE  C31616204   0.619   3.599   5.260 -0.4042 -0.5169  0.1697
  147SAPE  H16X16205   0.556   3.507   5.263 -1.1931 -0.0015 -0.3805
  147SAPE  H16Y16206   0.719   3.568   5.299 -0.5875  0.7400  1.7253
  147SAPE  C31716207   0.635   3.638   5.110 -0.2973  0.0451  0.7677
  147SAPE  H17X16208   0.676   3.554   5.050 -0.1573  0.3576  0.4197
  147SAPE  H17Y16209   0.699   3.729   5.107  0.2852 -0.3842 -0.1140
  147SAPE  C31816210   0.510   3.683   5.034  0.3506 -0.1070  0.2226
  147SAPE  H18X16211   0.519   3.683   4.923 -0.1906 -2.1513  0.1429
  147SAPE  H18Y16212   0.478   3.782   5.073 -0.0809  0.2486 -0.9684
  147SAPE  H18Z16213   0.425   3.614   5.053 -0.3700  0.5901 -0.4195
  148SAPE     N16214   5.847   0.517   7.283 -0.3587 -0.1212 -0.5852
  148SAPE   HN116215   5.944   0.493   7.311 -0.6312  1.1659  1.7369
  148SAPE   HN216216   5.784   0.488   7.361 -1.3584 -1.1634 -1.7383
  148SAPE   HN316217   5.809   0.458   7.207 -2.0467 -2.8164  2.1004
  148SAPE   C1216218   5.839   0.661   7.243  0.0674 -0.3496  0.1288
  148SAPE  H12A16219   5.845   0.733   7.328  1.7248  1.6788 -1.6060
  148SAPE  H12B16220   5.740   0.674   7.194  0.3057  1.1253 -0.0128
  148SAPE   C1116221   5.970   0.691   7.170  0.8010  0.2860 -0.5210
  148SAPE  H11A16222   5.955   0.795   7.134 -0.2106  0.2622 -0.2128
  148SAPE  H11B16223   5.982   0.629   7.078  2.5229  1.6150 -1.2411
  148SAPE     P16224   6.201   0.775   7.266  0.1479 -0.0987  0.0179
  148SAPE   O1316225   6.146   0.899   7.324 -0.2913  0.0886 -0.4519
  148SAPE   O1416226   6.327   0.718   7.323  0.4061 -0.4484  0.0331
  148SAPE   O1216227   6.083   0.663   7.255 -0.5763  0.1481 -0.4663
  148SAPE   O1116228   6.230   0.801   7.111 -0.3210  0.4331  0.0386
  148SAPE    C116229   6.328   0.898   7.060 -0.1832  0.1161 -0.1512
  148SAPE    HA16230   6.297   1.000   7.090 -3.3173  0.4009 -3.6100
  148SAPE    HB16231   6.431   0.873   7.096  0.4535  0.6745 -1.5233
  148SAPE    C216232   6.347   0.907   6.911 -0.0134 -0.1418 -0.2094
  148SAPE    HS16233   6.426   0.984   6.898  0.5966 -0.6353  0.4957
  148SAPE   O2116234   6.217   0.953   6.850 -0.3495  0.1342  0.2144
  148SAPE   C2116235   6.203   1.082   6.845 -0.0807  0.3773 -0.2268
  148SAPE   O2216236   6.246   1.170   6.918  0.7305  0.1862 -0.1154
  148SAPE   C2216237   6.127   1.111   6.711  0.4240  0.7169  0.2359
  148SAPE   H2R16238   6.193   1.097   6.622 -1.2597  2.8260 -1.4555
  148SAPE   H2S16239   6.042   1.041   6.699  0.9449  0.2794 -1.0130
  148SAPE    C316240   6.396   0.770   6.851  0.4044  0.8334  0.3648
  148SAPE    HX16241   6.310   0.704   6.871 -0.6452  1.1033 -2.8071
  148SAPE    HY16242   6.489   0.731   6.899 -1.2545 -1.4536  1.9064
  148SAPE   O3116243   6.425   0.768   6.705 -0.5928  0.4047 -0.5753
  148SAPE   C3116244   6.318   0.754   6.623  0.4909 -0.2165 -0.2530
  148SAPE   O3216245   6.207   0.727   6.663  0.4541  0.1778  0.2583
  148SAPE   C3216246   6.355   0.772   6.472 -0.1520  0.1759 -0.0983
  148SAPE   H2X16247   6.366   0.666   6.437 -0.8111  0.0298  0.1341
  148SAPE   H2Y16248   6.452   0.825   6.464  0.5564 -0.5701  2.5220
  148SAPE   C2316249   6.087   1.265   6.700  0.3379 -0.2970  0.7978
  148SAPE   H3R16250   6.174   1.327   6.728  1.4041 -1.3714 -0.0447
  148SAPE   H3S16251   6.010   1.281   6.778 -1.9166  0.8715 -1.5029
  148SAPE   C2416252   6.025   1.327   6.575 -0.2376  0.0234  0.8125
  148SAPE   H4R16253   6.017   1.433   6.606 -0.5299 -0.2986  1.8802
  148SAPE   H4S16254   5.924   1.284   6.555  0.0513 -0.3522  0.1195
  148SAPE   C2516255   6.117   1.303   6.457  0.5428 -0.0383  0.2710
  148SAPE   H5R16256   6.222   1.307   6.487  0.1125 -3.3943  2.8040
  148SAPE   C2616257   6.086   1.265   6.329 -0.6558 -0.5798 -0.2332
  148SAPE   H6R16258   6.168   1.272   6.256  0.7958  0.0085  1.3671
  148SAPE   C2716259   5.956   1.242   6.257 -0.2809  0.4605 -0.6583
  148SAPE   H7R16260   5.876   1.219   6.331 -0.9199 -3.7396 -2.3867
  148SAPE   H7S16261   5.967   1.149   6.197 -0.3608  0.4412 -0.6429
  148SAPE   C2816262   5.915   1.361   6.183  0.5853  0.3817  0.3836
  148SAPE   H8R16263   5.875   1.447   6.239 -0.8231 -1.3049  2.1263
  148SAPE   C2916264   5.914   1.372   6.047  0.0544 -1.3161 -0.2451
  148SAPE   H9R16265   5.878   1.465   6.001  0.7386 -0.8422  0.1551
  148SAPE  C21016266   5.958   1.278   5.952 -0.1598  0.6649  0.6022
  148SAPE  H10R16267   5.865   1.245   5.901  0.6315  1.0671 -1.1522
  148SAPE  H10S16268   5.995   1.186   6.002 -0.1340 -0.1005 -0.7988
  148SAPE  C21116269   6.069   1.325   5.861 -0.0901  0.3574  0.0633
  148SAPE  H11R16270   6.168   1.341   5.905 -0.5195  1.1435  0.8034
  148SAPE  C21216271   6.061   1.343   5.727 -0.2060 -0.8446 -0.7380
  148SAPE  H12R16272   6.147   1.383   5.671 -0.7011  0.3427 -0.6718
  148SAPE  C21316273   5.946   1.307   5.632  0.0153  0.5725 -0.4408
  148SAPE  H13R16274   5.853   1.352   5.672 -1.1895 -1.2966 -1.0589
  148SAPE  H13S16275   5.929   1.198   5.639 -0.5664  0.7916  2.2723
  148SAPE  C21416276   5.973   1.353   5.491 -1.4524 -0.0583  0.4478
  148SAPE  H14R16277   6.001   1.458   5.478 -0.7300 -0.3783 -0.7613
  148SAPE  C21516278   5.934   1.299   5.377  0.2855  1.6819  0.7525
  148SAPE  H15R16279   5.967   1.346   5.283 -0.8131 -0.1949 -0.6445
  148SAPE  C21616280   5.873   1.161   5.347  0.0143 -0.5255 -0.1782
  148SAPE  H16R16281   5.764   1.162   5.326  0.4057 -3.4615 -2.9958
  148SAPE  H16S16282   5.888   1.094   5.434 -0.8618 -0.3298  0.1310
  148SAPE  C21716283   5.934   1.095   5.219 -0.6295  0.2755  0.5790
  148SAPE  H17R16284   5.930   1.165   5.132  0.5786  1.8140  1.6927
  148SAPE  H17S16285   5.862   1.013   5.203 -2.4972  1.9663 -0.1260
  148SAPE  C21816286   6.074   1.037   5.254 -0.4332  0.6147 -0.0246
  148SAPE  H18R16287   6.059   0.980   5.347 -1.2026 -1.1055 -1.1518
  148SAPE  H18S16288   6.153   1.113   5.270 -1.0281  1.5689 -1.4245
  148SAPE  C21916289   6.136   0.950   5.139 -0.1462 -0.7110  0.0414
  148SAPE  H19R16290   6.059   0.874   5.114 -0.5455 -0.0490 -0.8100
  148SAPE  H19S16291   6.233   0.903   5.164 -0.1436 -0.0939  1.2524
  148SAPE  C22016292   6.144   1.030   5.011  0.3481  0.4604 -1.0814
  148SAPE  H20R16293   6.181   0.967   4.928  1.2914 -3.4511  2.0099
  148SAPE  H20S16294   6.206   1.121   5.024  1.3046 -0.0119 -2.1553
  148SAPE  H20T16295   6.042   1.066   4.984 -1.1589 -1.8082  1.1677
  148SAPE   C3316296   6.254   0.832   6.377  0.1619 -1.0516  0.6639
  148SAPE   H3X16297   6.248   0.941   6.397 -0.6112 -0.7874 -0.8950
  148SAPE   H3Y16298   6.149   0.799   6.382 -0.2626  0.2389  0.5618
  148SAPE   C3416299   6.302   0.828   6.233 -0.0306 -0.0828  0.0941
  148SAPE   H4X16300   6.324   0.727   6.191  3.2121  1.2650 -1.7926
  148SAPE   H4Y16301   6.396   0.885   6.220 -0.5686  0.9411  0.6435
  148SAPE   C3516302   6.211   0.908   6.138  0.2969 -0.1423 -0.3791
  148SAPE   H5X16303   6.224   1.018   6.148 -0.3475 -0.1992  1.4512
  148SAPE   H5Y16304   6.103   0.888   6.156  0.0024  0.7621 -1.0608
  148SAPE   C3616305   6.260   0.876   5.988  0.4261 -0.0111  0.1451
  148SAPE   H6X16306   6.268   0.765   5.980  1.9233 -0.1343  2.4842
  148SAPE   H6Y16307   6.361   0.924   5.989 -0.1305  1.2044  1.6780
  148SAPE   C3716308   6.168   0.936   5.878  0.1685 -0.2268  1.0072
  148SAPE   H7X16309   6.218   1.015   5.819 -2.9260 -0.8118 -2.8203
  148SAPE   H7Y16310   6.076   0.983   5.921 -0.0359  0.2681  0.0438
  148SAPE   C3816311   6.129   0.837   5.771  1.0024 -0.1438  0.3386
  148SAPE   H8X16312   6.060   0.884   5.699  2.0118  0.7275 -0.0887
  148SAPE   H8Y16313   6.075   0.757   5.826 -0.4654  0.2435 -0.4996
  148SAPE   C3916314   6.245   0.769   5.686  1.1199  0.0040  0.7027
  148SAPE   H9X16315   6.312   0.713   5.755 -0.7421 -4.2220 -0.5546
  148SAPE   H9Y16316   6.309   0.847   5.639  0.5565  0.2537  0.3454
  148SAPE  C31016317   6.196   0.660   5.587 -0.2850 -0.5730  0.3560
  148SAPE  H10X16318   6.143   0.713   5.505 -1.2580  1.3773  2.1449
  148SAPE  H10Y16319   6.122   0.595   5.638  0.4779 -2.6464 -1.0757
  148SAPE  C31116320   6.303   0.570   5.525 -0.3007 -0.6145 -0.2270
  148SAPE  H11X16321   6.356   0.519   5.609  0.0564 -1.0285 -0.6964
  148SAPE  H11Y16322   6.375   0.636   5.473 -1.0569  0.2493 -0.1931
  148SAPE  C31216323   6.252   0.473   5.417  0.7486 -0.0947  0.0084
  148SAPE  H12X16324   6.151   0.437   5.448  0.7617  1.3382  1.8842
  148SAPE  H12Y16325   6.311   0.378   5.419 -0.2031 -0.7061 -0.1655
  148SAPE  C31316326   6.258   0.534   5.277  0.3109 -0.5153  0.0877
  148SAPE  H13X16327   6.267   0.645   5.280 -0.3846 -0.4260  3.7054
  148SAPE  H13Y16328   6.157   0.511   5.237  1.0647 -2.3227 -0.8847
  148SAPE  C31416329   6.355   0.469   5.178  0.2337 -0.0234 -0.0265
  148SAPE  H14X16330   6.340   0.359   5.182  0.5606 -0.1552 -1.6366
  148SAPE  H14Y16331   6.461   0.477   5.209 -0.1454  1.5039  1.0451
  148SAPE  C31516332   6.344   0.541   5.040  0.3941 -0.1700  0.5676
  148SAPE  H15X16333   6.357   0.650   5.052 -1.2695  0.0032  1.0575
  148SAPE  H15Y16334   6.241   0.532   4.997  1.2908 -0.5861 -1.6382
  148SAPE  C31616335   6.453   0.514   4.936  0.0180  0.0326  0.3046
  148SAPE  H16X16336   6.551   0.562   4.957  0.4530 -0.0513 -1.4192
  148SAPE  H16Y16337   6.428   0.578   4.848 -0.2804  0.2298  0.5288
  148SAPE  C31716338   6.488   0.376   4.880 -0.2994 -0.2193 -0.8025
  148SAPE  H17X16339   6.398   0.348   4.822 -1.0858  1.8904 -0.6878
  148SAPE  H17Y16340   6.503   0.312   4.969  1.6334 -0.9380 -1.6000
  148SAPE  C31816341   6.615   0.395   4.801  0.2357 -0.1199  0.2728
  148SAPE  H18X16342   6.586   0.463   4.719 -2.6436 -1.7953 -0.2348
  148SAPE  H18Y16343   6.645   0.294   4.764  0.4788 -0.3653  1.1001
  148SAPE  H18Z16344   6.702   0.430   4.861  1.7001  0.1885 -1.9093
  149SAPE     N16345   0.243   6.397   7.557 -0.2495  0.2922  0.0338
  149SAPE   HN116346   0.145   6.405   7.591 -1.0382 -1.5907 -1.5789
  149SAPE   HN216347   0.307   6.409   7.637 -3.1045 -0.7333  2.6732
  149SAPE   HN316348   0.263   6.477   7.494 -0.0330 -0.9901 -1.6041
  149SAPE   C1216349   0.267   6.270   7.474 -0.6687  0.2962  0.2957
  149SAPE  H12A16350   0.295   6.186   7.542 -1.1871  0.4294  0.6846
  149SAPE  H12B16351   0.355   6.281   7.408  0.3640 -1.6827  1.2683
  149SAPE   C1116352   0.152   6.241   7.377 -0.2762  0.1249  0.3183
  149SAPE  H11A16353   0.176   6.155   7.311  1.1817  0.8635 -0.1588
  149SAPE  H11B16354   0.135   6.320   7.301  0.5720 -1.6679 -1.8463
  149SAPE     P16355  -0.032   6.091   7.494 -0.1214  0.0936 -0.0450
  149SAPE   O1316356   0.074   6.026   7.568 -0.5725 -0.2187  0.0389
  149SAPE   O1416357  -0.163   6.101   7.570 -0.1016 -1.0055  0.5033
  149SAPE   O1216358   0.023   6.232   7.449  0.0004 -0.2878 -1.3145
  149SAPE   O1116359  -0.049   6.020   7.358  0.0720 -0.0959  0.5555
  149SAPE    C116360  -0.145   6.057   7.262  0.2969  0.9949 -0.6793
  149SAPE    HA16361  -0.242   6.013   7.293  1.9387 -0.7239  2.5212
  149SAPE    HB16362  -0.155   6.168   7.260 -2.2854  0.8946  1.2353
  149SAPE    C216363  -0.093   6.003   7.126  0.3261 -0.1004  0.0188
  149SAPE    HS16364  -0.075   5.894   7.139 -4.3688 -1.1276 -0.2168
  149SAPE   O2116365   0.032   6.077   7.096  0.4228  0.5988  0.2785
  149SAPE   C2116366   0.128   5.999   7.050  0.0817 -0.2681 -0.3808
  149SAPE   O2216367   0.126   5.876   7.038 -0.7348 -0.5423  0.7424
  149SAPE   C2216368   0.259   6.087   7.035  0.0345 -0.6403  0.6837
  149SAPE   H2R16369   0.226   6.185   6.995 -1.9248 -0.8021  1.7688
  149SAPE   H2S16370   0.296   6.098   7.139  0.9528  0.9437  0.2250
  149SAPE    C316371  -0.199   6.015   7.013  0.6305  0.1337 -0.4284
  149SAPE    HX16372  -0.209   6.125   6.997  0.3163 -0.0499 -1.5859
  149SAPE    HY16373  -0.298   5.983   7.050  0.4768  0.6047 -0.4227
  149SAPE   O3116374  -0.144   5.950   6.890 -0.2827 -0.3996  0.4225
  149SAPE   C3116375  -0.182   5.822   6.888 -0.7192  0.4037 -0.5529
  149SAPE   O3216376  -0.257   5.773   6.975  0.0102 -0.0875  0.0631
  149SAPE   C3216377  -0.106   5.753   6.781 -0.2618 -0.2798 -0.2759
  149SAPE   H2X16378  -0.103   5.644   6.806  0.5098 -0.6529 -1.8851
  149SAPE   H2Y16379  -0.005   5.797   6.781 -0.9458  1.6211  3.1520
  149SAPE   C2316380   0.367   6.028   6.944  0.1808 -0.0201 -0.2878
  149SAPE   H3R16381   0.378   5.918   6.951 -3.8110 -0.6190 -1.1263
  149SAPE   H3S16382   0.460   6.076   6.981 -1.0916  1.7205  0.8734
  149SAPE   C2416383   0.351   6.060   6.796 -0.0503  0.1147  0.0548
  149SAPE   H4R16384   0.371   6.163   6.761 -1.3195  0.7880  1.2306
  149SAPE   H4S16385   0.247   6.048   6.758  0.2972  1.9615 -1.6844
  149SAPE   C2516386   0.443   5.976   6.722  0.3037  0.2280  0.2361
  149SAPE   H5R16387   0.546   5.961   6.759  0.5807  0.0033 -0.5940
  149SAPE   C2616388   0.407   5.914   6.605 -0.0788 -0.4785 -0.2029
  149SAPE   H6R16389   0.476   5.845   6.554 -0.5170 -0.6886 -0.5208
  149SAPE   C2716390   0.271   5.922   6.536  0.1031 -0.1321 -0.2141
  149SAPE   H7R16391   0.253   6.029   6.511  0.6755  1.2210  4.1576
  149SAPE   H7S16392   0.193   5.907   6.614  2.2255 -0.8769  1.9105
  149SAPE   C2816393   0.249   5.832   6.421  0.6095 -1.3574  0.1742
  149SAPE   H8R16394   0.183   5.748   6.447  0.8485 -2.0739 -1.4401
  149SAPE   C2916395   0.271   5.868   6.289 -0.7334  0.5973  0.1350
  149SAPE   H9R16396   0.248   5.794   6.212  1.0206 -0.4823  0.5946
  149SAPE  C21016397   0.348   5.992   6.253  0.6550 -0.0252  0.4681
  149SAPE  H10R16398   0.454   5.993   6.285  0.0339 -0.2581  2.6914
  149SAPE  H10S16399   0.315   6.091   6.293  2.2184  0.0811  1.5783
  149SAPE  C21116400   0.350   5.998   6.103  0.5591  0.0904 -0.8023
  149SAPE  H11R16401   0.441   5.952   6.061  1.0571  0.4314 -0.1058
  149SAPE  C21216402   0.255   6.040   6.023  0.5459 -0.1935 -0.2700
  149SAPE  H12R16403   0.261   6.012   5.917  1.1012  0.9366 -0.5537
  149SAPE  C21316404   0.118   6.097   6.058 -0.4130  0.0166  0.3025
  149SAPE  H13R16405   0.104   6.194   6.005 -0.4640 -0.5369 -0.7257
  149SAPE  H13S16406   0.128   6.128   6.164 -1.0315 -0.9484  0.6523
  149SAPE  C21416407  -0.006   6.020   6.025 -0.5141 -0.0146 -0.2987
  149SAPE  H14R16408  -0.038   5.951   6.106  0.6785 -0.6394 -0.3303
  149SAPE  C21516409  -0.057   6.016   5.902  0.1766 -0.6347 -0.1597
  149SAPE  H15R16410  -0.144   5.950   5.885 -0.7426  0.1758  1.2431
  149SAPE  C21616411  -0.000   6.089   5.773 -0.4164  0.7590  0.1035
  149SAPE  H16R16412  -0.002   6.020   5.686  1.2822  1.0967 -0.2439
  149SAPE  H16S16413   0.102   6.131   5.785  0.0452 -0.3419  0.1480
  149SAPE  C21716414  -0.093   6.210   5.749  0.1191  0.5245 -0.0033
  149SAPE  H17R16415  -0.076   6.275   5.838  1.6077  1.1789 -0.7264
  149SAPE  H17S16416  -0.199   6.179   5.742  0.6510 -2.1447  2.0356
  149SAPE  C21816417  -0.041   6.278   5.615 -0.3130  0.3843  0.2795
  149SAPE  H18R16418  -0.044   6.214   5.524  1.2416  0.0622  0.4237
  149SAPE  H18S16419   0.068   6.299   5.627 -0.2069  0.4742 -0.7601
  149SAPE  C21916420  -0.111   6.414   5.600 -0.8979 -0.1483  0.1263
  149SAPE  H19R16421  -0.082   6.484   5.681  1.5106 -1.0810  0.1690
  149SAPE  H19S16422  -0.215   6.392   5.633 -0.7275 -1.8369 -0.3509
  149SAPE  C22016423  -0.098   6.472   5.452  0.3566  0.2328  0.0786
  149SAPE  H20R16424   0.009   6.479   5.422 -0.0914  2.7603 -1.2336
  149SAPE  H20S16425  -0.141   6.575   5.453 -0.3672 -0.0450  1.9196
  149SAPE  H20T16426  -0.152   6.409   5.379  0.0617  0.6649 -0.0837
  149SAPE   C3316427  -0.181   5.784   6.652 -0.2842 -0.4217 -0.3604
  149SAPE   H3X16428  -0.177   5.892   6.626  1.2069 -0.3532  0.0853
  149SAPE   H3Y16429  -0.284   5.743   6.662  0.0166 -1.0432  0.2101
  149SAPE   C3416430  -0.128   5.704   6.533 -0.3851  0.5810  0.0545
  149SAPE   H4X16431  -0.151   5.598   6.557 -0.5668  0.7461  0.6470
  149SAPE   H4Y16432  -0.018   5.709   6.521 -0.1807 -0.8128  1.0131
  149SAPE   C3516433  -0.173   5.744   6.395  0.2692 -0.1882  0.3692
  149SAPE   H5X16434  -0.145   5.851   6.388  2.6645 -0.8226 -0.9552
  149SAPE   H5Y16435  -0.284   5.731   6.396 -0.0473  1.9364  2.4323
  149SAPE   C3616436  -0.111   5.662   6.285  0.2911  0.4261 -0.5636
  149SAPE   H6X16437  -0.099   5.561   6.331 -0.5843  0.1656 -0.8930
  149SAPE   H6Y16438  -0.009   5.686   6.250  0.4504  1.2378  0.3981
  149SAPE   C3716439  -0.198   5.658   6.156  0.6060 -0.7954  0.7857
  149SAPE   H7X16440  -0.253   5.754   6.147  2.0233  0.0048  0.3775
  149SAPE   H7Y16441  -0.267   5.571   6.152 -1.8339  1.0593 -1.7098
  149SAPE   C3816442  -0.116   5.630   6.038 -0.3075  0.0205 -0.0763
  149SAPE   H8X16443  -0.077   5.526   6.040 -0.2921  0.0251 -0.1665
  149SAPE   H8Y16444  -0.028   5.698   6.035  0.4834 -0.8403  1.7296
  149SAPE   C3916445  -0.199   5.633   5.907 -0.3020 -0.4440  0.6172
  149SAPE   H9X16446  -0.243   5.734   5.890 -0.2662 -0.5507 -0.1508
  149SAPE   H9Y16447  -0.278   5.557   5.925 -0.8017 -0.2010 -0.4349
  149SAPE  C31016448  -0.125   5.599   5.784 -1.2638  0.2266  0.6702
  149SAPE  H10X16449  -0.119   5.489   5.780 -3.3702  0.1063 -0.9355
  149SAPE  H10Y16450  -0.025   5.648   5.778 -1.3754  0.5164  1.0987
  149SAPE  C31116451  -0.204   5.642   5.658 -0.3646 -0.0481  0.0201
  149SAPE  H11X16452  -0.258   5.737   5.678 -1.8218 -1.1688  1.7195
  149SAPE  H11Y16453  -0.284   5.569   5.632  0.4556 -1.3608  1.0506
  149SAPE  C31216454  -0.114   5.661   5.530  0.4271  0.1155 -0.1193
  149SAPE  H12X16455  -0.028   5.590   5.535 -0.9523 -1.6089  0.0471
  149SAPE  H12Y16456  -0.075   5.764   5.538 -1.5755  1.0063 -1.2620
  149SAPE  C31316457  -0.195   5.630   5.402  0.4484  0.2709 -0.3715
  149SAPE  H13X16458  -0.203   5.722   5.341  0.5648  1.1161  0.8391
  149SAPE  H13Y16459  -0.294   5.583   5.423  2.1714 -2.2922  3.0664
  149SAPE  C31416460  -0.124   5.520   5.315 -0.8346  0.2140 -0.2303
  149SAPE  H14X16461  -0.096   5.439   5.385  1.0672 -0.7494 -2.0073
  149SAPE  H14Y16462  -0.032   5.569   5.278 -0.2409 -1.1023 -0.5275
  149SAPE  C31516463  -0.203   5.450   5.201  0.3908 -0.1386  0.1417
  149SAPE  H15X16464  -0.294   5.402   5.242  0.5911  0.3536  1.2129
  149SAPE  H15Y16465  -0.147   5.374   5.143 -0.0215 -0.7747  0.5673
  149SAPE  C31616466  -0.256   5.548   5.094  0.4210  0.2022  0.7286
  149SAPE  H16X16467  -0.181   5.626   5.071 -1.3215  2.3742  1.9906
  149SAPE  H16Y16468  -0.349   5.599   5.127 -0.2015  0.1043 -0.7836
  149SAPE  C31716469  -0.288   5.486   4.956 -1.1305  0.5717  0.5883
  149SAPE  H17X16470  -0.376   5.418   4.956 -1.7803  1.4039  0.0754
  149SAPE  H17Y16471  -0.208   5.422   4.913 -2.3444 -0.6141  0.0217
  149SAPE  C31816472  -0.332   5.589   4.855 -0.1265 -0.3508 -0.3454
  149SAPE  H18X16473  -0.253   5.661   4.828  0.4823 -0.7106  0.4315
  149SAPE  H18Y16474  -0.433   5.626   4.881 -0.2929 -2.2315  2.1615
  149SAPE  H18Z16475  -0.367   5.531   4.767 -2.7568  0.8594 -0.1888
  150SAPE     N16476   3.669   6.261   7.391  0.6531  0.0566 -0.0235
  150SAPE   HN116477   3.661   6.158   7.396 -2.0319  0.1285 -1.1464
  150SAPE   HN216478   3.611   6.294   7.311 -0.2358  2.2158  1.4124
  150SAPE   HN316479   3.767   6.295   7.397  0.3315  0.9006  0.9072
  150SAPE   C1216480   3.598   6.310   7.523  0.0212  0.6491  0.6255
  150SAPE  H12A16481   3.637   6.411   7.547 -0.4095  1.0959 -0.4580
  150SAPE  H12B16482   3.640   6.242   7.600  1.4124  2.1818  1.2674
  150SAPE   C1116483   3.446   6.293   7.507 -0.2411 -0.5488 -0.1440
  150SAPE  H11A16484   3.411   6.356   7.422 -1.1543 -0.1945  0.4695
  150SAPE  H11B16485   3.398   6.347   7.592 -0.3176 -1.7754  0.6084
  150SAPE     P16486   3.365   6.073   7.364  0.4978 -0.3524  0.2380
  150SAPE   O1316487   3.454   6.120   7.250  0.0310  0.6519  0.2236
  150SAPE   O1416488   3.358   5.931   7.399 -0.2097  0.1454 -0.0199
  150SAPE   O1216489   3.407   6.156   7.491 -0.2239  0.1235 -0.0273
  150SAPE   O1116490   3.222   6.145   7.340 -0.0650 -0.1595  0.4609
  150SAPE    C116491   3.116   6.068   7.274 -1.0093  0.4657  0.5032
  150SAPE    HA16492   3.111   5.963   7.309 -4.0921  0.0886 -0.7560
  150SAPE    HB16493   3.015   6.108   7.299 -1.2902 -0.2256  0.4957
  150SAPE    C216494   3.133   6.060   7.114 -0.0372 -0.5794 -0.0380
  150SAPE    HS16495   3.222   6.000   7.086 -0.8062 -1.9760  0.4353
  150SAPE   O2116496   3.147   6.202   7.075 -0.1243  0.0315 -0.3164
  150SAPE   C2116497   3.214   6.217   6.964  0.0525 -0.0805  0.3618
  150SAPE   O2216498   3.276   6.133   6.898 -0.1403 -0.3070  0.2487
  150SAPE   C2216499   3.202   6.364   6.935 -0.0514  0.1538  0.1666
  150SAPE   H2R16500   3.099   6.403   6.952 -0.7498 -2.1283  1.5525
  150SAPE   H2S16501   3.274   6.405   7.009 -0.0487  0.1376  0.1729
  150SAPE    C316502   3.009   6.000   7.047 -0.5573  0.6392  0.3006
  150SAPE    HX16503   2.911   6.041   7.079 -0.5058  2.5480 -1.7542
  150SAPE    HY16504   3.000   5.893   7.077 -4.4293  1.1077  1.3536
  150SAPE   O3116505   3.011   6.009   6.903  0.5363  0.0422 -0.0122
  150SAPE   C3116506   3.079   5.919   6.837  0.6935  0.5175  0.6389
  150SAPE   O3216507   3.131   5.818   6.889 -0.0230 -0.5301 -0.1676
  150SAPE   C3216508   3.086   5.960   6.681 -0.3851 -0.2892 -0.4374
  150SAPE   H2X16509   3.189   5.980   6.648  0.1957  0.0843  1.4595
  150SAPE   H2Y16510   3.024   6.052   6.673 -1.6597 -1.1991 -1.4785
  150SAPE   C2316511   3.251   6.393   6.792 -0.2814 -0.0240 -0.3308
  150SAPE   H3R16512   3.345   6.335   6.775 -0.6380 -1.0296  1.0051
  150SAPE   H3S16513   3.269   6.502   6.791  0.3207 -0.0740  1.5892
  150SAPE   C2416514   3.145   6.351   6.692 -0.3025 -0.6449  0.3245
  150SAPE   H4R16515   3.043   6.386   6.721  0.0356  2.3730 -1.6404
  150SAPE   H4S16516   3.123   6.243   6.684  0.2043 -0.6585 -1.1404
  150SAPE   C2516517   3.176   6.405   6.544 -0.4545 -0.1099  0.3941
  150SAPE   H5R16518   3.278   6.438   6.522  1.4079 -4.1197  1.9974
  150SAPE   C2616519   3.091   6.421   6.450  0.6774  0.1114  0.0671
  150SAPE   H6R16520   3.125   6.454   6.351 -2.5077 -2.4667 -2.1147
  150SAPE   C2716521   2.946   6.380   6.446  0.1319 -0.1276 -0.4238
  150SAPE   H7R16522   2.895   6.445   6.372  0.0187 -1.0200 -1.1422
  150SAPE   H7S16523   2.887   6.388   6.540  0.8218  1.7760 -0.0992
  150SAPE   C2816524   2.943   6.233   6.403 -0.4556 -0.1854 -0.5288
  150SAPE   H8R16525   2.994   6.164   6.471 -2.6675  0.0193  1.4614
  150SAPE   C2916526   2.884   6.184   6.295 -0.0191 -0.5244  0.4969
  150SAPE   H9R16527   2.894   6.076   6.275  2.4052  0.1394 -2.6372
  150SAPE  C21016528   2.818   6.267   6.191  0.1612  1.1141 -0.3781
  150SAPE  H10R16529   2.889   6.344   6.153  0.4654  1.3217  0.5863
  150SAPE  H10S16530   2.733   6.321   6.237 -0.0622 -2.4896  4.1648
  150SAPE  C21116531   2.758   6.183   6.078 -0.4258 -0.4382 -0.3762
  150SAPE  H11R16532   2.657   6.147   6.104 -0.7080  1.3068  1.2079
  150SAPE  C21216533   2.825   6.137   5.964 -0.2752 -0.1721  0.5211
  150SAPE  H12R16534   2.770   6.080   5.888 -1.3949  1.3744  0.1013
  150SAPE  C21316535   2.960   6.180   5.930 -0.0549 -0.0463  0.0898
  150SAPE  H13R16536   3.010   6.187   6.028  0.2536  1.3988 -0.1572
  150SAPE  H13S16537   2.960   6.281   5.884 -1.1424  0.5453  1.3404
  150SAPE  C21416538   3.029   6.079   5.837  0.3647 -0.0497  0.8788
  150SAPE  H14R16539   3.094   6.006   5.887  0.8650  1.2133  2.1249
  150SAPE  C21516540   3.017   6.068   5.702  0.4679  0.1554  0.1594
  150SAPE  H15R16541   3.069   5.983   5.654 -0.9789  0.2651 -1.6798
  150SAPE  C21616542   2.930   6.162   5.618 -0.3290  0.5659 -0.8069
  150SAPE  H16R16543   2.988   6.185   5.526  1.8648 -0.3844  0.2634
  150SAPE  H16S16544   2.920   6.260   5.668 -2.2289 -0.1343  0.2868
  150SAPE  C21716545   2.789   6.092   5.577 -0.2673 -0.0803  0.2118
  150SAPE  H17R16546   2.722   6.083   5.666  1.1461 -0.6151  1.2542
  150SAPE  H17S16547   2.797   5.986   5.544 -1.8250 -0.1419 -0.0526
  150SAPE  C21816548   2.717   6.161   5.458 -0.2282  0.5800 -0.4361
  150SAPE  H18R16549   2.610   6.133   5.450  0.4162 -2.6618  0.6292
  150SAPE  H18S16550   2.773   6.130   5.366  0.8939 -0.6166  0.5971
  150SAPE  C21916551   2.719   6.311   5.488  0.4105  0.0085  0.5298
  150SAPE  H19R16552   2.826   6.337   5.476  0.5602 -1.2212 -1.2870
  150SAPE  H19S16553   2.671   6.337   5.585 -1.6939  0.9046 -0.6760
  150SAPE  C22016554   2.644   6.397   5.390 -0.1405 -0.1475  0.5145
  150SAPE  H20R16555   2.689   6.393   5.288 -0.7142  0.6445  0.2178
  150SAPE  H20S16556   2.658   6.504   5.418  0.4497  0.3671 -1.5414
  150SAPE  H20T16557   2.538   6.366   5.385  0.3813 -1.9082 -0.6279
  150SAPE   C3316558   3.029   5.840   6.600  0.2157  0.5310 -0.6400
  150SAPE   H3X16559   2.925   5.819   6.635  0.4790 -1.9633 -1.1154
  150SAPE   H3Y16560   3.095   5.751   6.611  1.0603  1.1878 -0.3326
  150SAPE   C3416561   3.009   5.874   6.453  0.3396 -1.0767  0.4271
  150SAPE   H4X16562   3.090   5.938   6.413  0.5792 -1.2746  0.5868
  150SAPE   H4Y16563   2.914   5.931   6.449  2.7838  3.4277  0.0827
  150SAPE   C3516564   3.016   5.761   6.366 -0.4144  0.2774 -0.3142
  150SAPE   H5X16565   2.961   5.683   6.423  1.1240  0.3766  1.4180
  150SAPE   H5Y16566   3.123   5.731   6.370  0.3218  2.8906  1.9987
  150SAPE   C3616567   2.958   5.792   6.229  0.4212 -0.3110 -0.2725
  150SAPE   H6X16568   3.021   5.882   6.210 -3.0723  2.4970  0.3788
  150SAPE   H6Y16569   2.853   5.828   6.237  0.3045 -0.6097 -0.4343
  150SAPE   C3716570   2.989   5.690   6.122  0.5314  0.3259  0.6318
  150SAPE   H7X16571   2.906   5.616   6.126 -0.0573  0.9511  0.0445
  150SAPE   H7Y16572   3.082   5.629   6.125  0.8183  0.7264 -0.0768
  150SAPE   C3816573   2.958   5.744   5.984  0.2571 -0.0262  0.5184
  150SAPE   H8X16574   3.034   5.821   5.962 -2.1373  2.2092 -0.3755
  150SAPE   H8Y16575   2.859   5.793   5.979  0.1828 -0.2899 -0.7847
  150SAPE   C3916576   2.954   5.634   5.876  0.1350 -0.1311 -0.8304
  150SAPE   H9X16577   2.881   5.554   5.902 -0.2369  0.0632 -1.2474
  150SAPE   H9Y16578   3.054   5.588   5.884  1.3381  2.1185 -2.0433
  150SAPE  C31016579   2.940   5.692   5.739  0.1098 -0.1984  0.1739
  150SAPE  H10X16580   2.948   5.606   5.669 -1.5308  1.3503 -2.0329
  150SAPE  H10Y16581   3.024   5.758   5.708  0.0999 -0.8826 -1.4112
  150SAPE  C31116582   2.802   5.758   5.707 -0.2599  0.0063  0.0207
  150SAPE  H11X16583   2.808   5.864   5.739 -0.3240 -0.7271  2.6512
  150SAPE  H11Y16584   2.736   5.699   5.774  0.6173 -2.4134 -1.1178
  150SAPE  C31216585   2.766   5.741   5.562 -0.1346  0.8194  0.0935
  150SAPE  H12X16586   2.833   5.791   5.490 -1.2467  0.0239 -1.5560
  150SAPE  H12Y16587   2.665   5.785   5.546 -1.7434 -1.8825  1.8185
  150SAPE  C31316588   2.741   5.595   5.524  0.6833 -0.0884 -0.1715
  150SAPE  H13X16589   2.678   5.544   5.599  0.5033 -0.0529 -0.2982
  150SAPE  H13Y16590   2.835   5.535   5.521  0.6112 -0.1659 -2.2659
  150SAPE  C31416591   2.673   5.568   5.393  0.6547  0.0516 -1.0783
  150SAPE  H14X16592   2.728   5.611   5.306  1.5725  1.2409  0.0544
  150SAPE  H14Y16593   2.577   5.622   5.408  0.2360 -0.8256 -0.4792
  150SAPE  C31516594   2.622   5.419   5.373  0.3068  0.1893 -0.1365
  150SAPE  H15X16595   2.544   5.389   5.447 -0.2260  0.1983 -0.6900
  150SAPE  H15Y16596   2.715   5.362   5.394  1.0451  1.4760  0.1939
  150SAPE  C31616597   2.563   5.399   5.227 -0.2170 -0.0212 -0.3691
  150SAPE  H16X16598   2.470   5.459   5.214 -0.6468 -0.2576  1.2865
  150SAPE  H16Y16599   2.534   5.292   5.230  0.2718 -0.1811  3.1599
  150SAPE  C31716600   2.652   5.439   5.108 -0.1348 -0.6110 -0.0570
  150SAPE  H17X16601   2.756   5.416   5.137  0.4527  0.6681 -1.0807
  150SAPE  H17Y16602   2.645   5.548   5.093  0.3533 -0.7415 -1.3125
  150SAPE  C31816603   2.599   5.383   4.974  0.3740  0.0300 -0.1701
  150SAPE  H18X16604   2.641   5.427   4.881  2.2921 -2.0348 -0.3569
  150SAPE  H18Y16605   2.488   5.397   4.974  0.4665  1.2214 -2.2070
  150SAPE  H18Z16606   2.603   5.272   4.969 -0.2173  0.0158 -0.5598
  151SAPE     N16607   1.583   4.403   7.797 -0.1400 -0.0416 -0.1724
  151SAPE   HN116608   1.660   4.333   7.791 -1.5226 -1.5082 -2.4598
  151SAPE   HN216609   1.626   4.494   7.824  3.7313 -2.2812  2.2305
  151SAPE   HN316610   1.522   4.356   7.867 -0.1133 -1.4724 -1.0595
  151SAPE   C1216611   1.525   4.405   7.657  0.1074  1.0338  1.3207
  151SAPE  H12A16612   1.609   4.414   7.585  0.1512  0.0747  1.2296
  151SAPE  H12B16613   1.447   4.485   7.654 -1.6508 -0.5675  1.8062
  151SAPE   C1116614   1.466   4.259   7.633 -0.4671 -0.1479  0.1303
  151SAPE  H11A16615   1.399   4.260   7.545 -0.9758  1.0080  0.5115
  151SAPE  H11B16616   1.386   4.245   7.709 -0.9770  3.3542  0.4089
  151SAPE     P16617   1.519   4.003   7.661 -0.1195 -0.1531  0.4740
  151SAPE   O1316618   1.617   3.926   7.737 -0.4234 -0.0887 -0.2512
  151SAPE   O1416619   1.378   3.990   7.712 -0.0144  0.2636 -1.0802
  151SAPE   O1216620   1.562   4.152   7.630 -0.1975 -0.2442  0.0672
  151SAPE   O1116621   1.518   3.944   7.512  0.2221  0.0164  0.0506
  151SAPE    C116622   1.626   3.969   7.425 -0.2291 -0.0314 -0.5447
  151SAPE    HA16623   1.720   3.991   7.481 -0.4003 -0.9028  0.1135
  151SAPE    HB16624   1.651   3.879   7.364 -0.3679 -0.0789 -0.5328
  151SAPE    C216625   1.584   4.080   7.332 -0.6141 -0.3376  0.3418
  151SAPE    HS16626   1.545   4.159   7.399  0.6300 -0.8562  1.7460
  151SAPE   O2116627   1.489   4.027   7.242  0.2629  0.3870 -0.3514
  151SAPE   C2116628   1.399   4.109   7.201  0.5914 -0.2367 -0.1105
  151SAPE   O2216629   1.368   4.214   7.261  0.4326  0.4613  0.1126
  151SAPE   C2216630   1.337   4.055   7.068  0.1480  0.0133 -0.3014
  151SAPE   H2R16631   1.370   3.949   7.063  2.3643  0.6804 -0.8288
  151SAPE   H2S16632   1.227   4.053   7.084 -0.2433 -2.0574 -2.6377
  151SAPE    C316633   1.701   4.151   7.253  0.1128  0.1334 -0.1140
  151SAPE    HX16634   1.792   4.142   7.316  1.7575 -1.5914 -2.5221
  151SAPE    HY16635   1.699   4.262   7.246 -1.2391  0.2882  1.9984
  151SAPE   O3116636   1.715   4.087   7.121 -0.0169  0.3754 -0.0792
  151SAPE   C3116637   1.823   4.133   7.050  0.5178  0.3565 -0.3142
  151SAPE   O3216638   1.904   4.211   7.092  0.4760 -0.2111  0.3402
  151SAPE   C3216639   1.819   4.083   6.908  0.5706 -0.0107 -0.5889
  151SAPE   H2X16640   1.716   4.102   6.870  0.3527 -1.4825 -0.7950
  151SAPE   H2Y16641   1.832   3.973   6.907  1.4718  0.0811  0.0928
  151SAPE   C2316642   1.393   4.129   6.948 -0.0991 -0.0736  0.4845
  151SAPE   H3R16643   1.497   4.164   6.964 -0.5937  2.5463 -1.4699
  151SAPE   H3S16644   1.332   4.218   6.922 -0.7195 -0.7564 -0.4394
  151SAPE   C2416645   1.395   4.040   6.824 -0.2953  0.3193 -0.8524
  151SAPE   H4R16646   1.293   4.022   6.785 -0.2484  0.5991 -1.1073
  151SAPE   H4S16647   1.439   3.941   6.852 -1.7218  0.3680  1.8355
  151SAPE   C2516648   1.471   4.086   6.706 -0.7133  0.0687 -0.3993
  151SAPE   H5R16649   1.481   4.195   6.712  0.8843  0.0132 -1.4755
  151SAPE   C2616650   1.542   4.020   6.610  0.6149 -0.1735  0.3911
  151SAPE   H6R16651   1.595   4.082   6.536 -0.5569 -0.2977 -0.5833
  151SAPE   C2716652   1.568   3.874   6.589  0.1448 -0.6289  0.1990
  151SAPE   H7R16653   1.496   3.841   6.510 -2.0408  0.5289  1.5970
  151SAPE   H7S16654   1.548   3.808   6.677 -2.1874 -1.9795 -1.2213
  151SAPE   C2816655   1.703   3.844   6.541  1.0342  0.6045 -0.1909
  151SAPE   H8R16656   1.784   3.830   6.613  0.5097 -2.1060 -0.0187
  151SAPE   C2916657   1.735   3.838   6.409 -0.2186 -0.8311 -0.3809
  151SAPE   H9R16658   1.840   3.812   6.389 -0.1916 -0.0245 -1.3971
  151SAPE  C21016659   1.666   3.857   6.283  0.6021  0.1438  0.3033
  151SAPE  H10R16660   1.569   3.905   6.308  0.0790 -0.6268 -0.1608
  151SAPE  H10S16661   1.637   3.759   6.239  0.0432  0.2597  0.4075
  151SAPE  C21116662   1.735   3.932   6.176 -0.4544  0.1260  0.2562
  151SAPE  H11R16663   1.811   3.876   6.119 -1.6764 -0.7015 -0.6231
  151SAPE  C21216664   1.725   4.061   6.145  0.2873 -0.2243  0.3850
  151SAPE  H12R16665   1.782   4.110   6.065 -0.9492 -2.1620 -1.8129
  151SAPE  C21316666   1.641   4.164   6.217 -0.3823  0.3657  0.6615
  151SAPE  H13R16667   1.701   4.247   6.259  0.4846 -0.8078  1.7998
  151SAPE  H13S16668   1.586   4.121   6.303 -2.0488  1.2122  0.0654
  151SAPE  C21416669   1.523   4.210   6.134 -0.3822 -0.3061 -0.0937
  151SAPE  H14R16670   1.517   4.171   6.032 -2.0734 -0.5957  0.0824
  151SAPE  C21516671   1.421   4.286   6.180 -0.8640 -0.8056  0.2211
  151SAPE  H15R16672   1.341   4.309   6.109 -0.5462 -2.4340 -0.7144
  151SAPE  C21616673   1.413   4.352   6.319 -0.4748 -0.3884  1.0509
  151SAPE  H16R16674   1.453   4.456   6.310 -0.8806 -0.3710 -5.8666
  151SAPE  H16S16675   1.461   4.296   6.402  1.7049 -0.5642 -0.2449
  151SAPE  C21716676   1.255   4.372   6.351  0.0619  0.2553  0.1756
  151SAPE  H17R16677   1.212   4.274   6.380 -0.4008  0.2693 -0.4497
  151SAPE  H17S16678   1.203   4.401   6.257 -1.2715 -1.3362  0.3775
  151SAPE  C21816679   1.227   4.477   6.459  0.4742 -0.6658 -0.3081
  151SAPE  H18R16680   1.133   4.536   6.449  0.7997  0.3485  1.9072
  151SAPE  H18S16681   1.308   4.551   6.438  0.0328  0.1327  0.7026
  151SAPE  C21916682   1.245   4.412   6.603 -0.0010 -0.0743 -0.1142
  151SAPE  H19R16683   1.339   4.353   6.596  0.2000 -0.1362  2.2287
  151SAPE  H19S16684   1.163   4.338   6.610 -0.8250  0.7363 -0.9050
  151SAPE  C22016685   1.253   4.498   6.733 -0.3173  0.3472  1.2979
  151SAPE  H20R16686   1.258   4.442   6.829 -1.1527 -2.1458 -0.0321
  151SAPE  H20S16687   1.156   4.552   6.744  0.1460  1.1974  1.2913
  151SAPE  H20T16688   1.329   4.578   6.722 -0.4682  0.1681 -2.1423
  151SAPE   C3316689   1.923   4.149   6.818 -0.1602  0.1780 -0.4084
  151SAPE   H3X16690   2.025   4.133   6.857 -0.6182  0.4891  0.9601
  151SAPE   H3Y16691   1.916   4.259   6.816 -1.7486  0.1262  0.5034
  151SAPE   C3416692   1.923   4.096   6.671  0.1046 -0.0044 -0.2930
  151SAPE   H4X16693   1.832   4.127   6.616  0.7291 -1.7089 -2.4371
  151SAPE   H4Y16694   1.943   3.987   6.677  0.2908 -0.0906 -1.9546
  151SAPE   C3516695   2.042   4.152   6.587  0.4906  1.0491  0.3044
  151SAPE   H5X16696   2.144   4.133   6.628  0.6985  1.8551  0.1633
  151SAPE   H5Y16697   2.026   4.260   6.571 -0.6028  0.6272 -1.7068
  151SAPE   C3616698   2.023   4.099   6.443 -0.7834 -0.6520  0.0996
  151SAPE   H6X16699   1.925   4.141   6.412 -0.8753 -1.0999 -0.2190
  151SAPE   H6Y16700   2.021   3.988   6.445  0.0223 -0.6978  2.7557
  151SAPE   C3716701   2.121   4.142   6.335  0.0907  0.1827 -0.2408
  151SAPE   H7X16702   2.222   4.110   6.367 -0.7862 -2.3518  0.2279
  151SAPE   H7Y16703   2.122   4.252   6.319  1.2788  0.6619  2.4610
  151SAPE   C3816704   2.107   4.082   6.190  0.1498  0.0984 -0.8141
  151SAPE   H8X16705   2.019   4.117   6.133 -0.1425  0.5644 -0.0828
  151SAPE   H8Y16706   2.090   3.972   6.196  2.5339 -0.3693 -1.4934
  151SAPE   C3916707   2.228   4.107   6.101  0.1751 -0.0456  0.0918
  151SAPE   H9X16708   2.308   4.068   6.167 -2.7073 -0.7842  3.4543
  151SAPE   H9Y16709   2.239   4.217   6.098  1.5156 -0.1411  0.8166
  151SAPE  C31016710   2.224   4.046   5.967  0.5259 -0.2461  0.5336
  151SAPE  H10X16711   2.126   4.079   5.925  0.5858  1.4221  1.6078
  151SAPE  H10Y16712   2.224   3.939   5.995  0.0681 -0.4706 -0.2856
  151SAPE  C31116713   2.341   4.091   5.876  0.1664 -0.3870  0.5523
  151SAPE  H11X16714   2.439   4.085   5.927 -0.0592  0.4611  1.1189
  151SAPE  H11Y16715   2.330   4.196   5.841 -1.7011 -0.3326  1.1943
  151SAPE  C31216716   2.361   3.993   5.759  1.1673  0.7027  0.2849
  151SAPE  H12X16717   2.281   4.001   5.682  2.1390 -1.1674 -1.0041
  151SAPE  H12Y16718   2.356   3.886   5.787 -2.9021  0.2623 -1.3765
  151SAPE  C31316719   2.482   4.040   5.676 -0.0677  0.5524 -0.2887
  151SAPE  H13X16720   2.570   4.071   5.736  0.4449 -1.6026  0.1631
  151SAPE  H13Y16721   2.443   4.122   5.612 -2.2154 -1.5396 -1.8429
  151SAPE  C31416722   2.529   3.937   5.577  0.5895  0.2494  0.3900
  151SAPE  H14X16723   2.442   3.896   5.520  1.6479 -1.0765 -0.3174
  151SAPE  H14Y16724   2.590   3.858   5.624 -1.2951 -0.5429  1.6132
  151SAPE  C31516725   2.627   4.006   5.473 -0.5643 -0.0061 -0.2528
  151SAPE  H15X16726   2.711   4.050   5.530  0.4918 -0.8562 -1.1225
  151SAPE  H15Y16727   2.569   4.088   5.425  0.3303  0.4842 -0.4996
  151SAPE  C31616728   2.683   3.909   5.373  0.1430 -0.0342  0.0440
  151SAPE  H16X16729   2.696   3.956   5.274 -0.9716  0.9257  0.3432
  151SAPE  H16Y16730   2.618   3.819   5.369  0.7746 -0.4908 -0.1733
  151SAPE  C31716731   2.824   3.856   5.416  0.0220 -0.2032 -0.4665
  151SAPE  H17X16732   2.804   3.814   5.517 -0.5112  1.5630  0.2072
  151SAPE  H17Y16733   2.901   3.936   5.424  0.3397 -0.6488  1.2848
  151SAPE  C31816734   2.881   3.745   5.324  0.4607  0.1175 -0.1308
  151SAPE  H18X16735   2.813   3.657   5.314 -1.6183  1.6570 -0.2120
  151SAPE  H18Y16736   2.962   3.687   5.375  0.5239  0.3051 -0.0174
  151SAPE  H18Z16737   2.913   3.783   5.224 -0.8219 -0.5828 -0.8399
  152SAPE     N16738   4.240   5.954   7.226 -0.6991  0.5352 -0.8935
  152SAPE   HN116739   4.169   6.014   7.179 -0.3769  1.3996 -0.3017
  152SAPE   HN216740   4.308   5.937   7.149 -0.4505 -0.0419 -0.5552
  152SAPE   HN316741   4.202   5.860   7.250  0.5421  0.6818  2.0003
  152SAPE   C1216742   4.320   6.023   7.344  0.1396  0.2347  0.0144
  152SAPE  H12A16743   4.369   5.950   7.412  1.0398  0.2801 -0.5710
  152SAPE  H12B16744   4.245   6.079   7.405 -1.5768 -0.6591 -1.2191
  152SAPE   C1116745   4.419   6.125   7.291 -0.9843 -0.1261  0.3851
  152SAPE  H11A16746   4.455   6.178   7.382  2.3043 -1.3098 -0.0877
  152SAPE  H11B16747   4.376   6.210   7.235  1.5514  2.8762  2.6776
  152SAPE     P16748   4.557   6.086   7.081  0.2363  0.0075  0.3794
  152SAPE   O1316749   4.629   6.210   7.072 -0.1465  0.2247 -0.1800
  152SAPE   O1416750   4.620   5.961   7.026  0.5414  0.5358  0.2970
  152SAPE   O1216751   4.527   6.059   7.227 -0.2598 -0.4997  0.5065
  152SAPE   O1116752   4.407   6.101   7.021  0.1759 -0.6565 -0.8256
  152SAPE    C116753   4.374   6.210   6.934  0.3240 -0.6654 -0.7880
  152SAPE    HA16754   4.264   6.227   6.940  0.6824  1.7172  0.0235
  152SAPE    HB16755   4.418   6.307   6.966  0.8282 -2.2572  4.1733
  152SAPE    C216756   4.406   6.172   6.787  0.0806  0.1888  0.8111
  152SAPE    HS16757   4.383   6.065   6.767 -2.6302 -0.0932  4.3195
  152SAPE   O2116758   4.550   6.197   6.766  0.0439 -0.6301 -0.0687
  152SAPE   C2116759   4.618   6.114   6.684 -0.4456 -0.2695  0.0684
  152SAPE   O2216760   4.571   6.018   6.629  0.3089  0.1837  0.1850
  152SAPE   C2216761   4.764   6.146   6.695 -0.0652 -0.8615  0.2107
  152SAPE   H2R16762   4.779   6.255   6.685 -0.9204 -0.7769 -0.2573
  152SAPE   H2S16763   4.795   6.115   6.797  2.0836  0.0464 -0.1112
  152SAPE    C316764   4.323   6.262   6.686  0.3032 -0.2887 -0.4073
  152SAPE    HX16765   4.369   6.363   6.686 -0.7826  0.2144 -0.4688
  152SAPE    HY16766   4.221   6.278   6.728  0.6023  1.2427 -0.1991
  152SAPE   O3116767   4.307   6.215   6.549  0.1155  0.4864  0.1836
  152SAPE   C3116768   4.396   6.261   6.458  0.1501  0.0762  0.3235
  152SAPE   O3216769   4.478   6.342   6.482 -0.4036  0.0536 -0.3716
  152SAPE   C3216770   4.389   6.184   6.333  0.0068 -0.2407  0.6496
  152SAPE   H2X16771   4.332   6.089   6.345  1.8703 -1.4838  0.0784
  152SAPE   H2Y16772   4.492   6.150   6.309 -0.5393 -1.5828  0.0785
  152SAPE   C2316773   4.848   6.088   6.584 -0.6918  0.1553 -0.1670
  152SAPE   H3R16774   4.839   5.978   6.586  0.6273  0.0189 -0.6442
  152SAPE   H3S16775   4.956   6.111   6.592 -0.4563 -0.5720 -1.1759
  152SAPE   C2416776   4.806   6.148   6.449  0.1804  0.0705  0.8379
  152SAPE   H4R16777   4.825   6.258   6.454 -0.8410  0.2248  1.6708
  152SAPE   H4S16778   4.698   6.125   6.438 -0.1698  2.2656 -1.3994
  152SAPE   C2516779   4.890   6.094   6.336 -0.3385  0.1475 -0.1266
  152SAPE   H5R16780   4.994   6.062   6.355  0.2552  0.9495 -1.9020
  152SAPE   C2616781   4.841   6.062   6.215  0.1109  0.3283  0.3493
  152SAPE   H6R16782   4.912   6.032   6.136  0.7642  1.4597  0.4887
  152SAPE   C2716783   4.697   6.083   6.171  0.1521 -0.2665  0.2483
  152SAPE   H7R16784   4.630   6.036   6.247  0.7722 -0.3510  0.7478
  152SAPE   H7S16785   4.680   6.008   6.090  3.3893  0.3288 -1.1093
  152SAPE   C2816786   4.662   6.220   6.122  0.4066 -0.4393 -0.2755
  152SAPE   H8R16787   4.645   6.293   6.203  0.6888  1.5775 -1.9753
  152SAPE   C2916788   4.684   6.276   6.003 -0.2442 -0.1413 -0.4236
  152SAPE   H9R16789   4.655   6.381   5.987 -1.1777 -0.3113  0.1025
  152SAPE  C21016790   4.747   6.212   5.882  0.0544 -0.3482 -0.5297
  152SAPE  H10R16791   4.732   6.102   5.884  1.4434 -0.5563 -0.5877
  152SAPE  H10S16792   4.858   6.207   5.884  0.0052 -2.0254  0.8563
  152SAPE  C21116793   4.682   6.270   5.754  0.1734 -0.4146 -0.2216
  152SAPE  H11R16794   4.583   6.227   5.731  0.2322  0.3847 -2.1009
  152SAPE  C21216795   4.742   6.341   5.662  0.1265 -0.0040 -0.2075
  152SAPE  H12R16796   4.690   6.379   5.573  0.3191  0.8472  0.0372
  152SAPE  C21316797   4.880   6.396   5.668 -0.3519  0.3583 -0.0547
  152SAPE  H13R16798   4.898   6.436   5.770  0.0155  0.5501 -0.1949
  152SAPE  H13S16799   4.896   6.479   5.596  1.6105 -0.2991 -0.4255
  152SAPE  C21416800   4.981   6.285   5.643 -0.0670  0.1280 -0.8850
  152SAPE  H14R16801   4.941   6.185   5.622 -3.9471  1.5664 -1.0179
  152SAPE  C21516802   5.114   6.308   5.645 -0.6904 -0.0403  0.0187
  152SAPE  H15R16803   5.182   6.227   5.616  0.8215  1.0005  0.5521
  152SAPE  C21616804   5.177   6.441   5.681 -0.7224 -0.1583  0.0152
  152SAPE  H16R16805   5.175   6.449   5.792 -0.5085 -3.6369  0.3981
  152SAPE  H16S16806   5.119   6.524   5.636  4.6160  3.3764 -1.1695
  152SAPE  C21716807   5.321   6.465   5.630 -0.6484  0.7269  0.1759
  152SAPE  H17R16808   5.383   6.386   5.679 -2.2684 -0.3334  0.6050
  152SAPE  H17S16809   5.355   6.561   5.673  2.2745 -0.6903  1.3607
  152SAPE  C21816810   5.329   6.465   5.476 -0.3523  0.1579  0.0790
  152SAPE  H18R16811   5.250   6.532   5.436  0.0814  0.0171 -1.0545
  152SAPE  H18S16812   5.311   6.361   5.442 -1.2905  1.0167 -2.2561
  152SAPE  C21916813   5.468   6.504   5.428 -0.0478  0.6102 -0.5551
  152SAPE  H19R16814   5.458   6.498   5.317  0.4270 -0.5349 -0.5417
  152SAPE  H19S16815   5.540   6.430   5.466 -1.2476  0.3867  1.3940
  152SAPE  C22016816   5.512   6.651   5.468 -0.2216  0.3019 -0.0633
  152SAPE  H20R16817   5.607   6.674   5.416  0.1173 -1.1229 -0.1144
  152SAPE  H20S16818   5.530   6.655   5.578  1.9915 -1.7533 -0.2715
  152SAPE  H20T16819   5.435   6.715   5.419  0.2144  1.4796  0.7355
  152SAPE   C3316820   4.331   6.259   6.212  0.0896 -0.0110  0.4798
  152SAPE   H3X16821   4.388   6.349   6.182  0.7743 -0.4390  0.4731
  152SAPE   H3Y16822   4.228   6.292   6.238 -0.3174 -0.6727 -0.2258
  152SAPE   C3416823   4.321   6.170   6.092 -0.5067  0.7327 -0.7860
  152SAPE   H4X16824   4.254   6.086   6.120 -1.9966  1.5890 -1.6377
  152SAPE   H4Y16825   4.418   6.134   6.050 -0.1166  1.4401 -0.5101
  152SAPE   C3516826   4.237   6.231   5.975  0.6721  0.3541  0.6027
  152SAPE   H5X16827   4.289   6.325   5.949 -2.2483  2.2672  1.1117
  152SAPE   H5Y16828   4.135   6.254   6.014  0.2906  2.2530 -1.3141
  152SAPE   C3616829   4.233   6.147   5.847  0.3699 -0.6892 -0.5905
  152SAPE   H6X16830   4.168   6.058   5.862  0.7154 -0.7539  0.6516
  152SAPE   H6Y16831   4.337   6.119   5.820  0.2943 -1.8337  0.2249
  152SAPE   C3716832   4.195   6.239   5.731 -0.2139  0.2542 -0.0475
  152SAPE   H7X16833   4.254   6.333   5.723 -1.9455  1.2977 -1.3429
  152SAPE   H7Y16834   4.090   6.276   5.739  0.0087  0.8874 -0.0064
  152SAPE   C3816835   4.198   6.165   5.592  0.6503 -0.1840  0.3847
  152SAPE   H8X16836   4.141   6.069   5.593  0.4226 -0.0495  0.5114
  152SAPE   H8Y16837   4.302   6.144   5.561 -0.2165 -2.5686 -1.1660
  152SAPE   C3916838   4.138   6.249   5.488  0.0904 -0.5800  0.5579
  152SAPE   H9X16839   4.184   6.349   5.473  0.8604 -1.0292 -0.2077
  152SAPE   H9Y16840   4.042   6.276   5.535 -0.0040 -0.4844  0.3099
  152SAPE  C31016841   4.107   6.181   5.357 -0.5067  0.8439 -0.6134
  152SAPE  H10X16842   4.030   6.243   5.306  1.0494  2.0665 -1.5375
  152SAPE  H10Y16843   4.063   6.080   5.374 -1.6878  1.2681 -1.0112
  152SAPE  C31116844   4.233   6.158   5.266  0.2142  0.1256 -0.5319
  152SAPE  H11X16845   4.224   6.076   5.193  1.4756 -0.9416  0.4731
  152SAPE  H11Y16846   4.319   6.151   5.337 -0.0593 -0.2264 -0.2312
  152SAPE  C31216847   4.266   6.293   5.199  0.0994  0.9710 -0.2622
  152SAPE  H12X16848   4.242   6.377   5.268 -1.0026 -0.9443  1.7840
  152SAPE  H12Y16849   4.195   6.301   5.114 -1.4188 -2.5901  0.5083
  152SAPE  C31316850   4.406   6.311   5.141 -0.1037 -1.0599  0.1150
  152SAPE  H13X16851   4.402   6.390   5.064  0.7223 -2.9490 -1.9599
  152SAPE  H13Y16852   4.425   6.212   5.094  0.3540 -1.1105  0.4012
  152SAPE  C31416853   4.519   6.342   5.244  0.5042  0.6444  0.3826
  152SAPE  H14X16854   4.510   6.254   5.311  3.0375 -0.5603 -0.7366
  152SAPE  H14Y16855   4.499   6.436   5.300 -0.0204 -0.2515  1.7686
  152SAPE  C31516856   4.654   6.366   5.176  0.2785 -0.0356  0.2468
  152SAPE  H15X16857   4.644   6.447   5.101  0.0539 -0.1502  0.1525
  152SAPE  H15Y16858   4.680   6.266   5.136 -2.8413 -1.1002  0.6353
  152SAPE  C31616859   4.762   6.403   5.280 -0.1926  0.4123  0.5425
  152SAPE  H16X16860   4.791   6.310   5.333 -2.2121 -0.0851  0.8747
  152SAPE  H16Y16861   4.722   6.462   5.365  1.5137  1.2757  0.7859
  152SAPE  C31716862   4.877   6.476   5.205 -0.3134 -0.7189  0.2339
  152SAPE  H17X16863   4.847   6.574   5.163 -0.4276 -1.4926 -1.5909
  152SAPE  H17Y16864   4.899   6.414   5.116 -1.2696  0.1086 -0.6005
  152SAPE  C31816865   5.009   6.479   5.294  0.4334  0.4655 -0.4099
  152SAPE  H18X16866   5.012   6.555   5.374 -0.1189 -0.8314  0.8868
  152SAPE  H18Y16867   5.102   6.490   5.234  1.3206 -2.1190  0.3737
  152SAPE  H18Z16868   5.007   6.377   5.338 -0.6727 -0.1266 -1.7357
  153SAPE     N16869   2.302   6.042   7.891 -0.1835  0.1251 -0.2180
  153SAPE   HN116870   2.218   6.079   7.941 -1.3883 -1.4119 -1.0345
  153SAPE   HN216871   2.307   5.940   7.909 -1.2905  0.0076 -0.5239
  153SAPE   HN316872   2.386   6.096   7.921 -0.9209  0.7227  0.8529
  153SAPE   C1216873   2.284   6.065   7.741  0.1033  0.8760  0.1581
  153SAPE  H12A16874   2.295   6.175   7.725  2.3402  0.9104  1.5969
  153SAPE  H12B16875   2.180   6.039   7.709  0.7137 -1.2449 -0.2663
  153SAPE   C1116876   2.385   5.972   7.663 -0.1499 -0.4303  0.1996
  153SAPE  H11A16877   2.487   6.010   7.686 -0.1758  0.5785 -1.2299
  153SAPE  H11B16878   2.368   5.986   7.554 -0.4563 -1.9891  0.0139
  153SAPE     P16879   2.468   5.720   7.689 -0.1470 -0.0785 -0.0090
  153SAPE   O1316880   2.587   5.768   7.764 -0.8014 -0.5932  0.1412
  153SAPE   O1416881   2.404   5.594   7.739  0.6904  0.0272  0.0492
  153SAPE   O1216882   2.361   5.835   7.702 -0.4066 -0.0401  0.3476
  153SAPE   O1116883   2.501   5.709   7.534  0.4175  0.0859 -0.5892
  153SAPE    C116884   2.627   5.662   7.488 -0.4317 -0.0472 -0.4143
  153SAPE    HA16885   2.696   5.643   7.573 -1.8739 -2.4769  0.3168
  153SAPE    HB16886   2.612   5.583   7.412  0.2383 -0.0449 -0.5542
  153SAPE    C216887   2.697   5.775   7.418 -0.1498  0.3408 -0.0429
  153SAPE    HS16888   2.713   5.857   7.491 -1.7531 -0.7468  1.6385
  153SAPE   O2116889   2.614   5.822   7.315 -0.2350 -0.8665  1.0488
  153SAPE   C2116890   2.664   5.927   7.246 -0.3942 -0.3851 -0.0892
  153SAPE   O2216891   2.763   5.991   7.279 -0.0326  0.4806  0.3392
  153SAPE   C2216892   2.567   5.956   7.132  0.7050  0.3531 -0.2338
  153SAPE   H2R16893   2.519   5.863   7.093  0.5427  0.2477  0.2150
  153SAPE   H2S16894   2.491   6.021   7.181  0.8103  0.7170 -0.5513
  153SAPE    C316895   2.840   5.727   7.369  0.3167  0.0685  0.3018
  153SAPE    HX16896   2.884   5.667   7.452 -1.4252  0.3889  1.4981
  153SAPE    HY16897   2.913   5.810   7.354  1.2206 -0.3172  2.1927
  153SAPE   O3116898   2.819   5.634   7.257  0.4404 -0.1625  0.1986
  153SAPE   C3116899   2.924   5.632   7.177  0.3203 -0.5260 -0.5924
  153SAPE   O3216900   3.029   5.690   7.193 -0.2393 -0.3136 -0.1629
  153SAPE   C3216901   2.901   5.544   7.065  0.0971  0.4116  1.0910
  153SAPE   H2X16902   2.826   5.577   6.990  0.7036 -1.0162 -0.1880
  153SAPE   H2Y16903   2.872   5.445   7.105  1.6470 -0.2385  0.6686
  153SAPE   C2316904   2.639   6.033   7.016  0.6497 -0.3459  1.1354
  153SAPE   H3R16905   2.709   5.960   6.971 -0.8239 -2.2186  1.7307
  153SAPE   H3S16906   2.697   6.121   7.052 -2.7219  2.6404 -0.1360
  153SAPE   C2416907   2.554   6.088   6.898  0.2905 -0.0975 -0.2499
  153SAPE   H4R16908   2.513   6.180   6.943 -2.0490 -0.1662 -2.0617
  153SAPE   H4S16909   2.470   6.018   6.877 -0.8278  1.4713 -1.1722
  153SAPE   C2516910   2.644   6.117   6.780  0.7079  0.0184  0.3042
  153SAPE   H5R16911   2.742   6.163   6.803 -0.3471  1.9430  1.2372
  153SAPE   C2616912   2.612   6.090   6.648  0.0769 -0.3041 -0.0974
  153SAPE   H6R16913   2.687   6.099   6.568  0.4652 -0.3570  0.2571
  153SAPE   C2716914   2.482   6.026   6.602 -0.4480 -0.0243 -0.0635
  153SAPE   H7R16915   2.441   6.091   6.522  1.9672  0.3926 -1.0660
  153SAPE   H7S16916   2.408   6.023   6.684  1.4790 -0.8292  1.7529
  153SAPE   C2816917   2.501   5.885   6.550 -0.6619  0.0959  0.6665
  153SAPE   H8R16918   2.465   5.811   6.622  1.9153 -0.2259  1.7224
  153SAPE   C2916919   2.532   5.848   6.428  0.5033  0.0508 -0.3603
  153SAPE   H9R16920   2.523   5.741   6.405  1.7121  0.0905 -1.0874
  153SAPE  C21016921   2.558   5.942   6.311 -0.3644  0.9155 -0.4167
  153SAPE  H10R16922   2.641   5.894   6.254 -1.1029 -0.5803 -0.2926
  153SAPE  H10S16923   2.600   6.040   6.342 -0.1889  1.3675 -1.9899
  153SAPE  C21116924   2.442   5.965   6.226 -0.1370  0.3611  0.3219
  153SAPE  H11R16925   2.354   5.994   6.284 -0.8098  1.3667 -1.1326
  153SAPE  C21216926   2.418   5.945   6.093  0.6230  0.7154  0.0228
  153SAPE  H12R16927   2.325   5.986   6.051 -0.5177 -2.3620 -0.7311
  153SAPE  C21316928   2.515   5.909   5.988  0.4233  0.1429  0.1840
  153SAPE  H13R16929   2.618   5.876   6.015  0.4903 -1.2300 -1.5751
  153SAPE  H13S16930   2.532   6.009   5.944  0.4204  0.2930  0.5175
  153SAPE  C21416931   2.469   5.816   5.881  0.7348 -0.1460  0.0288
  153SAPE  H14R16932   2.491   5.711   5.906  1.5165 -0.5824 -2.2633
  153SAPE  C21516933   2.393   5.838   5.775 -0.7899  0.6642  1.2409
  153SAPE  H15R16934   2.379   5.744   5.720  0.1214  1.2452 -0.0208
  153SAPE  C21616935   2.346   5.960   5.703 -0.5208 -0.6587  0.3404
  153SAPE  H16R16936   2.382   6.047   5.762  1.7900  1.2636 -3.4540
  153SAPE  H16S16937   2.235   5.961   5.695 -0.4364  0.8555 -1.2054
  153SAPE  C21716938   2.425   5.971   5.574 -0.3275 -0.5519  0.3436
  153SAPE  H17R16939   2.535   5.976   5.586 -0.4232 -0.3793  1.2472
  153SAPE  H17S16940   2.404   6.073   5.533  2.1468  0.0386  0.3982
  153SAPE  C21816941   2.398   5.863   5.467  0.8848 -0.0445 -0.9361
  153SAPE  H18R16942   2.288   5.850   5.454  0.4924  0.3391  1.5356
  153SAPE  H18S16943   2.438   5.765   5.500 -1.9834 -1.7654 -2.0931
  153SAPE  C21916944   2.457   5.899   5.334 -0.6003 -0.1101 -0.4566
  153SAPE  H19R16945   2.568   5.892   5.334 -0.6226 -0.5425 -0.9510
  153SAPE  H19S16946   2.441   6.009   5.328 -1.3008 -0.1996 -0.2246
  153SAPE  C22016947   2.397   5.823   5.215  0.0836 -0.4144  0.8368
  153SAPE  H20R16948   2.292   5.858   5.210 -0.5012 -1.8668  2.0958
  153SAPE  H20S16949   2.411   5.714   5.227 -1.2699 -0.9910 -1.9761
  153SAPE  H20T16950   2.440   5.858   5.118 -0.7032 -0.2590  0.5379
  153SAPE   C3316951   3.027   5.524   6.964 -0.1125  0.3803  0.4526
  153SAPE   H3X16952   3.092   5.447   7.011  0.3353  0.3556 -0.1851
  153SAPE   H3Y16953   3.095   5.612   6.962  2.3636 -1.4240 -0.0416
  153SAPE   C3416954   2.997   5.485   6.820  0.0975  0.5684 -0.1013
  153SAPE   H4X16955   2.931   5.563   6.775 -0.9993 -1.1954 -1.6581
  153SAPE   H4Y16956   2.945   5.388   6.810  0.7197  0.4194 -2.3466
  153SAPE   C3516957   3.116   5.470   6.728 -0.0009 -0.3144  0.3543
  153SAPE   H5X16958   3.203   5.411   6.764  1.5158  0.7189 -1.4239
  153SAPE   H5Y16959   3.160   5.572   6.720  0.8666 -0.7549 -0.6680
  153SAPE   C3616960   3.067   5.423   6.587 -0.0321  0.0113  0.1510
  153SAPE   H6X16961   3.005   5.497   6.533  2.6774 -0.0987 -3.4785
  153SAPE   H6Y16962   3.010   5.331   6.614 -0.0582  0.8465  3.4352
  153SAPE   C3716963   3.184   5.391   6.496 -0.2167  0.3183 -0.3499
  153SAPE   H7X16964   3.235   5.300   6.535  0.3347  0.7456 -0.0478
  153SAPE   H7Y16965   3.268   5.464   6.507  1.6730 -1.3738 -2.6117
  153SAPE   C3816966   3.127   5.367   6.358  0.0152  0.1160  0.8395
  153SAPE   H8X16967   3.061   5.449   6.324  1.3399  1.4201  1.2914
  153SAPE   H8Y16968   3.063   5.278   6.374 -1.2684  0.5170 -1.5774
  153SAPE   C3916969   3.228   5.339   6.251  0.1189  0.3795 -0.7293
  153SAPE   H9X16970   3.283   5.249   6.286  1.6836  1.4059 -0.4267
  153SAPE   H9Y16971   3.308   5.410   6.221  0.6649 -0.2392 -0.7538
  153SAPE  C31016972   3.155   5.311   6.119  0.2747  0.7797 -0.5595
  153SAPE  H10X16973   3.097   5.402   6.093 -3.9664 -2.2042 -2.7530
  153SAPE  H10Y16974   3.087   5.224   6.126  2.1772 -0.9232 -1.9369
  153SAPE  C31116975   3.247   5.274   6.001 -0.2264 -0.2694 -0.3264
  153SAPE  H11X16976   3.300   5.180   6.026 -0.2025  0.2500  1.7648
  153SAPE  H11Y16977   3.332   5.345   5.988  0.0453 -0.7460 -1.2631
  153SAPE  C31216978   3.166   5.280   5.876 -0.6281 -0.1426 -0.1012
  153SAPE  H12X16979   3.093   5.363   5.882  1.3907  2.1346 -3.5911
  153SAPE  H12Y16980   3.118   5.181   5.867 -0.2905 -0.9310  4.4491
  153SAPE  C31316981   3.254   5.311   5.747 -0.0396 -0.4470  0.6365
  153SAPE  H13X16982   3.339   5.240   5.745  2.5611  2.4331  1.6272
  153SAPE  H13Y16983   3.309   5.407   5.742  0.0120 -0.5324 -1.7419
  153SAPE  C31416984   3.167   5.309   5.613  0.0237 -0.0400 -0.3810
  153SAPE  H14X16985   3.232   5.309   5.523  1.1546 -1.0734  0.3996
  153SAPE  H14Y16986   3.098   5.395   5.601 -0.0287 -0.1158 -0.6316
  153SAPE  C31516987   3.100   5.171   5.598  0.4964 -0.7041  0.0316
  153SAPE  H15X16988   2.991   5.176   5.619  0.5082  0.1053 -0.0806
  153SAPE  H15Y16989   3.146   5.098   5.667  0.3709 -1.1389 -0.3362
  153SAPE  C31616990   3.109   5.119   5.456  0.6063  0.3614  0.0877
  153SAPE  H16X16991   3.038   5.035   5.449  0.6904  0.2150  0.8564
  153SAPE  H16Y16992   3.213   5.080   5.448  0.4306 -0.1249  0.2112
  153SAPE  C31716993   3.081   5.222   5.343 -0.1150  0.0047  0.0957
  153SAPE  H17X16994   3.161   5.298   5.338  1.3400 -1.2003  2.8502
  153SAPE  H17Y16995   2.985   5.271   5.371 -1.1172 -2.3275  1.0202
  153SAPE  C31816996   3.080   5.164   5.201  0.4852 -0.2660  0.0688
  153SAPE  H18X16997   3.184   5.129   5.182  1.5690  2.0328  1.3534
  153SAPE  H18Y16998   3.050   5.228   5.116 -0.4352  1.4514  1.6130
  153SAPE  H18Z16999   3.012   5.076   5.209  1.1128 -0.7273  0.4892
  154SAPE     N17000   0.356   3.902   7.611  0.2203  0.5089  0.6012
  154SAPE   HN117001   0.332   4.003   7.611  1.0214  0.7358 -1.2608
  154SAPE   HN217002   0.274   3.858   7.566  0.9416  0.4608 -0.7096
  154SAPE   HN317003   0.371   3.869   7.708 -0.6717 -0.3282  0.4634
  154SAPE   C1217004   0.478   3.883   7.528 -0.9479 -0.1516  0.6622
  154SAPE  H12A17005   0.483   3.945   7.436 -1.1833 -0.6184  0.3347
  154SAPE  H12B17006   0.474   3.778   7.493  2.9107  0.1318 -1.1195
  154SAPE   C1117007   0.604   3.914   7.610  0.5370 -0.2009 -0.0058
  154SAPE  H11A17008   0.599   4.009   7.668  0.0190 -0.7479  0.8674
  154SAPE  H11B17009   0.691   3.919   7.540 -0.6746  1.6461 -1.4730
  154SAPE     P17010   0.727   3.809   7.823 -0.5302  0.3760 -0.1558
  154SAPE   O1317011   0.663   3.857   7.945 -0.4957  1.2521 -0.1879
  154SAPE   O1417012   0.796   3.677   7.826  0.2377 -0.2255  0.3374
  154SAPE   O1217013   0.618   3.808   7.708 -0.5676 -0.4237 -0.1543
  154SAPE   O1117014   0.834   3.925   7.775 -0.1233 -0.0064  0.3743
  154SAPE    C117015   0.927   3.876   7.675  0.2243  0.6928  0.2662
  154SAPE    HA17016   1.018   3.833   7.724  2.0297  1.1968 -2.4198
  154SAPE    HB17017   0.878   3.808   7.602  0.9441  0.1160  0.3010
  154SAPE    C217018   0.997   3.984   7.586  0.7223 -0.8512 -1.0490
  154SAPE    HS17019   1.052   4.051   7.654 -1.2651 -1.2493  1.0670
  154SAPE   O2117020   0.891   4.061   7.523  0.6831  0.2240 -0.0200
  154SAPE   C2117021   0.923   4.167   7.450 -0.2445  0.6403 -0.8818
  154SAPE   O2217022   1.028   4.229   7.459 -0.0337 -0.2851  0.0886
  154SAPE   C2217023   0.812   4.206   7.359 -0.2441 -0.0398  0.1723
  154SAPE   H2R17024   0.716   4.188   7.411 -0.7538  1.2334 -0.3011
  154SAPE   H2S17025   0.811   4.316   7.348  0.1743  0.1417  1.6738
  154SAPE    C317026   1.088   3.919   7.479 -0.5629 -0.9161 -0.5556
  154SAPE    HX17027   1.179   3.869   7.519  0.8418  1.2166 -0.9247
  154SAPE    HY17028   1.135   4.004   7.425 -1.4736  1.2236  1.8333
  154SAPE   O3117029   1.012   3.840   7.387 -0.1270  0.0650  0.0465
  154SAPE   C3117030   1.096   3.791   7.289  0.0064 -0.2093 -0.0272
  154SAPE   O3217031   1.214   3.805   7.295 -0.1256  0.0733  0.4638
  154SAPE   C3217032   1.016   3.716   7.185 -0.1391  0.3602  0.4618
  154SAPE   H2X17033   0.913   3.757   7.173  0.3049  2.1645  2.2686
  154SAPE   H2Y17034   1.008   3.613   7.228 -0.5558  0.4010  0.4923
  154SAPE   C2317035   0.798   4.126   7.225  0.1803  0.0367  0.0858
  154SAPE   H3R17036   0.700   4.142   7.177  0.2236 -1.0724 -0.3996
  154SAPE   H3S17037   0.802   4.020   7.257  0.2432 -0.1398 -0.5005
  154SAPE   C2417038   0.904   4.153   7.123 -0.2340  0.1450 -0.2763
  154SAPE   H4R17039   0.895   4.069   7.051 -2.2479  0.9647 -1.0379
  154SAPE   H4S17040   0.997   4.147   7.184 -0.8178 -1.0216  0.5423
  154SAPE   C2517041   0.892   4.290   7.072  0.7836 -0.3611 -0.3813
  154SAPE   H5R17042   0.884   4.358   7.158  0.5435 -0.5072 -0.2878
  154SAPE   C2617043   0.905   4.338   6.944  0.0789 -0.2395  0.0690
  154SAPE   H6R17044   0.870   4.442   6.936 -0.3425 -0.0870  3.0424
  154SAPE   C2717045   0.944   4.264   6.821  0.9010  0.1413 -0.0015
  154SAPE   H7R17046   1.024   4.196   6.857 -0.2219  0.2749  3.0728
  154SAPE   H7S17047   0.998   4.331   6.750  0.1958  0.0963 -0.5903
  154SAPE   C2817048   0.837   4.188   6.748 -0.3104  0.4066  0.4023
  154SAPE   H8R17049   0.797   4.104   6.807  0.5362  0.4708  1.0861
  154SAPE   C2917050   0.795   4.207   6.624  0.1424 -0.3965 -0.8266
  154SAPE   H9R17051   0.722   4.133   6.589 -1.7712  0.6130  0.7975
  154SAPE  C21017052   0.846   4.309   6.529 -0.4053 -0.2683 -0.2206
  154SAPE  H10R17053   0.946   4.277   6.493 -0.7421 -0.2449 -1.2171
  154SAPE  H10S17054   0.843   4.405   6.586 -3.8181  0.1475 -0.8585
  154SAPE  C21117055   0.749   4.336   6.413 -0.2396  0.1295 -0.5102
  154SAPE  H11R17056   0.642   4.337   6.441  0.1176  0.3727  0.9317
  154SAPE  C21217057   0.773   4.343   6.282 -0.0867  0.0287 -0.7682
  154SAPE  H12R17058   0.684   4.365   6.221 -0.3655  2.8476  0.5095
  154SAPE  C21317059   0.903   4.342   6.214 -0.6040 -0.9795  1.0207
  154SAPE  H13R17060   0.945   4.240   6.196 -1.6987 -1.1273 -1.0805
  154SAPE  H13S17061   0.989   4.377   6.275  1.7010 -1.9365 -1.4664
  154SAPE  C21417062   0.891   4.416   6.083  0.4784  0.7259  0.3566
  154SAPE  H14R17063   0.889   4.525   6.093 -0.8198  0.8621 -1.1039
  154SAPE  C21517064   0.880   4.362   5.960  0.3639 -0.0232 -0.1650
  154SAPE  H15R17065   0.882   4.425   5.870 -0.7685 -0.9962 -0.8997
  154SAPE  C21617066   0.865   4.216   5.939 -0.2045 -0.0567 -0.0801
  154SAPE  H16R17067   0.828   4.167   6.032 -0.5829  0.0835 -0.1544
  154SAPE  H16S17068   0.960   4.166   5.910  0.0187  1.4519 -2.1504
  154SAPE  C21717069   0.760   4.185   5.834  0.3178  0.2551  0.3349
  154SAPE  H17R17070   0.679   4.259   5.848  0.0723 -0.0940  0.7926
  154SAPE  H17S17071   0.715   4.084   5.842  0.4729 -0.0653 -2.1829
  154SAPE  C21817072   0.800   4.196   5.684  0.1596 -0.7528 -0.2137
  154SAPE  H18R17073   0.785   4.300   5.647 -1.7641 -0.8508  0.1471
  154SAPE  H18S17074   0.722   4.138   5.630 -1.7451  0.5067  1.0484
  154SAPE  C21917075   0.937   4.140   5.657  0.4900 -0.7256  0.3267
  154SAPE  H19R17076   0.937   4.034   5.692  0.7838  0.0491  2.8656
  154SAPE  H19S17077   1.021   4.193   5.707  0.7757 -0.2142 -0.6568
  154SAPE  C22017078   0.974   4.141   5.505  0.1166  0.1507 -0.3088
  154SAPE  H20R17079   0.956   4.244   5.468  2.1412  1.6379  2.4478
  154SAPE  H20S17080   0.923   4.066   5.441  1.2727 -0.5406 -0.4511
  154SAPE  H20T17081   1.083   4.123   5.493  0.5208 -0.9315  3.6026
  154SAPE   C3317082   1.094   3.713   7.050 -0.2286 -0.5562  0.6755
  154SAPE   H3X17083   1.179   3.642   7.056  1.6392  1.6264  1.5319
  154SAPE   H3Y17084   1.134   3.812   7.019  0.1557 -1.5970 -2.6419
  154SAPE   C3417085   0.999   3.666   6.934  0.1155 -0.4542  0.9298
  154SAPE   H4X17086   0.893   3.700   6.932 -0.0462 -0.7573 -2.7216
  154SAPE   H4Y17087   0.988   3.559   6.963  0.8164 -0.3990  1.4156
  154SAPE   C3517088   1.063   3.683   6.796 -0.5723  0.3853 -0.6960
  154SAPE   H5X17089   1.030   3.592   6.741 -0.6775 -1.5448  2.3243
  154SAPE   H5Y17090   1.173   3.681   6.813 -0.6154  0.4800 -0.4051
  154SAPE   C3617091   1.056   3.821   6.722  0.1311  0.1295 -0.2760
  154SAPE   H6X17092   1.100   3.899   6.789 -0.9503 -0.8329  1.6380
  154SAPE   H6Y17093   0.951   3.847   6.697  0.5053  1.8003 -0.2291
  154SAPE   C3717094   1.122   3.807   6.584  0.2664 -0.7591 -0.2429
  154SAPE   H7X17095   1.090   3.718   6.525 -1.1773  0.7088 -1.7926
  154SAPE   H7Y17096   1.231   3.794   6.601 -0.2272 -1.0189  3.5158
  154SAPE   C3817097   1.112   3.944   6.517 -0.8874  0.8241  0.7680
  154SAPE   H8X17098   1.154   4.025   6.581  0.0610  0.1102  1.0761
  154SAPE   H8Y17099   1.003   3.955   6.499 -1.7215 -4.2814  1.2950
  154SAPE   C3917100   1.185   3.966   6.376 -0.2361  0.0829  1.2216
  154SAPE   H9X17101   1.294   3.948   6.389 -0.1507 -0.8050 -0.4759
  154SAPE   H9Y17102   1.166   4.072   6.350 -1.6193 -0.8342 -1.9716
  154SAPE  C31017103   1.147   3.875   6.260  0.1683 -0.1624 -0.1071
  154SAPE  H10X17104   1.036   3.868   6.258 -0.0908  1.5712  2.8593
  154SAPE  H10Y17105   1.183   3.770   6.270  0.2218 -0.0548  0.9821
  154SAPE  C31117106   1.203   3.926   6.126 -0.6800  0.2782 -0.1787
  154SAPE  H11X17107   1.312   3.930   6.143 -0.4950  0.0711 -1.2716
  154SAPE  H11Y17108   1.162   4.028   6.105 -1.4315  0.4530  1.8416
  154SAPE  C31217109   1.177   3.832   6.012  0.5841  0.2869  1.2921
  154SAPE  H12X17110   1.077   3.845   5.965  1.6485  1.8974 -0.6812
  154SAPE  H12Y17111   1.190   3.724   6.034 -1.6867 -0.4583 -0.5914
  154SAPE  C31317112   1.280   3.850   5.896  0.1432 -0.3736 -0.0547
  154SAPE  H13X17113   1.382   3.845   5.940  0.2015  2.5687  0.3053
  154SAPE  H13Y17114   1.283   3.956   5.863 -0.0836  0.1656  1.5626
  154SAPE  C31417115   1.273   3.758   5.775  0.5282 -0.5657  0.1277
  154SAPE  H14X17116   1.310   3.654   5.789  4.2552  0.3686 -1.7405
  154SAPE  H14Y17117   1.344   3.800   5.701 -2.7714  3.4433 -1.1644
  154SAPE  C31517118   1.137   3.763   5.700  0.0381 -0.2361  0.5205
  154SAPE  H15X17119   1.093   3.865   5.703 -1.1136 -0.7241  1.3722
  154SAPE  H15Y17120   1.062   3.705   5.760 -0.5290 -0.8630 -0.7572
  154SAPE  C31617121   1.126   3.701   5.559 -0.4438 -0.7881  0.2559
  154SAPE  H16X17122   1.016   3.693   5.545 -0.4025 -1.9944  0.4642
  154SAPE  H16Y17123   1.182   3.605   5.551 -1.5242 -1.5476  1.4207
  154SAPE  C31717124   1.170   3.792   5.444  0.5030  0.2321  0.0162
  154SAPE  H17X17125   1.279   3.812   5.443  0.6084 -0.3256 -0.0587
  154SAPE  H17Y17126   1.122   3.891   5.461  2.0151  0.8318  0.9880
  154SAPE  C31817127   1.132   3.736   5.307 -0.1320 -0.3284  1.0249
  154SAPE  H18X17128   1.176   3.634   5.298  0.6401  0.1275 -0.9268
  154SAPE  H18Y17129   1.171   3.796   5.222 -1.1258 -0.0248  0.7641
  154SAPE  H18Z17130   1.023   3.728   5.288  0.2171 -1.6525 -0.5857
  155SAPE     N17131   1.805   5.157   7.775 -0.3203 -0.3353 -0.2899
  155SAPE   HN117132   1.853   5.238   7.730 -0.3999  1.1268  2.0386
  155SAPE   HN217133   1.857   5.143   7.864  0.0975 -3.3998 -0.9255
  155SAPE   HN317134   1.822   5.074   7.716  1.0552  0.6751 -1.3927
  155SAPE   C1217135   1.666   5.192   7.802 -0.0426  0.2416  0.7805
  155SAPE  H12A17136   1.667   5.284   7.865 -2.5203  2.2726 -1.8222
  155SAPE  H12B17137   1.619   5.096   7.832 -2.4608  0.6980 -1.2396
  155SAPE   C1117138   1.597   5.242   7.672  0.0346 -0.3499  0.0959
  155SAPE  H11A17139   1.492   5.267   7.699  0.5412  0.6422  1.2604
  155SAPE  H11B17140   1.601   5.152   7.607 -0.5093  0.4475 -1.0815
  155SAPE     P17141   1.593   5.437   7.502 -0.1294  0.2659 -0.1429
  155SAPE   O1317142   1.448   5.442   7.539 -0.1209  0.1058  0.1771
  155SAPE   O1417143   1.671   5.569   7.485 -0.0642  0.5408  0.6969
  155SAPE   O1217144   1.672   5.350   7.605 -0.2703 -0.3158 -0.3349
  155SAPE   O1117145   1.594   5.349   7.371 -0.1686  0.1655 -0.0232
  155SAPE    C117146   1.705   5.274   7.316  0.1690 -0.0653 -0.4706
  155SAPE    HA17147   1.762   5.346   7.254  0.1086  0.1054 -0.3305
  155SAPE    HB17148   1.773   5.237   7.397  1.1705  0.2889 -1.1267
  155SAPE    C217149   1.658   5.154   7.231  0.0362 -0.6226  0.2002
  155SAPE    HS17150   1.751   5.108   7.190 -0.0812  0.2858 -1.1482
  155SAPE   O2117151   1.569   5.186   7.120 -1.2498  0.8821 -0.1327
  155SAPE   C2117152   1.628   5.235   7.012  0.3452  0.0038  0.2022
  155SAPE   O2217153   1.748   5.249   6.995  0.4197  0.2591 -0.4918
  155SAPE   C2217154   1.521   5.257   6.906 -0.4317 -0.4488 -0.1072
  155SAPE   H2R17155   1.447   5.175   6.923 -2.0839  0.9798 -0.1416
  155SAPE   H2S17156   1.469   5.354   6.922 -1.3748 -1.0926  0.8401
  155SAPE    C317157   1.588   5.047   7.308 -0.1447  0.4801 -0.8442
  155SAPE    HX17158   1.518   5.111   7.365  0.9143  0.1034  0.9522
  155SAPE    HY17159   1.658   5.009   7.385 -1.8208  2.6942  1.9882
  155SAPE   O3117160   1.531   4.948   7.222 -0.7982  0.1513 -0.1451
  155SAPE   C3117161   1.613   4.843   7.191 -0.6509 -1.2894  0.5610
  155SAPE   O3217162   1.727   4.836   7.232 -0.2927 -0.4605  0.1989
  155SAPE   C3217163   1.540   4.761   7.082  0.6414 -0.2581 -0.0976
  155SAPE   H2X17164   1.524   4.828   6.996 -1.2124  0.2267  0.5920
  155SAPE   H2Y17165   1.440   4.736   7.124 -0.8806  1.5060 -2.4727
  155SAPE   C2317166   1.571   5.255   6.755  0.1686  0.5213 -0.2071
  155SAPE   H3R17167   1.639   5.337   6.724 -0.3147  0.7216 -0.7558
  155SAPE   H3S17168   1.482   5.280   6.694  1.6042  1.8798 -1.8567
  155SAPE   C2417169   1.632   5.119   6.718 -0.7499 -0.5405 -0.6184
  155SAPE   H4R17170   1.718   5.092   6.782 -0.9705 -2.2952 -1.0258
  155SAPE   H4S17171   1.668   5.129   6.613 -1.9959  0.3407 -0.9832
  155SAPE   C2517172   1.525   5.010   6.733  0.1949 -0.8946  0.0720
  155SAPE   H5R17173   1.494   4.985   6.835  1.4089  0.2126  0.7419
  155SAPE   C2617174   1.467   4.943   6.632  0.4361 -0.2045 -1.0642
  155SAPE   H6R17175   1.392   4.866   6.659  0.0407  1.1150  1.9600
  155SAPE   C2717176   1.468   4.967   6.484  0.6841 -0.1325  0.3089
  155SAPE   H7R17177   1.500   5.071   6.460 -0.2240  0.6520  2.2830
  155SAPE   H7S17178   1.363   4.968   6.449  1.3418  2.7527 -1.8902
  155SAPE   C2817179   1.563   4.861   6.423  0.8676 -0.0053 -0.8759
  155SAPE   H8R17180   1.620   4.794   6.489 -0.6183  0.4583  0.9715
  155SAPE   C2917181   1.596   4.840   6.297  0.0878 -0.1879  0.4889
  155SAPE   H9R17182   1.664   4.759   6.266  1.0382  1.2329 -1.3331
  155SAPE  C21017183   1.519   4.893   6.174 -0.0140  0.0319  0.0686
  155SAPE  H10R17184   1.436   4.959   6.206 -1.0920 -1.4811  0.5504
  155SAPE  H10S17185   1.451   4.814   6.135 -1.9392  1.4841  0.3092
  155SAPE  C21117186   1.607   4.960   6.067  0.5067 -0.4156 -0.4412
  155SAPE  H11R17187   1.667   5.044   6.104 -0.6977  0.9186 -1.4119
  155SAPE  C21217188   1.601   4.928   5.934  0.5170 -0.0446 -0.2218
  155SAPE  H12R17189   1.670   4.987   5.872  1.4956  0.9251  1.7352
  155SAPE  C21317190   1.536   4.821   5.856  0.1489 -0.1399 -0.0926
  155SAPE  H13R17191   1.531   4.858   5.751 -0.5333  3.2624  0.9952
  155SAPE  H13S17192   1.436   4.795   5.896  0.8106  0.6622  2.2867
  155SAPE  C21417193   1.620   4.697   5.878  0.3896 -0.2794  0.3182
  155SAPE  H14R17194   1.624   4.661   5.982 -0.7623 -0.3988  0.3314
  155SAPE  C21517195   1.675   4.617   5.784  0.6488 -0.4330 -0.4241
  155SAPE  H15R17196   1.733   4.530   5.819  0.2734 -0.1736  0.8815
  155SAPE  C21617197   1.680   4.648   5.635  0.0708  0.1234 -0.3173
  155SAPE  H16R17198   1.787   4.656   5.608  0.4068  1.5258  1.2438
  155SAPE  H16S17199   1.653   4.755   5.618 -1.3423 -0.1786 -0.1074
  155SAPE  C21717200   1.608   4.553   5.539  0.5798  0.7017  0.4084
  155SAPE  H17R17201   1.513   4.513   5.580 -0.0157  0.5263 -1.0750
  155SAPE  H17S17202   1.667   4.461   5.521  0.4375  0.8279 -0.8326
  155SAPE  C21817203   1.588   4.599   5.393 -0.6857 -0.5184 -0.2162
  155SAPE  H18R17204   1.519   4.684   5.372  1.7613  1.9129  0.9409
  155SAPE  H18S17205   1.536   4.512   5.347 -0.2256 -0.5952 -0.5937
  155SAPE  C21917206   1.718   4.625   5.324  0.3098  0.7912  0.1374
  155SAPE  H19R17207   1.803   4.558   5.352  2.3092  2.3579 -1.7884
  155SAPE  H19S17208   1.758   4.727   5.341  0.9220  0.3419  1.4786
  155SAPE  C22017209   1.696   4.620   5.165 -0.0473  0.4918  0.2621
  155SAPE  H20R17210   1.587   4.633   5.147 -0.9020 -3.3864  1.6876
  155SAPE  H20S17211   1.738   4.526   5.124  2.3751  0.9211  1.5334
  155SAPE  H20T17212   1.739   4.703   5.105 -3.4614  1.2215 -1.4352
  155SAPE   C3317213   1.608   4.628   7.040 -0.2178 -0.3447 -0.4423
  155SAPE   H3X17214   1.570   4.544   7.102  1.3726 -1.4155 -0.8682
  155SAPE   H3Y17215   1.718   4.644   7.048 -0.5043  0.7439  3.4235
  155SAPE   C3417216   1.574   4.598   6.898 -0.4130 -0.2288 -0.8427
  155SAPE   H4X17217   1.531   4.689   6.852 -0.4184  0.6106  0.7585
  155SAPE   H4Y17218   1.491   4.525   6.906  0.3450 -1.0692 -0.3539
  155SAPE   C3517219   1.687   4.545   6.812  0.1656 -0.7401  0.4208
  155SAPE   H5X17220   1.750   4.464   6.854  0.8243 -0.8133 -0.6690
  155SAPE   H5Y17221   1.756   4.629   6.785 -2.3610  1.5519  0.6969
  155SAPE   C3617222   1.645   4.502   6.665  0.2107  0.1217  0.0647
  155SAPE   H6X17223   1.590   4.585   6.617  0.6899  0.8846  0.8174
  155SAPE   H6Y17224   1.574   4.417   6.658 -0.6654  0.9127 -0.9423
  155SAPE   C3717225   1.759   4.449   6.576 -0.2649  0.4055 -0.4064
  155SAPE   H7X17226   1.732   4.352   6.528 -1.6547  0.8970 -0.6629
  155SAPE   H7Y17227   1.844   4.419   6.642 -1.5984 -0.6279  0.9353
  155SAPE   C3817228   1.797   4.545   6.467 -0.0723 -0.3065 -0.0754
  155SAPE   H8X17229   1.853   4.632   6.508 -0.2683 -0.5740  0.7798
  155SAPE   H8Y17230   1.704   4.580   6.416 -1.5885 -1.1553  1.9371
  155SAPE   C3917231   1.892   4.481   6.375 -0.0306 -0.3213 -0.4034
  155SAPE   H9X17232   1.867   4.380   6.337  0.8371  0.4280 -3.2070
  155SAPE   H9Y17233   1.979   4.455   6.440  0.6293 -2.3193 -1.9924
  155SAPE  C31017234   1.936   4.565   6.257 -0.1724 -0.0279 -0.6286
  155SAPE  H10X17235   1.992   4.657   6.286  1.6566 -1.2999  0.0785
  155SAPE  H10Y17236   1.843   4.602   6.209  0.1996  2.0647  0.1628
  155SAPE  C31117237   2.010   4.476   6.157 -0.1634  0.2033  0.5671
  155SAPE  H11X17238   1.948   4.389   6.125 -2.2275  1.8147 -0.0543
  155SAPE  H11Y17239   2.097   4.427   6.204 -2.8022 -2.0828  3.5162
  155SAPE  C31217240   2.044   4.553   6.023  0.1340  0.5394  0.0165
  155SAPE  H12X17241   2.117   4.635   6.039 -1.1851  2.9224 -4.6896
  155SAPE  H12Y17242   1.945   4.598   6.003  0.3146  1.6715  1.4997
  155SAPE  C31317243   2.093   4.462   5.911  0.0132 -0.1687  0.1269
  155SAPE  H13X17244   2.030   4.370   5.915 -0.6917  0.3366  1.4586
  155SAPE  H13Y17245   2.201   4.447   5.930  0.7227  2.2712 -1.5289
  155SAPE  C31417246   2.075   4.525   5.767 -0.1972 -0.2412 -0.2209
  155SAPE  H14X17247   2.157   4.599   5.753 -0.0024 -0.4822 -0.3424
  155SAPE  H14Y17248   1.977   4.578   5.767 -0.1578 -0.1412  1.0208
  155SAPE  C31517249   2.091   4.421   5.652 -0.0359  0.6409 -0.2103
  155SAPE  H15X17250   2.016   4.342   5.675  0.3321  1.2367  3.7789
  155SAPE  H15Y17251   2.197   4.391   5.669 -0.8868 -1.2068  2.5028
  155SAPE  C31617252   2.070   4.473   5.510  0.2646 -0.0379  0.6865
  155SAPE  H16X17253   2.137   4.560   5.497  0.2739 -0.2589 -1.0490
  155SAPE  H16Y17254   1.967   4.514   5.511  0.4802  0.5158  0.4067
  155SAPE  C31717255   2.094   4.364   5.402 -0.7769  0.1621  0.4095
  155SAPE  H17X17256   2.029   4.275   5.416  1.2429 -1.0514  2.9531
  155SAPE  H17Y17257   2.198   4.326   5.412  0.6209  2.6790 -2.7507
  155SAPE  C31817258   2.071   4.407   5.258 -0.7717 -0.8916  0.7035
  155SAPE  H18X17259   2.151   4.378   5.187 -0.2358 -1.3778  1.4972
  155SAPE  H18Y17260   2.083   4.518   5.251  2.0725 -1.1109  1.1837
  155SAPE  H18Z17261   1.967   4.390   5.223  0.0099 -2.2672 -1.0767
  156SAPE     N17262   5.595   6.267   7.384  0.6891 -0.1139  0.0449
  156SAPE   HN117263   5.566   6.218   7.297 -0.8018  0.2891  0.2872
  156SAPE   HN217264   5.578   6.370   7.381 -2.9469 -0.5512  1.1550
  156SAPE   HN317265   5.694   6.241   7.400  0.3883 -1.6931 -0.4655
  156SAPE   C1217266   5.507   6.201   7.484 -0.6436 -0.1899 -0.2640
  156SAPE  H12A17267   5.404   6.240   7.477  0.2021  1.9337 -1.7184
  156SAPE  H12B17268   5.552   6.230   7.582  0.0338  0.5666 -0.7881
  156SAPE   C1117269   5.520   6.048   7.482  0.9324  0.0343  0.1128
  156SAPE  H11A17270   5.448   6.005   7.556  1.1346  0.7889  0.7572
  156SAPE  H11B17271   5.622   6.020   7.514  0.2515 -1.3120  1.2455
  156SAPE     P17272   5.381   5.910   7.297 -0.4434 -0.9558  0.3019
  156SAPE   O1317273   5.338   5.825   7.407  0.1422 -0.2632  0.4038
  156SAPE   O1417274   5.283   6.006   7.248 -0.0806  0.1057  0.3917
  156SAPE   O1217275   5.504   5.995   7.354  0.9055 -0.0478  0.0734
  156SAPE   O1117276   5.431   5.834   7.172 -1.6832  0.1397  0.4078
  156SAPE    C117277   5.536   5.877   7.087  0.8083 -0.2167 -0.2000
  156SAPE    HA17278   5.494   5.958   7.025 -0.5442 -0.9263 -0.2506
  156SAPE    HB17279   5.617   5.923   7.147  0.3281 -0.6618  0.8215
  156SAPE    C217280   5.585   5.758   6.992  0.4672  0.8519 -0.2267
  156SAPE    HS17281   5.636   5.811   6.908  1.9535  2.0844  1.3847
  156SAPE   O2117282   5.469   5.684   6.937 -0.1495 -0.3833 -0.0921
  156SAPE   C2117283   5.387   5.753   6.858 -0.3552 -0.0009 -0.4914
  156SAPE   O2217284   5.407   5.863   6.814 -0.1292 -0.0532 -0.2023
  156SAPE   C2217285   5.270   5.665   6.828  0.1156 -0.0241  0.0573
  156SAPE   H2R17286   5.298   5.562   6.799  0.1388  0.0899 -0.3212
  156SAPE   H2S17287   5.226   5.663   6.931 -2.0326  1.3658 -0.7701
  156SAPE    C317288   5.670   5.645   7.057  0.3393 -0.0340  0.0147
  156SAPE    HX17289   5.605   5.600   7.134 -2.0211  1.6313 -0.8875
  156SAPE    HY17290   5.754   5.703   7.101 -0.0201 -0.3803  1.1969
  156SAPE   O3117291   5.704   5.538   6.970  0.4582  0.2608 -0.0508
  156SAPE   C3117292   5.808   5.559   6.892  0.1993  0.1160  0.0026
  156SAPE   O3217293   5.865   5.667   6.887 -0.1018  0.3050 -0.0176
  156SAPE   C3217294   5.849   5.433   6.820  0.7806  0.3732  0.3899
  156SAPE   H2X17295   5.805   5.340   6.863 -1.4533  0.3142 -1.7368
  156SAPE   H2Y17296   5.959   5.422   6.828  0.8599 -0.7215 -1.4929
  156SAPE   C2317297   5.150   5.723   6.750 -0.7802  0.1809  0.8613
  156SAPE   H3R17298   5.126   5.823   6.792 -0.1293  1.2195 -1.1013
  156SAPE   H3S17299   5.063   5.655   6.765  1.3332 -2.5715  1.3525
  156SAPE   C2417300   5.175   5.716   6.598  0.7686 -0.1936  0.3957
  156SAPE   H4R17301   5.088   5.654   6.567  0.1877 -0.3272  2.2036
  156SAPE   H4S17302   5.276   5.671   6.585  0.4704 -1.0050  0.8365
  156SAPE   C2517303   5.175   5.856   6.541 -0.3602 -0.2354  0.0183
  156SAPE   H5R17304   5.090   5.917   6.572 -0.4704 -0.7096  0.6629
  156SAPE   C2617305   5.267   5.917   6.458  0.3325  0.5085  0.3523
  156SAPE   H6R17306   5.259   6.024   6.436  0.5850  0.3976 -0.3216
  156SAPE   C2717307   5.383   5.850   6.396 -0.0585  0.3145 -0.0063
  156SAPE   H7R17308   5.418   5.914   6.312 -0.0728 -0.4582 -0.6182
  156SAPE   H7S17309   5.348   5.756   6.349  2.0165  0.0397 -1.1235
  156SAPE   C2817310   5.485   5.816   6.501 -1.2163 -0.7474 -0.5716
  156SAPE   H8R17311   5.459   5.848   6.603  0.2220  0.5333 -0.5750
  156SAPE   C2917312   5.599   5.752   6.483 -0.4732  0.2524 -0.1515
  156SAPE   H9R17313   5.656   5.720   6.572  2.0208 -3.1642 -2.6903
  156SAPE  C21017314   5.652   5.696   6.352  0.4549  0.1143  0.9009
  156SAPE  H10R17315   5.642   5.770   6.269  0.0039 -0.3205  0.5662
  156SAPE  H10S17316   5.579   5.618   6.323 -0.4784  0.2749  2.6417
  156SAPE  C21117317   5.788   5.633   6.331 -0.1695 -0.2459  0.0142
  156SAPE  H11R17318   5.844   5.636   6.426  0.3903  1.3503 -0.3404
  156SAPE  C21217319   5.833   5.560   6.228 -0.4210 -0.0032 -0.1697
  156SAPE  H12R17320   5.936   5.525   6.242 -0.6494 -0.0000  1.8515
  156SAPE  C21317321   5.763   5.535   6.092 -0.5000 -0.2178  0.2426
  156SAPE  H13R17322   5.659   5.566   6.115 -0.3770 -0.7023  1.5391
  156SAPE  H13S17323   5.757   5.428   6.062 -1.7039 -0.5194  1.4873
  156SAPE  C21417324   5.828   5.630   5.991  0.6927 -0.1383  0.3303
  156SAPE  H14R17325   5.851   5.730   6.030  1.3084 -0.8387  1.8535
  156SAPE  C21517326   5.859   5.604   5.861 -0.5047  0.5950  0.4293
  156SAPE  H15R17327   5.905   5.681   5.796 -0.4245 -0.4488 -0.7892
  156SAPE  C21617328   5.836   5.474   5.793  0.2238  0.5958 -0.2034
  156SAPE  H16R17329   5.807   5.393   5.863 -2.7348 -0.6044 -2.5969
  156SAPE  H16S17330   5.930   5.435   5.747  0.1126  0.2346 -0.1266
  156SAPE  C21717331   5.731   5.487   5.682  0.5984 -0.7011  0.4415
  156SAPE  H17R17332   5.636   5.532   5.717  0.3851 -0.3278 -0.5770
  156SAPE  H17S17333   5.688   5.392   5.643 -2.4790  1.0395 -0.8043
  156SAPE  C21817334   5.785   5.565   5.554  0.3249 -0.5607 -0.1186
  156SAPE  H18R17335   5.856   5.496   5.503 -0.7039 -0.0524 -2.3446
  156SAPE  H18S17336   5.834   5.665   5.561  1.0693 -0.6843 -2.6740
  156SAPE  C21917337   5.676   5.577   5.447 -0.1609  0.5247 -0.3362
  156SAPE  H19R17338   5.636   5.681   5.443 -4.0874 -0.7825  0.7590
  156SAPE  H19S17339   5.586   5.517   5.472  0.6890 -0.1745  1.1601
  156SAPE  C22017340   5.733   5.539   5.303  0.7321  0.6221  0.3720
  156SAPE  H20R17341   5.657   5.582   5.235 -1.1643 -1.5751  0.9809
  156SAPE  H20S17342   5.726   5.430   5.282 -0.7270  0.8676 -0.5275
  156SAPE  H20T17343   5.835   5.582   5.290  1.3146 -0.6361  0.6496
  156SAPE   C3317344   5.800   5.458   6.668  0.7062  0.1615 -0.7600
  156SAPE   H3X17345   5.866   5.542   6.636  1.0815 -0.0623 -0.5774
  156SAPE   H3Y17346   5.694   5.493   6.669  0.5639 -0.2767 -0.2918
  156SAPE   C3417347   5.818   5.349   6.563 -0.1781  0.4471 -0.1882
  156SAPE   H4X17348   5.921   5.305   6.569 -1.5376 -2.8848  1.6117
  156SAPE   H4Y17349   5.792   5.385   6.462 -0.1714 -0.7696 -0.6482
  156SAPE   C3517350   5.724   5.233   6.587 -0.7182 -0.3473  0.7219
  156SAPE   H5X17351   5.622   5.278   6.592  0.0963  1.4389  2.0223
  156SAPE   H5Y17352   5.740   5.190   6.688 -0.5295 -1.9973  0.0198
  156SAPE   C3617353   5.748   5.119   6.486  0.1942  0.3551  0.4983
  156SAPE   H6X17354   5.697   5.025   6.517 -0.0280  0.2696 -0.1163
  156SAPE   H6Y17355   5.855   5.090   6.476  0.0849  0.4490 -1.3242
  156SAPE   C3717356   5.677   5.129   6.344 -0.1381  0.4686 -0.4026
  156SAPE   H7X17357   5.741   5.202   6.289 -0.5002  1.4162  0.4033
  156SAPE   H7Y17358   5.576   5.173   6.359 -0.0643  0.6867 -0.5415
  156SAPE   C3817359   5.672   4.995   6.273  0.5174 -0.5679  0.9369
  156SAPE   H8X17360   5.614   4.919   6.330  1.4652 -1.4835  0.7061
  156SAPE   H8Y17361   5.772   4.947   6.261 -0.2778 -2.2118  0.4831
  156SAPE   C3917362   5.606   5.005   6.132 -0.2642  0.0737 -0.3456
  156SAPE   H9X17363   5.661   5.081   6.072 -2.2632 -0.7114 -3.4160
  156SAPE   H9Y17364   5.500   5.038   6.142  0.0638  1.1591 -0.3538
  156SAPE  C31017365   5.627   4.866   6.055 -0.2506 -0.1715 -1.0052
  156SAPE  H10X17366   5.547   4.794   6.082 -1.4925  1.1980 -0.9633
  156SAPE  H10Y17367   5.725   4.819   6.079 -0.3474 -0.6338 -1.4724
  156SAPE  C31117368   5.608   4.883   5.902 -0.4485  0.4661 -0.0227
  156SAPE  H11X17369   5.635   4.790   5.847  0.8236  0.5445  0.4461
  156SAPE  H11Y17370   5.693   4.952   5.882  0.2026 -0.5456 -0.8082
  156SAPE  C31217371   5.466   4.939   5.866 -0.4908  0.0236 -0.5282
  156SAPE  H12X17372   5.458   5.047   5.891 -2.7909  0.2597 -1.9609
  156SAPE  H12Y17373   5.386   4.891   5.925 -1.4010 -0.4947 -2.1185
  156SAPE  C31317374   5.427   4.917   5.716  0.4819 -0.1521 -0.1716
  156SAPE  H13X17375   5.325   4.961   5.709  1.1599  1.4451 -0.3476
  156SAPE  H13Y17376   5.412   4.808   5.700 -0.1169 -0.6756  3.1808
  156SAPE  C31417377   5.524   4.970   5.606  0.1352 -0.3963 -0.0500
  156SAPE  H14X17378   5.627   4.933   5.626  0.1099 -0.3089  0.2460
  156SAPE  H14Y17379   5.521   5.080   5.623 -0.8699 -0.6889  1.8877
  156SAPE  C31517380   5.487   4.923   5.465 -0.1242 -0.8488 -0.0332
  156SAPE  H15X17381   5.379   4.903   5.447 -0.8840  0.6880  2.3483
  156SAPE  H15Y17382   5.526   4.819   5.458 -0.2143 -0.9686  1.0366
  156SAPE  C31617383   5.536   5.017   5.350  0.1877 -0.7050 -0.7274
  156SAPE  H16X17384   5.647   5.027   5.351 -0.0050  2.9797  0.4227
  156SAPE  H16Y17385   5.498   5.119   5.374  1.0072 -0.6349  0.3818
  156SAPE  C31717386   5.512   4.968   5.210 -0.7075 -0.1753  0.8067
  156SAPE  H17X17387   5.558   4.867   5.199  1.3476  0.9776 -2.9309
  156SAPE  H17Y17388   5.575   5.033   5.146 -0.1415  1.2770  2.7656
  156SAPE  C31817389   5.367   4.965   5.167  0.2713  0.7122 -0.3940
  156SAPE  H18X17390   5.310   5.048   5.214 -2.0295  0.5311 -2.6056
  156SAPE  H18Y17391   5.321   4.874   5.211 -0.0001  1.4280  0.8363
  156SAPE  H18Z17392   5.335   4.955   5.061 -0.2757 -1.5957 -0.0610
  157SAPE     N17393   3.839   4.376   7.523 -0.2499  0.2001  0.5590
  157SAPE   HN117394   3.893   4.392   7.610  1.5134 -0.8218 -0.2732
  157SAPE   HN217395   3.750   4.428   7.513 -1.2352 -1.6622 -1.2052
  157SAPE   HN317396   3.814   4.275   7.528 -1.9483  0.6263  1.3798
  157SAPE   C1217397   3.910   4.414   7.397  0.5955 -0.7027 -0.7925
  157SAPE  H12A17398   4.018   4.411   7.420  0.1723  0.1083  1.5947
  157SAPE  H12B17399   3.892   4.523   7.379 -0.8901 -0.9380 -0.8383
  157SAPE   C1117400   3.874   4.332   7.273  0.2182 -0.6756  0.2407
  157SAPE  H11A17401   3.936   4.364   7.187  0.1086  1.6887  0.9633
  157SAPE  H11B17402   3.769   4.357   7.249  0.9646  3.4919  0.4480
  157SAPE     P17403   4.029   4.128   7.262  0.4926 -0.2799  0.3904
  157SAPE   O1317404   4.130   4.216   7.310 -0.6652 -0.0645 -0.0938
  157SAPE   O1417405   4.038   3.990   7.323 -0.3120 -0.1787 -0.1352
  157SAPE   O1217406   3.891   4.193   7.299 -0.0473 -0.3368  0.3580
  157SAPE   O1117407   4.031   4.120   7.108 -0.1797 -0.1252  0.0246
  157SAPE    C117408   3.967   4.020   7.034  0.7369  0.0629  0.1033
  157SAPE    HA17409   4.043   3.939   7.023  2.2126  1.3262  0.6916
  157SAPE    HB17410   3.872   3.985   7.081 -0.8884  0.6722 -2.4855
  157SAPE    C217411   3.910   4.072   6.895 -0.6812  0.2896 -0.3613
  157SAPE    HS17412   3.824   4.004   6.872 -0.4765 -0.0363 -0.1682
  157SAPE   O2117413   4.006   4.052   6.790  0.2861 -0.0226 -0.0096
  157SAPE   C2117414   4.036   3.932   6.758 -0.8049 -0.8384 -0.2667
  157SAPE   O2217415   3.983   3.829   6.793  0.0750  0.7550 -0.7773
  157SAPE   C2217416   4.143   3.947   6.644  0.1006  0.3880 -0.3840
  157SAPE   H2R17417   4.116   4.036   6.583  0.5464  0.9281  0.1897
  157SAPE   H2S17418   4.240   3.960   6.696  0.8375 -2.7627 -0.7888
  157SAPE    C317419   3.844   4.216   6.892 -0.9952  0.5225 -0.1570
  157SAPE    HX17420   3.925   4.274   6.942  1.3069 -2.4272 -0.1259
  157SAPE    HY17421   3.755   4.220   6.958 -1.2432 -1.0190 -0.3521
  157SAPE   O3117422   3.821   4.254   6.751 -0.0220  0.3810  0.5032
  157SAPE   C3117423   3.719   4.194   6.704 -0.7805 -0.1468 -0.4666
  157SAPE   O3217424   3.646   4.115   6.758  0.4172  0.2506  0.3076
  157SAPE   C3217425   3.697   4.261   6.562  0.2940  0.4325 -0.2526
  157SAPE   H2X17426   3.595   4.224   6.538 -0.3661  1.6127  0.6126
  157SAPE   H2Y17427   3.762   4.205   6.492 -0.4606  1.3445 -1.7202
  157SAPE   C2317428   4.146   3.821   6.552 -0.0663 -0.4232 -0.6393
  157SAPE   H3R17429   4.045   3.797   6.514 -1.2072  0.6373  1.5445
  157SAPE   H3S17430   4.170   3.741   6.626 -1.1608 -0.2778 -0.1076
  157SAPE   C2417431   4.249   3.819   6.431  0.3070 -0.0703 -0.2143
  157SAPE   H4R17432   4.245   3.723   6.375  1.2723 -1.3263  1.7534
  157SAPE   H4S17433   4.356   3.823   6.462  0.2202  0.3156  0.0390
  157SAPE   C2517434   4.222   3.934   6.336  0.0181  0.2385  0.0243
  157SAPE   H5R17435   4.205   4.031   6.384  2.5989  0.6130  0.3166
  157SAPE   C2617436   4.184   3.914   6.203 -0.9678 -0.6973 -0.8507
  157SAPE   H6R17437   4.148   3.998   6.141 -0.8554  1.0201  1.2710
  157SAPE   C2717438   4.192   3.787   6.124 -0.6103 -0.3362  0.0922
  157SAPE   H7R17439   4.110   3.804   6.051  1.5272  3.5671 -1.7380
  157SAPE   H7S17440   4.168   3.699   6.187 -2.5388 -0.0309 -0.1547
  157SAPE   C2817441   4.326   3.785   6.059  0.1519  0.3727  0.1450
  157SAPE   H8R17442   4.406   3.748   6.125  0.8431  2.6478  0.6582
  157SAPE   C2917443   4.347   3.828   5.931  0.4275 -0.7452 -0.1740
  157SAPE   H9R17444   4.438   3.788   5.885 -0.3163 -2.6321 -0.1069
  157SAPE  C21017445   4.251   3.886   5.828  0.4805 -0.2095 -0.0435
  157SAPE  H10R17446   4.216   3.985   5.866  2.1162  0.4166 -0.0979
  157SAPE  H10S17447   4.163   3.822   5.806  0.5490  0.2914 -1.9228
  157SAPE  C21117448   4.320   3.922   5.702  0.2779 -0.1830 -0.0278
  157SAPE  H11R17449   4.356   4.026   5.689  1.7839 -0.6263  0.3956
  157SAPE  C21217450   4.351   3.851   5.592 -0.3487 -0.0035  0.0489
  157SAPE  H12R17451   4.419   3.902   5.523 -0.8781  1.4228  0.5317
  157SAPE  C21317452   4.336   3.700   5.583 -0.2378 -0.1162  0.0259
  157SAPE  H13R17453   4.248   3.653   5.632 -1.2071  1.3592 -0.2645
  157SAPE  H13S17454   4.422   3.650   5.633 -0.5923 -3.5618 -2.3982
  157SAPE  C21417455   4.343   3.631   5.443 -0.3410  0.0706 -0.0410
  157SAPE  H14R17456   4.251   3.601   5.390 -0.2048  0.9147 -0.7929
  157SAPE  C21517457   4.462   3.601   5.387 -0.3901 -0.3783  0.3882
  157SAPE  H15R17458   4.468   3.569   5.282  2.0316  0.6211  0.1579
  157SAPE  C21617459   4.598   3.636   5.443  0.5713 -0.1685 -0.3718
  157SAPE  H16R17460   4.646   3.552   5.498 -1.4895 -0.9075  0.4217
  157SAPE  H16S17461   4.579   3.722   5.511 -0.1128  1.4617 -2.5160
  157SAPE  C21717462   4.699   3.700   5.345  0.2552  0.5985 -0.4599
  157SAPE  H17R17463   4.796   3.718   5.397  0.6193 -1.8260 -0.1606
  157SAPE  H17S17464   4.648   3.791   5.309  1.7363  1.0504 -1.5457
  157SAPE  C21817465   4.719   3.623   5.209  0.4786  0.7508  0.1511
  157SAPE  H18R17466   4.620   3.603   5.163  0.6397 -0.4531  0.3015
  157SAPE  H18S17467   4.771   3.528   5.236 -2.5697 -1.1117 -0.1202
  157SAPE  C21917468   4.803   3.693   5.109 -0.5810 -0.1692  0.3943
  157SAPE  H19R17469   4.911   3.675   5.127 -0.6623  0.1659  1.2570
  157SAPE  H19S17470   4.785   3.802   5.104 -0.4347 -0.2203 -2.7313
  157SAPE  C22017471   4.783   3.657   4.958  0.1328  0.5493 -0.3611
  157SAPE  H20R17472   4.679   3.672   4.922  0.2990 -1.3085 -1.7438
  157SAPE  H20S17473   4.812   3.553   4.933  1.0583  0.9491 -0.9860
  157SAPE  H20T17474   4.852   3.729   4.910 -0.3055  0.8642 -0.5330
  157SAPE   C3317475   3.707   4.416   6.552  0.4116  0.6520 -0.1744
  157SAPE   H3X17476   3.815   4.439   6.569  1.0492 -1.5242 -0.8644
  157SAPE   H3Y17477   3.662   4.465   6.641 -1.1706 -0.4162 -0.3485
  157SAPE   C3417478   3.650   4.484   6.425  0.1513 -0.1499 -0.6806
  157SAPE   H4X17479   3.608   4.584   6.452 -1.6907 -1.4990  1.9063
  157SAPE   H4Y17480   3.560   4.426   6.394  0.7970 -2.2203  1.0654
  157SAPE   C3517481   3.745   4.512   6.316  0.7372  0.1651 -0.6535
  157SAPE   H5X17482   3.805   4.419   6.305 -0.2031 -0.3162 -1.9308
  157SAPE   H5Y17483   3.819   4.595   6.321 -0.0326  0.8030  0.4139
  157SAPE   C3617484   3.658   4.546   6.193  0.4351 -0.3286  0.3493
  157SAPE   H6X17485   3.605   4.642   6.211 -2.2102 -1.8958  1.5488
  157SAPE   H6Y17486   3.569   4.480   6.190 -1.7195  2.3793  0.9645
  157SAPE   C3717487   3.714   4.547   6.050  0.0132  0.2089  0.1439
  157SAPE   H7X17488   3.779   4.637   6.043 -0.4852  0.5118 -0.7967
  157SAPE   H7Y17489   3.634   4.553   5.973  1.1615 -3.0829 -1.5112
  157SAPE   C3817490   3.802   4.421   6.018  0.4130  0.8285 -0.5907
  157SAPE   H8X17491   3.736   4.333   6.034  1.5796  0.4026  2.8338
  157SAPE   H8Y17492   3.880   4.429   6.097 -0.1597  2.6041 -0.1573
  157SAPE   C3917493   3.847   4.407   5.871  0.3808  0.4752 -0.2802
  157SAPE   H9X17494   3.915   4.494   5.856 -0.7136  1.4961  0.4374
  157SAPE   H9Y17495   3.760   4.413   5.802 -0.2682 -1.2641  0.3472
  157SAPE  C31017496   3.928   4.283   5.844 -0.8690  0.3911 -0.0504
  157SAPE  H10X17497   3.890   4.183   5.873  1.8689 -0.7571 -0.0438
  157SAPE  H10Y17498   4.024   4.300   5.898  1.4496  0.9140 -3.9642
  157SAPE  C31117499   3.967   4.283   5.696 -0.7875 -0.1394  0.1097
  157SAPE  H11X17500   3.988   4.384   5.656 -1.1476 -0.1313 -0.0624
  157SAPE  H11Y17501   3.883   4.243   5.635 -0.8262 -0.4161  0.3419
  157SAPE  C31217502   4.085   4.196   5.660 -0.0810 -0.1273 -0.2772
  157SAPE  H12X17503   4.077   4.088   5.685 -2.0353  0.1187  0.3565
  157SAPE  H12Y17504   4.180   4.220   5.712 -0.1690  0.0209 -0.1825
  157SAPE  C31317505   4.122   4.192   5.511 -0.2122  0.8455  0.1281
  157SAPE  H13X17506   4.226   4.159   5.491 -0.5373  1.0800 -2.3035
  157SAPE  H13Y17507   4.118   4.296   5.471  1.3858  0.9019  0.0390
  157SAPE  C31417508   4.027   4.098   5.428  0.2395  0.3890 -0.5382
  157SAPE  H14X17509   3.923   4.136   5.415  0.5615  1.7403  0.5407
  157SAPE  H14Y17510   4.016   4.000   5.479  0.9181  0.4720 -0.2249
  157SAPE  C31517511   4.090   4.058   5.291 -0.8747  0.0459  0.5270
  157SAPE  H15X17512   4.190   4.016   5.313 -0.8549 -1.3569 -1.8611
  157SAPE  H15Y17513   4.103   4.148   5.226  0.0743 -0.3251  0.1761
  157SAPE  C31617514   4.009   3.958   5.207 -0.4967 -0.5372 -0.1457
  157SAPE  H16X17515   4.071   3.950   5.115 -0.7187 -0.4508 -0.3033
  157SAPE  H16Y17516   3.915   4.003   5.170 -1.1872 -1.3496  0.6034
  157SAPE  C31717517   4.008   3.818   5.266 -0.1123 -0.2674 -0.0940
  157SAPE  H17X17518   3.964   3.827   5.368  0.2104  1.1194 -0.0549
  157SAPE  H17Y17519   4.114   3.794   5.287 -0.4088  1.4311  4.3334
  157SAPE  C31817520   3.923   3.719   5.182 -0.2964 -0.2966 -0.3581
  157SAPE  H18X17521   3.927   3.613   5.215 -1.8780 -0.6832 -1.2997
  157SAPE  H18Y17522   3.959   3.722   5.077  0.3261 -1.5534 -0.1942
  157SAPE  H18Z17523   3.814   3.743   5.186  0.1076  2.5710 -3.0487
  158SAPE     N17524   5.638   2.436   7.799  0.4004  0.4008 -0.0465
  158SAPE   HN117525   5.579   2.353   7.776  0.8257 -0.5211  1.9520
  158SAPE   HN217526   5.726   2.414   7.749  0.8699 -0.2839  1.0332
  158SAPE   HN317527   5.650   2.436   7.903  1.8168  1.0342 -0.1902
  158SAPE   C1217528   5.596   2.575   7.753 -0.4495 -0.1675  0.0066
  158SAPE  H12A17529   5.682   2.633   7.792  0.3878  1.0330 -3.3598
  158SAPE  H12B17530   5.502   2.592   7.809  1.3764 -0.5114  3.4763
  158SAPE   C1117531   5.580   2.587   7.600  0.4350  0.6661 -0.1492
  158SAPE  H11A17532   5.679   2.585   7.549  1.0073 -0.9957  0.9593
  158SAPE  H11B17533   5.535   2.685   7.574  0.4115  1.1773  1.6528
  158SAPE     P17534   5.353   2.482   7.513  0.3316  0.5309 -0.0021
  158SAPE   O1317535   5.317   2.340   7.489  0.8224 -0.2940  0.1971
  158SAPE   O1417536   5.278   2.553   7.619 -0.0034 -0.3471  0.0014
  158SAPE   O1217537   5.503   2.479   7.548 -0.5872 -0.5294  0.1680
  158SAPE   O1117538   5.344   2.564   7.374 -0.4738  0.4655 -0.0641
  158SAPE    C117539   5.386   2.495   7.248  0.1733  0.1628 -0.5753
  158SAPE    HA17540   5.484   2.447   7.265 -0.4043 -0.8113  0.1487
  158SAPE    HB17541   5.310   2.414   7.237 -1.3403  1.6589 -1.6735
  158SAPE    C217542   5.390   2.591   7.121 -0.5757  0.3672 -0.9123
  158SAPE    HS17543   5.393   2.543   7.021  0.3664  0.2777 -0.8471
  158SAPE   O2117544   5.504   2.679   7.134  0.8528 -0.6363 -0.5814
  158SAPE   C2117545   5.616   2.620   7.112 -0.3639  0.0011  0.3248
  158SAPE   O2217546   5.622   2.509   7.062 -0.5347 -0.0831 -0.0085
  158SAPE   C2217547   5.738   2.714   7.129  0.3024  0.4311  0.3971
  158SAPE   H2R17548   5.708   2.816   7.099 -0.9152  0.3753  1.3348
  158SAPE   H2S17549   5.757   2.706   7.238 -0.0452 -0.9053  0.3772
  158SAPE    C317550   5.261   2.669   7.132 -0.1095  0.1222 -0.4933
  158SAPE    HX17551   5.244   2.717   7.231  1.2910  0.5960 -0.4606
  158SAPE    HY17552   5.179   2.595   7.132 -0.2399  0.2663 -0.7436
  158SAPE   O3117553   5.255   2.767   7.035 -0.3256 -0.1712 -0.5168
  158SAPE   C3117554   5.216   2.723   6.913  0.1860  1.1143 -0.6278
  158SAPE   O3217555   5.165   2.612   6.899 -0.3007  0.1845 -0.6761
  158SAPE   C3217556   5.238   2.825   6.797 -0.1936  0.3790  0.2837
  158SAPE   H2X17557   5.341   2.862   6.815 -0.0261  0.1136 -0.0983
  158SAPE   H2Y17558   5.162   2.905   6.806  0.8335  1.4557 -0.3559
  158SAPE   C2317559   5.863   2.646   7.056  0.1955  0.2769  0.1048
  158SAPE   H3R17560   5.870   2.535   7.064 -0.3824  0.3262  2.0194
  158SAPE   H3S17561   5.954   2.697   7.093  0.6747 -0.8750  0.5562
  158SAPE   C2417562   5.861   2.677   6.902  0.4170  0.6081 -0.5380
  158SAPE   H4R17563   5.778   2.609   6.873  0.1802 -1.0025  3.2915
  158SAPE   H4S17564   5.956   2.638   6.860  0.0770 -3.6389  2.0625
  158SAPE   C2517565   5.843   2.825   6.861 -0.8739 -0.4191 -0.1693
  158SAPE   H5R17566   5.893   2.899   6.925 -2.7421  1.5241 -0.8172
  158SAPE   C2617567   5.755   2.868   6.768 -0.5738  0.0036 -0.3194
  158SAPE   H6R17568   5.748   2.976   6.747  0.9027 -0.0643 -1.2320
  158SAPE   C2717569   5.664   2.783   6.692 -0.3268  0.0610  0.0005
  158SAPE   H7R17570   5.568   2.777   6.748 -0.1378 -1.2354  0.2023
  158SAPE   H7S17571   5.703   2.680   6.682 -1.5411 -0.4539  0.3833
  158SAPE   C2817572   5.627   2.836   6.557 -0.5527 -0.2249 -0.2963
  158SAPE   H8R17573   5.585   2.938   6.561  0.0502  0.0333 -0.4214
  158SAPE   C2917574   5.611   2.769   6.446 -0.7116  0.4667 -0.0907
  158SAPE   H9R17575   5.571   2.827   6.361  1.9065 -0.4593 -2.0925
  158SAPE  C21017576   5.653   2.624   6.414 -0.0094  0.5207 -0.4273
  158SAPE  H10R17577   5.740   2.585   6.471  1.2151 -1.6510 -3.5006
  158SAPE  H10S17578   5.682   2.643   6.308  2.1174  0.2222  0.0409
  158SAPE  C21117579   5.539   2.525   6.422 -0.2113 -0.7669  0.0336
  158SAPE  H11R17580   5.493   2.532   6.522  1.2449  2.1569  0.6224
  158SAPE  C21217581   5.469   2.459   6.330  0.3434 -0.2409  0.3273
  158SAPE  H12R17582   5.394   2.389   6.370 -0.3654  0.2574 -0.0940
  158SAPE  C21317583   5.501   2.452   6.186  0.2179 -0.1542  0.2133
  158SAPE  H13R17584   5.497   2.347   6.148 -0.6981  0.2236 -0.7843
  158SAPE  H13S17585   5.607   2.479   6.167 -0.0399 -0.0584 -1.2159
  158SAPE  C21417586   5.409   2.541   6.100  0.0099  0.2097  0.4464
  158SAPE  H14R17587   5.317   2.567   6.153 -0.7243 -0.8295 -0.2810
  158SAPE  C21517588   5.435   2.583   5.967 -0.2597 -0.1347 -0.4607
  158SAPE  H15R17589   5.365   2.646   5.909  3.3630  1.5947 -3.4166
  158SAPE  C21617590   5.566   2.549   5.886 -0.2215 -0.2281  0.6728
  158SAPE  H16R17591   5.560   2.443   5.853 -1.2055 -0.2887  1.0301
  158SAPE  H16S17592   5.645   2.569   5.962  1.3106  1.4404 -1.2424
  158SAPE  C21717593   5.600   2.643   5.766 -0.4423 -0.3702  0.9074
  158SAPE  H17R17594   5.710   2.639   5.753 -0.3838  1.9678  0.2254
  158SAPE  H17S17595   5.580   2.743   5.810  0.4811 -0.9700  2.7723
  158SAPE  C21817596   5.513   2.612   5.636  0.2151 -0.2104  0.2299
  158SAPE  H18R17597   5.506   2.707   5.579  0.0342 -0.5045 -0.2475
  158SAPE  H18S17598   5.413   2.584   5.675 -0.9853  1.5768 -1.3637
  158SAPE  C21917599   5.577   2.500   5.548 -0.2352  0.2793  0.1435
  158SAPE  H19R17600   5.592   2.404   5.602 -0.9517  0.1692  0.1585
  158SAPE  H19S17601   5.678   2.535   5.517  0.7392 -2.9155 -0.6818
  158SAPE  C22017602   5.501   2.476   5.422  0.0881  0.4684  0.1900
  158SAPE  H20R17603   5.494   2.569   5.361  0.6082 -0.6539 -1.6877
  158SAPE  H20S17604   5.403   2.427   5.440  0.7395 -0.8188  0.3646
  158SAPE  H20T17605   5.563   2.408   5.360 -1.8505  0.6571 -2.1099
  158SAPE   C3317606   5.218   2.739   6.663 -0.4373 -0.9420 -0.3535
  158SAPE   H3X17607   5.115   2.699   6.663 -1.0816  0.6418 -0.4364
  158SAPE   H3Y17608   5.277   2.645   6.656 -1.4820 -1.5625 -1.1060
  158SAPE   C3417609   5.248   2.832   6.543  0.0721 -0.0721  0.3241
  158SAPE   H4X17610   5.252   2.772   6.449  0.3956  0.4337  0.0081
  158SAPE   H4Y17611   5.351   2.871   6.557  0.0729  0.4126 -0.8788
  158SAPE   C3517612   5.154   2.953   6.516 -0.0524  0.5381 -0.0202
  158SAPE   H5X17613   5.137   3.018   6.605 -1.1403  0.4868 -0.1742
  158SAPE   H5Y17614   5.061   2.910   6.474  0.6506 -0.3371 -0.7221
  158SAPE   C3617615   5.199   3.050   6.407  0.3118  1.0606  0.8858
  158SAPE   H6X17616   5.288   3.101   6.450  0.0042  0.7019  1.9711
  158SAPE   H6Y17617   5.126   3.131   6.385 -0.1560  0.4717  0.2398
  158SAPE   C3717618   5.234   2.967   6.279 -0.5960 -0.3630  0.1337
  158SAPE   H7X17619   5.144   2.904   6.266 -0.3738 -0.9438  1.2593
  158SAPE   H7Y17620   5.330   2.914   6.298  0.9754  2.7432  1.6201
  158SAPE   C3817621   5.231   3.077   6.167 -0.4831 -0.5561 -0.2676
  158SAPE   H8X17622   5.305   3.160   6.180  0.6890 -1.7127  0.7454
  158SAPE   H8Y17623   5.131   3.116   6.139 -0.6231 -1.1416 -0.5850
  158SAPE   C3917624   5.270   2.995   6.038  0.3428  0.0619  0.1786
  158SAPE   H9X17625   5.186   2.922   6.044  1.0595 -0.9188 -1.1039
  158SAPE   H9Y17626   5.371   2.949   6.044  0.4886  0.4990  1.1292
  158SAPE  C31017627   5.269   3.076   5.908 -0.9201  0.7271 -0.2377
  158SAPE  H10X17628   5.349   3.153   5.909 -1.2385  1.1169 -1.9979
  158SAPE  H10Y17629   5.174   3.134   5.901 -0.0829  1.9458 -2.2836
  158SAPE  C31117630   5.266   2.993   5.787  0.3849 -0.7549 -0.0815
  158SAPE  H11X17631   5.198   2.907   5.798  1.6642 -1.7386  0.4299
  158SAPE  H11Y17632   5.361   2.938   5.769  1.0076  0.4096 -0.5432
  158SAPE  C31217633   5.231   3.084   5.660  0.3723  0.0969 -0.4601
  158SAPE  H12X17634   5.312   3.158   5.646  0.4310  0.6237  2.0988
  158SAPE  H12Y17635   5.137   3.135   5.689 -0.5518 -0.4189 -2.3640
  158SAPE  C31317636   5.191   3.009   5.528 -0.0410  0.3379  0.8617
  158SAPE  H13X17637   5.137   3.080   5.462 -0.1664 -0.4378  0.1149
  158SAPE  H13Y17638   5.114   2.933   5.551  0.2685 -0.8896 -1.7857
  158SAPE  C31417639   5.314   2.942   5.466  0.3974 -0.4253 -0.4223
  158SAPE  H14X17640   5.301   2.843   5.515  0.1109  1.0124  2.5930
  158SAPE  H14Y17641   5.412   2.984   5.497  1.6824 -3.3575 -0.1587
  158SAPE  C31517642   5.305   2.918   5.318 -0.5433 -0.1296 -0.7930
  158SAPE  H15X17643   5.335   3.013   5.269 -0.9734  0.2407 -0.3458
  158SAPE  H15Y17644   5.198   2.898   5.296 -0.9742 -0.9682  1.6872
  158SAPE  C31617645   5.378   2.800   5.257 -0.3423 -0.0170  0.1498
  158SAPE  H16X17646   5.329   2.706   5.289  1.0435 -1.7235 -2.3818
  158SAPE  H16Y17647   5.478   2.788   5.304 -0.1754  2.3015  0.4975
  158SAPE  C31717648   5.389   2.798   5.105 -0.5622  0.2428  0.0055
  158SAPE  H17X17649   5.438   2.703   5.076  1.3775  0.4261  2.3107
  158SAPE  H17Y17650   5.453   2.887   5.085  0.0094  0.0805  1.0205
  158SAPE  C31817651   5.262   2.819   5.022 -0.5405  0.0702 -0.6899
  158SAPE  H18X17652   5.230   2.923   5.044  0.0658 -0.2536  2.0270
  158SAPE  H18Y17653   5.180   2.753   5.058 -1.6415  1.9819  0.4931
  158SAPE  H18Z17654   5.280   2.818   4.912  0.8287  0.8191 -0.5047
  159SAPE     N17655   5.687   0.298   2.634  0.0766  0.2268 -0.1465
  159SAPE   HN117656   5.618   0.255   2.568 -0.6968 -0.2340  0.9210
  159SAPE   HN217657   5.737   0.223   2.686  0.8536 -0.8854 -2.3856
  159SAPE   HN317658   5.631   0.357   2.699  0.9944  1.1876 -0.2024
  159SAPE   C1217659   5.788   0.387   2.571 -0.2333 -0.0184  0.6252
  159SAPE  H12A17660   5.753   0.491   2.559 -1.3993 -0.6964 -2.8558
  159SAPE  H12B17661   5.798   0.341   2.470  0.1137  1.4141 -0.0147
  159SAPE   C1117662   5.920   0.373   2.649  0.1166  0.7923 -0.1958
  159SAPE  H11A17663   5.992   0.448   2.609 -0.5643  1.7808  0.3641
  159SAPE  H11B17664   5.958   0.269   2.644 -0.1810  0.4019  3.0671
  159SAPE     P17665   6.006   0.431   2.894 -0.1010  0.1917 -0.3209
  159SAPE   O1317666   6.106   0.316   2.886 -0.1583  0.4693  0.0258
  159SAPE   O1417667   6.054   0.567   2.855  0.1421  0.5657 -0.5097
  159SAPE   O1217668   5.898   0.391   2.791  0.6941 -0.5307 -0.2200
  159SAPE   O1117669   5.932   0.433   3.029  0.1818 -0.2635 -0.0172
  159SAPE    C117670   5.896   0.314   3.099 -0.1041 -0.7107  0.1244
  159SAPE    HA17671   5.793   0.276   3.083 -0.9177  1.0115  1.0455
  159SAPE    HB17672   5.977   0.238   3.089  1.7142  1.2167 -0.5603
  159SAPE    C217673   5.901   0.334   3.255  0.5815  0.6256  0.0454
  159SAPE    HS17674   5.814   0.399   3.279  0.1310  0.2884 -0.6646
  159SAPE   O2117675   6.027   0.381   3.298 -0.3294  0.2657 -0.2760
  159SAPE   C2117676   6.029   0.507   3.322  0.3094 -0.1253  0.4255
  159SAPE   O2217677   5.930   0.585   3.318 -0.4798 -0.1340  0.3643
  159SAPE   C2217678   6.172   0.552   3.355 -0.6626 -0.4304 -0.6263
  159SAPE   H2R17679   6.247   0.483   3.311 -1.1289 -0.8895 -0.7078
  159SAPE   H2S17680   6.184   0.651   3.306 -1.3184 -0.3922 -0.7159
  159SAPE    C317681   5.868   0.204   3.335  0.0310 -0.1204 -0.2673
  159SAPE    HX17682   5.961   0.146   3.357  0.5448  0.4393 -0.9084
  159SAPE    HY17683   5.814   0.142   3.260 -1.0412  1.1838 -0.6102
  159SAPE   O3117684   5.791   0.221   3.457 -0.4346 -0.1125 -0.1551
  159SAPE   C3117685   5.836   0.279   3.567 -0.1679  0.4677  0.1856
  159SAPE   O3217686   5.941   0.342   3.578  0.2842 -0.0642 -0.2476
  159SAPE   C3217687   5.739   0.276   3.685  0.0223  0.1946  0.6281
  159SAPE   H2X17688   5.770   0.361   3.750  1.3593  1.1045 -1.1076
  159SAPE   H2Y17689   5.737   0.176   3.734 -1.9808 -0.1924 -0.1319
  159SAPE   C2317690   6.181   0.580   3.511  0.6591  0.3636  0.3424
  159SAPE   H3R17691   6.156   0.486   3.565  1.9315 -1.1877 -1.6087
  159SAPE   H3S17692   6.106   0.654   3.544  0.7360  0.9650 -0.7873
  159SAPE   C2417693   6.312   0.635   3.553 -0.3463  0.3979 -1.0454
  159SAPE   H4R17694   6.309   0.646   3.664  0.7352 -2.2250 -0.6746
  159SAPE   H4S17695   6.323   0.737   3.509 -0.4228  0.0058 -1.9888
  159SAPE   C2517696   6.429   0.550   3.505 -0.6399 -0.0918 -0.1927
  159SAPE   H5R17697   6.455   0.576   3.401 -0.5711  0.8692  0.0582
  159SAPE   C2617698   6.494   0.453   3.583 -0.0517 -0.0345  0.7816
  159SAPE   H6R17699   6.578   0.395   3.544 -0.5474 -1.0784  1.2273
  159SAPE   C2717700   6.447   0.418   3.719 -0.2993 -0.3531 -0.6706
  159SAPE   H7R17701   6.443   0.511   3.779 -1.3100 -0.0985 -1.1109
  159SAPE   H7S17702   6.523   0.350   3.763  0.1011  0.1999 -0.4919
  159SAPE   C2817703   6.320   0.334   3.738 -0.0849 -0.5456  0.0281
  159SAPE   H8R17704   6.273   0.297   3.645  0.4588 -0.9335 -0.0997
  159SAPE   C2917705   6.254   0.315   3.849 -0.1476  0.8493  0.3904
  159SAPE   H9R17706   6.154   0.271   3.856  1.0924 -2.4673 -1.0157
  159SAPE  C21017707   6.305   0.347   3.980  0.0569 -0.4357 -0.4948
  159SAPE  H10R17708   6.415   0.328   3.973  0.4348 -0.3220  3.2780
  159SAPE  H10S17709   6.265   0.265   4.043 -0.2394 -1.3356 -1.8157
  159SAPE  C21117710   6.273   0.485   4.034 -0.1284  0.5039 -0.6560
  159SAPE  H11R17711   6.369   0.536   4.053  0.8247 -1.4017 -0.1081
  159SAPE  C21217712   6.154   0.534   4.081  0.0986 -0.3968 -0.0350
  159SAPE  H12R17713   6.153   0.642   4.104 -2.8879 -0.2601 -0.4111
  159SAPE  C21317714   6.018   0.464   4.071 -0.9308 -0.0439 -0.0019
  159SAPE  H13R17715   5.968   0.449   4.169 -0.3540 -0.2061  0.2696
  159SAPE  H13S17716   6.017   0.360   4.034 -0.9946  0.3180 -1.0470
  159SAPE  C21417717   5.932   0.524   3.964  0.3782 -1.1670 -0.0918
  159SAPE  H14R17718   5.984   0.557   3.873  1.0588  0.7599  0.9207
  159SAPE  C21517719   5.798   0.556   3.974  0.6608 -0.3756 -0.0374
  159SAPE  H15R17720   5.746   0.601   3.887 -0.7417  0.2055  1.0627
  159SAPE  C21617721   5.702   0.540   4.089 -0.0417 -0.2623 -0.2711
  159SAPE  H16R17722   5.620   0.612   4.065  2.2379  1.8822 -2.1307
  159SAPE  H16S17723   5.747   0.558   4.189  1.9063 -2.7343 -0.6137
  159SAPE  C21717724   5.668   0.389   4.089  0.3614  0.1582 -0.3011
  159SAPE  H17R17725   5.608   0.378   4.182  0.4290 -1.6212 -0.4251
  159SAPE  H17S17726   5.757   0.325   4.108  0.4755  1.2643  3.9461
  159SAPE  C21817727   5.564   0.341   3.988 -0.7129 -0.7477 -0.3215
  159SAPE  H18R17728   5.617   0.349   3.890 -0.1670 -1.9859 -0.1479
  159SAPE  H18S17729   5.474   0.404   3.981 -0.0088  0.1426 -1.7840
  159SAPE  C21917730   5.524   0.189   4.010 -0.3271  0.1449  0.3398
  159SAPE  H19R17731   5.621   0.135   4.012 -0.6596 -0.4549  0.3064
  159SAPE  H19S17732   5.466   0.148   3.925  1.0306 -1.5467  0.1776
  159SAPE  C22017733   5.437   0.170   4.137 -1.0101 -0.3545 -0.7439
  159SAPE  H20R17734   5.487   0.098   4.205 -0.8694  0.2180 -0.2231
  159SAPE  H20S17735   5.334   0.135   4.112 -0.3257 -2.6105 -0.5557
  159SAPE  H20T17736   5.441   0.263   4.198  1.0883  0.7582 -2.4659
  159SAPE   C3317737   5.592   0.314   3.640 -0.3319  0.3078  0.0645
  159SAPE   H3X17738   5.518   0.293   3.721 -2.0418  1.2179 -1.1801
  159SAPE   H3Y17739   5.557   0.256   3.552  0.0055  1.6853 -1.0058
  159SAPE   C3417740   5.579   0.465   3.623  0.0968 -0.3031  0.1266
  159SAPE   H4X17741   5.609   0.525   3.711 -1.8018  3.0011 -1.3057
  159SAPE   H4Y17742   5.473   0.490   3.603 -0.3974 -0.0581  2.7566
  159SAPE   C3517743   5.662   0.525   3.507 -0.2008 -0.2782  0.0010
  159SAPE   H5X17744   5.650   0.449   3.427  1.9349  0.4925 -1.1302
  159SAPE   H5Y17745   5.771   0.533   3.527 -0.5005  1.3969  1.1989
  159SAPE   C3617746   5.607   0.649   3.450 -0.5433 -1.0745  0.5984
  159SAPE   H6X17747   5.500   0.634   3.422 -0.6195  1.5380 -0.8539
  159SAPE   H6Y17748   5.657   0.656   3.351  0.8574 -0.1340  1.3460
  159SAPE   C3717749   5.631   0.778   3.531  0.2425 -0.1323  0.4118
  159SAPE   H7X17750   5.600   0.861   3.463 -0.6713 -0.1335  0.8072
  159SAPE   H7Y17751   5.739   0.780   3.554  0.3891 -0.5125 -0.2237
  159SAPE   C3817752   5.549   0.788   3.673  0.4650 -0.4270  0.1182
  159SAPE   H8X17753   5.605   0.729   3.748  0.8482  0.9690  0.9729
  159SAPE   H8Y17754   5.444   0.754   3.662 -0.1223  0.6827  1.8488
  159SAPE   C3917755   5.526   0.935   3.726 -0.0675 -0.9928  0.4558
  159SAPE   H9X17756   5.456   0.985   3.655  0.1710 -0.5664  0.5167
  159SAPE   H9Y17757   5.616   0.999   3.729  0.3450 -1.5464  0.1166
  159SAPE  C31017758   5.467   0.938   3.860  0.0470 -0.2321  0.2388
  159SAPE  H10X17759   5.393   0.855   3.859 -0.3038  0.0527  1.5429
  159SAPE  H10Y17760   5.409   1.032   3.871  3.5746  2.2633 -0.8663
  159SAPE  C31117761   5.557   0.914   3.987 -0.1105 -0.6769  0.0102
  159SAPE  H11X17762   5.637   0.990   3.994  0.6204 -1.3632 -0.6961
  159SAPE  H11Y17763   5.610   0.817   3.976  1.2718  0.2567 -2.2117
  159SAPE  C31217764   5.486   0.904   4.126 -0.3161  0.0616  0.2762
  159SAPE  H12X17765   5.554   0.867   4.206  1.6780  1.4515 -0.6760
  159SAPE  H12Y17766   5.386   0.855   4.130 -0.4213  0.2171 -0.3670
  159SAPE  C31317767   5.457   1.046   4.174 -0.2115  0.3961 -0.9049
  159SAPE  H13X17768   5.395   1.095   4.096  0.1395  1.5487 -0.4809
  159SAPE  H13Y17769   5.544   1.113   4.190 -2.1128  2.7727  0.0696
  159SAPE  C31417770   5.371   1.056   4.307 -0.3627 -1.2207 -0.1212
  159SAPE  H14X17771   5.433   1.038   4.399  1.6480  1.0615 -0.9320
  159SAPE  H14Y17772   5.287   0.983   4.308  0.6567 -2.4546  0.8173
  159SAPE  C31517773   5.320   1.191   4.316  0.0322  0.0836  0.2786
  159SAPE  H15X17774   5.265   1.212   4.222  0.4291 -0.8522 -0.1676
  159SAPE  H15Y17775   5.407   1.259   4.307 -0.9671  1.4756  0.7842
  159SAPE  C31617776   5.247   1.229   4.443 -0.5125 -0.3283  0.3265
  159SAPE  H16X17777   5.191   1.144   4.488 -3.0592 -1.3335 -4.1203
  159SAPE  H16Y17778   5.161   1.293   4.412 -1.2513  0.8867  4.3102
  159SAPE  C31717779   5.324   1.304   4.549 -0.1883 -1.1114  0.1093
  159SAPE  H17X17780   5.349   1.403   4.506 -1.1618  0.5705  3.1202
  159SAPE  H17Y17781   5.427   1.263   4.563  0.7233  1.0892  0.2303
  159SAPE  C31817782   5.240   1.336   4.682  0.2302  0.0185  0.5040
  159SAPE  H18X17783   5.145   1.386   4.653  0.2968 -0.6019 -0.8799
  159SAPE  H18Y17784   5.290   1.396   4.760 -0.9190 -1.7994  2.7870
  159SAPE  H18Z17785   5.213   1.240   4.733 -2.9950  0.1187 -0.7563
  160SAPE     N17786   4.135   6.323   2.722 -0.1421 -0.0074 -0.0126
  160SAPE   HN117787   4.109   6.231   2.682 -1.0526 -0.3117  1.2508
  160SAPE   HN217788   4.212   6.362   2.663  2.5403 -2.0673  1.8614
  160SAPE   HN317789   4.182   6.306   2.813 -1.0099 -0.1822  0.4150
  160SAPE   C1217790   4.010   6.398   2.742  0.6537 -0.3739  0.2068
  160SAPE  H12A17791   3.925   6.327   2.746 -0.7542  1.1161 -1.6419
  160SAPE  H12B17792   4.003   6.453   2.645  0.2926 -0.5004  0.1609
  160SAPE   C1117793   4.005   6.486   2.864  0.3257  0.2400 -0.6172
  160SAPE  H11A17794   4.006   6.415   2.949 -0.9017  0.5758 -0.3099
  160SAPE  H11B17795   3.909   6.541   2.868  0.3230  0.1483  0.8513
  160SAPE     P17796   4.176   6.618   3.010 -0.2221  0.0860  0.6341
  160SAPE   O1317797   4.268   6.512   3.054  0.0381 -0.7820  0.4864
  160SAPE   O1417798   4.244   6.750   2.994 -0.1105  0.2245 -1.1523
  160SAPE   O1217799   4.119   6.573   2.872 -0.3105  0.0141 -0.4371
  160SAPE   O1117800   4.048   6.621   3.102  0.2320  0.2289 -0.4402
  160SAPE    C117801   3.977   6.737   3.121  0.0608  0.3029 -0.2370
  160SAPE    HA17802   4.040   6.824   3.149  2.6958 -1.2853 -0.8453
  160SAPE    HB17803   3.922   6.754   3.027 -1.6398  2.5428  1.0736
  160SAPE    C217804   3.872   6.717   3.232  0.0559  0.7979 -0.4232
  160SAPE    HS17805   3.802   6.804   3.228  0.4067  1.0517 -1.3597
  160SAPE   O2117806   3.943   6.716   3.349 -0.1657  0.1889  0.4984
  160SAPE   C2117807   3.866   6.716   3.453  0.0568  0.3931  0.1110
  160SAPE   O2217808   3.748   6.746   3.460  0.1355 -0.9686 -0.2987
  160SAPE   C2217809   3.952   6.662   3.571 -0.2527 -0.0424 -0.2112
  160SAPE   H2R17810   3.956   6.551   3.560 -2.5489 -0.3335  1.2424
  160SAPE   H2S17811   4.055   6.703   3.567  0.0504 -0.7897 -0.1677
  160SAPE    C317812   3.799   6.583   3.214 -0.4158 -0.8241 -0.1836
  160SAPE    HX17813   3.822   6.516   3.300 -0.0133 -0.6612 -0.1644
  160SAPE    HY17814   3.831   6.538   3.118 -0.4282  2.1172 -1.6692
  160SAPE   O3117815   3.653   6.612   3.208  0.1585  0.7748 -0.3219
  160SAPE   C3117816   3.566   6.516   3.259  0.4170  0.3593  0.0443
  160SAPE   O3217817   3.604   6.415   3.311 -0.5882 -0.0164 -0.0409
  160SAPE   C3217818   3.418   6.549   3.223 -0.3677  0.4336 -0.7153
  160SAPE   H2X17819   3.391   6.490   3.133  2.2681 -1.9343 -0.1056
  160SAPE   H2Y17820   3.413   6.658   3.202 -0.5385  0.2510 -1.6853
  160SAPE   C2317821   3.881   6.687   3.703  0.1054  0.1540 -0.4541
  160SAPE   H3R17822   3.807   6.608   3.728 -0.3366  0.9456  0.8504
  160SAPE   H3S17823   3.827   6.784   3.709 -3.0010 -1.4934  0.3170
  160SAPE   C2417824   3.983   6.690   3.818  0.6286  0.0976  0.0315
  160SAPE   H4R17825   4.066   6.757   3.786 -2.7967  2.9251 -3.9132
  160SAPE   H4S17826   4.012   6.584   3.834  0.7201  0.3715  1.9610
  160SAPE   C2517827   3.936   6.743   3.946 -0.4113 -0.0034  0.5974
  160SAPE   H5R17828   3.883   6.840   3.945 -1.6657 -0.6670  0.6213
  160SAPE   C2617829   3.932   6.679   4.069  0.5982  0.3169  0.8185
  160SAPE   H6R17830   3.904   6.730   4.162 -1.0322  1.1681 -0.0900
  160SAPE   C2717831   3.980   6.539   4.099 -0.0543 -0.3463  0.0733
  160SAPE   H7R17832   4.026   6.490   4.011 -0.0988  0.0490 -0.1754
  160SAPE   H7S17833   3.893   6.477   4.129 -0.8785 -0.0426 -1.5858
  160SAPE   C2817834   4.088   6.544   4.202  0.2959  0.6450 -0.4990
  160SAPE   H8R17835   4.183   6.572   4.155  0.3746 -0.0556 -0.7710
  160SAPE   C2917836   4.089   6.511   4.333  0.0344 -0.7891  0.2649
  160SAPE   H9R17837   4.171   6.548   4.396 -0.0857 -0.8047  0.4313
  160SAPE  C21017838   3.960   6.467   4.408 -0.1631 -0.1022  0.4629
  160SAPE  H10R17839   3.955   6.357   4.393  0.5946  0.0269 -0.9302
  160SAPE  H10S17840   3.870   6.508   4.358 -0.3946 -1.9268 -0.6984
  160SAPE  C21117841   3.961   6.501   4.555 -0.4787 -0.5152 -0.4043
  160SAPE  H11R17842   4.045   6.453   4.608  0.7393 -0.8012 -2.4765
  160SAPE  C21217843   3.866   6.558   4.626 -0.1951 -0.9208 -0.6465
  160SAPE  H12R17844   3.898   6.567   4.731  2.4561 -1.9910 -1.2761
  160SAPE  C21317845   3.744   6.627   4.580 -0.1004  0.1179 -0.8502
  160SAPE  H13R17846   3.768   6.670   4.481  1.4859 -2.1113 -1.5123
  160SAPE  H13S17847   3.715   6.708   4.650  2.4114  0.3796 -0.0101
  160SAPE  C21417848   3.639   6.525   4.564 -0.0325 -0.1380  0.0726
  160SAPE  H14R17849   3.675   6.422   4.555  0.2119 -0.5472  4.1227
  160SAPE  C21517850   3.506   6.528   4.556  0.7767  0.0893 -0.1365
  160SAPE  H15R17851   3.450   6.433   4.561  0.2242  0.4062 -0.1441
  160SAPE  C21617852   3.420   6.657   4.560  0.4775 -0.4676 -0.7665
  160SAPE  H16R17853   3.463   6.744   4.507 -1.9185  0.9418 -0.4927
  160SAPE  H16S17854   3.411   6.674   4.670 -0.6294 -1.1159 -0.7464
  160SAPE  C21717855   3.282   6.642   4.506 -0.6798  0.4042  0.7063
  160SAPE  H17R17856   3.286   6.583   4.412  1.7214  1.5081  0.0456
  160SAPE  H17S17857   3.254   6.742   4.465 -0.2768 -0.2270 -1.2355
  160SAPE  C21817858   3.170   6.592   4.598  0.8677 -0.3751  0.6265
  160SAPE  H18R17859   3.153   6.675   4.670  0.1562 -0.4951  0.5998
  160SAPE  H18S17860   3.207   6.500   4.649  0.2476 -0.3964  1.0410
  160SAPE  C21917861   3.037   6.573   4.534  0.0400  0.2060 -0.4777
  160SAPE  H19R17862   2.965   6.524   4.603  1.0709  0.4923  0.8372
  160SAPE  H19S17863   3.045   6.504   4.448  2.8923  0.9692 -0.9233
  160SAPE  C22017864   2.970   6.696   4.485 -0.4600  0.5319  1.4148
  160SAPE  H20R17865   2.860   6.682   4.488 -0.5539  0.9676  0.4913
  160SAPE  H20S17866   3.007   6.728   4.385  0.7036  0.5995  1.8545
  160SAPE  H20T17867   2.995   6.771   4.562  0.8302  0.0957  1.4417
  160SAPE   C3317868   3.328   6.510   3.347  0.3281 -0.0203  0.0819
  160SAPE   H3X17869   3.336   6.403   3.375 -1.5252 -0.0001  0.8231
  160SAPE   H3Y17870   3.229   6.521   3.298  1.6536  1.9985 -2.4125
  160SAPE   C3417871   3.358   6.613   3.459  0.6224  0.2198  0.3440
  160SAPE   H4X17872   3.319   6.710   3.420  1.5145  0.0906 -0.9447
  160SAPE   H4Y17873   3.468   6.621   3.474  0.4577  0.2428  1.6350
  160SAPE   C3517874   3.287   6.583   3.594 -0.3178  0.2283  0.7199
  160SAPE   H5X17875   3.329   6.486   3.628  0.2380  0.3655  0.4269
  160SAPE   H5Y17876   3.180   6.574   3.563 -0.1969 -2.0373  0.8147
  160SAPE   C3617877   3.302   6.690   3.707 -0.5755  0.2420  0.6607
  160SAPE   H6X17878   3.242   6.670   3.798  0.7604  1.1130  1.7752
  160SAPE   H6Y17879   3.270   6.783   3.655 -1.8385  0.2666  1.4587
  160SAPE   C3717880   3.444   6.725   3.753  0.4482 -0.1635  0.6039
  160SAPE   H7X17881   3.500   6.739   3.659 -2.8295 -0.7918 -1.5923
  160SAPE   H7Y17882   3.481   6.635   3.806 -2.1492 -0.3696  2.2690
  160SAPE   C3817883   3.459   6.845   3.847 -0.1958 -0.8814  0.2723
  160SAPE   H8X17884   3.400   6.823   3.939 -0.3097  1.6445  0.8568
  160SAPE   H8Y17885   3.417   6.933   3.794  1.9829  0.3227  0.4290
  160SAPE   C3917886   3.602   6.861   3.889 -0.2936 -0.4171 -0.2435
  160SAPE   H9X17887   3.652   6.887   3.793 -0.6017  0.0322 -0.2838
  160SAPE   H9Y17888   3.652   6.767   3.920  0.1767  0.1556  0.7836
  160SAPE  C31017889   3.624   6.974   3.994  0.0643 -0.4911  0.0991
  160SAPE  H10X17890   3.563   7.062   3.964  1.4006  0.4618  0.1362
  160SAPE  H10Y17891   3.729   7.006   3.977  0.3347 -1.7493 -0.7500
  160SAPE  C31117892   3.581   6.925   4.131 -0.1047 -0.0106 -0.1023
  160SAPE  H11X17893   3.625   6.824   4.151 -0.8452 -0.0284  1.6357
  160SAPE  H11Y17894   3.470   6.918   4.131 -0.0413 -1.6196  0.4117
  160SAPE  C31217895   3.645   7.017   4.243 -0.1523 -0.5381  0.4812
  160SAPE  H12X17896   3.586   7.111   4.254 -0.0962 -0.5428  0.8584
  160SAPE  H12Y17897   3.748   7.039   4.209 -0.7215  2.1363  0.3118
  160SAPE  C31317898   3.649   6.943   4.376  0.3182 -0.1221  0.3173
  160SAPE  H13X17899   3.721   6.860   4.356  0.3305  0.0851 -0.5498
  160SAPE  H13Y17900   3.550   6.909   4.412  0.6420 -0.3217  1.0271
  160SAPE  C31417901   3.700   7.044   4.487 -0.1662 -0.1130  1.0012
  160SAPE  H14X17902   3.618   7.112   4.518 -2.1084 -1.5324 -0.7313
  160SAPE  H14Y17903   3.789   7.102   4.455 -1.7575  1.0455 -1.7112
  160SAPE  C31517904   3.746   6.967   4.610  0.3008  0.1909  0.4827
  160SAPE  H15X17905   3.834   6.904   4.583  0.3888  0.8312 -0.8162
  160SAPE  H15Y17906   3.659   6.899   4.618 -0.5124  1.1310 -0.1830
  160SAPE  C31617907   3.754   7.060   4.730  0.3188  0.1643 -0.6750
  160SAPE  H16X17908   3.700   7.157   4.723  0.8174  0.5906  0.9433
  160SAPE  H16Y17909   3.857   7.100   4.735 -1.1496  4.9685 -2.5702
  160SAPE  C31717910   3.708   6.986   4.862  0.3582 -0.1132  0.0731
  160SAPE  H17X17911   3.739   6.879   4.869 -2.7173 -1.1461 -0.4060
  160SAPE  H17Y17912   3.598   6.980   4.848  0.1071  2.0974  0.8809
  160SAPE  C31817913   3.727   7.060   4.999  0.1606  0.3388 -0.0934
  160SAPE  H18X17914   3.659   7.017   5.076 -1.9061  0.4009 -1.8151
  160SAPE  H18Y17915   3.708   7.169   4.999 -1.5167  0.0668 -0.3298
  160SAPE  H18Z17916   3.830   7.048   5.040 -0.4229 -2.9692  0.6698
  161SAPE     N17917   6.610   2.028   3.153 -0.1728 -0.1097 -0.1626
  161SAPE   HN117918   6.537   2.017   3.226 -2.0292 -0.7612 -2.0186
  161SAPE   HN217919   6.669   2.113   3.167 -0.3129  0.3166 -1.8704
  161SAPE   HN317920   6.574   2.038   3.056  0.7093 -0.9710 -0.5931
  161SAPE   C1217921   6.714   1.919   3.143 -0.0910 -0.4842 -0.0552
  161SAPE  H12A17922   6.655   1.825   3.142 -1.2849  0.1914  1.6764
  161SAPE  H12B17923   6.782   1.932   3.230 -0.7980  0.0695  0.4328
  161SAPE   C1117924   6.794   1.943   3.014  0.0609 -0.5354  0.3933
  161SAPE  H11A17925   6.732   1.935   2.922 -0.3459  0.0423  0.6049
  161SAPE  H11B17926   6.876   1.869   3.004  0.9313  0.6168 -1.8541
  161SAPE     P17927   6.999   2.097   2.981 -0.0926 -0.2508  0.1942
  161SAPE   O1317928   7.046   1.990   2.889  0.1548 -0.7380 -0.3754
  161SAPE   O1417929   7.024   2.241   2.936 -0.0018  0.0560 -0.1213
  161SAPE   O1217930   6.843   2.078   3.015 -0.1044 -0.0817 -0.5779
  161SAPE   O1117931   7.052   2.081   3.131  0.1210  0.0765  0.0334
  161SAPE    C117932   6.998   2.155   3.239 -0.7257 -0.2074  0.5423
  161SAPE    HA17933   6.927   2.227   3.193  1.0478  1.6271  0.5051
  161SAPE    HB17934   6.929   2.092   3.299 -2.8662  2.8962  1.5992
  161SAPE    C217935   7.114   2.216   3.319  0.1952 -0.0900 -0.7340
  161SAPE    HS17936   7.174   2.280   3.251 -0.5351  0.2094 -1.1113
  161SAPE   O2117937   7.183   2.100   3.379  0.3374 -0.3503  0.4181
  161SAPE   C2117938   7.305   2.123   3.422  0.1832 -0.5077  0.4015
  161SAPE   O2217939   7.372   2.220   3.387  0.1197 -0.1551 -0.3228
  161SAPE   C2217940   7.348   2.009   3.505  0.3388  0.1123  0.3661
  161SAPE   H2R17941   7.323   1.918   3.447 -1.1499  2.2055 -2.5358
  161SAPE   H2S17942   7.458   2.002   3.523  0.3705 -0.3891 -0.0135
  161SAPE    C317943   7.042   2.296   3.430  0.0600 -0.0435  0.2238
  161SAPE    HX17944   6.986   2.223   3.493  1.4787 -0.5598  0.9466
  161SAPE    HY17945   6.974   2.371   3.386 -1.3929 -0.8088  1.0978
  161SAPE   O3117946   7.137   2.354   3.521  0.7630 -0.1915  0.1849
  161SAPE   C3117947   7.183   2.471   3.485  0.8745 -0.1184  0.2243
  161SAPE   O3217948   7.169   2.528   3.376 -0.4025 -0.0638  0.2839
  161SAPE   C3217949   7.265   2.523   3.598  0.2622  0.0872 -0.3450
  161SAPE   H2X17950   7.362   2.468   3.596  0.4535  0.3918  0.2078
  161SAPE   H2Y17951   7.222   2.496   3.696 -1.2880 -3.1186 -1.7656
  161SAPE   C2317952   7.273   2.010   3.646  0.5691  0.1042 -0.1517
  161SAPE   H3R17953   7.288   1.915   3.702  0.9959 -0.0015 -0.4367
  161SAPE   H3S17954   7.166   2.038   3.641 -0.1519 -2.5652 -1.3663
  161SAPE   C2417955   7.342   2.117   3.744 -0.2369 -0.0916 -0.2765
  161SAPE   H4R17956   7.314   2.218   3.708 -0.6123  0.3747  1.2439
  161SAPE   H4S17957   7.449   2.092   3.757 -0.3019  0.9379  3.0465
  161SAPE   C2517958   7.277   2.100   3.882  0.3898 -0.4332  0.2433
  161SAPE   H5R17959   7.179   2.148   3.892  0.3714 -0.7306  1.6902
  161SAPE   C2617960   7.315   2.008   3.978  0.7795  0.0584 -0.2171
  161SAPE   H6R17961   7.260   2.018   4.073  1.7932  2.2177  0.2145
  161SAPE   C2717962   7.439   1.918   3.993  0.8382 -0.3446  0.5846
  161SAPE   H7R17963   7.492   1.912   3.896 -0.6167 -1.8507 -0.1757
  161SAPE   H7S17964   7.408   1.812   4.006 -2.2818  0.1732 -1.5454
  161SAPE   C2817965   7.523   1.973   4.104  0.6230  0.2725  0.5701
  161SAPE   H8R17966   7.609   2.035   4.073 -2.4362  3.4115 -2.4930
  161SAPE   C2917967   7.520   1.924   4.232  0.0762  0.0617 -0.1028
  161SAPE   H9R17968   7.584   1.962   4.313 -0.3035 -0.7088  0.5722
  161SAPE  C21017969   7.422   1.828   4.289  0.6688  0.0943  0.3726
  161SAPE  H10R17970   7.481   1.760   4.354  1.3783  1.3403  1.0767
  161SAPE  H10S17971   7.370   1.776   4.205 -0.5880  2.4246 -0.3982
  161SAPE  C21117972   7.316   1.900   4.367  0.4147 -0.5556  0.3766
  161SAPE  H11R17973   7.312   2.005   4.336 -0.0727 -0.8994 -0.7721
  161SAPE  C21217974   7.233   1.851   4.452  0.2369  0.1074 -0.1274
  161SAPE  H12R17975   7.144   1.911   4.473 -2.0079 -2.7243 -0.9823
  161SAPE  C21317976   7.229   1.711   4.508  0.1575 -0.4312  0.3929
  161SAPE  H13R17977   7.247   1.703   4.618 -3.1439 -0.0562  1.0672
  161SAPE  H13S17978   7.297   1.648   4.447 -0.7598 -1.5295  0.4712
  161SAPE  C21417979   7.099   1.638   4.491  0.4495 -0.2242 -0.4929
  161SAPE  H14R17980   7.103   1.580   4.397  3.3163  0.2151 -0.7175
  161SAPE  C21517981   6.997   1.633   4.580 -0.0104 -0.5812  0.0468
  161SAPE  H15R17982   6.909   1.575   4.550  0.1939 -1.4264  0.9932
  161SAPE  C21617983   6.991   1.692   4.712  0.0186 -0.2320  0.1759
  161SAPE  H16R17984   7.083   1.749   4.739  0.9685 -2.0595  1.0028
  161SAPE  H16S17985   6.997   1.612   4.789  0.4445 -0.9634 -0.5994
  161SAPE  C21717986   6.862   1.775   4.728 -0.2012  0.6018 -0.2941
  161SAPE  H17R17987   6.841   1.798   4.835 -0.8584 -0.1120 -0.2585
  161SAPE  H17S17988   6.779   1.716   4.683 -0.3123  2.7913 -3.2681
  161SAPE  C21817989   6.877   1.908   4.666  0.2502 -0.8498  0.5514
  161SAPE  H18R17990   6.933   1.910   4.570 -1.2680  0.4913 -0.3567
  161SAPE  H18S17991   6.935   1.967   4.740 -0.1892 -0.0340  0.2639
  161SAPE  C21917992   6.736   1.976   4.639  0.3200  0.6846 -0.8337
  161SAPE  H19R17993   6.738   2.086   4.622  0.6593  0.3379 -3.5286
  161SAPE  H19S17994   6.688   1.946   4.734  1.9101  2.2051  0.5110
  161SAPE  C22017995   6.667   1.905   4.518 -0.4260 -0.0298  0.1243
  161SAPE  H20R17996   6.688   1.797   4.509  1.0723  0.1640  0.9055
  161SAPE  H20S17997   6.714   1.945   4.426 -0.2347  2.0349  1.0597
  161SAPE  H20T17998   6.562   1.939   4.530 -0.0688  1.6924 -1.1673
  161SAPE   C3317999   7.306   2.677   3.595 -0.1897  0.3151  0.6080
  161SAPE   H3X18000   7.241   2.744   3.535 -0.8830 -1.2771 -0.4924
  161SAPE   H3Y18001   7.408   2.678   3.552 -0.9670  3.4146 -1.4708
  161SAPE   C3418002   7.317   2.733   3.738 -0.0689 -0.4457  0.5898
  161SAPE   H4X18003   7.218   2.717   3.784  0.2082 -0.8154  1.0604
  161SAPE   H4Y18004   7.329   2.843   3.733  1.2208 -0.5231  1.4100
  161SAPE   C3518005   7.423   2.660   3.823  0.2083  0.1578 -0.3532
  161SAPE   H5X18006   7.526   2.700   3.813  0.3375  0.0449  0.4803
  161SAPE   H5Y18007   7.418   2.553   3.795 -4.6302  0.3008 -0.8882
  161SAPE   C3618008   7.387   2.657   3.969  0.2868  0.1255 -0.0492
  161SAPE   H6X18009   7.457   2.589   4.023 -0.0684  0.2541  0.5825
  161SAPE   H6Y18010   7.289   2.604   3.968  0.2696  0.1574 -0.8670
  161SAPE   C3718011   7.383   2.799   4.030 -0.2619 -0.0991  0.0043
  161SAPE   H7X18012   7.338   2.867   3.954  1.0148 -0.9989 -1.6432
  161SAPE   H7Y18013   7.485   2.833   4.058 -0.0498 -1.7782  1.4667
  161SAPE   C3818014   7.287   2.805   4.157 -0.1104 -0.0383  0.3323
  161SAPE   H8X18015   7.188   2.770   4.121  0.0655  1.5138 -1.8697
  161SAPE   H8Y18016   7.270   2.910   4.189  0.9072  0.0062  0.7445
  161SAPE   C3918017   7.325   2.729   4.286  0.0198 -0.4689 -0.1228
  161SAPE   H9X18018   7.324   2.621   4.259  2.0886 -0.9543  1.4950
  161SAPE   H9Y18019   7.261   2.750   4.374  0.8471 -0.5743  0.5199
  161SAPE  C31018020   7.471   2.760   4.329 -0.0982 -0.3029 -0.3244
  161SAPE  H10X18021   7.487   2.868   4.352  1.6466 -0.7772  0.8392
  161SAPE  H10Y18022   7.536   2.726   4.245  0.6137 -3.6918  1.4535
  161SAPE  C31118023   7.507   2.676   4.444  0.1972  0.7672 -0.1931
  161SAPE  H11X18024   7.617   2.674   4.453  0.0616  0.3187  1.7833
  161SAPE  H11Y18025   7.464   2.574   4.433  0.6789  0.6232 -0.7395
  161SAPE  C31218026   7.448   2.729   4.581  0.4094 -0.1916 -0.0438
  161SAPE  H12X18027   7.337   2.733   4.589  0.2230  2.2294 -2.3102
  161SAPE  H12Y18028   7.476   2.836   4.592  1.9345 -0.6780  1.0638
  161SAPE  C31318029   7.499   2.640   4.691 -0.4955 -0.4300  0.0528
  161SAPE  H13X18030   7.606   2.609   4.686 -0.1948  0.5982 -0.2049
  161SAPE  H13Y18031   7.443   2.545   4.685  2.3505 -2.3372  1.3393
  161SAPE  C31418032   7.494   2.699   4.836 -0.0704  0.2012  0.1533
  161SAPE  H14X18033   7.496   2.609   4.902 -0.3567 -1.0909 -1.5461
  161SAPE  H14Y18034   7.388   2.730   4.851 -0.5547 -2.0522  2.0236
  161SAPE  C31518035   7.577   2.814   4.878 -0.6595  0.1747  0.4965
  161SAPE  H15X18036   7.559   2.905   4.817 -0.2991 -1.2156 -1.8211
  161SAPE  H15Y18037   7.680   2.783   4.850  0.3984  2.3905  1.6924
  161SAPE  C31618038   7.584   2.827   5.026 -0.2836 -0.3590 -0.4605
  161SAPE  H16X18039   7.615   2.724   5.057  0.3020 -0.4252 -1.2306
  161SAPE  H16Y18040   7.488   2.858   5.073 -0.1721 -0.4560 -0.1645
  161SAPE  C31718041   7.708   2.903   5.068 -1.0586  0.3870 -0.7128
  161SAPE  H17X18042   7.707   2.998   5.011 -2.4278  0.1958 -1.0239
  161SAPE  H17Y18043   7.795   2.840   5.040 -1.3857 -2.1519  3.1540
  161SAPE  C31818044   7.720   2.929   5.216  0.1822  0.9071 -0.0936
  161SAPE  H18X18045   7.821   2.970   5.235 -0.1748  1.4489  0.6543
  161SAPE  H18Y18046   7.693   2.833   5.265 -1.0394  2.2882  2.0835
  161SAPE  H18Z18047   7.646   3.000   5.258 -0.0896  0.1803  0.6949
  162SAPE     N18048   2.270   5.230   3.096 -0.3451  0.6083  0.3674
  162SAPE   HN118049   2.320   5.224   3.005 -2.5913 -0.9463 -0.8696
  162SAPE   HN218050   2.253   5.133   3.128  2.2259  0.3182  1.0851
  162SAPE   HN318051   2.184   5.286   3.081  0.7901  2.8937  1.8760
  162SAPE   C1218052   2.364   5.301   3.193  0.4358  0.3613 -0.6849
  162SAPE  H12A18053   2.307   5.319   3.287 -1.1185 -1.3247 -1.2521
  162SAPE  H12B18054   2.395   5.399   3.151  1.2847  0.1533 -0.5785
  162SAPE   C1118055   2.487   5.222   3.224 -0.9520 -0.4631  0.8876
  162SAPE  H11A18056   2.464   5.120   3.260  0.6272 -1.2173 -0.1736
  162SAPE  H11B18057   2.543   5.288   3.295 -0.1585  1.4042 -1.3316
  162SAPE     P18058   2.681   5.318   3.049  0.1709 -0.2151 -0.0013
  162SAPE   O1318059   2.780   5.246   2.971 -0.1666  0.7370  0.4843
  162SAPE   O1418060   2.610   5.422   2.977  0.5162 -0.8166 -0.3783
  162SAPE   O1218061   2.578   5.210   3.111 -0.1010 -0.0787 -0.6847
  162SAPE   O1118062   2.770   5.371   3.163  0.5089  0.2422 -0.8426
  162SAPE    C118063   2.882   5.313   3.228 -0.3306 -0.6469 -0.2840
  162SAPE    HA18064   2.964   5.287   3.157  0.2979 -1.2638  0.6485
  162SAPE    HB18065   2.915   5.386   3.305 -2.0056  0.8810 -0.9267
  162SAPE    C218066   2.863   5.181   3.311 -0.6192  0.0355  0.2305
  162SAPE    HS18067   2.815   5.111   3.239 -0.6719  0.3980 -0.0877
  162SAPE   O2118068   2.790   5.208   3.422  0.8369 -0.3820  0.0692
  162SAPE   C2118069   2.717   5.110   3.462 -0.0835 -0.1589  0.0990
  162SAPE   O2218070   2.708   5.005   3.401 -0.0301  0.0002 -0.0239
  162SAPE   C2218071   2.644   5.139   3.587 -0.0706 -0.5366  0.2753
  162SAPE   H2R18072   2.688   5.227   3.639  0.2019  0.3088 -1.3336
  162SAPE   H2S18073   2.539   5.164   3.562  0.1626 -0.8281 -1.0722
  162SAPE    C318074   3.005   5.119   3.353  0.3286 -0.4862 -0.6978
  162SAPE    HX18075   3.064   5.110   3.259  4.0633 -2.0133  1.5468
  162SAPE    HY18076   3.002   5.012   3.384  0.6097 -0.1451  0.5666
  162SAPE   O3118077   3.078   5.206   3.434  0.3329 -0.4959 -0.5953
  162SAPE   C3118078   3.093   5.184   3.563 -0.4004 -0.3547  0.8802
  162SAPE   O3218079   3.068   5.080   3.618 -0.4629  0.1840 -0.2987
  162SAPE   C3218080   3.127   5.328   3.629  0.3779  0.6121 -0.0177
  162SAPE   H2X18081   3.043   5.391   3.591 -0.7542 -1.7063 -1.5910
  162SAPE   H2Y18082   3.228   5.354   3.592 -0.0852  0.7217 -1.2570
  162SAPE   C2318083   2.636   5.020   3.679 -0.2523  0.1103 -0.6147
  162SAPE   H3R18084   2.607   4.934   3.616 -3.2897  1.5985 -1.4203
  162SAPE   H3S18085   2.544   5.040   3.738  0.0922 -0.0839  0.0061
  162SAPE   C2418086   2.765   4.978   3.755  0.4027  0.2863 -0.5245
  162SAPE   H4R18087   2.838   4.958   3.673 -0.5129 -0.4451 -1.1923
  162SAPE   H4S18088   2.764   4.885   3.816 -1.1307  0.1561 -0.7126
  162SAPE   C2518089   2.816   5.092   3.844  0.1454  0.2376  0.1024
  162SAPE   H5R18090   2.839   5.187   3.793  3.6911  0.8505  2.4859
  162SAPE   C2618091   2.835   5.103   3.979  0.4930 -0.0596  0.3282
  162SAPE   H6R18092   2.870   5.198   4.022 -0.2791  0.0489  0.7381
  162SAPE   C2718093   2.801   5.000   4.082 -0.0012  0.3070 -0.0441
  162SAPE   H7R18094   2.898   4.944   4.085 -0.7630 -1.1321 -1.0824
  162SAPE   H7S18095   2.732   4.923   4.041  1.3483 -0.8491 -0.2329
  162SAPE   C2818096   2.756   5.031   4.223 -0.0036 -0.9459 -0.5418
  162SAPE   H8R18097   2.776   5.139   4.237  2.5085 -1.5900  1.6877
  162SAPE   C2918098   2.713   4.953   4.328  0.4539 -0.1193  0.1629
  162SAPE   H9R18099   2.696   5.000   4.426 -1.2039 -1.5288  0.6082
  162SAPE  C21018100   2.685   4.802   4.320 -0.3372  0.0048  0.1352
  162SAPE  H10R18101   2.764   4.749   4.378 -0.3343 -1.2345 -0.9732
  162SAPE  H10S18102   2.699   4.769   4.215  1.9914  4.2358 -1.0854
  162SAPE  C21118103   2.542   4.772   4.369  0.7685  0.1100 -0.0700
  162SAPE  H11R18104   2.475   4.731   4.292  0.3912 -1.6721  1.1560
  162SAPE  C21218105   2.496   4.799   4.493  0.2856  0.9666  0.7130
  162SAPE  H12R18106   2.394   4.765   4.516 -0.2756  0.9947 -1.5579
  162SAPE  C21318107   2.582   4.865   4.599  0.6172 -0.1178 -0.1672
  162SAPE  H13R18108   2.693   4.857   4.589  0.4436 -2.3637 -0.8946
  162SAPE  H13S18109   2.555   4.808   4.690  0.4899 -1.4476 -1.0022
  162SAPE  C21418110   2.540   5.009   4.621 -0.0310  0.6600 -0.7050
  162SAPE  H14R18111   2.434   5.032   4.602 -0.8538 -0.3755  2.1306
  162SAPE  C21518112   2.621   5.100   4.661 -0.3378 -0.1850 -0.4701
  162SAPE  H15R18113   2.583   5.193   4.705  1.9328  0.1346  1.0087
  162SAPE  C21618114   2.767   5.095   4.678  0.2138 -0.4293 -0.0570
  162SAPE  H16R18115   2.806   5.198   4.663  0.0771  0.3316  3.6355
  162SAPE  H16S18116   2.818   5.028   4.607  0.6201  0.8095 -0.9701
  162SAPE  C21718117   2.823   5.065   4.821  0.0766  0.0081 -0.3044
  162SAPE  H17R18118   2.778   5.140   4.889 -0.8162  0.4367 -1.3314
  162SAPE  H17S18119   2.933   5.073   4.807  0.2698  0.6532  1.4032
  162SAPE  C21818120   2.784   4.922   4.873 -0.0641  0.1577  0.3283
  162SAPE  H18R18121   2.822   4.840   4.809  0.2274 -1.4160  2.3712
  162SAPE  H18S18122   2.674   4.915   4.887 -0.1039  2.9073  2.1682
  162SAPE  C21918123   2.836   4.888   5.016 -0.5384  0.6549 -0.0437
  162SAPE  H19R18124   2.786   4.797   5.055 -2.3347  2.4461  2.1232
  162SAPE  H19S18125   2.817   4.980   5.075  1.2821 -0.3651  2.3449
  162SAPE  C22018126   2.992   4.871   5.022 -0.4745  0.2078 -0.6369
  162SAPE  H20R18127   3.042   4.960   4.979  0.9208 -0.1032  0.2654
  162SAPE  H20S18128   3.035   4.790   4.958  1.9694  1.6165 -0.9009
  162SAPE  H20T18129   3.039   4.858   5.122 -0.7256 -1.6023 -0.7106
  162SAPE   C3318130   3.128   5.335   3.782  0.3687  0.0213 -0.1878
  162SAPE   H3X18131   3.041   5.275   3.818  0.2338  0.2779 -0.0841
  162SAPE   H3Y18132   3.127   5.442   3.811 -1.2690  0.3668 -1.3861
  162SAPE   C3418133   3.251   5.265   3.841  0.1342 -0.1493  0.1451
  162SAPE   H4X18134   3.340   5.289   3.778  0.0150 -1.1151 -0.4259
  162SAPE   H4Y18135   3.231   5.157   3.822  1.9870 -0.1381 -2.6715
  162SAPE   C3518136   3.281   5.282   3.993  0.1325  0.5001 -0.6270
  162SAPE   H5X18137   3.315   5.387   4.010  0.4320  0.4712 -1.0426
  162SAPE   H5Y18138   3.366   5.213   4.017  0.8817  2.0715  1.5401
  162SAPE   C3618139   3.156   5.264   4.082 -0.5515 -0.3077  0.1701
  162SAPE   H6X18140   3.092   5.183   4.041  0.3702  0.0299 -2.1475
  162SAPE   H6Y18141   3.099   5.359   4.077  1.2251  0.8180  0.0472
  162SAPE   C3718142   3.214   5.244   4.227 -0.1062 -0.2010 -0.1561
  162SAPE   H7X18143   3.312   5.295   4.229  0.5675 -1.4053 -0.7213
  162SAPE   H7Y18144   3.234   5.136   4.244 -0.9433 -0.4078 -0.4311
  162SAPE   C3818145   3.119   5.280   4.344 -0.1058  0.0443 -0.1038
  162SAPE   H8X18146   3.041   5.202   4.354  0.0888 -0.0984  0.3401
  162SAPE   H8Y18147   3.058   5.370   4.324 -1.2034 -0.6610  0.0172
  162SAPE   C3918148   3.190   5.303   4.479 -0.4345  0.6055  0.0829
  162SAPE   H9X18149   3.120   5.339   4.557 -0.9695 -0.5827  0.1644
  162SAPE   H9Y18150   3.263   5.384   4.457 -0.8421  0.6472 -1.2362
  162SAPE  C31018151   3.275   5.185   4.536  0.7865 -0.1728 -0.1378
  162SAPE  H10X18152   3.351   5.144   4.466 -0.1214 -2.0275 -0.0958
  162SAPE  H10Y18153   3.210   5.104   4.577  0.0023  0.8588  0.7022
  162SAPE  C31118154   3.349   5.228   4.664  0.7668  0.1651 -0.2066
  162SAPE  H11X18155   3.293   5.297   4.732  1.2287 -1.0170  1.4215
  162SAPE  H11Y18156   3.445   5.280   4.644  1.8894 -1.1905  1.5268
  162SAPE  C31218157   3.387   5.104   4.752 -0.0595 -0.4358  0.1078
  162SAPE  H12X18158   3.443   5.029   4.692  1.3437  0.6509  0.0002
  162SAPE  H12Y18159   3.285   5.073   4.783 -0.4208  1.8884  1.4451
  162SAPE  C31318160   3.473   5.146   4.876  0.1827 -0.0708 -0.3446
  162SAPE  H13X18161   3.407   5.223   4.921  0.9017  1.9635 -2.5688
  162SAPE  H13Y18162   3.566   5.201   4.849 -1.0519  1.5257 -1.5005
  162SAPE  C31418163   3.501   5.031   4.976 -0.0043 -0.1116  0.1249
  162SAPE  H14X18164   3.563   4.960   4.917 -0.8066  2.2321 -3.9208
  162SAPE  H14Y18165   3.408   4.977   5.002  0.6556 -1.3732 -0.0571
  162SAPE  C31518166   3.575   5.086   5.097 -0.8792  0.6035 -0.1911
  162SAPE  H15X18167   3.669   5.137   5.067 -0.1502 -0.5224  0.0982
  162SAPE  H15Y18168   3.609   4.999   5.157  0.3200  0.9259 -0.3652
  162SAPE  C31618169   3.490   5.145   5.208  0.0944 -0.1999 -0.1529
  162SAPE  H16X18170   3.422   5.067   5.250 -0.3902  0.3303  0.0568
  162SAPE  H16Y18171   3.430   5.229   5.166  1.2793  0.9508  0.3739
  162SAPE  C31718172   3.578   5.219   5.311  0.6270 -0.1247  0.1920
  162SAPE  H17X18173   3.668   5.160   5.337  1.2373 -0.0103 -1.5474
  162SAPE  H17Y18174   3.517   5.226   5.404 -0.7753  1.1073 -0.7747
  162SAPE  C31818175   3.627   5.356   5.258  0.8697 -0.2404  0.6856
  162SAPE  H18X18176   3.560   5.411   5.189 -1.0882 -0.0572  2.6313
  162SAPE  H18Y18177   3.720   5.351   5.197 -0.2232  0.6592 -1.1265
  162SAPE  H18Z18178   3.648   5.428   5.340  1.9257 -0.3914  0.5647
  163SAPE     N18179   1.936   4.635   2.794 -0.2551  0.4372  0.4857
  163SAPE   HN118180   1.998   4.565   2.750  1.7804  3.2966 -1.5374
  163SAPE   HN218181   1.840   4.597   2.806 -0.6140  0.8556 -0.8630
  163SAPE   HN318182   1.933   4.715   2.727  0.5898  0.1415  0.0860
  163SAPE   C1218183   1.988   4.661   2.935  0.2087 -0.2600 -0.4509
  163SAPE  H12A18184   2.098   4.675   2.934  0.1356  0.3631 -1.3142
  163SAPE  H12B18185   1.960   4.569   2.991 -2.5382  2.0848  2.3196
  163SAPE   C1118186   1.910   4.771   3.008 -0.5071  0.2001 -0.0945
  163SAPE  H11A18187   1.974   4.786   3.098 -0.4568  1.5901 -0.3378
  163SAPE  H11B18188   1.808   4.736   3.038 -0.6911 -0.0320 -0.9791
  163SAPE     P18189   1.996   5.022   2.952  0.0807 -0.0014 -0.3938
  163SAPE   O1318190   2.127   5.002   2.877  0.2715 -0.0518 -0.2654
  163SAPE   O1418191   1.917   5.137   2.918  0.6954 -0.3469  0.1760
  163SAPE   O1218192   1.900   4.891   2.933  0.5396  0.2651 -0.3572
  163SAPE   O1118193   2.022   5.041   3.107  0.4800  0.0439 -0.4207
  163SAPE    C118194   1.913   5.066   3.196 -0.5303  0.2158 -0.6944
  163SAPE    HA18195   1.875   5.171   3.192 -0.6643  0.3050  1.7359
  163SAPE    HB18196   1.822   5.010   3.165 -0.7585  0.0412  0.2795
  163SAPE    C218197   1.957   5.045   3.346 -0.7014  0.1649  0.5859
  163SAPE    HS18198   2.031   5.123   3.373  1.4945 -1.1870 -1.2471
  163SAPE   O2118199   2.027   4.919   3.357 -0.4584 -0.2094  0.0657
  163SAPE   C2118200   2.160   4.920   3.332  0.3539 -0.1554 -0.1387
  163SAPE   O2218201   2.223   5.014   3.288  0.0477  0.4960 -0.0232
  163SAPE   C2218202   2.217   4.777   3.349  0.2075  0.3617 -0.0415
  163SAPE   H2R18203   2.144   4.694   3.357 -0.0463  0.7017  1.2980
  163SAPE   H2S18204   2.269   4.756   3.253 -0.1670 -2.2074  0.2471
  163SAPE    C318205   1.828   5.046   3.426 -0.0546  0.2443 -0.6569
  163SAPE    HX18206   1.754   4.969   3.395 -1.8269  1.3380  0.6960
  163SAPE    HY18207   1.786   5.140   3.385  0.3175  0.9613  0.5591
  163SAPE   O3118208   1.843   5.050   3.568  0.2252 -0.3653  0.2945
  163SAPE   C3118209   1.806   4.941   3.639 -0.5520 -0.3833  0.6333
  163SAPE   O3218210   1.763   4.835   3.591 -0.3142  0.4305  0.3567
  163SAPE   C3218211   1.811   4.978   3.789  0.7251 -0.4042 -0.0740
  163SAPE   H2X18212   1.752   5.071   3.797  0.4861 -0.6093  0.5891
  163SAPE   H2Y18213   1.919   4.998   3.807  0.6132 -0.1851  0.3391
  163SAPE   C2318214   2.329   4.761   3.449 -0.7278  0.0797 -0.1002
  163SAPE   H3R18215   2.413   4.828   3.422 -1.7022  0.3781 -2.7096
  163SAPE   H3S18216   2.371   4.660   3.426  1.3088  1.2573 -1.9206
  163SAPE   C2418217   2.294   4.775   3.599  0.0252  0.4014  0.1436
  163SAPE   H4R18218   2.381   4.737   3.655  0.8070  1.0055 -0.6322
  163SAPE   H4S18219   2.212   4.706   3.630 -0.0919  0.0967 -0.7797
  163SAPE   C2518220   2.268   4.923   3.633  0.0416  0.2677  0.4417
  163SAPE   H5R18221   2.275   4.991   3.547  2.1611  0.3734  0.6455
  163SAPE   C2618222   2.271   4.966   3.762  0.0411 -0.0394  0.0613
  163SAPE   H6R18223   2.257   5.075   3.772 -0.5147 -0.2409  1.7421
  163SAPE   C2718224   2.289   4.885   3.885  0.0435  0.3354 -0.4055
  163SAPE   H7R18225   2.323   4.784   3.854 -0.1762  0.6358 -1.6908
  163SAPE   H7S18226   2.188   4.874   3.930  0.8326  1.3633  1.8020
  163SAPE   C2818227   2.393   4.935   3.977 -0.0124  0.1840 -0.1195
  163SAPE   H8R18228   2.489   4.929   3.924  0.0583  0.5389 -0.0379
  163SAPE   C2918229   2.379   4.971   4.102 -0.1850 -0.1902 -0.7382
  163SAPE   H9R18230   2.471   5.015   4.144  0.8583 -1.8588 -1.1742
  163SAPE  C21018231   2.261   4.956   4.198 -0.9267 -0.1556 -0.3230
  163SAPE  H10R18232   2.299   4.918   4.295 -2.2553  1.0711  0.7229
  163SAPE  H10S18233   2.202   4.867   4.168  0.9126 -2.3732  2.2258
  163SAPE  C21118234   2.190   5.089   4.215  0.2546 -0.1214  0.1903
  163SAPE  H11R18235   2.144   5.138   4.128 -3.0253  0.3900  2.0416
  163SAPE  C21218236   2.161   5.144   4.336  0.2395  0.2747  0.3182
  163SAPE  H12R18237   2.106   5.238   4.345  0.5877  0.5321 -0.2203
  163SAPE  C21318238   2.194   5.096   4.471  0.3549 -0.0869  0.5993
  163SAPE  H13R18239   2.183   5.183   4.539 -0.6010  0.3167 -0.0435
  163SAPE  H13S18240   2.298   5.056   4.472  0.0419 -1.0959 -1.2214
  163SAPE  C21418241   2.119   4.981   4.529 -0.1505  0.2160 -0.7939
  163SAPE  H14R18242   2.096   4.913   4.446  0.2698 -0.2261 -0.5460
  163SAPE  C21518243   2.090   4.947   4.655  0.1194  0.6290  0.2445
  163SAPE  H15R18244   2.038   4.851   4.663  1.9754 -0.4764 -0.5762
  163SAPE  C21618245   2.116   5.023   4.784 -0.1053  0.1807  0.8159
  163SAPE  H16R18246   2.184   5.110   4.770 -1.4660  1.0873 -0.4483
  163SAPE  H16S18247   2.175   4.957   4.852  1.8841  1.3218  0.2809
  163SAPE  C21718248   1.984   5.066   4.843  0.6259  0.0733 -0.1286
  163SAPE  H17R18249   2.003   5.088   4.950 -1.3315  0.3211  0.1987
  163SAPE  H17S18250   1.909   4.985   4.855  0.0449  0.4822 -0.9088
  163SAPE  C21818251   1.931   5.205   4.793 -0.2319  0.4701  0.2321
  163SAPE  H18R18252   1.918   5.190   4.684  0.5017  0.7727  0.0935
  163SAPE  H18S18253   2.009   5.283   4.808  0.4683 -0.1530 -0.0581
  163SAPE  C21918254   1.814   5.249   4.869  0.7588 -0.0779  0.6317
  163SAPE  H19R18255   1.851   5.275   4.971  0.0101 -0.9901  1.1493
  163SAPE  H19S18256   1.746   5.162   4.872  0.4499  0.0967 -0.6548
  163SAPE  C22018257   1.735   5.372   4.813  0.1090 -0.8730  0.1080
  163SAPE  H20R18258   1.698   5.344   4.712  1.3407 -3.6273  0.3305
  163SAPE  H20S18259   1.793   5.467   4.811 -0.0729 -0.7680 -0.3033
  163SAPE  H20T18260   1.640   5.384   4.869  1.1458 -2.0406  2.2393
  163SAPE   C3318261   1.773   4.865   3.883  0.1032 -0.5686  0.0747
  163SAPE   H3X18262   1.811   4.773   3.833 -1.9845 -1.6623  0.3799
  163SAPE   H3Y18263   1.662   4.856   3.876 -0.3227  3.3542 -0.0191
  163SAPE   C3418264   1.822   4.886   4.028 -0.8863  0.0670  0.0566
  163SAPE   H4X18265   1.933   4.879   4.028 -0.9417 -1.1073 -0.8565
  163SAPE   H4Y18266   1.782   4.795   4.078  1.1289 -0.8362  0.1159
  163SAPE   C3518267   1.771   5.013   4.099 -0.3991  0.2418  0.1884
  163SAPE   H5X18268   1.662   5.022   4.081 -0.0150  1.7684 -1.7110
  163SAPE   H5Y18269   1.807   5.107   4.054 -1.3909  0.6727  0.2867
  163SAPE   C3618270   1.788   5.000   4.245  0.4364 -0.7245  0.2627
  163SAPE   H6X18271   1.878   5.061   4.270  0.9042  0.0075 -2.7187
  163SAPE   H6Y18272   1.810   4.898   4.281 -1.5809 -1.0973  0.5593
  163SAPE   C3718273   1.662   5.035   4.333 -0.2778  0.7594  0.0174
  163SAPE   H7X18274   1.575   4.968   4.316  0.8238 -0.6475 -0.2297
  163SAPE   H7Y18275   1.623   5.136   4.305 -4.0601 -0.2747  0.8699
  163SAPE   C3818276   1.715   5.027   4.486  0.4230 -0.6107  0.2139
  163SAPE   H8X18277   1.759   5.129   4.487  0.1797 -0.4462 -1.7397
  163SAPE   H8Y18278   1.779   4.941   4.515  0.4138 -0.4637  0.6676
  163SAPE   C3918279   1.592   5.020   4.573  0.7973 -0.1354 -0.0879
  163SAPE   H9X18280   1.628   5.046   4.675  1.1538  0.1439 -0.2819
  163SAPE   H9Y18281   1.565   4.913   4.581  1.7770 -0.3827  0.0785
  163SAPE  C31018282   1.482   5.127   4.541 -1.3075 -0.0247 -0.6669
  163SAPE  H10X18283   1.457   5.133   4.433 -0.5021  1.0596 -0.8055
  163SAPE  H10Y18284   1.533   5.223   4.566 -2.0292 -0.2372  1.9288
  163SAPE  C31118285   1.366   5.123   4.642  0.7814 -0.0128  0.2804
  163SAPE  H11X18286   1.306   5.031   4.624  1.5451 -0.4527 -0.0628
  163SAPE  H11Y18287   1.297   5.207   4.619  2.5156  1.5821  0.7640
  163SAPE  C31218288   1.401   5.121   4.790  0.5818 -0.1828  0.2617
  163SAPE  H12X18289   1.467   5.207   4.814 -0.2685  0.3303  0.8518
  163SAPE  H12Y18290   1.466   5.039   4.827  2.2985  0.9301 -0.1808
  163SAPE  C31318291   1.275   5.132   4.884  0.5580 -0.3535  0.7030
  163SAPE  H13X18292   1.209   5.048   4.853 -0.9246  0.9616  0.1546
  163SAPE  H13Y18293   1.224   5.229   4.863  0.3502 -0.8870 -1.5649
  163SAPE  C31418294   1.294   5.112   5.034  0.0288 -0.0025  0.3116
  163SAPE  H14X18295   1.370   5.191   5.055 -2.0642  1.6905  2.0571
  163SAPE  H14Y18296   1.353   5.018   5.035  0.2772  0.1168  2.5922
  163SAPE  C31518297   1.167   5.127   5.110 -0.4563 -0.0572  0.5352
  163SAPE  H15X18298   1.133   5.231   5.090  2.4053  0.7637 -0.5472
  163SAPE  H15Y18299   1.179   5.137   5.220 -0.0242  3.9650  0.2890
  163SAPE  C31618300   1.058   5.020   5.069 -0.3314 -0.4022  0.5643
  163SAPE  H16X18301   1.108   4.921   5.057 -0.0673 -0.3509  1.2021
  163SAPE  H16Y18302   1.019   5.060   4.973  0.9927  0.8400  0.5184
  163SAPE  C31718303   0.945   5.014   5.168  0.1450 -0.1373 -0.0252
  163SAPE  H17X18304   0.908   5.118   5.180 -0.5731  0.1181 -3.5518
  163SAPE  H17Y18305   0.990   4.994   5.268  0.6574  0.0085 -0.2236
  163SAPE  C31818306   0.828   4.922   5.129  0.3288 -0.0887  0.4138
  163SAPE  H18X18307   0.764   4.971   5.053  1.3361 -0.4570 -0.7012
  163SAPE  H18Y18308   0.761   4.909   5.216  0.5968 -0.6815  0.5376
  163SAPE  H18Z18309   0.857   4.824   5.085 -1.2667  0.1481 -1.3080
  164SAPE     N18310   4.919   4.006   2.496 -0.0584  0.2616 -0.3223
  164SAPE   HN118311   4.972   4.056   2.422  0.3895 -1.0748 -0.9446
  164SAPE   HN218312   4.981   3.986   2.577 -0.7255  1.8607  0.6370
  164SAPE   HN318313   4.872   3.919   2.463 -1.7538  0.4266  1.5020
  164SAPE   C1218314   4.816   4.098   2.550  0.6724  0.4062 -0.6962
  164SAPE  H12A18315   4.766   4.043   2.632  4.5467 -0.5239  1.3061
  164SAPE  H12B18316   4.746   4.130   2.470 -0.6063 -0.6870 -0.0355
  164SAPE   C1118317   4.887   4.208   2.637 -0.5080 -0.3353 -0.0799
  164SAPE  H11A18318   4.865   4.189   2.745  1.0388 -1.5872  0.0494
  164SAPE  H11B18319   4.826   4.299   2.618  0.0137 -0.1697 -1.0124
  164SAPE     P18320   5.143   4.165   2.698  0.3868 -0.1958  0.0279
  164SAPE   O1318321   5.123   4.021   2.700  0.1225  0.5297  0.9200
  164SAPE   O1418322   5.269   4.210   2.637  0.4845  0.3698 -0.1223
  164SAPE   O1218323   5.028   4.224   2.604 -0.9042  0.2533  0.0760
  164SAPE   O1118324   5.120   4.227   2.840 -0.0747 -0.2583 -0.0965
  164SAPE    C118325   5.104   4.369   2.859 -0.4868 -0.4945 -1.2900
  164SAPE    HA18326   5.190   4.424   2.815  2.0235 -3.3049 -0.2678
  164SAPE    HB18327   5.011   4.409   2.814 -0.2947  2.4339  0.6435
  164SAPE    C218328   5.076   4.410   3.007  0.4473  0.4241 -1.0129
  164SAPE    HS18329   5.057   4.519   3.005 -0.2315  0.3864  0.8698
  164SAPE   O2118330   5.185   4.371   3.083 -0.0107 -0.3378 -0.1321
  164SAPE   C2118331   5.248   4.471   3.156 -0.9732 -0.4166  0.1551
  164SAPE   O2218332   5.214   4.586   3.163  0.3723  0.2834  0.3421
  164SAPE   C2218333   5.379   4.417   3.212 -1.8039  0.6616 -0.0098
  164SAPE   H2R18334   5.393   4.311   3.182 -1.5970  0.2602  1.4681
  164SAPE   H2S18335   5.461   4.463   3.152  0.6335 -0.8931  1.9843
  164SAPE    C318336   4.954   4.330   3.061 -0.3163  0.3715  0.0778
  164SAPE    HX18337   4.986   4.224   3.056 -0.3729  0.3261  0.5975
  164SAPE    HY18338   4.877   4.342   2.982 -0.4121 -2.3351 -0.3208
  164SAPE   O3118339   4.921   4.371   3.192  0.2668  0.1111  0.4442
  164SAPE   C3118340   4.801   4.342   3.237 -0.3288 -0.0065 -0.0380
  164SAPE   O3218341   4.717   4.280   3.177  0.1170  0.0657 -0.2216
  164SAPE   C3218342   4.777   4.401   3.379  0.1896 -0.6904  0.6761
  164SAPE   H2X18343   4.667   4.415   3.385 -0.4226 -3.7077 -1.3816
  164SAPE   H2Y18344   4.830   4.499   3.389 -2.3325  0.6404  1.8665
  164SAPE   C2318345   5.409   4.438   3.364 -0.0223  0.4953  0.3223
  164SAPE   H3R18346   5.427   4.547   3.375  1.6337  0.3961 -0.9594
  164SAPE   H3S18347   5.505   4.387   3.389 -1.2446 -2.2727 -0.2641
  164SAPE   C2418348   5.296   4.386   3.457 -0.0105 -0.3951  0.2006
  164SAPE   H4R18349   5.200   4.426   3.418 -1.1285 -2.3152  0.8025
  164SAPE   H4S18350   5.308   4.415   3.564  2.2089  1.6164 -0.5166
  164SAPE   C2518351   5.293   4.237   3.444 -0.2416 -0.6205 -0.3691
  164SAPE   H5R18352   5.291   4.204   3.339  0.8673 -0.1007 -0.5733
  164SAPE   C2618353   5.269   4.150   3.538  1.0978 -0.1502 -0.5142
  164SAPE   H6R18354   5.269   4.043   3.509 -1.4839 -0.7735  1.4178
  164SAPE   C2718355   5.248   4.184   3.683  0.4780  0.2841 -0.3291
  164SAPE   H7R18356   5.196   4.096   3.727  1.5248  0.7447  2.0038
  164SAPE   H7S18357   5.181   4.273   3.682  0.7943  0.5450  0.3997
  164SAPE   C2818358   5.369   4.207   3.769 -0.4153  0.3543  0.0861
  164SAPE   H8R18359   5.464   4.216   3.715 -1.4576  3.3735 -1.4993
  164SAPE   C2918360   5.366   4.218   3.900 -0.1573 -0.3551 -0.2152
  164SAPE   H9R18361   5.463   4.223   3.951 -0.4055 -0.2814  0.2520
  164SAPE  C21018362   5.243   4.224   3.989 -0.0174 -0.0326  0.5938
  164SAPE  H10R18363   5.159   4.259   3.925 -0.2529 -2.0828 -0.3026
  164SAPE  H10S18364   5.259   4.298   4.070 -0.1627 -0.5475  1.1010
  164SAPE  C21118365   5.215   4.086   4.041 -0.3248  0.9401 -0.0034
  164SAPE  H11R18366   5.229   4.016   3.958  1.3817 -1.2160  1.9564
  164SAPE  C21218367   5.205   4.050   4.172 -0.3614 -0.1176 -0.2840
  164SAPE  H12R18368   5.200   3.947   4.209 -0.9106  0.9729  3.0132
  164SAPE  C21318369   5.204   4.144   4.286 -0.5804 -0.4551 -0.1166
  164SAPE  H13R18370   5.124   4.105   4.353 -0.6928  0.7436  0.4671
  164SAPE  H13S18371   5.166   4.243   4.254 -1.0311  0.0750  1.9262
  164SAPE  C21418372   5.332   4.167   4.363 -0.8231  0.7555  0.0754
  164SAPE  H14R18373   5.424   4.165   4.304  0.2558  0.1100  1.7185
  164SAPE  C21518374   5.350   4.189   4.495  0.4092  0.2410  0.2410
  164SAPE  H15R18375   5.450   4.218   4.532  1.5866 -1.1847 -1.6795
  164SAPE  C21618376   5.233   4.202   4.585  0.3866  0.1515  0.2143
  164SAPE  H16R18377   5.207   4.103   4.629  0.3793  0.8822  1.9159
  164SAPE  H16S18378   5.152   4.240   4.520  0.8743  0.7134 -0.0748
  164SAPE  C21718379   5.256   4.292   4.703  0.7881 -0.3097  0.0421
  164SAPE  H17R18380   5.160   4.304   4.758  0.5350 -1.5009 -0.1190
  164SAPE  H17S18381   5.283   4.393   4.664 -2.7630  0.1239 -1.6356
  164SAPE  C21818382   5.370   4.245   4.803 -0.0415  0.0349 -0.2788
  164SAPE  H18R18383   5.467   4.231   4.749 -0.6656 -0.8463 -1.2270
  164SAPE  H18S18384   5.362   4.144   4.849  3.2648 -0.1628  0.0805
  164SAPE  C21918385   5.394   4.349   4.905 -0.7871 -0.2498 -0.9005
  164SAPE  H19R18386   5.305   4.366   4.968  0.9619  0.9744  1.4054
  164SAPE  H19S18387   5.418   4.446   4.857  1.4060  1.1643  2.5873
  164SAPE  C22018388   5.516   4.323   4.997 -0.9958  0.4327  0.4890
  164SAPE  H20R18389   5.496   4.246   5.075 -2.1263  0.4218  0.2115
  164SAPE  H20S18390   5.540   4.416   5.052 -0.3577  0.4921  0.1199
  164SAPE  H20T18391   5.602   4.287   4.937  0.0089  0.1247  2.0483
  164SAPE   C3318392   4.823   4.315   3.496  0.4613  1.1808  0.0238
  164SAPE   H3X18393   4.931   4.338   3.512  0.1638  1.8962  1.1371
  164SAPE   H3Y18394   4.810   4.207   3.475  0.1581  1.2610 -0.1921
  164SAPE   C3418395   4.751   4.356   3.626 -0.0486 -0.2914 -0.5463
  164SAPE   H4X18396   4.645   4.323   3.619  0.0024 -0.4190 -0.7228
  164SAPE   H4Y18397   4.748   4.466   3.634 -1.9698 -0.3541  0.0064
  164SAPE   C3518398   4.803   4.285   3.752 -0.0109 -0.0381 -0.0500
  164SAPE   H5X18399   4.914   4.287   3.750  0.0850 -2.0923  0.4976
  164SAPE   H5Y18400   4.788   4.176   3.734  1.0187 -0.1639 -0.2141
  164SAPE   C3618401   4.742   4.328   3.885 -0.1292  0.3695 -0.2079
  164SAPE   H6X18402   4.632   4.326   3.894 -0.2591 -1.0697 -1.6317
  164SAPE   H6Y18403   4.767   4.435   3.896  4.8295 -0.6084  0.4443
  164SAPE   C3718404   4.813   4.247   3.996  0.0500 -0.2281  0.1915
  164SAPE   H7X18405   4.922   4.268   4.006 -0.1286  0.9010 -0.0476
  164SAPE   H7Y18406   4.794   4.139   3.977  0.0622 -0.2251  0.1638
  164SAPE   C3818407   4.739   4.280   4.129 -0.5877  0.2353  0.4403
  164SAPE   H8X18408   4.630   4.258   4.120 -0.5212 -0.2601  0.7666
  164SAPE   H8Y18409   4.757   4.386   4.156 -0.8602 -0.2681  2.9216
  164SAPE   C3918410   4.801   4.199   4.245  0.5062  0.3368  0.9702
  164SAPE   H9X18411   4.910   4.222   4.248  0.1548  2.2757  0.2540
  164SAPE   H9Y18412   4.774   4.093   4.223  2.2928 -0.0227  0.3278
  164SAPE  C31018413   4.738   4.240   4.376  0.2996 -0.2791 -1.0357
  164SAPE  H10X18414   4.628   4.225   4.375  0.2239 -0.0011  0.7604
  164SAPE  H10Y18415   4.756   4.349   4.392  1.4993 -0.0667 -3.4168
  164SAPE  C31118416   4.794   4.157   4.492  0.2157  0.2391 -0.2042
  164SAPE  H11X18417   4.905   4.161   4.489  0.3410 -1.1884  1.2690
  164SAPE  H11Y18418   4.755   4.055   4.472 -0.4276  0.4458 -0.0274
  164SAPE  C31218419   4.744   4.214   4.628 -0.2411  0.1619 -0.0875
  164SAPE  H12X18420   4.644   4.166   4.631  1.2447 -3.2238 -0.7128
  164SAPE  H12Y18421   4.731   4.325   4.622  0.6963  0.2670 -0.3502
  164SAPE  C31318422   4.832   4.187   4.750 -0.0107 -0.1462 -0.3740
  164SAPE  H13X18423   4.771   4.207   4.840 -1.9644  1.9277 -2.0431
  164SAPE  H13Y18424   4.918   4.257   4.752  1.2953 -1.6332 -1.4282
  164SAPE  C31418425   4.903   4.054   4.754 -0.6678  0.6192 -0.3388
  164SAPE  H14X18426   4.975   4.056   4.669 -2.8941 -0.8363 -2.4033
  164SAPE  H14Y18427   4.837   3.965   4.743  0.1511 -0.0057 -0.2915
  164SAPE  C31518428   4.983   4.057   4.879  0.2616 -0.1231  0.3569
  164SAPE  H15X18429   4.925   4.059   4.974 -0.7321 -1.7469 -0.1740
  164SAPE  H15Y18430   5.036   4.155   4.877 -0.7628  0.5208  2.2271
  164SAPE  C31618431   5.088   3.949   4.895 -0.1013  0.5128  0.2368
  164SAPE  H16X18432   5.171   3.982   4.828 -2.7291  3.3393 -1.9450
  164SAPE  H16Y18433   5.047   3.851   4.863 -0.2261  0.2760  1.1087
  164SAPE  C31718434   5.151   3.927   5.037 -0.3119 -0.3171  0.2950
  164SAPE  H17X18435   5.070   3.948   5.109 -0.9156 -2.2871  0.2324
  164SAPE  H17Y18436   5.229   4.005   5.052  0.5457 -1.3568  1.4058
  164SAPE  C31818437   5.216   3.786   5.055 -0.6334  0.4811  0.1801
  164SAPE  H18X18438   5.265   3.783   5.155 -0.5588 -0.9680  0.1238
  164SAPE  H18Y18439   5.291   3.760   4.977 -0.8962  1.1198 -0.2946
  164SAPE  H18Z18440   5.139   3.706   5.052  0.3638 -0.5029  0.2199
  165SAPE     N18441   3.940   3.276   2.613 -0.2635  0.1833 -0.2653
  165SAPE   HN118442   3.862   3.319   2.668  0.9852 -0.6356  2.2749
  165SAPE   HN218443   4.026   3.334   2.605 -0.9020  1.0951 -0.8209
  165SAPE   HN318444   3.903   3.254   2.518 -2.2969 -0.7458  0.6934
  165SAPE   C1218445   3.980   3.128   2.654  0.3643  0.3902 -0.9810
  165SAPE  H12A18446   4.040   3.087   2.570 -1.0729 -0.2010 -1.7446
  165SAPE  H12B18447   3.881   3.078   2.644  0.0167  1.2964 -2.2830
  165SAPE   C1118448   4.036   3.125   2.796  0.1210 -0.6225 -0.5213
  165SAPE  H11A18449   4.135   3.174   2.801  0.0388 -0.4639 -0.4429
  165SAPE  H11B18450   4.056   3.018   2.817 -0.8062 -0.7177 -0.0346
  165SAPE     P18451   3.838   3.078   2.967  0.1422  0.2602 -0.0984
  165SAPE   O1318452   3.769   3.006   2.859  0.0706  1.2041  0.7472
  165SAPE   O1418453   3.888   3.001   3.079  0.2421 -0.7704 -0.0795
  165SAPE   O1218454   3.946   3.176   2.901 -0.3183  0.0374  0.7107
  165SAPE   O1118455   3.737   3.187   3.017 -0.0905  0.8679 -0.1057
  165SAPE    C118456   3.642   3.159   3.119 -0.5971 -0.2306  0.2449
  165SAPE    HA18457   3.545   3.196   3.081 -0.2543 -0.0124 -0.4209
  165SAPE    HB18458   3.623   3.053   3.148  0.9937 -0.6391 -0.1102
  165SAPE    C218459   3.666   3.238   3.259 -0.0423  0.0932  0.5760
  165SAPE    HS18460   3.568   3.238   3.310 -1.1381 -5.9496 -0.7535
  165SAPE   O2118461   3.721   3.366   3.231 -0.6519  0.0723 -0.1597
  165SAPE   C2118462   3.643   3.466   3.191 -0.3224 -0.2785  0.3023
  165SAPE   O2218463   3.525   3.454   3.159  0.2611  0.0837  0.0921
  165SAPE   C2218464   3.724   3.593   3.199  0.0440 -0.4320 -0.3361
  165SAPE   H2R18465   3.825   3.584   3.152 -0.9193  1.6371 -3.1039
  165SAPE   H2S18466   3.667   3.660   3.130  0.0416  0.0597  0.1385
  165SAPE    C318467   3.756   3.160   3.355 -0.9334  0.3451 -0.5927
  165SAPE    HX18468   3.860   3.171   3.316 -1.1691  1.6172 -0.9067
  165SAPE    HY18469   3.728   3.052   3.351  0.6850 -0.0820 -1.3095
  165SAPE   O3118470   3.746   3.199   3.486 -0.2420  0.2074 -0.1857
  165SAPE   C3118471   3.644   3.163   3.570  0.2572 -0.4250  0.2610
  165SAPE   O3218472   3.554   3.087   3.536 -0.3470 -0.0202  0.0961
  165SAPE   C3218473   3.670   3.233   3.704 -0.4738 -0.8193  0.2616
  165SAPE   H2X18474   3.739   3.319   3.686  0.0938 -0.9836  1.5740
  165SAPE   H2Y18475   3.728   3.164   3.767 -1.3962 -0.4494  1.5506
  165SAPE   C2318476   3.716   3.664   3.344  0.2857  0.1879 -0.5406
  165SAPE   H3R18477   3.762   3.596   3.418 -1.5871 -0.5267  0.0408
  165SAPE   H3S18478   3.607   3.675   3.367  0.1044 -0.2942 -1.1561
  165SAPE   C2418479   3.804   3.793   3.337  0.5097  0.2015  0.0056
  165SAPE   H4R18480   3.783   3.867   3.256 -0.7760  2.5974  2.3728
  165SAPE   H4S18481   3.906   3.758   3.312  0.6967 -0.2276  1.3264
  165SAPE   C2518482   3.796   3.870   3.467  0.0503 -0.0529 -0.1232
  165SAPE   H5R18483   3.744   3.966   3.462  0.3688  0.2183  1.4473
  165SAPE   C2618484   3.847   3.830   3.589  0.0154  0.7060  0.8235
  165SAPE   H6R18485   3.827   3.891   3.679  2.0295  0.5745  1.4119
  165SAPE   C2718486   3.917   3.697   3.618  0.0989  0.3295 -0.8640
  165SAPE   H7R18487   4.004   3.722   3.683  0.0438  0.2864 -0.7738
  165SAPE   H7S18488   3.953   3.645   3.527 -1.1296 -0.9695 -0.6378
  165SAPE   C2818489   3.822   3.605   3.699 -0.6155  0.0760  0.3005
  165SAPE   H8R18490   3.775   3.534   3.629  1.7272 -1.0525 -0.2156
  165SAPE   C2918491   3.798   3.603   3.829  0.0888 -0.4834  0.1389
  165SAPE   H9R18492   3.721   3.533   3.864 -0.7114  1.5725  2.7974
  165SAPE  C21018493   3.862   3.690   3.932 -0.3121 -0.5114 -0.0054
  165SAPE  H10R18494   3.937   3.756   3.883  0.7172 -0.4778  1.5513
  165SAPE  H10S18495   3.927   3.620   3.989  0.6063  0.3118 -0.0267
  165SAPE  C21118496   3.770   3.776   4.014  0.1555  0.4188 -0.3587
  165SAPE  H11R18497   3.711   3.854   3.963  2.7768  3.5756  1.0571
  165SAPE  C21218498   3.763   3.786   4.150 -0.0067 -0.0846 -0.3110
  165SAPE  H12R18499   3.682   3.850   4.188  0.7056  1.8321 -1.8487
  165SAPE  C21318500   3.838   3.706   4.251  0.7565  0.2907  0.1900
  165SAPE  H13R18501   3.846   3.762   4.346  0.8283  0.6408 -0.0207
  165SAPE  H13S18502   3.941   3.686   4.216  1.0821 -0.5563  1.5325
  165SAPE  C21418503   3.780   3.568   4.284  0.3766 -0.2267  0.3637
  165SAPE  H14R18504   3.776   3.508   4.192 -0.2606  4.4880 -3.0600
  165SAPE  C21518505   3.720   3.518   4.393 -0.3504 -0.2519 -0.3843
  165SAPE  H15R18506   3.689   3.413   4.399  0.0875 -0.3204  1.1435
  165SAPE  C21618507   3.708   3.580   4.530 -0.6401 -0.1663 -0.1105
  165SAPE  H16R18508   3.605   3.604   4.564 -0.4095  0.5311  0.1123
  165SAPE  H16S18509   3.756   3.679   4.543  0.0192 -0.5592  0.5353
  165SAPE  C21718510   3.769   3.476   4.629  0.5101  0.3623  0.4690
  165SAPE  H17R18511   3.757   3.371   4.594 -1.3606  1.1304 -1.3732
  165SAPE  H17S18512   3.709   3.494   4.721 -0.9913 -0.9001 -0.1990
  165SAPE  C21818513   3.911   3.500   4.651 -0.4584 -0.1121  0.2902
  165SAPE  H18R18514   3.928   3.607   4.673 -0.3318 -0.6463  3.1607
  165SAPE  H18S18515   3.975   3.464   4.568  0.0471 -0.8420  0.9810
  165SAPE  C21918516   3.960   3.425   4.777  0.0528  0.3065 -0.1225
  165SAPE  H19R18517   4.070   3.408   4.768 -0.2268 -0.9161 -1.5864
  165SAPE  H19S18518   3.916   3.324   4.785 -3.0173  1.5170 -0.3679
  165SAPE  C22018519   3.942   3.497   4.913 -0.1335  0.2262  0.1764
  165SAPE  H20R18520   4.019   3.576   4.917 -0.6156  0.7194 -0.1745
  165SAPE  H20S18521   3.957   3.425   4.997  0.3242  1.2512  0.9895
  165SAPE  H20T18522   3.838   3.535   4.914 -0.1910  0.1453  2.0126
  165SAPE   C3318523   3.545   3.289   3.782  0.1556  0.1807 -0.1070
  165SAPE   H3X18524   3.500   3.368   3.717 -1.4290 -0.6860 -0.1110
  165SAPE   H3Y18525   3.563   3.328   3.884 -0.8080 -0.9224  0.5062
  165SAPE   C3418526   3.432   3.183   3.815 -0.2660 -0.4063 -0.1145
  165SAPE   H4X18527   3.476   3.105   3.880  1.2936 -1.3355 -2.1846
  165SAPE   H4Y18528   3.402   3.139   3.718 -2.8985  4.7176 -2.0196
  165SAPE   C3518529   3.300   3.240   3.878 -1.0466  1.0241  0.8208
  165SAPE   H5X18530   3.223   3.161   3.861  0.4027 -0.2667 -0.0139
  165SAPE   H5Y18531   3.276   3.329   3.817  0.9004 -0.7284 -2.7690
  165SAPE   C3618532   3.316   3.258   4.035  0.0310  0.1676 -0.0097
  165SAPE   H6X18533   3.254   3.345   4.064  0.6674  1.5761 -2.5312
  165SAPE   H6Y18534   3.419   3.270   4.074 -0.8776  1.2249  2.1941
  165SAPE   C3718535   3.267   3.132   4.104  0.3329  0.2216 -0.5342
  165SAPE   H7X18536   3.333   3.046   4.080 -0.1383  0.2797 -2.1408
  165SAPE   H7Y18537   3.172   3.121   4.047  1.0342 -2.4020 -1.3437
  165SAPE   C3818538   3.232   3.153   4.256  0.6476  0.0056  1.1578
  165SAPE   H8X18539   3.176   3.248   4.267 -2.1970 -1.4572  0.0713
  165SAPE   H8Y18540   3.334   3.165   4.301  0.0842 -3.2058  3.6183
  165SAPE   C3918541   3.164   3.036   4.320 -0.2882  0.0548 -0.0693
  165SAPE   H9X18542   3.236   2.952   4.324 -1.3629 -0.8471  2.1188
  165SAPE   H9Y18543   3.079   3.008   4.253 -1.3814  0.4008  1.1189
  165SAPE  C31018544   3.119   3.053   4.463 -0.7867 -0.5383  0.6740
  165SAPE  H10X18545   3.082   2.952   4.493 -1.3867 -0.2737  0.8391
  165SAPE  H10Y18546   3.031   3.119   4.456  0.2147  1.0094  1.9313
  165SAPE  C31118547   3.231   3.092   4.561 -0.1711 -0.0787  0.6259
  165SAPE  H11X18548   3.291   3.179   4.527 -1.7122  1.5911  1.9559
  165SAPE  H11Y18549   3.291   2.998   4.560  1.0873  0.6859 -1.0569
  165SAPE  C31218550   3.178   3.125   4.698 -0.6064 -0.0641 -0.4917
  165SAPE  H12X18551   3.108   3.055   4.749  0.3338  1.4111  3.1383
  165SAPE  H12Y18552   3.127   3.224   4.703 -0.1592  0.1155  1.4130
  165SAPE  C31318553   3.304   3.129   4.792 -0.1750 -0.0526  0.0918
  165SAPE  H13X18554   3.370   3.213   4.765 -0.2846  0.2588  0.7684
  165SAPE  H13Y18555   3.357   3.036   4.761  1.3330  1.1716 -1.1106
  165SAPE  C31418556   3.269   3.109   4.938 -0.3214 -0.6762 -0.3465
  165SAPE  H14X18557   3.175   3.056   4.965 -0.4266  0.2019  1.0728
  165SAPE  H14Y18558   3.257   3.206   4.990 -2.8224 -0.7853 -0.6038
  165SAPE  C31518559   3.373   3.014   5.002 -0.3349  0.3011 -0.0346
  165SAPE  H15X18560   3.373   2.920   4.944  0.4247 -0.5473  1.3018
  165SAPE  H15Y18561   3.357   2.987   5.109  0.0981  2.6819  0.7033
  165SAPE  C31618562   3.520   3.071   5.012 -0.1055 -0.5397 -0.4879
  165SAPE  H16X18563   3.548   3.120   4.916 -2.4012  1.4331 -0.2645
  165SAPE  H16Y18564   3.589   2.992   5.049  1.6892  1.4693  0.6885
  165SAPE  C31718565   3.541   3.188   5.112  0.1176  0.0789  0.4964
  165SAPE  H17X18566   3.509   3.156   5.214  0.5019  0.0306  0.6003
  165SAPE  H17Y18567   3.471   3.272   5.094 -2.4570 -1.3702  2.7930
  165SAPE  C31818568   3.686   3.238   5.119  0.5192  0.0022  0.1816
  165SAPE  H18X18569   3.686   3.313   5.201 -2.7056  1.5780 -1.0691
  165SAPE  H18Y18570   3.726   3.284   5.026  1.1290 -1.9528 -0.5627
  165SAPE  H18Z18571   3.757   3.156   5.141  1.3610  1.1257  1.9113
  166SAPE     N18572   3.907   3.710   2.452 -0.7025  0.1522 -0.2169
  166SAPE   HN118573   3.875   3.692   2.549 -0.6962  0.5719 -0.1339
  166SAPE   HN218574   3.934   3.811   2.456  0.7399 -0.2408  3.5394
  166SAPE   HN318575   3.824   3.701   2.390 -1.5200  1.3815  0.6499
  166SAPE   C1218576   4.034   3.630   2.413  0.0797 -0.5611  0.0535
  166SAPE  H12A18577   4.046   3.645   2.304 -1.0524  0.4778  0.0469
  166SAPE  H12B18578   4.014   3.523   2.435  1.7855 -0.6826  1.2735
  166SAPE   C1118579   4.166   3.678   2.472 -0.8298 -0.7468  0.1287
  166SAPE  H11A18580   4.171   3.783   2.435 -1.4681 -0.8588 -0.2973
  166SAPE  H11B18581   4.249   3.624   2.421  0.1181  0.1372  0.6955
  166SAPE     P18582   4.222   3.537   2.683  0.0786 -0.2316  0.2534
  166SAPE   O1318583   4.156   3.424   2.613  0.5249  0.3825  0.1156
  166SAPE   O1418584   4.370   3.536   2.699 -0.3128 -0.2632  0.4186
  166SAPE   O1218585   4.184   3.675   2.615 -0.2998 -0.4346 -0.1663
  166SAPE   O1118586   4.156   3.553   2.824  0.4186  0.0162  0.2714
  166SAPE    C118587   4.203   3.638   2.930  0.1778 -0.0740 -0.3897
  166SAPE    HA18588   4.263   3.728   2.906  1.3751 -0.3999  1.1934
  166SAPE    HB18589   4.119   3.686   2.986 -0.8662 -5.3320  3.2855
  166SAPE    C218590   4.291   3.569   3.034  0.4089 -0.4120 -0.0180
  166SAPE    HS18591   4.383   3.539   2.979  0.8716 -1.4051  1.2199
  166SAPE   O2118592   4.221   3.466   3.102 -0.2153  0.4522 -0.0875
  166SAPE   C2118593   4.246   3.347   3.066 -0.2191  0.5985  0.4846
  166SAPE   O2218594   4.332   3.315   2.980 -0.2829 -0.2485  0.2410
  166SAPE   C2218595   4.150   3.255   3.147  0.3212  0.2327 -1.0918
  166SAPE   H2R18596   4.055   3.310   3.165  1.6903  2.5149 -0.4842
  166SAPE   H2S18597   4.120   3.172   3.080 -0.1014  1.4135 -2.4323
  166SAPE    C318598   4.328   3.673   3.145 -0.8912  0.0101 -0.1891
  166SAPE    HX18599   4.244   3.729   3.192 -0.0032  0.6691  0.6485
  166SAPE    HY18600   4.396   3.743   3.092  0.3526  0.1517  1.5205
  166SAPE   O3118601   4.410   3.589   3.236  0.3497  0.2781 -0.6799
  166SAPE   C3118602   4.486   3.663   3.316 -0.3705 -0.1866  0.3223
  166SAPE   O3218603   4.500   3.784   3.308 -0.1744  0.0804 -1.0560
  166SAPE   C3218604   4.537   3.583   3.424  0.0540 -0.1901 -0.9615
  166SAPE   H2X18605   4.645   3.608   3.433 -0.2073  0.3478  1.8429
  166SAPE   H2Y18606   4.530   3.475   3.398  0.1905 -0.5169  0.2997
  166SAPE   C2318607   4.227   3.218   3.277  0.3898  0.2581  0.1126
  166SAPE   H3R18608   4.332   3.183   3.264 -0.1080 -1.3705  0.2749
  166SAPE   H3S18609   4.171   3.128   3.309  0.4920  0.2805  0.3546
  166SAPE   C2418610   4.223   3.331   3.386 -0.2976  0.3671  0.1577
  166SAPE   H4R18611   4.234   3.422   3.323  0.0762 -0.3935 -0.8987
  166SAPE   H4S18612   4.309   3.311   3.453 -0.0802 -3.3865 -1.0044
  166SAPE   C2518613   4.102   3.338   3.470  0.5691 -0.4751  0.4415
  166SAPE   H5R18614   4.019   3.358   3.400  0.3364  0.7580  1.0344
  166SAPE   C2618615   4.091   3.313   3.603  0.1650  0.5703 -0.7363
  166SAPE   H6R18616   3.989   3.305   3.645  0.2467 -3.9817 -0.8405
  166SAPE   C2718617   4.192   3.271   3.705 -0.0486 -0.6393 -0.1069
  166SAPE   H7R18618   4.292   3.270   3.656 -0.0310 -3.0650 -0.1795
  166SAPE   H7S18619   4.169   3.169   3.743 -1.6813 -0.1019  0.4358
  166SAPE   C2818620   4.181   3.363   3.823 -0.2396  0.5628  0.3972
  166SAPE   H8R18621   4.244   3.451   3.806 -0.8058  0.7919 -0.5737
  166SAPE   C2918622   4.108   3.343   3.939  0.0232  0.6556  0.1175
  166SAPE   H9R18623   4.124   3.423   4.012  2.0122  2.2593 -1.9031
  166SAPE  C21018624   4.011   3.230   3.962 -0.2545  0.2198  0.6094
  166SAPE  H10R18625   4.054   3.167   4.043  1.1401  1.1957  0.6760
  166SAPE  H10S18626   4.002   3.158   3.878 -2.2547  2.8035 -1.5655
  166SAPE  C21118627   3.870   3.281   3.991 -0.5707 -0.8492  0.2062
  166SAPE  H11R18628   3.836   3.370   3.935  1.4513 -0.8533 -1.1363
  166SAPE  C21218629   3.781   3.215   4.068  0.0389  0.4712  0.0328
  166SAPE  H12R18630   3.680   3.256   4.087 -0.0919  0.3383 -0.3737
  166SAPE  C21318631   3.793   3.092   4.158  0.8091  0.1508  0.0213
  166SAPE  H13R18632   3.845   3.121   4.252  0.4690  0.3811  0.1413
  166SAPE  H13S18633   3.869   3.017   4.128  1.6925  1.2181 -0.4651
  166SAPE  C21418634   3.663   3.032   4.197 -0.3397  0.4495 -0.5823
  166SAPE  H14R18635   3.591   3.012   4.115  0.0993  2.1410 -1.4279
  166SAPE  C21518636   3.608   3.011   4.316 -0.3762  0.1394  0.1435
  166SAPE  H15R18637   3.515   2.953   4.321  0.0461 -0.5337  0.4879
  166SAPE  C21618638   3.681   3.051   4.442  0.2955 -0.4122  0.5834
  166SAPE  H16R18639   3.601   3.076   4.515 -0.3070  1.4984 -0.6739
  166SAPE  H16S18640   3.746   3.141   4.437 -1.4361  0.8299 -3.6518
  166SAPE  C21718641   3.766   2.935   4.498 -0.7943 -0.4812  0.5800
  166SAPE  H17R18642   3.826   2.895   4.414  0.4592  0.8963  0.7830
  166SAPE  H17S18643   3.710   2.849   4.540 -3.1064  0.7930  0.2838
  166SAPE  C21818644   3.852   2.991   4.605 -0.4251  0.1075  0.3110
  166SAPE  H18R18645   3.805   3.020   4.701 -0.1057  1.6922  0.0203
  166SAPE  H18S18646   3.916   3.077   4.577  0.0476  0.3805  2.0773
  166SAPE  C21918647   3.969   2.892   4.630 -0.0514  0.3873 -0.1827
  166SAPE  H19R18648   4.010   2.873   4.528  0.3789  0.3341  0.0016
  166SAPE  H19S18649   3.913   2.799   4.654 -1.7933  1.5213  0.3668
  166SAPE  C22018650   4.072   2.930   4.735 -0.1882  0.4173  0.4247
  166SAPE  H20R18651   4.029   2.925   4.837 -0.7194 -0.7056  0.1518
  166SAPE  H20S18652   4.112   3.033   4.726  1.7717 -0.0233  2.7930
  166SAPE  H20T18653   4.162   2.864   4.736  1.3956  2.4673  0.2535
  166SAPE   C3318654   4.466   3.602   3.562  0.0233 -0.6621  0.2204
  166SAPE   H3X18655   4.359   3.577   3.550  0.5838 -2.2161 -2.3808
  166SAPE   H3Y18656   4.490   3.709   3.580 -0.9820 -0.1890 -1.0864
  166SAPE   C3418657   4.537   3.515   3.661 -0.3579 -0.3233  0.2017
  166SAPE   H4X18658   4.645   3.525   3.637 -0.3808  1.6238  0.7611
  166SAPE   H4Y18659   4.515   3.406   3.663  1.8588 -0.8114  1.7781
  166SAPE   C3518660   4.510   3.571   3.796 -0.0840 -0.4352  0.0427
  166SAPE   H5X18661   4.402   3.590   3.812  0.0854 -0.0933  0.8486
  166SAPE   H5Y18662   4.560   3.670   3.806  0.4508 -0.6470 -0.4864
  166SAPE   C3618663   4.555   3.472   3.900  0.0915 -0.6728  0.2877
  166SAPE   H6X18664   4.665   3.456   3.895  0.3587  0.9705  0.3747
  166SAPE   H6Y18665   4.513   3.373   3.871 -0.7659  0.6710 -3.6538
  166SAPE   C3718666   4.524   3.524   4.039  0.3219 -0.7623 -0.0335
  166SAPE   H7X18667   4.414   3.539   4.045  0.0920 -2.5131  0.5296
  166SAPE   H7Y18668   4.562   3.624   4.070  1.8958 -0.9517 -1.2019
  166SAPE   C3818669   4.547   3.420   4.152  0.1496  0.3900 -0.1861
  166SAPE   H8X18670   4.656   3.424   4.176  0.1481 -0.7882  0.0865
  166SAPE   H8Y18671   4.526   3.320   4.108 -0.9773  0.7146 -0.3973
  166SAPE   C3918672   4.468   3.441   4.276 -0.3853 -1.0401  0.1475
  166SAPE   H9X18673   4.360   3.431   4.251 -0.7649  0.1280  1.2297
  166SAPE   H9Y18674   4.484   3.546   4.309  0.9441 -1.5078  1.0777
  166SAPE  C31018675   4.510   3.334   4.378 -0.2564 -0.8017  0.2948
  166SAPE  H10X18676   4.615   3.361   4.401 -0.8040  2.1419 -0.3187
  166SAPE  H10Y18677   4.494   3.241   4.318  0.9950  0.4158 -2.0899
  166SAPE  C31118678   4.431   3.344   4.504 -0.0916  0.4354 -0.6826
  166SAPE  H11X18679   4.324   3.326   4.481  0.1636 -2.7471  0.2312
  166SAPE  H11Y18680   4.432   3.447   4.547  1.2428  0.7997 -1.5260
  166SAPE  C31218681   4.470   3.245   4.613 -0.0368 -0.1317 -0.0421
  166SAPE  H12X18682   4.576   3.249   4.646  0.4354 -0.3671 -1.4534
  166SAPE  H12Y18683   4.448   3.145   4.570 -2.1676 -0.1656  1.0356
  166SAPE  C31318684   4.380   3.265   4.730 -0.1309 -0.7468 -0.6322
  166SAPE  H13X18685   4.275   3.289   4.700  0.1279  0.7933 -0.3810
  166SAPE  H13Y18686   4.421   3.362   4.765  1.0135 -1.6564  0.6598
  166SAPE  C31418687   4.388   3.158   4.837  0.6761  0.0455 -0.7157
  166SAPE  H14X18688   4.494   3.129   4.855  0.4457 -0.0710  0.5624
  166SAPE  H14Y18689   4.335   3.071   4.792  1.0632 -1.0680  0.9063
  166SAPE  C31518690   4.322   3.199   4.965  0.1275 -0.0655  0.0169
  166SAPE  H15X18691   4.220   3.236   4.941 -0.6306 -1.5813  0.7324
  166SAPE  H15Y18692   4.363   3.293   5.007 -1.9616  1.2852 -0.8010
  166SAPE  C31618693   4.306   3.088   5.080 -0.1203 -0.6262 -0.2152
  166SAPE  H16X18694   4.406   3.040   5.086  0.0752 -0.1664  0.2713
  166SAPE  H16Y18695   4.238   3.011   5.037 -1.3663  0.5307 -0.3773
  166SAPE  C31718696   4.249   3.150   5.213  0.4660  0.3214 -0.0696
  166SAPE  H17X18697   4.273   3.075   5.291 -0.9005 -1.2864 -1.1106
  166SAPE  H17Y18698   4.139   3.146   5.196  0.1270  0.2587  1.8716
  166SAPE  C31818699   4.305   3.283   5.246 -0.2838  1.1292  0.3897
  166SAPE  H18X18700   4.303   3.297   5.356 -4.1022 -0.6725  0.7120
  166SAPE  H18Y18701   4.236   3.356   5.199 -0.1684  0.9131 -0.1336
  166SAPE  H18Z18702   4.407   3.293   5.201 -0.0946  0.2216  0.6005
  167SAPE     N18703   5.523   3.341   2.991  0.0171  0.5634  0.6828
  167SAPE   HN118704   5.513   3.346   3.095 -0.9162 -4.0175  0.9813
  167SAPE   HN218705   5.589   3.261   2.982  0.0642  0.5729  0.9232
  167SAPE   HN318706   5.578   3.417   2.946 -0.1746 -0.8762 -2.1502
  167SAPE   C1218707   5.403   3.318   2.904  0.5990  1.1225  0.2797
  167SAPE  H12A18708   5.345   3.232   2.944  0.2359  1.2491  0.0262
  167SAPE  H12B18709   5.439   3.289   2.803 -1.6291 -0.3997 -0.1601
  167SAPE   C1118710   5.314   3.437   2.879  0.4463 -0.3021 -0.4586
  167SAPE  H11A18711   5.242   3.403   2.802  0.2042 -0.7742 -0.0350
  167SAPE  H11B18712   5.374   3.519   2.835  0.1231  0.6646  0.8363
  167SAPE     P18713   5.144   3.596   2.999 -0.2463  0.4816 -0.1666
  167SAPE   O1318714   5.163   3.669   2.868  0.1369 -0.2643 -0.4120
  167SAPE   O1418715   5.011   3.539   3.037  0.4318 -0.2464 -0.4052
  167SAPE   O1218716   5.259   3.481   3.005  0.2064 -0.2089  0.1381
  167SAPE   O1118717   5.186   3.698   3.116  0.1283  0.6676 -0.1967
  167SAPE    C118718   5.248   3.663   3.234 -0.4509  0.0883  0.0459
  167SAPE    HA18719   5.314   3.574   3.220  0.2810  0.8681 -1.9028
  167SAPE    HB18720   5.321   3.739   3.271 -1.3759  0.3789  1.3373
  167SAPE    C218721   5.146   3.638   3.351 -0.2986  0.2316 -0.9264
  167SAPE    HS18722   5.092   3.546   3.319 -0.0476  0.0960 -0.9608
  167SAPE   O2118723   5.046   3.748   3.356 -0.2535  0.0628 -0.1910
  167SAPE   C2118724   4.932   3.720   3.427 -0.1336 -0.8264  0.7691
  167SAPE   O2218725   4.890   3.609   3.458  0.0254  0.1008 -0.3797
  167SAPE   C2218726   4.855   3.854   3.456  0.0111 -0.4111  0.4814
  167SAPE   H2R18727   4.930   3.936   3.457 -1.1182  0.6439  1.5039
  167SAPE   H2S18728   4.778   3.853   3.376  0.9358  1.1871 -0.4795
  167SAPE    C318729   5.216   3.619   3.495 -0.2740  0.4785  0.8135
  167SAPE    HX18730   5.253   3.718   3.529  1.2611  0.2637 -0.1420
  167SAPE    HY18731   5.307   3.559   3.474  0.1682  1.3438  0.2237
  167SAPE   O3118732   5.133   3.556   3.593 -0.2018  0.0325 -0.1494
  167SAPE   C3118733   5.125   3.423   3.591 -0.4356  0.0593  0.5245
  167SAPE   O3218734   5.190   3.351   3.518  0.5385 -0.3935 -0.3258
  167SAPE   C3218735   5.045   3.372   3.712  0.2104  0.0146  0.0018
  167SAPE   H2X18736   4.940   3.408   3.707  0.7442  1.6701  0.2037
  167SAPE   H2Y18737   5.083   3.430   3.798  1.0458 -0.6571  0.0954
  167SAPE   C2318738   4.776   3.845   3.591  0.1061 -0.0683 -0.2093
  167SAPE   H3R18739   4.732   3.745   3.609  3.5333 -1.5363  0.8253
  167SAPE   H3S18740   4.686   3.906   3.567 -0.5143 -1.9381 -3.2289
  167SAPE   C2418741   4.855   3.895   3.722  0.3238 -0.1371 -0.5624
  167SAPE   H4R18742   4.775   3.906   3.798 -0.6767  0.8719 -1.7275
  167SAPE   H4S18743   4.893   3.998   3.711 -0.4279  0.4618  1.8821
  167SAPE   C2518744   4.967   3.804   3.771  0.3205 -0.0878 -0.1011
  167SAPE   H5R18745   5.047   3.786   3.698  0.8912  2.4108 -0.1839
  167SAPE   C2618746   4.974   3.733   3.886 -0.5855 -0.9379 -0.6107
  167SAPE   H6R18747   5.060   3.665   3.889 -0.2473 -0.4742  0.7426
  167SAPE   C2718748   4.877   3.739   4.001  0.1189  0.0110  0.1465
  167SAPE   H7R18749   4.851   3.635   4.030  2.1825 -0.8998 -1.0256
  167SAPE   H7S18750   4.785   3.780   3.953  0.3092 -1.8423 -1.9732
  167SAPE   C2818751   4.915   3.826   4.120  0.2760 -0.2205 -0.4185
  167SAPE   H8R18752   4.993   3.902   4.104  2.3031 -2.3163 -1.1763
  167SAPE   C2918753   4.867   3.801   4.248  0.2220  0.7111  0.0921
  167SAPE   H9R18754   4.908   3.859   4.332  0.3086 -1.1576  1.4028
  167SAPE  C21018755   4.763   3.702   4.287  0.4458  0.5295 -0.0534
  167SAPE  H10R18756   4.802   3.598   4.274  1.2718  0.7544  0.5739
  167SAPE  H10S18757   4.684   3.705   4.209  0.5947  2.5992 -0.1766
  167SAPE  C21118758   4.721   3.715   4.429 -0.3928 -0.5615 -0.5792
  167SAPE  H11R18759   4.634   3.780   4.448  0.3680  0.8089 -1.6385
  167SAPE  C21218760   4.776   3.648   4.535 -0.1023  0.2371 -0.1472
  167SAPE  H12R18761   4.728   3.654   4.634  0.1871  2.5584 -0.0812
  167SAPE  C21318762   4.889   3.550   4.541  0.2154  0.4616 -0.0229
  167SAPE  H13R18763   4.979   3.612   4.518  0.7833 -0.3795 -0.1190
  167SAPE  H13S18764   4.875   3.485   4.453  0.3528 -2.2416  1.8357
  167SAPE  C21418765   4.912   3.473   4.675 -0.8000  0.0663  0.0719
  167SAPE  H14R18766   4.825   3.431   4.728 -1.0462  0.3922 -0.0703
  167SAPE  C21518767   5.027   3.485   4.740 -0.4374  0.0420 -0.6291
  167SAPE  H15R18768   5.044   3.420   4.827 -1.5769  0.7930  0.1857
  167SAPE  C21618769   5.157   3.549   4.694  0.0164 -0.2172 -0.0767
  167SAPE  H16R18770   5.158   3.659   4.703 -0.1517 -0.2103 -0.1321
  167SAPE  H16S18771   5.168   3.517   4.588  1.1935  1.0121 -0.3416
  167SAPE  C21718772   5.276   3.499   4.778 -0.2469 -1.0726 -0.2490
  167SAPE  H17R18773   5.266   3.542   4.880 -2.3927  1.3633 -1.3727
  167SAPE  H17S18774   5.371   3.530   4.729  0.5672 -2.6760  0.2438
  167SAPE  C21818775   5.280   3.348   4.786  0.1660 -0.4947 -0.0341
  167SAPE  H18R18776   5.242   3.304   4.691 -0.4211  0.7683 -0.4101
  167SAPE  H18S18777   5.206   3.313   4.861 -0.5753 -3.0764 -1.8518
  167SAPE  C21918778   5.418   3.281   4.796 -0.0883  0.4133 -0.1671
  167SAPE  H19R18779   5.472   3.320   4.885 -1.4161 -3.0154  2.3642
  167SAPE  H19S18780   5.483   3.302   4.708  2.5241 -0.9887  1.3164
  167SAPE  C22018781   5.403   3.133   4.799  0.3614  0.4546 -0.6541
  167SAPE  H20R18782   5.501   3.081   4.805 -0.5692 -1.6352 -2.2385
  167SAPE  H20S18783   5.355   3.092   4.708  0.6158 -0.4489 -0.3907
  167SAPE  H20T18784   5.341   3.110   4.888 -1.6705  1.6479 -1.6978
  167SAPE   C3318785   5.052   3.220   3.734 -0.8369 -0.6372  0.3130
  167SAPE   H3X18786   5.144   3.181   3.782 -0.3316 -0.8731 -0.8320
  167SAPE   H3Y18787   5.020   3.163   3.644 -1.9126 -0.2812  0.4522
  167SAPE   C3418788   4.943   3.170   3.824  0.1152  0.1762 -0.3628
  167SAPE   H4X18789   4.961   3.061   3.837  0.6858  0.1875 -0.9860
  167SAPE   H4Y18790   4.842   3.184   3.779  0.1356  1.1462 -0.1205
  167SAPE   C3518791   4.949   3.227   3.970 -0.6994 -0.7251  0.3924
  167SAPE   H5X18792   4.908   3.329   3.988  0.1639 -0.7803  3.2975
  167SAPE   H5Y18793   5.057   3.252   3.973 -0.4949 -1.2129 -1.5011
  167SAPE   C3618794   4.904   3.125   4.084 -0.4342 -0.4686 -0.3134
  167SAPE   H6X18795   4.988   3.051   4.084  1.2013  1.2995 -1.5132
  167SAPE   H6Y18796   4.820   3.058   4.058  0.9915 -1.7320 -1.9037
  167SAPE   C3718797   4.870   3.193   4.215 -0.4828  0.7704  0.7864
  167SAPE   H7X18798   4.784   3.261   4.194 -0.2878  0.7070 -0.2910
  167SAPE   H7Y18799   4.962   3.255   4.222 -1.5353  2.4386  0.3623
  167SAPE   C3818800   4.827   3.107   4.336  0.6422  0.0980 -0.0211
  167SAPE   H8X18801   4.887   3.013   4.332 -0.2423 -0.4348 -1.7175
  167SAPE   H8Y18802   4.720   3.077   4.324  1.2049 -1.5981 -1.1385
  167SAPE   C3918803   4.860   3.179   4.466 -0.6940 -0.7290 -0.4153
  167SAPE   H9X18804   4.779   3.250   4.494 -1.0993 -2.5222  3.6908
  167SAPE   H9Y18805   4.951   3.239   4.447 -1.4124  1.3338  2.0691
  167SAPE  C31018806   4.880   3.070   4.577  0.3534  0.2146  0.5089
  167SAPE  H10X18807   4.978   3.026   4.549  0.4119  1.7126 -1.9151
  167SAPE  H10Y18808   4.794   2.999   4.573 -0.4758  1.2152 -2.5737
  167SAPE  C31118809   4.883   3.113   4.721  0.3704 -0.9832 -0.4192
  167SAPE  H11X18810   4.810   3.197   4.726  0.6992 -0.6742 -0.6894
  167SAPE  H11Y18811   4.982   3.158   4.741  0.6778 -0.4845 -2.7566
  167SAPE  C31218812   4.854   3.004   4.824  0.5250 -0.3428 -0.1220
  167SAPE  H12X18813   4.931   2.924   4.817  0.5706 -0.3482  0.3891
  167SAPE  H12Y18814   4.757   2.958   4.795  0.6653 -1.1854  0.7059
  167SAPE  C31318815   4.846   3.050   4.971 -0.3019 -0.7944  0.0203
  167SAPE  H13X18816   4.802   3.151   4.984 -0.5184 -0.9931  0.9107
  167SAPE  H13Y18817   4.949   3.070   5.005 -1.1469  0.7699  1.8133
  167SAPE  C31418818   4.792   2.942   5.064  0.3976 -0.2344  0.6292
  167SAPE  H14X18819   4.833   2.845   5.029  0.6000  0.3792 -0.9019
  167SAPE  H14Y18820   4.682   2.935   5.055  0.4934 -0.3574 -0.6277
  167SAPE  C31518821   4.816   2.953   5.217  0.5514 -0.3116  0.0557
  167SAPE  H15X18822   4.925   2.937   5.234  0.7628 -0.9921 -1.7075
  167SAPE  H15Y18823   4.762   2.876   5.276 -3.3784  0.0348 -2.6614
  167SAPE  C31618824   4.771   3.092   5.266 -0.4123  0.6830 -0.2231
  167SAPE  H16X18825   4.786   3.175   5.193 -0.2067  0.1242 -0.8219
  167SAPE  H16Y18826   4.847   3.115   5.343  0.9702 -0.0757 -1.3283
  167SAPE  C31718827   4.633   3.101   5.328  0.1105 -0.3055  0.7393
  167SAPE  H17X18828   4.624   3.014   5.396  0.6968 -0.6375  0.3910
  167SAPE  H17Y18829   4.556   3.089   5.249 -1.0508  0.3330  1.7270
  167SAPE  C31818830   4.613   3.240   5.393 -0.2956 -0.6040  0.2339
  167SAPE  H18X18831   4.702   3.275   5.450  0.0677  1.7152 -1.5829
  167SAPE  H18Y18832   4.518   3.251   5.448  0.9394  1.5372  2.1028
  167SAPE  H18Z18833   4.608   3.309   5.306  0.6980 -0.4772  0.2674
  168SAPE     N18834   3.568   5.762   2.615  0.1237 -0.4402  0.4976
  168SAPE   HN118835   3.498   5.817   2.562  0.2597 -0.1137  0.6551
  168SAPE   HN218836   3.527   5.734   2.706  1.8149 -0.6147  1.2410
  168SAPE   HN318837   3.649   5.826   2.632 -0.3609 -0.1237  1.6583
  168SAPE   C1218838   3.607   5.640   2.536  0.5639 -0.1601  0.6578
  168SAPE  H12A18839   3.693   5.590   2.585  1.3658 -0.5865 -1.1031
  168SAPE  H12B18840   3.636   5.663   2.431 -1.4964  1.5648  0.3918
  168SAPE   C1118841   3.482   5.551   2.519  0.2527  0.1914 -0.4028
  168SAPE  H11A18842   3.511   5.465   2.455 -0.9857 -0.2937 -0.3346
  168SAPE  H11B18843   3.415   5.609   2.452 -0.2414  1.0484  0.8019
  168SAPE     P18844   3.466   5.400   2.742 -0.7109  0.0810  0.2435
  168SAPE   O1318845   3.385   5.281   2.711  0.5675  0.0133 -0.2376
  168SAPE   O1418846   3.614   5.393   2.733 -0.0223  0.2217 -0.3758
  168SAPE   O1218847   3.418   5.519   2.650  0.5466  0.4372 -0.4587
  168SAPE   O1118848   3.433   5.454   2.890  0.3537  0.0635 -0.1363
  168SAPE    C118849   3.303   5.440   2.946  0.3076 -0.7759 -0.3496
  168SAPE    HA18850   3.254   5.537   2.968 -0.5096 -0.8965 -1.5380
  168SAPE    HB18851   3.239   5.382   2.876  0.5012 -1.4369  0.0097
  168SAPE    C218852   3.317   5.360   3.080 -0.2834  0.2125  0.0093
  168SAPE    HS18853   3.213   5.348   3.116 -0.6042  1.4446 -0.4678
  168SAPE   O2118854   3.407   5.416   3.179 -0.2183 -0.9013  0.0664
  168SAPE   C2118855   3.392   5.540   3.230 -0.0312 -0.9984  0.2653
  168SAPE   O2218856   3.315   5.627   3.205  0.0496 -0.2430 -0.4353
  168SAPE   C2218857   3.491   5.556   3.342  0.3242  0.5674 -0.1521
  168SAPE   H2R18858   3.538   5.456   3.353 -2.5717 -1.3149 -3.1669
  168SAPE   H2S18859   3.571   5.621   3.299  1.6808  0.2876  1.7998
  168SAPE    C318860   3.366   5.215   3.046  0.6665 -0.4471 -0.5273
  168SAPE    HX18861   3.473   5.217   3.016  1.9793 -0.2571  3.5876
  168SAPE    HY18862   3.307   5.184   2.957 -1.0493 -0.6320  0.6234
  168SAPE   O3118863   3.338   5.129   3.167  0.2674  0.0432 -0.6746
  168SAPE   C3118864   3.453   5.104   3.235 -0.5290  0.3715  0.1174
  168SAPE   O3218865   3.565   5.123   3.190 -0.0098  0.2007  0.4911
  168SAPE   C3218866   3.424   5.053   3.373  0.3677  0.4990  0.5397
  168SAPE   H2X18867   3.455   4.947   3.385 -0.0035  0.3785  0.4302
  168SAPE   H2Y18868   3.314   5.052   3.389  0.3760  1.2628  0.6969
  168SAPE   C2318869   3.443   5.612   3.472  0.7732 -0.5081 -0.2156
  168SAPE   H3R18870   3.368   5.551   3.526 -1.4356  1.1714 -1.1864
  168SAPE   H3S18871   3.395   5.712   3.467  1.0128 -0.4152 -0.7669
  168SAPE   C2418872   3.557   5.656   3.561  0.3997  0.3936 -0.5088
  168SAPE   H4R18873   3.497   5.717   3.632 -0.2039 -0.1384 -0.5549
  168SAPE   H4S18874   3.611   5.735   3.504 -1.2906  1.7895 -0.2599
  168SAPE   C2518875   3.643   5.558   3.639 -0.2578  0.1632  0.0667
  168SAPE   H5R18876   3.665   5.467   3.581  2.7235  0.6923  0.2312
  168SAPE   C2618877   3.690   5.569   3.765  0.9093 -0.2250 -0.4831
  168SAPE   H6R18878   3.749   5.493   3.819  2.6113  1.1673 -0.2835
  168SAPE   C2718879   3.664   5.691   3.850 -0.0833 -0.7904 -0.4278
  168SAPE   H7R18880   3.554   5.684   3.861 -0.2925 -0.3130 -1.9830
  168SAPE   H7S18881   3.677   5.780   3.785  2.7132 -0.4254  0.4703
  168SAPE   C2818882   3.742   5.714   3.982 -0.4944 -0.5565  0.2475
  168SAPE   H8R18883   3.847   5.743   3.968 -0.6844 -0.2391 -0.5966
  168SAPE   C2918884   3.696   5.683   4.103  1.0876 -0.6509 -0.4603
  168SAPE   H9R18885   3.764   5.706   4.187 -1.1735  0.3071  1.2050
  168SAPE  C21018886   3.560   5.632   4.149 -0.2492 -0.1088  0.4174
  168SAPE  H10R18887   3.491   5.606   4.066 -1.1710  2.1476  0.3844
  168SAPE  H10S18888   3.509   5.709   4.211  0.7785 -0.4294  1.6896
  168SAPE  C21118889   3.576   5.512   4.235 -0.3042 -0.2655  0.1423
  168SAPE  H11R18890   3.587   5.421   4.175 -0.9940 -0.2083 -0.0793
  168SAPE  C21218891   3.579   5.504   4.366  1.1115 -0.4856 -0.5355
  168SAPE  H12R18892   3.605   5.406   4.409 -2.4292 -2.9961 -3.5370
  168SAPE  C21318893   3.569   5.616   4.462 -0.5024 -0.3828  0.2277
  168SAPE  H13R18894   3.635   5.698   4.426 -0.6393 -0.3925 -0.0401
  168SAPE  H13S18895   3.608   5.589   4.563 -0.6689  0.2211  0.4567
  168SAPE  C21418896   3.426   5.669   4.475 -0.1981  0.0405 -0.0293
  168SAPE  H14R18897   3.380   5.711   4.384  0.2088  1.1707  0.2692
  168SAPE  C21518898   3.351   5.673   4.592  0.3886 -0.4313  0.1269
  168SAPE  H15R18899   3.249   5.710   4.578  0.3772 -0.4767  0.0896
  168SAPE  C21618900   3.401   5.621   4.724 -0.0120  0.2639  0.1777
  168SAPE  H16R18901   3.474   5.687   4.776  1.0313 -2.5680  2.5941
  168SAPE  H16S18902   3.459   5.529   4.704  0.4213  0.8354 -1.3484
  168SAPE  C21718903   3.280   5.580   4.811 -0.2407 -0.6211 -0.1516
  168SAPE  H17R18904   3.217   5.496   4.774 -0.9382  0.3800 -1.3400
  168SAPE  H17S18905   3.217   5.672   4.810  0.8506  0.3393 -4.6926
  168SAPE  C21818906   3.325   5.535   4.947 -0.9243 -0.3012 -0.2040
  168SAPE  H18R18907   3.356   5.621   5.010 -2.0328 -0.0624  0.0509
  168SAPE  H18S18908   3.414   5.471   4.933  0.2211  1.1883  0.0697
  168SAPE  C21918909   3.223   5.470   5.037  0.6115  0.0233  0.1966
  168SAPE  H19R18910   3.264   5.422   5.128  0.0063 -0.5631  0.1714
  168SAPE  H19S18911   3.173   5.395   4.973 -0.5404  2.4716 -1.9846
  168SAPE  C22018912   3.116   5.566   5.091  0.7476 -0.1510 -1.1215
  168SAPE  H20R18913   3.080   5.624   5.004  0.9827  1.2936 -0.2902
  168SAPE  H20S18914   3.168   5.630   5.166 -1.9994 -0.1666  0.9910
  168SAPE  H20T18915   3.029   5.517   5.140  0.6106  0.1077 -1.1010
  168SAPE   C3318916   3.506   5.116   3.482 -0.0719 -0.3870  0.6077
  168SAPE   H3X18917   3.483   5.225   3.489  0.8105  0.0720 -2.1382
  168SAPE   H3Y18918   3.611   5.119   3.445 -0.3265 -0.5619 -0.1567
  168SAPE   C3418919   3.495   5.051   3.617  0.3558  0.6809  0.6060
  168SAPE   H4X18920   3.501   4.940   3.615 -0.4886  0.6397 -0.2236
  168SAPE   H4Y18921   3.396   5.079   3.659 -0.2288  0.6183 -0.6888
  168SAPE   C3518922   3.611   5.088   3.717  0.0209 -0.3250  0.3069
  168SAPE   H5X18923   3.596   5.197   3.729 -2.5159 -0.4808 -0.8518
  168SAPE   H5Y18924   3.705   5.059   3.665 -0.5315 -0.8723 -0.4035
  168SAPE   C3618925   3.589   5.022   3.857 -0.2696  0.2498 -0.2307
  168SAPE   H6X18926   3.589   4.913   3.834  1.4698  0.0693  0.4937
  168SAPE   H6Y18927   3.488   5.041   3.900  0.1078 -0.4574  1.0236
  168SAPE   C3718928   3.706   5.055   3.946  0.3753  0.4107  0.2347
  168SAPE   H7X18929   3.802   5.058   3.890 -0.5928 -0.7909 -1.5729
  168SAPE   H7Y18930   3.711   4.977   4.025  0.2687 -1.5107 -1.5685
  168SAPE   C3818931   3.700   5.190   4.023 -0.5376 -0.7741  0.0823
  168SAPE   H8X18932   3.593   5.200   4.052 -0.6351 -2.2439  0.3358
  168SAPE   H8Y18933   3.725   5.273   3.954  1.9135  0.4593  2.2555
  168SAPE   C3918934   3.783   5.202   4.145 -0.6127  0.2758 -0.2089
  168SAPE   H9X18935   3.791   5.309   4.172  0.4137 -0.1430  1.3080
  168SAPE   H9Y18936   3.890   5.174   4.130 -0.3436  0.5263  1.1792
  168SAPE  C31018937   3.711   5.131   4.263 -0.3549  0.0073  0.2313
  168SAPE  H10X18938   3.720   5.020   4.260  0.3798  0.0174  1.5452
  168SAPE  H10Y18939   3.609   5.175   4.268 -0.3764  0.6835 -3.3224
  168SAPE  C31118940   3.789   5.146   4.395 -0.2782  0.1078 -0.2888
  168SAPE  H11X18941   3.788   5.253   4.424  2.3751 -0.1410  1.0326
  168SAPE  H11Y18942   3.888   5.101   4.372 -1.0565 -1.3499 -0.9765
  168SAPE  C31218943   3.737   5.060   4.512  0.0062  0.4605 -0.5861
  168SAPE  H12X18944   3.747   4.956   4.474  0.6462 -0.1639  1.2129
  168SAPE  H12Y18945   3.631   5.082   4.537 -1.2730 -2.7185 -2.6530
  168SAPE  C31318946   3.826   5.064   4.641  0.6433  0.1401 -0.8778
  168SAPE  H13X18947   3.926   5.023   4.617 -0.1590 -2.8353  0.3907
  168SAPE  H13Y18948   3.789   5.005   4.727 -0.5824 -0.7555 -1.9754
  168SAPE  C31418949   3.849   5.211   4.687  0.1319 -0.0707 -0.1170
  168SAPE  H14X18950   3.751   5.262   4.695  0.6317  0.6966  1.4605
  168SAPE  H14Y18951   3.911   5.259   4.608  0.4064  1.0687  0.7728
  168SAPE  C31518952   3.911   5.217   4.822  0.3470  0.0389  0.2257
  168SAPE  H15X18953   4.016   5.180   4.825 -0.0665 -1.0913  2.4769
  168SAPE  H15Y18954   3.852   5.156   4.893 -1.5732  0.5762 -0.8475
  168SAPE  C31618955   3.920   5.367   4.872  0.1085  0.8794 -0.6982
  168SAPE  H16X18956   3.973   5.437   4.803  1.0149  0.0722 -0.8386
  168SAPE  H16Y18957   3.983   5.356   4.962 -0.7489 -1.1206 -0.2821
  168SAPE  C31718958   3.783   5.413   4.906 -0.6217 -0.1269  0.3567
  168SAPE  H17X18959   3.726   5.331   4.955 -0.3197  0.8407  2.4530
  168SAPE  H17Y18960   3.716   5.450   4.825 -2.4217  0.2973  1.9560
  168SAPE  C31818961   3.785   5.531   5.005  0.2893  0.0315 -0.6878
  168SAPE  H18X18962   3.830   5.503   5.102 -1.3684 -0.9967 -0.1774
  168SAPE  H18Y18963   3.683   5.572   5.023  1.2957  1.0350  4.0478
  168SAPE  H18Z18964   3.843   5.615   4.960 -0.9101  0.2035 -1.9944
  169SAPE     N18965   4.505   2.006   2.489  0.2624 -0.1299  0.6492
  169SAPE   HN118966   4.480   2.107   2.490  1.8147  0.3157 -0.5237
  169SAPE   HN218967   4.462   1.976   2.399 -1.0051  3.4223 -0.0830
  169SAPE   HN318968   4.446   1.951   2.554  0.0728 -0.4422  0.2181
  169SAPE   C1218969   4.651   1.972   2.505 -0.4148  0.5352 -0.3496
  169SAPE  H12A18970   4.705   2.052   2.450  0.0977  1.4914  1.4560
  169SAPE  H12B18971   4.667   1.870   2.463  0.1778  0.4572  0.0599
  169SAPE   C1118972   4.688   1.986   2.647 -0.3733  0.9960  0.0448
  169SAPE  H11A18973   4.641   1.909   2.711  1.9999  0.3097  1.0787
  169SAPE  H11B18974   4.654   2.082   2.692 -1.8550  0.4436  0.1597
  169SAPE     P18975   4.949   2.076   2.642  0.2233  0.0218 -0.3998
  169SAPE   O1318976   5.065   2.013   2.706  0.4556 -0.1710 -0.1612
  169SAPE   O1418977   4.968   2.119   2.500 -0.3897  0.2164  0.4827
  169SAPE   O1218978   4.829   1.967   2.657 -0.8414 -0.1028 -0.6791
  169SAPE   O1118979   4.894   2.195   2.724  0.2566  0.0177 -0.3545
  169SAPE    C118980   4.977   2.303   2.770 -0.2472 -0.3963  0.0486
  169SAPE    HA18981   5.075   2.303   2.718  0.3753  1.5171  1.1196
  169SAPE    HB18982   4.926   2.394   2.734 -0.1978 -0.6312 -0.6223
  169SAPE    C218983   5.007   2.304   2.926  0.6438  0.0530 -0.2251
  169SAPE    HS18984   5.066   2.216   2.958 -0.3386 -0.4280  0.2941
  169SAPE   O2118985   4.879   2.307   2.994 -0.2800 -0.3667  0.2941
  169SAPE   C2118986   4.837   2.188   3.048 -0.2789 -0.5296  0.3039
  169SAPE   O2218987   4.902   2.089   3.038 -0.1071  0.3496  1.0063
  169SAPE   C2218988   4.692   2.204   3.086 -0.3744  0.1885  0.0970
  169SAPE   H2R18989   4.702   2.250   3.186 -0.8027  0.7027 -0.0938
  169SAPE   H2S18990   4.642   2.268   3.010 -4.0182 -0.1528  1.9950
  169SAPE    C318991   5.073   2.438   2.952  0.2956 -0.0628 -0.1698
  169SAPE    HX18992   5.012   2.523   2.917  0.1082  0.2424  0.8818
  169SAPE    HY18993   5.174   2.436   2.906 -0.2187  0.9830 -1.3944
  169SAPE   O3118994   5.089   2.455   3.091 -0.0204 -0.6788  0.0236
  169SAPE   C3118995   5.142   2.572   3.122  0.6052 -0.1800  0.1591
  169SAPE   O3218996   5.174   2.660   3.045 -0.0979 -0.0277 -0.0374
  169SAPE   C3218997   5.139   2.581   3.279 -0.4586 -0.4380  0.4584
  169SAPE   H2X18998   5.221   2.518   3.321 -1.2675 -0.3894  2.1852
  169SAPE   H2Y18999   5.050   2.531   3.321  1.1818 -2.7170  1.4465
  169SAPE   C2319000   4.613   2.067   3.089  0.4963  0.3780 -0.1283
  169SAPE   H3R19001   4.622   2.007   2.995 -1.1867  0.8463 -0.6286
  169SAPE   H3S19002   4.505   2.092   3.099  1.0927  2.8878  0.7189
  169SAPE   C2419003   4.640   1.967   3.209  0.1389 -0.4429  0.5628
  169SAPE   H4R19004   4.746   1.933   3.202  0.5522  0.0640  3.3355
  169SAPE   H4S19005   4.560   1.889   3.204 -2.4441  1.8401  2.8007
  169SAPE   C2519006   4.619   2.040   3.344  0.6055 -0.7608 -0.0724
  169SAPE   H5R19007   4.522   2.092   3.351 -0.3732 -2.5835  0.7526
  169SAPE   C2619008   4.713   2.063   3.441  0.6745  0.4320 -0.1152
  169SAPE   H6R19009   4.672   2.112   3.530 -2.7671  1.7870 -2.2267
  169SAPE   C2719010   4.850   1.994   3.436 -0.1285  0.1930 -0.3399
  169SAPE   H7R19011   4.843   1.898   3.379 -1.1024 -0.1720  0.3729
  169SAPE   H7S19012   4.886   1.966   3.537 -1.4816  2.0515  0.6962
  169SAPE   C2819013   4.958   2.080   3.369  0.7938  0.1928  0.2108
  169SAPE   H8R19014   4.922   2.157   3.299 -3.0548 -1.5870 -0.0503
  169SAPE   C2919015   5.086   2.063   3.402 -0.2992 -0.9053 -0.3335
  169SAPE   H9R19016   5.158   2.119   3.341  0.0897 -1.1381 -0.0968
  169SAPE  C21019017   5.169   1.972   3.493 -0.7813  0.1369  0.8045
  169SAPE  H10R19018   5.257   1.932   3.440 -0.5224  1.5363  0.1319
  169SAPE  H10S19019   5.116   1.879   3.524  0.4829 -0.6633  0.6114
  169SAPE  C21119020   5.207   2.046   3.624 -0.1740 -0.2385  0.0860
  169SAPE  H11R19021   5.183   2.153   3.626  0.2502 -0.1297 -0.5624
  169SAPE  C21219022   5.268   2.000   3.734  0.0015 -0.5115 -0.1618
  169SAPE  H12R19023   5.293   2.068   3.816  0.4178 -2.6212  1.5701
  169SAPE  C21319024   5.318   1.857   3.751 -0.2962  0.1286 -0.3639
  169SAPE  H13R19025   5.354   1.816   3.654  2.4677  1.6759 -0.0906
  169SAPE  H13S19026   5.232   1.799   3.791  1.0864 -1.7091  0.0583
  169SAPE  C21419027   5.434   1.846   3.851  0.8966 -0.7248  0.2156
  169SAPE  H14R19028   5.512   1.923   3.850  0.2151  0.0074 -1.9200
  169SAPE  C21519029   5.434   1.756   3.955  0.0048  0.5619  1.0796
  169SAPE  H15R19030   5.527   1.751   4.013  1.2434 -0.9573 -0.8723
  169SAPE  C21619031   5.344   1.651   3.992  0.0403 -0.4102  0.0710
  169SAPE  H16R19032   5.393   1.552   3.981  1.9451  0.4420  0.5746
  169SAPE  H16S19033   5.260   1.651   3.919 -2.0740 -0.5732  2.3728
  169SAPE  C21719034   5.281   1.667   4.133 -0.3067 -0.0477 -0.4627
  169SAPE  H17R19035   5.192   1.601   4.142  0.0782 -0.3956  1.2719
  169SAPE  H17S19036   5.242   1.770   4.149 -0.8028 -0.3196  0.1419
  169SAPE  C21819037   5.387   1.634   4.239  0.1208 -0.0760  0.1512
  169SAPE  H18R19038   5.459   1.718   4.232 -1.8618  1.5582 -1.6835
  169SAPE  H18S19039   5.436   1.535   4.231  0.2772  0.1085 -1.5426
  169SAPE  C21919040   5.350   1.653   4.392  0.3269  0.2246  0.9312
  169SAPE  H19R19041   5.438   1.622   4.452  0.9207 -1.2554 -0.6236
  169SAPE  H19S19042   5.264   1.585   4.407 -1.2606  2.5275  3.1287
  169SAPE  C22019043   5.308   1.798   4.433  0.2822 -0.1152 -0.2758
  169SAPE  H20R19044   5.308   1.803   4.544 -2.4404  2.6697 -0.2795
  169SAPE  H20S19045   5.204   1.815   4.397  0.2485  1.2499  0.3946
  169SAPE  H20T19046   5.382   1.871   4.394 -0.9974  0.7866 -1.0797
  169SAPE   C3319047   5.159   2.719   3.333  0.5255  0.0053  0.3149
  169SAPE   H3X19048   5.103   2.790   3.268  0.7718 -0.3452 -0.2800
  169SAPE   H3Y19049   5.267   2.746   3.330  0.7465 -0.8279  0.5556
  169SAPE   C3419050   5.077   2.741   3.468 -0.1426 -0.2728 -0.2952
  169SAPE   H4X19051   4.969   2.715   3.460  0.2138 -1.9930 -0.0128
  169SAPE   H4Y19052   5.078   2.847   3.500  2.0863 -0.8517  1.8631
  169SAPE   C3519053   5.124   2.657   3.596  0.0041 -0.0681 -0.2845
  169SAPE   H5X19054   5.235   2.663   3.597 -0.0447  2.3343 -1.3904
  169SAPE   H5Y19055   5.099   2.551   3.577 -1.1797  0.4730 -1.9449
  169SAPE   C3619056   5.052   2.700   3.728 -0.7444  0.4706 -0.3717
  169SAPE   H6X19057   4.942   2.685   3.722 -0.7596  0.5920 -0.3853
  169SAPE   H6Y19058   5.066   2.810   3.738  0.1741  0.1894  2.1078
  169SAPE   C3719059   5.102   2.627   3.853  0.6871  0.1796  0.0252
  169SAPE   H7X19060   5.212   2.612   3.858  0.4732 -1.2348  1.3338
  169SAPE   H7Y19061   5.065   2.522   3.855 -0.4004  0.5367 -0.6816
  169SAPE   C3819062   5.061   2.690   3.986 -0.0812  0.5470 -0.0895
  169SAPE   H8X19063   4.957   2.729   3.977  0.3163  1.7768  0.4510
  169SAPE   H8Y19064   5.126   2.779   3.997  0.9895 -0.4120  1.8291
  169SAPE   C3919065   5.064   2.598   4.108 -0.0621  0.6297 -0.5160
  169SAPE   H9X19066   5.155   2.542   4.138  0.1783  1.5461  0.5426
  169SAPE   H9Y19067   4.980   2.529   4.087  1.4223 -1.6263  0.5418
  169SAPE  C31019068   5.029   2.689   4.229 -0.4534  0.8799 -0.0124
  169SAPE  H10X19069   4.935   2.746   4.211 -1.4567  0.0494  2.1638
  169SAPE  H10Y19070   5.111   2.759   4.254  0.3897 -0.0112 -0.2224
  169SAPE  C31119071   5.017   2.596   4.349  0.0732 -0.0392 -1.0136
  169SAPE  H11X19072   5.109   2.534   4.343  0.9061  1.2426 -1.8530
  169SAPE  H11Y19073   4.925   2.537   4.325 -0.2048 -1.1252  2.2239
  169SAPE  C31219074   5.008   2.674   4.484  0.9672  0.4622 -0.1610
  169SAPE  H12X19075   4.916   2.736   4.485  1.7304  2.0299 -4.9029
  169SAPE  H12Y19076   5.097   2.739   4.497  1.1485  0.0184  0.9646
  169SAPE  C31319077   5.004   2.575   4.600  0.1318 -0.7293 -0.1024
  169SAPE  H13X19078   5.094   2.510   4.605  0.3940 -0.4995 -1.4476
  169SAPE  H13Y19079   4.910   2.517   4.589 -0.4177  0.0521  0.4172
  169SAPE  C31419080   4.999   2.657   4.734  0.1527  0.2204  0.1898
  169SAPE  H14X19081   4.914   2.727   4.735  0.9537  1.2136  0.3390
  169SAPE  H14Y19082   5.093   2.717   4.741  0.9636 -0.8591 -0.8851
  169SAPE  C31519083   4.982   2.569   4.856  0.6861 -0.5387 -0.7558
  169SAPE  H15X19084   4.887   2.514   4.842 -0.4072  0.8870  0.7216
  169SAPE  H15Y19085   4.990   2.640   4.942 -0.7738  0.0156 -1.0643
  169SAPE  C31619086   5.106   2.469   4.878  0.3646 -0.5876 -0.3700
  169SAPE  H16X19087   5.190   2.536   4.907 -1.3413  0.9367  1.3244
  169SAPE  H16Y19088   5.124   2.421   4.780  0.4475  1.9988 -1.6990
  169SAPE  C31719089   5.073   2.360   4.968 -0.2072 -0.1364 -0.2875
  169SAPE  H17X19090   5.016   2.293   4.900 -0.7678  0.5697 -0.5210
  169SAPE  H17Y19091   5.003   2.389   5.049 -1.4174 -3.0308 -0.1686
  169SAPE  C31819092   5.196   2.278   5.013 -0.2459  0.0835  0.5291
  169SAPE  H18X19093   5.278   2.338   5.058  0.2461 -0.6666  0.6477
  169SAPE  H18Y19094   5.231   2.229   4.920  0.5580  0.6092  0.5437
  169SAPE  H18Z19095   5.161   2.196   5.079 -0.4951  0.0975  0.4180
  170SAPE     N19096   5.324   3.855   2.698 -0.9968 -0.1753 -0.1794
  170SAPE   HN119097   5.276   3.764   2.681  1.0784 -1.5183  0.7436
  170SAPE   HN219098   5.241   3.917   2.701 -0.6170  0.4421 -1.5599
  170SAPE   HN319099   5.377   3.893   2.618 -0.9900 -0.4916 -0.3289
  170SAPE   C1219100   5.398   3.844   2.830 -0.1070  0.4521  0.7354
  170SAPE  H12A19101   5.462   3.753   2.829 -1.1085 -0.2692  0.9421
  170SAPE  H12B19102   5.330   3.829   2.917 -2.6022 -2.1693 -1.4759
  170SAPE   C1119103   5.475   3.976   2.854  0.0711  0.0959  0.2050
  170SAPE  H11A19104   5.403   4.060   2.865 -1.3228 -1.1796  1.2428
  170SAPE  H11B19105   5.525   4.009   2.760  1.8880 -0.9613  0.7577
  170SAPE     P19106   5.705   3.885   2.944 -0.3039  0.4597 -0.4331
  170SAPE   O1319107   5.692   3.775   2.849  0.4031  0.4001 -0.2487
  170SAPE   O1419108   5.802   3.994   2.912 -0.0406 -0.7815  0.2088
  170SAPE   O1219109   5.573   3.961   2.959 -0.1606  0.3490 -0.2885
  170SAPE   O1119110   5.732   3.828   3.087  0.0113  0.3685  0.2584
  170SAPE    C119111   5.629   3.743   3.141  0.8810  0.8552 -0.2180
  170SAPE    HA19112   5.527   3.787   3.136  0.8791  1.1756  1.8482
  170SAPE    HB19113   5.627   3.646   3.087 -1.8360  1.7736 -1.9843
  170SAPE    C219114   5.633   3.723   3.297 -0.6804  0.2902 -0.0416
  170SAPE    HS19115   5.544   3.662   3.324 -0.8125  1.3350  2.0931
  170SAPE   O2119116   5.638   3.844   3.368  0.2211 -0.1385 -0.2466
  170SAPE   C2119117   5.570   3.853   3.484 -0.5468 -0.2220  1.2920
  170SAPE   O2219118   5.516   3.754   3.530 -0.4867  0.2408 -0.2873
  170SAPE   C2219119   5.565   3.993   3.541 -0.1804  0.1737 -0.3730
  170SAPE   H2R19120   5.518   4.054   3.461  0.8163  0.9371 -0.4016
  170SAPE   H2S19121   5.494   3.989   3.627  0.0230 -0.5814 -0.2320
  170SAPE    C319122   5.765   3.640   3.346  0.6413 -0.0834 -1.1590
  170SAPE    HX19123   5.850   3.701   3.310 -0.0408  0.1770 -2.3766
  170SAPE    HY19124   5.773   3.546   3.289 -0.0957  0.5594 -2.3837
  170SAPE   O3119125   5.772   3.612   3.498 -0.2055 -0.1646  0.0145
  170SAPE   C3119126   5.705   3.504   3.536 -0.0081  0.4997 -0.3344
  170SAPE   O3219127   5.659   3.416   3.461 -0.5914 -0.5720  0.2201
  170SAPE   C3219128   5.691   3.493   3.686  1.2349 -0.7336  0.3495
  170SAPE   H2X19129   5.593   3.447   3.712  1.8978 -2.0001  0.7083
  170SAPE   H2Y19130   5.689   3.597   3.726  1.0313 -0.0395 -1.3523
  170SAPE   C2319131   5.703   4.041   3.597  0.4121  0.1341  0.3099
  170SAPE   H3R19132   5.660   4.126   3.654 -1.9134  0.0238 -1.1391
  170SAPE   H3S19133   5.764   4.062   3.506 -0.9592  2.2489 -0.2010
  170SAPE   C2419134   5.772   3.940   3.687 -0.0191  0.5505 -1.0375
  170SAPE   H4R19135   5.835   3.864   3.637  2.2771  1.0473  0.9252
  170SAPE   H4S19136   5.690   3.893   3.746  0.2592  1.0106 -0.2698
  170SAPE   C2519137   5.867   4.010   3.779 -0.2997 -0.6194  0.4068
  170SAPE   H5R19138   5.937   4.078   3.727 -0.1118 -1.7324 -0.8507
  170SAPE   C2619139   5.863   3.998   3.910  0.4411  0.7151  0.6168
  170SAPE   H6R19140   5.935   4.053   3.974  0.5265 -1.2144  2.2678
  170SAPE   C2719141   5.771   3.907   3.990  0.6159  0.0247  0.4317
  170SAPE   H7R19142   5.829   3.871   4.078 -0.4837  0.0157  1.1761
  170SAPE   H7S19143   5.739   3.815   3.937 -0.0180 -0.1853  1.1688
  170SAPE   C2819144   5.640   3.966   4.028 -0.0742 -0.1706  0.3397
  170SAPE   H8R19145   5.570   3.997   3.949  1.0153  1.1315 -0.1602
  170SAPE   C2919146   5.586   3.956   4.149  1.0696 -0.5411 -0.5436
  170SAPE   H9R19147   5.492   4.008   4.174  1.8239  0.6145 -0.0092
  170SAPE  C21019148   5.649   3.906   4.278  0.3565 -0.6381 -0.5431
  170SAPE  H10R19149   5.737   3.841   4.254 -0.0943 -0.9414 -1.4587
  170SAPE  H10S19150   5.578   3.835   4.327  3.4834 -1.8122  2.7528
  170SAPE  C21119151   5.691   4.019   4.372 -0.5401 -0.4405 -0.0500
  170SAPE  H11R19152   5.723   4.112   4.322  1.0253  0.8516  3.0721
  170SAPE  C21219153   5.706   4.006   4.506 -0.4364  0.1188 -0.6112
  170SAPE  H12R19154   5.732   4.100   4.558 -0.2663  0.5235 -1.4024
  170SAPE  C21319155   5.675   3.879   4.587  0.5772 -0.5440  0.3526
  170SAPE  H13R19156   5.747   3.864   4.670  0.6268 -0.9096  0.2453
  170SAPE  H13S19157   5.690   3.798   4.512  0.5103 -0.9814  0.8037
  170SAPE  C21419158   5.539   3.880   4.644  0.2654 -0.3273  0.7151
  170SAPE  H14R19159   5.456   3.923   4.585 -2.6539 -2.7115  2.7765
  170SAPE  C21519160   5.507   3.843   4.769  0.6902 -0.0621  0.1913
  170SAPE  H15R19161   5.400   3.855   4.791  0.9083 -1.0608  1.9766
  170SAPE  C21619162   5.589   3.785   4.882 -0.5928 -0.7177  0.4512
  170SAPE  H16R19163   5.690   3.762   4.842 -0.7070 -0.9687  0.3080
  170SAPE  H16S19164   5.547   3.694   4.930 -0.8423 -0.2931  1.0498
  170SAPE  C21719165   5.600   3.889   4.992  0.0879  0.7087 -0.2215
  170SAPE  H17R19166   5.502   3.891   5.045 -0.0747 -0.4145 -0.4470
  170SAPE  H17S19167   5.620   3.992   4.956  0.7212  1.3029  1.7084
  170SAPE  C21819168   5.707   3.845   5.100 -0.5892  0.4136  1.3445
  170SAPE  H18R19169   5.805   3.856   5.050 -0.7690 -0.7771  0.6947
  170SAPE  H18S19170   5.683   3.740   5.128 -1.1336 -0.5629 -2.2060
  170SAPE  C21919171   5.713   3.931   5.223 -0.0767 -0.1444 -0.2231
  170SAPE  H19R19172   5.705   4.038   5.193  0.5667  0.2458  0.9251
  170SAPE  H19S19173   5.818   3.932   5.260 -0.7313  1.9656  1.8505
  170SAPE  C22019174   5.609   3.891   5.323 -0.5020 -0.0226  0.9171
  170SAPE  H20R19175   5.506   3.919   5.291  0.0181  0.1853 -0.7130
  170SAPE  H20S19176   5.630   3.945   5.417 -0.8543  1.6084  0.1035
  170SAPE  H20T19177   5.617   3.782   5.339 -1.8643 -0.1798  0.5975
  170SAPE   C3319178   5.788   3.401   3.755  0.0123 -0.0279  0.1829
  170SAPE   H3X19179   5.891   3.443   3.757  0.0619 -0.1745  0.8809
  170SAPE   H3Y19180   5.799   3.303   3.702  1.9623 -0.2739  0.9382
  170SAPE   C3419181   5.742   3.364   3.892  0.3908  0.2819 -1.1035
  170SAPE   H4X19182   5.799   3.271   3.912  0.3261  0.0405 -1.9829
  170SAPE   H4Y19183   5.634   3.342   3.907  0.3733  0.0016 -1.5931
  170SAPE   C3519184   5.776   3.466   3.999  0.0931  0.3504  0.0257
  170SAPE   H5X19185   5.754   3.570   3.966  1.2014  0.6337  0.1487
  170SAPE   H5Y19186   5.883   3.462   4.028 -0.2812 -3.2728  1.4495
  170SAPE   C3619187   5.701   3.429   4.131 -0.3847 -0.0477 -0.0737
  170SAPE   H6X19188   5.707   3.319   4.139 -0.6567 -0.5238 -4.2814
  170SAPE   H6Y19189   5.594   3.461   4.122 -0.6673 -0.6327  1.0462
  170SAPE   C3719190   5.764   3.508   4.251  0.2378  0.8361  1.0026
  170SAPE   H7X19191   5.736   3.614   4.236 -0.6650  0.6992  1.5984
  170SAPE   H7Y19192   5.874   3.503   4.243  0.4214  2.4165  2.1410
  170SAPE   C3819193   5.739   3.454   4.390  0.4148  0.0213 -0.8272
  170SAPE   H8X19194   5.756   3.345   4.391 -0.9900 -0.2369  1.0043
  170SAPE   H8Y19195   5.633   3.471   4.419  1.1590 -0.5883  2.7518
  170SAPE   C3919196   5.833   3.520   4.497  0.7136  0.2377  0.4073
  170SAPE   H9X19197   5.843   3.625   4.462 -1.3174  0.7112  1.1247
  170SAPE   H9Y19198   5.930   3.467   4.491 -0.2873 -1.6800  0.5286
  170SAPE  C31019199   5.792   3.511   4.640  1.0244  0.0233 -0.5148
  170SAPE  H10X19200   5.686   3.541   4.654  0.8751 -0.8339  0.3556
  170SAPE  H10Y19201   5.860   3.577   4.698  1.1052 -1.3301  1.0443
  170SAPE  C31119202   5.785   3.367   4.696 -0.3999 -0.7838 -1.0836
  170SAPE  H11X19203   5.880   3.321   4.662  0.2229 -1.5798  1.4593
  170SAPE  H11Y19204   5.696   3.317   4.653 -1.9462  2.6742 -2.2431
  170SAPE  C31219205   5.792   3.351   4.856 -0.7552  0.4112  0.6710
  170SAPE  H12X19206   5.759   3.248   4.883 -1.4026  0.5152  0.2897
  170SAPE  H12Y19207   5.720   3.427   4.892 -2.4320 -0.9398  0.2988
  170SAPE  C31319208   5.935   3.370   4.907  0.0309 -0.1013 -0.0508
  170SAPE  H13X19209   5.935   3.363   5.018  1.8558  1.8984  0.1400
  170SAPE  H13Y19210   5.971   3.473   4.885 -1.3750  0.0674 -1.8246
  170SAPE  C31419211   6.058   3.275   4.858  0.1060 -0.0942  0.8546
  170SAPE  H14X19212   6.154   3.319   4.893  0.0934  1.6569 -1.1754
  170SAPE  H14Y19213   6.054   3.269   4.748  0.3455  2.2492  0.6729
  170SAPE  C31519214   6.052   3.129   4.912  0.4677 -0.7547 -0.5316
  170SAPE  H15X19215   5.954   3.088   4.879 -0.7489  1.4379  0.1270
  170SAPE  H15Y19216   6.048   3.136   5.023  0.5025 -1.7502 -0.4568
  170SAPE  C31619217   6.179   3.047   4.882 -0.2566 -0.1754 -0.0929
  170SAPE  H16X19218   6.260   3.103   4.932 -0.3490 -0.1495  0.0271
  170SAPE  H16Y19219   6.210   3.040   4.775  2.7262 -0.9294  0.7279
  170SAPE  C31719220   6.177   2.902   4.929  0.8140  0.7037 -0.2821
  170SAPE  H17X19221   6.093   2.850   4.877  3.4986  0.1124 -4.6056
  170SAPE  H17Y19222   6.159   2.895   5.038  1.1488 -0.6878 -0.2966
  170SAPE  C31819223   6.314   2.839   4.899  0.3246 -0.6643 -0.2918
  170SAPE  H18X19224   6.365   2.873   4.807 -0.2050 -1.7921 -1.0253
  170SAPE  H18Y19225   6.311   2.728   4.893  1.9811 -0.7292 -0.5412
  170SAPE  H18Z19226   6.382   2.871   4.981 -2.1773  2.4868  0.7540
  171SAPE     N19227   6.706   4.017   2.763  0.5911 -0.1239 -0.6181
  171SAPE   HN119228   6.608   3.996   2.733  0.2664  2.0038 -1.1980
  171SAPE   HN219229   6.770   3.962   2.702  0.9567 -0.0384 -0.3138
  171SAPE   HN319230   6.713   3.987   2.863  0.2451  2.4981  0.2557
  171SAPE   C1219231   6.714   4.165   2.764  0.4826 -0.2367  0.0403
  171SAPE  H12A19232   6.690   4.212   2.666  0.4791 -2.5097 -1.0993
  171SAPE  H12B19233   6.820   4.184   2.789  0.4948 -0.3457  0.0673
  171SAPE   C1119234   6.610   4.222   2.871 -0.6539  0.2307  0.0512
  171SAPE  H11A19235   6.636   4.327   2.896 -1.4781  0.0402  1.7898
  171SAPE  H11B19236   6.626   4.166   2.965 -1.5087  0.2113  0.1888
  171SAPE     P19237   6.409   4.304   2.730  0.4933  0.3737 -0.1225
  171SAPE   O1319238   6.499   4.358   2.624 -0.1152 -0.6760 -0.1641
  171SAPE   O1419239   6.279   4.249   2.690  0.5609  0.4499  0.4136
  171SAPE   O1219240   6.482   4.195   2.814  1.0114 -0.1218 -0.0414
  171SAPE   O1119241   6.387   4.425   2.834 -0.3686  0.1738  0.2333
  171SAPE    C119242   6.307   4.428   2.949  0.2867  0.8390  0.1445
  171SAPE    HA19243   6.227   4.504   2.939 -1.9530 -1.5105 -1.1465
  171SAPE    HB19244   6.252   4.333   2.966  0.1589  0.5062 -1.8139
  171SAPE    C219245   6.382   4.473   3.077 -0.0744  0.5974  0.3722
  171SAPE    HS19246   6.465   4.540   3.046 -0.6919  0.7258 -1.0734
  171SAPE   O2119247   6.437   4.362   3.154  0.0356  0.0589  0.6709
  171SAPE   C2119248   6.568   4.366   3.174  0.0100  0.3366 -0.5554
  171SAPE   O2219249   6.648   4.443   3.125  0.4865  0.6272  0.0243
  171SAPE   C2219250   6.600   4.254   3.273 -0.2913  0.0519  0.6637
  171SAPE   H2R19251   6.532   4.168   3.260 -0.3344 -0.1545  2.1061
  171SAPE   H2S19252   6.703   4.219   3.248 -0.3148  0.3389  0.1399
  171SAPE    C319253   6.284   4.557   3.166  0.5027 -0.0493 -0.4573
  171SAPE    HX19254   6.199   4.506   3.218 -0.1615  4.1814  3.2153
  171SAPE    HY19255   6.228   4.632   3.107 -1.0952 -0.7111  0.1406
  171SAPE   O3119256   6.352   4.619   3.275 -0.1526 -0.0801  0.6598
  171SAPE   C3119257   6.286   4.692   3.361  0.2585  0.7484 -0.2530
  171SAPE   O3219258   6.163   4.698   3.367 -0.2424  0.5264  0.2287
  171SAPE   C3219259   6.384   4.768   3.448 -0.7335 -0.3392  0.1447
  171SAPE   H2X19260   6.338   4.868   3.465 -1.5677 -0.5377 -0.8684
  171SAPE   H2Y19261   6.483   4.779   3.399 -1.2459  0.2565 -0.7831
  171SAPE   C2319262   6.585   4.287   3.424 -0.6332  0.2677  0.0152
  171SAPE   H3R19263   6.671   4.352   3.449 -0.8313  0.5438 -0.0193
  171SAPE   H3S19264   6.606   4.198   3.486  0.9256  3.2723  4.2199
  171SAPE   C2419265   6.454   4.334   3.464 -0.6487 -0.2636 -0.5501
  171SAPE   H4R19266   6.447   4.438   3.425 -1.4269  0.4033  1.2468
  171SAPE   H4S19267   6.449   4.352   3.574 -2.5076  0.1595 -0.6777
  171SAPE   C2519268   6.341   4.236   3.440 -0.1850  0.0405  0.7589
  171SAPE   H5R19269   6.314   4.209   3.337  1.6806 -0.2936  0.3254
  171SAPE   C2619270   6.264   4.171   3.533 -0.2394 -0.3898  0.2138
  171SAPE   H6R19271   6.179   4.106   3.507 -0.6346 -0.4602  1.6345
  171SAPE   C2719272   6.278   4.189   3.681 -0.0155  0.1230  0.1993
  171SAPE   H7R19273   6.197   4.130   3.730  0.8256 -1.7541 -0.5594
  171SAPE   H7S19274   6.261   4.294   3.710 -0.5683  0.6578 -1.8554
  171SAPE   C2819275   6.416   4.140   3.734 -0.1653 -0.1067  0.1590
  171SAPE   H8R19276   6.499   4.137   3.660  0.2395  1.3235  0.5152
  171SAPE   C2919277   6.448   4.088   3.854  0.4651  0.1944 -0.6646
  171SAPE   H9R19278   6.550   4.060   3.883 -0.6957 -2.4998  1.2122
  171SAPE  C21019279   6.345   4.072   3.969 -0.2088 -0.8808 -0.1882
  171SAPE  H10R19280   6.402   4.030   4.055 -1.4184  0.1501  1.1871
  171SAPE  H10S19281   6.267   4.003   3.931 -2.5597  1.5900 -0.2269
  171SAPE  C21119282   6.271   4.190   4.021  0.0806  0.2458  0.0365
  171SAPE  H11R19283   6.289   4.284   3.966  2.9252  0.6638  1.5198
  171SAPE  C21219284   6.192   4.182   4.132  0.2318 -0.1504 -0.1340
  171SAPE  H12R19285   6.148   4.275   4.173 -1.4727 -1.4926  1.2153
  171SAPE  C21319286   6.175   4.062   4.218  0.3152 -1.2191 -0.1505
  171SAPE  H13R19287   6.261   4.047   4.286  0.7005 -0.1686 -0.3878
  171SAPE  H13S19288   6.180   3.963   4.167  2.8728 -1.7051  0.8754
  171SAPE  C21419289   6.056   4.073   4.309 -0.0480  0.3890  0.1112
  171SAPE  H14R19290   5.960   4.034   4.272 -0.6805  1.2136  0.8268
  171SAPE  C21519291   6.057   4.122   4.440 -0.1292 -0.6111  0.3589
  171SAPE  H15R19292   5.961   4.119   4.492  0.1914 -4.6600  0.9926
  171SAPE  C21619293   6.179   4.169   4.516  0.8855  0.6519 -0.6181
  171SAPE  H16R19294   6.217   4.265   4.476 -1.1506  1.4404 -0.8015
  171SAPE  H16S19295   6.255   4.089   4.528 -1.2327 -1.0679  3.1044
  171SAPE  C21719296   6.146   4.192   4.668  0.0642 -0.2038 -0.3878
  171SAPE  H17R19297   6.240   4.204   4.724 -1.0907 -2.7053  2.3465
  171SAPE  H17S19298   6.114   4.098   4.717 -1.2096  1.1414  1.4844
  171SAPE  C21819299   6.045   4.304   4.688  0.2104  0.4058 -0.4119
  171SAPE  H18R19300   5.949   4.279   4.638 -0.7179  1.2882  0.8816
  171SAPE  H18S19301   6.085   4.401   4.653  1.2490  0.9304  2.0445
  171SAPE  C21919302   6.009   4.326   4.838  0.4500 -0.3824  0.4915
  171SAPE  H19R19303   5.943   4.414   4.851 -0.5910 -1.1296  0.4254
  171SAPE  H19S19304   6.102   4.352   4.891  1.7186  0.3764 -1.9386
  171SAPE  C22019305   5.953   4.198   4.902 -0.3320  0.0871 -0.3446
  171SAPE  H20R19306   5.870   4.157   4.841  0.8197 -0.4064 -1.6427
  171SAPE  H20S19307   5.922   4.223   5.005 -2.3723 -0.1875 -0.8472
  171SAPE  H20T19308   6.034   4.124   4.915  1.6985  1.9994 -1.4217
  171SAPE   C3319309   6.404   4.704   3.589 -0.3445  0.2667 -0.2527
  171SAPE   H3X19310   6.443   4.783   3.656  2.0913 -1.4689  0.5223
  171SAPE   H3Y19311   6.478   4.621   3.582 -0.9888 -0.1771 -3.4630
  171SAPE   C3419312   6.274   4.651   3.659 -0.1837  0.0109 -0.1288
  171SAPE   H4X19313   6.229   4.571   3.595 -1.2025 -0.8157  1.5378
  171SAPE   H4Y19314   6.202   4.735   3.656 -1.5266 -0.9610  1.9659
  171SAPE   C3519315   6.312   4.614   3.801 -0.5510  0.5644  0.2069
  171SAPE   H5X19316   6.389   4.534   3.794 -2.0141 -1.1137  2.0639
  171SAPE   H5Y19317   6.233   4.549   3.845  1.2884 -1.1499  1.1646
  171SAPE   C3619318   6.340   4.732   3.891  0.0756  0.5778  0.0267
  171SAPE   H6X19319   6.293   4.825   3.854 -0.5537  0.4265  0.4379
  171SAPE   H6Y19320   6.450   4.750   3.893 -0.0727  1.4983  0.3252
  171SAPE   C3719321   6.284   4.709   4.035 -0.1821 -0.2693  0.2553
  171SAPE   H7X19322   6.173   4.704   4.036 -0.3373  2.0405 -0.7771
  171SAPE   H7Y19323   6.311   4.800   4.092  1.4644 -0.4313 -0.1893
  171SAPE   C3819324   6.348   4.586   4.096  0.4055  0.1700  0.2657
  171SAPE   H8X19325   6.453   4.617   4.110  0.3422  0.7328 -0.4075
  171SAPE   H8Y19326   6.349   4.500   4.026  0.4846 -0.6183  1.2143
  171SAPE   C3919327   6.285   4.574   4.229  0.8722  0.4623 -0.7870
  171SAPE   H9X19328   6.311   4.473   4.268 -1.6294 -0.0798 -0.3476
  171SAPE   H9Y19329   6.175   4.582   4.222  0.6085 -1.2461  0.5980
  171SAPE  C31019330   6.330   4.661   4.343 -0.5090 -0.0081  0.2563
  171SAPE  H10X19331   6.330   4.770   4.320 -3.0386  0.2227  1.0907
  171SAPE  H10Y19332   6.433   4.644   4.381  0.1825  3.0255  0.0218
  171SAPE  C31119333   6.230   4.650   4.460  0.1368  0.1415  0.2577
  171SAPE  H11X19334   6.214   4.541   4.477  1.8001 -0.0632  0.7110
  171SAPE  H11Y19335   6.144   4.707   4.419  0.0841 -0.3956 -0.4063
  171SAPE  C31219336   6.257   4.720   4.592  0.3799 -0.2997  0.2320
  171SAPE  H12X19337   6.169   4.743   4.655 -0.2168 -0.0975 -0.6574
  171SAPE  H12Y19338   6.300   4.820   4.568 -1.4846  0.4900  0.0484
  171SAPE  C31319339   6.361   4.658   4.685  0.1569 -0.6376  0.6519
  171SAPE  H13X19340   6.393   4.741   4.752  1.3806  0.0412 -0.7365
  171SAPE  H13Y19341   6.447   4.639   4.618 -2.3602 -1.7733 -2.5296
  171SAPE  C31419342   6.323   4.532   4.765  0.1071 -0.1111 -0.1098
  171SAPE  H14X19343   6.282   4.446   4.709  0.7619 -0.1807 -0.4975
  171SAPE  H14Y19344   6.244   4.562   4.837 -1.8267 -0.7091 -1.9192
  171SAPE  C31519345   6.440   4.468   4.848  0.3898  0.0869 -0.1305
  171SAPE  H15X19346   6.503   4.549   4.892  0.2275 -0.2776  0.7980
  171SAPE  H15Y19347   6.501   4.403   4.782  0.2806  0.9069 -1.0705
  171SAPE  C31619348   6.401   4.382   4.973 -0.7721 -0.3098 -0.7544
  171SAPE  H16X19349   6.327   4.303   4.949  1.5423 -2.9452  0.2515
  171SAPE  H16Y19350   6.362   4.459   5.043  1.3195  0.8329 -0.7408
  171SAPE  C31719351   6.526   4.306   5.038 -0.0127  0.9210  0.1738
  171SAPE  H17X19352   6.608   4.374   5.068  0.0520  1.2242 -0.6808
  171SAPE  H17Y19353   6.570   4.230   4.970 -1.0728  0.0588  0.4223
  171SAPE  C31819354   6.474   4.228   5.155  0.3888  0.6208 -0.6497
  171SAPE  H18X19355   6.542   4.158   5.207 -0.5136 -0.3076 -0.6779
  171SAPE  H18Y19356   6.403   4.160   5.103  0.4954 -0.2238  0.2717
  171SAPE  H18Z19357   6.420   4.291   5.229 -1.1784 -0.1200 -1.1034
  172SAPE     N19358   0.108   6.746   3.354 -0.5005 -0.0222  0.5271
  172SAPE   HN119359   0.165   6.826   3.389  0.3504 -0.5310  0.3264
  172SAPE   HN219360   0.172   6.675   3.314  0.2927  0.6642  0.5567
  172SAPE   HN319361   0.037   6.785   3.288  0.4882  0.2725 -0.3903
  172SAPE   C1219362   0.019   6.684   3.460 -0.3318  0.3403  0.7053
  172SAPE  H12A19363  -0.060   6.758   3.484  1.0152  2.3894 -0.7981
  172SAPE  H12B19364   0.077   6.652   3.549 -1.1865  0.0602  1.1767
  172SAPE   C1119365  -0.059   6.558   3.408  0.1981 -0.9065  0.0514
  172SAPE  H11A19366  -0.134   6.532   3.485 -2.3629 -0.9483 -2.3013
  172SAPE  H11B19367   0.006   6.471   3.385  1.8161 -0.5847  2.9494
  172SAPE     P19368  -0.271   6.635   3.278  0.3541  0.1142  0.6670
  172SAPE   O1319369  -0.279   6.779   3.251  0.0025  0.2273 -0.7229
  172SAPE   O1419370  -0.330   6.544   3.177 -0.0763  0.3048 -0.2721
  172SAPE   O1219371  -0.119   6.598   3.287 -0.5770 -0.0817  0.7306
  172SAPE   O1119372  -0.329   6.616   3.424 -0.3713  0.1967  0.4709
  172SAPE    C119373  -0.432   6.520   3.459 -0.2304 -0.0474  0.0769
  172SAPE    HA19374  -0.520   6.550   3.399 -0.2953 -0.1560  0.1180
  172SAPE    HB19375  -0.398   6.419   3.426  0.0049 -0.0074  0.1909
  172SAPE    C219376  -0.473   6.521   3.607  0.1391 -0.3866 -0.2691
  172SAPE    HS19377  -0.554   6.447   3.622 -0.0444 -0.4354 -1.3921
  172SAPE   O2119378  -0.503   6.659   3.646 -0.0599 -0.1421  0.0929
  172SAPE   C2119379  -0.632   6.692   3.622  0.2628 -0.8937 -0.2336
  172SAPE   O2219380  -0.721   6.618   3.577 -0.1510  0.0721 -0.2423
  172SAPE   C2219381  -0.658   6.844   3.652  0.9113  0.0998  0.3548
  172SAPE   H2R19382  -0.567   6.886   3.699  0.6665  1.6495 -0.4788
  172SAPE   H2S19383  -0.671   6.885   3.549 -2.3087 -1.4128  0.0031
  172SAPE    C319384  -0.358   6.484   3.699  0.7029 -0.4900  0.0732
  172SAPE    HX19385  -0.284   6.565   3.685 -0.8338  1.1358  0.8641
  172SAPE    HY19386  -0.314   6.395   3.650 -0.4968 -0.2738 -1.4703
  172SAPE   O3119387  -0.391   6.461   3.840  0.4307 -0.2792  0.2810
  172SAPE   C3119388  -0.291   6.498   3.927  0.3638 -0.1484  0.3989
  172SAPE   O3219389  -0.185   6.544   3.892 -0.4054  0.1496 -0.5844
  172SAPE   C3219390  -0.341   6.479   4.069  0.5040 -0.5206  0.3590
  172SAPE   H2X19391  -0.265   6.422   4.126 -0.5767 -0.3325  2.0849
  172SAPE   H2Y19392  -0.433   6.416   4.069 -0.3649  0.6990 -0.5895
  172SAPE   C2319393  -0.798   6.848   3.727 -0.9127  0.5141  0.3897
  172SAPE   H3R19394  -0.865   6.800   3.653  1.5131 -0.4801 -1.2902
  172SAPE   H3S19395  -0.825   6.954   3.744 -0.7103  0.7326 -0.5951
  172SAPE   C2419396  -0.801   6.767   3.863  0.2650  0.8518  0.1710
  172SAPE   H4R19397  -0.792   6.656   3.861 -0.1967  0.7985  0.7586
  172SAPE   H4S19398  -0.905   6.785   3.896 -0.0266 -0.8374  0.2703
  172SAPE   C2519399  -0.703   6.832   3.960 -0.0022  0.5922  0.2851
  172SAPE   H5R19400  -0.596   6.830   3.936  0.0318  1.7150  0.3036
  172SAPE   C2619401  -0.730   6.884   4.083  0.2011  0.1517 -0.2054
  172SAPE   H6R19402  -0.649   6.916   4.150 -1.0542  0.3375  1.3119
  172SAPE   C2719403  -0.860   6.899   4.167 -0.8542 -1.1514  0.0095
  172SAPE   H7R19404  -0.952   6.870   4.112 -0.4794  0.4126 -1.5113
  172SAPE   H7S19405  -0.860   7.010   4.174  1.0716 -0.8370 -3.0371
  172SAPE   C2819406  -0.851   6.830   4.298  0.2777  0.5238 -0.4713
  172SAPE   H8R19407  -0.764   6.762   4.298 -0.5663 -0.7372  2.2903
  172SAPE   C2919408  -0.928   6.838   4.407  0.2995  0.0136 -0.4649
  172SAPE   H9R19409  -0.901   6.774   4.492  0.3788  1.9677  1.0659
  172SAPE  C21019410  -1.041   6.937   4.428 -0.1020  0.0080 -0.3484
  172SAPE  H10R19411  -1.144   6.900   4.407 -0.6459  1.9141 -1.2463
  172SAPE  H10S19412  -1.051   7.017   4.352 -0.9246 -0.1709 -0.4369
  172SAPE  C21119413  -1.021   6.996   4.561  0.0641  0.4161 -0.0748
  172SAPE  H11R19414  -0.966   6.937   4.636 -0.9157 -1.5641 -0.8349
  172SAPE  C21219415  -1.077   7.114   4.604  0.0618  0.2496 -0.3004
  172SAPE  H12R19416  -1.049   7.147   4.706  1.1101 -1.7404  0.1067
  172SAPE  C21319417  -1.162   7.215   4.530 -0.0161  0.9858 -0.6882
  172SAPE  H13R19418  -1.240   7.265   4.591 -0.0419  0.3320 -0.1700
  172SAPE  H13S19419  -1.221   7.164   4.450  0.3279  0.9016 -0.8907
  172SAPE  C21419420  -1.083   7.327   4.462  0.0722 -0.8265  0.0922
  172SAPE  H14R19421  -0.980   7.309   4.429 -0.4035  0.1355 -2.1221
  172SAPE  C21519422  -1.119   7.459   4.449 -0.0307 -0.2469 -0.2769
  172SAPE  H15R19423  -1.047   7.528   4.401 -0.4356  2.3612  2.5339
  172SAPE  C21619424  -1.245   7.531   4.493 -0.3957  0.5584 -0.1676
  172SAPE  H16R19425  -1.310   7.459   4.546 -0.9784  1.1548 -0.0641
  172SAPE  H16S19426  -1.297   7.561   4.399 -0.2918  0.0044 -0.4093
  172SAPE  C21719427  -1.218   7.651   4.578  0.5034 -0.2714 -0.0127
  172SAPE  H17R19428  -1.206   7.747   4.524 -0.0224  1.1612  2.2485
  172SAPE  H17S19429  -1.128   7.619   4.635  0.7154 -0.8237 -0.6443
  172SAPE  C21819430  -1.332   7.688   4.674  0.0401 -0.1812 -0.1616
  172SAPE  H18R19431  -1.347   7.597   4.734 -0.1272 -0.9132 -1.2790
  172SAPE  H18S19432  -1.422   7.711   4.612 -1.9905  0.6239  2.8793
  172SAPE  C21919433  -1.308   7.811   4.754  0.0085  1.2915 -0.1523
  172SAPE  H19R19434  -1.411   7.840   4.782 -1.1440 -1.1785 -1.4417
  172SAPE  H19S19435  -1.268   7.893   4.691  0.3745  1.0921 -0.1882
  172SAPE  C22019436  -1.229   7.786   4.882  0.5004  0.2102 -0.3472
  172SAPE  H20R19437  -1.268   7.696   4.934  0.2510  0.6809  0.2980
  172SAPE  H20S19438  -1.237   7.867   4.958  0.2551 -0.4024  0.2898
  172SAPE  H20T19439  -1.124   7.753   4.870  0.4990 -0.1295  0.4942
  172SAPE   C3319440  -0.366   6.616   4.142 -0.5568 -0.0557  0.4639
  172SAPE   H3X19441  -0.437   6.680   4.085 -0.8796  0.8575  1.8475
  172SAPE   H3Y19442  -0.268   6.666   4.135  0.3256 -1.8946 -2.7838
  172SAPE   C3419443  -0.380   6.613   4.295 -0.1216 -0.5991  0.5571
  172SAPE   H4X19444  -0.384   6.722   4.315  1.1350  0.1132 -2.5705
  172SAPE   H4Y19445  -0.281   6.580   4.335 -0.5890  0.3264  2.5964
  172SAPE   C3519446  -0.501   6.538   4.352  0.3178  0.0609  0.3935
  172SAPE   H5X19447  -0.484   6.431   4.328 -0.2949 -0.3231  1.5533
  172SAPE   H5Y19448  -0.597   6.574   4.309 -0.8002 -0.3515  2.3911
  172SAPE   C3619449  -0.512   6.548   4.505  0.3491  0.0462  0.2966
  172SAPE   H6X19450  -0.432   6.619   4.534 -0.0448 -0.0013  1.5710
  172SAPE   H6Y19451  -0.504   6.445   4.548  0.0854  0.4797  1.4268
  172SAPE   C3719452  -0.646   6.605   4.548  0.3250 -0.5963  0.3566
  172SAPE   H7X19453  -0.728   6.555   4.493 -0.6643  1.7300 -0.4262
  172SAPE   H7Y19454  -0.649   6.713   4.521 -0.3698 -0.5459  0.6161
  172SAPE   C3819455  -0.682   6.602   4.699 -0.9116 -0.5731 -0.3724
  172SAPE   H8X19456  -0.669   6.503   4.748 -2.3576 -0.4718  0.2722
  172SAPE   H8Y19457  -0.788   6.625   4.721 -0.4974 -0.4117  1.6885
  172SAPE   C3919458  -0.577   6.691   4.776  0.9430 -0.0682 -0.3478
  172SAPE   H9X19459  -0.590   6.796   4.743 -0.5875 -0.9174 -2.7711
  172SAPE   H9Y19460  -0.476   6.652   4.753  2.1505  1.4333  2.0742
  172SAPE  C31019461  -0.593   6.672   4.924  0.3204 -0.5978  0.6027
  172SAPE  H10X19462  -0.660   6.584   4.933 -1.0812  0.2781 -0.8112
  172SAPE  H10Y19463  -0.635   6.761   4.975  1.0399  0.9183 -1.3061
  172SAPE  C31119464  -0.461   6.624   5.001  0.3759 -0.6638 -0.1179
  172SAPE  H11X19465  -0.441   6.524   4.957 -0.5747 -1.0705  0.3251
  172SAPE  H11Y19466  -0.484   6.610   5.109  3.4644 -2.7423  0.3916
  172SAPE  C31219467  -0.330   6.702   4.996  0.1492  0.8071  0.4019
  172SAPE  H12X19468  -0.333   6.803   5.041  0.4670  2.1374 -2.3331
  172SAPE  H12Y19469  -0.300   6.711   4.889 -0.8668  2.2015  0.2129
  172SAPE  C31319470  -0.219   6.628   5.066  0.3801 -0.6121 -0.3818
  172SAPE  H13X19471  -0.199   6.535   5.008  0.2844  0.0642 -1.5257
  172SAPE  H13Y19472  -0.233   6.603   5.174  1.4253 -1.0683 -0.3379
  172SAPE  C31419473  -0.085   6.711   5.055 -0.0500 -0.0998 -0.5673
  172SAPE  H14X19474  -0.077   6.806   5.112 -0.5860 -1.7131  2.4105
  172SAPE  H14Y19475  -0.093   6.754   4.953  0.3539 -1.7102 -1.3083
  172SAPE  C31519476   0.040   6.628   5.097  0.2947  0.2089 -0.3354
  172SAPE  H15X19477   0.028   6.523   5.063 -0.1212  0.0061  0.3994
  172SAPE  H15Y19478   0.040   6.607   5.206 -1.3792 -1.0983 -0.5351
  172SAPE  C31619479   0.176   6.673   5.029 -0.2092 -0.2426 -0.1185
  172SAPE  H16X19480   0.162   6.716   4.927  1.1310  2.7575  0.8563
  172SAPE  H16Y19481   0.237   6.582   5.015 -1.7964 -1.1617 -1.4316
  172SAPE  C31719482   0.252   6.768   5.122 -0.4774  0.0871 -0.3790
  172SAPE  H17X19483   0.241   6.720   5.221  0.4173  1.2571  0.3027
  172SAPE  H17Y19484   0.185   6.856   5.112 -1.9936 -1.1404 -1.7191
  172SAPE  C31819485   0.395   6.789   5.076  0.4016 -0.1245  0.5735
  172SAPE  H18X19486   0.455   6.860   5.137  3.8981 -0.5469 -2.0446
  172SAPE  H18Y19487   0.379   6.842   4.980  0.9638 -0.6851  0.1669
  172SAPE  H18Z19488   0.458   6.700   5.058  1.7166  1.0310 -0.7668
  173SLPC     N19489   3.752   4.886   7.431 -0.2955 -0.0430 -0.8498
  173SLPC   C1319490   3.726   4.777   7.526 -0.0660 -0.1836  0.5281
  173SLPC  H13A19491   3.777   4.782   7.620 -1.4957  2.2450  1.2548
  173SLPC  H13B19492   3.623   4.769   7.560  0.2461  0.8436  1.7826
  173SLPC  H13C19493   3.761   4.683   7.486 -0.8790 -0.6129  0.7946
  173SLPC   C1419494   3.896   4.894   7.412  0.2278  0.0277 -0.1766
  173SLPC  H14A19495   3.938   4.809   7.362  1.1375 -0.1701  0.8709
  173SLPC  H14B19496   3.910   4.970   7.337  1.6277 -0.5960 -0.5852
  173SLPC  H14C19497   3.953   4.924   7.499  0.4426  1.9905 -0.9347
  173SLPC   C1519498   3.695   5.006   7.495 -0.1677 -0.1851  0.3011
  173SLPC  H15A19499   3.735   5.032   7.592 -0.8532  1.5988  0.1479
  173SLPC  H15B19500   3.705   5.098   7.440  4.1501 -0.7633 -0.2580
  173SLPC  H15C19501   3.590   4.990   7.515 -0.3441  0.5847 -0.0072
  173SLPC   C1219502   3.682   4.867   7.293  0.5740 -0.7497 -1.5290
  173SLPC  H12A19503   3.731   4.790   7.235  2.4295  1.3840 -2.9625
  173SLPC  H12B19504   3.690   4.952   7.228  2.6447  0.4742  0.1781
  173SLPC   C1119505   3.531   4.821   7.297 -0.0622  0.2593 -0.3280
  173SLPC  H11A19506   3.526   4.730   7.360 -2.6359  0.0584 -0.7016
  173SLPC  H11B19507   3.518   4.781   7.195  0.9402 -1.5308  0.2126
  173SLPC     P19508   3.389   5.037   7.249  0.2529 -0.3611 -0.2631
  173SLPC   O1319509   3.306   5.123   7.333  0.5957 -0.5130  1.0208
  173SLPC   O1419510   3.508   5.098   7.189  0.5919 -0.1965  0.2005
  173SLPC   O1219511   3.434   4.918   7.337  0.0037  0.3189 -0.1624
  173SLPC   O1119512   3.306   4.968   7.128  0.3529 -0.5816 -0.0840
  173SLPC    C119513   3.199   4.881   7.143 -0.5040  0.0887  1.0300
  173SLPC    HA19514   3.208   4.835   7.244  0.0944  2.4684  2.1230
  173SLPC    HB19515   3.101   4.931   7.159 -0.4412  0.0366  1.6152
  173SLPC    C219516   3.208   4.777   7.034  0.0051 -0.3700  0.0948
  173SLPC    HS19517   3.312   4.738   7.042 -0.2042 -0.7954  0.8880
  173SLPC   O2119518   3.193   4.830   6.902 -0.6714  0.1349  0.5210
  173SLPC   C2119519   3.252   4.776   6.801 -0.1373 -0.0936  0.1246
  173SLPC   O2219520   3.322   4.674   6.801 -0.1540 -0.3444 -0.6347
  173SLPC   C2219521   3.238   4.874   6.684  0.3567 -0.1858  0.7637
  173SLPC   H2R19522   3.132   4.862   6.652 -0.3905 -0.6929  3.2023
  173SLPC   H2S19523   3.248   4.975   6.727 -0.2642 -0.2583  1.0979
  173SLPC    C319524   3.117   4.659   7.054  0.0754  0.1744  0.4655
  173SLPC    HX19525   3.150   4.604   7.144 -2.2409 -3.3185 -0.6233
  173SLPC    HY19526   3.128   4.578   6.979  0.4898  0.1902  0.5066
  173SLPC   O3119527   2.984   4.710   7.076 -0.6782  0.2221  0.6909
  173SLPC   C3119528   2.901   4.612   7.119  0.3663 -0.3630 -0.6789
  173SLPC   O3219529   2.943   4.504   7.160 -0.0779 -0.2582 -0.1573
  173SLPC   C3219530   2.757   4.662   7.099  0.9912  0.4707 -0.1068
  173SLPC   H2X19531   2.757   4.754   7.038  0.9546  1.3908  1.2494
  173SLPC   H2Y19532   2.716   4.695   7.197 -0.5589  1.0442 -0.9154
  173SLPC   C2319533   3.339   4.845   6.565  0.2382 -0.5462 -0.3832
  173SLPC   H3R19534   3.349   4.738   6.535 -0.6617 -0.4004 -1.2841
  173SLPC   H3S19535   3.437   4.875   6.607 -0.7251  1.1743  0.7492
  173SLPC   C2419536   3.323   4.928   6.435  0.4664  0.2100  0.1146
  173SLPC   H4R19537   3.344   5.035   6.457 -1.8616  1.3485 -2.4740
  173SLPC   H4S19538   3.215   4.920   6.408  0.2534 -2.3237  1.4672
  173SLPC   C2519539   3.418   4.884   6.322 -0.8533 -0.3525  0.3878
  173SLPC   H5R19540   3.408   4.780   6.284  0.7092 -0.4202  0.0822
  173SLPC   H5S19541   3.520   4.873   6.365 -1.0793 -1.1477  0.7494
  173SLPC   C2619542   3.413   4.987   6.212  0.4815  0.1390 -0.7886
  173SLPC   H6R19543   3.447   5.079   6.263  0.1384 -0.3233  0.3006
  173SLPC   H6S19544   3.307   5.000   6.180  0.1479  1.6984  0.8039
  173SLPC   C2719545   3.506   4.963   6.095  0.1400  0.5342  0.3938
  173SLPC   H7R19546   3.604   4.947   6.146  0.9741 -0.9086 -1.5544
  173SLPC   H7S19547   3.524   5.055   6.036 -1.9670  1.0586  0.5072
  173SLPC   C2819548   3.452   4.858   5.988 -0.8386  0.2432 -0.4065
  173SLPC   H8R19549   3.406   4.770   6.038 -0.6994 -2.1092 -4.0753
  173SLPC   H8S19550   3.542   4.815   5.939 -0.7071 -0.0695  0.1000
  173SLPC   C2919551   3.355   4.910   5.887  0.4079 -0.3915 -0.8740
  173SLPC   H9R19552   3.258   4.951   5.921  1.6008  0.8772  1.1602
  173SLPC  C21019553   3.382   4.925   5.756 -0.0339  0.2785  0.0723
  173SLPC  H10R19554   3.302   4.967   5.693 -0.1843 -0.0522  0.0382
  173SLPC  C21119555   3.521   4.915   5.704 -0.2624 -0.7860  0.5303
  173SLPC  H11R19556   3.566   4.814   5.718 -1.7475 -1.6395 -0.5380
  173SLPC  H11S19557   3.585   4.990   5.754 -0.4391 -0.1975 -0.1144
  173SLPC  C21219558   3.535   4.928   5.553  0.0696 -0.2575 -0.1703
  173SLPC  H12R19559   3.436   4.948   5.510  0.6446  0.3055 -1.2710
  173SLPC  C21319560   3.651   4.914   5.481 -0.7212  0.4404  0.0713
  173SLPC  H13R19561   3.659   4.918   5.372 -0.3945  0.8319  0.1043
  173SLPC  C21419562   3.792   4.895   5.537 -0.4017 -0.2129 -0.6586
  173SLPC  H14R19563   3.817   4.976   5.609 -0.0684 -0.7404 -0.1778
  173SLPC  H14S19564   3.874   4.914   5.464  0.7008 -1.8715  0.0775
  173SLPC  C21519565   3.833   4.758   5.616  0.2851  0.1318  0.2904
  173SLPC  H15R19566   3.765   4.756   5.703 -0.3391  0.5656 -0.1834
  173SLPC  H15S19567   3.938   4.778   5.647  0.1396  0.3860  0.6203
  173SLPC  C21619568   3.833   4.632   5.532 -0.6723 -0.1236  0.1462
  173SLPC  H16R19569   3.727   4.605   5.513 -0.1554 -0.5359 -2.6071
  173SLPC  H16S19570   3.871   4.542   5.585 -0.1124  0.0501  0.0456
  173SLPC  C21719571   3.896   4.629   5.392  0.7128  0.4164 -0.6905
  173SLPC  H17R19572   4.005   4.654   5.395  0.6451  0.6702 -0.2762
  173SLPC  H17S19573   3.838   4.698   5.327  1.6864  1.8713 -0.0593
  173SLPC  C21819574   3.881   4.486   5.333  0.4880 -0.4280 -0.0945
  173SLPC  H18R19575   3.949   4.421   5.392  1.1913  0.7418  0.4264
  173SLPC  H18S19576   3.909   4.470   5.227  0.1476 -2.4837  0.0835
  173SLPC  H18T19577   3.774   4.464   5.354  0.6758  0.7692  2.4505
  173SLPC   C3319578   2.660   4.557   7.039  0.3223 -0.6295  0.6035
  173SLPC   H3X19579   2.556   4.595   7.049  0.3348  0.2393 -1.8651
  173SLPC   H3Y19580   2.671   4.464   7.099 -2.6463 -0.3913  1.6913
  173SLPC   C3419581   2.667   4.526   6.893  0.1724  0.2223  0.4440
  173SLPC   H4X19582   2.603   4.601   6.843  1.0105  0.9628  0.4697
  173SLPC   H4Y19583   2.622   4.425   6.887  1.6962 -0.4280 -0.7528
  173SLPC   C3519584   2.803   4.537   6.826 -0.0223  0.3600  0.2796
  173SLPC   H5X19585   2.860   4.453   6.871 -1.5920 -1.7733 -1.5559
  173SLPC   H5Y19586   2.851   4.636   6.846  0.0014  0.3310  0.3631
  173SLPC   C3619587   2.805   4.503   6.668 -0.2329  0.2001 -0.2706
  173SLPC   H6X19588   2.709   4.532   6.619 -0.0478 -0.6901 -1.1998
  173SLPC   H6Y19589   2.810   4.392   6.660 -2.9829  0.0256 -0.6882
  173SLPC   C3719590   2.935   4.566   6.605  0.1478 -0.3203  0.1689
  173SLPC   H7X19591   3.024   4.520   6.653  1.1631  0.7792 -0.5826
  173SLPC   H7Y19592   2.940   4.671   6.642  0.1926 -0.9534  2.0965
  173SLPC   C3819593   2.941   4.564   6.450 -0.7929 -0.3848 -0.6092
  173SLPC   H8X19594   2.872   4.635   6.400  0.3891  1.8917  0.7757
  173SLPC   H8Y19595   2.913   4.460   6.425 -0.8204 -0.0483 -2.1013
  173SLPC   C3919596   3.083   4.585   6.398  0.1539  0.7472 -0.0436
  173SLPC   H9X19597   3.151   4.505   6.432  0.9455  0.8326 -1.3513
  173SLPC   H9Y19598   3.123   4.680   6.441  2.0393 -0.0713  0.0866
  173SLPC  C31019599   3.072   4.566   6.245 -0.3752  0.1529 -0.7528
  173SLPC  H10X19600   3.028   4.652   6.190 -0.2230  0.5667 -0.2409
  173SLPC  H10Y19601   3.013   4.475   6.222  1.6987 -0.9835 -1.8633
  173SLPC  C31119602   3.210   4.539   6.179  0.3723 -0.4812  0.2896
  173SLPC  H11X19603   3.254   4.449   6.227 -2.3784 -1.5441  1.0437
  173SLPC  H11Y19604   3.275   4.627   6.200 -2.4485  1.5746  0.9995
  173SLPC  C31219605   3.197   4.520   6.026  0.0712 -0.3910 -0.2587
  173SLPC  H12X19606   3.170   4.621   5.988  1.1003  0.1249  0.3152
  173SLPC  H12Y19607   3.115   4.452   5.995 -0.5198  0.1128  0.1744
  173SLPC  C31319608   3.330   4.469   5.961 -0.4172 -0.4617  0.4747
  173SLPC  H13X19609   3.342   4.363   5.992  1.7612  0.1937  2.1110
  173SLPC  H13Y19610   3.417   4.525   6.000 -1.7661  2.5232 -0.4792
  173SLPC  C31419611   3.322   4.488   5.809  0.0713 -0.4756  0.4998
  173SLPC  H14X19612   3.305   4.597   5.796  0.0687 -0.1835  2.6583
  173SLPC  H14Y19613   3.227   4.440   5.776  0.2828 -1.7102  1.6188
  173SLPC  C31519614   3.435   4.439   5.711  0.3199 -0.3211 -0.4231
  173SLPC  H15X19615   3.531   4.481   5.746  0.2924 -2.2513  2.2995
  173SLPC  H15Y19616   3.402   4.479   5.612 -1.2860  1.6759  0.8395
  173SLPC  C31619617   3.450   4.282   5.710  0.5528  0.1967  0.2394
  173SLPC  H16X19618   3.347   4.248   5.686  0.0369  1.2662  0.8288
  173SLPC  H16Y19619   3.466   4.245   5.814 -1.1003 -1.7100 -0.1395
  173SLPC  C31719620   3.544   4.238   5.602 -0.4889 -0.0037 -0.8339
  173SLPC  H17X19621   3.631   4.307   5.610 -0.1249 -0.5845  0.4187
  173SLPC  H17Y19622   3.500   4.242   5.500 -0.2587  2.3002 -0.9139
  173SLPC  C31819623   3.600   4.094   5.632  0.3863 -0.2344 -0.0506
  173SLPC  H18X19624   3.655   4.064   5.540 -0.5219 -1.2295 -0.2841
  173SLPC  H18Y19625   3.513   4.027   5.647  0.0388  0.2235 -0.0181
  173SLPC  H18Z19626   3.676   4.092   5.713  2.1908 -0.2753 -1.6662
  174SLPC     N19627   0.437   5.648   7.755 -0.1895 -0.2290 -1.0340
  174SLPC   C1319628   0.361   5.524   7.792  0.2582 -0.1549  0.1037
  174SLPC  H13A19629   0.402   5.446   7.729  0.7903 -1.0626  1.5019
  174SLPC  H13B19630   0.383   5.499   7.895 -0.5691 -0.1234  0.2887
  174SLPC  H13C19631   0.256   5.529   7.769  0.2561 -2.7342 -0.7530
  174SLPC   C1419632   0.585   5.640   7.791  0.1448 -0.2029  0.5463
  174SLPC  H14A19633   0.607   5.620   7.895 -1.6304  1.3721  1.2728
  174SLPC  H14B19634   0.636   5.564   7.734  1.8981  2.9792 -2.5350
  174SLPC  H14C19635   0.632   5.734   7.764  0.7360 -0.7342 -0.3228
  174SLPC   C1519636   0.365   5.767   7.812 -0.3385 -0.0445  0.0034
  174SLPC  H15A19637   0.260   5.747   7.822 -1.1849  2.7166 -2.0539
  174SLPC  H15B19638   0.414   5.782   7.907 -1.4838  0.4591  0.5296
  174SLPC  H15C19639   0.380   5.853   7.747  2.1052 -0.6343 -0.3341
  174SLPC   C1219640   0.434   5.654   7.596 -0.8726 -0.0426 -0.2200
  174SLPC  H12A19641   0.484   5.742   7.558 -1.8123 -0.2638 -2.1166
  174SLPC  H12B19642   0.333   5.680   7.568 -0.4846 -0.2358 -1.9031
  174SLPC   C1119643   0.482   5.525   7.520 -0.1683 -0.2237 -0.1917
  174SLPC  H11A19644   0.457   5.544   7.413 -2.6947 -1.3934  0.1165
  174SLPC  H11B19645   0.407   5.452   7.558 -0.4100  0.9414  1.6488
  174SLPC     P19646   0.722   5.529   7.434 -0.2049  0.3182  0.0570
  174SLPC   O1319647   0.752   5.671   7.440  0.1999 -0.0891  0.4274
  174SLPC   O1419648   0.837   5.440   7.450  0.4157 -0.1232 -0.4296
  174SLPC   O1219649   0.621   5.485   7.547 -0.2084  0.7704 -0.0011
  174SLPC   O1119650   0.644   5.496   7.294  0.5605 -0.2245  0.4789
  174SLPC    C119651   0.643   5.359   7.242 -0.3238  0.1633 -0.1483
  174SLPC    HA19652   0.743   5.347   7.197 -0.4617 -1.0157 -0.1636
  174SLPC    HB19653   0.644   5.290   7.329  2.5170 -1.4142 -1.3238
  174SLPC    C219654   0.536   5.324   7.129 -0.3740 -0.4951 -0.8970
  174SLPC    HS19655   0.564   5.232   7.072 -0.3439 -0.3155 -1.1754
  174SLPC   O2119656   0.512   5.431   7.045 -0.8922 -0.0983 -0.2518
  174SLPC   C2119657   0.624   5.458   6.963  0.1499  0.4158 -0.1392
  174SLPC   O2219658   0.721   5.384   6.955 -0.1590 -0.2929  0.3731
  174SLPC   C2219659   0.583   5.561   6.863 -0.3079 -0.5355  0.1801
  174SLPC   H2R19660   0.487   5.612   6.886  0.3086  0.1816  1.2548
  174SLPC   H2S19661   0.653   5.646   6.879 -0.9976  0.2397 -0.7591
  174SLPC    C319662   0.405   5.299   7.198  0.0370 -0.2612  0.2938
  174SLPC    HX19663   0.378   5.388   7.258  0.0541  0.3397 -0.5781
  174SLPC    HY19664   0.419   5.208   7.260  0.8936 -0.9815 -0.9153
  174SLPC   O3119665   0.303   5.269   7.101 -0.3943 -0.4744  0.5663
  174SLPC   C3119666   0.204   5.352   7.097  0.3707 -0.1733  0.7816
  174SLPC   O3219667   0.182   5.452   7.166  0.1542 -0.1224 -0.1547
  174SLPC   C3219668   0.107   5.314   6.986 -0.0272 -0.0787  0.4152
  174SLPC   H2X19669   0.012   5.364   7.015 -0.0882  1.3106 -1.9612
  174SLPC   H2Y19670   0.089   5.204   6.994  2.9414 -0.8498 -1.6356
  174SLPC   C2319671   0.599   5.516   6.721 -0.6314  0.1798  0.0266
  174SLPC   H3R19672   0.521   5.439   6.702  0.7920 -0.9345 -1.6107
  174SLPC   H3S19673   0.698   5.469   6.706 -0.0231  1.8726 -1.7587
  174SLPC   C2419674   0.598   5.628   6.616 -0.0846  0.1049 -0.2138
  174SLPC   H4R19675   0.659   5.712   6.656  1.1764  0.0913 -2.0166
  174SLPC   H4S19676   0.493   5.664   6.606 -0.7584 -1.5263  0.5137
  174SLPC   C2519677   0.652   5.576   6.487 -0.4318  0.8042  0.2144
  174SLPC   H5R19678   0.609   5.479   6.454 -0.4269  0.6675  0.6049
  174SLPC   H5S19679   0.762   5.560   6.482 -0.7194 -1.1661 -0.5871
  174SLPC   C2619680   0.625   5.675   6.372 -0.4988  0.0035 -0.4528
  174SLPC   H6R19681   0.692   5.763   6.381  0.0819 -0.5725  1.5487
  174SLPC   H6S19682   0.519   5.705   6.367 -1.2879 -2.5931 -0.7115
  174SLPC   C2719683   0.648   5.618   6.228 -0.3324  0.2267  0.2990
  174SLPC   H7R19684   0.601   5.517   6.231 -1.8390  0.8988  0.0951
  174SLPC   H7S19685   0.756   5.608   6.204 -0.2431 -1.4964  1.2092
  174SLPC   C2819686   0.584   5.709   6.123 -0.0976 -0.0499  0.2508
  174SLPC   H8R19687   0.635   5.807   6.130 -1.7606  0.8683  0.0676
  174SLPC   H8S19688   0.478   5.740   6.133  0.1476  1.4609 -1.4239
  174SLPC   C2919689   0.603   5.659   5.979 -0.2073  1.1492 -0.3229
  174SLPC   H9R19690   0.699   5.608   5.963  0.0544  0.6347  2.3945
  174SLPC  C21019691   0.510   5.664   5.884 -0.6264  0.1456  0.6521
  174SLPC  H10R19692   0.549   5.626   5.789 -1.4476 -1.2001  0.8277
  174SLPC  C21119693   0.370   5.721   5.894 -0.3606 -0.5438  0.4406
  174SLPC  H11R19694   0.369   5.832   5.889  1.3880 -0.5295 -0.1766
  174SLPC  H11S19695   0.326   5.708   5.996  0.2805  0.9213  0.9292
  174SLPC  C21219696   0.269   5.678   5.785  0.0849 -0.0334  0.3260
  174SLPC  H12R19697   0.201   5.604   5.829  1.5128 -1.1956  0.6416
  174SLPC  C21319698   0.268   5.729   5.657  0.4852  0.3368 -0.4328
  174SLPC  H13R19699   0.202   5.692   5.577  1.6480  1.9112 -2.1867
  174SLPC  C21419700   0.367   5.816   5.601  0.1840  0.3687  0.4779
  174SLPC  H14R19701   0.457   5.837   5.662 -0.6906  0.3735  1.8078
  174SLPC  H14S19702   0.321   5.917   5.589 -0.5643 -0.0500 -0.2851
  174SLPC  C21519703   0.421   5.768   5.461  0.2829 -0.0906  0.2271
  174SLPC  H15R19704   0.475   5.849   5.407  1.4988 -0.4897  0.8073
  174SLPC  H15S19705   0.336   5.742   5.394  0.9764  0.8105 -1.0524
  174SLPC  C21619706   0.527   5.658   5.479 -0.7210  0.0052  0.5047
  174SLPC  H16R19707   0.496   5.564   5.529 -1.5468 -0.2054 -0.3720
  174SLPC  H16S19708   0.614   5.690   5.541  1.2531 -4.5261  0.4957
  174SLPC  C21719709   0.586   5.612   5.346  0.4871 -0.1874 -0.4372
  174SLPC  H17R19710   0.601   5.693   5.271 -2.0014  0.3406 -0.4467
  174SLPC  H17S19711   0.506   5.557   5.292 -0.5917  2.4540 -1.7112
  174SLPC  C21819712   0.714   5.530   5.345 -0.2853  0.0229  0.0657
  174SLPC  H18R19713   0.710   5.428   5.389  1.8712 -0.2995 -0.3966
  174SLPC  H18S19714   0.796   5.585   5.396  0.3728  0.2464 -1.2048
  174SLPC  H18T19715   0.744   5.528   5.238  0.4443 -1.4441  0.2780
  174SLPC   C3319716   0.129   5.336   6.829 -0.2131  0.5562  0.3214
  174SLPC   H3X19717   0.049   5.287   6.770  1.2786 -0.8149 -0.6480
  174SLPC   H3Y19718   0.221   5.277   6.810 -0.5543 -0.2634  1.1246
  174SLPC   C3419719   0.148   5.483   6.795  0.0780 -0.1723 -0.5641
  174SLPC   H4X19720   0.250   5.506   6.834 -0.2573 -1.4036  1.1732
  174SLPC   H4Y19721   0.074   5.541   6.853  1.0270 -1.6964  2.3577
  174SLPC   C3519722   0.132   5.523   6.650 -0.0546 -0.0412  0.4124
  174SLPC   H5X19723   0.165   5.627   6.632  1.3722 -0.3998  0.8545
  174SLPC   H5Y19724   0.026   5.515   6.618 -0.3485  2.2029  0.6792
  174SLPC   C3619725   0.211   5.425   6.559  0.2299 -0.0114 -0.4513
  174SLPC   H6X19726   0.161   5.327   6.570 -0.8248  0.5963  0.4165
  174SLPC   H6Y19727   0.307   5.398   6.608 -0.5172 -2.2116 -0.1080
  174SLPC   C3719728   0.200   5.462   6.416 -0.1108  0.0320  0.2263
  174SLPC   H7X19729   0.262   5.554   6.411  0.1735 -0.1620  0.1551
  174SLPC   H7Y19730   0.097   5.484   6.381 -0.3497 -1.8452 -0.3333
  174SLPC   C3819731   0.259   5.365   6.309  0.4782 -0.5860  0.2285
  174SLPC   H8X19732   0.175   5.294   6.294 -0.7752 -0.0869  3.8521
  174SLPC   H8Y19733   0.342   5.295   6.330  0.5659 -0.7578 -0.6416
  174SLPC   C3919734   0.291   5.446   6.182  0.0477  0.4107 -0.1517
  174SLPC   H9X19735   0.382   5.506   6.203  2.2694 -2.4015 -1.2009
  174SLPC   H9Y19736   0.210   5.517   6.152 -0.1920 -0.2669 -1.1693
  174SLPC  C31019737   0.332   5.358   6.060  0.4991 -0.7914  0.2661
  174SLPC  H10X19738   0.378   5.262   6.094  1.8930 -0.5193 -0.7459
  174SLPC  H10Y19739   0.411   5.403   5.996 -1.4285 -0.2542 -1.8893
  174SLPC  C31119740   0.204   5.322   5.973 -0.0383 -0.6778  0.3214
  174SLPC  H11X19741   0.163   5.417   5.933  0.7112 -0.2277  0.5999
  174SLPC  H11Y19742   0.124   5.284   6.040  0.4764 -1.8766  0.2737
  174SLPC  C31219743   0.242   5.219   5.861 -0.6360 -0.1062 -0.9014
  174SLPC  H12X19744   0.303   5.138   5.908  2.1030  0.6062 -2.9854
  174SLPC  H12Y19745   0.311   5.269   5.790 -0.8871  2.3234  0.4421
  174SLPC  C31319746   0.122   5.164   5.783 -0.2586  0.1243  0.2891
  174SLPC  H13X19747   0.033   5.231   5.779 -2.8286 -2.8671  2.0808
  174SLPC  H13Y19748   0.068   5.082   5.835 -1.4899  1.9806  2.1293
  174SLPC  C31419749   0.159   5.109   5.645  0.3431 -0.1670 -0.9311
  174SLPC  H14X19750   0.227   5.022   5.662 -0.1481 -0.7734 -1.9320
  174SLPC  H14Y19751   0.211   5.186   5.585 -1.0054 -0.1411 -2.1413
  174SLPC  C31519752   0.048   5.045   5.562  0.6610  0.1617 -0.1366
  174SLPC  H15X19753  -0.047   5.102   5.564  0.7849  0.3610  1.2405
  174SLPC  H15Y19754   0.010   4.948   5.602  0.4181  0.0780 -0.5592
  174SLPC  C31619755   0.080   5.039   5.419  0.3161 -0.3054  0.9709
  174SLPC  H16X19756   0.180   5.001   5.387 -1.0322 -2.3173 -1.1773
  174SLPC  H16Y19757   0.076   5.144   5.381 -0.7720 -1.1365 -1.3800
  174SLPC  C31719758  -0.033   4.981   5.331 -0.2914  0.5106 -0.4396
  174SLPC  H17X19759  -0.131   5.019   5.367 -1.8317 -2.5723 -1.0049
  174SLPC  H17Y19760  -0.035   4.870   5.334  1.9867  0.4161 -0.7786
  174SLPC  C31819761  -0.019   5.023   5.185  0.1421  0.0063  1.3724
  174SLPC  H18X19762  -0.035   5.132   5.172 -0.3520 -0.1216  0.8661
  174SLPC  H18Y19763  -0.093   4.972   5.120  0.1689  1.7776 -0.1145
  174SLPC  H18Z19764   0.082   5.002   5.142 -1.5139 -0.8537 -2.5928
  175SLPC     N19765   2.779   2.051   7.484 -0.1073 -0.2264 -0.3056
  175SLPC   C1319766   2.846   1.928   7.440  0.2114  0.1217 -0.0279
  175SLPC  H13A19767   2.859   1.925   7.333 -1.1813 -2.1282 -0.1893
  175SLPC  H13B19768   2.943   1.918   7.486  0.6653 -0.0324 -1.0060
  175SLPC  H13C19769   2.795   1.841   7.478  1.7023  0.4712  3.1235
  175SLPC   C1419770   2.783   2.055   7.635  0.3651 -1.2288  0.2779
  175SLPC  H14A19771   2.736   1.967   7.678 -0.1553 -0.8187  0.5638
  175SLPC  H14B19772   2.885   2.054   7.671  0.6294 -1.5706 -0.4604
  175SLPC  H14C19773   2.719   2.134   7.670 -1.0546 -2.1152 -0.2412
  175SLPC   C1519774   2.633   2.051   7.436  0.6357  0.1537  0.3944
  175SLPC  H15A19775   2.570   1.982   7.489  0.1157 -0.4579 -0.9666
  175SLPC  H15B19776   2.594   2.151   7.447 -1.1961 -0.7012  2.4854
  175SLPC  H15C19777   2.623   2.032   7.330  3.3908  1.6377 -0.2329
  175SLPC   C1219778   2.850   2.177   7.439 -1.0885  0.0879  0.1515
  175SLPC  H12A19779   2.867   2.168   7.333  1.6009 -0.8882  0.5798
  175SLPC  H12B19780   2.950   2.167   7.480 -0.3536  1.4135 -1.2012
  175SLPC   C1119781   2.805   2.319   7.472 -0.1557  0.8600  0.0184
  175SLPC  H11A19782   2.883   2.388   7.433  0.0594  0.6038 -0.0062
  175SLPC  H11B19783   2.804   2.324   7.583  4.4046  0.0547  0.2705
  175SLPC     P19784   2.662   2.386   7.258 -0.0947  0.3162 -0.4605
  175SLPC   O1319785   2.518   2.388   7.230 -0.1137  0.3661  0.3155
  175SLPC   O1419786   2.739   2.509   7.233  0.2198 -0.6965  0.1225
  175SLPC   O1219787   2.679   2.345   7.415  0.1741  0.3331 -0.0813
  175SLPC   O1119788   2.740   2.260   7.198 -0.2725  0.5084 -0.2862
  175SLPC    C119789   2.665   2.159   7.127 -0.5671  0.8800  0.2293
  175SLPC    HA19790   2.715   2.061   7.142 -2.0163 -0.1199 -1.1432
  175SLPC    HB19791   2.568   2.139   7.178 -0.9790  2.6451  0.2049
  175SLPC    C219792   2.646   2.192   6.977  0.4914 -0.4910 -0.6568
  175SLPC    HS19793   2.741   2.174   6.921  0.2265 -0.1596 -1.2230
  175SLPC   O2119794   2.591   2.327   6.965 -0.0351 -0.3259  0.4508
  175SLPC   C2119795   2.615   2.385   6.852 -0.6544  0.0055  0.5429
  175SLPC   O2219796   2.682   2.342   6.759 -0.1885 -0.0803  0.0713
  175SLPC   C2219797   2.553   2.531   6.847 -0.0315 -0.0791 -0.5333
  175SLPC   H2R19798   2.453   2.525   6.896  0.6524 -0.5666  0.8801
  175SLPC   H2S19799   2.627   2.582   6.912  0.0315  0.1946 -0.8242
  175SLPC    C319800   2.547   2.085   6.911  0.3916  0.3793  0.4224
  175SLPC    HX19801   2.468   2.055   6.983  1.2517 -1.1135  0.7964
  175SLPC    HY19802   2.608   1.992   6.913 -1.2928 -0.7838 -0.2589
  175SLPC   O3119803   2.491   2.129   6.786 -0.0842  0.5536 -0.5108
  175SLPC   C3119804   2.546   2.071   6.683  0.5379 -0.4695  0.1865
  175SLPC   O3219805   2.649   2.006   6.681  0.2600 -0.1840 -0.5750
  175SLPC   C3219806   2.456   2.077   6.561 -0.1223 -0.1796 -0.2661
  175SLPC   H2X19807   2.442   2.186   6.547 -0.6047 -0.1093  0.6761
  175SLPC   H2Y19808   2.359   2.030   6.587  0.7851 -2.1979 -0.3488
  175SLPC   C2319809   2.544   2.593   6.703  0.3024  0.1467 -0.5478
  175SLPC   H3R19810   2.473   2.528   6.648  0.3042 -0.3314  0.0038
  175SLPC   H3S19811   2.639   2.585   6.646 -0.6868 -1.1447 -2.1030
  175SLPC   C2419812   2.490   2.739   6.709 -0.1489  0.1956  0.3453
  175SLPC   H4R19813   2.570   2.789   6.768  0.4889  0.2978 -0.5711
  175SLPC   H4S19814   2.398   2.751   6.769 -0.6215  0.8014 -0.4772
  175SLPC   C2519815   2.478   2.796   6.566  0.3948  1.0296  0.2701
  175SLPC   H5R19816   2.580   2.782   6.524  1.4519  0.4335  2.8963
  175SLPC   H5S19817   2.464   2.906   6.569 -0.1667  0.9449  0.8425
  175SLPC   C2619818   2.366   2.731   6.485  0.4517  0.9590 -0.1907
  175SLPC   H6R19819   2.277   2.771   6.538  0.6754  1.6772 -0.3373
  175SLPC   H6S19820   2.367   2.620   6.483 -0.3636  0.9467 -0.3390
  175SLPC   C2719821   2.377   2.775   6.333  1.0458  0.2431 -0.4356
  175SLPC   H7R19822   2.477   2.744   6.295  1.5440  0.1186  0.9124
  175SLPC   H7S19823   2.367   2.886   6.327 -1.7544  0.0670 -0.5045
  175SLPC   C2819824   2.248   2.721   6.265 -0.4306 -0.3076 -0.0441
  175SLPC   H8R19825   2.161   2.774   6.309 -0.6461 -1.5202  1.0365
  175SLPC   H8S19826   2.238   2.613   6.289 -2.2100 -0.2264 -0.2849
  175SLPC   C2919827   2.249   2.750   6.120  0.3240  0.0634  1.7233
  175SLPC   H9R19828   2.265   2.856   6.095 -1.1874 -0.0720 -0.0173
  175SLPC  C21019829   2.242   2.659   6.021 -1.2759  0.0601 -0.3137
  175SLPC  H10R19830   2.248   2.693   5.916  0.8482 -1.2409 -0.6738
  175SLPC  C21119831   2.214   2.515   6.038  0.3744 -0.2706  0.0751
  175SLPC  H11R19832   2.269   2.473   6.125 -1.1967 -2.4325  0.1191
  175SLPC  H11S19833   2.265   2.463   5.953 -1.4495 -0.8300 -0.7190
  175SLPC  C21219834   2.068   2.491   6.055 -0.5523 -0.5427 -0.0894
  175SLPC  H12R19835   2.016   2.571   6.110  0.1212  2.9038 -3.9463
  175SLPC  C21319836   1.990   2.399   5.995 -0.3376  0.7229 -0.1351
  175SLPC  H13R19837   1.882   2.404   6.014 -0.2855  0.8742  0.1343
  175SLPC  C21419838   2.034   2.288   5.898  0.6347  0.4498 -0.0822
  175SLPC  H14R19839   2.004   2.191   5.942  0.0029 -0.0626 -1.5647
  175SLPC  H14S19840   2.143   2.298   5.877  0.8736  1.0799  1.3345
  175SLPC  C21519841   1.950   2.309   5.770 -0.4141 -0.7497  0.3926
  175SLPC  H15R19842   1.952   2.417   5.745  0.0319 -0.6138  0.9833
  175SLPC  H15S19843   1.843   2.281   5.784 -0.3800  0.0895  2.7181
  175SLPC  C21619844   2.008   2.223   5.659  0.0452  0.7026 -0.5853
  175SLPC  H16R19845   1.987   2.117   5.684 -4.6166  1.7050  0.6413
  175SLPC  H16S19846   2.114   2.247   5.637  0.2688 -0.7103 -1.1380
  175SLPC  C21719847   1.932   2.240   5.531  1.1746 -0.3001 -0.1976
  175SLPC  H17R19848   1.821   2.241   5.545  1.4507  2.0110  2.5673
  175SLPC  H17S19849   1.959   2.158   5.461  1.4738 -0.2205 -0.1742
  175SLPC  C21819850   1.958   2.378   5.452 -0.6035 -0.5516  1.0799
  175SLPC  H18R19851   1.934   2.459   5.524  1.4470  0.8410  0.2915
  175SLPC  H18S19852   1.896   2.381   5.359  0.5180 -1.7503  0.2548
  175SLPC  H18T19853   2.064   2.387   5.421 -0.5501 -0.2437  1.3495
  175SLPC   C3319854   2.517   2.011   6.434  0.0776  0.1671  0.3158
  175SLPC   H3X19855   2.540   1.909   6.472  0.2030  0.6609  1.6350
  175SLPC   H3Y19856   2.607   2.066   6.401 -0.0274  0.6649  0.8508
  175SLPC   C3419857   2.417   2.006   6.321 -0.4438 -0.5019 -0.4829
  175SLPC   H4X19858   2.375   2.108   6.308 -0.8949 -0.9830 -3.6359
  175SLPC   H4Y19859   2.332   1.941   6.352 -0.6807  1.0603  2.5067
  175SLPC   C3519860   2.478   1.959   6.188  0.6274 -0.3611 -0.5793
  175SLPC   H5X19861   2.535   1.868   6.215  0.4621  0.1885  1.8889
  175SLPC   H5Y19862   2.542   2.038   6.142  0.2365 -0.5533 -1.4664
  175SLPC   C3619863   2.379   1.951   6.074  0.4497  0.2179 -0.1885
  175SLPC   H6X19864   2.337   2.051   6.052 -0.1091 -0.6986 -4.1365
  175SLPC   H6Y19865   2.288   1.892   6.099 -0.1058  0.8816 -0.6179
  175SLPC   C3719866   2.432   1.913   5.937  0.5171 -0.5202 -0.1101
  175SLPC   H7X19867   2.484   1.815   5.934  4.3146  1.2366  0.8307
  175SLPC   H7Y19868   2.514   1.983   5.908  1.3816 -0.9258  1.2285
  175SLPC   C3819869   2.317   1.908   5.833 -0.2344 -0.0166  0.0368
  175SLPC   H8X19870   2.259   2.000   5.809 -2.0014 -0.8775  0.8264
  175SLPC   H8Y19871   2.233   1.843   5.867 -0.1707  1.0192  2.3582
  175SLPC   C3919872   2.365   1.862   5.698  0.3556  0.3664 -1.1237
  175SLPC   H9X19873   2.401   1.758   5.717  1.8224  0.9238 -0.7318
  175SLPC   H9Y19874   2.450   1.923   5.660  0.7007 -0.8546 -2.4231
  175SLPC  C31019875   2.259   1.859   5.585  0.1466  0.1284 -0.0734
  175SLPC  H10X19876   2.222   1.964   5.579 -0.9693 -0.3310 -1.5901
  175SLPC  H10Y19877   2.179   1.788   5.612  1.7697 -2.0891 -0.8452
  175SLPC  C31119878   2.316   1.832   5.450  0.3803  0.0870  0.0855
  175SLPC  H11X19879   2.377   1.739   5.462  0.3455  0.2830  2.1435
  175SLPC  H11Y19880   2.383   1.918   5.429 -0.9162  0.6316 -2.0758
  175SLPC  C31219881   2.213   1.809   5.344  0.2222 -1.1042 -0.4248
  175SLPC  H12X19882   2.177   1.910   5.315  0.7630 -0.8701 -0.3008
  175SLPC  H12Y19883   2.134   1.743   5.385  1.0702 -2.2861 -0.6212
  175SLPC  C31319884   2.283   1.737   5.235  1.0032 -0.0990  0.2183
  175SLPC  H13X19885   2.202   1.673   5.193  0.0200  1.4540 -0.3482
  175SLPC  H13Y19886   2.345   1.656   5.280 -0.3051 -0.8276  0.7439
  175SLPC  C31419887   2.354   1.818   5.132  0.0443  0.6554 -0.5497
  175SLPC  H14X19888   2.425   1.889   5.180 -1.3174  1.8367 -0.2035
  175SLPC  H14Y19889   2.287   1.881   5.070 -0.1275  0.7399 -0.2783
  175SLPC  C31519890   2.419   1.721   5.030  0.2580 -0.6215 -0.1784
  175SLPC  H15X19891   2.342   1.665   4.974  1.7030 -1.5632 -1.3066
  175SLPC  H15Y19892   2.488   1.643   5.069  1.8030  0.3464 -0.8312
  175SLPC  C31619893   2.514   1.801   4.933  0.3214 -0.7868 -0.0798
  175SLPC  H16X19894   2.454   1.892   4.912  0.8131  0.0305  1.8695
  175SLPC  H16Y19895   2.528   1.737   4.843  1.6660 -0.0178 -0.4408
  175SLPC  C31719896   2.655   1.831   4.986 -1.0260  0.1593  0.8197
  175SLPC  H17X19897   2.711   1.736   4.998 -0.8815  0.2636  0.9623
  175SLPC  H17Y19898   2.647   1.867   5.090  0.4969 -1.0071  1.3660
  175SLPC  C31819899   2.725   1.933   4.895  0.3391  0.3225 -0.9621
  175SLPC  H18X19900   2.675   2.032   4.902 -1.2248 -0.4986  0.3362
  175SLPC  H18Y19901   2.705   1.900   4.791 -0.2322  1.1702 -1.1305
  175SLPC  H18Z19902   2.831   1.939   4.928  0.0386  1.0048 -0.0900
  176SLPC     N19903   2.873   5.547   7.935  0.2545  0.3153 -0.6381
  176SLPC   C1319904   2.750   5.532   8.012  0.0844 -0.8421  0.5340
  176SLPC  H13A19905   2.661   5.502   7.958  0.9136  0.2681 -1.5206
  176SLPC  H13B19906   2.777   5.452   8.080 -0.4035 -1.5931 -0.1357
  176SLPC  H13C19907   2.731   5.616   8.077  0.0780  1.0679 -1.8389
  176SLPC   C1419908   2.924   5.408   7.907  0.3693 -0.0403 -0.2334
  176SLPC  H14A19909   2.842   5.354   7.862  1.0062  1.5487 -3.6454
  176SLPC  H14B19910   2.998   5.408   7.828 -1.8026 -1.7004 -2.4561
  176SLPC  H14C19911   2.953   5.351   7.994  0.0848  1.4420  0.8634
  176SLPC   C1519912   2.974   5.620   8.023  0.9349 -0.7128  0.5406
  176SLPC  H15A19913   3.050   5.555   8.062  2.3473 -0.2396 -1.3016
  176SLPC  H15B19914   3.018   5.703   7.970 -0.4398  0.8828  1.7516
  176SLPC  H15C19915   2.916   5.665   8.102 -1.0337  1.9945 -2.2046
  176SLPC   C1219916   2.843   5.627   7.808  0.1628 -0.1632  0.0031
  176SLPC  H12A19917   2.808   5.727   7.825 -0.0270  0.1129 -1.7923
  176SLPC  H12B19918   2.772   5.575   7.746  1.2686  0.3258 -1.7664
  176SLPC   C1119919   2.957   5.633   7.701 -0.8933 -0.0899  0.1693
  176SLPC  H11A19920   3.060   5.650   7.739 -0.9298  2.3188 -0.6161
  176SLPC  H11B19921   2.936   5.722   7.638 -1.2293 -0.5238 -0.3437
  176SLPC     P19922   3.067   5.450   7.551 -0.3625 -0.0936  0.7365
  176SLPC   O1319923   3.149   5.548   7.483  0.1778 -0.6696  0.1131
  176SLPC   O1419924   3.138   5.360   7.645  0.8404 -0.2684 -0.3070
  176SLPC   O1219925   2.949   5.517   7.624 -0.2001  0.1488  0.3260
  176SLPC   O1119926   2.990   5.361   7.445 -0.3804  0.1867 -0.2782
  176SLPC    C119927   2.852   5.328   7.452 -0.0565  0.1742 -0.0758
  176SLPC    HA19928   2.813   5.320   7.556  1.3921 -0.5334  0.4402
  176SLPC    HB19929   2.798   5.412   7.403  1.0650  0.4176 -0.9239
  176SLPC    C219930   2.807   5.207   7.369 -0.0133  0.2907  0.8384
  176SLPC    HS19931   2.867   5.121   7.407  0.4608  0.5249  0.6331
  176SLPC   O2119932   2.833   5.235   7.236 -0.0584  0.5310 -0.7278
  176SLPC   C2119933   2.849   5.119   7.160  0.0209  0.8815  0.2574
  176SLPC   O2219934   2.834   5.007   7.206  0.3414 -0.2918 -0.0352
  176SLPC   C2219935   2.890   5.144   7.011 -0.3857 -1.0075 -0.2167
  176SLPC   H2R19936   2.850   5.242   6.978  0.6808 -0.3145  0.4742
  176SLPC   H2S19937   3.000   5.161   7.015 -0.6305  0.4910  1.7377
  176SLPC    C319938   2.649   5.178   7.383 -0.3032  0.2092  0.1815
  176SLPC    HX19939   2.630   5.170   7.493 -0.3249  1.2733  0.2662
  176SLPC    HY19940   2.617   5.082   7.338  1.1757 -0.3490  0.2495
  176SLPC   O3119941   2.569   5.299   7.348 -0.1916 -0.0632 -0.2305
  176SLPC   C3119942   2.512   5.301   7.226  0.0396  0.2984 -0.1695
  176SLPC   O3219943   2.499   5.206   7.155 -0.0011  0.2587  0.2618
  176SLPC   C3219944   2.436   5.431   7.212 -0.3410  0.5731  0.8888
  176SLPC   H2X19945   2.492   5.517   7.255  0.7580  0.0692  0.4963
  176SLPC   H2Y19946   2.338   5.417   7.261 -1.3024  0.5957 -0.9331
  176SLPC   C2319947   2.857   5.031   6.922 -0.4884  0.2319  0.7485
  176SLPC   H3R19948   2.875   4.932   6.969  2.4909  0.9092  1.2706
  176SLPC   H3S19949   2.935   5.026   6.842 -0.4992 -1.2597  0.7978
  176SLPC   C2419950   2.715   5.033   6.874  0.2703 -0.2540 -0.0683
  176SLPC   H4R19951   2.683   5.135   6.842 -0.8222 -0.0772  1.4456
  176SLPC   H4S19952   2.658   5.002   6.964  0.7496 -0.9988 -0.0185
  176SLPC   C2519953   2.696   4.948   6.749 -0.2449 -0.1933 -0.0835
  176SLPC   H5R19954   2.589   4.917   6.742 -1.2128  2.9370 -0.4486
  176SLPC   H5S19955   2.747   4.850   6.759  1.4795  0.6677 -0.0648
  176SLPC   C2619956   2.744   5.015   6.615  0.2271  0.5047 -0.2962
  176SLPC   H6R19957   2.851   5.043   6.620  0.5988 -1.0988  3.3781
  176SLPC   H6S19958   2.692   5.111   6.591  0.2340 -0.1317 -3.3263
  176SLPC   C2719959   2.705   4.921   6.495  0.4977  0.4261 -0.5980
  176SLPC   H7R19960   2.599   4.890   6.511  0.3567  0.4891 -1.3924
  176SLPC   H7S19961   2.764   4.827   6.503 -2.2934 -1.3390  0.9785
  176SLPC   C2819962   2.725   4.988   6.361 -0.5346 -0.4424  0.0371
  176SLPC   H8R19963   2.669   5.084   6.369 -2.6125 -1.6851  1.2829
  176SLPC   H8S19964   2.677   4.917   6.290  2.3070 -1.6053 -0.8533
  176SLPC   C2919965   2.879   4.998   6.330  0.2243 -0.8254 -0.1898
  176SLPC   H9R19966   2.941   5.042   6.410 -0.9380  1.2449 -0.3509
  176SLPC  C21019967   2.928   4.963   6.213  0.2153  0.3791 -0.4204
  176SLPC  H10R19968   3.038   4.957   6.214  0.1289 -1.9993  0.4138
  176SLPC  C21119969   2.855   4.913   6.088 -0.2544 -0.1368  0.0132
  176SLPC  H11R19970   2.751   4.945   6.070 -0.7752  0.2429  3.0679
  176SLPC  H11S19971   2.837   4.803   6.082  3.5581 -0.8730 -0.5732
  176SLPC  C21219972   2.927   4.959   5.960 -0.5771  0.4202  0.1889
  176SLPC  H12R19973   2.940   5.066   5.941 -2.5764  0.4318 -1.4516
  176SLPC  C21319974   2.950   4.891   5.847  0.3008  0.1937 -0.0767
  176SLPC  H13R19975   2.998   4.948   5.766 -2.1196 -0.6489 -2.2145
  176SLPC  C21419976   2.924   4.744   5.818  0.7302 -0.2295  0.1020
  176SLPC  H14R19977   2.825   4.733   5.769 -0.8066 -0.1988  2.9667
  176SLPC  H14S19978   2.919   4.675   5.905 -0.3151 -2.6265 -1.7416
  176SLPC  C21519979   3.034   4.684   5.726  0.2142 -0.9664  0.3699
  176SLPC  H15R19980   3.030   4.573   5.728  0.1714 -1.0216 -1.1052
  176SLPC  H15S19981   3.130   4.719   5.769  1.4598  1.2095 -3.5884
  176SLPC  C21619982   3.035   4.743   5.581 -0.3546 -0.2066 -0.7363
  176SLPC  H16R19983   3.143   4.753   5.554  0.1944 -0.1182  1.2695
  176SLPC  H16S19984   3.005   4.850   5.585 -0.2242 -0.0927 -2.3507
  176SLPC  C21719985   2.944   4.664   5.492  0.0603  0.3578 -0.0196
  176SLPC  H17R19986   2.840   4.670   5.532  0.1671  3.2303  0.0304
  176SLPC  H17S19987   2.978   4.558   5.486 -1.1794 -0.0564 -0.0350
  176SLPC  C21819988   2.952   4.711   5.349  0.3958 -0.0957  0.1303
  176SLPC  H18R19989   2.894   4.641   5.284  2.3055 -2.4723  0.8415
  176SLPC  H18S19990   3.055   4.710   5.307 -0.7417  1.8056 -3.0836
  176SLPC  H18T19991   2.906   4.812   5.343 -0.2668 -0.2879  1.5464
  176SLPC   C3319992   2.398   5.471   7.067  0.1052 -0.4788  0.3572
  176SLPC   H3X19993   2.353   5.572   7.070 -3.2194 -1.8461  0.9781
  176SLPC   H3Y19994   2.321   5.401   7.029  0.7901 -0.5632 -0.9224
  176SLPC   C3419995   2.514   5.484   6.968  0.5611 -0.4223 -0.4867
  176SLPC   H4X19996   2.552   5.380   6.967  0.6623 -0.3986  0.5536
  176SLPC   H4Y19997   2.585   5.564   6.998  1.5919 -1.0654 -1.1612
  176SLPC   C3519998   2.464   5.528   6.828  0.1685  0.0726 -0.5226
  176SLPC   H5X19999   2.420   5.630   6.829 -0.6504 -0.2153  2.6201
  176SLPC   H5Y20000   2.390   5.453   6.794  2.7978 -2.2971 -1.4871
  176SLPC   C3620001   2.579   5.528   6.725 -0.5180 -0.1331  0.6048
  176SLPC   H6X20002   2.655   5.602   6.759 -0.6547 -0.6599  2.1415
  176SLPC   H6Y20003   2.538   5.568   6.629  1.8293 -0.2441 -0.5095
  176SLPC   C3720004   2.637   5.389   6.694 -0.5265 -0.1202 -0.1784
  176SLPC   H7X20005   2.550   5.320   6.684 -0.6615 -0.3673  2.0324
  176SLPC   H7Y20006   2.688   5.347   6.784 -2.5769 -0.1825  1.0281
  176SLPC   C3820007   2.714   5.398   6.566 -0.6317  0.2445 -1.6330
  176SLPC   H8X20008   2.802   5.330   6.564 -1.7177 -1.3118  0.0780
  176SLPC   H8Y20009   2.756   5.500   6.560  0.0792 -0.0089 -1.0768
  176SLPC   C3920010   2.624   5.365   6.445 -0.4723  0.3716 -0.2253
  176SLPC   H9X20011   2.535   5.432   6.442 -1.2755 -0.6541  0.4300
  176SLPC   H9Y20012   2.581   5.265   6.462 -1.0453  0.6221 -0.1725
  176SLPC  C31020013   2.707   5.368   6.313 -0.5505  0.6844  0.1651
  176SLPC  H10X20014   2.775   5.280   6.313 -1.5468 -0.1723 -2.0747
  176SLPC  H10Y20015   2.770   5.456   6.291 -0.4502  0.2690 -1.2634
  176SLPC  C31120016   2.614   5.348   6.193 -0.7093  0.1647 -0.4395
  176SLPC  H11X20017   2.572   5.446   6.162 -3.9428 -1.4274 -1.4611
  176SLPC  H11Y20018   2.526   5.294   6.232 -2.6070  2.0912 -1.7947
  176SLPC  C31220019   2.683   5.286   6.071  0.7723  0.7340  1.1146
  176SLPC  H12X20020   2.714   5.188   6.112 -0.4934  0.4565  1.4592
  176SLPC  H12Y20021   2.774   5.344   6.047  0.2260  1.5684  1.0126
  176SLPC  C31320022   2.590   5.262   5.948  0.3458 -0.1181  0.0700
  176SLPC  H13X20023   2.493   5.309   5.977  1.1790  0.1077  2.7420
  176SLPC  H13Y20024   2.569   5.158   5.916  2.9639  0.3399 -4.0114
  176SLPC  C31420025   2.638   5.331   5.819 -0.3123 -0.0261  0.4334
  176SLPC  H14X20026   2.703   5.418   5.842 -1.7284  0.4742  2.8314
  176SLPC  H14Y20027   2.547   5.376   5.774 -0.4473 -1.4723 -0.8588
  176SLPC  C31520028   2.715   5.246   5.714 -0.7360 -0.2320  0.0793
  176SLPC  H15X20029   2.808   5.229   5.772 -0.8328  0.2060  0.3683
  176SLPC  H15Y20030   2.733   5.312   5.627 -1.4428  0.0967  0.1793
  176SLPC  C31620031   2.647   5.119   5.665  0.6647  0.0040 -0.4886
  176SLPC  H16X20032   2.544   5.146   5.634  1.9489  2.7897 -2.8884
  176SLPC  H16Y20033   2.632   5.046   5.747 -1.9460  0.7975 -0.1875
  176SLPC  C31720034   2.714   5.051   5.550 -0.5678  0.4446  0.7192
  176SLPC  H17X20035   2.780   4.968   5.584  0.9429  1.2668 -0.0716
  176SLPC  H17Y20036   2.775   5.136   5.514 -2.4510  1.2782 -0.6600
  176SLPC  C31820037   2.619   5.000   5.433  0.0134 -0.0790  0.2378
  176SLPC  H18X20038   2.564   4.908   5.460 -0.3862 -0.2359 -1.0420
  176SLPC  H18Y20039   2.671   4.973   5.338  1.9835  1.2020  0.8872
  176SLPC  H18Z20040   2.550   5.083   5.406 -1.3594 -0.9214  1.0407
  177SLPC     N20041   3.075   0.733   7.273 -0.5220 -0.0020 -0.4468
  177SLPC   C1320042   3.216   0.754   7.225  0.7817 -0.4023  0.2779
  177SLPC  H13A20043   3.295   0.695   7.269  1.5201  0.2919 -0.0903
  177SLPC  H13B20044   3.220   0.731   7.120  0.6937  0.3230  0.1072
  177SLPC  H13C20045   3.246   0.857   7.241  0.5021 -0.4318  1.0248
  177SLPC   C1420046   2.981   0.833   7.213 -0.1583 -0.3450 -0.2029
  177SLPC  H14A20047   3.030   0.929   7.215 -0.2417 -0.2670 -1.2835
  177SLPC  H14B20048   2.970   0.812   7.107 -0.2651  1.3058 -0.5406
  177SLPC  H14C20049   2.893   0.841   7.275 -0.5663  0.7592 -0.8997
  177SLPC   C1520050   3.066   0.757   7.422  0.0099 -0.8250  0.2053
  177SLPC  H15A20051   3.143   0.828   7.449  0.2668 -0.4667 -1.3855
  177SLPC  H15B20052   2.963   0.780   7.449  0.9451  0.4351  3.1037
  177SLPC  H15C20053   3.099   0.667   7.472  2.8532 -0.9731 -1.7305
  177SLPC   C1220054   3.026   0.595   7.247  0.0991  0.8290 -0.8776
  177SLPC  H12A20055   2.933   0.587   7.301  1.5284 -3.2887  1.4108
  177SLPC  H12B20056   3.093   0.522   7.290  0.3481  1.7852  0.4528
  177SLPC   C1120057   3.000   0.550   7.102  0.1793 -0.0736 -0.2732
  177SLPC  H11A20058   2.929   0.610   7.042  0.4392 -1.8885 -2.5546
  177SLPC  H11B20059   2.947   0.453   7.098  1.0768 -0.5718 -0.4003
  177SLPC     P20060   3.222   0.427   7.035  0.0724 -0.1607 -0.0465
  177SLPC   O1320061   3.268   0.407   7.175 -0.5818 -0.4796  0.0357
  177SLPC   O1420062   3.149   0.318   6.969 -0.2746  0.5703 -0.6440
  177SLPC   O1220063   3.124   0.550   7.030  0.5631 -0.9560 -0.0179
  177SLPC   O1120064   3.346   0.472   6.936 -0.3477  0.0794  0.2268
  177SLPC    C120065   3.342   0.601   6.893 -0.3697  0.2900  0.0353
  177SLPC    HA20066   3.332   0.681   6.971 -0.4953  0.6077 -0.3020
  177SLPC    HB20067   3.444   0.623   6.855  0.4320 -1.8870  0.7874
  177SLPC    C220068   3.243   0.632   6.770  0.2838 -0.1567  0.0932
  177SLPC    HS20069   3.137   0.622   6.802 -0.5001  0.1169 -2.2000
  177SLPC   O2120070   3.271   0.534   6.670 -0.0090  0.0846  0.4199
  177SLPC   C2120071   3.160   0.477   6.607  0.2688 -0.0545  0.5387
  177SLPC   O2220072   3.046   0.518   6.599  0.0401  0.0299  0.1192
  177SLPC   C2220073   3.210   0.341   6.553  0.2900 -0.6844 -0.5479
  177SLPC   H2R20074   3.309   0.361   6.508  0.3580  0.3147  0.0027
  177SLPC   H2S20075   3.228   0.272   6.638 -3.3843 -0.8292  0.2980
  177SLPC    C320076   3.279   0.772   6.719  0.0130 -0.0507 -1.1229
  177SLPC    HX20077   3.387   0.792   6.701  0.3293 -1.0968 -0.4754
  177SLPC    HY20078   3.269   0.851   6.797  1.0269 -1.0539  0.0585
  177SLPC   O3120079   3.209   0.809   6.599 -0.7535 -0.2752 -0.1339
  177SLPC   C3120080   3.086   0.851   6.609 -0.5540  0.1496  0.0422
  177SLPC   O3220081   3.030   0.887   6.710  0.2254 -0.6278  0.0593
  177SLPC   C3220082   3.023   0.867   6.464  0.0344  0.0563 -0.7934
  177SLPC   H2X20083   2.962   0.960   6.471  0.6324  0.4397 -0.6666
  177SLPC   H2Y20084   2.951   0.782   6.452 -0.1474  0.2783 -1.3170
  177SLPC   C2320085   3.119   0.276   6.446  0.0391  0.2028  0.0546
  177SLPC   H3R20086   3.021   0.256   6.495  0.1910 -1.4299 -0.2636
  177SLPC   H3S20087   3.170   0.179   6.430  1.4529  1.1943 -1.8418
  177SLPC   C2420088   3.110   0.354   6.308  0.1571 -0.0675  0.2112
  177SLPC   H4R20089   3.189   0.431   6.293  0.3237 -0.2960 -0.0970
  177SLPC   H4S20090   3.015   0.412   6.308 -0.9949 -1.7557 -2.6409
  177SLPC   C2520091   3.108   0.259   6.186  0.1390 -0.1464 -0.1318
  177SLPC   H5R20092   3.019   0.198   6.209 -1.0471  1.4457 -0.2958
  177SLPC   H5S20093   3.201   0.199   6.177 -0.8067 -1.4285 -2.3180
  177SLPC   C2620094   3.096   0.337   6.056  0.7537 -0.3211 -0.3445
  177SLPC   H6R20095   3.160   0.288   5.979  2.2829  0.3373  0.4618
  177SLPC   H6S20096   3.139   0.437   6.077 -2.2332  1.0280 -0.1223
  177SLPC   C2720097   2.954   0.352   6.007 -0.7222  0.1548  0.3902
  177SLPC   H7R20098   2.901   0.430   6.066  0.8625  1.8679 -0.3307
  177SLPC   H7S20099   2.906   0.252   6.012 -1.5891  0.5550  0.1281
  177SLPC   C2820100   2.947   0.395   5.857 -0.2194 -0.3880  0.0530
  177SLPC   H8R20101   2.999   0.311   5.806  0.4895  0.6778 -1.0155
  177SLPC   H8S20102   3.010   0.486   5.851 -0.2531 -0.3729 -0.0709
  177SLPC   C2920103   2.805   0.418   5.802 -0.0117  0.0422  0.1636
  177SLPC   H9R20104   2.741   0.481   5.866 -1.2787 -1.1633  0.1471
  177SLPC  C21020105   2.752   0.361   5.691  0.4156 -0.6165 -0.3112
  177SLPC  H10R20106   2.654   0.397   5.655 -0.1882 -2.8645 -1.1028
  177SLPC  C21120107   2.829   0.262   5.598  1.0395 -0.3888  0.1103
  177SLPC  H11R20108   2.814   0.155   5.624  0.4782 -0.9384 -2.2935
  177SLPC  H11S20109   2.936   0.278   5.624  0.4059  0.7151  2.3054
  177SLPC  C21220110   2.789   0.288   5.453 -0.3379  0.7968 -0.2782
  177SLPC  H12R20111   2.800   0.392   5.419 -0.7785  0.3921 -1.6985
  177SLPC  C21320112   2.746   0.196   5.365 -0.3901  0.7766  0.2261
  177SLPC  H13R20113   2.731   0.212   5.257 -1.0449 -1.5742 -0.0644
  177SLPC  C21420114   2.750   0.049   5.385 -0.7425  0.3332 -0.7279
  177SLPC  H14R20115   2.648   0.007   5.402 -0.2984 -1.7166 -2.6752
  177SLPC  H14S20116   2.819   0.015   5.465 -1.7405  0.8770  0.3955
  177SLPC  C21520117   2.809  -0.019   5.254 -0.1780 -0.1199 -1.2839
  177SLPC  H15R20118   2.852  -0.118   5.278 -0.0690  0.4341  1.0021
  177SLPC  H15S20119   2.890   0.046   5.214 -0.8171  2.5333  1.3712
  177SLPC  C21620120   2.701  -0.045   5.150  0.7841 -0.3210  0.2742
  177SLPC  H16R20121   2.643   0.045   5.122  1.2003  0.1692  0.9625
  177SLPC  H16S20122   2.630  -0.110   5.206  0.9014 -0.3206  0.4280
  177SLPC  C21720123   2.741  -0.123   5.019 -0.4320 -0.0220 -0.1154
  177SLPC  H17R20124   2.659  -0.107   4.945 -2.2635  1.1311  2.0396
  177SLPC  H17S20125   2.748  -0.231   5.045  0.3045  0.2047  0.6725
  177SLPC  C21820126   2.875  -0.076   4.956  0.4590  0.9520 -0.1330
  177SLPC  H18R20127   2.863   0.030   4.926  0.2602  0.8127 -0.5588
  177SLPC  H18S20128   2.889  -0.122   4.856 -3.8835  0.5608 -0.7185
  177SLPC  H18T20129   2.953  -0.086   5.034  0.2655 -0.3966 -0.0859
  177SLPC   C3320130   3.123   0.860   6.345 -0.1954 -0.3238 -0.5308
  177SLPC   H3X20131   3.151   0.756   6.322  1.7077  0.0541 -0.0801
  177SLPC   H3Y20132   3.206   0.928   6.375 -1.5000  0.7272  0.9391
  177SLPC   C3420133   3.068   0.903   6.207 -0.6118 -0.5427  1.1200
  177SLPC   H4X20134   3.153   0.909   6.135  0.1983  0.1795  2.1105
  177SLPC   H4Y20135   3.011   0.998   6.217 -1.9849 -0.9852 -1.4918
  177SLPC   C3520136   2.959   0.810   6.145 -0.5614  0.2625 -0.2576
  177SLPC   H5X20137   2.873   0.790   6.211 -2.7601 -0.3029 -3.1064
  177SLPC   H5Y20138   2.996   0.711   6.110 -0.9498 -0.1032  0.3565
  177SLPC   C3620139   2.883   0.883   6.029  0.1379  0.8339  0.6653
  177SLPC   H6X20140   2.939   0.973   5.997  0.7759 -0.1278 -1.0268
  177SLPC   H6Y20141   2.781   0.901   6.070 -1.0734 -0.5987 -1.5413
  177SLPC   C3720142   2.867   0.798   5.897 -0.7367  0.2146  0.6845
  177SLPC   H7X20143   2.828   0.702   5.939 -0.3948  0.5667  1.8584
  177SLPC   H7Y20144   2.964   0.775   5.847 -1.4667  1.0033 -1.1660
  177SLPC   C3820145   2.779   0.868   5.795  0.2763 -0.3642  0.2957
  177SLPC   H8X20146   2.811   0.970   5.768 -1.0335 -0.0307 -0.0677
  177SLPC   H8Y20147   2.682   0.888   5.844  0.2687  0.0865  0.0966
  177SLPC   C3920148   2.772   0.788   5.667  0.4496 -0.0050  0.1307
  177SLPC   H9X20149   2.720   0.840   5.583  1.9270 -0.3767 -1.0486
  177SLPC   H9Y20150   2.710   0.696   5.680 -0.6909  0.7616  0.2541
  177SLPC  C31020151   2.904   0.752   5.590 -0.2926  0.7047  1.0087
  177SLPC  H10X20152   2.975   0.687   5.646  1.3828  1.2003 -0.4606
  177SLPC  H10Y20153   2.962   0.847   5.589  0.1495  0.5460  3.8711
  177SLPC  C31120154   2.878   0.688   5.455 -0.3976  0.9991 -0.6071
  177SLPC  H11X20155   2.798   0.613   5.475  0.5712  0.2307  0.4784
  177SLPC  H11Y20156   2.968   0.631   5.425 -0.3930  0.1440  0.9532
  177SLPC  C31220157   2.849   0.790   5.340 -1.2205 -0.1638 -0.5033
  177SLPC  H12X20158   2.908   0.884   5.354  0.2012 -1.0653 -0.2245
  177SLPC  H12Y20159   2.742   0.810   5.361 -0.8555 -0.8029  2.3625
  177SLPC  C31320160   2.863   0.739   5.201  0.7016 -0.6860 -0.1801
  177SLPC  H13X20161   2.969   0.725   5.172  0.9963  3.7114 -2.0003
  177SLPC  H13Y20162   2.816   0.820   5.141 -1.1864  0.0377  2.1288
  177SLPC  C31420163   2.782   0.606   5.170 -0.1379 -0.3397  0.2975
  177SLPC  H14X20164   2.673   0.612   5.192 -0.3012 -0.4706 -0.4351
  177SLPC  H14Y20165   2.816   0.530   5.244 -0.3044 -1.0749 -0.3643
  177SLPC  C31520166   2.802   0.540   5.032 -0.2642 -0.0494 -0.6759
  177SLPC  H15X20167   2.901   0.489   5.021  0.2705  0.3407  1.7758
  177SLPC  H15Y20168   2.784   0.611   4.949 -2.9313  0.5567  0.3049
  177SLPC  C31620169   2.690   0.433   5.033 -0.2721  0.5512  0.0760
  177SLPC  H16X20170   2.600   0.480   4.987  1.1408  0.6547 -2.7322
  177SLPC  H16Y20171   2.655   0.418   5.138  0.2340  0.1983  0.1954
  177SLPC  C31720172   2.740   0.298   4.965 -0.6085 -0.1789 -0.7436
  177SLPC  H17X20173   2.650   0.232   4.964 -1.2865  0.6819  0.3804
  177SLPC  H17Y20174   2.822   0.252   5.023 -0.8912 -0.9933 -0.9761
  177SLPC  C31820175   2.795   0.305   4.825  0.4062  0.1728 -0.5963
  177SLPC  H18X20176   2.809   0.206   4.777  0.0466 -0.7280  1.0982
  177SLPC  H18Y20177   2.898   0.344   4.836  1.1094 -1.9734  1.1289
  177SLPC  H18Z20178   2.736   0.372   4.758  1.2595  1.7124  0.1536
  178SLPC     N20179   5.000   4.684   7.326 -0.4862  0.6361  0.0033
  178SLPC   C1320180   5.053   4.725   7.461  0.2258 -0.2496 -0.0436
  178SLPC  H13A20181   4.985   4.699   7.541  0.6859  2.1816  1.2436
  178SLPC  H13B20182   5.147   4.681   7.488  1.8646  1.7513 -2.0910
  178SLPC  H13C20183   5.064   4.833   7.461  2.8044 -0.4642  0.5565
  178SLPC   C1420184   4.857   4.725   7.311  0.4307 -0.3749 -0.4707
  178SLPC  H14A20185   4.795   4.679   7.387  0.7265 -0.4432 -0.2698
  178SLPC  H14B20186   4.854   4.831   7.328 -1.6439 -0.1545 -1.8584
  178SLPC  H14C20187   4.815   4.688   7.218  2.7252 -0.6838 -1.4509
  178SLPC   C1520188   5.014   4.528   7.323  0.3461  0.1472  0.4026
  178SLPC  H15A20189   4.992   4.489   7.225 -1.5051  1.9072  0.0689
  178SLPC  H15B20190   5.110   4.494   7.361  1.2126  1.7205 -0.2731
  178SLPC  H15C20191   4.941   4.481   7.388  0.2701  0.8677  0.8485
  178SLPC   C1220192   5.087   4.738   7.210 -0.0515  0.4426 -0.0205
  178SLPC  H12A20193   5.040   4.708   7.118  1.4916  1.6397 -1.2492
  178SLPC  H12B20194   5.184   4.691   7.216 -0.0542  0.5191  0.8597
  178SLPC   C1120195   5.097   4.895   7.207  0.5196  1.1748  0.0471
  178SLPC  H11A20196   4.996   4.930   7.177  0.8999  2.3211  0.0503
  178SLPC  H11B20197   5.167   4.919   7.125  0.3645  3.4653  0.5044
  178SLPC     P20198   5.079   5.103   7.360 -0.1247  0.3079 -0.4876
  178SLPC   O1320199   4.932   5.103   7.345  0.4819  0.2389  0.3626
  178SLPC   O1420200   5.141   5.143   7.495 -0.0736 -0.3250  0.3706
  178SLPC   O1220201   5.133   4.961   7.331  0.2882  0.3628 -0.2365
  178SLPC   O1120202   5.136   5.189   7.240 -0.2029 -0.0745  0.2583
  178SLPC    C120203   5.279   5.192   7.212  0.3808  0.3643 -1.1453
  178SLPC    HA20204   5.317   5.273   7.277  1.2056 -2.5053  2.2234
  178SLPC    HB20205   5.334   5.107   7.257  2.1114  2.6779  1.3587
  178SLPC    C220206   5.313   5.216   7.066 -0.9938 -0.0415  0.3386
  178SLPC    HS20207   5.254   5.302   7.026 -0.2126  0.3379 -0.0138
  178SLPC   O2120208   5.283   5.092   6.991  0.6434 -0.0977 -0.6437
  178SLPC   C2120209   5.307   5.091   6.855 -0.7423 -0.0131  0.6253
  178SLPC   O2220210   5.335   5.185   6.790  0.0137 -0.2079  0.0354
  178SLPC   C2220211   5.264   4.955   6.795 -0.4154  0.0210  0.6394
  178SLPC   H2R20212   5.265   4.881   6.879  1.6845 -1.0172 -0.2379
  178SLPC   H2S20213   5.164   4.968   6.749 -0.0654  0.5158  0.0187
  178SLPC    C320214   5.470   5.260   7.044  0.5782  0.8069  0.4885
  178SLPC    HX20215   5.497   5.346   7.108 -1.0979  1.1839  0.7165
  178SLPC    HY20216   5.474   5.288   6.936 -5.0143 -0.6052 -0.3974
  178SLPC   O3120217   5.548   5.143   7.083 -0.0507 -0.2372  0.5612
  178SLPC   C3120218   5.652   5.159   7.153 -0.2899  0.2230  0.2478
  178SLPC   O3220219   5.693   5.262   7.202 -0.6298  0.3070 -0.3576
  178SLPC   C3220220   5.728   5.026   7.148 -0.3302 -0.1282  0.1449
  178SLPC   H2X20221   5.674   4.949   7.090 -2.3072  0.7901  0.7064
  178SLPC   H2Y20222   5.720   4.978   7.248 -2.0834 -1.9235 -0.7894
  178SLPC   C2320223   5.362   4.907   6.694 -0.8615 -0.1225  0.1562
  178SLPC   H3R20224   5.324   4.809   6.658 -3.1061  1.2263 -1.3635
  178SLPC   H3S20225   5.470   4.901   6.721  0.0292 -0.1353 -3.0165
  178SLPC   C2420226   5.360   4.982   6.559  0.6779  0.1574 -0.2445
  178SLPC   H4R20227   5.441   4.939   6.498  2.2988  2.5730  0.0642
  178SLPC   H4S20228   5.396   5.084   6.584  2.4119 -0.6359  0.6743
  178SLPC   C2520229   5.231   4.977   6.477 -0.2910 -0.1994 -0.0551
  178SLPC   H5R20230   5.148   5.044   6.508  0.3115  0.1085  0.9278
  178SLPC   H5S20231   5.190   4.873   6.477 -0.4875 -0.1345 -1.2312
  178SLPC   C2620232   5.245   5.016   6.328  0.1634 -0.2519  0.0478
  178SLPC   H6R20233   5.323   4.952   6.281 -0.9836 -0.7199 -1.2850
  178SLPC   H6S20234   5.281   5.121   6.325  0.1054 -0.1468  1.9735
  178SLPC   C2720235   5.113   5.010   6.247  0.1937 -1.0589 -0.0632
  178SLPC   H7R20236   5.061   5.096   6.296  1.4490  0.1933 -0.8472
  178SLPC   H7S20237   5.051   4.920   6.269  0.4775 -1.3907 -0.6122
  178SLPC   C2820238   5.121   5.035   6.097 -0.3080 -0.3868 -0.7001
  178SLPC   H8R20239   5.216   5.089   6.078  0.1007 -0.5111  0.8279
  178SLPC   H8S20240   5.044   5.112   6.073 -0.5146 -0.5039 -0.4205
  178SLPC   C2920241   5.119   4.910   6.017 -0.3397  0.4081  0.0177
  178SLPC   H9R20242   5.212   4.852   6.014 -0.5817  0.0298 -0.2110
  178SLPC  C21020243   5.006   4.852   5.970 -0.7127  0.2861 -0.2970
  178SLPC  H10R20244   5.025   4.763   5.909 -1.0126 -0.4098  0.6190
  178SLPC  C21120245   4.865   4.909   5.978 -0.7667  0.9197  0.1786
  178SLPC  H11R20246   4.847   4.990   5.905 -1.8319 -0.6854 -1.4410
  178SLPC  H11S20247   4.844   4.935   6.084  1.6268 -0.6111  1.1048
  178SLPC  C21220248   4.768   4.792   5.960 -0.2324 -0.5018  0.1344
  178SLPC  H12R20249   4.713   4.763   6.050 -0.3935  1.9993  0.9262
  178SLPC  C21320250   4.741   4.720   5.849 -0.3176 -1.0514 -0.6261
  178SLPC  H13R20251   4.663   4.646   5.867 -1.3468  0.4325  1.4351
  178SLPC  C21420252   4.810   4.724   5.716  0.1375 -0.7405  0.5779
  178SLPC  H14R20253   4.897   4.793   5.722 -1.1364  0.8038  2.2265
  178SLPC  H14S20254   4.738   4.764   5.642  0.5695 -0.9048  0.0597
  178SLPC  C21520255   4.867   4.591   5.661 -0.0923 -0.2409 -0.2104
  178SLPC  H15R20256   4.781   4.521   5.653 -1.2434  0.8611  1.7456
  178SLPC  H15S20257   4.954   4.560   5.722  0.6173  2.3226  0.2241
  178SLPC  C21620258   4.917   4.601   5.514  0.4692  0.3729 -1.0194
  178SLPC  H16R20259   5.005   4.669   5.518  1.4430 -0.8974  2.0277
  178SLPC  H16S20260   4.843   4.646   5.444 -0.6667 -0.6477 -0.5161
  178SLPC  C21720261   4.968   4.466   5.457  0.1243  0.7047  0.9352
  178SLPC  H17R20262   4.877   4.419   5.413 -0.5448  1.5377  1.3965
  178SLPC  H17S20263   5.005   4.400   5.538 -1.7424 -2.4727 -0.5829
  178SLPC  C21820264   5.069   4.475   5.344  0.1610  0.0475 -0.9816
  178SLPC  H18R20265   5.145   4.555   5.361  2.6332 -1.8805 -2.3090
  178SLPC  H18S20266   5.026   4.502   5.245 -1.4202  1.4067  0.0258
  178SLPC  H18T20267   5.125   4.380   5.333 -1.9131 -1.3140 -0.3139
  178SLPC   C3320268   5.873   5.037   7.112 -0.7156  0.2953 -0.1764
  178SLPC   H3X20269   5.919   4.938   7.134 -3.7274 -1.4142 -0.9929
  178SLPC   H3Y20270   5.924   5.110   7.179  1.2036 -0.7837 -0.3818
  178SLPC   C3420271   5.880   5.072   6.969 -0.0168  0.2291  0.0380
  178SLPC   H4X20272   5.824   5.167   6.952  1.6292  1.6217  1.9614
  178SLPC   H4Y20273   5.842   4.986   6.909 -0.7937  0.0794  0.7364
  178SLPC   C3520274   6.030   5.098   6.923  0.0216  0.0493  0.3259
  178SLPC   H5X20275   6.082   5.002   6.946 -1.1993 -0.6052  0.4237
  178SLPC   H5Y20276   6.079   5.175   6.987 -0.2037  2.9395 -2.7398
  178SLPC   C3620277   6.041   5.121   6.780 -0.5330  0.1951  0.1603
  178SLPC   H6X20278   5.985   5.213   6.753 -0.7673 -0.4164 -1.5929
  178SLPC   H6Y20279   6.004   5.037   6.718  1.0810 -1.6580  1.6142
  178SLPC   C3720280   6.187   5.146   6.743 -0.3687 -0.4122  0.4146
  178SLPC   H7X20281   6.254   5.093   6.813 -0.5076  0.0826  0.9334
  178SLPC   H7Y20282   6.200   5.252   6.776  0.4711 -0.3609 -0.0540
  178SLPC   C3820283   6.217   5.147   6.588  0.5598  0.5791  0.9204
  178SLPC   H8X20284   6.308   5.210   6.577 -0.4708  2.2372  1.5037
  178SLPC   H8Y20285   6.132   5.196   6.535  0.7960 -0.2307 -0.2500
  178SLPC   C3920286   6.234   5.008   6.533  0.0385  0.0058  0.8185
  178SLPC   H9X20287   6.145   4.943   6.546  0.4996 -0.5228  1.4683
  178SLPC   H9Y20288   6.313   4.945   6.581 -1.4963 -1.4380  1.5505
  178SLPC  C31020289   6.251   5.011   6.377  0.2920  0.1100  0.5332
  178SLPC  H10X20290   6.270   4.904   6.355 -3.2784 -0.7274  0.9146
  178SLPC  H10Y20291   6.339   5.071   6.344 -0.5415  2.1235  1.7780
  178SLPC  C31120292   6.117   5.066   6.305  0.4393 -0.4129  0.3499
  178SLPC  H11X20293   6.117   5.176   6.322 -1.1716 -0.0724 -1.4844
  178SLPC  H11Y20294   6.036   5.007   6.353 -0.9321 -0.8155 -2.2635
  178SLPC  C31220295   6.123   5.031   6.154  0.1567 -1.7492  0.6265
  178SLPC  H12X20296   6.110   4.920   6.148  0.8165 -1.8219  0.4415
  178SLPC  H12Y20297   6.225   5.051   6.114 -1.6960  1.9368 -2.8822
  178SLPC  C31320298   6.024   5.103   6.060  0.0853  0.1074  0.1223
  178SLPC  H13X20299   6.052   5.210   6.062 -3.5549  1.1893 -0.0868
  178SLPC  H13Y20300   5.922   5.095   6.104  0.7582 -0.2310  1.7288
  178SLPC  C31420301   6.034   5.043   5.921  0.1987 -0.1456  0.5196
  178SLPC  H14X20302   5.997   4.940   5.901  1.7606 -0.8247  0.9129
  178SLPC  H14Y20303   6.137   5.038   5.879 -0.5309 -0.2432 -1.3897
  178SLPC  C31520304   5.951   5.126   5.818 -0.2464 -0.2386 -0.0905
  178SLPC  H15X20305   5.995   5.227   5.819  0.3100 -0.4775  1.1246
  178SLPC  H15Y20306   5.848   5.128   5.860  0.5637  0.6243  1.9733
  178SLPC  C31620307   5.949   5.070   5.681  0.4459  0.0914  0.3402
  178SLPC  H16X20308   5.904   4.969   5.690  1.9564 -0.6312  0.0891
  178SLPC  H16Y20309   6.051   5.044   5.646 -1.0656 -3.1778 -2.1621
  178SLPC  C31720310   5.882   5.172   5.595  0.8076 -0.3023  0.9577
  178SLPC  H17X20311   5.924   5.274   5.606 -0.6107  0.8265 -2.6360
  178SLPC  H17Y20312   5.775   5.170   5.622  0.8457  1.1828  1.2940
  178SLPC  C31820313   5.897   5.148   5.442  1.1398  1.0174  0.0361
  178SLPC  H18X20314   5.836   5.218   5.382  0.9346  1.1784  0.4272
  178SLPC  H18Y20315   5.876   5.040   5.427  3.0277  0.6807 -0.3678
  178SLPC  H18Z20316   6.005   5.158   5.419  1.7768 -1.0963  1.7811
  179SLPC     N20317   1.975   0.287   2.826  0.3507 -0.3143 -0.1143
  179SLPC   C1320318   2.118   0.329   2.853  0.1872  0.1946  0.6431
  179SLPC  H13A20319   2.144   0.329   2.958 -0.5077 -0.1319  0.8252
  179SLPC  H13B20320   2.183   0.257   2.804  1.7981  1.6933  0.4894
  179SLPC  H13C20321   2.132   0.423   2.803 -3.8777  0.8330  0.3902
  179SLPC   C1420322   1.957   0.158   2.884  0.0615  0.0371 -0.3489
  179SLPC  H14A20323   1.861   0.108   2.878  0.3025 -0.5608  0.5621
  179SLPC  H14B20324   2.034   0.092   2.849  0.8035 -1.0560  2.9266
  179SLPC  H14C20325   1.986   0.155   2.988  0.2508 -0.8340 -0.4258
  179SLPC   C1520326   1.974   0.279   2.671 -0.7365 -0.5802  0.1679
  179SLPC  H15A20327   1.882   0.240   2.630  0.4839 -1.3735 -1.9613
  179SLPC  H15B20328   1.991   0.378   2.631 -1.1032  0.0425  1.4870
  179SLPC  H15C20329   2.056   0.219   2.635 -0.5033  0.9194 -1.9371
  179SLPC   C1220330   1.888   0.395   2.881  0.4604 -0.2213  0.6590
  179SLPC  H12A20331   1.893   0.478   2.813 -0.7725 -2.0298 -1.7881
  179SLPC  H12B20332   1.920   0.431   2.978  0.3558 -1.9540  1.3710
  179SLPC   C1120333   1.736   0.362   2.891 -0.2695  0.5006 -0.4675
  179SLPC  H11A20334   1.704   0.341   2.787  3.8070 -1.0336 -1.5897
  179SLPC  H11B20335   1.679   0.453   2.921 -2.9398 -1.0194 -0.5370
  179SLPC     P20336   1.698   0.280   3.136  0.5330 -0.3068 -0.1438
  179SLPC   O1320337   1.646   0.150   3.185 -0.0672 -0.2384  0.2729
  179SLPC   O1420338   1.829   0.321   3.192  0.0312  0.3664 -0.0471
  179SLPC   O1220339   1.710   0.257   2.981 -0.1818  0.1031 -0.0432
  179SLPC   O1120340   1.581   0.391   3.144 -0.1865  0.0013 -0.9993
  179SLPC    C120341   1.601   0.526   3.183  0.3139  0.3937 -0.0511
  179SLPC    HA20342   1.709   0.551   3.172  0.7299 -0.9589  0.7669
  179SLPC    HB20343   1.546   0.589   3.110  0.6499  0.3036 -0.3858
  179SLPC    C220344   1.558   0.549   3.326 -0.9965  0.3904 -0.9338
  179SLPC    HS20345   1.574   0.657   3.347 -2.0630  0.5319 -0.7955
  179SLPC   O2120346   1.634   0.468   3.418 -0.3785  0.8579 -0.5801
  179SLPC   C2120347   1.756   0.506   3.444  1.1033 -0.3249  0.0246
  179SLPC   O2220348   1.801   0.619   3.426  0.1750 -0.1103  0.1799
  179SLPC   C2220349   1.833   0.397   3.517  0.1532 -0.1043  0.5443
  179SLPC   H2R20350   1.841   0.306   3.454 -0.4883  0.1888  0.0285
  179SLPC   H2S20351   1.933   0.445   3.522 -0.9843  2.3757  1.2534
  179SLPC    C320352   1.410   0.515   3.350  0.6112 -0.2435 -0.3541
  179SLPC    HX20353   1.411   0.407   3.327  0.5171 -1.2490  3.6305
  179SLPC    HY20354   1.361   0.572   3.268  0.7426 -0.7951 -0.8193
  179SLPC   O3120355   1.366   0.543   3.482  0.8669 -0.6181 -0.2590
  179SLPC   C3120356   1.380   0.457   3.576 -0.3477 -0.1999  0.2897
  179SLPC   O3220357   1.422   0.342   3.560 -0.2836 -0.6314 -0.3503
  179SLPC   C3220358   1.351   0.507   3.718 -0.6120  0.4400  0.1125
  179SLPC   H2X20359   1.243   0.532   3.707 -0.6729  0.0528 -0.2170
  179SLPC   H2Y20360   1.412   0.599   3.729  0.3289  0.1334 -2.0431
  179SLPC   C2320361   1.794   0.368   3.664  0.9723  0.4448 -0.8432
  179SLPC   H3R20362   1.832   0.268   3.695 -0.2207  0.5566  1.1839
  179SLPC   H3S20363   1.684   0.363   3.672  1.0297  1.5407  2.0705
  179SLPC   C2420364   1.852   0.470   3.767  0.1729 -0.9963 -0.5194
  179SLPC   H4R20365   1.815   0.573   3.748  0.8566 -0.0102  2.8136
  179SLPC   H4S20366   1.963   0.469   3.762  0.2434  0.3113  0.4960
  179SLPC   C2520367   1.808   0.426   3.910 -0.2402 -0.3286 -1.2359
  179SLPC   H5R20368   1.840   0.320   3.924  1.7621  0.3499 -0.2920
  179SLPC   H5S20369   1.699   0.443   3.925  0.1451 -0.3490  2.7862
  179SLPC   C2620370   1.881   0.506   4.029  0.4038 -0.1184  0.3545
  179SLPC   H6R20371   1.822   0.601   4.034 -0.0694 -0.3745 -0.2945
  179SLPC   H6S20372   1.988   0.505   3.999  0.4695 -3.9852  0.2846
  179SLPC   C2720373   1.855   0.426   4.160 -0.7507 -0.6358  0.0270
  179SLPC   H7R20374   1.913   0.332   4.154  2.3818  1.2890 -2.5426
  179SLPC   H7S20375   1.750   0.389   4.166 -1.9651  1.6489 -3.5137
  179SLPC   C2820376   1.901   0.500   4.284 -0.4058  0.0861  0.2880
  179SLPC   H8R20377   2.009   0.526   4.274 -0.5692  0.6309 -0.1221
  179SLPC   H8S20378   1.901   0.426   4.367 -0.7820 -0.1530  0.0739
  179SLPC   C2920379   1.822   0.619   4.309  1.1966  0.2680 -0.3761
  179SLPC   H9R20380   1.832   0.696   4.230  0.9094 -1.0882 -1.7873
  179SLPC  C21020381   1.726   0.636   4.403 -0.0617 -0.1316 -0.1397
  179SLPC  H10R20382   1.671   0.731   4.413  2.3733  1.4544 -0.7923
  179SLPC  C21120383   1.686   0.534   4.509 -0.5114  0.9280  0.3064
  179SLPC  H11R20384   1.716   0.430   4.482 -1.1186  0.8646 -0.1391
  179SLPC  H11S20385   1.576   0.519   4.511 -0.3531 -1.3635 -2.2016
  179SLPC  C21220386   1.716   0.564   4.652  0.5995 -0.4129 -0.7254
  179SLPC  H12R20387   1.782   0.650   4.668 -0.3924  0.4738 -1.2592
  179SLPC  C21320388   1.664   0.513   4.764  0.7329 -0.0593 -0.3366
  179SLPC  H13R20389   1.711   0.551   4.856  0.0913  1.1268 -0.4828
  179SLPC  C21420390   1.563   0.403   4.793  0.4939 -0.3536 -0.2756
  179SLPC  H14R20391   1.512   0.365   4.702 -2.1356  0.8803  0.5874
  179SLPC  H14S20392   1.485   0.437   4.865  0.7322  0.4925 -0.4012
  179SLPC  C21520393   1.630   0.283   4.867 -0.2861  0.4192 -0.1359
  179SLPC  H15R20394   1.710   0.244   4.801  0.6326  0.6873  0.7892
  179SLPC  H15S20395   1.555   0.201   4.872  0.7708 -0.5329  0.4508
  179SLPC  C21620396   1.683   0.307   5.011  0.6414  0.2561 -0.7107
  179SLPC  H16R20397   1.598   0.349   5.068  0.1720 -2.8386  1.1068
  179SLPC  H16S20398   1.765   0.381   5.019 -0.0325  0.7838  2.6855
  179SLPC  C21720399   1.708   0.168   5.068  0.1456 -0.5280 -0.4386
  179SLPC  H17R20400   1.796   0.115   5.025  0.5721 -0.4864  0.3777
  179SLPC  H17S20401   1.618   0.109   5.039 -0.0534 -1.3150  1.6435
  179SLPC  C21820402   1.718   0.172   5.222  0.3120 -0.3047  0.1903
  179SLPC  H18R20403   1.778   0.260   5.254  0.3309 -0.1651 -0.2245
  179SLPC  H18S20404   1.763   0.082   5.267 -2.0314 -0.9086  1.4910
  179SLPC  H18T20405   1.617   0.179   5.267  1.0040 -1.0608  1.9273
  179SLPC   C3320406   1.380   0.417   3.837  0.5683  0.3837 -0.4562
  179SLPC   H3X20407   1.471   0.359   3.810 -1.4554 -2.1351 -2.4329
  179SLPC   H3Y20408   1.304   0.336   3.846 -1.8659  2.7441  1.6960
  179SLPC   C3420409   1.392   0.490   3.964 -0.3786 -0.4097 -0.0764
  179SLPC   H4X20410   1.314   0.566   3.984 -0.4218 -0.1916 -1.0456
  179SLPC   H4Y20411   1.482   0.555   3.964 -0.9011  0.3286  0.4001
  179SLPC   C3520412   1.407   0.410   4.089 -0.2751 -0.6462  0.0315
  179SLPC   H5X20413   1.435   0.306   4.062  1.4090  0.1076 -1.3549
  179SLPC   H5Y20414   1.490   0.441   4.156 -1.4836  2.5559  0.1887
  179SLPC   C3620415   1.280   0.403   4.166  0.2396 -0.1960 -0.3007
  179SLPC   H6X20416   1.207   0.342   4.109 -1.9492  1.7215  0.3005
  179SLPC   H6Y20417   1.235   0.504   4.180 -0.7572 -0.2872 -2.4931
  179SLPC   C3720418   1.287   0.335   4.307 -0.3442 -0.7136 -0.7175
  179SLPC   H7X20419   1.370   0.262   4.296 -0.9583 -1.5961  0.3206
  179SLPC   H7Y20420   1.192   0.284   4.333 -0.1812 -1.5724 -1.7178
  179SLPC   C3820421   1.321   0.427   4.429  0.0222  1.0910  0.9128
  179SLPC   H8X20422   1.392   0.507   4.400 -1.3269  2.0728  0.2578
  179SLPC   H8Y20423   1.379   0.360   4.497 -2.6576 -0.5759  1.7224
  179SLPC   C3920424   1.206   0.490   4.507 -0.9465  0.2720  0.3226
  179SLPC   H9X20425   1.122   0.420   4.528  1.0232 -2.6362 -0.7819
  179SLPC   H9Y20426   1.168   0.576   4.447  0.6082  1.5314  1.0543
  179SLPC  C31020427   1.246   0.546   4.642  0.6251  0.9212  0.1567
  179SLPC  H10X20428   1.337   0.609   4.629  1.4721  0.1019  1.7409
  179SLPC  H10Y20429   1.263   0.462   4.712 -0.9205  0.6738  0.2652
  179SLPC  C31120430   1.132   0.634   4.715  0.2660  0.4383  0.1512
  179SLPC  H11X20431   1.053   0.562   4.746 -0.4246  0.5410 -1.2964
  179SLPC  H11Y20432   1.101   0.711   4.641 -2.1364 -0.3581  0.2228
  179SLPC  C31220433   1.176   0.695   4.845 -0.0500  0.0962  0.0740
  179SLPC  H12X20434   1.105   0.779   4.859 -0.7777 -0.3106 -1.0762
  179SLPC  H12Y20435   1.281   0.731   4.835  0.0197 -0.3730 -1.0258
  179SLPC  C31320436   1.173   0.598   4.966 -0.6475 -0.0811  0.4913
  179SLPC  H13X20437   1.252   0.616   5.041 -1.1210  1.0235  0.7417
  179SLPC  H13Y20438   1.201   0.496   4.929  0.4421 -0.0640  1.2461
  179SLPC  C31420439   1.034   0.583   5.029  0.7063 -0.9404  0.2645
  179SLPC  H14X20440   0.971   0.546   4.945 -0.8462 -1.0706  1.4617
  179SLPC  H14Y20441   0.993   0.683   5.052  0.7309 -0.7185 -0.6093
  179SLPC  C31520442   1.036   0.488   5.145  0.5460 -0.5249 -0.2760
  179SLPC  H15X20443   1.066   0.532   5.243 -0.5004  2.0199 -1.0048
  179SLPC  H15Y20444   1.103   0.403   5.122  0.3162 -0.8867  0.3440
  179SLPC  C31620445   0.889   0.445   5.168  0.2889 -0.0466  0.6330
  179SLPC  H16X20446   0.833   0.410   5.079 -2.9340 -0.0666  2.5261
  179SLPC  H16Y20447   0.832   0.540   5.173 -1.1423 -0.8156 -0.5127
  179SLPC  C31720448   0.881   0.349   5.289  0.1238  0.2915  0.1449
  179SLPC  H17X20449   0.926   0.386   5.384 -0.8829 -1.0324  1.1765
  179SLPC  H17Y20450   0.941   0.261   5.256 -1.3359 -1.5676  2.1672
  179SLPC  C31820451   0.738   0.314   5.323  0.5858  0.0174 -0.4200
  179SLPC  H18X20452   0.682   0.303   5.228  0.1451  1.3686 -0.3392
  179SLPC  H18Y20453   0.691   0.404   5.366  1.4289  1.4104 -2.2665
  179SLPC  H18Z20454   0.721   0.219   5.378 -1.2295  0.1104 -0.7450
  180SLPC     N20455   6.709   0.327   2.709  0.1530  0.3049 -0.3030
  180SLPC   C1320456   6.685   0.220   2.616 -0.4466  0.1110 -0.2830
  180SLPC  H13A20457   6.738   0.127   2.634  1.1873  0.8450 -1.0839
  180SLPC  H13B20458   6.585   0.179   2.620  0.7816 -3.1607  0.7520
  180SLPC  H13C20459   6.708   0.253   2.516  0.1557 -1.1350 -0.5802
  180SLPC   C1420460   6.712   0.273   2.849 -0.0436  0.5443 -0.4396
  180SLPC  H14A20461   6.705   0.347   2.927 -1.3697 -1.2362  1.2307
  180SLPC  H14B20462   6.642   0.194   2.871  0.3917  0.4123  0.5188
  180SLPC  H14C20463   6.807   0.224   2.860  0.4564  1.2630 -1.4149
  180SLPC   C1520464   6.610   0.434   2.706  0.0153 -1.0071  0.2845
  180SLPC  H15A20465   6.598   0.469   2.605  1.1169 -1.4016 -0.0006
  180SLPC  H15B20466   6.516   0.395   2.741 -0.7524  1.5151  1.3116
  180SLPC  H15C20467   6.643   0.517   2.768 -0.5719 -1.0657  0.6850
  180SLPC   C1220468   6.846   0.389   2.687  0.5458  0.1165  0.8277
  180SLPC  H12A20469   6.828   0.449   2.599  1.9472  0.6046  0.8491
  180SLPC  H12B20470   6.919   0.318   2.651  0.2774  0.2130  0.0795
  180SLPC   C1120471   6.915   0.479   2.787 -0.3011 -0.3727 -0.0372
  180SLPC  H11A20472   7.016   0.502   2.748 -0.2501 -0.1501  0.2244
  180SLPC  H11B20473   6.931   0.430   2.886 -0.9606 -0.8093 -0.1395
  180SLPC     P20474   6.786   0.647   2.957  0.1178 -0.2170  0.1368
  180SLPC   O1320475   6.677   0.745   2.947  0.3281 -0.6368 -0.8627
  180SLPC   O1420476   6.762   0.531   3.046 -0.0012  0.1980 -0.6044
  180SLPC   O1220477   6.839   0.603   2.810 -0.1630  0.3076  0.1280
  180SLPC   O1120478   6.919   0.719   3.014  0.4916  0.0862  0.0056
  180SLPC    C120479   6.935   0.816   3.114 -0.0085 -0.0310 -0.2869
  180SLPC    HA20480   7.043   0.834   3.134 -0.1495  1.8545 -0.9724
  180SLPC    HB20481   6.890   0.909   3.073 -0.7759  0.2166  1.0691
  180SLPC    C220482   6.883   0.782   3.260  0.0997 -0.1764  0.1294
  180SLPC    HS20483   6.896   0.675   3.290  2.1813  0.1962  0.6754
  180SLPC   O2120484   6.750   0.835   3.266  0.0537  0.2396 -0.1709
  180SLPC   C2120485   6.660   0.776   3.342 -0.9590 -0.4171  0.0438
  180SLPC   O2220486   6.679   0.671   3.399 -0.5281 -0.1977 -0.0315
  180SLPC   C2220487   6.542   0.869   3.370 -0.2368 -0.3510 -0.4292
  180SLPC   H2R20488   6.542   0.949   3.293 -2.0615 -0.1298 -0.2362
  180SLPC   H2S20489   6.457   0.797   3.358  0.4488 -1.4795  1.1179
  180SLPC    C320490   6.971   0.866   3.363  0.0935  0.3937 -0.4936
  180SLPC    HX20491   6.964   0.974   3.342 -3.6334  0.6680  1.3011
  180SLPC    HY20492   7.078   0.838   3.361 -0.0599 -0.1913 -0.9960
  180SLPC   O3120493   6.907   0.869   3.493  0.0879 -0.4199  0.0417
  180SLPC   C3120494   6.928   0.767   3.562 -1.4793  0.5663 -0.3666
  180SLPC   O3220495   6.980   0.662   3.526  0.6494  0.5493  0.6845
  180SLPC   C3220496   6.852   0.775   3.691  0.2077  0.1890 -0.3351
  180SLPC   H2X20497   6.749   0.795   3.655  1.1143  0.2296 -3.1098
  180SLPC   H2Y20498   6.879   0.861   3.755 -2.9773  2.0165 -1.2065
  180SLPC   C2320499   6.545   0.924   3.508  0.5517 -0.1354 -0.5542
  180SLPC   H3R20500   6.627   0.998   3.513  0.9230 -0.4808 -1.4196
  180SLPC   H3S20501   6.543   0.840   3.581 -0.8250  0.8195  0.5774
  180SLPC   C2420502   6.419   1.012   3.547  0.5633  0.5389  0.3310
  180SLPC   H4R20503   6.325   0.953   3.547  1.4682 -0.9848  1.4549
  180SLPC   H4S20504   6.417   1.092   3.469  0.8107  1.7950  1.5681
  180SLPC   C2520505   6.436   1.073   3.681  0.5436 -0.3928  0.0865
  180SLPC   H5R20506   6.347   1.127   3.719 -0.3918 -0.6458 -1.6304
  180SLPC   H5S20507   6.514   1.150   3.664 -0.4072 -0.0681 -3.5427
  180SLPC   C2620508   6.481   0.984   3.797 -0.5714  0.6214  0.3508
  180SLPC   H6R20509   6.582   0.941   3.781 -0.0268  2.2122 -0.7067
  180SLPC   H6S20510   6.402   0.906   3.796 -0.4193  0.4678 -0.5800
  180SLPC   C2720511   6.487   1.058   3.936  0.0330 -0.1985 -0.1262
  180SLPC   H7R20512   6.383   1.087   3.963  0.5642  0.3437  1.4837
  180SLPC   H7S20513   6.547   1.150   3.920 -0.7430  0.0349 -1.8135
  180SLPC   C2820514   6.537   0.967   4.052  0.0794 -0.1758  0.1797
  180SLPC   H8R20515   6.534   1.024   4.148 -0.0614  0.5724 -0.2598
  180SLPC   H8S20516   6.638   0.928   4.029  0.7869  1.2277  0.7724
  180SLPC   C2920517   6.453   0.852   4.067  0.7544 -0.2906 -0.6699
  180SLPC   H9R20518   6.417   0.801   3.977 -3.7880  0.0144  0.7083
  180SLPC  C21020519   6.413   0.790   4.177  0.2274 -0.5002  0.0628
  180SLPC  H10R20520   6.343   0.706   4.166 -1.4621  0.9677 -0.9557
  180SLPC  C21120521   6.459   0.823   4.322  0.6839  0.3862  0.1047
  180SLPC  H11R20522   6.428   0.927   4.345  0.8620  0.3247  0.6236
  180SLPC  H11S20523   6.569   0.812   4.326  0.6389 -0.8487 -1.1878
  180SLPC  C21220524   6.394   0.741   4.433 -0.5528  0.2978  0.4082
  180SLPC  H12R20525   6.334   0.653   4.405  1.9848 -0.8910 -1.6164
  180SLPC  C21320526   6.419   0.766   4.560 -0.2056 -0.0164  0.5149
  180SLPC  H13R20527   6.364   0.726   4.646 -0.1389  1.7166  1.3897
  180SLPC  C21420528   6.515   0.881   4.590  0.2744 -0.3343 -0.6233
  180SLPC  H14R20529   6.459   0.975   4.571  1.5911 -0.1738 -4.8017
  180SLPC  H14S20530   6.604   0.890   4.524 -0.3082  0.9238 -1.2788
  180SLPC  C21520531   6.575   0.869   4.728  0.3467 -0.5647  0.2507
  180SLPC  H15R20532   6.641   0.958   4.737 -1.9393  1.1972  0.4418
  180SLPC  H15S20533   6.639   0.780   4.751  0.0249 -1.7502 -2.9957
  180SLPC  C21620534   6.476   0.893   4.846  0.4199  0.2583 -0.2805
  180SLPC  H16R20535   6.413   0.803   4.864  1.1425  0.2336  2.4193
  180SLPC  H16S20536   6.414   0.979   4.813  0.1010 -0.2170 -0.9664
  180SLPC  C21720537   6.547   0.928   4.976 -0.2207  0.1146 -0.5457
  180SLPC  H17R20538   6.483   0.991   5.042 -0.2061 -1.4914  1.0777
  180SLPC  H17S20539   6.627   0.997   4.941 -1.7912  2.2292 -0.1953
  180SLPC  C21820540   6.616   0.812   5.052  0.2614 -0.0548  0.3013
  180SLPC  H18R20541   6.541   0.753   5.108  0.8016  2.1529  3.6310
  180SLPC  H18S20542   6.692   0.842   5.127  0.7933 -0.9943  0.1503
  180SLPC  H18T20543   6.663   0.744   4.978 -0.0819  3.2058 -3.2528
  180SLPC   C3320544   6.839   0.635   3.770  0.1598 -0.0046 -0.3989
  180SLPC   H3X20545   6.938   0.589   3.793 -0.2847 -1.1869 -0.8018
  180SLPC   H3Y20546   6.790   0.567   3.697 -0.8941  1.3690 -1.0155
  180SLPC   C3420547   6.748   0.648   3.893 -0.0044 -0.0553  0.0553
  180SLPC   H4X20548   6.645   0.681   3.867  0.7633  2.0682 -0.5027
  180SLPC   H4Y20549   6.785   0.720   3.969 -1.7067  0.6958  0.2179
  180SLPC   C3520550   6.731   0.512   3.961 -0.5704 -0.2617  0.3785
  180SLPC   H5X20551   6.828   0.458   3.964  0.2113  0.6899 -3.0313
  180SLPC   H5Y20552   6.670   0.436   3.908  1.2393 -1.1995 -0.4727
  180SLPC   C3620553   6.676   0.525   4.095 -0.0595 -0.7512  0.3153
  180SLPC   H6X20554   6.567   0.543   4.091  0.3583  1.9409 -0.8566
  180SLPC   H6Y20555   6.726   0.610   4.146  3.3981 -2.4854  0.0986
  180SLPC   C3720556   6.703   0.401   4.180  0.2341  0.2528 -0.0082
  180SLPC   H7X20557   6.810   0.373   4.180 -0.2317 -1.6956  0.5609
  180SLPC   H7Y20558   6.654   0.308   4.143 -0.0725  0.6960 -0.7615
  180SLPC   C3820559   6.633   0.404   4.317 -0.7885  0.6646 -0.7840
  180SLPC   H8X20560   6.527   0.424   4.294 -0.0084  3.3696 -2.4946
  180SLPC   H8Y20561   6.679   0.484   4.379  0.7749 -0.9086  0.1892
  180SLPC   C3920562   6.658   0.277   4.394 -1.0023  0.4784  0.0885
  180SLPC   H9X20563   6.665   0.297   4.503 -0.3199  1.6071 -0.1545
  180SLPC   H9Y20564   6.761   0.240   4.375 -0.6838  2.2293 -1.8711
  180SLPC  C31020565   6.553   0.164   4.373  0.6686 -0.2892  0.8565
  180SLPC  H10X20566   6.609   0.068   4.367  1.9517  0.5246 -1.0354
  180SLPC  H10Y20567   6.510   0.192   4.275  0.6860  2.2689  1.4993
  180SLPC  C31120568   6.445   0.175   4.483  0.2981 -0.4096  0.1699
  180SLPC  H11X20569   6.480   0.159   4.587 -0.3285 -0.4157  0.3855
  180SLPC  H11Y20570   6.375   0.092   4.462 -2.1921  1.2784  1.2617
  180SLPC  C31220571   6.359   0.300   4.490 -0.4578  0.9537  0.1485
  180SLPC  H12X20572   6.334   0.344   4.391 -1.3439 -1.0801 -0.5819
  180SLPC  H12Y20573   6.401   0.384   4.549  1.6073 -0.6950  1.1639
  180SLPC  C31320574   6.218   0.262   4.549 -0.8500 -0.3519  0.0800
  180SLPC  H13X20575   6.243   0.220   4.649  2.1004 -0.1049 -0.4372
  180SLPC  H13Y20576   6.179   0.178   4.488  0.5335  0.2018 -1.6762
  180SLPC  C31420577   6.112   0.374   4.544 -0.3086  0.2526 -0.2377
  180SLPC  H14X20578   6.015   0.321   4.558  0.1469 -0.7806 -0.8997
  180SLPC  H14Y20579   6.104   0.425   4.446  0.2883  1.8887  0.5273
  180SLPC  C31520580   6.132   0.481   4.653 -0.8458  0.8945 -0.3297
  180SLPC  H15X20581   6.229   0.530   4.631  0.5636 -1.8586 -0.5838
  180SLPC  H15Y20582   6.152   0.431   4.750  0.6284  0.1256 -1.0033
  180SLPC  C31620583   6.019   0.574   4.673  0.1081  0.2137  0.7175
  180SLPC  H16X20584   5.929   0.514   4.700  0.4157 -0.4336  0.3296
  180SLPC  H16Y20585   6.003   0.628   4.577  2.8920 -1.3474 -0.7518
  180SLPC  C31720586   6.052   0.678   4.790 -0.0063 -0.8307  0.6492
  180SLPC  H17X20587   6.133   0.742   4.749 -1.0243 -0.4108 -0.8322
  180SLPC  H17Y20588   6.095   0.624   4.877 -0.1641  1.3965  2.1870
  180SLPC  C31820589   5.945   0.782   4.827 -0.2941  0.4806  0.3768
  180SLPC  H18X20590   5.861   0.730   4.876  0.0551 -0.7722 -0.3143
  180SLPC  H18Y20591   5.895   0.835   4.743 -1.7950 -2.4509 -0.7109
  180SLPC  H18Z20592   5.982   0.866   4.890 -2.8273  1.7633  0.2584
  181SLPC     N20593   5.408   5.837   2.978  0.1647 -0.1744  0.0425
  181SLPC   C1320594   5.525   5.818   3.066  0.4317  0.8319 -0.1184
  181SLPC  H13A20595   5.616   5.837   3.010 -0.6324 -0.3505 -2.3901
  181SLPC  H13B20596   5.525   5.866   3.163  0.3367 -0.7427  0.6951
  181SLPC  H13C20597   5.523   5.713   3.091 -0.7083  0.1213 -2.8382
  181SLPC   C1420598   5.395   5.726   2.878 -0.3530  0.7187  0.0832
  181SLPC  H14A20599   5.363   5.634   2.924 -1.9634 -0.6737 -3.4789
  181SLPC  H14B20600   5.336   5.743   2.789 -0.4915 -0.5351 -0.0791
  181SLPC  H14C20601   5.493   5.707   2.836  0.0453 -0.4242  1.4537
  181SLPC   C1520602   5.426   5.966   2.911  0.2629 -0.1017  0.0857
  181SLPC  H15A20603   5.345   5.998   2.847  1.1010 -0.7034 -1.3351
  181SLPC  H15B20604   5.446   6.038   2.988 -3.7588  0.4314  0.8476
  181SLPC  H15C20605   5.505   5.964   2.837 -0.7947  0.7501 -1.1111
  181SLPC   C1220606   5.274   5.841   3.053 -0.4624 -0.3571 -0.0125
  181SLPC  H12A20607   5.194   5.838   2.982 -0.9989 -0.3055  0.5778
  181SLPC  H12B20608   5.261   5.936   3.103  1.6781  0.3224 -0.6490
  181SLPC   C1120609   5.243   5.720   3.151 -0.1071  0.1088  0.5614
  181SLPC  H11A20610   5.171   5.760   3.225  1.9561  4.5094  0.5201
  181SLPC  H11B20611   5.336   5.697   3.209 -0.2804  0.2785  0.9119
  181SLPC     P20612   5.060   5.546   3.056 -0.1735 -0.1157 -0.0540
  181SLPC   O1320613   4.992   5.670   3.023  0.0441 -0.1298 -0.0828
  181SLPC   O1420614   5.064   5.441   2.951  0.5960 -0.0353 -0.2587
  181SLPC   O1220615   5.207   5.599   3.084  0.6219 -0.6962  0.0821
  181SLPC   O1120616   4.998   5.494   3.192  0.0770  0.5765 -0.1546
  181SLPC    C120617   5.067   5.412   3.281  0.3869  0.4480 -0.8618
  181SLPC    HA20618   4.998   5.330   3.310  0.9681  0.6937  1.4765
  181SLPC    HB20619   5.165   5.362   3.263  0.5090  0.1098  0.5990
  181SLPC    C220620   5.085   5.493   3.411  0.4061  0.6390 -0.3408
  181SLPC    HS20621   5.180   5.548   3.397  0.9329 -0.2842 -0.4896
  181SLPC   O2120622   5.099   5.407   3.534 -0.3956 -0.7362 -0.1274
  181SLPC   C2120623   5.193   5.446   3.614 -0.7359 -0.0954 -0.4862
  181SLPC   O2220624   5.265   5.541   3.591 -0.6527 -0.1182  0.1552
  181SLPC   C2220625   5.197   5.368   3.745  0.1413  0.1005 -0.6221
  181SLPC   H2R20626   5.108   5.310   3.776 -0.0480  1.5313  1.7287
  181SLPC   H2S20627   5.287   5.303   3.733  0.1475 -0.0276  0.0631
  181SLPC    C320628   4.974   5.596   3.446  0.6421  0.2111  0.4011
  181SLPC    HX20629   4.876   5.544   3.455  0.3312  1.1031  3.6559
  181SLPC    HY20630   4.972   5.670   3.364  0.5887 -0.9538 -0.6725
  181SLPC   O3120631   5.000   5.659   3.572  0.3818  0.3925  0.4696
  181SLPC   C3120632   4.889   5.736   3.609 -0.2541  0.8427  0.2635
  181SLPC   O3220633   4.793   5.755   3.536  0.3242  0.1429  0.1591
  181SLPC   C3220634   4.908   5.802   3.746  0.3785  0.0499 -0.2257
  181SLPC   H2X20635   5.017   5.800   3.765  0.3592  1.3958  0.1064
  181SLPC   H2Y20636   4.859   5.730   3.816  0.4137  0.8665  0.6605
  181SLPC   C2320637   5.228   5.457   3.874 -0.2404  0.1495  0.1805
  181SLPC   H3R20638   5.152   5.538   3.880  0.1228  0.3797  2.5286
  181SLPC   H3S20639   5.324   5.512   3.864  0.0179 -0.3986 -0.4144
  181SLPC   C2420640   5.221   5.369   3.996  0.5138 -0.4291 -0.1405
  181SLPC   H4R20641   5.286   5.281   3.981 -2.3744 -2.9318  0.8538
  181SLPC   H4S20642   5.123   5.322   4.022  0.9092 -0.5183  1.3051
  181SLPC   C2520643   5.240   5.441   4.123  0.1172 -0.3613  0.3960
  181SLPC   H5R20644   5.196   5.543   4.117  1.7972  0.4514  1.3740
  181SLPC   H5S20645   5.347   5.468   4.134 -0.2157  2.2257 -1.6884
  181SLPC   C2620646   5.200   5.359   4.249  0.0848  0.1946  0.3027
  181SLPC   H6R20647   5.237   5.254   4.239 -2.7116 -0.8870  0.4501
  181SLPC   H6S20648   5.089   5.358   4.249  0.0665 -1.1257 -0.8808
  181SLPC   C2720649   5.231   5.434   4.381  0.2214 -0.4589  0.1574
  181SLPC   H7R20650   5.211   5.542   4.368 -1.8938 -0.8373 -0.0986
  181SLPC   H7S20651   5.341   5.425   4.394  0.3865 -0.6426 -1.2723
  181SLPC   C2820652   5.156   5.382   4.508  0.2289  0.0282 -0.3890
  181SLPC   H8R20653   5.224   5.399   4.594 -0.6452 -0.2670  0.3731
  181SLPC   H8S20654   5.133   5.274   4.497 -1.4028  0.3349 -0.3721
  181SLPC   C2920655   5.025   5.459   4.515 -0.0501 -0.1540  0.2618
  181SLPC   H9R20656   4.980   5.471   4.416 -0.9481  0.5848  0.7366
  181SLPC  C21020657   4.976   5.511   4.630  0.3156  0.7618 -0.4859
  181SLPC  H10R20658   4.881   5.565   4.624 -1.1991 -1.6842  0.4016
  181SLPC  C21120659   5.040   5.488   4.767  0.7330  0.3045 -0.0487
  181SLPC  H11R20660   5.142   5.529   4.783  1.8155 -2.2556  0.0609
  181SLPC  H11S20661   5.027   5.381   4.793 -3.0466  0.6767  0.2023
  181SLPC  C21220662   4.953   5.565   4.869  0.1239  0.5585  0.4685
  181SLPC  H12R20663   4.922   5.665   4.834  1.5738  0.6613 -0.5793
  181SLPC  C21320664   4.920   5.527   4.992 -0.0559  0.2432 -0.2377
  181SLPC  H13R20665   4.837   5.579   5.043 -1.5836 -0.4720 -1.8771
  181SLPC  C21420666   4.948   5.390   5.055 -0.0099  0.0655 -0.0442
  181SLPC  H14R20667   5.024   5.336   4.994  0.2652 -0.8080  1.0373
  181SLPC  H14S20668   4.857   5.327   5.064 -0.4252  0.8883  2.2542
  181SLPC  C21520669   5.015   5.406   5.192 -0.7770 -0.4029 -0.2376
  181SLPC  H15R20670   5.098   5.479   5.181 -0.4538 -0.8802 -1.0273
  181SLPC  H15S20671   5.051   5.309   5.232 -0.8485 -1.3966 -2.4201
  181SLPC  C21620672   4.908   5.464   5.284 -0.0975  0.2702 -0.8025
  181SLPC  H16R20673   4.814   5.406   5.277 -0.5011  1.0524 -2.1855
  181SLPC  H16S20674   4.888   5.566   5.246 -0.4240  0.3813 -0.3364
  181SLPC  C21720675   4.962   5.479   5.433 -0.0240  0.1118  0.1300
  181SLPC  H17R20676   5.057   5.536   5.428 -0.4100  0.8687  1.0427
  181SLPC  H17S20677   4.980   5.380   5.479  0.1719  0.2577  0.3681
  181SLPC  C21820678   4.867   5.553   5.521  0.1168  0.0816 -0.3700
  181SLPC  H18R20679   4.768   5.502   5.520 -0.6307  1.4871 -1.6742
  181SLPC  H18S20680   4.858   5.655   5.479 -1.3219 -0.4464 -1.4524
  181SLPC  H18T20681   4.911   5.568   5.622  0.9372  1.3264 -0.8934
  181SLPC   C3320682   4.861   5.944   3.764  0.0675  0.2546  1.0068
  181SLPC   H3X20683   4.751   5.940   3.751  0.0461  1.0114  0.8936
  181SLPC   H3Y20684   4.908   6.001   3.681 -0.4305 -0.8660 -0.0768
  181SLPC   C3420685   4.903   5.996   3.898  0.0189  0.1908 -0.2039
  181SLPC   H4X20686   4.869   6.101   3.890 -1.2630 -0.3021 -1.9041
  181SLPC   H4Y20687   5.013   5.985   3.911 -0.1392 -0.0120  1.1186
  181SLPC   C3520688   4.842   5.924   4.017  0.7266 -0.2181 -0.2154
  181SLPC   H5X20689   4.875   5.819   4.030 -1.9605 -1.2609 -1.1777
  181SLPC   H5Y20690   4.732   5.938   4.007  1.0411  3.4012 -0.2114
  181SLPC   C3620691   4.887   5.995   4.144  0.1605  0.3333  0.3378
  181SLPC   H6X20692   4.870   6.104   4.128  1.1578  0.3151 -0.9379
  181SLPC   H6Y20693   4.996   5.980   4.156  0.0009  0.6765  2.7512
  181SLPC   C3720694   4.829   5.945   4.272  0.2831  0.2207 -0.0673
  181SLPC   H7X20695   4.820   5.834   4.276 -1.2498  0.3121 -0.2614
  181SLPC   H7Y20696   4.725   5.984   4.284 -0.4613 -1.5611 -0.3485
  181SLPC   C3820697   4.913   5.988   4.393 -0.0743  0.2758  0.1695
  181SLPC   H8X20698   4.915   6.099   4.389 -1.3756  0.2963 -0.4059
  181SLPC   H8Y20699   5.016   5.950   4.380 -0.4623 -0.0581 -2.4248
  181SLPC   C3920700   4.850   5.935   4.524  0.1389  0.3066 -0.1014
  181SLPC   H9X20701   4.848   5.825   4.515 -3.9592  0.0841  1.4244
  181SLPC   H9Y20702   4.750   5.984   4.530 -0.1510 -0.1339 -1.1272
  181SLPC  C31020703   4.929   5.987   4.648  0.4227  0.2019 -0.4972
  181SLPC  H10X20704   4.958   6.094   4.635 -1.8803  0.9444 -0.0724
  181SLPC  H10Y20705   5.009   5.914   4.671 -0.2066  0.2325  2.0581
  181SLPC  C31120706   4.837   5.990   4.775  0.0012  0.0962 -0.8528
  181SLPC  H11X20707   4.798   5.886   4.778  0.5952 -0.1198  0.4834
  181SLPC  H11Y20708   4.752   6.061   4.768  1.1685  1.8117  1.2267
  181SLPC  C31220709   4.907   6.016   4.906  0.4310 -0.6281 -0.0458
  181SLPC  H12X20710   4.935   6.121   4.928  0.7105 -0.6516 -0.2866
  181SLPC  H12Y20711   5.006   5.965   4.908  0.8213  0.0052 -1.8924
  181SLPC  C31320712   4.810   5.970   5.012  0.1805  0.1828 -0.5781
  181SLPC  H13X20713   4.783   5.862   5.009 -1.3861  0.3921  2.3671
  181SLPC  H13Y20714   4.708   6.013   5.009 -0.5647 -1.5020 -0.4400
  181SLPC  C31420715   4.870   5.995   5.151  0.4300  0.3693  0.1060
  181SLPC  H14X20716   4.909   6.100   5.152  0.6423  0.3090  1.7422
  181SLPC  H14Y20717   4.952   5.922   5.167  1.9583  2.2492  1.3077
  181SLPC  C31520718   4.771   5.960   5.261  0.8910  0.0932 -0.2905
  181SLPC  H15X20719   4.759   5.850   5.266  1.1152  0.1229  2.4830
  181SLPC  H15Y20720   4.680   6.018   5.238  1.3607  1.7657  1.7019
  181SLPC  C31620721   4.819   5.992   5.399 -0.2922  0.6121  0.1280
  181SLPC  H16X20722   4.858   6.096   5.405  3.4756 -0.7038  0.8366
  181SLPC  H16Y20723   4.909   5.930   5.414 -0.5650 -0.1150 -1.0842
  181SLPC  C31720724   4.720   5.963   5.513 -1.0144  0.3341  0.2646
  181SLPC  H17X20725   4.755   6.022   5.600  1.7039  0.0581 -0.5691
  181SLPC  H17Y20726   4.724   5.855   5.538  1.6311  0.9335  2.9335
  181SLPC  C31820727   4.575   6.007   5.485  0.6637 -0.0449  1.5452
  181SLPC  H18X20728   4.518   5.970   5.572  0.0519 -1.1915  0.6899
  181SLPC  H18Y20729   4.542   5.956   5.392  1.4178  0.3633  1.0327
  181SLPC  H18Z20730   4.562   6.116   5.470 -1.5733 -0.6992 -3.3177
  182SLPC     N20731   1.312   4.048   3.028 -0.0568 -0.2576  0.1117
  182SLPC   C1320732   1.380   4.149   2.942  0.2359  0.4567  0.5802
  182SLPC  H13A20733   1.463   4.095   2.898  0.7628  1.0139  0.8848
  182SLPC  H13B20734   1.323   4.187   2.858  1.1387  2.0914  0.6572
  182SLPC  H13C20735   1.420   4.235   2.994 -1.5374  2.4542 -1.1670
  182SLPC   C1420736   1.182   4.115   3.079  0.2066 -0.2881 -0.0083
  182SLPC  H14A20737   1.139   4.052   3.156  0.3848 -0.5111 -0.0912
  182SLPC  H14B20738   1.206   4.212   3.121  2.1633 -0.5743 -0.3743
  182SLPC  H14C20739   1.116   4.120   2.994  0.0105 -0.2706  0.1425
  182SLPC   C1520740   1.405   4.018   3.130 -0.1895 -0.1475  0.4086
  182SLPC  H15A20741   1.365   3.939   3.191 -1.5503 -1.1309 -1.6451
  182SLPC  H15B20742   1.499   3.994   3.082 -0.2297  2.2287 -1.0297
  182SLPC  H15C20743   1.424   4.105   3.191 -1.9399 -0.3998  1.3707
  182SLPC   C1220744   1.268   3.927   2.949  0.1401 -0.4018 -0.1863
  182SLPC  H12A20745   1.212   3.958   2.862  0.4666 -1.4103 -0.7730
  182SLPC  H12B20746   1.200   3.864   3.004 -0.4139  1.5433  1.4691
  182SLPC   C1120747   1.386   3.837   2.907  0.1172 -0.2118  0.0414
  182SLPC  H11A20748   1.347   3.753   2.847 -1.0461 -1.6543  2.6231
  182SLPC  H11B20749   1.429   3.790   2.998 -2.2556  0.3242  1.5301
  182SLPC     P20750   1.614   3.873   2.778  0.4085 -0.0271  0.4645
  182SLPC   O1320751   1.582   3.756   2.694 -0.2596  0.2756 -0.6953
  182SLPC   O1420752   1.681   3.986   2.712  0.2232 -0.0941 -0.0892
  182SLPC   O1220753   1.484   3.919   2.843  0.5017  0.1684 -0.1520
  182SLPC   O1120754   1.702   3.828   2.905 -0.1313 -0.0412  0.3492
  182SLPC    C120755   1.772   3.934   2.979  0.1879 -0.1977  0.0402
  182SLPC    HA20756   1.821   4.006   2.909  0.4173  2.2341  2.5347
  182SLPC    HB20757   1.702   3.977   3.054  0.6957 -2.9129  2.2335
  182SLPC    C220758   1.888   3.867   3.062  0.1855 -1.1764  0.8230
  182SLPC    HS20759   1.948   3.812   2.987 -1.3684  0.7767 -2.0523
  182SLPC   O2120760   1.830   3.789   3.161 -0.4499  0.2158  0.3619
  182SLPC   C2120761   1.907   3.686   3.207 -0.1597  0.3269  0.5448
  182SLPC   O2220762   1.991   3.633   3.136 -0.4031 -0.6198 -0.1701
  182SLPC   C2220763   1.855   3.630   3.339 -0.2664 -0.0882  0.2993
  182SLPC   H2R20764   1.754   3.675   3.355 -1.9736 -2.2833 -3.0854
  182SLPC   H2S20765   1.855   3.519   3.334 -1.3236 -0.0930  0.0678
  182SLPC    C320766   1.971   3.980   3.131 -0.5830 -0.1337  0.3496
  182SLPC    HX20767   1.900   4.036   3.196 -4.2314 -2.8220 -0.9959
  182SLPC    HY20768   2.013   4.052   3.057 -1.3671 -0.0401 -0.0135
  182SLPC   O3120769   2.087   3.929   3.204 -0.1345  0.3567 -0.5795
  182SLPC   C3120770   2.137   4.027   3.279  0.5038  0.0449 -0.4196
  182SLPC   O3220771   2.088   4.137   3.297 -0.0164 -0.2791 -0.3821
  182SLPC   C3220772   2.261   3.963   3.356  0.1651 -0.7731  0.7113
  182SLPC   H2X20773   2.339   3.953   3.278 -0.9703 -1.9443 -0.3335
  182SLPC   H2Y20774   2.239   3.859   3.389 -0.0046 -0.7593  0.6419
  182SLPC   C2320775   1.944   3.684   3.453  0.3724  0.0041 -0.8604
  182SLPC   H3R20776   1.948   3.795   3.449 -0.1259  0.1297  0.9946
  182SLPC   H3S20777   2.046   3.645   3.433  1.9987  2.1227  2.4896
  182SLPC   C2420778   1.893   3.643   3.596  0.3734 -0.2341  0.1701
  182SLPC   H4R20779   1.892   3.532   3.587 -1.1169 -0.1665 -0.9593
  182SLPC   H4S20780   1.786   3.674   3.601  0.9878  2.4072 -1.3485
  182SLPC   C2520781   1.970   3.711   3.715 -0.4385 -0.1646  0.0641
  182SLPC   H5R20782   1.996   3.818   3.706 -0.1266 -0.3217 -0.9960
  182SLPC   H5S20783   2.064   3.654   3.726  0.1423 -0.1962 -3.6368
  182SLPC   C2620784   1.897   3.696   3.849 -0.3924 -0.2846  0.2173
  182SLPC   H6R20785   1.883   3.587   3.864  2.2758 -0.7006  0.2624
  182SLPC   H6S20786   1.796   3.742   3.848  0.1663  1.0287 -1.9731
  182SLPC   C2720787   1.980   3.748   3.972 -0.7310 -0.0601  0.2025
  182SLPC   H7R20788   1.971   3.859   3.978 -2.0420 -0.1562  0.3577
  182SLPC   H7S20789   2.084   3.721   3.943 -1.4841 -0.8497 -1.9752
  182SLPC   C2820790   1.931   3.678   4.099  0.3040 -0.9039  0.1419
  182SLPC   H8R20791   2.003   3.711   4.176  2.3792 -0.3894 -1.8912
  182SLPC   H8S20792   1.955   3.571   4.084  2.0770 -0.4204 -0.8510
  182SLPC   C2920793   1.791   3.714   4.143  0.3459 -0.5179 -0.8356
  182SLPC   H9R20794   1.717   3.728   4.063 -1.0841 -4.0235 -0.3349
  182SLPC  C21020795   1.747   3.733   4.269  0.0908 -0.2399  0.6551
  182SLPC  H10R20796   1.645   3.771   4.283  0.6627  1.2225  1.0716
  182SLPC  C21120797   1.821   3.703   4.397 -0.0762 -0.6558  0.2852
  182SLPC  H11R20798   1.863   3.793   4.447  2.2388 -0.8525 -1.1313
  182SLPC  H11S20799   1.910   3.639   4.378  0.7169  0.0217  1.6073
  182SLPC  C21220800   1.724   3.632   4.486 -0.0359  0.8772 -0.1113
  182SLPC  H12R20801   1.623   3.605   4.452  0.8245 -0.1193 -2.0144
  182SLPC  C21320802   1.754   3.592   4.612  0.3266  0.6473 -0.2028
  182SLPC  H13R20803   1.675   3.539   4.667  0.3236 -0.0532 -0.8617
  182SLPC  C21420804   1.894   3.607   4.675 -0.8115  0.3659  0.1377
  182SLPC  H14R20805   1.935   3.703   4.636 -1.5592  0.6784  0.0877
  182SLPC  H14S20806   1.963   3.524   4.653 -0.9743  0.1639  0.3909
  182SLPC  C21520807   1.892   3.641   4.828 -0.1702  0.5370  0.4479
  182SLPC  H15R20808   1.846   3.563   4.893  2.5547  0.6667  2.7267
  182SLPC  H15S20809   1.842   3.738   4.844  0.9029  1.2391 -0.3512
  182SLPC  C21620810   2.036   3.658   4.874 -0.4366 -0.0635  0.3696
  182SLPC  H16R20811   2.085   3.726   4.801 -2.0971  2.1609  1.1723
  182SLPC  H16S20812   2.088   3.560   4.872 -2.1878 -1.1017  2.1665
  182SLPC  C21720813   2.038   3.718   5.018 -0.4535  0.3986 -0.4958
  182SLPC  H17R20814   1.956   3.672   5.078 -2.0133 -1.8922 -4.0723
  182SLPC  H17S20815   2.025   3.828   5.011  0.1835  0.4688 -0.6569
  182SLPC  C21820816   2.176   3.693   5.088  0.9009  0.3072  0.2373
  182SLPC  H18R20817   2.163   3.735   5.190 -3.0106 -0.8205  0.3414
  182SLPC  H18S20818   2.254   3.742   5.025  0.2303  2.5952  1.0789
  182SLPC  H18T20819   2.201   3.585   5.100  1.2867 -0.1159 -3.3294
  182SLPC   C3320820   2.322   4.040   3.479 -0.0912 -0.1254  0.6169
  182SLPC   H3X20821   2.346   4.144   3.450 -0.2373 -0.3437 -0.3248
  182SLPC   H3Y20822   2.410   3.980   3.509  1.1112  0.0310 -2.2689
  182SLPC   C3420823   2.226   4.037   3.602  0.8087  1.1961 -0.4194
  182SLPC   H4X20824   2.190   3.936   3.632 -1.7444  1.6873 -1.5360
  182SLPC   H4Y20825   2.130   4.083   3.570 -0.5591 -0.4455  1.1122
  182SLPC   C3520826   2.297   4.107   3.721 -0.0899 -0.5426 -0.9161
  182SLPC   H5X20827   2.293   4.213   3.686 -0.1175 -1.1584 -2.9549
  182SLPC   H5Y20828   2.403   4.076   3.716  1.1106  2.9115  0.1198
  182SLPC   C3620829   2.229   4.082   3.859  0.0456  0.6873  0.3277
  182SLPC   H6X20830   2.205   3.973   3.864 -3.6054  1.3298 -0.3124
  182SLPC   H6Y20831   2.129   4.131   3.857 -0.6150 -0.6116 -1.1406
  182SLPC   C3720832   2.320   4.126   3.971 -0.1712  0.8707 -0.0647
  182SLPC   H7X20833   2.333   4.237   3.967  1.4127  0.8176  1.7327
  182SLPC   H7Y20834   2.423   4.086   3.961  0.2835  2.1733 -0.8411
  182SLPC   C3820835   2.252   4.096   4.108 -0.2199 -0.0038  0.1459
  182SLPC   H8X20836   2.241   3.986   4.112 -0.4676 -0.0260 -0.8091
  182SLPC   H8Y20837   2.149   4.138   4.115 -1.0079 -1.5802 -1.1446
  182SLPC   C3920838   2.334   4.137   4.231  0.5951 -0.2584 -1.3183
  182SLPC   H9X20839   2.349   4.245   4.248  0.4109 -0.7108  2.5377
  182SLPC   H9Y20840   2.434   4.087   4.222  0.3473 -0.9336 -0.4227
  182SLPC  C31020841   2.273   4.085   4.372 -0.1298  0.1156  0.0100
  182SLPC  H10X20842   2.227   3.985   4.358  1.6233 -0.7022 -0.1830
  182SLPC  H10Y20843   2.197   4.165   4.389 -2.4867 -1.6005 -1.6879
  182SLPC  C31120844   2.368   4.086   4.488  0.0103  0.2963 -0.5497
  182SLPC  H11X20845   2.424   4.182   4.479 -0.7261  0.6263 -1.8837
  182SLPC  H11Y20846   2.432   3.995   4.489  1.7203  1.4366 -0.7373
  182SLPC  C31220847   2.295   4.086   4.629 -0.1401 -0.1842 -0.0687
  182SLPC  H12X20848   2.268   3.978   4.632 -2.3482  0.2741 -1.4784
  182SLPC  H12Y20849   2.199   4.141   4.627 -2.1759 -3.4084  1.2455
  182SLPC  C31320850   2.393   4.126   4.746  0.2520  0.1023 -0.6294
  182SLPC  H13X20851   2.425   4.230   4.725  1.6833 -0.2981 -0.5479
  182SLPC  H13Y20852   2.483   4.060   4.741  0.9030  0.9538 -0.3952
  182SLPC  C31420853   2.326   4.118   4.885  0.0522  0.5929  0.1065
  182SLPC  H14X20854   2.298   4.013   4.908  0.8569  0.3370 -0.0565
  182SLPC  H14Y20855   2.237   4.184   4.872  0.4710  0.8403 -1.6677
  182SLPC  C31520856   2.414   4.169   5.001  0.4085 -0.7465 -0.2320
  182SLPC  H15X20857   2.448   4.274   4.987  0.3525 -0.5183  1.2103
  182SLPC  H15Y20858   2.507   4.109   5.000  0.9589  0.0851  0.1273
  182SLPC  C31620859   2.333   4.164   5.130  0.0048 -0.2426 -0.4790
  182SLPC  H16X20860   2.237   4.212   5.100 -0.1034  0.0483  0.2847
  182SLPC  H16Y20861   2.381   4.228   5.208  0.4043 -1.4781  0.3191
  182SLPC  C31720862   2.309   4.027   5.200 -0.0562  0.3529 -0.2548
  182SLPC  H17X20863   2.409   3.993   5.235 -0.3354 -0.6293 -0.3998
  182SLPC  H17Y20864   2.273   3.953   5.126  1.8803  0.1181 -1.0212
  182SLPC  C31820865   2.219   4.032   5.317 -0.0680 -0.8510 -0.3293
  182SLPC  H18X20866   2.119   4.064   5.280  0.0443 -0.4166 -0.2617
  182SLPC  H18Y20867   2.266   4.100   5.391 -1.4088  0.0780 -0.3089
  182SLPC  H18Z20868   2.207   3.930   5.359 -1.1480 -0.1887  1.0363
  183SLPC     N20869   4.851   1.616   2.925  0.4890 -0.0459  0.3057
  183SLPC   C1320870   4.998   1.592   2.927  0.0184 -0.0065 -0.0593
  183SLPC  H13A20871   5.050   1.643   3.007 -0.0043  1.1374 -0.7542
  183SLPC  H13B20872   5.019   1.487   2.942 -0.0932 -0.0811 -0.4163
  183SLPC  H13C20873   5.029   1.620   2.827 -0.4195  1.3763  0.1674
  183SLPC   C1420874   4.820   1.747   2.879 -0.8672 -0.1703  0.8516
  183SLPC  H14A20875   4.715   1.763   2.894 -1.3553 -0.1305 -2.0140
  183SLPC  H14B20876   4.876   1.818   2.937  0.6793  0.4065 -1.2241
  183SLPC  H14C20877   4.851   1.774   2.779  0.2377 -0.2721  1.1498
  183SLPC   C1520878   4.791   1.604   3.070 -0.1452 -0.2538 -0.0461
  183SLPC  H15A20879   4.840   1.669   3.141  1.8274  0.7623 -2.2107
  183SLPC  H15B20880   4.684   1.623   3.066 -0.4372 -1.7731  0.0725
  183SLPC  H15C20881   4.805   1.500   3.093 -1.3072 -0.5726 -0.6996
  183SLPC   C1220882   4.770   1.520   2.845  0.8714 -0.4286  0.1035
  183SLPC  H12A20883   4.791   1.542   2.742  1.5857  0.2403  0.3739
  183SLPC  H12B20884   4.665   1.541   2.861  0.6251 -1.1315 -0.5668
  183SLPC   C1120885   4.790   1.371   2.874  0.0681 -0.3254 -0.3966
  183SLPC  H11A20886   4.892   1.344   2.840  0.7242  0.0783  1.1766
  183SLPC  H11B20887   4.723   1.324   2.799 -0.2685  0.6897 -0.7549
  183SLPC     P20888   4.724   1.168   3.026 -0.1757  0.1755 -0.3490
  183SLPC   O1320889   4.581   1.147   3.067 -0.3558  0.9372 -0.3228
  183SLPC   O1420890   4.778   1.094   2.907 -0.5722  0.1014 -0.1652
  183SLPC   O1220891   4.756   1.320   3.008 -0.5456 -0.1208  0.1014
  183SLPC   O1120892   4.812   1.123   3.157  0.5617  0.0475 -0.3828
  183SLPC    C120893   4.945   1.167   3.182 -0.1868 -0.0569 -0.1359
  183SLPC    HA20894   5.016   1.086   3.154 -1.1139 -1.2358  0.8024
  183SLPC    HB20895   4.976   1.251   3.117 -0.0641  0.1715  0.2138
  183SLPC    C220896   4.965   1.217   3.332  0.0211  0.5364  0.1109
  183SLPC    HS20897   5.071   1.247   3.345  0.0810  0.3893 -0.0322
  183SLPC   O2120898   4.913   1.123   3.425 -0.1534  0.1543 -0.0064
  183SLPC   C2120899   5.008   1.034   3.452 -0.6542 -0.0094 -0.7880
  183SLPC   O2220900   5.122   1.035   3.406  0.2186 -0.2801  0.2879
  183SLPC   C2220901   4.953   0.932   3.556 -0.6005  0.3642 -0.3616
  183SLPC   H2R20902   4.849   0.956   3.586 -0.6953 -1.1398  0.6240
  183SLPC   H2S20903   4.953   0.830   3.511 -0.3616  0.5240 -0.7280
  183SLPC    C320904   4.892   1.353   3.356 -0.2026 -0.1560  0.0093
  183SLPC    HX20905   4.790   1.337   3.313  0.7654 -0.4305 -2.3608
  183SLPC    HY20906   4.948   1.422   3.289 -0.4840  0.2364  0.1791
  183SLPC   O3120907   4.885   1.393   3.500  0.8136 -0.6065 -0.0797
  183SLPC   C3120908   4.893   1.527   3.514  0.4767 -0.4877  0.1747
  183SLPC   O3220909   4.885   1.610   3.425  0.4363  0.5663 -0.8871
  183SLPC   C3220910   4.906   1.558   3.664 -0.0337  0.1229  0.6601
  183SLPC   H2X20911   4.986   1.498   3.713  0.6810 -0.0443 -0.6505
  183SLPC   H2Y20912   4.805   1.535   3.703 -0.7625  2.7354  0.5112
  183SLPC   C2320913   5.043   0.924   3.685  0.7279  0.1493 -0.4277
  183SLPC   H3R20914   5.152   0.919   3.666  0.2822  0.1811 -3.4744
  183SLPC   H3S20915   5.010   0.839   3.749 -0.8478  0.5181 -0.7076
  183SLPC   C2420916   5.032   1.063   3.765  0.5583  0.2938  0.2964
  183SLPC   H4R20917   5.081   1.136   3.697  0.7497 -0.7894 -0.7492
  183SLPC   H4S20918   5.097   1.051   3.854 -0.5023 -0.6823  0.9659
  183SLPC   C2520919   4.894   1.111   3.816  0.4312 -0.1267 -0.1273
  183SLPC   H5R20920   4.853   1.036   3.887 -1.4779 -0.4084 -1.4506
  183SLPC   H5S20921   4.824   1.129   3.731  0.4993  2.5397  0.3262
  183SLPC   C2620922   4.908   1.247   3.892  0.0284 -0.1738 -0.6514
  183SLPC   H6R20923   4.812   1.301   3.878  0.9356  1.1410 -2.1142
  183SLPC   H6S20924   4.978   1.302   3.826 -1.5217 -1.5731 -3.7225
  183SLPC   C2720925   4.946   1.237   4.041  0.2351  0.4701  0.1632
  183SLPC   H7R20926   5.037   1.177   4.058  0.7282  1.3521  0.7217
  183SLPC   H7S20927   4.866   1.177   4.090 -0.7302  0.6054 -1.2093
  183SLPC   C2820928   4.961   1.364   4.113  0.1611  0.3301 -0.5594
  183SLPC   H8R20929   5.041   1.430   4.072  0.7541  0.0249  0.0735
  183SLPC   H8S20930   4.989   1.345   4.219  1.0129 -0.4499 -0.9128
  183SLPC   C2920931   4.834   1.450   4.113  0.4792  0.3637  0.0610
  183SLPC   H9R20932   4.764   1.427   4.031  0.5726  0.8372 -0.1513
  183SLPC  C21020933   4.809   1.550   4.205 -0.2281  0.0965 -0.1692
  183SLPC  H10R20934   4.721   1.615   4.199 -0.0920  0.2834 -0.1402
  183SLPC  C21120935   4.907   1.602   4.308 -0.3724  0.1000 -0.0653
  183SLPC  H11R20936   4.996   1.643   4.256  0.0048 -1.2061 -0.4975
  183SLPC  H11S20937   4.946   1.519   4.371 -2.5110  0.2051  1.4970
  183SLPC  C21220938   4.867   1.706   4.408  0.1774  0.0154 -0.0528
  183SLPC  H12R20939   4.931   1.795   4.398 -1.0351  0.9400  0.2437
  183SLPC  C21320940   4.760   1.727   4.495 -0.0584  0.4381  0.4981
  183SLPC  H13R20941   4.770   1.804   4.573  0.6810  0.8073  0.0427
  183SLPC  C21420942   4.660   1.623   4.530  1.1804  0.4106  0.2862
  183SLPC  H14R20943   4.577   1.617   4.457 -0.3407 -1.3567  2.0330
  183SLPC  H14S20944   4.609   1.659   4.622  0.4275  0.4052 -0.1304
  183SLPC  C21520945   4.718   1.482   4.566  0.0859 -0.1167  0.0863
  183SLPC  H15R20946   4.776   1.448   4.478 -0.9502 -0.0727 -0.6333
  183SLPC  H15S20947   4.628   1.418   4.583 -2.1533  3.0266  1.0118
  183SLPC  C21620948   4.792   1.476   4.700  0.0810  0.9169  0.5632
  183SLPC  H16R20949   4.745   1.537   4.781  0.0281 -0.4797  1.6075
  183SLPC  H16S20950   4.893   1.513   4.674  0.2075  0.3337  0.2168
  183SLPC  C21720951   4.808   1.329   4.749 -0.3418  0.0021 -0.1977
  183SLPC  H17R20952   4.850   1.280   4.658 -0.8509 -0.5869 -0.1252
  183SLPC  H17S20953   4.710   1.278   4.767  0.1019 -1.5160 -1.7692
  183SLPC  C21820954   4.899   1.294   4.866  0.3408  0.4422 -0.3659
  183SLPC  H18R20955   4.912   1.185   4.886  2.3682  0.9366  1.4468
  183SLPC  H18S20956   4.862   1.339   4.961  0.2688 -1.3151  0.4885
  183SLPC  H18T20957   4.998   1.331   4.831 -0.5113  2.5526 -0.6677
  183SLPC   C3320958   4.926   1.708   3.690  0.0182 -0.3200  0.4402
  183SLPC   H3X20959   4.855   1.769   3.630  0.5376 -1.3710 -1.3144
  183SLPC   H3Y20960   5.026   1.736   3.652  0.3725  1.1521  2.3399
  183SLPC   C3420961   4.928   1.742   3.837  0.2585  0.2123  0.2059
  183SLPC   H4X20962   5.023   1.702   3.878  0.8413  0.7446 -0.6019
  183SLPC   H4Y20963   4.842   1.704   3.897 -0.3075  1.0915 -0.0416
  183SLPC   C3520964   4.939   1.885   3.871 -0.3009 -0.1356 -0.1156
  183SLPC   H5X20965   4.866   1.951   3.820  0.8333 -0.0196 -1.6442
  183SLPC   H5Y20966   5.039   1.920   3.838  0.5943  1.3437  3.6186
  183SLPC   C3620967   4.939   1.913   4.027 -0.1473  0.5050 -0.3595
  183SLPC   H6X20968   5.004   1.833   4.068  0.2143  1.6076  1.2810
  183SLPC   H6Y20969   4.835   1.896   4.064 -0.2041  0.3026 -0.6106
  183SLPC   C3720970   4.970   2.057   4.063 -0.5720  0.2447  0.3212
  183SLPC   H7X20971   4.908   2.134   4.013  0.1305  0.1756 -0.6903
  183SLPC   H7Y20972   5.077   2.063   4.036 -0.3245 -0.7635  1.0134
  183SLPC   C3820973   4.955   2.066   4.215  0.4969  0.1395  0.2336
  183SLPC   H8X20974   4.999   1.978   4.268  0.7643  0.1264 -0.0098
  183SLPC   H8Y20975   4.846   2.079   4.230  0.6944  2.4420  0.0728
  183SLPC   C3920976   5.019   2.189   4.267  0.3281 -0.9195 -0.4287
  183SLPC   H9X20977   4.988   2.269   4.197  1.4076  1.2895  1.4785
  183SLPC   H9Y20978   5.130   2.196   4.260  0.1509  1.2199 -2.0654
  183SLPC  C31020979   4.967   2.227   4.399  0.4539  0.2642 -0.2341
  183SLPC  H10X20980   4.869   2.280   4.392  0.7257  0.8920  0.5111
  183SLPC  H10Y20981   5.042   2.297   4.443 -1.8252  0.9286  2.9454
  183SLPC  C31120982   4.941   2.118   4.502 -0.2842  0.5453 -0.9391
  183SLPC  H11X20983   5.021   2.041   4.493 -0.8976 -0.2175 -0.0893
  183SLPC  H11Y20984   4.844   2.066   4.486 -0.0496 -1.0820  2.0986
  183SLPC  C31220985   4.933   2.150   4.659 -1.3606  0.0955 -0.4925
  183SLPC  H12X20986   4.878   2.246   4.671  1.7764  2.0851 -0.9553
  183SLPC  H12Y20987   5.039   2.172   4.685 -0.6788 -2.5286 -0.7708
  183SLPC  C31320988   4.882   2.031   4.730 -0.4231  0.2270 -0.2145
  183SLPC  H13X20989   4.804   1.979   4.669  0.4915  2.1388 -3.2604
  183SLPC  H13Y20990   4.839   2.074   4.823  0.2158 -0.7780  0.5689
  183SLPC  C31420991   4.983   1.934   4.780  0.0468  0.3972 -0.1888
  183SLPC  H14X20992   5.048   1.982   4.856 -0.9945  0.3151  0.7780
  183SLPC  H14Y20993   5.054   1.908   4.698 -2.1639  1.6420 -2.6500
  183SLPC  C31520994   4.938   1.798   4.845  0.0631 -0.4870  0.3189
  183SLPC  H15X20995   5.000   1.708   4.824 -0.0634 -1.3037  3.0237
  183SLPC  H15Y20996   4.839   1.775   4.799  0.5334  0.8726 -1.5064
  183SLPC  C31620997   4.917   1.803   5.003  0.4487  0.4479  0.8374
  183SLPC  H16X20998   4.898   1.910   5.027  0.3586  0.9217 -1.1745
  183SLPC  H16Y20999   5.016   1.778   5.047  0.3481 -0.3484  0.6300
  183SLPC  C31721000   4.806   1.705   5.054  0.1750 -0.2112  0.1343
  183SLPC  H17X21001   4.814   1.702   5.165 -2.4291 -2.5657  0.3423
  183SLPC  H17Y21002   4.829   1.600   5.027  1.4688 -0.7778  3.0280
  183SLPC  C31821003   4.659   1.749   5.018  0.4235 -0.1925  1.0848
  183SLPC  H18X21004   4.582   1.677   5.050  1.8703 -2.2929  0.0659
  183SLPC  H18Y21005   4.658   1.759   4.907  0.1817  0.7399  1.1584
  183SLPC  H18Z21006   4.620   1.852   5.036  0.1984  0.0905 -0.7793
  184SLPC     N21007   4.198   2.434   2.071  0.0025  0.0003 -0.3180
  184SLPC   C1321008   4.302   2.471   1.969 -0.7581  0.2149  0.4121
  184SLPC  H13A21009   4.361   2.554   2.004  2.6914 -1.6847 -0.5413
  184SLPC  H13B21010   4.366   2.388   1.946 -1.6473  0.1869 -2.3009
  184SLPC  H13C21011   4.260   2.500   1.874 -0.8187 -0.3862  0.2503
  184SLPC   C1421012   4.130   2.307   2.034  0.3750 -0.0512  0.2584
  184SLPC  H14A21013   4.046   2.286   2.099 -0.1019  1.1486  0.0449
  184SLPC  H14B21014   4.086   2.307   1.935 -1.2868  1.0801  0.9565
  184SLPC  H14C21015   4.195   2.223   2.052 -0.3375 -0.7407 -0.2511
  184SLPC   C1521016   4.093   2.542   2.075  0.5806  0.3029 -0.1732
  184SLPC  H15A21017   4.014   2.520   2.146 -0.6051 -1.4275 -1.9242
  184SLPC  H15B21018   4.151   2.629   2.103 -0.0760  1.3371 -1.8580
  184SLPC  H15C21019   4.045   2.575   1.984 -1.7244  0.7420  1.1068
  184SLPC   C1221020   4.255   2.420   2.216 -0.2534  0.1833  0.3512
  184SLPC  H12A21021   4.342   2.359   2.195  0.9848  1.8513  0.4489
  184SLPC  H12B21022   4.192   2.359   2.279  1.0031 -0.7648  0.7341
  184SLPC   C1121023   4.303   2.546   2.291 -0.9685 -0.2076 -0.3319
  184SLPC  H11A21024   4.338   2.510   2.391  2.2909  2.2322 -0.4253
  184SLPC  H11B21025   4.213   2.610   2.300 -0.1607  0.8656  0.4162
  184SLPC     P21026   4.561   2.597   2.245  0.2093 -0.1773 -0.0645
  184SLPC   O1321027   4.588   2.456   2.225  0.7045  0.0516 -0.4328
  184SLPC   O1421028   4.640   2.695   2.170  0.1668 -0.3526 -0.3877
  184SLPC   O1221029   4.412   2.613   2.215  0.5219 -0.1273  0.2854
  184SLPC   O1121030   4.569   2.631   2.398 -0.3466 -0.3681  0.0181
  184SLPC    C121031   4.540   2.760   2.446 -0.0018 -0.2848 -0.3969
  184SLPC    HA21032   4.613   2.839   2.417 -0.1319  1.1640  2.7774
  184SLPC    HB21033   4.435   2.782   2.416 -0.1204 -0.0658  0.1684
  184SLPC    C221034   4.517   2.741   2.599  0.1601  0.1042  0.3806
  184SLPC    HS21035   4.455   2.826   2.637  0.2829  0.2912  0.1692
  184SLPC   O2121036   4.645   2.721   2.660 -0.2694 -0.4367  0.1378
  184SLPC   C2121037   4.662   2.777   2.786 -0.2248  0.0270  0.2669
  184SLPC   O2221038   4.579   2.846   2.842  0.4491  0.2281 -0.0101
  184SLPC   C2221039   4.790   2.720   2.851  0.7563 -0.0594 -0.0812
  184SLPC   H2R21040   4.763   2.616   2.879  0.3499 -0.3190 -1.3552
  184SLPC   H2S21041   4.871   2.714   2.775  0.7666  1.5045 -0.2275
  184SLPC    C321042   4.429   2.623   2.634 -0.3751  0.6801  0.1992
  184SLPC    HX21043   4.481   2.527   2.612  3.2154  2.5122  0.0030
  184SLPC    HY21044   4.341   2.624   2.566 -0.9277  1.1195  0.9058
  184SLPC   O3121045   4.374   2.635   2.768 -0.5126 -0.4497  0.0000
  184SLPC   C3121046   4.436   2.563   2.867  0.3414 -0.5255 -0.0307
  184SLPC   O3221047   4.524   2.486   2.846 -0.4055 -0.1847  0.3961
  184SLPC   C3221048   4.355   2.577   2.993 -0.8295  0.1614 -0.3148
  184SLPC   H2X21049   4.256   2.530   2.973 -0.1204 -0.7048 -1.9386
  184SLPC   H2Y21050   4.338   2.678   3.037  0.8381 -1.0461  3.5726
  184SLPC   C2321051   4.843   2.800   2.968 -0.1872  0.0992 -1.1518
  184SLPC   H3R21052   4.823   2.909   2.955  0.7411  0.7699  2.0996
  184SLPC   H3S21053   4.953   2.789   2.973 -0.0610  1.6304  1.0448
  184SLPC   C2421054   4.766   2.778   3.097  0.2587  0.1015 -0.3911
  184SLPC   H4R21055   4.792   2.678   3.138  0.9495  0.3411 -0.2471
  184SLPC   H4S21056   4.656   2.766   3.081  0.1954 -0.1373  0.1762
  184SLPC   C2521057   4.789   2.892   3.199 -0.1740  0.0852 -0.5645
  184SLPC   H5R21058   4.756   2.991   3.162 -1.1117 -0.0393 -0.1129
  184SLPC   H5S21059   4.899   2.892   3.213 -0.4455  1.5702  2.4584
  184SLPC   C2621060   4.721   2.881   3.339  0.1394  0.4629  0.1438
  184SLPC   H6R21061   4.764   2.792   3.389  1.1264  0.0312 -1.3831
  184SLPC   H6S21062   4.616   2.846   3.323  1.5862 -3.1309 -3.3677
  184SLPC   C2721063   4.748   3.004   3.431 -0.0052 -0.3830  0.5624
  184SLPC   H7R21064   4.715   3.093   3.372  1.3817 -1.6743 -2.3351
  184SLPC   H7S21065   4.855   3.031   3.445 -0.5830  2.1682  0.5840
  184SLPC   C2821066   4.683   3.016   3.567  0.3714  0.4113  0.5351
  184SLPC   H8R21067   4.717   3.117   3.601  2.7541 -0.5046  1.0379
  184SLPC   H8S21068   4.730   2.942   3.635 -1.1131 -1.5432 -0.4838
  184SLPC   C2921069   4.535   3.001   3.572  0.0074 -0.4989  0.8452
  184SLPC   H9R21070   4.489   3.012   3.472  1.2240  0.7733  0.3858
  184SLPC  C21021071   4.462   3.015   3.681 -0.0174 -0.3448 -0.0894
  184SLPC  H10R21072   4.352   3.015   3.675 -0.0470  0.0535  0.4179
  184SLPC  C21121073   4.524   3.028   3.821  0.4503 -0.6193 -0.3900
  184SLPC  H11R21074   4.451   3.095   3.871 -1.4644 -2.6085 -0.3945
  184SLPC  H11S21075   4.620   3.084   3.820  1.1801 -1.5992  2.8275
  184SLPC  C21221076   4.539   2.897   3.893  0.3781 -0.2595 -0.2061
  184SLPC  H12R21077   4.582   2.819   3.829  1.3008 -0.7553  0.9791
  184SLPC  C21321078   4.523   2.882   4.023  0.2342  0.5493  0.0259
  184SLPC  H13R21079   4.543   2.782   4.065 -2.9663 -0.3399 -0.3119
  184SLPC  C21421080   4.469   2.984   4.119  0.2175  0.5460  0.0066
  184SLPC  H14R21081   4.506   3.085   4.092  0.2424  0.2751 -0.9965
  184SLPC  H14S21082   4.524   2.975   4.215 -2.0307  0.5195  1.3529
  184SLPC  C21521083   4.323   2.968   4.154 -0.4111 -0.2786 -0.0453
  184SLPC  H15R21084   4.303   2.865   4.190 -1.1063  0.0320  0.4619
  184SLPC  H15S21085   4.255   2.989   4.068 -1.6404 -1.4654  0.5998
  184SLPC  C21621086   4.287   3.072   4.260  0.3555 -0.3018  0.1380
  184SLPC  H16R21087   4.302   3.172   4.214 -0.1375 -0.6914 -0.9105
  184SLPC  H16S21088   4.356   3.068   4.347  0.2134 -1.3775  0.2123
  184SLPC  C21721089   4.142   3.076   4.307 -0.0206 -0.0400  0.5455
  184SLPC  H17R21090   4.129   2.987   4.373 -2.0164  1.6934  2.6884
  184SLPC  H17S21091   4.074   3.060   4.221 -0.4934  0.0188  0.9008
  184SLPC  C21821092   4.102   3.204   4.379  0.2191  0.6045 -0.0915
  184SLPC  H18R21093   3.996   3.188   4.408  0.1492  1.0417 -0.0971
  184SLPC  H18S21094   4.109   3.283   4.301 -0.8578 -0.6828 -1.5594
  184SLPC  H18T21095   4.165   3.233   4.466 -2.9570  3.1794  1.5791
  184SLPC   C3321096   4.432   2.494   3.108  0.6395 -0.1087  0.2218
  184SLPC   H3X21097   4.539   2.524   3.113  0.3234  0.8451  1.9954
  184SLPC   H3Y21098   4.432   2.386   3.084  0.5074  0.1512 -1.0338
  184SLPC   C3421099   4.359   2.524   3.245 -0.5349  0.6950  0.3714
  184SLPC   H4X21100   4.251   2.499   3.235 -0.5721  1.0963 -0.3204
  184SLPC   H4Y21101   4.359   2.633   3.265 -1.5667  0.8193 -0.2121
  184SLPC   C3521102   4.414   2.450   3.365  0.3893  0.0659 -0.4072
  184SLPC   H5X21103   4.432   2.342   3.344  1.7096  0.4310 -1.3298
  184SLPC   H5Y21104   4.332   2.454   3.439 -1.9610 -0.1402 -2.8557
  184SLPC   C3621105   4.544   2.505   3.421 -0.4145 -1.3421 -0.3919
  184SLPC   H6X21106   4.520   2.602   3.469 -0.4898 -0.4833 -2.1183
  184SLPC   H6Y21107   4.619   2.521   3.341  1.4401 -2.7830  0.9508
  184SLPC   C3721108   4.616   2.419   3.519  0.3684 -0.0189  0.8779
  184SLPC   H7X21109   4.638   2.330   3.458 -0.4091 -0.9275  1.8745
  184SLPC   H7Y21110   4.528   2.386   3.579 -0.6550  0.8174 -0.1037
  184SLPC   C3821111   4.732   2.480   3.589  0.2468  0.0210  0.4404
  184SLPC   H8X21112   4.690   2.562   3.651 -1.1117  0.1800 -0.6182
  184SLPC   H8Y21113   4.794   2.526   3.510 -0.1393  1.8530  1.1425
  184SLPC   C3921114   4.819   2.380   3.674 -0.7098  1.0941 -0.6296
  184SLPC   H9X21115   4.907   2.433   3.715 -0.2725 -1.0367  1.4085
  184SLPC   H9Y21116   4.852   2.296   3.609 -3.1055 -0.9823  0.6809
  184SLPC  C31021117   4.751   2.319   3.803  0.6394 -0.1505 -0.4638
  184SLPC  H10X21118   4.816   2.230   3.820 -1.6607 -2.3867 -2.5372
  184SLPC  H10Y21119   4.653   2.278   3.771  1.0080 -0.0120 -1.8377
  184SLPC  C31121120   4.754   2.420   3.922  0.3701 -0.0367 -0.1311
  184SLPC  H11X21121   4.721   2.515   3.875  0.8199 -0.7365 -1.9764
  184SLPC  H11Y21122   4.861   2.435   3.948  0.4299 -2.2223  1.1037
  184SLPC  C31221123   4.671   2.380   4.040  0.1368 -0.5851 -0.5140
  184SLPC  H12X21124   4.721   2.297   4.093 -1.3864  1.4042  4.5897
  184SLPC  H12Y21125   4.569   2.352   4.003  1.4844 -4.8399 -1.6103
  184SLPC  C31321126   4.674   2.485   4.157  0.5194 -0.0096 -0.2632
  184SLPC  H13X21127   4.620   2.580   4.140 -3.4552 -2.2637 -1.7850
  184SLPC  H13Y21128   4.782   2.500   4.176 -0.0821  1.2306  2.7570
  184SLPC  C31421129   4.614   2.422   4.288 -0.2488  0.0436  1.5382
  184SLPC  H14X21130   4.639   2.315   4.300 -2.0816 -0.8805 -1.6972
  184SLPC  H14Y21131   4.504   2.427   4.280 -0.4893 -4.2015 -0.4389
  184SLPC  C31521132   4.643   2.497   4.415  0.4021 -0.0516 -0.1698
  184SLPC  H15X21133   4.751   2.506   4.437  0.6047 -0.6925 -0.8726
  184SLPC  H15Y21134   4.602   2.423   4.486 -0.9425  0.1870 -0.6543
  184SLPC  C31621135   4.577   2.633   4.417 -0.0339 -0.0980 -0.1338
  184SLPC  H16X21136   4.470   2.630   4.386  0.3222 -1.3740 -1.3527
  184SLPC  H16Y21137   4.625   2.695   4.339  0.2346 -0.9617 -0.6627
  184SLPC  C31721138   4.580   2.700   4.553  0.1431 -0.5233  0.2007
  184SLPC  H17X21139   4.685   2.703   4.590  0.5142 -2.2093 -0.6183
  184SLPC  H17Y21140   4.534   2.628   4.623  0.0734  0.1934  0.9119
  184SLPC  C31821141   4.504   2.837   4.561  0.4740 -0.1270 -0.2588
  184SLPC  H18X21142   4.525   2.873   4.664  2.3518 -2.0841  0.1126
  184SLPC  H18Y21143   4.396   2.830   4.540 -0.7565  1.2309  4.4020
  184SLPC  H18Z21144   4.544   2.907   4.484  0.3889  0.2311  0.0193
  185POPC     N21145   4.055   2.215   7.453 -0.6194 -0.3027  0.3557
  185POPC   C1221146   4.134   2.261   7.321  0.0496 -0.4562 -0.8336
  185POPC  H12A21147   4.175   2.166   7.290 -3.4686 -3.3057  2.2109
  185POPC  H12B21148   4.207   2.333   7.354  2.1940 -2.7260 -0.2627
  185POPC   C1321149   3.944   2.126   7.409  0.5786  0.7541  0.0817
  185POPC  H13A21150   3.874   2.176   7.343 -0.0931 -2.2442 -1.6433
  185POPC  H13B21151   3.985   2.039   7.359 -0.9624  0.8567 -1.4599
  185POPC  H13C21152   3.888   2.091   7.494  1.9156  3.2126  2.1074
  185POPC   C1421153   4.151   2.144   7.544  0.8155  0.1322  0.0125
  185POPC  H14A21154   4.196   2.067   7.482 -0.6250 -0.8326  0.1161
  185POPC  H14B21155   4.223   2.215   7.581  0.2334  0.7326  0.0014
  185POPC  H14C21156   4.107   2.091   7.627  0.0505 -0.2112 -0.6038
  185POPC   C1521157   4.007   2.334   7.531 -0.1159  0.3061  0.4378
  185POPC  H15A21158   3.968   2.293   7.623 -2.2846 -1.8023 -1.2578
  185POPC  H15B21159   3.920   2.379   7.485 -2.1225 -0.4490  3.2341
  185POPC  H15C21160   4.074   2.417   7.542  0.4329  0.0571 -0.8284
  185POPC   C1121161   4.055   2.327   7.205  0.4707  0.4196 -0.1802
  185POPC  H11A21162   3.982   2.252   7.167 -0.9685  1.1391  1.0832
  185POPC  H11B21163   4.122   2.356   7.121  1.0299  1.5635  0.6508
  185POPC     P21164   4.037   2.587   7.250 -0.1497 -0.0246  0.1309
  185POPC   O1321165   4.175   2.577   7.306  0.0622 -0.0858 -0.0197
  185POPC   O1421166   3.945   2.683   7.316 -0.2572  0.0063  0.2670
  185POPC   O1221167   3.976   2.438   7.249  0.2475 -0.3621  0.4169
  185POPC   O1121168   4.056   2.628   7.092  0.1243 -0.0626  0.4163
  185POPC    C121169   3.939   2.667   7.020 -0.6720 -0.1786  0.7734
  185POPC    HA21170   3.849   2.679   7.084 -0.3756 -0.5139  1.2579
  185POPC    HB21171   3.922   2.596   6.937 -0.3843  1.8647 -1.1203
  185POPC    C221172   3.949   2.818   6.970 -0.4687  0.6019 -0.3337
  185POPC    HS21173   3.851   2.831   6.920 -0.8081 -3.5036 -1.1197
  185POPC   O2121174   4.061   2.842   6.874 -0.1517 -0.2464 -0.2563
  185POPC   C2121175   4.071   2.761   6.778 -0.1312  0.7222 -0.6533
  185POPC   O2221176   3.985   2.697   6.721 -0.1891  0.5042  0.4128
  185POPC   C2221177   4.215   2.760   6.738  0.1764  0.0542 -0.5563
  185POPC   H2R21178   4.257   2.676   6.798 -2.1980  0.6911  2.2393
  185POPC   H2S21179   4.263   2.852   6.777 -0.5091  1.5664 -3.1073
  185POPC    C321180   3.959   2.917   7.088  0.0128 -0.1574 -0.5511
  185POPC    HX21181   4.064   2.890   7.112  0.0477  0.6107  0.2062
  185POPC    HY21182   3.896   2.877   7.170  1.5202  1.4277  1.4863
  185POPC   O3121183   3.931   3.056   7.059  0.1311 -0.0593  0.3314
  185POPC   C3121184   4.028   3.143   7.080 -0.1001 -0.4824 -0.0496
  185POPC   O3221185   4.137   3.120   7.135  0.6978  0.2264  0.0992
  185POPC   C3221186   3.977   3.278   7.031 -0.6414  0.4655 -0.7749
  185POPC   H2X21187   4.058   3.348   7.060 -1.3441  0.2480  1.9628
  185POPC   H2Y21188   3.878   3.298   7.077 -0.2833 -0.0864  0.2566
  185POPC   C2321189   4.246   2.744   6.593 -0.1622  0.1187 -0.3191
  185POPC   H3R21190   4.173   2.672   6.552 -1.8996  1.9177 -0.5474
  185POPC   H3S21191   4.352   2.713   6.583  0.4160  2.0170 -0.4198
  185POPC   C2421192   4.233   2.878   6.515 -0.2755  0.3157  0.2449
  185POPC   H4R21193   4.287   2.957   6.571  2.3756 -0.1328 -1.5201
  185POPC   H4S21194   4.129   2.907   6.490 -0.0624  0.0610 -1.0445
  185POPC   C2521195   4.316   2.851   6.381 -0.0435  0.1636  0.2134
  185POPC   H5R21196   4.412   2.799   6.400 -0.8616 -2.4244 -2.0495
  185POPC   H5S21197   4.344   2.941   6.322 -1.2252  0.5216  0.1579
  185POPC   C2621198   4.235   2.757   6.284 -0.5423  0.9965  0.6253
  185POPC   H6R21199   4.138   2.802   6.251 -0.1348  0.7006 -1.0342
  185POPC   H6S21200   4.202   2.667   6.340  1.3726  0.5984  1.1670
  185POPC   C2721201   4.325   2.720   6.163 -0.0529 -0.0967  0.5891
  185POPC   H7R21202   4.258   2.655   6.103 -0.0006  0.4573 -0.0838
  185POPC   H7S21203   4.415   2.660   6.189  0.6939  1.4997  1.8366
  185POPC   C2821204   4.379   2.836   6.070 -0.4211 -0.0859  0.6541
  185POPC   H8R21205   4.433   2.792   5.983 -1.2019  1.4342 -0.6429
  185POPC   H8S21206   4.453   2.901   6.121 -1.7981  0.8457  1.5208
  185POPC   C2921207   4.260   2.912   6.015 -0.0145  0.5349 -0.8497
  185POPC   H9121208   4.193   2.944   6.096 -2.0680 -1.7488 -1.5048
  185POPC  C21021209   4.240   2.940   5.888  0.4393  0.4163  0.5000
  185POPC  H10121210   4.151   3.000   5.865 -0.4870 -1.5098 -1.2289
  185POPC  C21121211   4.344   2.924   5.773 -0.0083  0.1814  0.3981
  185POPC  H11R21212   4.425   2.852   5.799 -0.5616 -0.5616  0.0908
  185POPC  H11S21213   4.396   3.022   5.763  0.4834 -0.0670  0.4986
  185POPC  C21221214   4.283   2.866   5.646  0.1797 -0.3311 -0.0848
  185POPC  H12R21215   4.192   2.925   5.620  2.0367  2.3466 -0.8437
  185POPC  H12S21216   4.253   2.760   5.663  0.2157  0.0192  2.5929
  185POPC  C21321217   4.391   2.871   5.538 -0.3231  0.1325  0.0482
  185POPC  H13R21218   4.484   2.815   5.560 -0.1644  1.2103  2.3661
  185POPC  H13S21219   4.426   2.975   5.520  2.9642 -1.1710 -1.8884
  185POPC  C21421220   4.336   2.804   5.415 -0.1889  0.4167 -0.6986
  185POPC  H14R21221   4.253   2.870   5.380  0.5114  1.9889  0.5068
  185POPC  H14S21222   4.284   2.708   5.436 -1.4808  1.5347  1.5295
  185POPC  C21521223   4.438   2.779   5.307  0.4352  0.0207 -0.2473
  185POPC  H15R21224   4.516   2.710   5.344 -0.5257 -0.6968  0.4772
  185POPC  H15S21225   4.491   2.870   5.271 -0.3245  0.3357 -0.5901
  185POPC  C21621226   4.388   2.712   5.177  0.8468  0.6509  0.3212
  185POPC  H16R21227   4.305   2.777   5.142  0.5023  0.2704  0.4337
  185POPC  H16S21228   4.330   2.622   5.205  0.7598 -0.5363 -3.1622
  185POPC  C21721229   4.478   2.695   5.058 -0.1397 -0.3683  0.1525
  185POPC  H17R21230   4.545   2.607   5.071 -1.3955 -1.1899  1.3614
  185POPC  H17S21231   4.555   2.774   5.055 -0.2902 -0.2538 -1.8366
  185POPC  C21821232   4.413   2.682   4.922  0.1284  0.6267  0.5896
  185POPC  H18R21233   4.353   2.771   4.895  0.5769  1.0447  0.9410
  185POPC  H18S21234   4.349   2.592   4.913 -1.2197  1.4264  1.8007
  185POPC  H18T21235   4.492   2.684   4.844  0.3725  0.6279  0.8345
  185POPC   C3321236   3.962   3.274   6.868 -0.0953 -0.7759 -0.4352
  185POPC   H3X21237   3.877   3.206   6.846  1.6995 -2.6515 -1.9727
  185POPC   H3Y21238   4.058   3.230   6.834  1.0437  1.8835 -0.9097
  185POPC   C3421239   3.947   3.412   6.812 -0.4768  0.1357  0.7841
  185POPC   H4X21240   4.012   3.478   6.873  0.6241  0.5411 -0.7500
  185POPC   H4Y21241   3.843   3.448   6.825 -0.9418 -0.6703 -0.5042
  185POPC   C3521242   3.984   3.424   6.661  0.2016  0.7165 -0.3361
  185POPC   H5X21243   3.991   3.330   6.603 -1.2120  2.0204 -2.8108
  185POPC   H5Y21244   4.083   3.473   6.651  0.0659  1.2593  0.8150
  185POPC   C3621245   3.877   3.511   6.594  0.7719  0.0766 -0.9999
  185POPC   H6X21246   3.859   3.597   6.663  1.0413 -0.6973  0.0592
  185POPC   H6Y21247   3.784   3.453   6.581 -0.2486  1.3322  0.3805
  185POPC   C3721248   3.932   3.550   6.454 -0.0948  0.2803 -0.6716
  185POPC   H7X21249   4.035   3.588   6.472  0.1150 -0.2604 -0.7202
  185POPC   H7Y21250   3.879   3.632   6.401 -2.6318 -0.6387  0.2770
  185POPC   C3821251   3.915   3.434   6.353 -0.0952  0.5667 -0.3181
  185POPC   H8X21252   3.809   3.400   6.359  0.3004 -0.7958 -0.6133
  185POPC   H8Y21253   3.974   3.346   6.386  1.9576  1.9006 -0.2646
  185POPC   C3921254   3.950   3.477   6.200  0.3303  0.5389  0.2259
  185POPC   H9X21255   4.059   3.495   6.187 -0.0463  1.9140 -1.4299
  185POPC   H9Y21256   3.892   3.572   6.189 -4.7444 -1.9637  1.9175
  185POPC  C31021257   3.908   3.371   6.104 -0.2280 -0.1160  0.4229
  185POPC  H10X21258   3.936   3.398   6.000 -3.4890 -0.9902 -0.8229
  185POPC  H10Y21259   3.797   3.357   6.106 -0.4160  0.9329 -0.8781
  185POPC  C31121260   3.968   3.232   6.132  0.5035  0.2874 -0.0411
  185POPC  H11X21261   4.038   3.242   6.217  0.3285 -2.1777  0.4831
  185POPC  H11Y21262   4.024   3.192   6.044  1.0403 -0.9088  0.8196
  185POPC  C31221263   3.868   3.125   6.189  0.5285  0.6297  0.7750
  185POPC  H12X21264   3.790   3.110   6.112  0.2989  0.3011  1.0747
  185POPC  H12Y21265   3.809   3.167   6.273  0.4975 -0.4780  1.3251
  185POPC  C31321266   3.946   3.001   6.237  0.2402  0.3523  0.5969
  185POPC  H13X21267   4.051   3.022   6.265  0.0370  0.3851  1.3656
  185POPC  H13Y21268   3.942   2.929   6.152 -0.6141  0.0837  0.8514
  185POPC  C31421269   3.878   2.928   6.355 -0.7212  0.7635  0.0055
  185POPC  H14X21270   3.878   2.987   6.450 -1.6458  0.9032 -0.0651
  185POPC  H14Y21271   3.930   2.835   6.386 -0.3228  0.8309 -0.4523
  185POPC  C31521272   3.733   2.898   6.317  0.2611  0.0415  0.7293
  185POPC  H15X21273   3.730   2.812   6.247 -3.2123  0.1873  0.5765
  185POPC  H15Y21274   3.692   2.982   6.258 -0.9933 -0.6409  0.6165
  185POPC  C31621275   3.645   2.875   6.435 -1.0223 -0.0540  0.7190
  185POPC  H16X21276   3.551   2.827   6.401 -0.8794 -0.7836  1.3223
  185POPC  H16Y21277   3.633   2.973   6.485  1.6578  1.0041 -0.5076
  185POPC  H16Z21278   3.696   2.798   6.497  0.5305 -1.3314 -1.9620
  186POPC     N21279   5.437   2.970   7.361 -0.3768  0.4198  0.3565
  186POPC   C1221280   5.370   2.864   7.451 -0.0223 -0.4000  0.0720
  186POPC  H12A21281   5.431   2.847   7.538 -4.2970  0.4970  3.5801
  186POPC  H12B21282   5.350   2.772   7.399 -2.5616  1.0001 -1.6565
  186POPC   C1321283   5.572   2.907   7.317  0.8396  0.1645  0.0974
  186POPC  H13A21284   5.623   2.887   7.411 -1.2307  1.9797  1.7215
  186POPC  H13B21285   5.558   2.808   7.276 -0.8993  0.9198 -1.2236
  186POPC  H13C21286   5.631   2.977   7.261 -0.5685  0.7396 -0.7082
  186POPC   C1421287   5.369   3.004   7.240 -0.0178 -0.3438 -0.5276
  186POPC  H14A21288   5.359   2.917   7.177  0.9401 -0.1261 -1.0121
  186POPC  H14B21289   5.272   3.046   7.260  0.4266  0.6477 -0.3923
  186POPC  H14C21290   5.427   3.079   7.188  1.0435 -0.3678  0.5876
  186POPC   C1521291   5.466   3.081   7.454 -0.2793 -0.2804 -0.3964
  186POPC  H15A21292   5.382   3.125   7.505  1.2060  0.4464  1.5896
  186POPC  H15B21293   5.521   3.151   7.393 -0.4305  0.6216  0.4722
  186POPC  H15C21294   5.525   3.046   7.538 -1.2772  1.5659  1.1525
  186POPC   C1121295   5.231   2.916   7.497  0.2814  0.1337 -0.4197
  186POPC  H11A21296   5.239   3.014   7.550 -1.9184 -0.3173  0.8309
  186POPC  H11B21297   5.208   2.860   7.590 -0.4130  0.8033 -0.1773
  186POPC     P21298   5.037   3.040   7.390  0.0188  0.0927  0.4351
  186POPC   O1321299   5.132   3.150   7.351 -0.5097  0.3050 -0.9020
  186POPC   O1421300   4.966   3.061   7.513 -0.0859 -0.0092 -0.2897
  186POPC   O1221301   5.121   2.905   7.405 -0.0075 -0.2158 -0.0825
  186POPC   O1121302   4.943   3.017   7.271  0.5732  0.0747  0.2062
  186POPC    C121303   4.983   2.973   7.146  0.4999 -0.7473 -0.1497
  186POPC    HA21304   5.078   2.916   7.148 -0.7653 -2.9557 -0.1155
  186POPC    HB21305   4.974   3.051   7.067  1.8893 -1.8053 -1.4190
  186POPC    C221306   4.879   2.869   7.098  0.5382 -0.0686 -0.3187
  186POPC    HS21307   4.775   2.896   7.124  0.1363 -1.2097 -0.6641
  186POPC   O2121308   4.922   2.743   7.148 -0.4533  0.2873  0.2965
  186POPC   C2121309   4.846   2.709   7.250 -0.1381 -0.0891 -0.1108
  186POPC   O2221310   4.765   2.777   7.308  0.6928  0.5229 -0.7445
  186POPC   C2221311   4.857   2.559   7.277  0.0596  0.1096  0.8881
  186POPC   H2R21312   4.879   2.557   7.386  1.6635  0.0690  0.5821
  186POPC   H2S21313   4.946   2.519   7.224  1.2931 -0.7748  3.4618
  186POPC    C321314   4.878   2.860   6.947 -0.0919 -0.3200 -0.0093
  186POPC    HX21315   4.799   2.786   6.923 -0.5382 -0.3519  1.4843
  186POPC    HY21316   4.978   2.817   6.924  0.7237  0.8973  1.0969
  186POPC   O3121317   4.870   2.988   6.875  0.2043 -0.5468  0.3423
  186POPC   C3121318   4.743   3.045   6.879  0.0058 -0.5785  0.1241
  186POPC   O3221319   4.651   2.980   6.933 -0.1807 -0.4934  0.1973
  186POPC   C3221320   4.728   3.183   6.815 -0.5291 -0.5720 -0.0197
  186POPC   H2X21321   4.657   3.236   6.881 -0.4691 -0.0565 -0.3654
  186POPC   H2Y21322   4.681   3.164   6.716 -0.9746  2.4513 -0.4778
  186POPC   C2321323   4.735   2.480   7.252 -0.2589  0.5112 -0.5229
  186POPC   H3R21324   4.652   2.483   7.325 -2.9331 -0.4232 -3.3033
  186POPC   H3S21325   4.756   2.371   7.244 -0.3210  0.5592 -1.5275
  186POPC   C2421326   4.668   2.505   7.117  0.0793 -0.1026 -0.5936
  186POPC   H4R21327   4.616   2.604   7.112  0.2542 -0.0476 -4.2451
  186POPC   H4S21328   4.584   2.433   7.110 -0.3607  0.4974 -2.0204
  186POPC   C2521329   4.749   2.474   6.991 -0.0128 -0.5347  0.4494
  186POPC   H5R21330   4.780   2.368   6.992  0.5132 -0.3836  0.4465
  186POPC   H5S21331   4.831   2.548   7.004  0.5123 -1.0263 -0.0006
  186POPC   C2621332   4.664   2.504   6.867  0.2974  0.4646 -0.4600
  186POPC   H6R21333   4.598   2.586   6.900  1.9598  1.2096  1.1693
  186POPC   H6S21334   4.601   2.419   6.832  1.4587 -0.4339 -0.4307
  186POPC   C2721335   4.751   2.551   6.756  0.1790 -0.2984  0.2226
  186POPC   H7R21336   4.818   2.471   6.718  0.0128 -1.0965  1.5469
  186POPC   H7S21337   4.807   2.643   6.783 -1.2509  0.9509 -0.8532
  186POPC   C2821338   4.681   2.586   6.630 -0.4960  0.4301  0.4865
  186POPC   H8R21339   4.601   2.515   6.601  0.3459 -1.0391  1.6130
  186POPC   H8S21340   4.754   2.579   6.546 -2.0782  2.2248 -1.1576
  186POPC   C2921341   4.626   2.722   6.641 -0.2478  0.7817 -0.1105
  186POPC   H9121342   4.553   2.724   6.723  2.1113 -0.8289  2.1748
  186POPC  C21021343   4.651   2.830   6.566  0.1051  0.1929 -0.7368
  186POPC  H10121344   4.579   2.913   6.575  2.0129  1.8674 -0.2784
  186POPC  C21121345   4.734   2.832   6.443 -0.8098 -0.2856  0.3153
  186POPC  H11R21346   4.701   2.745   6.383 -1.9447  0.5074 -0.2413
  186POPC  H11S21347   4.836   2.798   6.470 -1.1617 -0.5714  1.3094
  186POPC  C21221348   4.731   2.962   6.368 -0.1075 -0.1065  0.0786
  186POPC  H12R21349   4.774   3.043   6.430  1.2058  1.8128 -3.1173
  186POPC  H12S21350   4.626   2.982   6.336  0.4387  0.8656 -1.1809
  186POPC  C21321351   4.816   2.947   6.242 -0.5482 -0.0025  0.0531
  186POPC  H13R21352   4.761   2.881   6.171  1.6815 -0.5847 -1.2161
  186POPC  H13S21353   4.910   2.890   6.259 -0.8421 -0.5558 -0.1572
  186POPC  C21421354   4.833   3.077   6.165  0.1059  0.3236  0.1844
  186POPC  H14R21355   4.896   3.144   6.227  3.2005 -0.3624 -2.0203
  186POPC  H14S21356   4.729   3.118   6.169 -1.2145 -2.8091  0.9309
  186POPC  C21521357   4.871   3.070   6.021 -0.6956 -0.2077  0.3263
  186POPC  H15R21358   4.958   3.002   6.011  0.5749  1.5668 -1.6438
  186POPC  H15S21359   4.917   3.164   5.983 -1.1368 -0.5466 -1.1151
  186POPC  C21621360   4.770   3.011   5.930 -0.0241 -0.4338 -1.0061
  186POPC  H16R21361   4.679   3.074   5.927  0.9781  1.0932 -0.8895
  186POPC  H16S21362   4.735   2.915   5.973  0.6411  0.4220  1.6751
  186POPC  C21721363   4.829   3.005   5.791  0.1962 -0.4593  0.3583
  186POPC  H17R21364   4.919   2.940   5.786  1.4626  1.2469 -0.1156
  186POPC  H17S21365   4.866   3.106   5.761  0.2055 -0.2676  1.0064
  186POPC  C21821366   4.721   2.958   5.681 -0.1018 -0.0787  0.0894
  186POPC  H18R21367   4.653   2.877   5.716  1.1921 -1.4457 -0.4285
  186POPC  H18S21368   4.781   2.921   5.595 -2.4769 -2.2889 -0.7460
  186POPC  H18T21369   4.664   3.046   5.645 -0.0734 -0.1706 -0.1853
  186POPC   C3321370   4.868   3.245   6.804  0.3674 -0.7439 -0.3512
  186POPC   H3X21371   4.948   3.192   6.859 -1.0077  0.2291  2.8064
  186POPC   H3Y21372   4.857   3.340   6.860 -0.6630 -0.3693 -1.1483
  186POPC   C3421373   4.913   3.276   6.668  0.5723 -0.6274 -0.0734
  186POPC   H4X21374   4.913   3.183   6.608  4.9631  0.6363 -2.5310
  186POPC   H4Y21375   5.012   3.327   6.673  1.0736 -0.8852 -4.0405
  186POPC   C3521376   4.820   3.373   6.601  0.1591  0.0484 -0.2514
  186POPC   H5X21377   4.804   3.465   6.661 -1.0153 -1.4757  1.9482
  186POPC   H5Y21378   4.725   3.319   6.580 -1.0406  2.0128 -0.0881
  186POPC   C3621379   4.867   3.418   6.460 -0.4529  0.1904  0.1240
  186POPC   H6X21380   4.777   3.452   6.404  0.1787  0.1015 -0.9768
  186POPC   H6Y21381   4.905   3.334   6.397  0.0839  0.7008 -0.2364
  186POPC   C3721382   4.973   3.522   6.462 -0.3848  0.1909 -0.3651
  186POPC   H7X21383   5.055   3.477   6.522  0.0204  1.5929  0.1595
  186POPC   H7Y21384   4.940   3.605   6.527  1.1414 -0.3871  1.2254
  186POPC   C3821385   5.033   3.569   6.329  0.4850  0.5736 -0.3214
  186POPC   H8X21386   4.949   3.613   6.272  0.9793  2.1505  0.1176
  186POPC   H8Y21387   5.082   3.484   6.276  0.4930  1.0491 -1.0959
  186POPC   C3921388   5.134   3.687   6.331  0.5601  0.9761  0.1462
  186POPC   H9X21389   5.087   3.763   6.397 -1.4047  0.5465 -0.7053
  186POPC   H9Y21390   5.126   3.737   6.232 -1.6676  0.5557  0.0630
  186POPC  C31021391   5.277   3.659   6.379  0.8589 -0.2135  0.8180
  186POPC  H10X21392   5.267   3.632   6.486 -1.3929  0.2057  0.7556
  186POPC  H10Y21393   5.333   3.752   6.355  0.7507 -0.7023 -1.5257
  186POPC  C31121394   5.344   3.548   6.299  0.6702  0.0928  0.0276
  186POPC  H11X21395   5.303   3.447   6.318  0.8284 -0.0168 -0.2128
  186POPC  H11Y21396   5.451   3.537   6.330  1.2899  2.4848 -1.0293
  186POPC  C31221397   5.346   3.583   6.148 -0.1739 -0.1381  0.3846
  186POPC  H12X21398   5.375   3.689   6.133 -0.5125  0.6423  4.2421
  186POPC  H12Y21399   5.242   3.559   6.118 -0.4600 -0.7685  1.7630
  186POPC  C31321400   5.444   3.500   6.073  0.3024 -0.0182  0.3103
  186POPC  H13X21401   5.423   3.395   6.102 -0.1333  0.2897  1.1383
  186POPC  H13Y21402   5.548   3.531   6.096  0.2831 -1.5906  2.8721
  186POPC  C31421403   5.414   3.517   5.922  0.0840 -0.3470  0.2518
  186POPC  H14X21404   5.441   3.618   5.883  2.4697 -1.4094 -0.9920
  186POPC  H14Y21405   5.304   3.512   5.908  0.2987  0.7360 -2.2608
  186POPC  C31521406   5.493   3.408   5.851  0.3532  0.3592  0.1465
  186POPC  H15X21407   5.474   3.308   5.893 -2.5983 -0.0556 -1.8928
  186POPC  H15Y21408   5.601   3.431   5.862  0.0758  0.7307  2.9696
  186POPC  C31621409   5.457   3.412   5.704  0.2839  0.9385  0.0630
  186POPC  H16X21410   5.501   3.497   5.648  1.1509 -0.6385 -1.7771
  186POPC  H16Y21411   5.350   3.397   5.676  0.4987  1.2790 -1.0030
  186POPC  H16Z21412   5.503   3.325   5.653 -1.4986  0.5204 -0.9070
  187POPC     N21413   2.791   2.986   2.587 -0.1695  0.2146  0.1089
  187POPC   C1221414   2.731   3.071   2.702 -0.3540  0.3665 -0.4811
  187POPC  H12A21415   2.652   3.015   2.749 -0.1335  0.1191 -0.4032
  187POPC  H12B21416   2.691   3.159   2.654  0.5784  1.0504 -0.0407
  187POPC   C1321417   2.902   3.066   2.512  0.2187  0.1964 -0.4157
  187POPC  H13A21418   2.858   3.122   2.430 -0.0381  2.6732  1.3089
  187POPC  H13B21419   2.958   3.131   2.578  1.0437  0.0009 -0.9148
  187POPC  H13C21420   2.980   3.005   2.471  0.5980 -0.6919  1.5308
  187POPC   C1421421   2.849   2.852   2.645  0.2673 -1.2380 -0.2736
  187POPC  H14A21422   2.943   2.869   2.695  1.2154 -1.6636 -1.8427
  187POPC  H14B21423   2.786   2.802   2.717 -0.0229  0.3029  0.6051
  187POPC  H14C21424   2.866   2.785   2.563 -0.5296  0.1908 -1.6555
  187POPC   C1521425   2.681   2.945   2.503 -0.0766  0.1213  0.6500
  187POPC  H15A21426   2.639   3.037   2.464 -0.5855  0.1259  1.1954
  187POPC  H15B21427   2.598   2.916   2.566 -0.2668  1.7944  1.2292
  187POPC  H15C21428   2.699   2.871   2.426  0.0232  0.1328  0.6624
  187POPC   C1121429   2.833   3.133   2.804 -0.2437  0.6797 -0.5964
  187POPC  H11A21430   2.899   3.049   2.834  1.3930  1.7795 -0.9925
  187POPC  H11B21431   2.771   3.167   2.890  0.5144 -2.4527  1.3775
  187POPC     P21432   3.024   3.299   2.802 -0.3696  0.1273 -0.1977
  187POPC   O1321433   3.064   3.420   2.730  0.0199 -0.1379  0.6735
  187POPC   O1421434   3.130   3.198   2.817 -0.5463  0.1025 -0.1298
  187POPC   O1221435   2.892   3.240   2.740 -0.8675  0.8177 -0.7211
  187POPC   O1121436   2.976   3.338   2.945 -0.0588  0.0212 -0.0527
  187POPC    C121437   2.910   3.464   2.968 -0.1907  0.6640 -0.2307
  187POPC    HA21438   2.814   3.439   3.019 -0.8477 -0.2433 -1.8294
  187POPC    HB21439   2.867   3.516   2.879 -1.7511 -1.0182 -0.5094
  187POPC    C221440   2.985   3.568   3.053 -0.1667  0.2191 -0.3411
  187POPC    HS21441   3.087   3.593   3.017 -0.1570 -0.4221 -0.7834
  187POPC   O2121442   3.007   3.529   3.190 -0.6182 -0.6653 -0.0407
  187POPC   C2121443   3.120   3.466   3.221 -0.1264 -1.2153  0.5422
  187POPC   O2221444   3.211   3.443   3.143 -0.0377  0.1272  0.5062
  187POPC   C2221445   3.126   3.433   3.367  0.4256 -0.0465  0.1993
  187POPC   H2R21446   3.220   3.483   3.397 -0.3590  3.0371 -1.9915
  187POPC   H2S21447   3.121   3.322   3.378 -0.0118 -0.1646 -1.0328
  187POPC    C321448   2.919   3.709   3.057  0.2019  0.0473  0.0064
  187POPC    HX21449   2.904   3.757   2.959 -1.0055  1.8569  1.0285
  187POPC    HY21450   3.000   3.770   3.103  2.3816 -3.5223  1.3956
  187POPC   O3121451   2.802   3.718   3.137  0.0374  0.7052 -0.0850
  187POPC   C3121452   2.688   3.714   3.069 -0.1649 -0.3364  0.2829
  187POPC   O3221453   2.679   3.688   2.947  0.0171  0.5437  0.0544
  187POPC   C3221454   2.573   3.735   3.170 -0.1010  0.1443  0.2392
  187POPC   H2X21455   2.481   3.714   3.110  1.4995 -1.7075 -1.7286
  187POPC   H2Y21456   2.580   3.843   3.193  0.4691  0.1807 -0.0932
  187POPC   C2321457   3.008   3.482   3.448 -0.3784  0.3794 -0.2167
  187POPC   H3R21458   2.914   3.439   3.408 -1.0516 -0.8249  2.4204
  187POPC   H3S21459   2.994   3.591   3.432  1.0231  0.3207 -2.1929
  187POPC   C2421460   3.010   3.440   3.601 -0.6781  0.4965  0.1367
  187POPC   H4R21461   3.105   3.476   3.645  1.0754 -0.7913 -2.4085
  187POPC   H4S21462   3.007   3.331   3.620  1.6560  0.5695  1.1514
  187POPC   C2521463   2.886   3.499   3.680  0.0574  0.3822  0.0961
  187POPC   H5R21464   2.800   3.469   3.616 -0.4115  1.3401  0.2547
  187POPC   H5S21465   2.878   3.610   3.686 -0.4516  0.3888 -0.5655
  187POPC   C2621466   2.859   3.429   3.813 -0.0356 -0.1184  0.2594
  187POPC   H6R21467   2.863   3.319   3.797 -1.9357 -0.2527  0.5686
  187POPC   H6S21468   2.761   3.464   3.851  0.8299  1.6538  0.9890
  187POPC   C2721469   2.959   3.461   3.923  0.3072  0.2074 -0.6726
  187POPC   H7R21470   2.970   3.570   3.941  0.4936 -0.0392  0.7970
  187POPC   H7S21471   3.053   3.412   3.891  0.7506  1.2504 -1.0374
  187POPC   C2821472   2.927   3.407   4.067  0.2207 -0.1389  0.2311
  187POPC   H8R21473   2.963   3.302   4.070  2.5179  0.6354  1.5624
  187POPC   H8S21474   2.816   3.407   4.073  0.0859  2.4066 -0.9918
  187POPC   C2921475   2.982   3.479   4.187 -0.5121 -0.4186  0.5882
  187POPC   H9121476   3.086   3.514   4.178 -0.2349 -1.3140  0.2516
  187POPC  C21021477   2.916   3.508   4.302 -0.5122  0.6119 -0.1933
  187POPC  H10121478   2.971   3.564   4.380 -1.7174  2.0133 -0.2989
  187POPC  C21121479   2.780   3.458   4.355 -0.3144  0.4983  0.2456
  187POPC  H11R21480   2.746   3.381   4.282  0.8126  0.6137 -0.4324
  187POPC  H11S21481   2.701   3.536   4.360  0.4192  1.2171  0.9482
  187POPC  C21221482   2.784   3.390   4.497  1.0421  0.5511 -0.6033
  187POPC  H12R21483   2.850   3.301   4.503  0.0227 -0.1227  2.1361
  187POPC  H12S21484   2.684   3.351   4.525  1.7921 -1.4609 -0.5795
  187POPC  C21321485   2.848   3.469   4.603  0.4126  0.1968 -0.7926
  187POPC  H13R21486   2.819   3.576   4.590 -0.7996 -0.1371 -0.9400
  187POPC  H13S21487   2.958   3.478   4.587  0.7411  3.7923  2.1045
  187POPC  C21421488   2.814   3.442   4.750  0.3258  0.7144 -0.2107
  187POPC  H14R21489   2.705   3.462   4.761  0.6353  1.0470  2.8442
  187POPC  H14S21490   2.863   3.519   4.812 -2.0688  0.0460  2.7597
  187POPC  C21521491   2.861   3.304   4.803 -0.4751 -0.2726 -0.1345
  187POPC  H15R21492   2.971   3.311   4.796 -0.3071 -0.4585  1.6800
  187POPC  H15S21493   2.803   3.224   4.751 -2.0854  0.2941  0.6989
  187POPC  C21621494   2.836   3.286   4.953  0.5677 -0.5284  0.3232
  187POPC  H16R21495   2.725   3.290   4.964  0.6583  1.6836  0.9073
  187POPC  H16S21496   2.874   3.381   4.997  0.2355  0.0404 -0.5844
  187POPC  C21721497   2.893   3.152   5.002  0.5789  0.5223  0.4046
  187POPC  H17R21498   2.994   3.130   4.963 -0.1430  0.9675 -1.9383
  187POPC  H17S21499   2.822   3.077   4.960  1.4476  0.2370 -0.5788
  187POPC  C21821500   2.895   3.126   5.156  0.2178 -0.2455 -0.6782
  187POPC  H18R21501   2.936   3.025   5.174  0.3742  0.1071  1.1222
  187POPC  H18S21502   2.794   3.114   5.199  0.5910 -1.6850 -0.1486
  187POPC  H18T21503   2.949   3.210   5.205  4.2804 -2.5153 -0.8043
  187POPC   C3321504   2.584   3.636   3.282  0.6767  0.7853  0.0602
  187POPC   H3X21505   2.686   3.641   3.327  1.0152 -1.5177 -0.3329
  187POPC   H3Y21506   2.572   3.533   3.242  2.1652  1.3755 -2.0939
  187POPC   C3421507   2.481   3.663   3.391 -0.3048  0.1155  0.0833
  187POPC   H4X21508   2.373   3.648   3.370 -0.3478  0.8492 -0.2576
  187POPC   H4Y21509   2.479   3.771   3.419  0.3517 -0.0325  0.7422
  187POPC   C3521510   2.526   3.590   3.522 -0.5347  0.3294  0.5743
  187POPC   H5X21511   2.622   3.639   3.550  1.0442 -0.7779 -2.4691
  187POPC   H5Y21512   2.539   3.485   3.488  0.0450  0.8205 -0.7981
  187POPC   C3621513   2.433   3.602   3.641 -0.3999  0.2239 -0.0208
  187POPC   H6X21514   2.340   3.553   3.604 -0.9500  1.7788 -0.8200
  187POPC   H6Y21515   2.412   3.710   3.660  0.8778  0.8136 -1.7189
  187POPC   C3721516   2.492   3.536   3.767 -0.0637 -0.7811  0.6088
  187POPC   H7X21517   2.595   3.573   3.785  0.9261 -2.8136 -0.6347
  187POPC   H7Y21518   2.513   3.431   3.738  0.7892 -0.6484  0.7195
  187POPC   C3821519   2.420   3.554   3.895  0.1534  0.0360  0.1537
  187POPC   H8X21520   2.436   3.468   3.963  2.8665 -0.1395 -0.6187
  187POPC   H8Y21521   2.315   3.550   3.857  0.8284 -0.3031 -1.7596
  187POPC   C3921522   2.449   3.683   3.978  0.4809  0.0958  0.6341
  187POPC   H9X21523   2.455   3.772   3.911  0.7461 -0.8671 -0.6598
  187POPC   H9Y21524   2.550   3.691   4.024 -0.1573  3.4612  1.7058
  187POPC  C31021525   2.347   3.705   4.093  0.4810 -0.2296  0.0271
  187POPC  H10X21526   2.255   3.645   4.074  0.0777  0.5078 -0.3759
  187POPC  H10Y21527   2.330   3.815   4.089  0.7176 -0.1855  0.2015
  187POPC  C31121528   2.407   3.675   4.232 -0.2602  0.1216  0.8598
  187POPC  H11X21529   2.474   3.757   4.265 -1.2425  2.0627 -1.6465
  187POPC  H11Y21530   2.470   3.583   4.223 -2.0393 -0.9676 -2.5837
  187POPC  C31221531   2.300   3.653   4.340  0.2828  0.0958  0.0332
  187POPC  H12X21532   2.250   3.556   4.320  0.4013 -0.0168  0.2870
  187POPC  H12Y21533   2.224   3.728   4.308  0.1857 -0.4473 -1.0782
  187POPC  C31321534   2.365   3.662   4.474 -0.0665 -0.0486 -0.4241
  187POPC  H13X21535   2.383   3.768   4.504 -0.0943 -0.3556  0.7580
  187POPC  H13Y21536   2.463   3.610   4.467  0.3330  0.6806 -0.3553
  187POPC  C31421537   2.286   3.600   4.588 -0.5355  0.2700  0.4463
  187POPC  H14X21538   2.255   3.498   4.558  1.5238 -0.2646  0.0192
  187POPC  H14Y21539   2.197   3.663   4.610 -0.1094  1.1775 -0.3172
  187POPC  C31521540   2.377   3.586   4.719  0.4007 -0.7103  0.4880
  187POPC  H15X21541   2.462   3.522   4.688 -1.4654 -2.1027 -2.1530
  187POPC  H15Y21542   2.323   3.520   4.791  0.2691 -0.3026  0.7645
  187POPC  C31621543   2.425   3.716   4.782 -0.2933 -0.4634  0.5167
  187POPC  H16X21544   2.487   3.776   4.711  1.2871 -0.7687  1.5835
  187POPC  H16Y21545   2.481   3.700   4.877  0.8756 -1.9058 -0.3802
  187POPC  H16Z21546   2.338   3.778   4.811  0.0638  0.0230  0.5810
  188POPC     N21547   3.016   1.774   2.577  0.0823 -1.1485  1.0581
  188POPC   C1221548   3.052   1.894   2.666 -0.3084  0.5782  0.3326
  188POPC  H12A21549   2.962   1.954   2.670 -1.1719 -0.4696 -1.7588
  188POPC  H12B21550   3.122   1.958   2.614 -1.4545  1.4674 -0.1720
  188POPC   C1321551   3.121   1.678   2.584  0.1307  0.2430  0.7297
  188POPC  H13A21552   3.215   1.725   2.559 -1.6208  2.7294 -1.8244
  188POPC  H13B21553   3.140   1.656   2.688  0.7878 -0.1489  0.5345
  188POPC  H13C21554   3.091   1.599   2.518 -2.4370  1.3429  0.4483
  188POPC   C1421555   2.880   1.727   2.618 -0.4714 -0.1728 -0.2212
  188POPC  H14A21556   2.843   1.654   2.547  1.3920 -0.5745 -0.8440
  188POPC  H14B21557   2.894   1.681   2.714  0.6164 -0.8715 -0.6966
  188POPC  H14C21558   2.813   1.810   2.635  1.9380  2.2271 -1.5459
  188POPC   C1521559   3.001   1.840   2.440 -0.1050  0.8839  0.2892
  188POPC  H15A21560   2.916   1.905   2.445  0.2656  1.3620  0.4699
  188POPC  H15B21561   2.990   1.762   2.366 -1.7001  1.3562  0.0010
  188POPC  H15C21562   3.091   1.897   2.422  2.1651 -1.8427  1.9958
  188POPC   C1121563   3.120   1.864   2.805 -0.5272  0.6971  0.4218
  188POPC  H11A21564   3.079   1.774   2.856 -0.0953 -0.0975 -0.5942
  188POPC  H11B21565   3.096   1.958   2.859 -0.6549  0.0547  1.5198
  188POPC     P21566   3.353   1.972   2.762  0.2902 -0.1844 -0.1380
  188POPC   O1321567   3.309   2.041   2.631  0.2810  0.5663 -0.8025
  188POPC   O1421568   3.494   1.941   2.783  0.0606  0.4772  0.2952
  188POPC   O1221569   3.258   1.845   2.784 -0.0323  0.1132 -0.3743
  188POPC   O1121570   3.308   2.066   2.879  0.0765  0.3805 -0.4653
  188POPC    C121571   3.366   2.067   3.011 -0.1039  0.2455 -0.5006
  188POPC    HA21572   3.332   2.155   3.070  0.4965 -0.4716  0.9678
  188POPC    HB21573   3.476   2.069   3.004 -0.0852  1.6125 -0.1109
  188POPC    C221574   3.319   1.951   3.101 -0.7570  0.1423  0.2354
  188POPC    HS21575   3.339   1.858   3.044  2.0510 -0.2039  1.6335
  188POPC   O2121576   3.184   1.974   3.146 -0.0441 -0.6582  0.0904
  188POPC   C2121577   3.107   1.860   3.148  0.5086 -0.0986 -0.0491
  188POPC   O2221578   3.140   1.751   3.107 -0.1899  0.4331  0.1193
  188POPC   C2221579   2.978   1.904   3.218 -0.6202 -0.3265 -0.4183
  188POPC   H2R21580   2.899   1.934   3.146  0.9438  2.3310 -1.1465
  188POPC   H2S21581   3.001   1.995   3.277  3.3577  0.1800 -2.4467
  188POPC    C321582   3.406   1.945   3.237  0.6790  0.2509  0.4937
  188POPC    HX21583   3.371   2.036   3.290 -1.3141  0.4961 -1.0893
  188POPC    HY21584   3.511   1.955   3.203  0.5877 -3.5456 -1.4838
  188POPC   O3121585   3.379   1.821   3.295  0.0254  0.3984 -0.5488
  188POPC   C3121586   3.454   1.711   3.264 -0.3243 -0.3142  0.7326
  188POPC   O3221587   3.542   1.714   3.183 -0.9014 -0.2699 -0.6107
  188POPC   C3221588   3.396   1.587   3.333  1.1236 -0.1117 -0.5218
  188POPC   H2X21589   3.329   1.544   3.256  1.5463 -0.1642 -0.8622
  188POPC   H2Y21590   3.351   1.629   3.426  0.4719 -1.2344 -0.3085
  188POPC   C2321591   2.921   1.796   3.308 -0.3117  0.6878  0.2115
  188POPC   H3R21592   2.928   1.695   3.262 -0.3849  1.5329 -1.7185
  188POPC   H3S21593   2.812   1.811   3.318 -0.1669  2.0805 -0.1304
  188POPC   C2421594   2.979   1.792   3.448 -0.8695  0.0769 -0.9802
  188POPC   H4R21595   2.953   1.888   3.499 -0.2783  0.8701 -2.1223
  188POPC   H4S21596   3.090   1.786   3.449 -0.8520  0.2466  0.3026
  188POPC   C2521597   2.932   1.679   3.540  0.2064 -0.0186  0.0811
  188POPC   H5R21598   2.957   1.589   3.480  1.4777  1.4718 -1.7554
  188POPC   H5S21599   2.825   1.700   3.561 -0.2840  0.8660 -2.9039
  188POPC   C2621600   3.008   1.673   3.673 -0.3495  0.5090  0.4918
  188POPC   H6R21601   2.985   1.774   3.714 -3.4374  0.4069 -0.7828
  188POPC   H6S21602   3.117   1.666   3.653 -0.3582  0.1265  0.5782
  188POPC   C2721603   2.975   1.562   3.761 -0.3073  0.3475  0.0546
  188POPC   H7R21604   3.050   1.567   3.843  1.0039  1.3430 -1.1512
  188POPC   H7S21605   2.996   1.471   3.700 -1.6176 -1.6509  2.3774
  188POPC   C2821606   2.821   1.551   3.802  0.7317 -0.2180 -0.4082
  188POPC   H8R21607   2.753   1.553   3.714  0.7423 -0.7769 -0.4357
  188POPC   H8S21608   2.805   1.647   3.855 -1.3346  0.0729 -1.4638
  188POPC   C2921609   2.796   1.427   3.887 -0.1942 -0.3545 -0.2201
  188POPC   H9121610   2.819   1.329   3.843 -0.5114 -1.9930  2.9378
  188POPC  C21021611   2.759   1.422   4.021  0.2701 -0.8630  0.0687
  188POPC  H10121612   2.751   1.321   4.063  3.2168 -2.0963 -2.0002
  188POPC  C21121613   2.737   1.544   4.111  0.1211 -0.0606 -0.9498
  188POPC  H11R21614   2.644   1.529   4.170  0.6813  0.6625  0.1375
  188POPC  H11S21615   2.722   1.637   4.052 -1.8242  0.0208 -0.4086
  188POPC  C21221616   2.864   1.558   4.195 -0.0967  1.0985 -0.1319
  188POPC  H12R21617   2.949   1.578   4.127 -0.8825  2.7054 -0.7030
  188POPC  H12S21618   2.868   1.461   4.250 -3.9694  1.1198  0.4664
  188POPC  C21321619   2.868   1.667   4.293  0.3605 -0.2041 -0.3264
  188POPC  H13R21620   2.787   1.640   4.364  2.1074  0.4076  1.9866
  188POPC  H13S21621   2.834   1.765   4.253  0.2980  1.1118  2.7351
  188POPC  C21421622   3.002   1.668   4.371  0.2093 -0.1356 -0.3440
  188POPC  H14R21623   3.074   1.721   4.305 -1.1642 -0.3511 -2.1050
  188POPC  H14S21624   3.037   1.564   4.387 -0.5043 -0.6020 -1.6798
  188POPC  C21521625   2.986   1.740   4.507 -0.2440 -0.0039 -1.0912
  188POPC  H15R21626   2.943   1.656   4.565 -2.2151  0.2199 -2.1456
  188POPC  H15S21627   2.918   1.826   4.494  1.1950  1.4507  0.5895
  188POPC  C21621628   3.123   1.792   4.567  0.8854  0.9715 -0.0544
  188POPC  H16R21629   3.160   1.880   4.511  0.3477  1.3133  0.1178
  188POPC  H16S21630   3.200   1.712   4.566  1.2629  1.3082  0.7454
  188POPC  C21721631   3.115   1.836   4.714  0.5932  0.2639  0.2574
  188POPC  H17R21632   3.012   1.863   4.744 -0.6088 -2.9331 -0.6263
  188POPC  H17S21633   3.175   1.929   4.725  1.0607  0.2601 -1.8710
  188POPC  C21821634   3.156   1.712   4.794  0.1690  0.0619  0.6014
  188POPC  H18R21635   3.086   1.630   4.765  0.2297  0.8062 -1.8514
  188POPC  H18S21636   3.142   1.740   4.900  0.0764 -0.0587  0.6212
  188POPC  H18T21637   3.258   1.674   4.771 -0.7818 -2.0177 -0.5029
  188POPC   C3321638   3.503   1.475   3.373 -0.3528 -0.1098  0.1815
  188POPC   H3X21639   3.591   1.532   3.410 -0.5257  0.7178 -0.6323
  188POPC   H3Y21640   3.528   1.417   3.281 -1.8350 -0.1604 -0.2094
  188POPC   C3421641   3.468   1.388   3.493  0.6584  0.7549  0.1890
  188POPC   H4X21642   3.420   1.296   3.455 -0.6144  1.9451 -1.2150
  188POPC   H4Y21643   3.402   1.441   3.565  1.3093  1.5645  0.2143
  188POPC   C3521644   3.594   1.344   3.578  0.1711  0.0016 -0.3539
  188POPC   H5X21645   3.541   1.286   3.657  0.3676  0.2787 -0.0182
  188POPC   H5Y21646   3.638   1.436   3.621 -0.5902 -0.3408  1.2143
  188POPC   C3621647   3.695   1.248   3.499  0.4915 -0.4255  0.2638
  188POPC   H6X21648   3.740   1.305   3.415 -2.0538 -0.6381 -1.3615
  188POPC   H6Y21649   3.645   1.162   3.449  2.0769 -0.9792 -0.4538
  188POPC   C3721650   3.805   1.189   3.589 -0.9127 -0.3332  0.5359
  188POPC   H7X21651   3.862   1.266   3.645 -0.2777 -0.9871  0.7996
  188POPC   H7Y21652   3.886   1.144   3.528  0.3000 -1.1906  2.6837
  188POPC   C3821653   3.758   1.075   3.685  0.3617 -0.3411  0.1759
  188POPC   H8X21654   3.827   0.988   3.693  0.9714  0.2236  1.3346
  188POPC   H8Y21655   3.664   1.042   3.636  1.4260 -0.6288 -1.7607
  188POPC   C3921656   3.751   1.120   3.832 -0.3960 -0.1880 -0.7442
  188POPC   H9X21657   3.701   1.219   3.831  0.1925  0.1080 -1.3614
  188POPC   H9Y21658   3.852   1.146   3.871 -0.4972 -2.3968  1.2068
  188POPC  C31021659   3.689   1.015   3.931  0.1639 -0.4806  0.2440
  188POPC  H10X21660   3.762   0.935   3.958  0.0366 -1.8918 -3.0480
  188POPC  H10Y21661   3.610   0.971   3.866  0.7665  0.1880 -0.9745
  188POPC  C31121662   3.610   1.086   4.046 -0.2557 -0.2390 -0.4015
  188POPC  H11X21663   3.545   1.004   4.082 -1.1659  0.0346 -1.3560
  188POPC  H11Y21664   3.539   1.160   4.003 -0.2096  2.7691  4.0739
  188POPC  C31221665   3.693   1.168   4.145 -0.5475 -0.3207 -0.8123
  188POPC  H12X21666   3.761   1.240   4.095  1.9804 -2.7833 -1.2249
  188POPC  H12Y21667   3.778   1.109   4.186  0.1926  0.7017 -0.8365
  188POPC  C31321668   3.609   1.219   4.267  0.0986 -0.1800 -0.6298
  188POPC  H13X21669   3.572   1.131   4.324  0.8899 -1.2213 -1.6616
  188POPC  H13Y21670   3.522   1.274   4.226 -0.4095 -2.0452 -2.1985
  188POPC  C31421671   3.688   1.311   4.358 -0.2706 -0.4014  0.3152
  188POPC  H14X21672   3.622   1.334   4.444 -0.8902 -0.3672 -0.1597
  188POPC  H14Y21673   3.699   1.405   4.300 -1.9877 -1.7867 -2.4826
  188POPC  C31521674   3.834   1.267   4.388  0.2201  0.0777 -0.1723
  188POPC  H15X21675   3.892   1.259   4.293  2.6654  0.6621  1.2109
  188POPC  H15Y21676   3.828   1.164   4.430  1.1302  1.2604  3.1159
  188POPC  C31621677   3.909   1.355   4.485 -0.1987 -0.3680  0.1961
  188POPC  H16X21678   4.015   1.322   4.489  0.8278  2.7919  2.0906
  188POPC  H16Y21679   3.864   1.339   4.585  0.9882  1.0240  0.9943
  188POPC  H16Z21680   3.898   1.460   4.449 -1.8402 -1.2942 -2.2965
  189SAPI   C1221681   4.923   1.859   7.551  0.7258  1.3024 -0.0125
  189SAPI    H221682   5.019   1.914   7.547 -1.1095  4.8727  0.7939
  189SAPI    O221683   4.945   1.733   7.606  0.0425 -0.5002  0.5594
  189SAPI   HO221684   5.040   1.727   7.621  0.1023 -1.1857 -0.0336
  189SAPI   C1321685   4.829   1.947   7.635 -0.7144 -0.1033  0.0490
  189SAPI    H321686   4.808   2.039   7.576  0.2101  1.7215  2.3841
  189SAPI    O321687   4.898   1.986   7.757  0.3561 -0.2808  0.1563
  189SAPI   HO321688   4.950   1.911   7.788  3.1802  0.6619 -1.8006
  189SAPI   C1421689   4.693   1.879   7.663  0.1678 -0.5820  0.4747
  189SAPI    H421690   4.716   1.801   7.739  0.0219  1.1106  2.3258
  189SAPI    O421691   4.604   1.968   7.726  0.2140 -0.4960 -0.0721
  189SAPI   HO421692   4.639   1.971   7.816 -0.0487  0.9945  0.0146
  189SAPI   C1521693   4.633   1.802   7.542  0.5377 -0.1398 -0.7251
  189SAPI    H521694   4.567   1.882   7.503  1.1197 -0.0507 -1.5556
  189SAPI    O521695   4.547   1.689   7.580  0.8307 -0.3090 -0.0238
  189SAPI   HO521696   4.531   1.645   7.497  1.7084  1.8272 -1.4046
  189SAPI   C1621697   4.726   1.767   7.424 -0.6441 -0.4529  0.3277
  189SAPI    H621698   4.758   1.662   7.441 -0.4631 -0.1387  2.0881
  189SAPI    O621699   4.653   1.779   7.304  0.1688  0.0702  0.5777
  189SAPI   HO621700   4.645   1.689   7.272 -1.8025  0.5715 -0.5313
  189SAPI   C1121701   4.855   1.840   7.417 -0.2459 -0.6538 -0.4999
  189SAPI    H121702   4.824   1.942   7.385 -1.2436 -0.7076  0.2776
  189SAPI     P21703   5.036   1.884   7.238 -0.2065  0.3716  0.2265
  189SAPI   O1321704   5.118   1.798   7.158 -0.1684  0.5740 -0.0298
  189SAPI   O1421705   5.120   1.975   7.321 -0.0498  0.5891 -0.5282
  189SAPI   O1221706   4.941   1.777   7.325 -0.1711  0.2994 -0.2050
  189SAPI   O1121707   4.935   1.969   7.153 -0.2138  0.1801  0.0718
  189SAPI    C121708   4.876   1.916   7.035 -0.1918  0.3965 -0.1695
  189SAPI    HA21709   4.829   1.818   7.061 -4.0818  2.0997  0.0294
  189SAPI    HB21710   4.790   1.981   7.009  0.3621  1.1937 -0.0343
  189SAPI    C221711   4.968   1.902   6.906  0.3657 -0.1906 -0.3822
  189SAPI    HS21712   5.070   1.890   6.947  0.4128 -0.3950 -0.5601
  189SAPI   O2121713   4.953   2.029   6.830 -0.0393  0.5838 -0.1149
  189SAPI   C2121714   5.055   2.060   6.756  0.4443 -0.7139 -0.0009
  189SAPI   O2221715   5.168   2.014   6.759  0.1363 -0.5687  0.1104
  189SAPI   C2221716   5.010   2.176   6.668 -0.0613 -0.0528 -0.3434
  189SAPI   H2R21717   4.972   2.141   6.570 -0.9611 -3.1697  0.9634
  189SAPI   H2S21718   4.928   2.228   6.722  0.0418 -2.2095  2.1310
  189SAPI    C321719   4.931   1.773   6.832 -0.1619 -0.0080 -1.0005
  189SAPI    HX21720   4.832   1.779   6.782 -0.3209  1.7725 -0.5460
  189SAPI    HY21721   4.943   1.688   6.903  0.9629  1.5651  0.7856
  189SAPI   O3121722   5.025   1.763   6.730 -0.3743 -0.1892 -0.3160
  189SAPI   C3121723   5.136   1.695   6.753  0.2668 -0.1592 -0.3984
  189SAPI   O3221724   5.170   1.644   6.860 -0.6434  0.2995  0.6538
  189SAPI   C3221725   5.213   1.695   6.624  0.1192  0.2295  0.5240
  189SAPI   H2X21726   5.308   1.638   6.637 -0.0211 -0.1386 -0.0111
  189SAPI   H2Y21727   5.225   1.802   6.596 -1.2007 -0.1495 -1.7499
  189SAPI   C2321728   5.126   2.279   6.644  0.4612 -0.6342  0.4930
  189SAPI   H3R21729   5.219   2.219   6.638 -0.2785 -1.6698 -1.3300
  189SAPI   H3S21730   5.150   2.349   6.727  1.5901  0.6070 -0.8413
  189SAPI   C2421731   5.104   2.383   6.525  0.1193 -0.4484 -0.6994
  189SAPI   H4R21732   5.180   2.464   6.527 -1.5386  1.1595 -0.0104
  189SAPI   H4S21733   5.023   2.442   6.571  0.5157 -1.1935  1.0394
  189SAPI   C2521734   5.096   2.333   6.387 -0.2766 -0.5199 -0.4763
  189SAPI   H5R21735   5.128   2.228   6.385 -1.0044 -0.7483 -0.6278
  189SAPI   C2621736   5.042   2.404   6.286  0.1475  0.1040  0.8041
  189SAPI   H6R21737   5.034   2.345   6.193  0.8737  0.5779  0.4360
  189SAPI   C2721738   4.984   2.541   6.291  0.4206  1.0577 -0.5862
  189SAPI   H7R21739   5.051   2.604   6.229  1.9043  0.4024  0.2775
  189SAPI   H7S21740   5.014   2.587   6.388  2.9518 -0.8632 -0.3379
  189SAPI   C2821741   4.837   2.538   6.253 -1.0542  0.1131 -0.4615
  189SAPI   H8R21742   4.764   2.502   6.326 -2.0372  0.1832 -1.3933
  189SAPI   C2921743   4.790   2.574   6.136 -0.1389  0.1833 -0.2555
  189SAPI   H9R21744   4.680   2.573   6.140 -0.1926  2.8872  2.8482
  189SAPI  C21021745   4.871   2.622   6.017  0.6972 -0.3106 -0.6177
  189SAPI  H10R21746   4.975   2.582   6.022  0.2719 -1.3183  0.7906
  189SAPI  H10S21747   4.884   2.732   6.024  1.1705 -0.3977  0.0147
  189SAPI  C21121748   4.800   2.591   5.886  0.6665  0.1638  0.2073
  189SAPI  H11R21749   4.690   2.597   5.894  0.7101 -0.4034  1.5209
  189SAPI  C21221750   4.856   2.564   5.766 -0.2837  0.2644  0.5129
  189SAPI  H12R21751   4.798   2.552   5.673  0.9331 -2.8678  0.0411
  189SAPI  C21321752   5.002   2.564   5.744  0.0890  0.4732 -0.3003
  189SAPI  H13R21753   5.061   2.588   5.835 -1.7802  2.1350  0.5469
  189SAPI  H13S21754   5.035   2.651   5.683 -2.6513  2.4245  0.7792
  189SAPI  C21421755   5.058   2.430   5.686 -1.2494 -0.1984 -0.4923
  189SAPI  H14R21756   5.066   2.352   5.762 -0.2388  1.4142  1.1477
  189SAPI  C21521757   5.083   2.419   5.554  0.2541  0.7098 -0.3509
  189SAPI  H15R21758   5.127   2.325   5.516  0.1860  1.2377 -1.8119
  189SAPI  C21621759   5.084   2.531   5.449  0.9833 -0.6300  0.2294
  189SAPI  H16R21760   5.189   2.548   5.416  0.9468  0.5899  0.7202
  189SAPI  H16S21761   5.044   2.629   5.480  3.1159  0.9092 -1.5531
  189SAPI  C21721762   5.008   2.494   5.322  0.8663  0.2647 -0.1429
  189SAPI  H17R21763   5.064   2.416   5.267 -0.2160 -1.0274  0.5303
  189SAPI  H17S21764   5.004   2.592   5.270  2.2928  1.4068  1.7467
  189SAPI  C21821765   4.869   2.444   5.351  0.1037 -0.0197 -0.2621
  189SAPI  H18R21766   4.842   2.502   5.442 -2.0228 -0.1817 -0.7555
  189SAPI  H18S21767   4.881   2.338   5.383 -2.3085 -0.3539 -0.3269
  189SAPI  C21921768   4.771   2.475   5.240 -0.5126 -0.3124 -0.5058
  189SAPI  H19R21769   4.810   2.534   5.154 -1.5499 -0.6762 -1.2476
  189SAPI  H19S21770   4.683   2.527   5.283  1.2978  2.9915 -0.4411
  189SAPI  C22021771   4.723   2.346   5.179  0.2145  0.2550 -0.6263
  189SAPI  H20R21772   4.647   2.373   5.103  1.0073  0.8393 -1.2327
  189SAPI  H20S21773   4.684   2.286   5.264 -0.9712 -0.0616 -1.3774
  189SAPI  H20T21774   4.811   2.286   5.147  0.6782  0.3993  0.3450
  189SAPI   C3321775   5.129   1.643   6.501  0.6032 -0.4890  0.3666
  189SAPI   H3X21776   5.030   1.695   6.500 -0.0115 -1.6304 -0.3065
  189SAPI   H3Y21777   5.092   1.538   6.500 -2.2823  0.4460 -0.2793
  189SAPI   C3421778   5.197   1.678   6.368 -0.3423 -0.1300 -0.1206
  189SAPI   H4X21779   5.279   1.605   6.353 -2.2262 -2.8280  1.7837
  189SAPI   H4Y21780   5.239   1.781   6.363  0.3771 -0.3881  0.4677
  189SAPI   C3521781   5.099   1.655   6.248 -0.0879  0.0425 -0.3766
  189SAPI   H5X21782   5.019   1.727   6.276 -2.6415 -2.1356 -1.7045
  189SAPI   H5Y21783   5.048   1.557   6.259  1.8527 -1.0144 -0.3110
  189SAPI   C3621784   5.175   1.661   6.117  0.4320 -0.6268 -0.4555
  189SAPI   H6X21785   5.246   1.576   6.110  0.8863 -0.2223 -0.8021
  189SAPI   H6Y21786   5.234   1.754   6.116  0.0114 -0.1957  2.7824
  189SAPI   C3721787   5.089   1.645   5.991  0.2082  1.1220  0.8076
  189SAPI   H7X21788   5.018   1.731   5.991  0.8497  1.6849  1.9932
  189SAPI   H7Y21789   5.040   1.545   5.992  1.0440  0.5550 -2.7060
  189SAPI   C3821790   5.174   1.639   5.859  0.2101 -0.5545 -0.6400
  189SAPI   H8X21791   5.225   1.540   5.864  2.4282  0.5349 -0.0710
  189SAPI   H8Y21792   5.250   1.720   5.867 -3.2536  2.8400  0.9844
  189SAPI   C3921793   5.094   1.658   5.734 -0.1495 -0.1653  0.2413
  189SAPI   H9X21794   5.161   1.671   5.646 -1.9439  0.8693 -1.0471
  189SAPI   H9Y21795   5.018   1.740   5.738 -0.1038 -0.1686  1.7701
  189SAPI  C31021796   5.000   1.540   5.703 -0.2083  0.0141  0.3200
  189SAPI  H10X21797   4.894   1.567   5.720 -0.9298 -0.8007 -2.3771
  189SAPI  H10Y21798   5.020   1.457   5.774 -0.0448 -0.4286 -0.2375
  189SAPI  C31121799   5.012   1.483   5.563  0.0287  0.5252  0.2480
  189SAPI  H11X21800   5.118   1.460   5.541 -0.0056  0.5776  0.0253
  189SAPI  H11Y21801   4.984   1.570   5.499 -0.8092  1.4002  1.7314
  189SAPI  C31221802   4.917   1.369   5.535  0.3319 -0.3197 -0.1000
  189SAPI  H12X21803   4.815   1.403   5.565  0.2938  0.2945 -0.8973
  189SAPI  H12Y21804   4.943   1.278   5.593  1.8208  0.1131 -0.0314
  189SAPI  C31321805   4.900   1.335   5.387  0.2583 -0.2032 -0.4880
  189SAPI  H13X21806   4.993   1.288   5.349  0.9737 -1.2379  2.2600
  189SAPI  H13Y21807   4.872   1.422   5.324 -2.6856  0.6851  1.8392
  189SAPI  C31421808   4.794   1.223   5.375 -0.0481 -0.2683 -0.4533
  189SAPI  H14X21809   4.708   1.246   5.442  1.1847  1.3359  0.6612
  189SAPI  H14Y21810   4.836   1.129   5.417  1.1697  0.5573  0.2420
  189SAPI  C31521811   4.740   1.207   5.229 -0.6309  0.6790  0.3052
  189SAPI  H15X21812   4.824   1.211   5.156 -1.5170 -2.6124 -1.1060
  189SAPI  H15Y21813   4.674   1.295   5.211 -0.1104  0.6365 -2.1449
  189SAPI  C31621814   4.681   1.064   5.210 -0.6513  0.0175  0.3337
  189SAPI  H16X21815   4.735   0.990   5.273  3.1430  0.3991 -2.1250
  189SAPI  H16Y21816   4.678   1.028   5.105  0.6583 -3.0703  1.2385
  189SAPI  C31721817   4.531   1.061   5.260  0.1205 -0.3173  0.0013
  189SAPI  H17X21818   4.481   1.150   5.215 -0.4823 -0.1310  0.9988
  189SAPI  H17Y21819   4.521   1.068   5.371  1.1412 -0.8858  0.1383
  189SAPI  C31821820   4.445   0.944   5.206 -0.5580  0.5731 -0.1906
  189SAPI  H18X21821   4.482   0.849   5.249 -2.1041  0.4599  0.9832
  189SAPI  H18Y21822   4.456   0.934   5.096 -1.3226 -0.7329 -0.1703
  189SAPI  H18Z21823   4.339   0.957   5.239 -0.7831  0.5749 -0.8982
  190SAPI   C1221824   5.801   6.501   7.055  0.4491 -0.5532  0.3115
  190SAPI    H221825   5.766   6.511   6.950 -0.9120 -4.5913  0.1830
  190SAPI    O221826   5.744   6.386   7.115  0.0098 -0.4649  0.1036
  190SAPI   HO221827   5.750   6.316   7.049 -1.0486 -0.1653 -0.3240
  190SAPI   C1321828   5.945   6.483   7.042 -0.1372 -0.5549 -0.2072
  190SAPI    H321829   5.981   6.584   7.011 -0.6823  0.2775  1.6966
  190SAPI    O321830   5.977   6.384   6.947 -0.6893  0.0602  0.8178
  190SAPI   HO321831   5.930   6.303   6.967 -1.6773  0.2119 -0.7822
  190SAPI   C1421832   6.018   6.458   7.181 -0.1588 -0.1928  0.0800
  190SAPI    H421833   6.010   6.351   7.209 -0.1281  0.2749  2.0087
  190SAPI    O421834   6.159   6.481   7.169 -0.4866 -0.1447  0.6513
  190SAPI   HO421835   6.212   6.404   7.189  1.5116  0.6670 -1.0564
  190SAPI   C1521836   5.957   6.541   7.295  0.4791  0.1988  0.4683
  190SAPI    H521837   6.018   6.634   7.299 -0.7381  1.0074  0.6171
  190SAPI    O521838   5.982   6.482   7.423  0.1119 -0.4170  0.6180
  190SAPI   HO521839   5.963   6.389   7.435  1.6885 -0.4037  4.7713
  190SAPI   C1621840   5.815   6.604   7.278 -0.1727  0.1707 -0.1470
  190SAPI    H621841   5.751   6.532   7.333  4.1976 -2.9000  1.3887
  190SAPI    O621842   5.794   6.725   7.354  0.4235 -0.4315  0.2797
  190SAPI   HO621843   5.868   6.779   7.326 -1.6374  1.6387 -1.5938
  190SAPI   C1121844   5.768   6.621   7.142  0.4188 -0.5914 -0.0722
  190SAPI    H121845   5.821   6.709   7.100  0.1344  0.2919  1.3555
  190SAPI     P21846   5.559   6.724   7.006  0.1030  0.1834 -0.1270
  190SAPI   O1321847   5.650   6.832   6.962  0.3080 -0.0460 -0.8412
  190SAPI   O1421848   5.432   6.770   7.057 -0.6550 -0.6016 -0.3089
  190SAPI   O1221849   5.626   6.639   7.130  0.8090  0.0633  0.5489
  190SAPI   O1121850   5.534   6.615   6.886  0.2196 -0.0585 -0.1671
  190SAPI    C121851   5.427   6.510   6.901  0.6338 -0.2155  0.5270
  190SAPI    HA21852   5.480   6.413   6.906  0.5620 -0.2755  0.1903
  190SAPI    HB21853   5.365   6.528   6.990 -1.8853 -1.0252 -0.9624
  190SAPI    C221854   5.322   6.508   6.787  0.0272 -0.6517  0.4686
  190SAPI    HS21855   5.260   6.416   6.789 -0.9893  0.0265  1.0284
  190SAPI   O2121856   5.383   6.531   6.651  0.2420 -0.8138 -0.2002
  190SAPI   C2121857   5.433   6.426   6.592  0.5441 -0.2109  0.2752
  190SAPI   O2221858   5.424   6.311   6.639  0.1705  0.3577  0.0478
  190SAPI   C2221859   5.455   6.466   6.445  0.4102 -0.1360  0.3759
  190SAPI   H2R21860   5.379   6.534   6.401 -0.1867 -0.7994  0.3675
  190SAPI   H2S21861   5.551   6.521   6.431 -0.1054  0.3463 -1.5163
  190SAPI    C321862   5.219   6.622   6.807  0.4245  0.1457 -0.5391
  190SAPI    HX21863   5.280   6.712   6.827  1.8931 -1.4305  2.7242
  190SAPI    HY21864   5.161   6.592   6.897  1.8158 -0.2326  0.2583
  190SAPI   O3121865   5.135   6.629   6.687 -0.7909 -0.3031 -1.2441
  190SAPI   C3121866   5.022   6.559   6.693 -0.1761 -0.5227 -0.2916
  190SAPI   O3221867   4.983   6.497   6.790 -0.2865  0.2678 -0.0922
  190SAPI   C3221868   4.949   6.564   6.556 -0.1482 -0.5380 -0.4131
  190SAPI   H2X21869   4.915   6.669   6.548 -2.0173 -0.9784  1.0317
  190SAPI   H2Y21870   4.864   6.493   6.565  0.8549 -1.7448 -0.1858
  190SAPI   C2321871   5.474   6.336   6.363 -0.5922 -0.8090 -0.0646
  190SAPI   H3R21872   5.536   6.269   6.427  1.9280 -0.3174 -1.8380
  190SAPI   H3S21873   5.534   6.353   6.271 -1.1873  0.1415 -0.2886
  190SAPI   C2421874   5.346   6.261   6.322 -0.5192 -0.3140 -0.5842
  190SAPI   H4R21875   5.286   6.225   6.409 -1.6789  2.5426 -0.1068
  190SAPI   H4S21876   5.378   6.166   6.273 -2.8891 -1.9534  0.8382
  190SAPI   C2521877   5.256   6.345   6.229 -0.6960 -0.3315  1.1406
  190SAPI   H5R21878   5.210   6.434   6.274 -0.7309 -1.1681  2.8333
  190SAPI   C2621879   5.248   6.324   6.094  0.3498  0.2104  0.6459
  190SAPI   H6R21880   5.191   6.394   6.032  2.1208  2.6553  1.6303
  190SAPI   C2721881   5.320   6.218   6.018  0.3501 -0.1327  0.7989
  190SAPI   H7R21882   5.261   6.187   5.928  0.9739  0.1062  0.3023
  190SAPI   H7S21883   5.344   6.128   6.078  0.5539 -1.1557 -0.7677
  190SAPI   C2821884   5.448   6.282   5.973 -0.1523  0.0615 -0.1119
  190SAPI   H8R21885   5.435   6.371   5.909 -0.0428  0.3570  0.2751
  190SAPI   C2921886   5.574   6.235   5.986 -0.3308  0.1522  0.3559
  190SAPI   H9R21887   5.659   6.294   5.949  0.0034  1.0785  2.4458
  190SAPI  C21021888   5.618   6.119   6.065  0.0695 -0.1294 -0.2977
  190SAPI  H10R21889   5.585   6.147   6.167 -0.8350  1.4105 -0.9687
  190SAPI  H10S21890   5.728   6.125   6.076 -0.0861  0.9004  0.8555
  190SAPI  C21121891   5.581   5.977   6.038 -0.1763  0.1991 -0.2886
  190SAPI  H11R21892   5.526   5.924   6.118 -0.0900 -2.3152 -1.7659
  190SAPI  C21221893   5.631   5.894   5.942  0.3748  0.5101  0.1226
  190SAPI  H12R21894   5.599   5.788   5.938  0.5926  0.4784 -1.2848
  190SAPI  C21321895   5.731   5.944   5.839  0.4934  0.4181 -0.5986
  190SAPI  H13R21896   5.806   5.868   5.809  0.6110  0.4783 -0.4632
  190SAPI  H13S21897   5.792   6.032   5.869 -2.3051  3.1539 -2.3158
  190SAPI  C21421898   5.642   5.983   5.715  0.0843  0.3220 -0.5518
  190SAPI  H14R21899   5.541   5.941   5.718 -0.5853  1.9211  0.1120
  190SAPI  C21521900   5.698   6.035   5.604  0.0036  0.3167  0.0224
  190SAPI  H15R21901   5.630   6.074   5.527  1.8446  0.8789 -1.3899
  190SAPI  C21621902   5.842   6.068   5.580  0.1843 -0.6051 -0.3232
  190SAPI  H16R21903   5.898   6.062   5.676  1.7249 -0.3173 -1.1740
  190SAPI  H16S21904   5.855   6.172   5.543 -1.9260 -0.9645 -2.3109
  190SAPI  C21721905   5.936   5.992   5.483 -0.1908  0.1517  0.5665
  190SAPI  H17R21906   5.946   5.886   5.517 -3.9189 -1.2606 -2.0366
  190SAPI  H17S21907   6.036   6.036   5.468  0.8132 -0.2517  4.8098
  190SAPI  C21821908   5.866   5.971   5.343  0.9084 -0.4870  0.2014
  190SAPI  H18R21909   5.780   5.902   5.362 -0.9240  1.5903 -0.1518
  190SAPI  H18S21910   5.932   5.928   5.265  1.7884 -0.0797  0.7042
  190SAPI  C21921911   5.814   6.101   5.283 -0.5819  0.0819  0.7144
  190SAPI  H19R21912   5.908   6.156   5.258  1.0534 -2.4979  0.8783
  190SAPI  H19S21913   5.759   6.164   5.357 -1.3118 -0.7270  0.8753
  190SAPI  C22021914   5.742   6.072   5.149 -0.1254 -0.3933  0.2255
  190SAPI  H20R21915   5.810   6.014   5.083  0.1973  0.7209 -0.4541
  190SAPI  H20S21916   5.707   6.162   5.093 -1.1718 -0.7728  0.2405
  190SAPI  H20T21917   5.654   6.010   5.176  2.2037 -3.7598  0.7131
  190SAPI   C3321918   5.020   6.515   6.435 -0.2297  0.2122 -0.0988
  190SAPI   H3X21919   5.064   6.417   6.461 -0.7420 -0.4990 -1.7715
  190SAPI   H3Y21920   5.101   6.587   6.412 -0.5935  0.5878 -0.2212
  190SAPI   C3421921   4.930   6.499   6.307 -0.3627 -0.4672  0.1258
  190SAPI   H4X21922   4.876   6.402   6.316  0.2709 -1.1309 -2.2710
  190SAPI   H4Y21923   4.998   6.489   6.219  2.3517 -1.1943  2.1889
  190SAPI   C3521924   4.836   6.620   6.279  0.3926 -0.1228  0.9274
  190SAPI   H5X21925   4.898   6.706   6.245  0.0868 -0.9488 -1.9456
  190SAPI   H5Y21926   4.777   6.653   6.367 -0.1862 -1.0264  0.8850
  190SAPI   C3621927   4.725   6.600   6.167 -0.1103 -0.4126  0.1679
  190SAPI   H6X21928   4.667   6.511   6.196  0.7613 -1.9834 -2.5475
  190SAPI   H6Y21929   4.770   6.587   6.066 -0.8674 -2.4916  0.0518
  190SAPI   C3721930   4.626   6.716   6.162  0.4928  0.2296  0.3219
  190SAPI   H7X21931   4.682   6.804   6.123  1.6088 -0.7139 -0.2862
  190SAPI   H7Y21932   4.584   6.744   6.261 -2.4680  1.9054 -1.2964
  190SAPI   C3821933   4.502   6.682   6.077  0.3796  0.6492 -0.4144
  190SAPI   H8X21934   4.431   6.767   6.085 -0.2494  0.0066  1.2601
  190SAPI   H8Y21935   4.460   6.590   6.122  1.2484 -0.4503 -1.7722
  190SAPI   C3921936   4.531   6.652   5.926 -0.6830 -0.1147 -0.1993
  190SAPI   H9X21937   4.624   6.591   5.926  0.8743  2.1176  0.5299
  190SAPI   H9Y21938   4.559   6.751   5.884  1.3876 -1.2099 -1.5826
  190SAPI  C31021939   4.408   6.598   5.845  0.4173  0.2655 -0.7180
  190SAPI  H10X21940   4.318   6.656   5.874  2.1832  2.5462  0.5500
  190SAPI  H10Y21941   4.394   6.495   5.883  0.0686  0.1597 -1.1236
  190SAPI  C31121942   4.429   6.597   5.696 -0.0949 -0.7306  0.5597
  190SAPI  H11X21943   4.337   6.552   5.654  1.0136 -1.2467 -1.4923
  190SAPI  H11Y21944   4.516   6.531   5.672 -0.7111 -1.2528 -0.2865
  190SAPI  C31221945   4.421   6.729   5.619  0.1199 -0.1521 -0.2375
  190SAPI  H12X21946   4.517   6.782   5.636 -0.9659  1.9996 -0.5381
  190SAPI  H12Y21947   4.338   6.793   5.656  0.0498 -0.2755 -0.1797
  190SAPI  C31321948   4.414   6.711   5.470  0.5401  0.8790  0.5255
  190SAPI  H13X21949   4.503   6.651   5.442  0.7199  1.2068  0.3850
  190SAPI  H13Y21950   4.442   6.809   5.425  0.6155  1.5569  1.9970
  190SAPI  C31421951   4.276   6.675   5.421 -0.6094 -0.0636 -0.2303
  190SAPI  H14X21952   4.199   6.740   5.467  0.0263 -0.7541  1.9463
  190SAPI  H14Y21953   4.251   6.570   5.450 -0.7248 -1.0275 -3.5004
  190SAPI  C31521954   4.263   6.687   5.271 -0.6607 -0.2736  0.0009
  190SAPI  H15X21955   4.289   6.597   5.213 -0.4372 -0.5198  0.4762
  190SAPI  H15Y21956   4.325   6.771   5.233 -2.4029  0.7094 -0.7815
  190SAPI  C31621957   4.118   6.728   5.243  0.0128 -0.2581  0.0754
  190SAPI  H16X21958   4.119   6.832   5.283 -3.8989 -1.1234  3.0231
  190SAPI  H16Y21959   4.050   6.674   5.313  1.3692  1.3808  2.8500
  190SAPI  C31721960   4.083   6.730   5.097 -0.6198  0.0208 -0.1855
  190SAPI  H17X21961   4.159   6.771   5.028 -0.1328  0.9709  0.9018
  190SAPI  H17Y21962   3.991   6.790   5.080 -0.8230  0.0087  0.7818
  190SAPI  C31821963   4.056   6.587   5.056  0.5479  0.6880 -0.2047
  190SAPI  H18X21964   4.140   6.518   5.075 -1.2484 -1.3611  0.7115
  190SAPI  H18Y21965   4.032   6.579   4.948 -0.7962  0.9868  0.0471
  190SAPI  H18Z21966   3.969   6.541   5.107  0.3274 -1.8413 -2.6453
  191SAPI   C1221967   2.653   6.755   2.633  0.4696  1.7777 -0.5081
  191SAPI    H221968   2.602   6.776   2.729  1.3869  2.8573 -0.2241
  191SAPI    O221969   2.559   6.677   2.552 -0.5612  0.4311 -0.9041
  191SAPI   HO221970   2.480   6.683   2.607 -1.1342  1.3392 -1.7991
  191SAPI   C1321971   2.687   6.885   2.573  0.0248 -0.3402  0.4196
  191SAPI    H321972   2.769   6.934   2.630 -0.2358  0.6420 -0.0245
  191SAPI    O321973   2.578   6.976   2.576 -0.0359  0.4661  0.2844
  191SAPI   HO321974   2.603   7.060   2.616  0.5901  0.2488  0.3610
  191SAPI   C1421975   2.745   6.865   2.431 -0.1964  0.0631  0.0434
  191SAPI    H421976   2.676   6.813   2.361 -0.4203  1.2466 -0.6323
  191SAPI    O421977   2.770   6.985   2.363 -0.2507  0.2499 -0.2512
  191SAPI   HO421978   2.851   7.025   2.395  2.0199 -2.4593 -2.1980
  191SAPI   C1521979   2.873   6.767   2.455 -0.0833 -0.3585 -0.0445
  191SAPI    H521980   2.944   6.844   2.493 -0.7545  1.6191 -2.5419
  191SAPI    O521981   2.930   6.716   2.332 -0.2507  0.1035 -0.8533
  191SAPI   HO521982   2.870   6.653   2.292  1.6793 -1.0043 -2.1497
  191SAPI   C1621983   2.875   6.665   2.565  0.2893  0.0924  0.4231
  191SAPI    H621984   2.855   6.570   2.511 -1.4710  1.0175 -0.6403
  191SAPI    O621985   3.003   6.655   2.630 -0.1774 -0.1934 -0.2830
  191SAPI   HO621986   3.002   6.593   2.703 -0.3868 -0.1898 -0.2836
  191SAPI   C1121987   2.778   6.677   2.680  0.5555  0.0690  0.6799
  191SAPI    H121988   2.816   6.750   2.755 -3.1631  0.8470  2.0578
  191SAPI     P21989   2.828   6.484   2.861 -0.3011  0.0088 -0.2843
  191SAPI   O1321990   2.968   6.521   2.848  0.2273 -0.8276  0.3700
  191SAPI   O1421991   2.795   6.340   2.864 -0.0672 -0.4222  0.2165
  191SAPI   O1221992   2.738   6.551   2.738  0.1484 -0.2287 -0.1794
  191SAPI   O1121993   2.768   6.548   2.993  0.5054 -1.3845  0.5768
  191SAPI    C121994   2.679   6.663   3.002  0.2338 -0.2682 -0.4263
  191SAPI    HA21995   2.726   6.750   2.951  2.3127 -2.1482 -1.9126
  191SAPI    HB21996   2.587   6.652   2.940 -0.5252  2.1189  0.1814
  191SAPI    C221997   2.643   6.690   3.148  0.0793  0.6574  0.5640
  191SAPI    HS21998   2.599   6.792   3.153 -0.0565  0.5983  0.5789
  191SAPI   O2121999   2.761   6.681   3.229 -0.7382  0.1277 -0.5433
  191SAPI   C2122000   2.853   6.783   3.214  0.8828 -0.1082 -0.8052
  191SAPI   O2222001   2.831   6.888   3.153 -0.6451  0.7428 -0.0226
  191SAPI   C2222002   2.984   6.754   3.285 -0.3996  0.6422 -0.3868
  191SAPI   H2R22003   2.976   6.644   3.299 -0.2943  0.5527 -1.0122
  191SAPI   H2S22004   3.070   6.776   3.219  0.5400 -2.1528 -0.2325
  191SAPI    C322005   2.529   6.590   3.199 -0.5131  0.2566  0.3884
  191SAPI    HX22006   2.559   6.493   3.155 -0.2744  0.9793 -1.1103
  191SAPI    HY22007   2.437   6.622   3.145 -0.0907 -1.2108 -1.2711
  191SAPI   O3122008   2.500   6.596   3.335 -0.0212  0.3968  0.1368
  191SAPI   C3122009   2.562   6.511   3.413 -0.3349  0.8801 -0.0117
  191SAPI   O3222010   2.621   6.411   3.377 -0.6559  0.2109  0.0485
  191SAPI   C3222011   2.541   6.543   3.559  0.4255  0.0644  0.9237
  191SAPI   H2X22012   2.437   6.578   3.581 -0.1327 -0.3738 -0.8675
  191SAPI   H2Y22013   2.612   6.626   3.579  0.4573  0.5981 -1.2344
  191SAPI   C2322014   3.010   6.830   3.420  0.9569  0.2834  0.4735
  191SAPI   H3R22015   3.008   6.940   3.404  0.2356  0.4583  1.6137
  191SAPI   H3S22016   3.108   6.815   3.470  0.9128  1.2555  0.8843
  191SAPI   C2422017   2.895   6.807   3.524 -0.6225 -0.4487  0.4481
  191SAPI   H4R22018   2.796   6.799   3.473 -0.6180  2.2553 -0.1371
  191SAPI   H4S22019   2.894   6.902   3.581  1.5602 -0.1633  0.0991
  191SAPI   C2522020   2.928   6.680   3.606  0.0750 -0.1811 -0.3765
  191SAPI   H5R22021   2.956   6.593   3.544  0.6097 -0.7094  0.5925
  191SAPI   C2622022   2.938   6.662   3.734 -0.2216  0.2856 -0.3917
  191SAPI   H6R22023   2.970   6.566   3.777 -1.3507 -0.5773 -1.4174
  191SAPI   C2722024   2.902   6.770   3.831 -0.0206  0.2024  0.7802
  191SAPI   H7R22025   2.791   6.778   3.825 -0.0254  0.4450  1.2058
  191SAPI   H7S22026   2.949   6.862   3.791 -2.3674  1.4615  0.7476
  191SAPI   C2822027   2.951   6.741   3.977 -0.2977  0.6864  0.3654
  191SAPI   H8R22028   3.056   6.773   3.978  0.1880 -0.6961 -1.2689
  191SAPI   C2922029   2.893   6.682   4.082  0.2470  0.3647  0.5458
  191SAPI   H9R22030   2.940   6.693   4.181  2.1504  1.2856 -0.4071
  191SAPI  C21022031   2.749   6.629   4.074  0.3333 -0.4476 -0.2815
  191SAPI  H10R22032   2.749   6.525   4.034  0.3113  0.0028 -1.4966
  191SAPI  H10S22033   2.683   6.688   4.007 -0.9398 -1.7179 -0.2040
  191SAPI  C21122034   2.687   6.623   4.207 -0.1885 -0.2294  0.5621
  191SAPI  H11R22035   2.654   6.718   4.253  0.9008  0.8547 -0.8169
  191SAPI  C21222036   2.689   6.515   4.287  0.2960  0.2075 -0.0770
  191SAPI  H12R22037   2.630   6.531   4.379 -2.0321  1.2085 -1.6542
  191SAPI  C21322038   2.753   6.375   4.265  0.1218 -0.3982 -0.0015
  191SAPI  H13R22039   2.858   6.391   4.297 -0.0916  1.2259 -0.0513
  191SAPI  H13S22040   2.772   6.350   4.159  2.4792 -2.1250  0.7346
  191SAPI  C21422041   2.669   6.272   4.330  0.2640 -0.1812 -0.1438
  191SAPI  H14R22042   2.586   6.241   4.264  0.6956  1.6877 -1.6632
  191SAPI  C21522043   2.699   6.215   4.447 -0.1781 -0.6851 -0.3087
  191SAPI  H15R22044   2.638   6.129   4.481 -0.6162 -0.7794 -1.3161
  191SAPI  C21622045   2.825   6.240   4.534 -0.5481  0.1901 -0.0723
  191SAPI  H16R22046   2.897   6.297   4.472  2.1034 -2.3854  0.4593
  191SAPI  H16S22047   2.872   6.142   4.556 -0.8450  0.3305  1.2514
  191SAPI  C21722048   2.787   6.323   4.653  0.5443 -0.3816  0.1387
  191SAPI  H17R22049   2.727   6.407   4.613  0.5039 -0.0782  0.8305
  191SAPI  H17S22050   2.878   6.370   4.695  1.6932 -0.5892 -1.9736
  191SAPI  C21822051   2.700   6.251   4.757 -0.3417 -0.5035 -0.3911
  191SAPI  H18R22052   2.743   6.154   4.791 -0.4175  0.3130  2.2338
  191SAPI  H18S22053   2.601   6.219   4.719 -0.5788 -0.5790  0.2701
  191SAPI  C21922054   2.693   6.321   4.891  0.4649  0.1814  0.4831
  191SAPI  H19R22055   2.668   6.428   4.875 -2.7802 -0.4652  0.5167
  191SAPI  H19S22056   2.789   6.323   4.947 -0.2301  0.3189  1.7240
  191SAPI  C22022057   2.608   6.251   4.990  0.7612 -0.2983 -0.1759
  191SAPI  H20R22058   2.618   6.303   5.088  1.6428  0.8028 -0.8324
  191SAPI  H20S22059   2.652   6.151   5.008 -0.3096 -0.7454  0.0653
  191SAPI  H20T22060   2.502   6.244   4.956  1.2153  0.7534 -1.9500
  191SAPI   C3322061   2.566   6.418   3.639 -0.2635  0.1914 -0.5236
  191SAPI   H3X22062   2.674   6.407   3.660 -0.2004 -0.4380 -1.1187
  191SAPI   H3Y22063   2.532   6.323   3.592 -2.5810  0.9004 -0.4089
  191SAPI   C3422064   2.506   6.440   3.779  0.0126 -0.4409 -0.5236
  191SAPI   H4X22065   2.395   6.438   3.785 -0.0316  0.9986 -0.5273
  191SAPI   H4Y22066   2.534   6.544   3.808  0.9677 -0.0554 -2.6317
  191SAPI   C3522067   2.557   6.345   3.888  0.2982 -0.2201  0.5259
  191SAPI   H5X22068   2.522   6.381   3.987  1.5258  0.5173  0.7103
  191SAPI   H5Y22069   2.667   6.340   3.875  0.1745 -2.5746 -0.0974
  191SAPI   C3622070   2.497   6.201   3.878 -0.6561 -0.1435  0.3645
  191SAPI   H6X22071   2.459   6.183   3.775 -0.8636  2.9635 -0.2114
  191SAPI   H6Y22072   2.426   6.184   3.961  2.3188 -0.2324  3.0894
  191SAPI   C3722073   2.609   6.100   3.894  0.5802 -1.0893  0.0828
  191SAPI   H7X22074   2.685   6.144   3.962  0.3914  1.7019 -1.3541
  191SAPI   H7Y22075   2.654   6.096   3.793  0.0241 -3.0449 -0.1163
  191SAPI   C3822076   2.558   5.962   3.943 -0.0986  0.1310  0.4508
  191SAPI   H8X22077   2.634   5.882   3.930 -0.2285  0.0084  0.4397
  191SAPI   H8Y22078   2.468   5.932   3.885 -0.5095  3.0708 -0.6150
  191SAPI   C3922079   2.525   5.947   4.086 -0.1432  0.1468 -0.6085
  191SAPI   H9X22080   2.457   6.027   4.123  0.3480  0.1986  0.2007
  191SAPI   H9Y22081   2.623   5.961   4.136 -0.3280 -1.8700  0.4544
  191SAPI  C31022082   2.463   5.812   4.133 -1.1712  0.4726  0.4706
  191SAPI  H10X22083   2.553   5.747   4.141 -0.3148  1.0141 -3.0159
  191SAPI  H10Y22084   2.398   5.763   4.057 -0.1704 -1.1982  0.6550
  191SAPI  C31122085   2.394   5.814   4.272  0.5633  0.0673 -0.1129
  191SAPI  H11X22086   2.344   5.720   4.303 -2.1097  1.8580  1.4759
  191SAPI  H11Y22087   2.300   5.874   4.262 -1.4278 -2.7806  0.2545
  191SAPI  C31222088   2.469   5.876   4.387 -0.3019 -0.0532 -0.8310
  191SAPI  H12X22089   2.496   5.982   4.368 -0.1407  0.4503  1.8148
  191SAPI  H12Y22090   2.565   5.821   4.397 -0.0031  0.5249 -0.5285
  191SAPI  C31322091   2.385   5.885   4.520 -0.2635  1.0250 -0.1368
  191SAPI  H13X22092   2.333   5.788   4.537  0.0288  1.3478  3.1955
  191SAPI  H13Y22093   2.301   5.951   4.490  0.9350  2.1867 -1.1239
  191SAPI  C31422094   2.453   5.932   4.643 -0.4240 -0.2217 -0.4528
  191SAPI  H14X22095   2.510   6.025   4.619 -0.5803  0.8263  2.7101
  191SAPI  H14Y22096   2.521   5.858   4.689  0.1282  0.9376  0.6773
  191SAPI  C31522097   2.351   5.973   4.754  0.4923  0.3208 -0.4877
  191SAPI  H15X22098   2.276   6.042   4.709 -1.0591 -1.1998 -0.3238
  191SAPI  H15Y22099   2.402   6.023   4.839  0.8546 -0.4132 -0.2641
  191SAPI  C31622100   2.267   5.856   4.817 -0.1923 -0.6271 -0.0994
  191SAPI  H16X22101   2.335   5.792   4.877 -0.6346 -1.2682 -0.2744
  191SAPI  H16Y22102   2.215   5.794   4.741  1.1872 -0.4339 -1.2583
  191SAPI  C31722103   2.151   5.903   4.904  0.2557  0.0458 -0.1660
  191SAPI  H17X22104   2.082   5.966   4.844 -2.4208 -0.1048  2.4986
  191SAPI  H17Y22105   2.175   5.970   4.989  1.8453 -1.9581  1.0626
  191SAPI  C31822106   2.086   5.775   4.960 -0.0072 -0.2364 -0.0650
  191SAPI  H18X22107   2.162   5.717   5.018 -2.4723 -2.1454  1.4523
  191SAPI  H18Y22108   2.063   5.705   4.876  1.7348 -2.6374  1.3031
  191SAPI  H18Z22109   2.001   5.796   5.029 -1.4636  0.6219 -2.0336
  192SAPI   C1222110   5.418   2.150   2.826  0.0086 -0.0785 -0.0104
  192SAPI    H222111   5.360   2.165   2.920 -0.8418 -0.1647 -0.5060
  192SAPI    O222112   5.324   2.166   2.715 -0.0127 -0.3172 -0.0482
  192SAPI   HO222113   5.237   2.141   2.747 -0.6020  2.4901  0.8263
  192SAPI   C1322114   5.519   2.264   2.827 -0.0177  0.4955 -0.6777
  192SAPI    H322115   5.583   2.246   2.917 -3.0377  1.2769  1.8270
  192SAPI    O322116   5.470   2.392   2.858  0.1831 -0.1002 -0.0421
  192SAPI   HO322117   5.400   2.405   2.793 -2.9394 -4.3866  1.9752
  192SAPI   C1422118   5.603   2.253   2.698 -0.0951  0.6798 -0.0333
  192SAPI    H422119   5.535   2.301   2.624  0.7409 -1.2268 -2.1401
  192SAPI    O422120   5.722   2.332   2.708  0.7352  0.3599 -0.4700
  192SAPI   HO422121   5.729   2.363   2.618  1.6731  0.3545 -0.4081
  192SAPI   C1522122   5.632   2.109   2.635 -0.0243 -0.7320  1.2410
  192SAPI    H522123   5.737   2.086   2.662  1.3583 -0.3295 -3.0058
  192SAPI    O522124   5.652   2.124   2.493 -0.2760 -0.4942  0.7969
  192SAPI   HO522125   5.683   2.043   2.451  0.9832  0.1204  0.4870
  192SAPI   C1622126   5.550   1.988   2.683 -0.4989 -0.2819 -0.0549
  192SAPI    H622127   5.467   1.964   2.612 -2.0794  0.6159  1.4067
  192SAPI    O622128   5.626   1.870   2.685  0.2394 -0.3105 -0.3404
  192SAPI   HO622129   5.613   1.825   2.768 -1.1744 -0.7231 -0.7607
  192SAPI   C1122130   5.487   2.012   2.823 -0.5824  1.2541  0.5036
  192SAPI    H122131   5.563   2.021   2.903  2.6581  1.8756 -2.3646
  192SAPI     P22132   5.430   1.789   2.960 -0.2552 -0.1940 -0.0773
  192SAPI   O1322133   5.552   1.728   2.905 -0.0054 -0.7014  0.0295
  192SAPI   O1422134   5.316   1.691   2.974 -0.5344  0.0549  0.4494
  192SAPI   O1222135   5.383   1.919   2.858  0.0674  0.2181  0.3598
  192SAPI   O1122136   5.466   1.857   3.094  0.5514 -0.0163  0.1040
  192SAPI    C122137   5.404   1.827   3.220  0.0351  0.1283 -0.4334
  192SAPI    HA22138   5.412   1.924   3.273 -1.8518  0.1364 -0.1173
  192SAPI    HB22139   5.295   1.806   3.212  0.4029 -1.1367 -3.4167
  192SAPI    C222140   5.470   1.705   3.297  0.4854  0.0410  0.3577
  192SAPI    HS22141   5.468   1.616   3.230  0.1818  1.1491 -1.1743
  192SAPI   O2122142   5.377   1.671   3.402  0.7203  0.6400  0.2411
  192SAPI   C2122143   5.410   1.558   3.465  0.4425  0.7730  0.7138
  192SAPI   O2222144   5.508   1.492   3.435 -0.4256 -0.1979 -0.1290
  192SAPI   C2222145   5.308   1.523   3.574  0.0847  0.5972  0.8934
  192SAPI   H2R22146   5.349   1.551   3.673  0.8586 -0.0078  0.7541
  192SAPI   H2S22147   5.212   1.577   3.559 -0.3680  0.0998  1.8874
  192SAPI    C322148   5.612   1.746   3.348 -0.2288  0.1455 -0.7092
  192SAPI    HX22149   5.673   1.770   3.258  1.9999 -0.1390  0.6431
  192SAPI    HY22150   5.669   1.664   3.397  1.2005  1.2464 -0.4566
  192SAPI   O3122151   5.607   1.863   3.431 -0.3479  0.1563  0.2414
  192SAPI   C3122152   5.656   1.861   3.555 -0.6306 -0.1546 -0.2027
  192SAPI   O3222153   5.679   1.764   3.619 -0.2762  0.6197 -0.0556
  192SAPI   C3222154   5.687   1.998   3.598 -0.4905 -0.8547 -1.0677
  192SAPI   H2X22155   5.598   2.061   3.617 -0.4653 -1.3005  0.7558
  192SAPI   H2Y22156   5.745   2.059   3.525  1.1814 -1.9620 -0.7259
  192SAPI   C2322157   5.259   1.377   3.566  0.0811 -0.0166 -0.3418
  192SAPI   H3R22158   5.237   1.339   3.464 -0.6383  1.2919 -0.6985
  192SAPI   H3S22159   5.164   1.364   3.622  0.3101 -0.7159 -0.1112
  192SAPI   C2422160   5.360   1.276   3.636 -0.0743 -0.0147  0.3246
  192SAPI   H4R22161   5.458   1.306   3.592  0.1328  0.3775  1.0355
  192SAPI   H4S22162   5.337   1.173   3.602  0.6454  0.0268 -0.3161
  192SAPI   C2522163   5.366   1.291   3.786  0.3083 -0.0905 -0.4749
  192SAPI   H5R22164   5.273   1.281   3.843  0.3622  1.2496 -0.1252
  192SAPI   C2622165   5.482   1.323   3.851  0.3337 -0.0853 -1.1509
  192SAPI   H6R22166   5.481   1.326   3.961 -1.0527 -1.4285 -1.1036
  192SAPI   C2722167   5.615   1.334   3.788 -0.0432 -0.0800 -0.1027
  192SAPI   H7R22168   5.647   1.432   3.746  1.6456 -0.1967  0.8224
  192SAPI   H7S22169   5.639   1.257   3.712 -0.2120  0.1144 -0.3560
  192SAPI   C2822170   5.723   1.325   3.890 -0.1023  0.4961  0.4325
  192SAPI   H8R22171   5.753   1.219   3.900  0.5078  0.4613 -1.3440
  192SAPI   C2922172   5.784   1.423   3.957  0.5547  0.0721 -0.7584
  192SAPI   H9R22173   5.868   1.393   4.020 -0.3727  0.4295  0.7065
  192SAPI  C21022174   5.756   1.571   3.946  0.2864 -0.5613  0.5201
  192SAPI  H10R22175   5.704   1.603   4.039  0.5359  2.7654 -0.3584
  192SAPI  H10S22176   5.679   1.593   3.869 -1.1746 -2.2906  1.4208
  192SAPI  C21122177   5.875   1.664   3.925 -0.0290  0.0009  0.0075
  192SAPI  H11R22178   5.888   1.687   3.819  1.6160 -0.2679  0.1255
  192SAPI  C21222179   5.943   1.733   4.017 -0.1821  1.1011  0.6261
  192SAPI  H12R22180   6.027   1.796   3.985  2.5367 -2.0223  1.0122
  192SAPI  C21322181   5.938   1.708   4.155 -1.0040  0.5115 -0.0426
  192SAPI  H13R22182   6.014   1.629   4.170 -0.5566  0.6394 -1.4611
  192SAPI  H13S22183   5.843   1.668   4.195 -1.2487  1.1771  0.0539
  192SAPI  C21422184   5.971   1.839   4.220 -0.2775  0.3922 -0.7922
  192SAPI  H14R22185   5.928   1.934   4.184 -3.2022 -0.1564  0.8761
  192SAPI  C21522186   6.036   1.850   4.340  0.7658 -0.3534  0.2101
  192SAPI  H15R22187   6.058   1.949   4.382  0.4704 -0.0413 -0.3656
  192SAPI  C21622188   6.090   1.745   4.435 -0.2225 -0.4918  0.8156
  192SAPI  H16R22189   6.194   1.782   4.449 -1.5946  5.1402 -1.1621
  192SAPI  H16S22190   6.098   1.640   4.399  4.6667 -0.4098  1.0118
  192SAPI  C21722191   6.008   1.743   4.568 -0.6938 -0.7619 -0.2301
  192SAPI  H17R22192   6.007   1.839   4.624  0.6588 -1.4052  0.9707
  192SAPI  H17S22193   6.059   1.676   4.641  0.7062  0.1944 -0.2824
  192SAPI  C21822194   5.861   1.695   4.557 -0.1447  0.1288  0.2602
  192SAPI  H18R22195   5.845   1.597   4.507  1.3325  0.3668 -0.7070
  192SAPI  H18S22196   5.815   1.762   4.481 -1.6727  0.6582  1.5733
  192SAPI  C21922197   5.776   1.708   4.683 -0.1022  0.0570 -1.0639
  192SAPI  H19R22198   5.788   1.807   4.732  0.2426 -0.7331  0.5235
  192SAPI  H19S22199   5.806   1.625   4.751 -0.8059  0.2163 -0.5493
  192SAPI  C22022200   5.632   1.685   4.644  0.8298 -0.2680  0.1643
  192SAPI  H20R22201   5.634   1.596   4.579 -0.0349 -1.3344  1.5351
  192SAPI  H20S22202   5.599   1.777   4.591  1.8765  1.4976  2.3737
  192SAPI  H20T22203   5.565   1.662   4.730 -1.2524  0.9132 -1.0563
  192SAPI   C3322204   5.775   1.991   3.732  0.1145 -0.1174 -0.2366
  192SAPI   H3X22205   5.862   1.925   3.717 -0.6297 -0.5619 -3.1768
  192SAPI   H3Y22206   5.716   1.940   3.811 -0.1908  0.6241  0.0296
  192SAPI   C3422207   5.823   2.128   3.791 -0.4181  0.8483 -0.3949
  192SAPI   H4X22208   5.729   2.186   3.805  0.4017  1.8674  1.1799
  192SAPI   H4Y22209   5.881   2.175   3.708  0.1723  1.9318  0.5960
  192SAPI   C3522210   5.903   2.130   3.923  0.6157 -0.3869  0.6011
  192SAPI   H5X22211   5.998   2.073   3.913 -0.8147 -2.6961 -0.8778
  192SAPI   H5Y22212   5.854   2.083   4.011  0.4687  0.9567  1.2655
  192SAPI   C3622213   5.939   2.267   3.956 -0.8219  0.4993  0.3106
  192SAPI   H6X22214   5.858   2.343   3.952  0.8158  2.3539  0.9319
  192SAPI   H6Y22215   6.006   2.298   3.872 -1.2608  1.2471  0.2246
  192SAPI   C3722216   6.005   2.284   4.098  0.2036 -0.5060  0.6295
  192SAPI   H7X22217   6.044   2.387   4.116 -3.0733  1.1490 -0.9568
  192SAPI   H7Y22218   6.094   2.217   4.094  0.8474  0.3878 -1.3864
  192SAPI   C3822219   5.935   2.239   4.223 -0.9096 -0.4422  0.6020
  192SAPI   H8X22220   5.924   2.128   4.226 -0.1724 -0.5583 -0.2710
  192SAPI   H8Y22221   5.835   2.286   4.220 -0.4623  0.5836  1.4300
  192SAPI   C3922222   6.014   2.277   4.348  0.5746  0.3269 -0.9940
  192SAPI   H9X22223   6.053   2.381   4.347  2.5453 -0.3410  0.2190
  192SAPI   H9Y22224   6.114   2.229   4.335 -0.0299 -0.6951 -2.0410
  192SAPI  C31022225   5.930   2.255   4.473  0.9546 -0.2859  0.0845
  192SAPI  H10X22226   5.827   2.287   4.445  1.0761 -0.1806 -0.2519
  192SAPI  H10Y22227   5.966   2.327   4.549 -0.6145 -1.6474  2.2308
  192SAPI  C31122228   5.925   2.122   4.551 -0.4000  0.0686  0.1234
  192SAPI  H11X22229   6.023   2.092   4.593  0.0073  1.5387  0.2741
  192SAPI  H11Y22230   5.885   2.042   4.486  1.0478 -1.1581  0.6874
  192SAPI  C31222231   5.821   2.125   4.666 -0.1032 -0.7039  0.4469
  192SAPI  H12X22232   5.811   2.019   4.699  0.9134 -0.0323  3.1371
  192SAPI  H12Y22233   5.727   2.162   4.620  0.7457 -0.7175 -1.4148
  192SAPI  C31322234   5.856   2.219   4.784  0.3031 -0.2722  0.1519
  192SAPI  H13X22235   5.827   2.323   4.756  1.8826 -0.4108 -2.2622
  192SAPI  H13Y22236   5.966   2.229   4.783  0.2081  1.0878  0.3548
  192SAPI  C31422237   5.792   2.161   4.915  0.1928 -0.2743 -0.5608
  192SAPI  H14X22238   5.864   2.083   4.949 -1.6610 -1.1632  1.6303
  192SAPI  H14Y22239   5.692   2.117   4.899  0.2327 -0.0841 -1.3652
  192SAPI  C31522240   5.778   2.265   5.023 -0.0349  0.1721  0.3535
  192SAPI  H15X22241   5.684   2.324   5.020  0.0286  0.2265 -0.8379
  192SAPI  H15Y22242   5.852   2.348   5.016  0.5244 -0.1566  1.8453
  192SAPI  C31622243   5.802   2.194   5.155 -0.3773  0.0148  1.0063
  192SAPI  H16X22244   5.892   2.128   5.155 -0.8810 -0.6815  0.6881
  192SAPI  H16Y22245   5.718   2.125   5.179 -1.0594 -0.7026 -2.7937
  192SAPI  C31722246   5.817   2.290   5.274 -0.6859  0.1646 -0.4126
  192SAPI  H17X22247   5.743   2.372   5.260  1.8163  2.4671 -0.9462
  192SAPI  H17Y22248   5.918   2.333   5.259  0.9459 -3.2893 -0.2631
  192SAPI  C31822249   5.814   2.225   5.416  0.3206  0.2779  0.0500
  192SAPI  H18X22250   5.816   2.303   5.495 -0.7648 -1.4394  1.8572
  192SAPI  H18Y22251   5.891   2.147   5.434  0.0572 -0.2432 -0.9659
  192SAPI  H18Z22252   5.717   2.171   5.422  0.7077 -0.4094  0.1961
  193SOD    SOD22253   0.760   0.380   2.447  0.2577  0.2751  0.5088
  194SOD    SOD22254   3.547   6.683   7.500 -0.4986  0.2552  0.4914
  195SOD    SOD22255   4.760   0.024   2.548  0.1653 -0.1513 -0.0683
  196SOD    SOD22256   1.767   0.393   8.164 -0.4906  0.0998  0.2640
  197SOD    SOD22257   0.014   4.890   1.869  0.2586 -0.2051  0.1588
  198SOD    SOD22258   1.189   5.061   8.666 -0.0985 -0.6977 -0.1839
  199SOD    SOD22259   1.579   6.099   8.613  0.2715  0.3691 -0.3550
  200SOD    SOD22260   2.045   3.804   2.230 -0.3287  0.1942  0.4799
  201SOD    SOD22261   4.424   2.720   1.667 -0.0302  0.2015 -0.3294
  202SOD    SOD22262   1.657   2.045   0.330 -0.0988  0.1163  0.4710
  203SOD    SOD22263   1.750   1.301   0.201  0.0458 -0.2915 -0.3478
  204SOD    SOD22264   5.845   6.521   2.366 -0.5308  0.0601  0.6534
  205SOD    SOD22265   4.520   0.317   2.639  0.2290 -0.0020 -0.1574
  206SOD    SOD22266   1.586   6.287   2.108  0.7337 -0.0736 -0.0965
  207SOD    SOD22267   5.303   5.165   8.148  0.1054  0.0871  0.3444
  208SOD    SOD22268   4.595   1.425   1.423  0.0041 -0.0759 -0.0136
  209SOD    SOD22269   4.617   4.794   0.378  0.2549  0.4178  0.3735
  210SOD    SOD22270   0.833   2.049   2.798 -0.0878 -0.0896 -0.1040
  211SOD    SOD22271   5.518   2.053   7.107  0.0816  0.1336  0.0955
  212SOD    SOD22272   2.242   3.646   2.820  0.4368 -0.3673 -0.5202
  213SOD    SOD22273   2.290   2.386   7.632  0.4399  0.3209  0.1552
  214SOD    SOD22274   0.100   1.289   1.940  0.4577  0.0625  0.7500
  215SOD    SOD22275   1.869   1.043   2.235  0.2911  0.0885 -0.3667
  216SOD    SOD22276   2.588   1.750   1.227  0.0715 -0.3234 -0.1735
  217SOD    SOD22277   3.499   6.716   1.726  0.7750 -0.0934 -0.1739
  218SOD    SOD22278   0.079   1.640   8.351 -0.2372 -0.0474  0.1783
  219SOD    SOD22279   6.062   4.190   2.748  0.0162 -0.4729  0.2060
  220SOD    SOD22280   4.666   2.882   7.744 -0.0187 -0.2722 -0.3781
  221SOD    SOD22281   0.412   3.080   7.934 -0.3437 -0.1311  0.0549
  222SOD    SOD22282   5.140   2.330   1.016 -0.0215  0.4980 -0.2024
  223SOD    SOD22283   3.917   2.591   0.179  0.3035  0.1877  0.0600
  224SOD    SOD22284   6.036   4.063   7.149 -0.4589  0.4778  0.1272
  225SOD    SOD22285   1.532   3.359   1.234  0.2834 -0.6240 -0.4230
  226SOD    SOD22286   5.662   1.300   3.049  0.3237  0.1153  0.0541
  227SOD    SOD22287   6.740   6.224   0.578 -0.1333  0.4395  0.2717
  228SOD    SOD22288   4.514   6.543   2.022 -0.5876  0.3277  0.1379
  229SOD    SOD22289   1.150   2.372   7.222 -0.7002  0.2742 -0.1802
  230SOD    SOD22290   1.263   2.085   2.447 -0.4110  0.8072 -0.6515
  231SOD    SOD22291   6.534   6.727   0.496 -0.1960 -0.1582 -0.0359
  232SOD    SOD22292   3.331   3.516   0.129  0.0296  0.3296  0.5538
  233SOD    SOD22293   6.169   0.542   8.536 -0.1661  0.3146  0.0997
  234CLA    CLA22294   2.086   2.074   1.348  0.6957  0.1662  0.2589
  235CLA    CLA22295   3.410   1.493   6.990 -0.1927 -0.0589  0.0525
  236CLA    CLA22296   1.574   6.676   0.264  0.3764 -0.6271  0.1725
  237CLA    CLA22297   6.136   2.053   1.144 -0.0846 -0.2009 -0.3624
  238CLA    CLA22298   4.195   2.438   0.896  0.1237  0.1516  0.2186
  239CLA    CLA22299   0.792   4.996   1.412 -0.0600 -0.3597  0.1723
  240CLA    CLA22300   5.903   3.535   8.725 -0.3040 -0.2855 -0.2281
  241CLA    CLA22301   3.826   5.178   2.141  0.5518 -0.1561 -0.0468
  242CLA    CLA22302   2.617   5.796   8.267  0.4055 -0.2184  0.1543
  243CLA    CLA22303   1.807   2.980   1.274 -0.6329 -0.3414  0.3379
  244CLA    CLA22304   5.937   0.647   0.250  0.0215 -0.2318 -0.1829
  245CLA    CLA22305   6.046   5.170   2.458 -0.1447  0.3209 -0.1402
  246CLA    CLA22306   3.085   4.476   1.075 -0.2027  0.1941  0.2863
  247CLA    CLA22307   3.576   6.217   0.557  0.1097  0.4755  0.2165
  248CLA    CLA22308   2.971   4.822   8.055  0.1152  0.6106  0.1920
  249CLA    CLA22309   1.158   0.535   1.988 -0.0466 -0.5302 -0.0235
  250CLA    CLA22310   0.115   5.841   0.810 -0.2132  0.2817  0.1316
  251TIP3   OH222311   0.844   2.258   3.221 -0.1749  0.5519 -0.3318
  251TIP3    H122312   0.777   2.269   3.288 -0.4277 -0.5218 -0.3905
  251TIP3    H222313   0.925   2.288   3.262  0.0723 -1.9504  1.2123
  252TIP3   OH222314   3.163   5.076   1.794 -0.7313  0.3011 -0.0922
  252TIP3    H122315   3.152   5.128   1.874 -0.3066  0.2828 -0.0155
  252TIP3    H222316   3.258   5.066   1.786 -0.8039 -0.3987 -0.1437
  253TIP3   OH222317   6.015   6.398   0.871  0.0519  0.1691  0.3682
  253TIP3    H122318   6.017   6.364   0.960 -0.7621  2.2913  1.2481
  253TIP3    H222319   6.102   6.437   0.859  0.6534 -1.3215 -0.3012
  254TIP3   OH222320   3.106   0.114   1.311 -0.9693  0.3933 -0.1964
  254TIP3    H122321   3.011   0.108   1.297 -1.4939  4.1330  0.8536
  254TIP3    H222322   3.127   0.206   1.297  2.1396  0.1341  1.7633
  255TIP3   OH222323   0.671   0.314   1.423 -0.3490  0.2902  0.4271
  255TIP3    H122324   0.725   0.255   1.371 -0.5737  0.0322  0.4800
  255TIP3    H222325   0.733   0.360   1.479 -0.1171  0.4953  0.0082
  256TIP3   OH222326   0.897   4.088   1.368 -0.3173  0.0337 -0.5210
  256TIP3    H122327   0.909   4.155   1.301  1.7232 -0.6949 -0.9852
  256TIP3    H222328   0.970   4.101   1.428 -0.0789 -1.5082 -0.4254
  257TIP3   OH222329   3.670   6.293   2.459  0.3122  0.3116  0.1162
  257TIP3    H122330   3.647   6.386   2.457 -1.4690 -0.0859  0.2270
  257TIP3    H222331   3.737   6.284   2.391  2.8619  2.1798  2.1913
  258TIP3   OH222332   6.221   3.907   7.788 -0.6070  0.0487 -0.4915
  258TIP3    H122333   6.274   3.970   7.740 -0.6991  0.4367 -0.0885
  258TIP3    H222334   6.131   3.930   7.767 -0.6525  0.3019 -0.0341
  259TIP3   OH222335   5.816   6.343   7.668 -0.0176  0.0189  0.4619
  259TIP3    H122336   5.853   6.425   7.699  0.0207  0.0095  0.4402
  259TIP3    H222337   5.848   6.334   7.578 -0.4494  0.2456  0.2792
  260TIP3   OH222338   2.456   4.924   0.047 -0.5772  0.4644 -0.4264
  260TIP3    H122339   2.448   4.993  -0.019 -0.8138  0.6048 -0.2551
  260TIP3    H222340   2.366   4.894   0.061 -0.2981 -1.1593 -1.8372
  261TIP3   OH222341   3.912   0.256   1.674  0.1081 -0.2575 -0.0214
  261TIP3    H122342   3.951   0.217   1.595 -1.1118 -3.0524  0.6296
  261TIP3    H222343   3.987   0.281   1.727  0.9564  0.0940 -1.3183
  262TIP3   OH222344   0.571   6.282   1.428 -0.0640  0.4216  0.2703
  262TIP3    H122345   0.512   6.313   1.359 -1.4410  0.0116  1.2171
  262TIP3    H222346   0.569   6.352   1.494 -0.8697 -0.3476  1.0816
  263TIP3   OH222347   2.568   2.166   8.224  0.4945  0.1532  0.1111
  263TIP3    H122348   2.535   2.224   8.156 -1.3764 -1.3630 -0.3792
  263TIP3    H222349   2.518   2.189   8.302 -1.9617 -2.1457 -0.6308
  264TIP3   OH222350   4.360   4.843   7.767 -0.2234  0.2600 -0.0484
  264TIP3    H122351   4.357   4.748   7.753  1.7759 -0.0587  1.2057
  264TIP3    H222352   4.284   4.861   7.822  0.1586 -0.9082  0.9325
  265TIP3   OH222353   1.420   5.896   0.463 -0.4179  0.3623  0.3329
  265TIP3    H122354   1.373   5.822   0.425  0.5349  0.4757 -1.1387
  265TIP3    H222355   1.368   5.973   0.439  0.6839  0.5396 -1.7332
  266TIP3   OH222356   0.868   2.692   2.888  0.0842 -0.0977 -0.0414
  266TIP3    H122357   0.784   2.703   2.932 -0.6739  0.9407 -1.6290
  266TIP3    H222358   0.886   2.598   2.894 -2.4090 -0.7965 -1.6891
  267TIP3   OH222359   4.833   3.906   2.001  0.5841 -0.3361 -0.4157
  267TIP3    H122360   4.826   3.824   2.050  0.0456 -1.8200 -2.7645
  267TIP3    H222361   4.927   3.915   1.983  0.7649  0.1412  0.7359
  268TIP3   OH222362   4.891   0.425   2.318 -0.1437 -0.4041  0.0220
  268TIP3    H122363   4.929   0.462   2.398  1.8357  0.1969 -1.1263
  268TIP3    H222364   4.798   0.417   2.337  0.3503 -0.7722  2.5590
  269TIP3   OH222365   1.275   5.351   2.344 -0.5352  0.1178  0.4219
  269TIP3    H122366   1.334   5.361   2.419  1.7795 -1.7553 -0.9902
  269TIP3    H222367   1.187   5.354   2.382  0.4450  1.6068  2.8378
  270TIP3   OH222368   4.851   2.126   0.066  0.3299 -0.5001 -0.4747
  270TIP3    H122369   4.890   2.206   0.102 -0.3953 -0.7669  0.9614
  270TIP3    H222370   4.920   2.089   0.011  0.6161  1.1964 -1.3367
  271TIP3   OH222371   1.352   1.525   1.069  0.6583 -0.0443  0.0513
  271TIP3    H122372   1.431   1.514   1.016  0.7176 -0.4072  0.2121
  271TIP3    H222373   1.379   1.580   1.143  1.0613 -1.1596  0.7483
  272TIP3   OH222374   3.669   3.629   1.062  0.1815  0.2870  0.0622
  272TIP3    H122375   3.592   3.647   1.116  0.7817  0.0103  1.0471
  272TIP3    H222376   3.659   3.538   1.035 -0.2560  0.5075 -0.5270
  273TIP3   OH222377   2.990   4.892   2.328  0.1615 -0.1940  0.4279
  273TIP3    H122378   2.968   4.854   2.244 -0.0186  0.1209  0.3273
  273TIP3    H222379   3.085   4.886   2.334  0.2532  0.4989 -0.1529
  274TIP3   OH222380   5.046   5.439   7.855  0.3938  0.3463  0.1621
  274TIP3    H122381   5.087   5.377   7.795 -0.2332 -1.9541  1.9287
  274TIP3    H222382   4.953   5.435   7.834  0.3530  0.6865  0.2793
  275TIP3   OH222383   3.295   3.361   8.358  0.2164  0.3895  0.1728
  275TIP3    H122384   3.355   3.290   8.337  0.0639 -0.0616  1.2206
  275TIP3    H222385   3.235   3.364   8.283  0.7499 -0.0031 -0.2811
  276TIP3   OH222386   2.430   4.768   2.689  0.3429  0.1606 -0.4583
  276TIP3    H122387   2.467   4.738   2.772 -0.7651  2.3781  0.9019
  276TIP3    H222388   2.359   4.706   2.671 -0.6276  0.6998  1.2674
  277TIP3   OH222389   6.590   6.544   8.736  0.1970  0.6675  0.1631
  277TIP3    H122390   6.518   6.490   8.703  1.0076 -0.1077 -0.3789
  277TIP3    H222391   6.623   6.496   8.812 -0.5158  1.5561  1.0730
  278TIP3   OH222392   3.513   0.399   7.988  0.0356 -0.7873  0.0806
  278TIP3    H122393   3.419   0.417   7.995 -0.0903  0.1212 -2.7383
  278TIP3    H222394   3.554   0.464   8.045 -0.9784 -0.2266  0.1976
  279TIP3   OH222395   6.475   1.180   1.015  0.0961 -0.1356  0.3357
  279TIP3    H122396   6.500   1.199   0.924 -2.2671  0.6737 -0.2094
  279TIP3    H222397   6.526   1.102   1.037  1.6547  0.3635 -1.2420
  280TIP3   OH222398   4.667   2.886   0.869 -0.1019  0.6036  0.0678
  280TIP3    H122399   4.746   2.898   0.815 -0.9062 -0.4611 -1.4105
  280TIP3    H222400   4.600   2.938   0.826 -0.1404  1.8715  1.5797
  281TIP3   OH222401   0.516   5.733   1.579 -0.6339  0.1093 -0.0022
  281TIP3    H122402   0.510   5.812   1.524  0.1656  0.0913 -0.1436
  281TIP3    H222403   0.454   5.672   1.540  0.5282 -0.2127 -1.4570
  282TIP3   OH222404   4.528   1.296   1.229 -0.4065  0.1465 -0.3367
  282TIP3    H122405   4.447   1.276   1.181  0.0223  2.2986 -2.1396
  282TIP3    H222406   4.597   1.285   1.164  0.2510  2.7457 -0.1862
  283TIP3   OH222407   5.837   2.840   0.090  0.2592 -0.4575 -0.3967
  283TIP3    H122408   5.773   2.891   0.041 -1.2971 -1.7927  0.1234
  283TIP3    H222409   5.920   2.854   0.045 -0.1562  2.2119 -0.4484
  284TIP3   OH222410   3.482   1.249   0.217  0.1876 -0.0458 -1.0104
  284TIP3    H122411   3.412   1.225   0.278 -0.1661  1.1994 -0.8999
  284TIP3    H222412   3.542   1.174   0.220 -0.2524 -0.3854  0.2224
  285TIP3   OH222413   3.305   3.821   1.420  0.0063  0.0692  0.0928
  285TIP3    H122414   3.352   3.883   1.364 -0.2228  0.7426  0.6322
  285TIP3    H222415   3.288   3.745   1.364  1.1207  0.0967 -0.3095
  286TIP3   OH222416   6.286   5.466   8.151 -0.1332 -0.2346 -0.0241
  286TIP3    H122417   6.294   5.431   8.063  0.4908 -0.0414 -0.0516
  286TIP3    H222418   6.357   5.424   8.200  0.7981  1.1471 -0.1261
  287TIP3   OH222419   2.205   0.940   0.353  0.5575 -0.3322  0.5688
  287TIP3    H122420   2.297   0.938   0.328 -0.0063  1.3124 -2.1907
  287TIP3    H222421   2.195   1.023   0.400  0.1927  0.5916 -1.0296
  288TIP3   OH222422   1.878   0.888   2.474  0.6154  0.2554  0.5061
  288TIP3    H122423   1.953   0.857   2.525  1.1781  2.2979  1.0184
  288TIP3    H222424   1.816   0.920   2.540 -0.7214 -1.3574  0.0839
  289TIP3   OH222425   3.818   4.230   1.475 -0.2824 -0.1680 -0.7429
  289TIP3    H122426   3.745   4.287   1.451 -0.2211 -0.7679 -2.5070
  289TIP3    H222427   3.831   4.173   1.399  1.3606 -0.7709 -0.0778
  290TIP3   OH222428   4.790   3.532   2.819 -0.8273  0.0971 -0.2231
  290TIP3    H122429   4.716   3.509   2.875  0.9443  0.5677  2.4939
  290TIP3    H222430   4.863   3.545   2.880  1.8085 -1.4122 -2.8252
  291TIP3   OH222431   5.738   4.344   7.748  0.3102  0.1812  0.4830
  291TIP3    H122432   5.799   4.332   7.820 -1.7993 -1.9039  2.0582
  291TIP3    H222433   5.747   4.264   7.695 -1.0080 -0.1765  0.7590
  292TIP3   OH222434   6.609   4.120   0.553 -0.1792 -0.3530  0.5943
  292TIP3    H122435   6.628   4.182   0.623 -0.0522  0.0334  0.2206
  292TIP3    H222436   6.688   4.067   0.546  0.8259  1.2527 -0.9599
  293TIP3   OH222437   3.239   4.428   1.410  0.6877 -0.2583 -0.0290
  293TIP3    H122438   3.188   4.442   1.331 -0.1103  2.3830  0.8251
  293TIP3    H222439   3.327   4.409   1.379 -0.2595 -2.7338 -1.5058
  294TIP3   OH222440   5.569   5.576   8.043 -0.2284 -0.1099 -0.3186
  294TIP3    H122441   5.482   5.577   8.004  0.1374 -0.9989 -1.1844
  294TIP3    H222442   5.593   5.484   8.048  1.2551  0.1789 -1.4643
  295TIP3   OH222443   2.299   0.047   7.061  0.3341  0.0621  0.3238
  295TIP3    H122444   2.308  -0.048   7.047  0.9657  0.1816 -0.1061
  295TIP3    H222445   2.205   0.060   7.074  0.0675 -0.4375 -0.9813
  296TIP3   OH222446   2.615   1.895   8.130 -0.4339  0.1400  0.3917
  296TIP3    H122447   2.560   1.837   8.184 -0.0058  0.1034  0.7883
  296TIP3    H222448   2.580   1.982   8.146 -1.0372  0.0069 -0.1530
  297TIP3   OH222449   4.003   6.425   2.047 -0.2125 -0.0879 -0.2493
  297TIP3    H122450   3.971   6.340   2.077 -0.0493  0.0029  0.1937
  297TIP3    H222451   3.949   6.446   1.971  1.3468 -1.7334 -1.9516
  298TIP3   OH222452   1.577   2.203   2.154  0.0658 -0.6805 -0.2025
  298TIP3    H122453   1.547   2.293   2.145 -1.4680 -1.1680 -0.3403
  298TIP3    H222454   1.665   2.203   2.119 -0.1729  0.6203 -0.8658
  299TIP3   OH222455   4.982   4.753   6.939  0.2690  0.3985 -0.3140
  299TIP3    H122456   4.996   4.830   6.885  0.8862 -0.4162 -1.3533
  299TIP3    H222457   4.889   4.757   6.962  0.5792  2.1393  0.7772
  300TIP3   OH222458   2.755   0.095   0.242  0.1230 -0.3221  0.3880
  300TIP3    H122459   2.663   0.116   0.223 -0.0895 -0.4317  1.2780
  300TIP3    H222460   2.760   0.000   0.232  0.2768 -0.2613 -0.1910
  301TIP3   OH222461   0.071   1.119   0.536  0.3816 -0.2882 -0.1758
  301TIP3    H122462   0.066   1.090   0.445  1.5517  2.8259 -1.3359
  301TIP3    H222463   0.005   1.066   0.581 -2.4565  0.1410 -3.4090
  302TIP3   OH222464   0.098   0.981   2.360  0.1800  0.4949 -0.1467
  302TIP3    H122465   0.115   1.060   2.412 -0.5254 -0.2277  1.2508
  302TIP3    H222466   0.022   0.941   2.402 -0.0407 -0.4471 -1.4042
  303TIP3   OH222467   1.478   6.566   1.784  0.0697  0.6944  0.1277
  303TIP3    H122468   1.418   6.498   1.752 -0.1764  0.4482  1.0867
  303TIP3    H222469   1.422   6.642   1.800  0.5447  1.6683 -2.3450
  304TIP3   OH222470   0.321   4.798   2.280  0.4237  0.4125  0.2097
  304TIP3    H122471   0.378   4.759   2.345 -1.5461 -1.1912  1.0634
  304TIP3    H222472   0.380   4.833   2.213  2.3645 -1.4051  0.9125
  305TIP3   OH222473   0.003   6.436   1.951  0.1025  0.0026 -0.3540
  305TIP3    H122474   0.041   6.516   1.915  1.2489 -0.1543  0.4570
  305TIP3    H222475   0.069   6.369   1.935 -0.2496 -0.4883  0.1996
  306TIP3   OH222476   4.349   5.820   6.992  0.1018 -0.0073 -0.4323
  306TIP3    H122477   4.427   5.861   6.956  0.2694 -0.0147 -0.0832
  306TIP3    H222478   4.343   5.736   6.947  1.1330 -0.6573  0.5875
  307TIP3   OH222479   3.069   0.960   0.963  0.7193 -0.7037  0.0769
  307TIP3    H122480   3.099   1.025   1.027  0.3707  2.2239 -2.4649
  307TIP3    H222481   3.111   0.986   0.881 -2.1085 -1.5757 -1.8083
  308TIP3   OH222482   0.940   0.446   7.624 -0.4746  0.2948  0.1941
  308TIP3    H122483   0.945   0.351   7.634 -3.7146 -0.0686 -0.4957
  308TIP3    H222484   0.941   0.460   7.530 -1.9737  0.6918  0.2031
  309TIP3   OH222485   6.679   6.024   1.556 -0.2084  0.5025 -0.3200
  309TIP3    H122486   6.644   6.004   1.643 -2.2248  0.2461 -1.1274
  309TIP3    H222487   6.709   5.940   1.523  0.5733  0.6020  0.1205
  310TIP3   OH222488   2.770   4.960   0.441 -0.1014 -0.3406  0.1092
  310TIP3    H122489   2.768   5.043   0.488 -0.1241 -0.2799 -0.0003
  310TIP3    H222490   2.688   4.958   0.391  0.1498 -0.1880 -0.3085
  311TIP3   OH222491   6.739   1.908   8.383  0.6151 -0.1177 -0.3948
  311TIP3    H122492   6.808   1.888   8.319  0.8156 -0.4952 -0.0658
  311TIP3    H222493   6.679   1.965   8.336  0.9424 -0.1130 -0.8149
  312TIP3   OH222494   4.279   5.677   7.303  0.5753  0.4222  0.1392
  312TIP3    H122495   4.258   5.644   7.390 -1.0761  2.6193  0.6463
  312TIP3    H222496   4.269   5.601   7.246 -1.9871 -0.2657  1.3589
  313TIP3   OH222497   3.284   5.249   6.989 -0.6815 -0.7460 -0.3135
  313TIP3    H122498   3.297   5.157   7.011  2.3958 -0.4292 -0.3529
  313TIP3    H222499   3.257   5.290   7.072 -0.1311 -1.3788  0.1853
  314TIP3   OH222500   3.184   5.725   0.714  0.2582  0.4958 -0.4040
  314TIP3    H122501   3.128   5.672   0.658  0.4518 -0.7837  0.5762
  314TIP3    H222502   3.239   5.775   0.653 -1.7615  1.6452 -1.3824
  315TIP3   OH222503   6.271   6.500   0.876 -0.3430  0.0769  0.0691
  315TIP3    H122504   6.335   6.482   0.944 -1.4742  0.4067  1.2686
  315TIP3    H222505   6.277   6.595   0.862 -1.8235  0.4531  1.5760
  316TIP3   OH222506   0.121   6.649   1.389 -0.0995 -0.1163 -0.1209
  316TIP3    H122507   0.036   6.691   1.376  0.1062 -0.3154 -2.5219
  316TIP3    H222508   0.180   6.721   1.411 -0.4022  0.4013 -0.9631
  317TIP3   OH222509   3.231   1.913   7.267  0.7154  0.5968  0.0708
  317TIP3    H122510   3.152   1.933   7.216 -0.4308 -0.5599  1.3104
  317TIP3    H222511   3.296   1.890   7.201 -0.4691 -0.0660 -0.9282
  318TIP3   OH222512   1.860   5.549   2.204  0.3862 -0.1769  0.0399
  318TIP3    H122513   1.849   5.552   2.109  1.0086  1.7918 -0.0207
  318TIP3    H222514   1.872   5.456   2.224  0.1333 -0.6438 -1.7835
  319TIP3   OH222515   4.069   4.197   8.724 -0.2608 -0.2847  0.6271
  319TIP3    H122516   4.099   4.133   8.660 -2.0714 -1.5874  0.9667
  319TIP3    H222517   4.006   4.148   8.778  0.6814  0.9197  2.9895
  320TIP3   OH222518   5.674   3.299   2.448 -0.2772 -0.4143 -0.4772
  320TIP3    H122519   5.604   3.258   2.397 -2.0075  0.7753  0.8252
  320TIP3    H222520   5.674   3.390   2.420  0.4733 -0.3163 -0.1721
  321TIP3   OH222521   4.595   3.879   1.834  0.7231 -0.2134  0.4592
  321TIP3    H122522   4.604   3.973   1.848  0.8961 -0.2920  0.9053
  321TIP3    H222523   4.685   3.846   1.841  0.7875 -0.2987 -0.5956
  322TIP3   OH222524   0.738   4.814   1.651 -0.4719  0.0674  0.4101
  322TIP3    H122525   0.650   4.822   1.688 -1.1120  0.1932 -1.0824
  322TIP3    H222526   0.747   4.891   1.595  0.7060  0.1969  0.7487
  323TIP3   OH222527   1.087   6.797   1.061  0.9386  0.3566 -0.7430
  323TIP3    H122528   1.118   6.871   1.113  0.7384  0.3844 -0.6605
  323TIP3    H222529   1.130   6.808   0.976  0.4443  0.9127 -0.9325
  324TIP3   OH222530   6.471   0.828   2.784 -0.1290  0.1646  0.0485
  324TIP3    H122531   6.526   0.786   2.849 -2.3341 -1.0596  1.2404
  324TIP3    H222532   6.438   0.907   2.828  0.5254  0.8075 -0.5936
  325TIP3   OH222533   4.699   4.135   1.822 -0.2920  0.0707  0.0264
  325TIP3    H122534   4.757   4.124   1.897 -2.1796  0.2990  1.5783
  325TIP3    H222535   4.702   4.229   1.803 -0.3683  0.1195  0.2619
  326TIP3   OH222536   5.337   2.909   1.492  0.0699 -0.3742  0.5499
  326TIP3    H122537   5.283   2.831   1.499  0.0339 -0.2926  1.2722
  326TIP3    H222538   5.421   2.884   1.529  0.3564 -0.3432 -0.0767
  327TIP3   OH222539   5.465   6.814   2.587  0.1416  0.4980 -0.0983
  327TIP3    H122540   5.375   6.809   2.620  0.4448 -3.0690  0.5917
  327TIP3    H222541   5.455   6.825   2.493 -1.1373 -1.3097 -0.2380
  328TIP3   OH222542   6.297   3.982   1.088  0.0799 -0.4067 -0.1390
  328TIP3    H122543   6.232   4.020   1.148  0.9171  0.2600  0.3625
  328TIP3    H222544   6.297   4.042   1.013  0.4811 -0.1260  0.0858
  329TIP3   OH222545   4.278   2.999   8.112  0.8094 -0.0854  0.1109
  329TIP3    H122546   4.211   2.952   8.163  0.6891  1.4235  1.4050
  329TIP3    H222547   4.334   2.930   8.076 -0.6245 -1.3098  0.1408
  330TIP3   OH222548   0.861   0.818   0.393  0.4802 -0.1728  0.2858
  330TIP3    H122549   0.945   0.863   0.408  0.8083 -0.8241  0.4352
  330TIP3    H222550   0.837   0.842   0.304  1.8129 -1.5340 -0.4971
  331TIP3   OH222551   6.506   4.435   0.017  0.5481 -0.3622 -0.3740
  331TIP3    H122552   6.472   4.508  -0.035  0.6240  0.9752  1.3660
  331TIP3    H222553   6.428   4.382   0.037  0.3449 -0.2589 -0.8683
  332TIP3   OH222554   0.551   3.308   1.209  0.0259 -0.2759  0.1404
  332TIP3    H122555   0.464   3.311   1.169  0.1297 -0.1891 -0.0789
  332TIP3    H222556   0.541   3.356   1.291  0.0334  0.3163 -0.2000
  333TIP3   OH222557   4.103   1.441   0.981  0.1812 -0.2407 -0.0975
  333TIP3    H122558   4.135   1.433   1.071 -1.1095 -0.6674  0.3463
  333TIP3    H222559   4.009   1.428   0.988 -0.1587  1.3134 -1.3223
  334TIP3   OH222560   5.439   3.982   0.707 -0.7314  0.2100 -0.1029
  334TIP3    H122561   5.363   3.934   0.675 -1.2198  1.9915 -1.7800
  334TIP3    H222562   5.412   4.073   0.707  1.1710  0.8218 -0.0735
  335TIP3   OH222563   5.237   1.118   0.361  0.5305 -0.0555  0.5174
  335TIP3    H122564   5.216   1.117   0.267  0.9488 -1.7507  0.4111
  335TIP3    H222565   5.327   1.150   0.365  0.0873  1.2644  0.4730
  336TIP3   OH222566   0.744   3.269   1.941 -0.0432  0.3066  0.4141
  336TIP3    H122567   0.759   3.214   1.864 -0.5233 -0.5467  0.9009
  336TIP3    H222568   0.829   3.273   1.985  0.1843  0.6299 -0.0552
  337TIP3   OH222569   4.623   0.109   0.040 -0.9097  0.3543 -0.1130
  337TIP3    H122570   4.609   0.202   0.021 -0.5116  0.3705 -0.3460
  337TIP3    H222571   4.650   0.072  -0.044 -1.4159 -0.0454 -0.1064
  338TIP3   OH222572   4.877   3.489   7.965 -0.4563  0.2080  0.1333
  338TIP3    H122573   4.877   3.423   8.035 -0.6670  0.7904  0.6861
  338TIP3    H222574   4.969   3.515   7.957 -0.3587 -0.2001 -0.1430
  339TIP3   OH222575   2.070   5.421   8.023 -0.2125  0.7468  0.0962
  339TIP3    H122576   2.121   5.491   8.064  3.5064 -1.4323 -0.3504
  339TIP3    H222577   2.104   5.414   7.935 -0.0367 -1.9398  0.2865
  340TIP3   OH222578   6.300   1.117   0.616 -0.6013 -0.0471 -0.0713
  340TIP3    H122579   6.248   1.062   0.675 -0.3558 -0.1587  0.0441
  340TIP3    H222580   6.371   1.060   0.588 -0.3210  0.2234  0.0807
  341TIP3   OH222581   0.748   0.127   8.729  0.3303 -0.0141 -0.3337
  341TIP3    H122582   0.709   0.134   8.642 -1.4508  1.7183  0.5293
  341TIP3    H222583   0.768   0.217   8.754  2.6732 -0.6547  0.2967
  342TIP3   OH222584   0.881   2.992   1.391 -0.0029 -0.0422  0.4492
  342TIP3    H122585   0.972   3.018   1.380  0.2824 -1.0567  0.2755
  342TIP3    H222586   0.837   3.069   1.427  0.8554  0.5522  0.2331
  343TIP3   OH222587   1.947   5.048   1.966  0.1613  0.2492 -0.0801
  343TIP3    H122588   1.908   5.035   1.879 -2.8849  2.5436  0.7878
  343TIP3    H222589   1.881   5.016   2.027  1.0653  1.2236  1.4746
  344TIP3   OH222590   0.153   2.478   1.191 -0.6082 -0.4277  0.1666
  344TIP3    H122591   0.120   2.559   1.230 -2.7100 -0.2484 -1.7832
  344TIP3    H222592   0.126   2.409   1.252  1.1903  0.2860  1.8364
  345TIP3   OH222593   6.590   1.419   1.500  0.0825  0.6557 -0.4023
  345TIP3    H122594   6.598   1.325   1.484  2.7583  0.2376  2.5011
  345TIP3    H222595   6.665   1.458   1.455  0.7733  0.9538  0.9715
  346TIP3   OH222596   1.376   6.430   7.208  0.1081  0.4214 -0.2853
  346TIP3    H122597   1.344   6.367   7.272 -0.6293  0.4498 -0.6134
  346TIP3    H222598   1.304   6.440   7.146  0.4871  1.0455 -0.6386
  347TIP3   OH222599   0.992   5.664   8.680 -0.1179  0.1841  0.1684
  347TIP3    H122600   0.905   5.678   8.719 -0.0426 -0.4643  0.5777
  347TIP3    H222601   0.975   5.609   8.604 -0.3455  1.9627 -1.1314
  348TIP3   OH222602   4.453   3.226   7.811 -0.4539 -0.0725  0.2201
  348TIP3    H122603   4.450   3.322   7.808  1.1093 -0.0166 -0.7631
  348TIP3    H222604   4.463   3.205   7.904  1.9008  0.8777  0.2525
  349TIP3   OH222605   1.426   6.720   7.683  0.3962  0.1145 -0.0463
  349TIP3    H122606   1.384   6.712   7.597  1.2860  1.6146 -0.6530
  349TIP3    H222607   1.440   6.814   7.694 -1.4613  0.1922  2.6363
  350TIP3   OH222608   0.558   0.091   7.895  0.5845  0.2689  0.3128
  350TIP3    H122609   0.652   0.102   7.902  0.7294 -1.2832  1.1339
  350TIP3    H222610   0.522   0.173   7.929  1.6121  0.7486  0.2901
  351TIP3   OH222611   1.265   2.814   1.813 -0.0348  0.0760  0.2926
  351TIP3    H122612   1.175   2.784   1.828 -0.4487 -1.0063 -3.2123
  351TIP3    H222613   1.259   2.909   1.812 -1.0543  0.0229  0.5306
  352TIP3   OH222614   3.287   3.071   0.419 -0.1544  0.3707  0.0604
  352TIP3    H122615   3.206   3.102   0.381  0.1437 -0.7525 -1.6279
  352TIP3    H222616   3.312   2.996   0.364  0.5447 -1.1124  2.2323
  353TIP3   OH222617   5.524   0.533   7.140  0.0222 -0.3619  0.5882
  353TIP3    H122618   5.444   0.581   7.162  0.3774 -0.2540  1.6999
  353TIP3    H222619   5.516   0.515   7.046 -1.4823 -0.6827  0.7485
  354TIP3   OH222620   2.657   0.132   0.564  0.2069  0.2162  0.5570
  354TIP3    H122621   2.580   0.102   0.516  1.5533 -0.5501 -1.1878
  354TIP3    H222622   2.667   0.224   0.539  0.3106  0.1030  0.1884
  355TIP3   OH222623   1.309   4.128   2.538 -0.1133 -0.0561  0.1567
  355TIP3    H122624   1.268   4.149   2.454  1.0001 -0.4852 -0.5257
  355TIP3    H222625   1.238   4.132   2.602 -1.2021 -0.7975 -0.9716
  356TIP3   OH222626   5.352   3.728   1.327  0.0240 -0.6307  0.4201
  356TIP3    H122627   5.318   3.814   1.302  0.2348 -1.2793 -2.5006
  356TIP3    H222628   5.436   3.747   1.369  0.1718  0.5968 -0.3770
  357TIP3   OH222629   0.341   0.196   7.739  0.0913  0.3354 -0.6060
  357TIP3    H122630   0.310   0.113   7.702  0.3188  0.9374 -2.2362
  357TIP3    H222631   0.436   0.190   7.733  0.2054 -0.1351  1.2592
  358TIP3   OH222632   2.239   2.227   1.006 -0.1409 -0.5147  0.1838
  358TIP3    H122633   2.234   2.301   0.945 -0.2970 -0.8205 -0.1788
  358TIP3    H222634   2.166   2.170   0.981 -1.0520 -0.0013  1.5225
  359TIP3   OH222635   2.213   6.122   3.247 -0.5865 -0.0377 -0.0788
  359TIP3    H122636   2.298   6.123   3.290 -0.5679 -0.4854 -0.1019
  359TIP3    H222637   2.189   6.215   3.238  1.4139  0.3487 -3.1017
  360TIP3   OH222638   4.453   1.499   8.449  0.2222  0.3664  0.3094
  360TIP3    H122639   4.458   1.594   8.442 -1.6015  0.4636 -0.0374
  360TIP3    H222640   4.477   1.480   8.540 -0.2752  1.2287  0.6315
  361TIP3   OH222641   5.732   0.252   6.873 -0.0887  0.2379  0.0772
  361TIP3    H122642   5.734   0.246   6.777 -0.8815  2.4227 -0.1137
  361TIP3    H222643   5.696   0.167   6.900  0.8667 -0.7357 -1.4745
  362TIP3   OH222644   0.249   3.603   0.479 -0.4248  0.0783  0.1699
  362TIP3    H122645   0.252   3.565   0.566 -1.5463 -1.6916 -0.5096
  362TIP3    H222646   0.183   3.672   0.485  0.5901  1.0070  1.0599
  363TIP3   OH222647   0.861   6.200   1.910  0.2926 -0.1787 -0.0122
  363TIP3    H122648   0.881   6.109   1.889  1.4883 -0.2257  1.1965
  363TIP3    H222649   0.824   6.197   1.998  0.7824  0.5329  0.2246
  364TIP3   OH222650   3.241   5.902   2.069 -0.2852  0.4338 -0.3308
  364TIP3    H122651   3.310   5.967   2.085 -0.7724  1.2706 -1.5335
  364TIP3    H222652   3.232   5.900   1.974  0.6464 -2.4149 -0.4404
  365TIP3   OH222653   4.999   0.890   1.536 -0.1746  0.6487  0.0768
  365TIP3    H122654   4.986   0.980   1.507 -2.9167 -0.0608 -1.2314
  365TIP3    H222655   4.991   0.838   1.457  1.5896 -0.7691  0.7839
  366TIP3   OH222656   0.017   2.713   7.683 -0.0092  0.2553 -0.2322
  366TIP3    H122657   0.012   2.635   7.627  1.2524 -0.3397  0.4356
  366TIP3    H222658  -0.070   2.719   7.722 -0.0625 -1.0095 -0.0867
  367TIP3   OH222659   1.607   5.145   8.136  0.0556 -0.3776  0.1890
  367TIP3    H122660   1.526   5.161   8.089  0.5190  1.7857  0.0646
  367TIP3    H222661   1.637   5.060   8.104 -0.8018  0.0012 -1.7205
  368TIP3   OH222662   6.058   0.771   3.021 -0.5593  0.0511  0.1203
  368TIP3    H122663   5.973   0.773   3.065 -1.1169  0.6278 -0.9577
  368TIP3    H222664   6.056   0.691   2.969  0.3327 -0.9434  1.5264
  369TIP3   OH222665   3.835   4.968   0.389 -0.3146  0.2132 -0.3616
  369TIP3    H122666   3.746   4.953   0.359 -0.3138 -0.5569  0.0038
  369TIP3    H222667   3.840   5.063   0.402 -1.9734  0.0399  2.2373
  370TIP3   OH222668   6.045   3.914   0.853  0.1277  0.0069 -0.1198
  370TIP3    H122669   5.994   3.960   0.786  0.1446  0.8789  0.4479
  370TIP3    H222670   6.132   3.955   0.849 -0.1193  0.6685  1.0099
  371TIP3   OH222671   2.562   2.016   0.923  0.3581 -0.1672  0.3261
  371TIP3    H122672   2.525   1.970   0.848 -0.4890  0.1589  0.5310
  371TIP3    H222673   2.524   1.972   0.999  2.7347 -1.8094  0.6748
  372TIP3   OH222674   3.739   2.047   1.900 -0.0174 -0.3260  0.3354
  372TIP3    H122675   3.727   1.965   1.853 -1.8377 -0.9532  1.7488
  372TIP3    H222676   3.769   2.021   1.987 -0.2172  0.5313  0.6712
  373TIP3   OH222677   3.954   2.088   1.523  0.2821 -0.2978  0.1605
  373TIP3    H122678   3.877   2.143   1.509  1.5397  2.1974  2.1293
  373TIP3    H222679   3.920   1.999   1.529 -2.0031  0.3063 -2.1925
  374TIP3   OH222680   5.120   1.918   1.179 -0.5342 -0.5422 -0.4618
  374TIP3    H122681   5.181   1.853   1.145  0.0906 -0.1585 -0.1146
  374TIP3    H222682   5.041   1.869   1.199  0.0272 -1.2593  0.0876
  375TIP3   OH222683   2.579   0.328   8.038 -0.1390 -0.3227 -0.0469
  375TIP3    H122684   2.552   0.333   8.129 -1.7639 -1.0319 -0.4574
  375TIP3    H222685   2.628   0.246   8.032 -1.1882 -0.9662 -0.0706
  376TIP3   OH222686   1.488   2.471   2.162  0.3379  0.6564 -0.1444
  376TIP3    H122687   1.484   2.521   2.244 -0.3514  0.5394 -0.1046
  376TIP3    H222688   1.505   2.537   2.094  1.5429  0.6820  0.1527
  377TIP3   OH222689   5.829   0.468   8.045 -0.1721 -1.1586 -0.2777
  377TIP3    H122690   5.775   0.390   8.055  1.1035 -1.8618  1.5814
  377TIP3    H222691   5.807   0.523   8.120  1.4043 -1.3197  0.3432
  378TIP3   OH222692   0.481   5.555   2.089 -0.3331  0.6229 -0.3171
  378TIP3    H122693   0.499   5.590   2.002  0.4348 -0.1542 -0.4781
  378TIP3    H222694   0.460   5.463   2.074  1.3513  0.0736  0.4556
  379TIP3   OH222695   6.687   1.039   8.277 -0.3430 -0.4087 -0.4398
  379TIP3    H122696   6.628   0.964   8.273 -3.0027  1.5876 -0.9862
  379TIP3    H222697   6.709   1.057   8.185 -1.5646  0.8088 -0.5161
  380TIP3   OH222698   5.014   4.089   7.911  0.1847 -0.0441 -0.2672
  380TIP3    H122699   4.938   4.091   7.853 -1.2530 -0.1111  1.5596
  380TIP3    H222700   5.078   4.146   7.867 -0.3768 -1.0002 -2.4863
  381TIP3   OH222701   4.193   1.940   7.803 -0.0182  0.1958  0.0665
  381TIP3    H122702   4.237   2.025   7.800  0.0083  0.2467 -4.0365
  381TIP3    H222703   4.226   1.893   7.726 -0.7015 -3.2532  1.6793
  382TIP3   OH222704   5.619   0.837   2.386 -0.0249  0.1361  0.0433
  382TIP3    H122705   5.640   0.749   2.419  0.6599  0.6485  1.0084
  382TIP3    H222706   5.678   0.848   2.311  0.1156 -0.0979  0.1176
  383TIP3   OH222707   5.780   6.624   3.201  0.9051  0.1903 -0.3047
  383TIP3    H122708   5.751   6.595   3.288  1.1541  0.2056 -0.2161
  383TIP3    H222709   5.876   6.625   3.207  0.9048  0.8213 -0.3756
  384TIP3   OH222710   1.566   6.508   3.405 -0.4647 -0.4927 -0.4069
  384TIP3    H122711   1.528   6.558   3.477  0.4121  1.3762 -1.1562
  384TIP3    H222712   1.582   6.421   3.441  0.6768  0.5837  1.9371
  385TIP3   OH222713   4.671   4.609   0.987  0.2308  0.1656  0.0054
  385TIP3    H122714   4.643   4.685   0.937  1.0171 -0.2464 -1.0912
  385TIP3    H222715   4.671   4.639   1.078 -1.3972  0.8636 -0.1896
  386TIP3   OH222716   0.009   1.075   7.200  0.3549 -0.7548  0.6807
  386TIP3    H122717   0.034   1.132   7.127  2.3708 -0.2151  1.7109
  386TIP3    H222718  -0.086   1.074   7.198  0.3387  0.0291 -1.3471
  387TIP3   OH222719   4.967   0.269   1.922 -0.4093  0.3844  0.3271
  387TIP3    H122720   4.942   0.237   2.009 -2.2381  0.2602 -0.2039
  387TIP3    H222721   4.895   0.327   1.896 -0.4792 -0.4805 -1.5677
  388TIP3   OH222722   4.304   5.762   8.066 -0.7148  0.5092 -0.4786
  388TIP3    H122723   4.231   5.700   8.061 -0.8342  0.7502 -2.9160
  388TIP3    H222724   4.348   5.755   7.981  2.7654 -0.3381  1.2029
  389TIP3   OH222725   5.071   5.618   1.794 -0.4323  0.6251  0.4016
  389TIP3    H122726   4.989   5.662   1.817 -0.1415  0.4003  1.9748
  389TIP3    H222727   5.069   5.536   1.845  0.1046 -0.0812 -0.6694
  390TIP3   OH222728   6.342   3.027   0.469 -0.0335  0.0885 -0.0017
  390TIP3    H122729   6.417   3.021   0.529  0.5072 -3.1790 -0.7494
  390TIP3    H222730   6.356   2.955   0.408 -3.3831 -0.1317 -0.7029
  391TIP3   OH222731   5.246   3.287   0.267  0.4301  0.1518  0.5989
  391TIP3    H122732   5.168   3.249   0.306  0.9247 -0.0527  1.4283
  391TIP3    H222733   5.226   3.296   0.174 -0.8947  0.9289  0.9377
  392TIP3   OH222734   3.749   1.926   7.481 -0.4304 -0.3196  0.4403
  392TIP3    H122735   3.826   1.926   7.538 -0.6169  0.6129  0.7044
  392TIP3    H222736   3.767   1.856   7.418  0.8688  0.2025  0.1872
  393TIP3   OH222737   4.276   5.994   1.822 -0.3468 -0.0536  0.2355
  393TIP3    H122738   4.279   5.912   1.772  1.1472 -0.3691  0.7735
  393TIP3    H222739   4.247   5.968   1.909 -2.6038  0.4427 -0.3165
  394TIP3   OH222740   5.206   1.721   0.970 -0.3165 -0.2089 -0.6857
  394TIP3    H122741   5.287   1.740   1.017  0.8409 -3.4472 -1.1008
  394TIP3    H222742   5.218   1.762   0.884 -0.1846  1.2947  0.0195
  395TIP3   OH222743   0.449   4.561   0.197  0.5255  0.1181  0.2028
  395TIP3    H122744   0.387   4.558   0.124  0.7806 -0.0267 -0.0103
  395TIP3    H222745   0.437   4.648   0.235  1.2614  0.6809 -0.7847
  396TIP3   OH222746   3.074   2.211   3.051  0.7801 -0.2646 -0.3470
  396TIP3    H122747   3.133   2.247   2.984  1.0817 -1.9400 -1.0230
  396TIP3    H222748   3.129   2.153   3.103  0.1259 -0.4334  0.1735
  397TIP3   OH222749   2.633   3.374   7.936 -0.1244 -0.3305 -0.1587
  397TIP3    H122750   2.707   3.314   7.932  0.6254  0.6078 -1.6753
  397TIP3    H222751   2.671   3.457   7.963 -0.5301  0.2319 -1.2269
  398TIP3   OH222752   1.557   0.261   0.913 -0.1611 -0.0527  0.1088
  398TIP3    H122753   1.574   0.318   0.839 -0.1941  1.2030  1.0455
  398TIP3    H222754   1.643   0.230   0.941  0.0271  0.9883  0.7124
  399TIP3   OH222755   6.580   6.634   8.470 -0.0512  0.0475 -0.5669
  399TIP3    H122756   6.603   6.602   8.557  1.4070 -0.8441 -1.2467
  399TIP3    H222757   6.487   6.614   8.460 -1.2106  3.1780  2.0374
  400TIP3   OH222758   3.917   3.285   7.770  0.5131  0.5541 -0.5516
  400TIP3    H122759   3.928   3.371   7.810 -0.0602  0.2360  0.3276
  400TIP3    H222760   4.004   3.265   7.734  0.9867  0.9813  0.3024
  401TIP3   OH222761   6.689   1.073   7.988  0.1705  0.4324 -0.0108
  401TIP3    H122762   6.782   1.094   7.977  0.6266 -0.5004  1.7055
  401TIP3    H222763   6.647   1.158   7.998  1.0008  0.8434  0.1490
  402TIP3   OH222764   1.202   6.509   1.913 -0.3696  0.0597 -0.2569
  402TIP3    H122765   1.148   6.444   1.959 -1.4117  1.3272  0.4091
  402TIP3    H222766   1.140   6.578   1.889  0.4278  0.1172 -2.3277
  403TIP3   OH222767   5.421   2.943   1.819 -0.3594 -0.4409  0.0435
  403TIP3    H122768   5.349   2.880   1.819 -4.1919  3.4356 -1.7789
  403TIP3    H222769   5.475   2.917   1.744 -1.5199 -1.7585 -0.3915
  404TIP3   OH222770   4.196   2.205   0.671  0.1319 -0.0152  0.1710
  404TIP3    H122771   4.191   2.280   0.730 -0.1135  0.2301 -0.1568
  404TIP3    H222772   4.222   2.132   0.727 -1.0153  0.0099  0.7718
  405TIP3   OH222773   0.882   0.445   1.531 -0.0620  0.4264  0.0359
  405TIP3    H122774   0.901   0.522   1.585  1.1941  0.7065 -0.7599
  405TIP3    H222775   0.922   0.372   1.578  0.3937  0.5548 -0.1526
  406TIP3   OH222776   4.960   4.860   1.217  0.2255 -0.0250  0.1390
  406TIP3    H122777   5.010   4.816   1.286 -0.4459 -0.6247  0.2586
  406TIP3    H222778   4.887   4.901   1.263  1.5945  2.4952  0.2389
  407TIP3   OH222779   0.721   6.117   1.631  0.6674 -0.2656  0.4557
  407TIP3    H122780   0.649   6.175   1.605  1.3460  0.3528 -0.0777
  407TIP3    H222781   0.678   6.035   1.653 -0.1787 -0.0377 -0.2696
  408TIP3   OH222782   2.401   5.468   1.715 -0.1076  0.2475  0.0126
  408TIP3    H122783   2.327   5.410   1.732 -0.5576  1.1820  1.3980
  408TIP3    H222784   2.477   5.410   1.708 -0.9634 -0.7685 -1.7871
  409TIP3   OH222785   5.515   0.763   0.955 -0.5561 -0.4710 -0.0861
  409TIP3    H122786   5.552   0.774   0.868 -0.6586  1.1369  0.0517
  409TIP3    H222787   5.536   0.844   1.001 -2.4891 -0.3211  0.6371
  410TIP3   OH222788   4.675   2.645   0.740 -0.4509 -0.0103  0.0787
  410TIP3    H122789   4.620   2.578   0.781  1.0097 -0.5070  1.3373
  410TIP3    H222790   4.658   2.725   0.789  0.8329 -0.4608  1.3284
  411TIP3   OH222791   4.921   6.222   7.949 -0.1467  0.7960 -0.1011
  411TIP3    H122792   4.830   6.227   7.922 -0.2863 -0.9283 -0.0686
  411TIP3    H222793   4.971   6.246   7.870 -0.6101 -1.2185 -1.0918
  412TIP3   OH222794   3.412   6.640   2.811 -0.1962  0.0427 -0.0223
  412TIP3    H122795   3.499   6.639   2.850 -0.5522  0.6484  0.8209
  412TIP3    H222796   3.367   6.712   2.855 -1.8069 -1.5487  1.1138
  413TIP3   OH222797   2.667   3.807   2.356  0.1737 -0.3617  0.3987
  413TIP3    H122798   2.705   3.851   2.432  0.1374  1.0408 -0.3646
  413TIP3    H222799   2.735   3.813   2.289 -1.2432  2.0813 -0.9543
  414TIP3   OH222800   1.708   0.441   1.971  0.6996  0.1106 -0.2240
  414TIP3    H122801   1.696   0.346   1.977  2.1242 -0.0606  0.2553
  414TIP3    H222802   1.626   0.477   2.005  0.4809 -0.9492  0.4416
  415TIP3   OH222803   4.697   1.237   2.157 -0.2543  0.2227  0.1438
  415TIP3    H122804   4.723   1.146   2.139 -1.0725  0.1945 -0.9751
  415TIP3    H222805   4.717   1.284   2.076  1.6067  1.4007  1.2277
  416TIP3   OH222806   5.100   1.382   7.742 -0.3540 -0.7929 -0.0668
  416TIP3    H122807   5.142   1.443   7.680 -0.3626 -1.6680 -0.9562
  416TIP3    H222808   5.078   1.437   7.817 -0.2657  0.2910 -0.7959
  417TIP3   OH222809   5.113   6.259   1.286  0.0619 -0.5172  0.1835
  417TIP3    H122810   5.107   6.333   1.346 -0.7835  0.9758 -1.6193
  417TIP3    H222811   5.088   6.183   1.338  0.2799  0.5683  1.9274
  418TIP3   OH222812   0.635   2.129   2.729 -0.0303 -0.1457  0.6288
  418TIP3    H122813   0.595   2.215   2.717  0.8164  0.0363 -1.1628
  418TIP3    H222814   0.564   2.067   2.713 -0.4023  0.1953  0.9263
  419TIP3   OH222815   0.394   1.961   7.743 -0.5119  0.1613  0.0603
  419TIP3    H122816   0.344   1.882   7.723  0.1359  0.4057 -3.1096
  419TIP3    H222817   0.473   1.929   7.787 -0.6418 -0.9007 -0.4451
  420TIP3   OH222818   2.340   4.886   3.020  0.5390  0.0698 -0.0311
  420TIP3    H122819   2.274   4.919   2.958 -0.2070  0.9239  1.1626
  420TIP3    H222820   2.365   4.801   2.986 -2.4734 -1.0790  0.3267
  421TIP3   OH222821   1.059   3.929   8.054  0.3827 -0.1453 -0.0621
  421TIP3    H122822   1.106   3.983   7.991 -2.3035  1.5424 -0.8064
  421TIP3    H222823   1.001   3.990   8.099 -1.4919 -2.1193  0.3703
  422TIP3   OH222824   0.686   1.979   7.848  0.0907  0.5607 -0.4862
  422TIP3    H122825   0.700   2.036   7.772 -1.2459  1.8319  0.1643
  422TIP3    H222826   0.680   2.040   7.922 -1.5499 -0.4009  0.2193
  423TIP3   OH222827   6.384   0.500   7.428 -0.0528 -0.0993  0.1692
  423TIP3    H122828   6.366   0.588   7.397 -0.9299 -0.4116 -0.2502
  423TIP3    H222829   6.480   0.495   7.434  0.0260  0.6904 -0.3528
  424TIP3   OH222830   6.035   1.510   7.740  0.3026  0.0822 -0.6598
  424TIP3    H122831   6.015   1.474   7.653 -1.3294  1.7092 -1.0111
  424TIP3    H222832   5.984   1.457   7.800  0.7337 -0.4742 -0.7763
  425TIP3   OH222833   0.457   1.384   1.321  0.0714 -0.1047  0.1901
  425TIP3    H122834   0.489   1.446   1.386  0.0999 -0.3023  0.3654
  425TIP3    H222835   0.405   1.321   1.371 -1.4855  0.8081 -0.2423
  426TIP3   OH222836   4.565   5.043   0.366 -0.1169 -0.0083 -0.6069
  426TIP3    H122837   4.600   5.085   0.288 -0.2952  3.1945  0.8914
  426TIP3    H222838   4.477   5.079   0.376 -0.5808 -1.3290  0.4082
  427TIP3   OH222839   4.245   4.825   7.253  0.1061  0.9077  0.2505
  427TIP3    H122840   4.244   4.867   7.339  0.0574 -0.0622  0.7397
  427TIP3    H222841   4.222   4.895   7.192 -2.2752  1.0922  1.2636
  428TIP3   OH222842   2.186   1.840   2.400 -0.2335  0.0621 -0.2587
  428TIP3    H122843   2.143   1.926   2.395  1.1360  0.9676  1.8950
  428TIP3    H222844   2.140   1.794   2.470 -0.0304 -0.3703 -0.4078
  429TIP3   OH222845   1.783   4.943   8.518  0.1774 -0.1847  0.1508
  429TIP3    H122846   1.724   4.889   8.569 -0.1042  0.9524  1.0658
  429TIP3    H222847   1.854   4.965   8.578 -0.7553  2.1679  0.4988
  430TIP3   OH222848   6.385   0.032   2.524 -0.2533 -0.1095  0.0263
  430TIP3    H122849   6.340   0.073   2.598  1.6746  1.1205  0.5907
  430TIP3    H222850   6.385   0.099   2.456 -0.2761 -0.5126 -0.3733
  431TIP3   OH222851   5.134   0.890   2.068  0.4201  0.0997 -0.1878
  431TIP3    H122852   5.164   0.883   2.159  0.9323  0.1540 -0.3520
  431TIP3    H222853   5.125   0.984   2.053  2.0864  0.1955 -0.7518
  432TIP3   OH222854   3.295   4.049   0.360  0.3678 -0.0429 -0.1018
  432TIP3    H122855   3.334   4.118   0.412  0.2485 -0.8146  1.0419
  432TIP3    H222856   3.349   3.972   0.378  0.6280 -0.2162 -1.5154
  433TIP3   OH222857   4.929   1.576   1.690 -0.1512  0.7671 -0.2912
  433TIP3    H122858   4.907   1.548   1.779  1.5038 -1.0919 -0.4097
  433TIP3    H222859   4.919   1.671   1.692  0.6430  0.8731  2.1549
  434TIP3   OH222860   2.486   6.719   8.321 -0.3641  0.8182 -0.1622
  434TIP3    H122861   2.418   6.729   8.255 -0.9896  1.7254  0.5855
  434TIP3    H222862   2.439   6.689   8.399  0.3350 -0.0881 -0.0798
  435TIP3   OH222863   5.840   4.364   8.497  0.1772  0.8560 -0.3015
  435TIP3    H122864   5.903   4.356   8.425  0.0207  0.9852 -0.4548
  435TIP3    H222865   5.756   4.379   8.454  0.2736  2.1997 -0.0771
  436TIP3   OH222866   5.803   4.556   0.033  0.5004 -0.3303 -0.6868
  436TIP3    H122867   5.799   4.460   0.030  0.7079 -0.3825  0.2857
  436TIP3    H222868   5.822   4.576   0.125 -4.0353  0.7567  0.2646
  437TIP3   OH222869   4.054   6.773   0.090 -0.6478  0.0080 -0.1234
  437TIP3    H122870   3.962   6.764   0.113 -0.6478  1.0751  0.3636
  437TIP3    H222871   4.053   6.784  -0.006 -1.1619  1.3814  0.0180
  438TIP3   OH222872   2.031   4.923   2.279 -0.2914  0.4747 -0.4835
  438TIP3    H122873   2.110   4.977   2.283  1.3221 -1.8214  0.4805
  438TIP3    H222874   2.014   4.913   2.185  1.9351 -0.7999 -0.8197
  439TIP3   OH222875   1.721   0.521   7.289  0.3812 -0.4139  0.1660
  439TIP3    H122876   1.670   0.601   7.273  1.3764  0.5543  1.5976
  439TIP3    H222877   1.803   0.535   7.241  0.0174 -1.2310 -0.7411
  440TIP3   OH222878   1.880   2.526   2.559 -0.5095  0.2169 -0.2119
  440TIP3    H122879   1.835   2.442   2.574  0.5024 -0.4631 -0.8667
  440TIP3    H222880   1.819   2.592   2.592  0.3331 -0.9269  4.2955
  441TIP3   OH222881   6.587   1.967   7.896  0.5716 -0.1036  0.2420
  441TIP3    H122882   6.515   1.966   7.832 -1.7122  0.9747  2.5876
  441TIP3    H222883   6.611   1.875   7.906 -0.6524 -0.5309 -0.4934
  442TIP3   OH222884   2.846   4.715   0.297 -0.2161  0.3988 -0.1580
  442TIP3    H122885   2.793   4.733   0.220  0.4831  0.8943 -0.5338
  442TIP3    H222886   2.873   4.802   0.328  1.1954  0.1222 -0.5586
  443TIP3   OH222887   0.035   1.079   7.731 -0.2102 -0.4522 -0.1484
  443TIP3    H122888  -0.057   1.069   7.752 -0.2370  1.3946  0.7304
  443TIP3    H222889   0.037   1.139   7.657  0.3195  0.4404  0.5682
  444TIP3   OH222890   0.510   1.450   2.064 -0.3159 -0.2081 -0.1246
  444TIP3    H122891   0.585   1.393   2.083 -1.0025 -0.4952  1.9379
  444TIP3    H222892   0.536   1.535   2.100 -0.3028  0.1719 -0.9918
  445TIP3   OH222893   3.414   1.821   0.602 -0.1474  0.3006  0.1099
  445TIP3    H122894   3.364   1.789   0.527  1.7420  1.6735 -1.8580
  445TIP3    H222895   3.488   1.869   0.563  2.1251 -0.7131  2.7975
  446TIP3   OH222896   3.789   5.588   7.857  0.2757  0.6463 -0.2437
  446TIP3    H122897   3.723   5.525   7.830 -0.1513  0.4050  1.2841
  446TIP3    H222898   3.742   5.672   7.862  0.0027  0.4416  1.0211
  447TIP3   OH222899   6.410   1.961   1.290 -0.4449 -0.9914  0.6943
  447TIP3    H122900   6.429   1.895   1.223  1.7229  0.5586 -0.3391
  447TIP3    H222901   6.331   2.004   1.258  1.4870  0.9229 -2.0326
  448TIP3   OH222902   5.296   4.627   8.300 -0.4756 -0.4346  0.2304
  448TIP3    H122903   5.366   4.636   8.235 -0.0143  0.0028  0.7707
  448TIP3    H222904   5.331   4.567   8.365 -0.3008  0.3536  0.8804
  449TIP3   OH222905   2.399   4.946   0.540 -0.3205  0.3132 -0.3129
  449TIP3    H122906   2.344   4.989   0.474  1.1035  0.2883 -1.5815
  449TIP3    H222907   2.459   4.891   0.489  0.1715 -0.4888  1.0820
  450TIP3   OH222908   5.802   6.771   8.019  0.3032 -0.6627  0.1072
  450TIP3    H122909   5.847   6.849   7.985 -0.7110 -0.4843 -0.8982
  450TIP3    H222910   5.869   6.724   8.068  1.4282 -0.1181 -0.8658
  451TIP3   OH222911   1.601   4.321   8.306  0.2964 -0.0022 -0.0229
  451TIP3    H122912   1.530   4.316   8.370 -0.0229 -1.0556 -0.4358
  451TIP3    H222913   1.650   4.400   8.330 -1.1493  0.8905  0.1282
  452TIP3   OH222914   6.004   1.514   2.070 -0.6997  0.2890 -0.4158
  452TIP3    H122915   5.941   1.443   2.056  1.4176 -1.8440  0.2821
  452TIP3    H222916   6.005   1.561   1.987 -1.7699 -0.8129 -1.0980
  453TIP3   OH222917   3.772   0.684   0.027 -0.2731 -0.3693  0.1835
  453TIP3    H122918   3.837   0.628   0.070 -1.3880  0.8544  3.7833
  453TIP3    H222919   3.824   0.756  -0.009  0.5680 -0.2586  1.5282
  454TIP3   OH222920   5.060   2.714   0.841  0.1606  0.1032 -0.1621
  454TIP3    H122921   5.146   2.695   0.804 -0.2359 -0.7550 -0.6624
  454TIP3    H222922   5.059   2.810   0.849  1.4143  0.0808  0.4954
  455TIP3   OH222923   0.518   3.961   2.601  0.0515  0.3865 -0.0353
  455TIP3    H122924   0.608   3.959   2.635  0.1545  0.7999 -0.2820
  455TIP3    H222925   0.496   3.869   2.586  0.7567  0.3381 -0.8305
  456TIP3   OH222926   4.581   0.716   1.290 -0.6481  0.2521  0.0509
  456TIP3    H122927   4.646   0.779   1.258  0.0894 -0.4579  0.1124
  456TIP3    H222928   4.591   0.716   1.385 -1.7293  1.1770  0.1823
  457TIP3   OH222929   5.380   0.023   2.039  0.4995  0.2102  0.0215
  457TIP3    H122930   5.311   0.067   1.989 -1.3728 -1.9116  0.6143
  457TIP3    H222931   5.360  -0.070   2.033  2.6272 -0.4139  1.2713
  458TIP3   OH222932   3.935   6.294   7.435  0.2691 -0.3652 -0.5470
  458TIP3    H122933   3.988   6.311   7.357  1.6141 -0.1328  0.4046
  458TIP3    H222934   3.963   6.207   7.465  0.6789  0.0806  0.3953
  459TIP3   OH222935   5.964   1.742   3.402  0.0084  0.4750 -0.0258
  459TIP3    H122936   5.919   1.677   3.455 -0.8815  1.3064  0.2539
  459TIP3    H222937   6.023   1.690   3.347 -0.5474 -0.5508  0.3116
  460TIP3   OH222938   3.996   0.872   8.459 -0.1163 -0.2162  0.0073
  460TIP3    H122939   3.926   0.849   8.398  0.2390  1.1187 -0.9450
  460TIP3    H222940   4.062   0.915   8.405  1.2474 -1.0222  0.9610
  461TIP3   OH222941   5.576   3.681   1.650  0.2593  0.0277  0.4378
  461TIP3    H122942   5.552   3.593   1.624  1.0232  0.1181 -0.6376
  461TIP3    H222943   5.499   3.715   1.696  0.3573 -1.5751  1.8797
  462TIP3   OH222944   2.483   3.307   1.622 -0.2143  0.1185 -0.2246
  462TIP3    H122945   2.398   3.322   1.664 -0.6987 -0.4466 -0.9622
  462TIP3    H222946   2.462   3.296   1.529  0.6820  0.0932 -0.4344
  463TIP3   OH222947   1.489   6.279   2.334  0.5874  0.0022 -0.2395
  463TIP3    H122948   1.487   6.329   2.415  0.8894 -2.2283  1.2303
  463TIP3    H222949   1.396   6.264   2.313  0.5148 -0.0282  0.1021
  464TIP3   OH222950   6.144   6.774   7.581 -0.0860 -0.0010  0.2703
  464TIP3    H122951   6.100   6.694   7.550  0.3962 -0.4586  0.7485
  464TIP3    H222952   6.172   6.819   7.502  1.8847 -1.5719  0.0209
  465TIP3   OH222953   1.482   1.493   7.813  1.0704 -0.0270 -0.3754
  465TIP3    H122954   1.521   1.564   7.761  0.6917  1.1794  0.9344
  465TIP3    H222955   1.389   1.499   7.796  0.9539  0.3090  0.3478
  466TIP3   OH222956   2.610   6.585   0.945 -0.2704  0.3258 -0.4904
  466TIP3    H122957   2.559   6.628   1.014  1.6176  1.9314 -0.0030
  466TIP3    H222958   2.675   6.534   0.993 -1.6520 -2.1895 -1.0914
  467TIP3   OH222959   0.002   1.869   1.504  0.3197 -0.2669 -0.1928
  467TIP3    H122960  -0.054   1.839   1.433 -1.1379  1.6929  0.0558
  467TIP3    H222961   0.091   1.856   1.471 -0.2331 -2.3202 -1.0764
  468TIP3   OH222962   3.725   4.217   8.389 -0.0519 -0.0751 -0.7212
  468TIP3    H122963   3.725   4.219   8.294 -0.4857 -1.2393 -0.7618
  468TIP3    H222964   3.806   4.263   8.414 -0.1906  0.6763 -1.6206
  469TIP3   OH222965   5.101   4.489   7.758  0.6884 -0.8321  0.1986
  469TIP3    H122966   5.035   4.551   7.791  1.2230  1.3855 -2.5244
  469TIP3    H222967   5.153   4.467   7.835 -1.5071 -0.4849  1.8929
  470TIP3   OH222968   6.166   3.112   2.450  0.2060 -0.2145  0.3101
  470TIP3    H122969   6.256   3.123   2.480  0.8535 -1.4259 -1.0924
  470TIP3    H222970   6.166   3.030   2.401 -1.8484 -0.6445  0.9276
  471TIP3   OH222971   6.675   5.495   0.103  0.4106  0.6667  0.2410
  471TIP3    H122972   6.674   5.407   0.065 -1.8819  0.8962 -0.3994
  471TIP3    H222973   6.762   5.504   0.141  1.1714 -1.3588 -0.8749
  472TIP3   OH222974   4.274   4.917   8.564  0.2678 -0.4595  0.0024
  472TIP3    H122975   4.351   4.970   8.582  0.1400  0.3753 -1.6527
  472TIP3    H222976   4.200   4.974   8.585  0.1227 -0.3773 -0.7121
  473TIP3   OH222977   4.927   0.720   1.962 -0.2240  0.4784 -0.5653
  473TIP3    H122978   4.874   0.799   1.971 -1.1956 -0.1809 -0.2340
  473TIP3    H222979   4.974   0.712   2.045 -0.5333  0.4288 -0.3932
  474TIP3   OH222980   1.882   4.778   8.320  0.3350 -0.5892 -0.0699
  474TIP3    H122981   1.974   4.762   8.340 -0.0243 -0.6344  1.7145
  474TIP3    H222982   1.845   4.811   8.402 -1.2276 -0.5237 -0.7669
  475TIP3   OH222983   3.442   1.241   8.698 -0.3449  0.1248 -0.2538
  475TIP3    H122984   3.534   1.221   8.677  0.1522  2.3018 -0.3809
  475TIP3    H222985   3.445   1.274   8.787 -1.3608 -1.7354  0.5315
  476TIP3   OH222986   1.472   6.438   2.858 -0.0634  0.1443 -0.6548
  476TIP3    H122987   1.501   6.346   2.865 -0.5208  0.0491  0.1796
  476TIP3    H222988   1.485   6.473   2.946 -1.5669  0.3712 -0.5032
  477TIP3   OH222989   0.919   0.742   1.179  0.3069  0.0504  0.1108
  477TIP3    H122990   0.977   0.803   1.223  0.6940  0.1787 -0.5676
  477TIP3    H222991   0.913   0.774   1.089  0.0618 -0.5830 -0.1083
  478TIP3   OH222992   5.330   6.115   1.823 -1.0647 -0.3241 -0.4321
  478TIP3    H122993   5.260   6.094   1.760 -1.7194 -0.5949  0.3660
  478TIP3    H222994   5.362   6.030   1.852 -2.6501 -0.3087  1.6344
  479TIP3   OH222995   4.546   5.085   0.964 -0.3956  0.0181  0.0008
  479TIP3    H122996   4.497   5.075   1.045 -1.5115 -0.7627 -0.7413
  479TIP3    H222997   4.594   5.167   0.975 -2.2414  1.0864  0.5731
  480TIP3   OH222998   1.052   0.460   8.469  0.1724  0.3230 -0.3976
  480TIP3    H122999   1.018   0.536   8.517  1.6615  0.7095  0.0941
  480TIP3    H223000   0.978   0.430   8.416 -0.2812  2.5510 -1.1389
  481TIP3   OH223001   2.913   5.487   0.760 -0.0444  0.0231 -0.0641
  481TIP3    H123002   2.827   5.506   0.798 -1.5114 -2.8558 -1.6235
  481TIP3    H223003   2.967   5.461   0.835 -1.6329 -1.5609  0.6049
  482TIP3   OH223004   0.279   0.908   0.377 -0.8198 -0.7060 -0.3523
  482TIP3    H123005   0.326   0.957   0.444  1.0914 -0.4912 -1.7699
  482TIP3    H223006   0.296   0.955   0.295 -0.7280 -2.4910 -1.4224
  483TIP3   OH223007   4.308   2.054   8.770 -0.2153 -0.2438 -0.5528
  483TIP3    H123008   4.257   2.028   8.847 -0.5553  0.9297 -0.3680
  483TIP3    H223009   4.399   2.031   8.793 -0.4761 -1.1267 -0.3574
  484TIP3   OH223010   1.367   3.727   8.522 -0.1513 -0.2340 -0.1384
  484TIP3    H123011   1.412   3.780   8.588 -0.2430  0.6551 -0.7741
  484TIP3    H223012   1.286   3.775   8.504  0.6414  0.4436 -2.1250
  485TIP3   OH223013   4.287   6.564   1.610  0.4262 -0.1060 -0.1179
  485TIP3    H123014   4.216   6.628   1.611  0.7703  0.2916  1.2462
  485TIP3    H223015   4.248   6.486   1.570  0.1527  1.0798 -2.3181
  486TIP3   OH223016   4.923   6.621   2.098  0.6482 -0.0703  0.7728
  486TIP3    H123017   4.922   6.531   2.132  0.7009 -1.1518 -1.8144
  486TIP3    H223018   5.014   6.635   2.071  0.5686  0.6276  0.8624
  487TIP3   OH223019   5.050   5.862   8.246 -0.5960 -0.0922  0.0580
  487TIP3    H123020   5.117   5.827   8.304 -0.1842  0.6867  0.0610
  487TIP3    H223021   5.056   5.807   8.167  0.8823  0.7078 -0.4339
  488TIP3   OH223022   4.256   2.924   0.439 -0.0910 -0.7335  0.1174
  488TIP3    H123023   4.168   2.962   0.440  0.1660 -0.1053 -0.1845
  488TIP3    H223024   4.311   2.991   0.480  0.6707  0.0045 -1.9705
  489TIP3   OH223025   1.495   3.880   8.691 -0.0671 -0.0885 -0.3495
  489TIP3    H123026   1.468   3.858   8.780 -0.0717 -1.3848 -0.6543
  489TIP3    H223027   1.581   3.840   8.681 -0.3586 -0.5452 -1.1433
  490TIP3   OH223028   2.220   1.462   2.020  0.5050 -0.9629  0.1728
  490TIP3    H123029   2.153   1.516   2.062 -0.3521 -0.2558 -1.9429
  490TIP3    H223030   2.251   1.403   2.089  0.7390  1.4997  2.3118
  491TIP3   OH223031   1.153   4.209   0.677 -0.0757 -0.2373  0.5940
  491TIP3    H123032   1.130   4.258   0.598  0.0218 -0.6319  0.3207
  491TIP3    H223033   1.071   4.204   0.726 -0.8685 -2.4900 -0.8320
  492TIP3   OH223034   5.033   0.383   0.624  0.2376  0.0988 -0.8830
  492TIP3    H123035   4.989   0.452   0.674  1.0472 -0.3394  0.4986
  492TIP3    H223036   5.071   0.428   0.549 -0.2900  0.9419 -0.6579
  493TIP3   OH223037   3.141   5.232   1.461 -0.1782 -0.0166  0.2175
  493TIP3    H123038   3.185   5.188   1.533  0.7397 -1.4106 -1.1204
  493TIP3    H223039   3.205   5.295   1.428 -0.3730  0.1976  0.2431
  494TIP3   OH223040   4.185   4.308   0.707  0.2888 -0.4542  0.1754
  494TIP3    H123041   4.179   4.370   0.634 -2.4377 -1.6208 -0.7152
  494TIP3    H223042   4.204   4.363   0.783  0.9012  1.0721 -1.0177
  495TIP3   OH223043   2.332   6.803   8.091  0.6175 -0.7050  0.6538
  495TIP3    H123044   2.334   6.873   8.025  1.0184  0.0916  1.4919
  495TIP3    H223045   2.247   6.761   8.078 -0.4805  1.1745  1.3703
  496TIP3   OH223046   0.681   1.726   0.205 -0.4196 -0.1694  0.0904
  496TIP3    H123047   0.619   1.674   0.256  1.3226 -1.8174  0.6262
  496TIP3    H223048   0.758   1.671   0.197  0.6856  1.4711 -1.3064
  497TIP3   OH223049   5.893   3.376   0.419 -0.0815 -1.1630  0.4114
  497TIP3    H123050   5.977   3.392   0.375  0.4802 -1.7345  1.2582
  497TIP3    H223051   5.863   3.463   0.445  0.6642 -1.0243  0.8418
  498TIP3   OH223052   1.125   4.343   0.184  0.6187  0.0892 -0.5277
  498TIP3    H123053   1.075   4.389   0.117  0.6449  0.7623 -0.0928
  498TIP3    H223054   1.215   4.373   0.173  1.0516 -1.5186 -1.6484
  499TIP3   OH223055   1.455   6.076   1.426 -0.4018 -0.0962 -0.1003
  499TIP3    H123056   1.420   6.162   1.450 -1.5361 -0.8429  1.0638
  499TIP3    H223057   1.382   6.031   1.383 -0.9263 -1.6000  2.1466
  500TIP3   OH223058   4.123   2.985   1.224  0.3720 -0.0409  0.0670
  500TIP3    H123059   4.076   3.030   1.293 -0.4579 -0.4678 -0.2111
  500TIP3    H223060   4.141   2.898   1.260 -0.1610 -0.3021 -0.2942
  501TIP3   OH223061   1.776   1.295   0.448 -0.2349 -0.3290  0.8153
  501TIP3    H123062   1.811   1.378   0.482  2.2426 -0.6249 -0.7160
  501TIP3    H223063   1.850   1.234   0.454 -1.1739 -1.6742 -0.5717
  502TIP3   OH223064   5.076   1.168   2.800 -0.1136 -0.1878  0.0514
  502TIP3    H123065   5.013   1.099   2.820  1.1479 -1.4144 -0.0845
  502TIP3    H223066   5.161   1.131   2.822  0.5897  1.4460  0.2617
  503TIP3   OH223067   5.977   3.745   8.479  0.2005  0.1000 -0.7966
  503TIP3    H123068   5.904   3.743   8.417 -0.3617  2.0350 -0.2594
  503TIP3    H223069   5.956   3.678   8.544 -0.9629  0.4355 -0.8085
  504TIP3   OH223070   4.380   0.176   1.590 -0.4953 -0.5773 -0.1303
  504TIP3    H123071   4.353   0.157   1.500 -0.5575  1.0801 -0.5055
  504TIP3    H223072   4.411   0.267   1.586 -2.0591  0.1138  1.8298
  505TIP3   OH223073   2.377   0.443   7.929 -0.1448  0.4943  0.6583
  505TIP3    H123074   2.453   0.404   7.971  1.1626 -0.1110 -2.0272
  505TIP3    H223075   2.390   0.537   7.938  0.3522  0.3827  1.1361
  506TIP3   OH223076   2.446   5.357   7.623 -0.0138  0.4918 -0.5408
  506TIP3    H123077   2.368   5.333   7.574  0.7957 -0.2197 -1.5368
  506TIP3    H223078   2.426   5.442   7.661 -1.9562 -0.5037  0.8017
  507TIP3   OH223079   1.985   0.491   1.311 -0.0688  0.1079  0.0536
  507TIP3    H123080   2.037   0.543   1.372  2.1994 -0.5255 -1.2447
  507TIP3    H223081   1.917   0.551   1.281  1.3859  1.7883 -0.0447
  508TIP3   OH223082   1.356   4.748   0.242  0.0573 -0.5292 -0.2188
  508TIP3    H123083   1.437   4.799   0.254  0.7283 -1.8886  1.3102
  508TIP3    H223084   1.382   4.676   0.184  0.5242 -2.0755  1.7894
  509TIP3   OH223085   5.962   6.566   2.172  0.0732  0.2594  0.2188
  509TIP3    H123086   6.039   6.534   2.125 -1.5273 -1.6443 -1.2526
  509TIP3    H223087   5.967   6.661   2.163  2.2333  0.1998  0.1980
  510TIP3   OH223088   0.645   2.726   1.069  0.5786 -0.3820 -0.3189
  510TIP3    H123089   0.729   2.772   1.064  0.5630 -0.0927  1.4646
  510TIP3    H223090   0.583   2.793   1.097  0.0476 -0.9129 -0.2081
  511TIP3   OH223091   6.200   6.148   1.280  0.2998  0.0039  0.2029
  511TIP3    H123092   6.176   6.058   1.260 -0.9730  0.5158 -0.7399
  511TIP3    H223093   6.240   6.182   1.200 -0.4957  0.6732  0.0724
  512TIP3   OH223094   5.962   0.918   1.182 -0.0759 -0.5430 -0.4004
  512TIP3    H123095   5.870   0.897   1.199 -0.2329 -0.1435 -0.7296
  512TIP3    H223096   6.007   0.834   1.185 -0.8393 -1.1242 -2.7665
  513TIP3   OH223097   6.776   2.703   0.924 -0.8147 -0.5003 -0.3670
  513TIP3    H123098   6.797   2.707   1.018  0.7593 -1.8284 -0.6198
  513TIP3    H223099   6.843   2.757   0.882 -2.1855  1.0249 -0.6805
  514TIP3   OH223100   2.624   0.429   2.418 -0.0781  0.0550  0.2242
  514TIP3    H123101   2.702   0.468   2.377  0.2041 -0.9983 -0.2600
  514TIP3    H223102   2.652   0.342   2.445 -0.5461  0.3498  1.7875
  515TIP3   OH223103   3.107   5.338   0.313  0.1638  1.0018 -0.3826
  515TIP3    H123104   3.069   5.421   0.285  0.2052  1.1093 -0.1285
  515TIP3    H223105   3.042   5.272   0.289 -1.8690  1.4597  3.0501
  516TIP3   OH223106   0.387   3.016   8.418 -0.0362  0.3490  0.6011
  516TIP3    H123107   0.319   3.048   8.477 -0.2274  1.6051 -0.2904
  516TIP3    H223108   0.437   2.953   8.472 -0.8521  0.6681  1.7646
  517TIP3   OH223109   4.506   2.071   0.751  0.8627  0.3872 -0.1883
  517TIP3    H123110   4.453   2.142   0.716 -0.1954 -0.5719 -0.6099
  517TIP3    H223111   4.592   2.082   0.711 -0.0382 -0.1000 -2.3741
  518TIP3   OH223112   3.170   5.051   7.995  0.7831  0.5540 -0.2490
  518TIP3    H123113   3.106   4.986   8.024 -0.0737  1.7479  0.5619
  518TIP3    H223114   3.140   5.076   7.907 -0.3939  1.7480  0.4662
  519TIP3   OH223115   1.715   4.023   0.107  0.5316 -0.3037 -0.3535
  519TIP3    H123116   1.684   4.106   0.071 -0.6564 -0.4971  0.1494
  519TIP3    H223117   1.802   4.011   0.070  0.3947  0.7707 -1.0652
  520TIP3   OH223118   0.622   0.719   3.040 -0.4373 -0.7598 -0.2251
  520TIP3    H123119   0.703   0.731   3.091 -1.2263  1.3437  0.6354
  520TIP3    H223120   0.576   0.648   3.084 -0.1874 -0.2916  0.8156
  521TIP3   OH223121   2.977   5.955   2.541  0.5033  0.7599 -0.2788
  521TIP3    H123122   3.052   5.960   2.482 -0.1377 -1.0673 -1.3255
  521TIP3    H223123   2.985   6.033   2.596  0.7273  2.9790 -3.2161
  522TIP3   OH223124   1.690   2.322   2.537 -0.5873 -0.1454 -0.3395
  522TIP3    H123125   1.636   2.351   2.464 -1.5758 -2.2400 -0.5099
  522TIP3    H223126   1.646   2.243   2.570 -0.7744  1.2727  3.2124
  523TIP3   OH223127   2.211   2.594   3.159  0.2260 -0.0878 -0.0057
  523TIP3    H123128   2.287   2.538   3.175 -0.4311 -1.7999 -2.3705
  523TIP3    H223129   2.136   2.542   3.189 -0.1966  0.8300  0.5922
  524TIP3   OH223130   1.822   3.818   1.369 -0.6331 -0.2097 -0.0966
  524TIP3    H123131   1.845   3.859   1.452 -1.2589  0.4291 -0.2322
  524TIP3    H223132   1.768   3.883   1.324 -0.8341 -0.8018 -0.7263
  525TIP3   OH223133   5.506   3.178   2.276  0.2519 -0.7154  0.1025
  525TIP3    H123134   5.443   3.236   2.234  0.0926 -1.3339 -0.5314
  525TIP3    H223135   5.522   3.109   2.211  1.5338 -0.6017  0.2773
  526TIP3   OH223136   5.444   4.426   1.532 -0.2709  0.4750  0.1950
  526TIP3    H123137   5.416   4.353   1.587  0.7353 -0.0643  0.0206
  526TIP3    H223138   5.418   4.504   1.580 -0.0291  0.0047  1.1162
  527TIP3   OH223139   6.031   5.382   2.924 -0.4386 -0.4630 -0.8029
  527TIP3    H123140   6.066   5.330   2.851 -0.3470 -1.2077 -0.2390
  527TIP3    H223141   5.998   5.317   2.986 -0.8246  0.1752 -0.3319
  528TIP3   OH223142   2.561   1.021   7.755 -0.5218 -0.0848 -0.5488
  528TIP3    H123143   2.638   1.046   7.704 -0.2423  2.3862  0.9353
  528TIP3    H223144   2.512   1.103   7.766 -2.0356 -1.1123  0.7286
  529TIP3   OH223145   3.637   4.989   1.924  0.1824  0.1518 -0.1807
  529TIP3    H123146   3.659   5.077   1.955 -1.5112  0.7394 -0.5339
  529TIP3    H223147   3.690   4.931   1.978  1.0697  1.3702  0.3110
  530TIP3   OH223148   5.777   5.735   7.360  0.3319 -0.0540  0.6964
  530TIP3    H123149   5.820   5.816   7.388  0.8675 -0.8531  2.3211
  530TIP3    H223150   5.849   5.673   7.350 -0.2593 -0.9646  1.8449
  531TIP3   OH223151   3.626   1.619   1.078  0.1736  0.5007  0.3529
  531TIP3    H123152   3.692   1.686   1.097 -1.8264  2.6400  0.2085
  531TIP3    H223153   3.594   1.642   0.990 -0.2492 -0.9521  0.1081
  532TIP3   OH223154   0.644   0.205   8.488  0.5702 -0.3037 -0.1132
  532TIP3    H123155   0.722   0.241   8.447 -0.3459 -0.1641 -1.8473
  532TIP3    H223156   0.576   0.272   8.473 -0.0540 -0.7458  0.6781
  533TIP3   OH223157   0.767   2.445   2.047  0.7356  0.2490  0.2666
  533TIP3    H123158   0.853   2.426   2.010  1.3918 -0.9513  2.2308
  533TIP3    H223159   0.723   2.360   2.054 -0.0208  0.6506  0.6407
  534TIP3   OH223160   5.633   0.044   1.641 -0.0370 -0.2841 -0.5388
  534TIP3    H123161   5.638  -0.012   1.563  0.5556  0.2033 -0.8607
  534TIP3    H223162   5.540   0.043   1.665  0.2991 -3.8592  1.3095
  535TIP3   OH223163   2.010   1.839   7.917 -0.0077  0.8776 -0.4007
  535TIP3    H123164   1.946   1.815   7.850 -0.6843 -0.4651  0.6911
  535TIP3    H223165   2.075   1.891   7.870 -0.8701  0.6259 -1.9365
  536TIP3   OH223166   6.492   2.435   2.803 -0.0822  0.8136 -0.1777
  536TIP3    H123167   6.473   2.526   2.829 -0.2401  0.8618 -0.4587
  536TIP3    H223168   6.555   2.405   2.868 -0.8732  0.7574  0.5793
  537TIP3   OH223169   5.403   4.040   1.400  0.8123  0.4218  0.0589
  537TIP3    H123170   5.483   3.993   1.422  0.7248 -0.1601 -0.8023
  537TIP3    H223171   5.335   3.998   1.452  1.0283  0.8090  0.6668
  538TIP3   OH223172   1.478   1.692   0.547  0.6730 -0.3434  0.3920
  538TIP3    H123173   1.431   1.631   0.489  1.0884  0.3924 -0.7540
  538TIP3    H223174   1.415   1.760   0.567  1.4275  1.1425 -1.9030
  539TIP3   OH223175   5.040   0.252   7.805 -0.0015 -0.0044  0.3184
  539TIP3    H123176   4.948   0.250   7.781  0.1401  0.7386 -0.3409
  539TIP3    H223177   5.059   0.165   7.838 -0.9487 -0.1489  0.4957
  540TIP3   OH223178   5.374   2.698   0.822  0.6412 -1.3081  0.0975
  540TIP3    H123179   5.452   2.661   0.778  0.6733  1.2091 -2.2578
  540TIP3    H223180   5.394   2.791   0.830 -1.7867 -0.7459  0.1969
  541TIP3   OH223181   5.507   2.225   7.686 -0.1041  0.3886  0.1215
  541TIP3    H123182   5.416   2.216   7.658  0.0060 -0.0618 -0.0968
  541TIP3    H223183   5.552   2.148   7.650  0.5698  1.0943 -0.6007
  542TIP3   OH223184   1.544   5.793   8.107  0.6457 -0.0412  0.0448
  542TIP3    H123185   1.550   5.699   8.124  0.0253  0.1731  1.5798
  542TIP3    H223186   1.536   5.799   8.012  1.5257 -1.4837 -0.1695
  543TIP3   OH223187   5.114   5.960   8.570  0.3941  0.1447  0.2193
  543TIP3    H123188   5.060   5.885   8.596  1.9302 -0.7015  1.1234
  543TIP3    H223189   5.052   6.028   8.546 -1.0731 -1.5581 -1.0977
  544TIP3   OH223190   2.336   0.389   0.843 -0.1234 -0.2168  0.4492
  544TIP3    H123191   2.431   0.403   0.840 -0.3678  2.1386  1.1556
  544TIP3    H223192   2.317   0.370   0.935 -0.5525  1.8473  0.8379
  545TIP3   OH223193   0.605   2.003   2.278 -0.2507  0.4954 -0.0407
  545TIP3    H123194   0.638   2.085   2.314 -0.0706  0.6162 -0.4720
  545TIP3    H223195   0.655   1.990   2.197 -0.4053  0.0545 -0.0704
  546TIP3   OH223196   3.133   2.361   0.150 -0.0869 -0.0170 -0.0617
  546TIP3    H123197   3.121   2.452   0.178  0.2023 -0.1036  0.3535
  546TIP3    H223198   3.150   2.368   0.056 -0.0000  0.3649 -0.0217
  547TIP3   OH223199   5.830   5.835   7.680 -0.3513  0.3754 -0.1876
  547TIP3    H123200   5.768   5.898   7.717 -1.4949 -0.4689 -0.6231
  547TIP3    H223201   5.850   5.868   7.593 -0.7476  0.2762 -0.3168
  548TIP3   OH223202   6.745   0.527   0.357  0.1361  0.7125 -0.1271
  548TIP3    H123203   6.767   0.478   0.279  2.9677  1.9805 -0.2467
  548TIP3    H223204   6.818   0.511   0.417 -1.5792  0.3912  1.9829
  549TIP3   OH223205   4.393   0.596   0.341  0.3626 -0.2631 -0.2299
  549TIP3    H123206   4.480   0.612   0.377  0.1011  1.3042 -0.2489
  549TIP3    H223207   4.401   0.511   0.296  1.3381 -1.0775  1.4026
  550TIP3   OH223208   1.286   6.564   8.260 -0.5818  0.0778  0.7153
  550TIP3    H123209   1.275   6.644   8.210  0.5802  0.3355  0.8544
  550TIP3    H223210   1.307   6.497   8.195  0.0399  0.2284  0.7533
  551TIP3   OH223211   6.283   3.303   0.465 -1.0223  0.3244 -0.3773
  551TIP3    H123212   6.243   3.334   0.383 -0.5306  1.5560 -0.1630
  551TIP3    H223213   6.295   3.209   0.451 -2.4680  0.2145 -1.0746
  552TIP3   OH223214   5.024   3.175   1.252  0.4601  0.7374 -0.0941
  552TIP3    H123215   5.040   3.090   1.294 -0.6310  0.2980 -0.5363
  552TIP3    H223216   4.961   3.156   1.182 -0.1595  1.9886  0.0919
  553TIP3   OH223217   6.236   4.242   0.627 -0.0444  0.7620 -0.5051
  553TIP3    H123218   6.152   4.281   0.652  1.1725  2.2332  1.6551
  553TIP3    H223219   6.293   4.317   0.612  0.6092 -0.1809 -3.3041
  554TIP3   OH223220   0.247   6.265   2.256  0.3683 -0.0617 -0.7625
  554TIP3    H123221   0.255   6.353   2.218 -2.8939 -0.4404 -2.7239
  554TIP3    H223222   0.174   6.272   2.318  0.2051 -1.3204 -0.7919
  555TIP3   OH223223   4.781   3.221   2.846 -0.3799  0.4533 -0.1086
  555TIP3    H123224   4.804   3.289   2.783 -1.1303 -0.9635 -2.0353
  555TIP3    H223225   4.686   3.228   2.857 -0.2141  0.9093  1.1816
  556TIP3   OH223226   0.526   2.592   2.080 -0.2204 -0.1111 -0.5970
  556TIP3    H123227   0.495   2.538   2.153 -1.5022  0.1462 -0.9282
  556TIP3    H223228   0.604   2.547   2.049 -0.5578 -1.0985 -0.0807
  557TIP3   OH223229   0.514   0.215   1.662 -0.2333  0.1018  0.1705
  557TIP3    H123230   0.560   0.227   1.579 -1.9339  2.4263 -0.5315
  557TIP3    H223231   0.539   0.127   1.690 -0.3190 -1.1736 -3.2665
  558TIP3   OH223232   3.476   3.382   2.438 -0.0417  0.1926 -0.0597
  558TIP3    H123233   3.476   3.424   2.525  1.7268  0.8084 -0.3149
  558TIP3    H223234   3.421   3.439   2.385  0.4364  0.9193  0.1947
  559TIP3   OH223235   1.041   5.723   8.361 -0.1984 -0.0066 -0.4614
  559TIP3    H123236   1.130   5.711   8.393  0.1787 -1.4622 -1.8860
  559TIP3    H223237   1.005   5.794   8.414  1.0316 -0.8958  1.6867
  560TIP3   OH223238   0.290   0.200   0.614  0.5049 -0.1108 -0.0537
  560TIP3    H123239   0.284   0.190   0.709 -1.1357 -0.6860 -0.1923
  560TIP3    H223240   0.212   0.248   0.590  1.0408  0.2580 -1.1061
  561TIP3   OH223241   3.837   5.363   7.071 -0.1717 -0.2192  0.3837
  561TIP3    H123242   3.788   5.315   7.005 -1.8101  0.9126  0.7216
  561TIP3    H223243   3.857   5.447   7.030 -0.0963  0.0118  0.8791
  562TIP3   OH223244   4.686   3.352   0.808  0.3840  0.0429 -0.1213
  562TIP3    H123245   4.594   3.329   0.821  0.4785 -0.8138 -0.9075
  562TIP3    H223246   4.723   3.349   0.896 -0.4591  1.0247  0.2958
  563TIP3   OH223247   0.753   0.823   2.543  0.0956  0.2325  0.8903
  563TIP3    H123248   0.808   0.894   2.508  1.4576 -0.4256  1.5987
  563TIP3    H223249   0.737   0.849   2.634  0.5471 -0.3221  1.1339
  564TIP3   OH223250   2.744   6.546   2.219  0.4003  0.1759 -0.0295
  564TIP3    H123251   2.745   6.456   2.251  0.6630  0.0864 -0.2897
  564TIP3    H223252   2.654   6.575   2.233  1.1891  1.2857  3.9767
  565TIP3   OH223253   6.060   3.300   2.277  0.3756  0.0782 -0.1125
  565TIP3    H123254   6.106   3.381   2.302  1.6682 -0.6821  0.0749
  565TIP3    H223255   6.100   3.232   2.332 -1.5672 -0.5061  0.6387
  566TIP3   OH223256   4.898   4.997   6.836 -0.2131  0.8490 -0.2070
  566TIP3    H123257   4.806   5.025   6.831 -0.7342 -0.5249  0.9178
  566TIP3    H223258   4.940   5.066   6.888 -1.2205  0.2254  1.5453
  567TIP3   OH223259   6.300   3.736   0.927  0.7380 -0.4610  0.3407
  567TIP3    H123260   6.308   3.793   1.003 -1.4085  0.5652 -0.1265
  567TIP3    H223261   6.239   3.667   0.954  0.3506 -0.3705 -0.2831
  568TIP3   OH223262   3.513   1.077   1.953 -0.0090  0.1285 -0.0745
  568TIP3    H123263   3.507   1.127   1.871 -1.0161  0.2657  0.0681
  568TIP3    H223264   3.430   1.094   1.997 -0.6172 -2.1327 -0.2737
  569TIP3   OH223265   2.028   1.363   1.501  0.6035 -0.3502 -0.0468
  569TIP3    H123266   2.043   1.271   1.526  0.9053 -0.2397  0.1948
  569TIP3    H223267   2.006   1.406   1.584 -0.7313 -0.4339 -0.3433
  570TIP3   OH223268   4.165   5.529   7.517 -0.1929  0.2997  0.7685
  570TIP3    H123269   4.203   5.462   7.461  0.5380  0.1257  1.4527
  570TIP3    H223270   4.073   5.534   7.490  0.2137  0.4478 -0.6447
  571TIP3   OH223271   2.184   3.504   3.002 -0.0592  0.1069 -0.0352
  571TIP3    H123272   2.150   3.414   2.993  0.5592 -0.0840 -0.4999
  571TIP3    H223273   2.111   3.553   3.040 -0.9578 -0.2499 -1.2299
  572TIP3   OH223274   1.365   0.979   2.265  0.2664  0.0140 -0.1712
  572TIP3    H123275   1.334   1.069   2.272  1.2802  0.5662 -2.1414
  572TIP3    H223276   1.291   0.932   2.227  0.3816  0.4386 -0.9423
  573TIP3   OH223277   1.731   0.432   1.122  0.0510  0.1423  0.4310
  573TIP3    H123278   1.648   0.454   1.163 -1.2738 -1.8574 -1.0097
  573TIP3    H223279   1.737   0.337   1.128  1.1260  0.0337 -1.5072
  574TIP3   OH223280   0.347   0.340   8.674 -0.1306 -0.0377 -0.1432
  574TIP3    H123281   0.375   0.387   8.596  0.8999 -1.1444 -0.4723
  574TIP3    H223282   0.410   0.363   8.742  0.2489 -0.7366 -0.2443
  575TIP3   OH223283   1.647   0.849   8.247  0.6990  0.2367 -0.6580
  575TIP3    H123284   1.567   0.895   8.273  1.3664  1.4744 -0.7067
  575TIP3    H223285   1.717   0.910   8.268  1.6896 -1.0345 -0.1437
  576TIP3   OH223286   2.787   6.566   0.253  0.0822  0.2647 -0.5534
  576TIP3    H123287   2.812   6.558   0.345  1.1329  2.0173 -0.6461
  576TIP3    H223288   2.868   6.549   0.205 -0.5274 -0.9452 -1.1853
  577TIP3   OH223289   6.128   6.810   1.971  0.7638 -0.4314 -0.0265
  577TIP3    H123290   6.034   6.827   1.983  0.4800 -2.0498  0.2695
  577TIP3    H223291   6.134   6.768   1.886  1.2501 -0.2253 -0.0978
  578TIP3   OH223292   5.811   0.806   3.185  0.3977  0.4502  0.2740
  578TIP3    H123293   5.718   0.790   3.199  0.5754 -0.4325  0.5357
  578TIP3    H223294   5.854   0.727   3.219  1.1314  0.1055 -1.3598
  579TIP3   OH223295   4.254   3.964   0.431 -0.6536  0.1418 -0.2764
  579TIP3    H123296   4.294   4.051   0.426  0.4537 -0.2807  0.8172
  579TIP3    H223297   4.168   3.975   0.390 -1.0969  2.0917  1.0451
  580TIP3   OH223298   2.754   1.725   2.949  0.6222  0.8663 -0.0438
  580TIP3    H123299   2.744   1.819   2.930  2.0396  1.1122  0.3019
  580TIP3    H223300   2.667   1.696   2.975  0.0521  1.9748 -0.6609
  581TIP3   OH223301   5.399   5.388   2.575 -0.0977  0.1834 -0.2322
  581TIP3    H123302   5.462   5.460   2.568 -2.4992  2.2787 -1.6911
  581TIP3    H223303   5.377   5.384   2.668  0.1487  1.2608 -0.1205
  582TIP3   OH223304   5.857   0.225   1.828 -0.0134  0.3866  0.0241
  582TIP3    H123305   5.906   0.298   1.790 -0.6660  1.5842  1.3677
  582TIP3    H223306   5.773   0.226   1.782 -0.2780  0.9402  0.5053
  583TIP3   OH223307   5.081   3.963   8.178 -0.2876 -0.0970 -0.0291
  583TIP3    H123308   5.067   4.005   8.094 -0.2180  0.9335  0.4571
  583TIP3    H223309   4.999   3.977   8.226  0.6887  1.9724  1.1565
  584TIP3   OH223310   4.605   0.720   0.673  0.1074  0.0190  0.2892
  584TIP3    H123311   4.631   0.801   0.629 -0.7347  1.2912  2.0239
  584TIP3    H223312   4.509   0.721   0.670  0.0836 -1.6518 -0.8727
  585TIP3   OH223313   0.421   4.865   1.418 -0.0678  0.5686 -0.7682
  585TIP3    H123314   0.480   4.867   1.493  1.5110  1.0562 -1.9684
  585TIP3    H223315   0.421   4.954   1.384 -1.7850  0.6683 -0.6362
  586TIP3   OH223316   3.798   1.410   1.309  0.1315  0.3020  0.8164
  586TIP3    H123317   3.761   1.323   1.297  1.7981 -0.0943 -2.9407
  586TIP3    H223318   3.727   1.470   1.287  0.1044 -0.3102 -0.9292
  587TIP3   OH223319   2.937   3.637   2.629  0.1684 -0.4904 -0.0268
  587TIP3    H123320   2.994   3.713   2.619  0.4625 -0.3703  2.0762
  587TIP3    H223321   2.990   3.573   2.676 -1.4810 -0.2006  2.4289
  588TIP3   OH223322   1.936   1.451   0.176  0.4422 -0.1583  0.3474
  588TIP3    H123323   2.001   1.447   0.247 -0.0660  0.6273  0.8797
  588TIP3    H223324   1.927   1.545   0.158 -0.4909 -0.2603  0.2374
  589TIP3   OH223325   1.380   4.982   1.488  0.2887  0.6352  0.2492
  589TIP3    H123326   1.306   4.930   1.518 -0.4934  0.4809 -1.7889
  589TIP3    H223327   1.341   5.063   1.455  1.1851  1.1847  0.5045
  590TIP3   OH223328   5.859   1.752   8.715  0.3027 -0.1968  0.0290
  590TIP3    H123329   5.865   1.845   8.735  0.6474 -0.0990 -0.5103
  590TIP3    H223330   5.920   1.710   8.776  1.4724  0.1132 -0.9004
  591TIP3   OH223331   4.621   1.322   0.464 -0.2650  0.0946  0.2631
  591TIP3    H123332   4.634   1.277   0.548 -0.9821  2.0034  1.4732
  591TIP3    H223333   4.547   1.276   0.425  0.5144 -1.2677  0.3186
  592TIP3   OH223334   5.870   3.651   0.417 -0.2864  0.1025 -0.0067
  592TIP3    H123335   5.919   3.679   0.494  0.5505  0.3627 -0.6249
  592TIP3    H223336   5.779   3.674   0.437 -0.1538 -0.3039  1.1136
  593TIP3   OH223337   3.279   5.433   0.512  0.6478  0.4131 -0.4441
  593TIP3    H123338   3.225   5.510   0.529 -3.4478 -2.2729 -0.0373
  593TIP3    H223339   3.236   5.388   0.440  2.6389 -1.7577 -0.3985
  594TIP3   OH223340   3.513   2.990   2.749 -0.5415  0.6308  0.0457
  594TIP3    H123341   3.605   2.993   2.776  0.0132 -0.7938 -1.4761
  594TIP3    H223342   3.505   2.907   2.701 -2.6654  0.6534  0.2543
  595TIP3   OH223343   5.584   4.944   2.366  0.2413  0.4305 -0.3391
  595TIP3    H123344   5.654   5.000   2.334  0.1617  1.4134  1.0877
  595TIP3    H223345   5.507   4.970   2.317  0.6520  0.0296 -1.2192
  596TIP3   OH223346   4.995   3.538   0.550 -0.5254  0.2125  0.0532
  596TIP3    H123347   4.993   3.462   0.608 -1.4436 -1.1408 -1.6425
  596TIP3    H223348   5.013   3.502   0.463 -1.0503  1.9301 -0.8289
  597TIP3   OH223349   2.818   0.826   8.550  0.8894  0.0445 -0.3479
  597TIP3    H123350   2.867   0.790   8.476 -0.7474  0.3003 -1.6308
  597TIP3    H223351   2.762   0.755   8.580  1.2663  0.0584  0.4042
  598TIP3   OH223352   4.935   5.461   7.014 -0.4595  0.0004  0.3381
  598TIP3    H123353   4.889   5.537   6.978 -0.5202 -0.2361 -0.0933
  598TIP3    H223354   5.000   5.498   7.073  2.7676  0.8197 -3.2668
  599TIP3   OH223355   1.884   2.448   0.999 -0.5901  0.1889  0.6472
  599TIP3    H123356   1.864   2.519   0.938 -0.2163 -0.1203  0.1544
  599TIP3    H223357   1.949   2.486   1.059 -2.1709  1.0233  1.9167
  600TIP3   OH223358   5.568   2.238   0.933 -0.0020 -0.2552  0.6486
  600TIP3    H123359   5.606   2.291   0.862 -1.4459  0.5396  0.4340
  600TIP3    H223360   5.626   2.253   1.007  1.9505 -1.6551 -0.5139
  601TIP3   OH223361   3.416   1.753   2.490  0.3484 -0.1081 -0.6628
  601TIP3    H123362   3.408   1.673   2.542  0.4086 -0.2279 -0.8382
  601TIP3    H223363   3.507   1.754   2.459  0.2478 -0.1598 -0.9642
  602TIP3   OH223364   4.040   0.954   1.271 -0.7518 -0.1228 -0.3440
  602TIP3    H123365   4.106   0.918   1.330  0.1132  1.1239 -0.5002
  602TIP3    H223366   4.051   1.049   1.279 -1.6144  0.0768 -1.4003
  603TIP3   OH223367   6.583   4.942   2.386  0.6271  1.2155  0.7260
  603TIP3    H123368   6.666   4.894   2.387 -0.5494 -1.0691 -1.0504
  603TIP3    H223369   6.527   4.892   2.445 -0.9918 -0.4941 -2.0631
  604TIP3   OH223370   1.965   0.321   0.764  0.0719 -0.3964  0.1142
  604TIP3    H123371   1.915   0.242   0.742 -0.9245  0.6409 -1.5103
  604TIP3    H223372   2.052   0.304   0.729  0.4673 -1.5858  1.5897
  605TIP3   OH223373   2.669   1.189   8.308 -0.2803 -0.0081 -0.0431
  605TIP3    H123374   2.760   1.162   8.301 -0.4950 -0.7298 -0.1847
  605TIP3    H223375   2.642   1.204   8.217 -0.2477  0.4074  0.0131
  606TIP3   OH223376   1.817   6.483   0.735 -0.2536 -0.2860  0.7450
  606TIP3    H123377   1.769   6.446   0.809  3.7622 -2.2692  2.6205
  606TIP3    H223378   1.884   6.538   0.775  1.7401 -0.9987 -1.4092
  607TIP3   OH223379   6.018   0.541   0.602 -0.6259  0.2759  0.1181
  607TIP3    H123380   5.943   0.536   0.542 -0.3031  1.5550 -0.4242
  607TIP3    H223381   6.082   0.594   0.555  0.1475  0.2087  1.0800
  608TIP3   OH223382   2.003   2.471   8.017 -0.5736  0.3439  0.0444
  608TIP3    H123383   2.048   2.445   8.097 -0.3105 -0.7580 -0.4556
  608TIP3    H223384   1.978   2.563   8.033 -1.3088 -0.1042  1.7347
  609TIP3   OH223385   0.226   5.555   8.769  0.1186  0.3954  0.0151
  609TIP3    H123386   0.286   5.549   8.843  1.4364  2.3136 -0.8044
  609TIP3    H223387   0.266   5.620   8.711 -1.0112 -0.7879 -2.2389
  610TIP3   OH223388   3.885   1.567   7.467 -0.5548  0.0228 -0.0314
  610TIP3    H123389   3.925   1.636   7.520  0.5438  0.2100 -1.0827
  610TIP3    H223390   3.849   1.613   7.391  2.7512 -0.7330 -2.2861
  611TIP3   OH223391   1.583   4.348   2.284  0.7914  0.0398  0.2231
  611TIP3    H123392   1.656   4.290   2.265  1.1926  0.6650 -0.1771
  611TIP3    H223393   1.557   4.383   2.199 -0.9139 -1.2485  0.1421
  612TIP3   OH223394   2.821   2.733   1.531  0.6341  0.0348 -0.2645
  612TIP3    H123395   2.839   2.676   1.456  0.5542 -1.3824  0.7549
  612TIP3    H223396   2.829   2.676   1.607 -0.1394  1.2400  0.7627
  613TIP3   OH223397   3.138   4.881   0.975  0.4208 -0.0310 -0.6149
  613TIP3    H123398   3.200   4.911   1.041 -2.1028  0.3934  1.7513
  613TIP3    H223399   3.094   4.961   0.945 -1.5002 -0.5902  0.5456
  614TIP3   OH223400   3.719   6.789   1.710  0.5487 -0.0161  0.1831
  614TIP3    H123401   3.742   6.877   1.740  0.9971  0.3225 -1.0807
  614TIP3    H223402   3.720   6.796   1.614  0.1661 -1.2948  0.0739
  615TIP3   OH223403   2.407   3.694   1.889  0.3865 -0.2990 -0.1345
  615TIP3    H123404   2.413   3.631   1.961  1.9186  0.6626  0.6341
  615TIP3    H223405   2.498   3.716   1.869 -0.0958  1.7066 -0.3303
  616TIP3   OH223406   2.652   5.235   8.095 -0.2796 -0.1189 -0.4400
  616TIP3    H123407   2.573   5.258   8.144 -0.2903 -0.8306 -0.1137
  616TIP3    H223408   2.720   5.226   8.162 -0.0896 -0.2370 -0.6484
  617TIP3   OH223409   4.205   5.053   7.025 -0.1846  0.5936  0.1982
  617TIP3    H123410   4.183   5.082   6.936 -0.4898  1.6694  0.6127
  617TIP3    H223411   4.283   5.103   7.048  1.0355 -1.0454 -0.1346
  618TIP3   OH223412   1.797   0.746   0.774 -0.3057  0.1766  0.2705
  618TIP3    H123413   1.816   0.654   0.793  2.1662  0.5043 -0.2372
  618TIP3    H223414   1.724   0.743   0.713  1.9555 -1.7734 -2.6500
  619TIP3   OH223415   2.128   5.779   7.597  0.1635 -0.2945 -0.0502
  619TIP3    H123416   2.203   5.821   7.639  0.8656  1.2512 -2.6262
  619TIP3    H223417   2.107   5.704   7.653  3.7199 -0.8860  0.6789
  620TIP3   OH223418   5.298   1.326   1.455 -0.4488  0.0980 -0.1105
  620TIP3    H123419   5.333   1.248   1.411 -0.0646 -0.0190  0.3921
  620TIP3    H223420   5.323   1.314   1.547 -1.7913  0.0160  0.2661
  621TIP3   OH223421   3.710   2.751   8.512 -0.0349  0.0731 -0.3646
  621TIP3    H123422   3.803   2.747   8.534  0.2079  0.2226 -1.3243
  621TIP3    H223423   3.688   2.662   8.485 -0.4156 -0.1916  0.7359
  622TIP3   OH223424   4.884   2.720   1.070  0.5855 -0.2626  0.7979
  622TIP3    H123425   4.946   2.787   1.096  0.7213 -0.6091  1.3939
  622TIP3    H223426   4.935   2.658   1.018  0.9032 -0.8827  1.8184
  623TIP3   OH223427   2.286   0.124   2.648  0.2091  0.6131 -0.0049
  623TIP3    H123428   2.300   0.032   2.668 -0.4425  0.3730 -0.6257
  623TIP3    H223429   2.374   0.158   2.630  0.6362  0.4872  1.7091
  624TIP3   OH223430   3.935   2.636   2.521 -0.3278  0.1248  0.4713
  624TIP3    H123431   3.926   2.552   2.477 -0.3642  0.0685  0.5881
  624TIP3    H223432   3.859   2.686   2.492 -1.4104 -0.5879  1.9882
  625TIP3   OH223433   1.111   5.141   1.723 -0.3331 -0.0450  0.5492
  625TIP3    H123434   1.031   5.193   1.731  0.6409  1.3668  1.7331
  625TIP3    H223435   1.086   5.067   1.669 -1.4237  2.4900 -2.7830
  626TIP3   OH223436   6.478   3.014   1.625 -0.3060  0.0091  0.1824
  626TIP3    H123437   6.399   2.960   1.622 -0.5202  0.3436 -0.8576
  626TIP3    H223438   6.543   2.964   1.576 -0.2584  0.3022 -0.0620
  627TIP3   OH223439   2.945   5.360   8.217  0.1346  0.0050  0.3095
  627TIP3    H123440   2.886   5.295   8.255 -1.1839  1.4559  0.9016
  627TIP3    H223441   2.971   5.414   8.292  1.1036  0.2332 -0.1813
  628TIP3   OH223442   0.174   0.884   7.886  0.0361  0.2141  0.4582
  628TIP3    H123443   0.118   0.929   7.822 -1.9116 -0.2449  1.7325
  628TIP3    H223444   0.184   0.946   7.958  2.3128  0.7706 -0.2733
  629TIP3   OH223445   0.099   1.860   7.652  0.4187  0.1285  0.1735
  629TIP3    H123446   0.169   1.865   7.587 -0.0725 -2.6167 -0.6747
  629TIP3    H223447   0.019   1.874   7.602  0.1178 -0.7824  0.3801
  630TIP3   OH223448   4.911   3.915   1.026  0.0977 -0.2468 -0.0930
  630TIP3    H123449   4.878   3.870   1.104 -0.9533 -2.3922 -1.6651
  630TIP3    H223450   4.834   3.960   0.990 -0.5039 -2.5366 -1.9555
  631TIP3   OH223451   6.199   1.713   2.683 -0.3339 -0.2888  0.1932
  631TIP3    H123452   6.159   1.791   2.643  2.5136  0.8503 -0.6662
  631TIP3    H223453   6.214   1.738   2.774 -0.4173 -0.2404  0.1941
  632TIP3   OH223454   0.714   4.840   8.127 -0.1088 -0.7130  0.4908
  632TIP3    H123455   0.783   4.813   8.067  0.7393  0.3399  0.9559
  632TIP3    H223456   0.735   4.797   8.210 -2.4074 -3.8501 -0.3595
  633TIP3   OH223457   1.714   4.256   3.178  0.2009  0.1784 -0.6622
  633TIP3    H123458   1.639   4.312   3.199  1.0353  1.1948 -0.2827
  633TIP3    H223459   1.725   4.264   3.084  1.4651  2.2221 -0.3940
  634TIP3   OH223460   6.789   0.181   7.757 -0.4040  0.3167  0.3876
  634TIP3    H123461   6.696   0.193   7.734 -0.4047 -1.6943 -0.9070
  634TIP3    H223462   6.814   0.263   7.799 -3.3055  0.1835  2.6726
  635TIP3   OH223463   3.128   2.415   8.664 -0.3121 -0.0109 -0.8244
  635TIP3    H123464   3.220   2.393   8.652 -0.2629  0.4530 -1.3334
  635TIP3    H223465   3.080   2.344   8.621 -0.2482 -1.2695  1.0804
  636TIP3   OH223466   3.975   0.737   7.399  0.4073 -0.9330 -0.5263
  636TIP3    H123467   4.032   0.801   7.357 -0.7026 -0.8052 -1.9130
  636TIP3    H223468   3.920   0.703   7.328 -2.1419 -0.1045  0.9193
  637TIP3   OH223469   4.266   2.037   1.784 -0.8684  0.2163 -0.0381
  637TIP3    H123470   4.341   2.096   1.779 -0.9181  0.2874  0.0711
  637TIP3    H223471   4.207   2.068   1.716 -0.2429 -0.6123 -0.9993
  638TIP3   OH223472   4.014   1.705   7.686  0.0699 -0.0666 -0.7408
  638TIP3    H123473   4.084   1.766   7.662  0.0726 -0.1103 -0.8483
  638TIP3    H223474   4.057   1.639   7.739 -0.0092  0.2351 -0.2948
  639TIP3   OH223475   5.613   4.845   8.110 -0.8828 -1.2342  0.4839
  639TIP3    H123476   5.529   4.803   8.095 -0.5135 -1.6276 -0.5477
  639TIP3    H223477   5.665   4.780   8.157 -1.1406 -0.9888  1.1266
  640TIP3   OH223478   5.173   5.091   3.134  0.4957  0.4978 -0.1717
  640TIP3    H123479   5.087   5.107   3.097  0.6131 -0.7595 -1.0482
  640TIP3    H223480   5.161   5.016   3.192  0.6124  1.5614  1.2899
  641TIP3   OH223481   5.815   0.960   6.900  0.1057  0.4430 -0.1953
  641TIP3    H123482   5.855   0.894   6.843 -1.0806 -1.6509  1.2517
  641TIP3    H223483   5.887   0.990   6.956  0.4577 -0.4890 -0.1215
  642TIP3   OH223484   5.883   1.288   1.968  0.4166 -0.4203 -0.0378
  642TIP3    H123485   5.823   1.261   1.899 -0.1399  0.3135  0.1470
  642TIP3    H223486   5.860   1.233   2.043  0.7210 -0.9052 -0.2972
  643TIP3   OH223487   6.088   6.654   8.101  0.4466 -0.1650 -0.0139
  643TIP3    H123488   6.119   6.570   8.135 -1.2544 -0.3954  1.1016
  643TIP3    H223489   6.122   6.657   8.011  1.4604 -1.5334  0.2893
  644TIP3   OH223490   4.008   2.553   8.101 -0.0333  0.1055 -0.3150
  644TIP3    H123491   4.069   2.624   8.121  1.7300 -1.1937 -0.7480
  644TIP3    H223492   3.936   2.595   8.054  0.9155  1.5988 -0.4980
  645TIP3   OH223493   0.579   3.725   2.899  0.4902 -0.2178 -0.6359
  645TIP3    H123494   0.586   3.781   2.976 -0.7541 -1.1835  0.2186
  645TIP3    H223495   0.650   3.662   2.908 -1.4041 -2.2394  1.4088
  646TIP3   OH223496   1.498   0.176   7.699 -0.1284 -0.1419 -0.0501
  646TIP3    H123497   1.585   0.213   7.681  0.6517 -2.4007 -1.2938
  646TIP3    H223498   1.474   0.212   7.784  1.8221  0.8963  0.1233
  647TIP3   OH223499   4.871   6.453   8.105 -0.0584  0.2622 -0.2553
  647TIP3    H123500   4.960   6.482   8.087  0.2125  0.8955  1.7772
  647TIP3    H223501   4.871   6.360   8.084  2.4400 -0.8820  3.6382
  648TIP3   OH223502   5.828   1.509   2.366 -0.3259 -0.1550 -0.2298
  648TIP3    H123503   5.780   1.507   2.283 -0.3301  1.6065 -0.3208
  648TIP3    H223504   5.759   1.504   2.433 -0.3859 -0.8042 -0.3419
  649TIP3   OH223505   1.752   3.543   7.464 -0.0329  0.2233  0.8259
  649TIP3    H123506   1.792   3.617   7.509 -0.8741  1.9772 -1.1483
  649TIP3    H223507   1.669   3.530   7.509  0.4942 -0.1094  1.7252
  650TIP3   OH223508   2.041   5.797   1.687  0.4097 -0.3318  0.1718
  650TIP3    H123509   1.993   5.715   1.682 -1.3008  0.6596 -0.6074
  650TIP3    H223510   2.125   5.773   1.725 -1.0193 -2.0018  2.5325
  651TIP3   OH223511   5.079   2.624   8.042  0.3198 -0.3601 -0.0090
  651TIP3    H123512   5.006   2.609   7.982 -0.5297 -0.1601  0.9543
  651TIP3    H223513   5.157   2.616   7.987 -0.4040 -0.9476 -0.9834
  652TIP3   OH223514   4.205   1.897   0.577 -0.0734  0.2913 -0.4399
  652TIP3    H123515   4.253   1.903   0.660 -0.6187 -0.8149 -0.0148
  652TIP3    H223516   4.269   1.923   0.511  0.4783  0.8634  0.3005
  653TIP3   OH223517   5.682   2.321   8.032 -0.0265  0.1515 -0.2047
  653TIP3    H123518   5.700   2.236   7.992 -2.3563  0.2294 -1.5573
  653TIP3    H223519   5.629   2.301   8.109  1.8309  0.2364  1.1661
  654TIP3   OH223520   4.399   1.638   1.057 -0.7482  0.3547  0.2057
  654TIP3    H123521   4.340   1.563   1.065 -0.0187 -0.3015 -0.3142
  654TIP3    H223522   4.377   1.678   0.973 -0.7162  0.3384  0.1894
  655TIP3   OH223523   3.968   3.918   7.587  0.2979 -0.1013  0.4362
  655TIP3    H123524   3.976   3.938   7.493 -0.8330 -2.4614 -0.2530
  655TIP3    H223525   3.873   3.920   7.603  0.3673 -1.3094  1.1064
  656TIP3   OH223526   5.329   4.831   7.660 -0.0840  0.0543 -0.3207
  656TIP3    H123527   5.333   4.893   7.587  1.7830 -1.2174 -1.3694
  656TIP3    H223528   5.420   4.826   7.692 -0.7948  0.3994  1.9912
  657TIP3   OH223529   0.847   4.207   2.370  0.1583  0.3031 -0.2029
  657TIP3    H123530   0.808   4.137   2.317  0.1870  0.4861 -0.4717
  657TIP3    H223531   0.773   4.245   2.417  0.0088  0.6289 -0.6879
  658TIP3   OH223532   4.549   5.349   7.990 -0.1825 -0.2345  0.0995
  658TIP3    H123533   4.576   5.340   7.899  0.7559  2.1359  0.0545
  658TIP3    H223534   4.567   5.264   8.030  2.9995 -0.2287 -1.0596
  659TIP3   OH223535   0.347   5.318   0.857 -0.2462 -0.0666  0.1375
  659TIP3    H123536   0.359   5.387   0.792  0.9290  0.9005  1.3399
  659TIP3    H223537   0.428   5.268   0.855 -0.6196 -0.6860  0.1244
  660TIP3   OH223538   4.835   1.277   1.908  0.0395  0.1306 -0.1528
  660TIP3    H123539   4.890   1.200   1.924  0.5402  0.6957  0.8740
  660TIP3    H223540   4.872   1.346   1.962 -0.5093  1.0690 -0.9324
  661TIP3   OH223541   4.926   1.105   0.230 -0.0899 -0.9296  0.1085
  661TIP3    H123542   4.980   1.077   0.156  0.9444 -0.5971  0.7223
  661TIP3    H223543   4.971   1.070   0.307 -0.5073 -0.2655  0.6625
  662TIP3   OH223544   5.844   0.497   6.957 -0.1755 -0.3182  0.1787
  662TIP3    H123545   5.861   0.547   6.878  0.7673  0.8186  1.0604
  662TIP3    H223546   5.814   0.412   6.926  2.1156 -0.6229 -1.4940
  663TIP3   OH223547   5.132   6.522   7.475  0.0961 -0.0850  0.0458
  663TIP3    H123548   5.111   6.517   7.382  1.3403 -0.2298 -0.2542
  663TIP3    H223549   5.168   6.611   7.486 -2.2962  0.8607  0.9263
  664TIP3   OH223550   2.456   6.356   8.049 -0.0435  0.1589  0.1800
  664TIP3    H123551   2.365   6.375   8.074 -0.3569 -1.5788  0.5333
  664TIP3    H223552   2.465   6.262   8.064  1.6214  0.1760 -0.5285
  665TIP3   OH223553   4.517   2.886   8.600  0.8294 -0.7528 -0.2807
  665TIP3    H123554   4.593   2.925   8.644 -0.4589 -1.4911  2.8905
  665TIP3    H223555   4.492   2.951   8.534  2.8172  0.5563  0.1620
  666TIP3   OH223556   2.383   0.926   8.173 -0.2073 -0.4285 -0.3175
  666TIP3    H123557   2.422   0.916   8.260  0.1495  0.2202 -0.3911
  666TIP3    H223558   2.456   0.955   8.118 -0.7637  0.7121 -0.4851
  667TIP3   OH223559   1.299   6.779   0.459  0.7150  0.2738  0.5211
  667TIP3    H123560   1.390   6.791   0.433  0.6260  0.0996  0.1229
  667TIP3    H223561   1.304   6.741   0.547  1.0348 -0.2577  0.2778
  668TIP3   OH223562   3.960   4.831   2.309  0.5277 -0.5002  0.3756
  668TIP3    H123563   3.970   4.925   2.294  0.6279 -0.3099  1.4934
  668TIP3    H223564   3.936   4.825   2.402 -1.2755 -1.4667 -0.1051
  669TIP3   OH223565   5.926   6.798   2.412 -0.1844  0.4980 -0.1979
  669TIP3    H123566   5.839   6.787   2.450  0.1884  0.8960  0.8212
  669TIP3    H223567   5.916   6.871   2.350 -0.1659  1.9476  1.4204
  670TIP3   OH223568   0.471   4.096   8.725  0.0191  0.2667 -0.4034
  670TIP3    H123569   0.449   4.170   8.669  1.4141  1.5897  0.7088
  670TIP3    H223570   0.554   4.121   8.767 -0.0023 -1.4753  0.8008
  671TIP3   OH223571   2.676   5.587   2.355 -0.5273  0.0914  0.1980
  671TIP3    H123572   2.603   5.525   2.352 -0.3402 -0.1287  0.1954
  671TIP3    H223573   2.688   5.605   2.449 -0.2829 -0.2271  0.2264
  672TIP3   OH223574   1.953   5.890   2.853  0.0077 -0.3912 -0.5445
  672TIP3    H123575   2.011   5.825   2.814 -0.5143 -1.0075 -0.3057
  672TIP3    H223576   2.004   5.929   2.924  0.0447 -1.1237 -0.1559
  673TIP3   OH223577   3.665   6.290   0.025  0.3047 -0.1372 -0.5443
  673TIP3    H123578   3.667   6.234   0.102 -2.4957  0.0521 -0.2384
  673TIP3    H223579   3.745   6.342   0.031  0.8818 -1.1535  1.4219
  674TIP3   OH223580   2.971   2.015   1.593  0.3320 -0.1786 -0.2099
  674TIP3    H123581   2.980   1.939   1.535 -1.3421  0.7446 -1.7530
  674TIP3    H223582   2.904   1.989   1.656  0.4279 -0.3062 -0.1589
  675TIP3   OH223583   0.963   1.607   0.184  0.2238  0.0142  0.2241
  675TIP3    H123584   0.891   1.547   0.161 -1.0702  1.3257  0.7062
  675TIP3    H223585   0.988   1.646   0.100 -0.3107  0.2734  0.1781
  676TIP3   OH223586   4.697   3.297   3.135  0.6041 -0.0995  0.2380
  676TIP3    H123587   4.752   3.286   3.057  0.0583  0.4981 -0.2367
  676TIP3    H223588   4.650   3.214   3.143  0.0444  0.1212 -0.5648
  677TIP3   OH223589   0.387   2.313   0.995 -0.1740 -0.0125 -0.4224
  677TIP3    H123590   0.317   2.368   0.960 -0.5677 -0.0421  0.3048
  677TIP3    H223591   0.466   2.364   0.981 -0.3926  0.2030 -0.8774
  678TIP3   OH223592   3.046   2.234   7.742  0.1284  0.0004  0.0299
  678TIP3    H123593   3.072   2.249   7.651 -2.0801 -0.6140 -0.7549
  678TIP3    H223594   3.088   2.151   7.765 -1.7851 -1.5407 -1.5739
  679TIP3   OH223595   4.807   1.511   0.271 -0.6087 -0.1312 -0.0560
  679TIP3    H123596   4.737   1.470   0.322  1.0747 -0.8333  1.8039
  679TIP3    H223597   4.817   1.454   0.194 -2.6653  0.5185 -0.8734
  680TIP3   OH223598   2.961   6.447   7.752  0.4828  0.5688  0.1777
  680TIP3    H123599   3.032   6.470   7.692 -1.3513  1.7856 -1.6775
  680TIP3    H223600   2.906   6.526   7.755 -3.1742 -1.5856 -2.1136
  681TIP3   OH223601   0.627   2.625   7.985  0.1397 -0.3669  0.8761
  681TIP3    H123602   0.597   2.711   8.016  1.5891  0.3577  0.3900
  681TIP3    H223603   0.635   2.635   7.890 -0.0181 -1.1604  0.7736
  682TIP3   OH223604   2.738   2.023   2.394 -0.0978 -0.5581  0.1858
  682TIP3    H123605   2.650   1.987   2.398 -1.8212  3.1412 -0.2068
  682TIP3    H223606   2.765   2.013   2.302  0.9207 -3.5632  0.7005
  683TIP3   OH223607   4.524   5.770   1.367 -0.3612  0.1625 -0.3581
  683TIP3    H123608   4.462   5.834   1.402 -1.4883 -1.1188  0.0792
  683TIP3    H223609   4.608   5.797   1.403 -0.9285  0.9769  0.4114
  684TIP3   OH223610   3.093   2.723   1.994  0.2726  0.0264 -0.4099
  684TIP3    H123611   3.187   2.726   1.978  0.1789  1.2159 -0.8043
  684TIP3    H223612   3.064   2.814   1.989 -0.8441 -0.2793  0.0690
  685TIP3   OH223613   0.869   5.471   2.689  0.4674 -0.5276 -0.2344
  685TIP3    H123614   0.810   5.450   2.617  2.3277 -1.9583 -1.4514
  685TIP3    H223615   0.824   5.439   2.767 -1.2748  0.3867 -0.8375
  686TIP3   OH223616   5.654   4.997   0.613 -0.0223 -0.3076  0.3765
  686TIP3    H123617   5.694   4.911   0.629 -0.3749 -0.9743 -1.8660
  686TIP3    H223618   5.560   4.982   0.623 -0.3599 -1.0068 -2.6878
  687TIP3   OH223619   2.081   4.344   7.769  0.3828 -0.1881 -0.0341
  687TIP3    H123620   2.114   4.269   7.718  1.3647  0.0654  0.2063
  687TIP3    H223621   2.156   4.403   7.775 -0.5919  1.1849 -0.8731
  688TIP3   OH223622   2.235   5.897   8.633 -0.9939 -0.2012  0.4439
  688TIP3    H123623   2.193   5.822   8.676  1.0053 -0.7491  1.6031
  688TIP3    H223624   2.301   5.926   8.696 -0.8340  1.7250 -0.5413
  689TIP3   OH223625   1.308   4.466   7.372  0.0828  0.1962 -0.4767
  689TIP3    H123626   1.329   4.387   7.323 -1.5912  0.5602 -1.8969
  689TIP3    H223627   1.223   4.495   7.336  0.7314  2.7388 -0.1748
  690TIP3   OH223628   2.823   2.882   7.719 -0.1814  0.2136  0.5963
  690TIP3    H123629   2.765   2.956   7.733  1.6128  1.5334  1.3841
  690TIP3    H223630   2.826   2.838   7.804  0.1057  0.2571  0.6097
  691TIP3   OH223631   1.221   0.489   7.825  0.1050  0.3071 -0.3833
  691TIP3    H123632   1.199   0.509   7.734  0.6327  0.3363 -0.5059
  691TIP3    H223633   1.176   0.556   7.876 -2.3172 -1.1600 -0.4133
  692TIP3   OH223634   3.365   3.321   1.145 -0.1751 -0.1950  0.2085
  692TIP3    H123635   3.347   3.378   1.070  0.1070  0.3852  0.5697
  692TIP3    H223636   3.321   3.239   1.125 -1.3798  0.4602  0.0818
  693TIP3   OH223637   6.198   6.391   0.488 -0.7897 -0.0413  0.0640
  693TIP3    H123638   6.115   6.382   0.534 -0.6840 -0.1777  0.2284
  693TIP3    H223639   6.191   6.332   0.413 -1.0359  0.3226 -0.2059
  694TIP3   OH223640   6.363   5.686   1.946  0.1514 -0.0798  0.1209
  694TIP3    H123641   6.367   5.715   1.855 -0.6344 -1.1705 -0.2814
  694TIP3    H223642   6.422   5.611   1.950 -0.2324 -0.3667  0.3860
  695TIP3   OH223643   5.060   3.655   0.006 -0.3672 -0.6770  0.1386
  695TIP3    H123644   5.119   3.729  -0.008 -2.5950  1.0191 -0.7808
  695TIP3    H223645   5.036   3.659   0.098 -1.2170  0.3687 -0.1127
  696TIP3   OH223646   5.962   4.052   0.209 -0.6284  0.6758  0.2933
  696TIP3    H123647   5.939   3.994   0.137  0.7793  0.4411 -0.0037
  696TIP3    H223648   5.906   4.025   0.281 -1.5939  0.4799 -0.5119
  697TIP3   OH223649   3.579   5.891   0.521  0.0566  0.1109  0.4163
  697TIP3    H123650   3.484   5.880   0.524  0.1055 -0.1413  1.3026
  697TIP3    H223651   3.593   5.983   0.544  0.0235  0.1806  0.1611
  698TIP3   OH223652   6.279   5.077   8.272 -0.3723  0.0954 -0.0504
  698TIP3    H123653   6.311   5.006   8.328 -1.8292  0.1172  0.8740
  698TIP3    H223654   6.302   5.050   8.183  0.8421 -0.5635  0.4346
  699TIP3   OH223655   0.991   3.983   1.780 -0.5061  0.0146  0.2806
  699TIP3    H123656   1.020   3.974   1.871 -0.0831  0.1668  0.1602
  699TIP3    H223657   1.072   3.988   1.729 -0.6409 -3.3534 -0.4807
  700TIP3   OH223658   1.968   2.720   8.090  0.1963 -0.1841  0.5398
  700TIP3    H123659   1.949   2.720   8.184 -2.0936 -0.3367  0.1295
  700TIP3    H223660   1.923   2.798   8.056  1.9405  0.5112 -0.2962
  701TIP3   OH223661   6.458   3.836   1.950 -0.3875 -0.1790 -0.4096
  701TIP3    H123662   6.519   3.763   1.938 -1.8608 -1.2510 -1.7222
  701TIP3    H223663   6.476   3.894   1.877  0.8579  0.8805  0.6940
  702TIP3   OH223664   0.243   1.452   1.704  0.2548  0.0244  0.1684
  702TIP3    H123665   0.216   1.363   1.726 -0.2369  0.8180  3.2090
  702TIP3    H223666   0.333   1.459   1.736  0.5595  0.4171 -0.7431
  703TIP3   OH223667   5.177   5.440   2.179 -0.2580  0.3475  0.5512
  703TIP3    H123668   5.267   5.414   2.162 -0.2611  0.9917 -0.5456
  703TIP3    H223669   5.170   5.443   2.274  0.2774 -1.7382  0.6960
  704TIP3   OH223670   1.598   1.607   2.933  0.4934 -0.1720  0.0723
  704TIP3    H123671   1.564   1.519   2.915  0.2941 -0.0045 -0.3866
  704TIP3    H223672   1.520   1.662   2.937  0.7206  0.5927 -3.0018
  705TIP3   OH223673   5.170   0.205   7.397 -0.1389  0.8139  0.9226
  705TIP3    H123674   5.229   0.216   7.322 -1.7130  2.2975 -0.1597
  705TIP3    H223675   5.146   0.112   7.396  0.7500  0.5848  0.2976
  706TIP3   OH223676   6.006   3.965   2.290  0.6665  0.6405  0.0358
  706TIP3    H123677   6.015   3.885   2.240 -0.6282  0.4935 -0.0026
  706TIP3    H223678   6.027   4.035   2.228  1.3230  0.3624 -0.0618
  707TIP3   OH223679   5.030   2.191   8.156 -0.1700  0.1340 -0.4810
  707TIP3    H123680   5.114   2.220   8.191  0.4095  0.9216 -2.3876
  707TIP3    H223681   5.041   2.097   8.142 -0.3018 -0.1305  1.0341
  708TIP3   OH223682   6.149   3.962   0.587  0.1096 -0.5165  0.1884
  708TIP3    H123683   6.234   3.929   0.559  0.3775  0.4367 -0.1718
  708TIP3    H223684   6.158   4.058   0.584 -1.0625 -0.3940 -0.1576
  709TIP3   OH223685   6.512   5.364   2.922  0.2846  0.4701 -0.4294
  709TIP3    H123686   6.514   5.312   3.002  4.3375 -0.4914 -0.9131
  709TIP3    H223687   6.518   5.454   2.952  1.4130  0.1377  0.4531
  710TIP3   OH223688   2.825   4.416   1.638  0.2614  0.4085 -0.2800
  710TIP3    H123689   2.803   4.349   1.703 -0.1385  0.4616 -0.3618
  710TIP3    H223690   2.916   4.397   1.615  0.5205  0.5934  0.5433
  711TIP3   OH223691   6.568   2.499   7.308  0.4362 -0.1525  0.0174
  711TIP3    H123692   6.493   2.458   7.264 -0.6555  0.6581  1.0514
  711TIP3    H223693   6.541   2.590   7.320  1.9377  0.3632 -0.3052
  712TIP3   OH223694   2.153   3.051   1.707  0.3246 -0.0215  1.0135
  712TIP3    H123695   2.215   3.028   1.776 -0.8320  0.2702  2.1697
  712TIP3    H223696   2.080   2.990   1.718  0.1577 -0.0378 -0.0179
  713TIP3   OH223697   4.441   0.362   0.196  0.1027  0.3657 -0.3673
  713TIP3    H123698   4.414   0.271   0.204 -1.7063  0.8991  0.2329
  713TIP3    H223699   4.448   0.377   0.102  1.9273 -0.7500 -0.4595
  714TIP3   OH223700   5.116   2.789   1.688 -0.5236 -0.1538  0.7168
  714TIP3    H123701   5.111   2.830   1.775 -0.1930 -0.4570  0.8834
  714TIP3    H223702   5.191   2.731   1.694 -0.0057  0.4273 -0.0383
  715TIP3   OH223703   2.257   3.897   1.782 -0.1581 -0.1135  0.1298
  715TIP3    H123704   2.250   3.840   1.706 -2.1000 -1.0174  0.9155
  715TIP3    H223705   2.264   3.838   1.857  0.2387  0.7210  0.7726
  716TIP3   OH223706   2.303   5.539   0.906 -0.0730 -0.4247 -0.1398
  716TIP3    H123707   2.319   5.615   0.962  1.1668 -0.4225 -0.4730
  716TIP3    H223708   2.286   5.577   0.819 -1.4210 -0.4575  0.0815
  717TIP3   OH223709   6.777   1.680   7.288  0.1180  0.2244 -0.4026
  717TIP3    H123710   6.705   1.705   7.229 -1.2468 -0.4889  0.8935
  717TIP3    H223711   6.829   1.760   7.296  0.2384  0.4023 -2.3744
  718TIP3   OH223712   3.176   0.744   0.612 -0.2619  0.9283  0.0791
  718TIP3    H123713   3.227   0.820   0.639  1.0117 -0.3027  1.3361
  718TIP3    H223714   3.226   0.706   0.540  0.2503  0.1261  0.8365
  719TIP3   OH223715   3.738   6.622   0.743 -0.1233  0.2251 -0.2931
  719TIP3    H123716   3.723   6.527   0.752 -0.2031  0.2380 -0.2915
  719TIP3    H223717   3.824   6.636   0.782 -0.8635  0.4179  1.3507
  720TIP3   OH223718   6.140   4.091   1.462  0.7758  0.0162  0.1599
  720TIP3    H123719   6.140   4.001   1.427  0.6367  0.0633  0.0379
  720TIP3    H223720   6.144   4.146   1.384  0.1740  0.1289  0.1998
  721TIP3   OH223721   3.105   5.454   8.423 -0.1251  0.3318 -0.1011
  721TIP3    H123722   3.124   5.485   8.511  0.1378 -0.8431  0.2759
  721TIP3    H223723   3.190   5.458   8.377 -0.3762  1.5068 -0.5062
  722TIP3   OH223724   3.220   1.080   2.414 -0.4478  0.3855 -0.0229
  722TIP3    H123725   3.245   1.111   2.501 -0.6463 -2.6858  1.2358
  722TIP3    H223726   3.289   1.019   2.389  0.0593  1.8549 -2.4800
  723TIP3   OH223727   5.268   5.987   0.028 -0.1282  0.5020  0.2832
  723TIP3    H123728   5.199   6.053   0.038  0.8900  1.4330  1.6377
  723TIP3    H223729   5.247   5.943  -0.054 -1.1105  2.2213 -0.4593
  724TIP3   OH223730   1.631   2.070   1.696 -0.1794 -0.7312 -0.4039
  724TIP3    H123731   1.674   2.005   1.752  1.9425  0.5142 -0.4859
  724TIP3    H223732   1.652   2.043   1.607  0.0511 -0.3948 -0.4562
  725TIP3   OH223733   5.435   5.831   0.189  0.4428  0.2081 -0.6939
  725TIP3    H123734   5.434   5.837   0.285  2.6587  1.4916 -0.6986
  725TIP3    H223735   5.372   5.897   0.160 -0.6518 -0.5633 -0.1480
  726TIP3   OH223736   6.576   2.734   7.787  0.2796  0.7700 -0.7078
  726TIP3    H123737   6.527   2.815   7.802  1.1730  1.0182  1.2427
  726TIP3    H223738   6.517   2.678   7.736 -2.0969  1.0312  1.5855
  727TIP3   OH223739   3.471   0.861   8.102 -0.0671 -0.0899  0.0684
  727TIP3    H123740   3.535   0.917   8.146 -0.8002  1.3867 -0.6912
  727TIP3    H223741   3.388   0.906   8.112 -0.7921 -1.3347 -0.0846
  728TIP3   OH223742   4.320   0.367   7.441 -0.1238  0.1370  0.0694
  728TIP3    H123743   4.226   0.363   7.427 -0.3667 -1.0302  1.7582
  728TIP3    H223744   4.330   0.394   7.533  1.1410 -1.1825  0.3596
  729TIP3   OH223745   3.607   4.268   1.813 -0.3544 -0.0084 -0.1543
  729TIP3    H123746   3.551   4.334   1.772  0.7821  1.1756  0.1356
  729TIP3    H223747   3.623   4.301   1.902  3.1954  1.3492 -1.0964
  730TIP3   OH223748   0.816   4.504   1.420  0.3303 -0.3237 -0.3441
  730TIP3    H123749   0.732   4.477   1.381 -1.3978  1.3860  1.9402
  730TIP3    H223750   0.839   4.584   1.373  1.4883 -1.5135 -1.9127
  731TIP3   OH223751   4.195   1.666   2.668 -0.0019  0.2879  0.3640
  731TIP3    H123752   4.106   1.701   2.677 -0.3598 -1.0493  3.0942
  731TIP3    H223753   4.193   1.584   2.717  2.6146 -0.0861 -0.0242
  732TIP3   OH223754   2.647   1.927   2.123 -0.3681  0.1890  0.2386
  732TIP3    H123755   2.553   1.938   2.116 -0.2423  1.8150  0.6511
  732TIP3    H223756   2.683   1.987   2.057  0.4012  1.4884  1.7739
  733TIP3   OH223757   5.541   0.238   2.091 -0.1552  0.1475  0.2901
  733TIP3    H123758   5.477   0.299   2.055 -0.6067 -0.4082  0.1379
  733TIP3    H223759   5.495   0.154   2.094  0.8305 -0.4479 -0.6181
  734TIP3   OH223760   4.571   0.592   7.983  0.8089  0.2195 -0.8800
  734TIP3    H123761   4.530   0.505   7.984  0.0586  0.5657 -1.2596
  734TIP3    H223762   4.631   0.590   8.058 -1.0161  0.2243  0.6663
  735TIP3   OH223763   4.007   0.876   8.162  0.4371 -0.0089 -0.8588
  735TIP3    H123764   4.050   0.903   8.080 -0.9226  2.7760 -0.7405
  735TIP3    H223765   4.080   0.856   8.221  1.5580  1.5961 -1.6058
  736TIP3   OH223766   4.468   0.349   7.849 -0.9202  0.2340  0.2598
  736TIP3    H123767   4.428   0.279   7.900 -0.1835 -0.2588  0.1801
  736TIP3    H223768   4.394   0.401   7.817 -1.5244 -0.8449 -0.1558
  737TIP3   OH223769   0.605   1.237   8.775  0.4020 -0.1926  0.0691
  737TIP3    H123770   0.526   1.291   8.780  0.1108 -0.6998  1.4242
  737TIP3    H223771   0.573   1.147   8.765  0.6982 -0.5757  2.0344
  738TIP3   OH223772   3.117   6.371   1.548 -0.0549  0.1921  0.0684
  738TIP3    H123773   3.112   6.421   1.467 -1.9038 -1.2457 -0.7865
  738TIP3    H223774   3.057   6.415   1.607  0.0172  0.2682  0.0854
  739TIP3   OH223775   2.912   2.364   8.287 -0.2347  0.3658  0.6862
  739TIP3    H123776   2.988   2.412   8.254  0.5081 -0.3444  1.3212
  739TIP3    H223777   2.898   2.295   8.222 -0.3897  0.5416  0.5310
  740TIP3   OH223778   4.930   0.918   0.607 -0.6092  0.0599 -0.0159
  740TIP3    H123779   4.965   0.901   0.520  2.1930  1.0629  0.8111
  740TIP3    H223780   5.006   0.942   0.660 -1.8585 -2.3970  3.2639
  741TIP3   OH223781   2.484   3.450   7.706  0.3116  0.0355 -0.6004
  741TIP3    H123782   2.534   3.435   7.787 -1.2762  0.7186  0.5626
  741TIP3    H223783   2.483   3.365   7.663  0.5480 -0.5454  0.4881
  742TIP3   OH223784   6.304   5.061   2.620 -0.2986 -0.1173 -0.4065
  742TIP3    H123785   6.355   4.994   2.574 -1.6227 -0.2062 -1.8316
  742TIP3    H223786   6.213   5.041   2.597 -0.8327  1.2492  0.4145
  743TIP3   OH223787   6.347   4.897   2.199  0.1900 -0.7337  0.1034
  743TIP3    H123788   6.441   4.890   2.188  0.0953 -1.1223 -0.4976
  743TIP3    H223789   6.320   4.812   2.233  0.1244 -0.4417  0.7894
  744TIP3   OH223790   6.383   0.283   0.712  0.2389 -0.3772  0.7663
  744TIP3    H123791   6.320   0.250   0.776  0.2737  0.1701  1.0900
  744TIP3    H223792   6.329   0.332   0.649  0.3323  0.0627  1.0244
  745TIP3   OH223793   0.984   5.517   8.187 -0.0927 -0.0429  0.3236
  745TIP3    H123794   0.953   5.454   8.252 -0.1490  0.0469  0.3827
  745TIP3    H223795   1.004   5.596   8.237 -1.5081  0.5195  0.0371
  746TIP3   OH223796   2.515   2.377   2.819 -0.1721 -0.2026  0.0622
  746TIP3    H123797   2.577   2.374   2.746  0.9652 -0.2707  1.0020
  746TIP3    H223798   2.565   2.413   2.892 -1.3384  0.0494  0.7677
  747TIP3   OH223799   3.476   2.097   1.056 -0.5861 -0.1613  0.2048
  747TIP3    H123800   3.406   2.143   1.103 -1.7065 -2.1546  0.6093
  747TIP3    H223801   3.432   2.027   1.008  0.8539  0.1711 -1.7292
  748TIP3   OH223802   0.078   1.052   1.960  0.1695 -0.4717 -0.2562
  748TIP3    H123803   0.120   0.973   1.925  0.6125 -1.4982  2.3555
  748TIP3    H223804   0.063   1.032   2.052 -1.7443  1.7079 -0.0201
  749TIP3   OH223805   2.424   5.834   8.045 -0.1844 -0.8308 -0.4633
  749TIP3    H123806   2.494   5.849   8.108  0.3002  0.2256 -1.2390
  749TIP3    H223807   2.418   5.738   8.039  1.1839 -0.9408 -0.3831
  750TIP3   OH223808   1.082   4.694   0.880 -0.0337 -0.0276 -0.2117
  750TIP3    H123809   1.048   4.629   0.818  1.9344 -0.6026 -0.7780
  750TIP3    H223810   1.176   4.677   0.882  0.3269  1.8576  0.7863
  751TIP3   OH223811   6.186   3.168   7.737 -0.5195  0.1734 -0.4630
  751TIP3    H123812   6.118   3.104   7.756 -0.4415  0.7945  2.4465
  751TIP3    H223813   6.268   3.118   7.739 -0.5700  0.1050  0.4837
  752TIP3   OH223814   2.241   3.796   0.182 -0.8062 -0.5050 -0.3327
  752TIP3    H123815   2.297   3.720   0.197  0.6451  0.5695 -0.0541
  752TIP3    H223816   2.289   3.869   0.223 -2.0922  0.5751 -0.6952
  753TIP3   OH223817   2.800   0.685   1.859 -0.4418 -0.0851 -1.0788
  753TIP3    H123818   2.716   0.702   1.903 -0.5830  0.4325 -1.5323
  753TIP3    H223819   2.862   0.743   1.903 -0.3248 -0.4433 -0.7661
  754TIP3   OH223820   4.857   4.040   0.572 -0.4366  0.6751 -0.5354
  754TIP3    H123821   4.840   4.072   0.484 -4.1130  0.7240  0.0415
  754TIP3    H223822   4.861   3.945   0.563 -0.7077  0.6865 -0.7527
  755TIP3   OH223823   0.334   2.466   8.225  0.0553 -0.0105 -0.4691
  755TIP3    H123824   0.339   2.424   8.139 -0.6402 -0.2386 -0.3982
  755TIP3    H223825   0.280   2.543   8.211 -2.4332 -1.4870  0.3031
  756TIP3   OH223826   0.769   1.949   0.397  0.1488  0.3419  0.1243
  756TIP3    H123827   0.789   1.878   0.457  3.0642 -0.1023 -1.2237
  756TIP3    H223828   0.759   1.907   0.312 -0.1243  1.3458 -0.3562
  757TIP3   OH223829   3.098   3.834   8.530 -0.5943  0.1808  0.5844
  757TIP3    H123830   3.170   3.788   8.487 -1.6783 -0.4543 -0.6143
  757TIP3    H223831   3.099   3.922   8.492  1.0227  1.0035  2.3481
  758TIP3   OH223832   0.691   4.698   2.238  0.1257  0.4656 -0.6947
  758TIP3    H123833   0.642   4.617   2.224 -0.6240  0.5546  1.1066
  758TIP3    H223834   0.653   4.735   2.318  1.2213  2.0171 -0.8566
  759TIP3   OH223835   1.282   5.157   7.197  0.4953 -0.5653  0.4902
  759TIP3    H123836   1.298   5.127   7.287  1.9816 -0.6173  0.2375
  759TIP3    H223837   1.342   5.105   7.144 -0.0569 -0.2218 -0.4861
  760TIP3   OH223838   2.966   1.282   0.198 -0.0556  0.5478 -0.7730
  760TIP3    H123839   2.914   1.225   0.255  0.0055 -1.0793 -2.2558
  760TIP3    H223840   2.909   1.303   0.125 -0.3327  3.1100  0.0977
  761TIP3   OH223841   3.750   6.038   7.743 -0.4273  0.2373  0.7231
  761TIP3    H123842   3.694   5.961   7.747 -0.4449  0.2783  1.3459
  761TIP3    H223843   3.725   6.090   7.819  1.0651 -0.1732  1.5298
  762TIP3   OH223844   3.042   2.344   0.649  0.9557 -0.2809  0.4804
  762TIP3    H123845   3.047   2.437   0.670  3.3342 -0.6551  2.0327
  762TIP3    H223846   3.040   2.341   0.554  0.1962  1.3483  0.4066
  763TIP3   OH223847   3.786   4.561   1.453 -0.1662 -0.4703 -0.0650
  763TIP3    H123848   3.879   4.539   1.455 -0.3710 -1.3739 -0.3155
  763TIP3    H223849   3.769   4.584   1.362 -0.3731 -1.1433 -0.2004
  764TIP3   OH223850   1.406   1.718   8.757  0.1104 -0.5466  0.5627
  764TIP3    H123851   1.370   1.733   8.669  1.1624 -1.5181 -0.0540
  764TIP3    H223852   1.333   1.679   8.806 -0.7239  0.7005  0.3693
  765TIP3   OH223853   6.412   1.939   3.318 -0.5543  0.3125  0.4475
  765TIP3    H123854   6.338   1.984   3.359 -0.0755  0.1998  1.4736
  765TIP3    H223855   6.401   1.847   3.344 -0.2523  0.2316  0.2983
  766TIP3   OH223856   1.740   0.947   0.257  0.2461 -0.3185 -0.0626
  766TIP3    H123857   1.770   0.902   0.179  1.2307  0.2480 -0.0253
  766TIP3    H223858   1.819   0.963   0.308 -0.0275  1.6707 -0.2002
  767TIP3   OH223859   6.271   6.518   7.452 -0.3005  0.5641  0.2218
  767TIP3    H123860   6.187   6.509   7.408 -0.3043  0.5929  0.2229
  767TIP3    H223861   6.334   6.478   7.393 -0.4245 -0.1985  0.5826
  768TIP3   OH223862   5.113   5.159   0.758  0.7173  0.0008  0.7037
  768TIP3    H123863   5.189   5.113   0.793  0.6846  0.1870  1.0328
  768TIP3    H223864   5.085   5.216   0.830 -0.8429 -1.3781  1.2587
  769TIP3   OH223865   1.601   5.740   7.291 -0.2856 -0.1096 -0.0353
  769TIP3    H123866   1.664   5.706   7.228  0.0347  0.5781 -0.1068
  769TIP3    H223867   1.617   5.690   7.371  0.6832  0.3536  0.0834
  770TIP3   OH223868   6.018   4.172   6.945 -0.1904 -0.1859 -0.8081
  770TIP3    H123869   6.080   4.191   6.875  1.0502  0.5805  0.4398
  770TIP3    H223870   5.982   4.258   6.969  1.9502  0.1750  1.7034
  771TIP3   OH223871   3.458   2.118   1.680  0.3366  0.2999 -0.2696
  771TIP3    H123872   3.472   2.024   1.690 -0.1798  0.1051 -1.2804
  771TIP3    H223873   3.488   2.155   1.763  0.8469 -0.7182  0.0208
  772TIP3   OH223874   0.916   0.494   7.358  0.1025  0.1237 -0.4597
  772TIP3    H123875   0.977   0.515   7.287 -0.3374 -0.9802 -1.1877
  772TIP3    H223876   0.829   0.500   7.318 -0.1713 -0.1050  0.0943
  773TIP3   OH223877   5.620   5.753   0.876 -0.2028 -0.0921 -0.2673
  773TIP3    H123878   5.607   5.847   0.887 -1.0583  0.1074 -2.3426
  773TIP3    H223879   5.699   5.746   0.822  0.5223 -0.6505  0.8303
  774TIP3   OH223880   1.530   3.453   0.139 -0.2380  0.6030  0.3625
  774TIP3    H123881   1.614   3.472   0.097 -0.4562  0.8201  0.0175
  774TIP3    H223882   1.502   3.370   0.100 -0.7090  1.0827 -0.3564
  775TIP3   OH223883   6.184   2.030   2.347 -0.3381  0.0643 -0.2263
  775TIP3    H123884   6.220   2.039   2.436 -0.0669 -0.0041 -0.3281
  775TIP3    H223885   6.090   2.021   2.360 -0.2966  0.0334  0.0568
  776TIP3   OH223886   3.850   4.931   8.514 -0.2714 -0.1600 -0.0895
  776TIP3    H123887   3.926   4.875   8.531 -2.2152 -3.1321 -0.2987
  776TIP3    H223888   3.829   4.969   8.599  1.9481  1.5608 -0.2235
  777TIP3   OH223889   5.748   6.758   2.964 -0.7305 -0.3277 -0.0583
  777TIP3    H123890   5.833   6.803   2.960 -1.3738  0.9752  0.4226
  777TIP3    H223891   5.738   6.733   3.056 -1.6466  1.1433  0.2756
  778TIP3   OH223892   6.481   5.423   1.892  0.4951  0.4180 -0.3843
  778TIP3    H123893   6.515   5.338   1.922 -0.4152  1.0167  2.6296
  778TIP3    H223894   6.386   5.415   1.901  0.3750  1.6102 -0.5276
  779TIP3   OH223895   3.934   3.285   0.784  0.5798  0.4720 -0.0256
  779TIP3    H123896   3.945   3.330   0.700  0.7269 -0.6053 -0.6077
  779TIP3    H223897   3.986   3.337   0.846  1.1980  0.7887 -0.7887
  780TIP3   OH223898   2.569   4.284   2.269  0.0439  0.7346  0.3533
  780TIP3    H123899   2.604   4.372   2.253 -0.0084  0.4369 -1.7119
  780TIP3    H223900   2.634   4.226   2.230 -0.1163 -0.1430  1.3562
  781TIP3   OH223901   2.325   1.401   1.781  0.0463 -0.6132  0.3449
  781TIP3    H123902   2.301   1.427   1.870  0.2821 -2.5225  1.0055
  781TIP3    H223903   2.361   1.313   1.790  0.6997 -0.5930 -1.5649
  782TIP3   OH223904   3.576   5.000   0.283 -0.2101  0.3002  0.4349
  782TIP3    H123905   3.502   5.016   0.341 -1.9492 -0.4019 -1.4880
  782TIP3    H223906   3.541   5.013   0.195  2.2245  0.9197 -0.5151
  783TIP3   OH223907   5.013   4.311   7.545  0.1206 -0.6745 -0.0459
  783TIP3    H123908   5.035   4.377   7.612 -0.5167  1.9263 -2.2216
  783TIP3    H223909   4.929   4.276   7.573 -1.4127  2.2322 -0.6424
  784TIP3   OH223910   2.806   1.702   2.216  0.3709 -0.3372 -0.0528
  784TIP3    H123911   2.772   1.789   2.196  0.6450 -0.2910 -0.3191
  784TIP3    H223912   2.735   1.659   2.266  0.1975 -0.0014 -0.0089
  785TIP3   OH223913   4.768   5.831   0.101  0.1684  0.2676  0.3310
  785TIP3    H123914   4.811   5.760   0.149  0.3536  0.4869  0.4898
  785TIP3    H223915   4.739   5.790   0.020  0.8857  0.1788  0.1148
  786TIP3   OH223916   2.575   2.876   0.579 -0.4274  0.6561  0.2283
  786TIP3    H123917   2.592   2.802   0.521 -2.0120 -0.5612  1.2673
  786TIP3    H223918   2.524   2.937   0.524  0.4394  0.7759 -0.4688
  787TIP3   OH223919   6.686   2.389   0.237 -0.0419 -0.3042 -0.1948
  787TIP3    H123920   6.711   2.309   0.191 -0.6488  0.5358 -2.1186
  787TIP3    H223921   6.595   2.403   0.210  0.5157  1.8226 -1.1693
  788TIP3   OH223922   2.664   1.095   2.039  0.0071  0.3967 -0.2711
  788TIP3    H123923   2.739   1.126   1.987 -0.0659  1.5908  0.2883
  788TIP3    H223924   2.587   1.124   1.989 -0.0668  1.8191  0.5907
  789TIP3   OH223925   1.095   5.826   0.622  0.0360 -0.2717  0.1065
  789TIP3    H123926   1.077   5.885   0.549  0.8954 -2.7065 -2.2661
  789TIP3    H223927   1.029   5.757   0.614 -0.8415  0.1488  2.6873
  790TIP3   OH223928   4.473   5.503   2.396 -0.1372 -0.3540 -0.3369
  790TIP3    H123929   4.377   5.509   2.405  0.0610  2.0052  0.9048
  790TIP3    H223930   4.499   5.441   2.464 -0.6774 -0.1799  0.0381
  791TIP3   OH223931   2.134   1.157   1.199 -0.1032 -0.2375  0.0757
  791TIP3    H123932   2.060   1.207   1.166  1.0187  0.0718 -2.0876
  791TIP3    H223933   2.106   1.066   1.192 -0.2453 -0.1275 -0.8133
  792TIP3   OH223934   2.896   1.870   8.206  0.1902 -0.4556 -0.2537
  792TIP3    H123935   2.924   1.779   8.201 -1.1067 -0.9198  0.5728
  792TIP3    H223936   2.804   1.869   8.178  0.5196  0.8113 -1.5270
  793TIP3   OH223937   6.414   4.755   0.673 -0.2407  0.4148 -0.4250
  793TIP3    H123938   6.324   4.780   0.695 -0.5935 -0.6847 -0.5767
  793TIP3    H223939   6.405   4.673   0.625  0.8395  0.3876 -0.5925
  794TIP3   OH223940   1.718   1.699   8.498 -0.1908  0.0737  0.2351
  794TIP3    H123941   1.723   1.604   8.485  0.1753  0.3608 -2.3169
  794TIP3    H223942   1.782   1.735   8.436  0.1596  1.9830  1.6208
  795TIP3   OH223943   5.856   4.011   3.252 -0.1912  0.5194 -0.0981
  795TIP3    H123944   5.932   4.020   3.195  0.2696  2.4660  0.7344
  795TIP3    H223945   5.801   3.946   3.209  1.3649 -0.0087 -1.3640
  796TIP3   OH223946   3.537   2.536   1.309 -0.5525 -0.2197 -0.5660
  796TIP3    H123947   3.529   2.624   1.272  1.1514  0.2345  0.0203
  796TIP3    H223948   3.503   2.545   1.398  0.1134  0.0009 -0.3264
  797TIP3   OH223949   5.548   2.496   0.684 -0.1275 -0.9567  0.2229
  797TIP3    H123950   5.608   2.525   0.752  1.6009 -1.0917 -1.1905
  797TIP3    H223951   5.575   2.406   0.665 -2.3819 -1.9382  1.2334
  798TIP3   OH223952   2.152   3.290   1.042 -0.2726 -0.2112 -0.4163
  798TIP3    H123953   2.136   3.362   0.982 -1.2166 -0.1993 -0.1723
  798TIP3    H223954   2.066   3.271   1.080  0.2140 -0.5253  0.5731
  799TIP3   OH223955   6.237   2.462   7.417 -0.8264 -0.0344 -0.1691
  799TIP3    H123956   6.159   2.406   7.416 -0.3916 -0.8835  2.8447
  799TIP3    H223957   6.278   2.448   7.331 -2.3382 -2.0151 -0.6457
  800TIP3   OH223958   0.131   6.190   1.979 -0.3908 -0.1610  0.2545
  800TIP3    H123959   0.162   6.166   2.066 -0.0621 -0.7804 -0.0197
  800TIP3    H223960   0.197   6.153   1.920 -2.1627 -2.4625 -0.4201
  801TIP3   OH223961   2.754   5.003   7.946  0.6298  0.4284 -0.0657
  801TIP3    H123962   2.730   5.061   8.017  1.9665  1.2105 -0.2222
  801TIP3    H223963   2.830   4.955   7.978 -1.0417 -2.0486  0.4569
  802TIP3   OH223964   0.827   6.412   2.712 -0.1135  0.2169 -0.0349
  802TIP3    H123965   0.742   6.454   2.715  0.3308  1.3190 -1.7313
  802TIP3    H223966   0.860   6.420   2.802 -1.8511 -0.4504  0.7088
  803TIP3   OH223967   2.074   0.642   1.070 -0.0437 -0.5409 -0.0582
  803TIP3    H123968   2.025   0.715   1.107  0.2585 -0.9884  1.2989
  803TIP3    H223969   2.041   0.565   1.116  0.3642 -1.1342 -0.7327
  804TIP3   OH223970   0.771   3.881   0.596  0.2829  0.7319  0.0747
  804TIP3    H123971   0.728   3.932   0.665 -0.9196  0.0963 -0.1697
  804TIP3    H223972   0.775   3.940   0.521  1.7321  1.4772  0.6958
  805TIP3   OH223973   6.535   4.758   1.554  0.4546 -0.1908 -0.0897
  805TIP3    H123974   6.556   4.804   1.635  1.7941 -0.9378  0.0246
  805TIP3    H223975   6.447   4.788   1.531 -0.2022 -0.3722  1.9286
  806TIP3   OH223976   5.655   3.970   1.104  0.2539 -0.1708 -0.4701
  806TIP3    H123977   5.577   3.916   1.111 -0.3464  0.4372 -2.0167
  806TIP3    H223978   5.723   3.911   1.072 -0.3689 -0.0718 -2.0437
  807TIP3   OH223979   3.139   5.779   1.819  0.2092  0.0150  0.9434
  807TIP3    H123980   3.169   5.692   1.844  1.9946  0.5408  0.7961
  807TIP3    H223981   3.206   5.811   1.759 -2.1518  0.1471 -1.8640
  808TIP3   OH223982   6.513   4.086   0.061  0.0655 -0.5304 -0.4051
  808TIP3    H123983   6.515   4.020   0.130  1.1571 -1.5766 -1.3864
  808TIP3    H223984   6.438   4.062   0.007  0.1422 -0.6586 -0.4562
  809TIP3   OH223985   6.723   1.259   0.213  0.2068  0.4469 -0.1997
  809TIP3    H123986   6.633   1.270   0.242 -0.6540 -2.6113 -1.3083
  809TIP3    H223987   6.752   1.178   0.256  1.0105 -0.7629 -2.8229
  810TIP3   OH223988   6.669   5.948   8.397  0.0331  0.2926  0.2155
  810TIP3    H123989   6.639   5.930   8.486  1.1245  1.1732  0.7906
  810TIP3    H223990   6.594   5.988   8.353 -0.0363  1.3480  1.2513
  811TIP3   OH223991   3.615   0.642   0.568 -0.1641 -0.4181  0.4598
  811TIP3    H123992   3.698   0.615   0.530 -0.1515  0.6018 -0.2798
  811TIP3    H223993   3.550   0.617   0.502 -0.8183 -3.6368  2.1271
  812TIP3   OH223994   0.707   4.060   1.862 -0.5332 -0.2636 -0.4994
  812TIP3    H123995   0.781   3.999   1.868 -0.0189  0.3746 -0.1495
  812TIP3    H223996   0.633   4.006   1.838 -0.1059 -1.0463 -0.0865
  813TIP3   OH223997   3.227   1.157   0.321  0.0961  0.2208  0.2936
  813TIP3    H123998   3.239   1.121   0.233 -1.6859  0.8097 -0.2386
  813TIP3    H223999   3.152   1.111   0.356  0.5035  0.3292  1.3406
  814TIP3   OH224000   1.663   5.467   8.696  0.1967 -0.0211  0.4549
  814TIP3    H124001   1.687   5.510   8.778  1.3258 -0.3909  0.3271
  814TIP3    H224002   1.703   5.520   8.628  2.2100 -1.5727  0.3220
  815TIP3   OH224003   2.683   4.720   7.492  0.5755 -0.1759 -0.5846
  815TIP3    H124004   2.626   4.737   7.417  1.2090  0.4942 -0.9235
  815TIP3    H224005   2.662   4.789   7.554  0.9886  0.0623 -0.7023
  816TIP3   OH224006   0.213   1.285   7.651 -0.1554  0.4955 -0.0811
  816TIP3    H124007   0.253   1.245   7.573  2.7146  1.5643  0.7065
  816TIP3    H224008   0.176   1.367   7.619 -1.2371 -0.2298 -0.7366
  817TIP3   OH224009   4.675   1.747   1.861  0.3715  0.4326 -0.4084
  817TIP3    H124010   4.661   1.714   1.950 -1.2470  1.6656 -0.1613
  817TIP3    H224011   4.724   1.829   1.873  2.1247 -0.4860 -0.8508
  818TIP3   OH224012   4.889   3.980   0.289  0.3379 -0.1813 -0.1817
  818TIP3    H124013   4.803   3.939   0.296  0.2699  0.2358  2.0425
  818TIP3    H224014   4.949   3.918   0.330  0.9544 -0.0086 -0.7993
  819TIP3   OH224015   4.689   0.336   8.288 -0.1446  0.2787  0.0533
  819TIP3    H124016   4.634   0.309   8.215  1.4946  2.3512 -2.1000
  819TIP3    H224017   4.697   0.431   8.277  0.8505  0.5309  2.4808
  820TIP3   OH224018   1.110   0.858   2.086  0.1235  0.1463 -0.6249
  820TIP3    H124019   1.142   0.800   2.017  0.6652 -1.1802  0.6857
  820TIP3    H224020   1.079   0.936   2.040  1.7886 -0.0887 -2.2469
  821TIP3   OH224021   5.491   6.448   1.974 -0.5698  0.4981 -0.2919
  821TIP3    H124022   5.566   6.391   1.992  1.3269  3.2110  1.1853
  821TIP3    H224023   5.439   6.444   2.054 -0.0210  1.3759  0.1193
  822TIP3   OH224024   5.097   5.735   7.939 -0.5574  0.1514 -0.1931
  822TIP3    H124025   5.162   5.693   7.995  1.0345  0.5987 -1.6167
  822TIP3    H224026   5.061   5.663   7.886  0.8620  0.2682 -1.3712
  823TIP3   OH224027   6.266   4.287   6.800 -0.2866  0.2836 -0.3545
  823TIP3    H124028   6.291   4.194   6.800 -1.8084 -0.1576  0.8194
  823TIP3    H224029   6.324   4.327   6.865 -0.6700 -0.1653  0.2737
  824TIP3   OH224030   2.507   4.054   0.166  0.2763 -0.1682  0.7494
  824TIP3    H124031   2.458   4.113   0.224 -0.8530 -0.4112  0.0786
  824TIP3    H224032   2.536   4.110   0.094  0.8980 -0.0559  1.0731
  825TIP3   OH224033   0.700   2.040   0.755 -0.0840 -0.1230 -0.5778
  825TIP3    H124034   0.774   2.031   0.694 -0.9827 -1.3687 -1.5296
  825TIP3    H224035   0.692   1.954   0.796 -0.3860  0.2972  0.2785
  826TIP3   OH224036   1.503   5.767   7.843  0.1458  0.0526 -0.1677
  826TIP3    H124037   1.589   5.769   7.801 -0.4034  0.6443 -1.3334
  826TIP3    H224038   1.447   5.820   7.785 -1.4773 -1.9096 -0.5262
  827TIP3   OH224039   3.348   0.852   8.665  0.3209  0.2055 -0.3466
  827TIP3    H124040   3.395   0.797   8.603 -0.0118  2.3309 -2.6770
  827TIP3    H224041   3.273   0.800   8.691  1.4253 -1.4371 -0.2889
  828TIP3   OH224042   4.486   0.493   1.857  0.5180  0.1158 -0.0312
  828TIP3    H124043   4.522   0.412   1.892 -1.1092 -0.3075  0.7423
  828TIP3    H224044   4.430   0.527   1.926 -0.4431  0.8148 -1.1096
  829TIP3   OH224045   6.281   2.236   2.834 -0.1674 -0.4209  0.2955
  829TIP3    H124046   6.190   2.258   2.853 -0.2966 -0.8933  0.2383
  829TIP3    H224047   6.329   2.318   2.845 -0.8157  0.1755 -1.1037
  830TIP3   OH224048   5.631   4.326   8.332  0.2339  0.1050 -0.3896
  830TIP3    H124049   5.618   4.320   8.237  3.5782  0.9999 -1.0397
  830TIP3    H224050   5.568   4.264   8.368 -2.1236  0.7334 -3.0423
  831TIP3   OH224051   0.322   2.225   7.759 -0.2671 -0.6067  0.0184
  831TIP3    H124052   0.331   2.130   7.752 -1.7620 -0.7936  0.2883
  831TIP3    H224053   0.303   2.254   7.670  2.1675 -0.2729 -0.4580
  832TIP3   OH224054   1.345   0.952   1.035 -0.3509  0.5419 -0.1833
  832TIP3    H124055   1.428   0.974   1.078 -0.1641  0.3881 -0.4608
  832TIP3    H224056   1.358   0.978   0.944  0.5740 -2.3717 -0.9847
  833TIP3   OH224057   4.796   6.081   8.685 -0.1800 -0.0358 -0.2056
  833TIP3    H124058   4.736   6.015   8.720  1.1181 -0.6507  0.9476
  833TIP3    H224059   4.814   6.051   8.596  1.6450 -2.2191  0.7952
  834TIP3   OH224060   3.835   1.420   0.969  0.0068  0.2448  0.2231
  834TIP3    H124061   3.836   1.515   0.953 -0.9959  0.5749  1.8886
  834TIP3    H224062   3.743   1.395   0.957 -0.0085 -0.2275  1.2627
  835TIP3   OH224063   2.422   2.976   0.916  0.1203 -0.5096 -0.0693
  835TIP3    H124064   2.508   2.941   0.890 -0.8662 -2.0092 -1.5834
  835TIP3    H224065   2.359   2.919   0.870 -1.7036 -0.0230  1.7016
  836TIP3   OH224066   0.312   5.777   8.638 -0.2740  0.0350 -0.1553
  836TIP3    H124067   0.295   5.848   8.576  1.0241  0.7232  0.2421
  836TIP3    H224068   0.372   5.815   8.702  0.5442 -1.4498 -0.0033
  837TIP3   OH224069   1.262   3.775   7.820  0.3045  0.3528 -0.0902
  837TIP3    H124070   1.302   3.860   7.803 -0.2683  0.5321 -0.5711
  837TIP3    H224071   1.256   3.770   7.916 -2.1828  2.0752 -0.0567
  838TIP3   OH224072   0.987   2.618   2.130  0.3441 -0.1734 -0.2149
  838TIP3    H124073   1.034   2.551   2.080  0.5633 -0.5288  0.4583
  838TIP3    H224074   0.909   2.573   2.163 -0.1559  0.2445 -0.7971
  839TIP3   OH224075   5.934   6.548   8.353  0.0780 -0.1692 -0.1551
  839TIP3    H124076   5.923   6.456   8.373 -0.3647  0.0107  0.4592
  839TIP3    H224077   5.993   6.550   8.277  1.6679 -0.8785  1.0119
  840TIP3   OH224078   3.700   6.723   8.672  0.0330 -0.0264  0.0782
  840TIP3    H124079   3.673   6.811   8.694  0.7394  0.1426  0.3065
  840TIP3    H224080   3.724   6.683   8.756  1.3960  0.1583 -0.1933
  841TIP3   OH224081   5.850   4.647   8.513  0.1237 -0.6379  0.1146
  841TIP3    H124082   5.861   4.621   8.604 -3.3273 -0.2396  0.7768
  841TIP3    H224083   5.801   4.574   8.473  1.2918 -0.6605 -1.3708
  842TIP3   OH224084   0.521   4.859   0.477 -0.9048  0.5732 -0.2643
  842TIP3    H124085   0.485   4.837   0.563 -0.3830 -1.5385 -0.5461
  842TIP3    H224086   0.452   4.834   0.415 -0.9201  1.2483 -0.5300
  843TIP3   OH224087   5.564   1.891   1.916 -0.6567 -0.1078 -0.4069
  843TIP3    H124088   5.549   1.805   1.877 -3.1108  0.5729 -1.1027
  843TIP3    H224089   5.483   1.911   1.962 -0.2312  1.9393 -0.4612
  844TIP3   OH224090   1.903   6.194   0.743  0.2955 -0.0271 -0.5068
  844TIP3    H124091   1.943   6.141   0.812 -2.4267 -3.3916 -1.2556
  844TIP3    H224092   1.869   6.271   0.789  1.3009 -0.6045  1.3175
  845TIP3   OH224093   3.948   0.306   8.074  0.1146 -0.1149 -0.0895
  845TIP3    H124094   3.885   0.294   8.003 -1.1004 -0.6087  1.0332
  845TIP3    H224095   3.961   0.401   8.079  1.7312 -0.1360 -2.1900
  846TIP3   OH224096   6.779   3.512   0.390 -0.6927 -0.0264 -0.0577
  846TIP3    H124097   6.813   3.533   0.477  2.4721  1.2722 -1.4369
  846TIP3    H224098   6.816   3.426   0.370 -0.7318  0.0355 -0.3994
  847TIP3   OH224099   5.959   0.781   6.762  0.4704 -0.0303 -0.0184
  847TIP3    H124100   6.055   0.781   6.753  0.4462  0.6198 -0.2742
  847TIP3    H224101   5.931   0.705   6.710  0.8245 -0.0653 -0.1659
  848TIP3   OH224102   4.100   0.960   0.668  0.0937 -0.2178  0.3514
  848TIP3    H124103   4.094   0.989   0.759  2.6046  1.7602  0.0199
  848TIP3    H224104   4.067   1.034   0.617  0.8439 -0.3679 -0.3764
  849TIP3   OH224105   2.666   2.893   0.821 -0.0984 -0.0411  0.1900
  849TIP3    H124106   2.760   2.878   0.825  0.0889  0.5944 -1.1105
  849TIP3    H224107   2.645   2.884   0.728 -1.2072  0.4832  0.3740
  850TIP3   OH224108   5.027   6.002   7.586  0.2123  0.4559  1.0356
  850TIP3    H124109   5.028   6.064   7.658  0.1698  1.4673  0.1859
  850TIP3    H224110   5.117   5.969   7.581  0.6808  1.7502  0.4192
  851TIP3   OH224111   3.273   1.134   2.026  0.8194  0.7640 -0.6345
  851TIP3    H124112   3.301   1.223   2.007  1.4687  0.7475  0.1981
  851TIP3    H224113   3.209   1.143   2.097  1.5278  0.5033  0.0424
  852TIP3   OH224114   0.890   5.126   0.287  0.2915  0.1827  0.3316
  852TIP3    H124115   0.885   5.173   0.370  0.7186  1.0090 -0.0970
  852TIP3    H224116   0.801   5.092   0.273  0.6958 -1.8950  2.1886
  853TIP3   OH224117   0.406   2.701   7.534 -0.2929 -0.0296 -0.1834
  853TIP3    H124118   0.387   2.685   7.627 -2.2415 -0.8076 -0.6652
  853TIP3    H224119   0.462   2.628   7.508  2.0130  1.2837  0.8239
  854TIP3   OH224120   3.437   4.964   2.158  0.4137 -0.2239  0.0192
  854TIP3    H124121   3.495   5.000   2.226 -0.8590  0.3989  0.8294
  854TIP3    H224122   3.363   4.928   2.207 -0.4542  0.0797 -1.0373
  855TIP3   OH224123   4.503   0.396   2.855  0.7837  0.2726 -0.7260
  855TIP3    H124124   4.593   0.396   2.888  0.5075 -1.4536  0.1174
  855TIP3    H224125   4.451   0.430   2.928  0.7640  1.8360 -1.4125
  856TIP3   OH224126   3.848   4.754   1.638 -0.5372  0.2264 -0.0814
  856TIP3    H124127   3.807   4.728   1.721 -0.6900  0.7156  0.0009
  856TIP3    H224128   3.847   4.674   1.585 -0.4735 -0.0808  0.3730
  857TIP3   OH224129   4.478   1.794   8.545 -0.3423  0.3128  0.0727
  857TIP3    H124130   4.388   1.827   8.542 -1.2175 -1.8887  0.2643
  857TIP3    H224131   4.490   1.766   8.636  0.6010  0.7007  0.0822
  858TIP3   OH224132   4.324   1.506   8.115  0.5022  0.0926  0.2846
  858TIP3    H124133   4.352   1.415   8.122 -0.2515 -0.1958 -0.3175
  858TIP3    H224134   4.325   1.524   8.021  3.3155  1.5861  0.4883
  859TIP3   OH224135   6.388   1.874   7.376  0.3164  0.8591 -0.4877
  859TIP3    H124136   6.390   1.853   7.282  0.4249  0.1245 -0.3272
  859TIP3    H224137   6.366   1.967   7.379  0.8951  1.0381 -1.2660
  860TIP3   OH224138   1.652   3.927   0.602  0.0100 -0.5395 -0.5911
  860TIP3    H124139   1.602   3.944   0.682 -0.0353  0.9158 -0.9113
  860TIP3    H224140   1.602   3.860   0.556  0.7814 -2.4955  1.2549
  861TIP3   OH224141   6.193   6.682   1.394 -0.1292  0.2240 -0.8028
  861TIP3    H124142   6.204   6.603   1.447  0.4542  0.4462 -0.5770
  861TIP3    H224143   6.133   6.657   1.324 -0.8464 -0.0988 -0.0870
  862TIP3   OH224144   5.305   1.381   1.000 -0.2454 -0.0067 -0.0837
  862TIP3    H124145   5.328   1.407   0.911 -0.3865  0.7865  0.1061
  862TIP3    H224146   5.385   1.342   1.035  0.1205  0.6176 -0.2112
  863TIP3   OH224147   1.421   5.527   7.929  0.4085 -0.0322 -0.8676
  863TIP3    H124148   1.445   5.618   7.911  0.4563  0.7059  2.2945
  863TIP3    H224149   1.501   5.489   7.966  0.0286 -1.0059 -1.0407
  864TIP3   OH224150   3.246   4.709   1.533 -0.4156  0.2660 -0.2374
  864TIP3    H124151   3.260   4.622   1.497 -0.1354 -0.2110  0.9775
  864TIP3    H224152   3.195   4.755   1.466 -2.4559 -1.5073 -0.0244
  865TIP3   OH224153   2.582   1.576   0.707  0.3265 -0.3450 -0.0412
  865TIP3    H124154   2.600   1.530   0.789  1.0137  0.2882  0.1698
  865TIP3    H224155   2.667   1.582   0.664  0.1479  0.2270 -0.3237
  866TIP3   OH224156   0.477   5.453   8.428  0.2328 -0.2340 -0.4717
  866TIP3    H124157   0.393   5.499   8.418 -0.7143 -1.8972 -0.5211
  866TIP3    H224158   0.543   5.517   8.401 -1.2253  0.1041 -3.7610
  867TIP3   OH224159   5.681   4.749   2.054  1.1322 -0.8146 -0.2978
  867TIP3    H124160   5.664   4.715   1.966  0.0055 -0.0485 -0.4069
  867TIP3    H224161   5.653   4.679   2.113  1.2023 -1.0436 -0.5324
  868TIP3   OH224162   1.134   1.820   0.780  0.4554 -0.2753 -0.4540
  868TIP3    H124163   1.145   1.846   0.872  1.0084 -0.3158 -0.5052
  868TIP3    H224164   1.080   1.742   0.783 -1.3143  0.9103 -0.2977
  869TIP3   OH224165   6.242   2.203   8.039  0.2385  0.2115  0.5717
  869TIP3    H124166   6.234   2.280   8.096  1.5348 -0.2040  1.3500
  869TIP3    H224167   6.186   2.137   8.080 -0.0549  0.3951  0.4772
  870TIP3   OH224168   2.551   2.770   2.797  0.2640  0.2091 -0.4611
  870TIP3    H124169   2.560   2.791   2.890 -2.7650  1.1458 -0.2743
  870TIP3    H224170   2.518   2.851   2.757  1.5701 -0.1538 -2.4134
  871TIP3   OH224171   0.518   0.451   0.103  0.1675  0.3944 -0.1603
  871TIP3    H124172   0.515   0.540   0.138  2.6935  0.0883  1.0862
  871TIP3    H224173   0.518   0.394   0.180 -1.0113 -0.6957 -0.9233
  872TIP3   OH224174   5.204   2.034   1.745  0.0055  0.0050  0.4600
  872TIP3    H124175   5.247   2.118   1.735  0.1143 -0.2022 -0.9513
  872TIP3    H224176   5.162   2.039   1.831  1.7322  0.7005  1.3329
  873TIP3   OH224177   2.160   6.427   8.023  0.1135  0.0547 -0.2021
  873TIP3    H124178   2.118   6.511   8.037 -0.1211  0.0955 -1.0821
  873TIP3    H224179   2.153   6.411   7.929  1.2615 -0.3675 -0.2441
  874TIP3   OH224180   2.619   0.961   8.059  0.0823  0.2053 -0.6404
  874TIP3    H124181   2.620   0.987   7.967  1.2254  2.7957  0.0144
  874TIP3    H224182   2.712   0.961   8.085  0.0892 -3.4346 -0.1513
  875TIP3   OH224183   4.382   6.117   0.106 -0.7769  0.1742 -0.4109
  875TIP3    H124184   4.376   6.194   0.163  0.9071 -0.6683  0.9797
  875TIP3    H224185   4.291   6.102   0.078 -1.3849  1.6691  0.6105
  876TIP3   OH224186   2.426   3.413   2.021 -0.7540 -0.1617  0.1203
  876TIP3    H124187   2.498   3.398   2.082 -2.2906 -0.3772  1.9811
  876TIP3    H224188   2.392   3.326   2.001 -1.2388 -0.0044  0.2241
  877TIP3   OH224189   3.115   2.809   1.706 -0.3348  0.2472  0.0524
  877TIP3    H124190   3.064   2.868   1.762 -1.3654 -0.5435 -0.0182
  877TIP3    H224191   3.099   2.722   1.742  1.0165 -0.0319  0.0429
  878TIP3   OH224192   2.505   5.869   2.460 -0.1087 -0.1328 -0.0615
  878TIP3    H124193   2.453   5.838   2.533 -0.3192 -0.6417 -0.4183
  878TIP3    H224194   2.457   5.945   2.426 -0.5830 -0.5524 -0.3402
  879TIP3   OH224195   6.552   6.234   0.924  0.0357 -0.7374  0.1227
  879TIP3    H124196   6.601   6.238   0.842 -1.2853  2.2842 -0.6678
  879TIP3    H224197   6.617   6.249   0.992  0.6430  0.7180 -0.7225
  880TIP3   OH224198   4.192   0.854   1.790  0.1934 -0.2864 -0.6292
  880TIP3    H124199   4.126   0.796   1.828 -2.5164  2.0538 -1.3402
  880TIP3    H224200   4.192   0.930   1.848  0.9349  0.5300 -1.6612
  881TIP3   OH224201   5.561   2.684   8.153  0.3369  0.6194  0.5635
  881TIP3    H124202   5.645   2.660   8.115  0.0232  1.3053 -0.6161
  881TIP3    H224203   5.559   2.780   8.148 -0.3690  0.6326  0.9039
  882TIP3   OH224204   5.082   2.201   7.123  0.0611 -0.3352 -0.5080
  882TIP3    H124205   5.010   2.142   7.145 -0.0104  1.0196  3.6529
  882TIP3    H224206   5.042   2.269   7.068 -1.1774 -1.0351 -0.5032
  883TIP3   OH224207   6.438   5.214   0.232 -0.8057 -0.2666  0.1789
  883TIP3    H124208   6.423   5.309   0.242 -0.6542 -0.3750  1.7769
  883TIP3    H224209   6.383   5.174   0.299  2.2318 -1.0125  2.4486
  884TIP3   OH224210   2.500   2.465   0.238 -0.1643 -0.5113 -0.3648
  884TIP3    H124211   2.515   2.431   0.150 -1.7424 -2.4534  0.0411
  884TIP3    H224212   2.516   2.390   0.295 -0.6167  0.3095  0.8715
  885TIP3   OH224213   2.948   1.182   8.698 -0.3954  1.0647  0.0979
  885TIP3    H124214   2.888   1.118   8.736  1.6948  0.4386  2.5708
  885TIP3    H224215   3.034   1.143   8.710  0.7929  3.5054 -0.1264
  886TIP3   OH224216   2.938   2.503   2.531 -0.6946  0.2237 -0.5497
  886TIP3    H124217   2.947   2.548   2.448 -0.9634 -0.3982 -0.9204
  886TIP3    H224218   2.883   2.426   2.512 -1.6026  0.6087  0.3952
  887TIP3   OH224219   1.561   5.986   1.670  0.3720 -0.0597  0.1473
  887TIP3    H124220   1.550   6.079   1.692 -1.8521 -0.1224 -0.5178
  887TIP3    H224221   1.569   5.985   1.574 -0.9005 -0.6288  0.0315
  888TIP3   OH224222   5.852   0.910   8.068 -0.3760 -0.2778  0.1635
  888TIP3    H124223   5.805   0.953   8.139 -1.5466  0.3844 -0.9685
  888TIP3    H224224   5.937   0.953   8.065 -0.8465  0.6806  0.2666
  889TIP3   OH224225   0.858   0.891   0.134  0.0931 -0.1554  0.1551
  889TIP3    H124226   0.926   0.831   0.103  0.1328  0.2001 -0.4596
  889TIP3    H224227   0.776   0.855   0.100  0.0225 -0.3149  0.4868
  890TIP3   OH224228   0.772   3.364   0.733 -0.1245 -0.3287  0.3533
  890TIP3    H124229   0.740   3.354   0.644  1.6633 -1.0215 -0.2627
  890TIP3    H224230   0.694   3.361   0.788 -1.4889  2.1346 -1.2824
  891TIP3   OH224231   1.667   0.819   1.014 -0.0471  0.0123  0.0272
  891TIP3    H124232   1.586   0.768   1.010 -0.2868  0.3780  0.1382
  891TIP3    H224233   1.719   0.787   0.941 -0.3460 -0.1384 -0.1253
  892TIP3   OH224234   2.250   4.626   7.224 -0.6090 -0.4306  0.1103
  892TIP3    H124235   2.157   4.634   7.204 -1.6970 -2.2484  3.5305
  892TIP3    H224236   2.269   4.533   7.215  0.6539 -0.2056  0.2497
  893TIP3   OH224237   0.696   2.158   8.090  0.4554  0.4125  0.4885
  893TIP3    H124238   0.714   2.177   7.998  1.4119  0.3440  0.6532
  893TIP3    H224239   0.697   2.244   8.133 -2.9239  0.8459  0.0086
  894TIP3   OH224240   1.573   3.776   1.059 -0.0868 -0.0942 -0.0666
  894TIP3    H124241   1.630   3.818   1.123  0.8166 -0.4114 -0.6357
  894TIP3    H224242   1.560   3.843   0.992 -0.1320 -0.1182 -0.0815
  895TIP3   OH224243   6.045   6.216   2.296 -0.0495 -0.1052 -0.2779
  895TIP3    H124244   5.966   6.270   2.285 -0.5020 -0.4604  1.0525
  895TIP3    H224245   6.046   6.160   2.218 -2.4666 -1.7573  0.7331
  896TIP3   OH224246   4.878   5.639   0.252 -0.1005  0.1035  0.0769
  896TIP3    H124247   4.868   5.544   0.250 -1.8784  0.2571 -0.5760
  896TIP3    H224248   4.972   5.654   0.247  0.1800 -1.6038 -0.3361
  897TIP3   OH224249   3.055   4.350   1.918 -0.4495  0.0632 -0.4664
  897TIP3    H124250   3.144   4.318   1.934 -0.7189 -1.7670 -2.2988
  897TIP3    H224251   3.065   4.414   1.847 -0.5502  0.2710 -0.2962
  898TIP3   OH224252   6.231   6.679   7.832 -0.5098 -0.4494  0.3287
  898TIP3    H124253   6.183   6.717   7.759  0.2466  0.1363  0.1224
  898TIP3    H224254   6.251   6.589   7.804  0.2391 -0.0582 -0.4179
  899TIP3   OH224255   2.185   2.576   0.132 -0.1434  0.5001  0.4486
  899TIP3    H124256   2.195   2.547   0.222 -0.0067 -0.4774  0.1237
  899TIP3    H224257   2.252   2.528   0.083 -1.6016 -0.6310 -0.5234
  900TIP3   OH224258   5.212   3.517   8.064  0.8344  0.1623 -0.5698
  900TIP3    H124259   5.166   3.591   8.105  0.9094 -0.7315  1.2088
  900TIP3    H224260   5.197   3.529   7.970 -1.7514  0.7578 -0.1638
  901TIP3   OH224261   5.459   2.501   1.181 -0.4388  0.4359 -0.0166
  901TIP3    H124262   5.498   2.587   1.168 -1.3619  0.9432  0.5239
  901TIP3    H224263   5.479   2.453   1.100 -0.9439  1.5484 -0.8168
  902TIP3   OH224264   1.974   0.800   0.188 -0.0907 -0.0632  0.4128
  902TIP3    H124265   2.047   0.863   0.187 -0.6548  0.5976  0.1339
  902TIP3    H224266   2.000   0.735   0.253 -0.0358  1.1185  1.6161
  903TIP3   OH224267   6.187   6.457   2.051  0.7684  0.5178 -0.8510
  903TIP3    H124268   6.160   6.396   1.982 -0.9315  1.0305 -0.6776
  903TIP3    H224269   6.283   6.454   2.049  0.7929 -2.9741 -0.1158
  904TIP3   OH224270   6.666   0.846   2.414 -0.2765 -0.0148 -0.0137
  904TIP3    H124271   6.702   0.829   2.327  0.1041 -0.3029  0.1939
  904TIP3    H224272   6.647   0.760   2.449  1.7134 -0.0707  1.0713
  905TIP3   OH224273   3.408   1.167   7.464  0.1331  0.1169 -0.0873
  905TIP3    H124274   3.465   1.130   7.396  1.9091 -1.9180  2.3189
  905TIP3    H224275   3.399   1.259   7.440  3.6215  0.3286 -1.2020
  906TIP3   OH224276   5.355   5.157   7.928  0.0030  0.0617  0.6229
  906TIP3    H124277   5.436   5.134   7.882  0.0506 -3.2890  2.1095
  906TIP3    H224278   5.297   5.188   7.859  1.7396  0.2800 -0.8288
  907TIP3   OH224279   1.998   0.245   8.689 -0.4242 -0.1706 -0.0420
  907TIP3    H124280   1.927   0.193   8.651  0.4408 -2.3287  1.1087
  907TIP3    H224281   1.966   0.268   8.776  0.6492 -2.1607  0.9442
  908TIP3   OH224282   6.092   3.013   0.934  0.2088  0.1462 -0.5277
  908TIP3    H124283   6.037   3.013   1.013 -1.0233  1.1953 -1.3320
  908TIP3    H224284   6.090   3.104   0.905  1.3850 -0.0587 -1.2767
  909TIP3   OH224285   5.674   3.137   8.423 -0.2334 -0.4533 -0.3517
  909TIP3    H124286   5.681   3.224   8.463  1.1068  0.1476 -1.7683
  909TIP3    H224287   5.592   3.139   8.375  0.3968  0.5415 -1.4410
  910TIP3   OH224288   3.210   6.599   7.877 -0.2527  0.1453 -0.4593
  910TIP3    H124289   3.164   6.666   7.827 -2.0244  0.2281  1.1626
  910TIP3    H224290   3.150   6.524   7.878  0.2501 -0.2717  0.5095
  911TIP3   OH224291   5.195   2.635   1.418  0.2869 -0.7170 -0.1942
  911TIP3    H124292   5.139   2.641   1.495  1.9178  3.3955  0.9563
  911TIP3    H224293   5.276   2.595   1.450  1.0505  1.2028  0.3998
  912TIP3   OH224294   1.944   2.204   7.962 -0.0383 -0.1324 -0.2333
  912TIP3    H124295   1.927   2.187   7.870 -0.3330 -1.3419  0.0240
  912TIP3    H224296   1.961   2.298   7.967 -2.0010  0.3180 -1.2293
  913TIP3   OH224297   3.009   6.811   8.377 -0.1081 -0.4856  0.0738
  913TIP3    H124298   2.931   6.758   8.391 -1.2300  0.4893 -2.0510
  913TIP3    H224299   2.988   6.895   8.418  0.3441 -0.6022  0.5599
  914TIP3   OH224300   4.215   0.246   6.640 -0.6038 -0.5022  0.1597
  914TIP3    H124301   4.279   0.188   6.681 -0.6924 -0.5409  0.2418
  914TIP3    H224302   4.131   0.220   6.677 -0.7505 -0.8844 -0.4339
  915TIP3   OH224303   4.668   0.816   1.543  0.3441 -0.0731 -0.0638
  915TIP3    H124304   4.579   0.836   1.573  0.0678 -0.7039 -0.4166
  915TIP3    H224305   4.706   0.900   1.520  0.9906  0.6059  3.0787
  916TIP3   OH224306   6.174   2.180   1.457  0.5075  0.3745 -0.3764
  916TIP3    H124307   6.206   2.152   1.372  0.3677 -1.2092  0.0535
  916TIP3    H224308   6.089   2.137   1.466  0.9989 -0.3779  0.9927
  917TIP3   OH224309   1.808   6.702   1.320 -0.0908  0.6673  0.1771
  917TIP3    H124310   1.838   6.793   1.325 -1.2336  1.0050  1.3394
  917TIP3    H224311   1.713   6.708   1.327 -0.2641 -0.5552 -0.8684
  918TIP3   OH224312   3.969   3.713   1.927 -0.1900 -0.9965 -0.3486
  918TIP3    H124313   3.890   3.706   1.873  0.3537 -2.6012 -1.0238
  918TIP3    H224314   4.000   3.802   1.915 -0.7222 -0.9887 -1.8069
  919TIP3   OH224315   4.251   5.245   1.275 -0.0395 -0.0686  0.0327
  919TIP3    H124316   4.273   5.338   1.283 -1.5555  0.1750  3.1342
  919TIP3    H224317   4.208   5.224   1.358  0.0915 -3.5346 -0.6362
  920TIP3   OH224318   6.271   3.753   8.443  0.3606  0.2372  0.3614
  920TIP3    H124319   6.291   3.734   8.352 -0.5336  1.9027 -0.2194
  920TIP3    H224320   6.178   3.732   8.452  0.5252 -0.2496  0.9969
  921TIP3   OH224321   0.073   1.809   8.192  0.1388 -0.2068 -0.2098
  921TIP3    H124322   0.163   1.833   8.171 -0.3432  0.7887 -1.2166
  921TIP3    H224323   0.028   1.807   8.107 -0.0568 -4.0928 -0.1997
  922TIP3   OH224324   3.611   3.710   8.603  0.1173  0.3620 -0.2535
  922TIP3    H124325   3.553   3.748   8.670  0.3977 -2.3875  1.7087
  922TIP3    H224326   3.553   3.655   8.550  0.1483  1.4561 -1.4798
  923TIP3   OH224327   2.918   2.215   1.415  0.1768 -0.2762  0.5821
  923TIP3    H124328   2.825   2.196   1.411  0.3778 -1.1452 -0.8424
  923TIP3    H224329   2.953   2.156   1.481 -0.1120 -0.7911  0.2775
  924TIP3   OH224330   1.285   5.086   7.717  1.0501 -0.2355 -0.6503
  924TIP3    H124331   1.281   4.991   7.728  1.8327 -0.0907  1.2307
  924TIP3    H224332   1.324   5.098   7.631  5.3537 -1.7482  0.8210
  925TIP3   OH224333   3.636   3.438   0.605  0.6690  0.1173  0.3790
  925TIP3    H124334   3.557   3.478   0.568 -0.2632 -1.8730  0.0577
  925TIP3    H224335   3.614   3.420   0.696  0.3252 -1.3910  0.0225
  926TIP3   OH224336   2.330   2.704   7.971 -0.1591  0.1548  0.0839
  926TIP3    H124337   2.330   2.686   8.064  0.1451 -0.9931 -0.1219
  926TIP3    H224338   2.328   2.800   7.964 -4.6397  0.3767  1.2529
  927TIP3   OH224339   2.604   1.685   2.492  0.2237  0.2587 -0.4790
  927TIP3    H124340   2.565   1.749   2.552 -0.3795 -0.3976 -0.1425
  927TIP3    H224341   2.641   1.618   2.549  1.4017  0.6116 -0.8170
  928TIP3   OH224342   5.480   6.250   1.286  0.1840 -0.5458 -0.2977
  928TIP3    H124343   5.411   6.272   1.349  1.8835 -0.2776  1.5755
  928TIP3    H224344   5.441   6.184   1.229 -2.5889  1.7571 -1.2690
  929TIP3   OH224345   4.490   5.763   2.970  0.3104  0.2405 -0.2172
  929TIP3    H124346   4.466   5.672   2.989  1.3830 -0.0515 -0.1922
  929TIP3    H224347   4.459   5.812   3.045 -1.7185  0.1588 -0.9465
  930TIP3   OH224348   4.886   6.139   1.403 -0.1629  0.3655  0.5863
  930TIP3    H124349   4.826   6.067   1.426  0.8539 -0.6806  0.0501
  930TIP3    H224350   4.839   6.188   1.335 -0.7197 -0.0132  0.6924
  931TIP3   OH224351   1.564   3.026   7.980  0.1382  0.0065 -0.2546
  931TIP3    H124352   1.485   2.976   8.001  1.0453 -1.0054  0.9307
  931TIP3    H224353   1.533   3.098   7.925 -1.7010  0.0164  0.7130
  932TIP3   OH224354   5.851   6.771   1.410  0.0668 -0.4836 -0.5668
  932TIP3    H124355   5.871   6.697   1.467 -0.0915  1.3914  2.0880
  932TIP3    H224356   5.756   6.780   1.416  0.2067  0.6626  0.1525
  933TIP3   OH224357   5.207   1.557   7.121  0.2801 -0.2796 -0.2139
  933TIP3    H124358   5.176   1.644   7.144 -1.6702 -0.8351 -0.5553
  933TIP3    H224359   5.212   1.557   7.026  0.3160 -0.5139 -0.2133
  934TIP3   OH224360   4.504   1.707   2.853  0.2711 -0.2056 -0.4580
  934TIP3    H124361   4.487   1.679   2.943  1.3593 -0.3475 -0.2842
  934TIP3    H224362   4.526   1.626   2.806  0.1329 -0.0733 -0.7558
  935TIP3   OH224363   4.205   1.515   7.438  0.3131  0.4932  0.0812
  935TIP3    H124364   4.173   1.589   7.387  0.0313  0.7967  0.6882
  935TIP3    H224365   4.296   1.504   7.411  0.1640  0.6338 -0.4946
  936TIP3   OH224366   5.550   1.270   2.836 -0.0415 -0.2774  0.6228
  936TIP3    H124367   5.603   1.309   2.767  1.7792  1.0506  2.6564
  936TIP3    H224368   5.487   1.338   2.860 -1.8707 -1.3534 -0.8209
  937TIP3   OH224369   5.480   0.713   0.247  0.0292 -0.2748 -0.5088
  937TIP3    H124370   5.487   0.764   0.328 -0.2204 -1.2562  0.1486
  937TIP3    H224371   5.416   0.761   0.194  2.2012  1.9128 -1.3398
  938TIP3   OH224372   5.398   3.216   1.126  0.1263  0.6333 -0.1317
  938TIP3    H124373   5.362   3.280   1.187  0.3842  1.3228 -0.6930
  938TIP3    H224374   5.449   3.268   1.063  0.3446 -0.1179 -0.5926
  939TIP3   OH224375   2.556   2.655   7.806 -0.2227 -0.2696 -0.3932
  939TIP3    H124376   2.545   2.715   7.732  0.2902  2.5358  1.6171
  939TIP3    H224377   2.479   2.670   7.860  1.4312  1.1730  1.7527
  940TIP3   OH224378   4.857   5.747   1.921  0.0536 -0.0625  0.0744
  940TIP3    H124379   4.877   5.781   2.008  0.5197 -2.0198  0.7771
  940TIP3    H224380   4.763   5.760   1.911  0.0698  0.5797  0.6635
  941TIP3   OH224381   4.886   0.505   8.016 -0.5915 -0.1143 -1.2933
  941TIP3    H124382   4.977   0.536   8.021 -0.8042  0.3984 -0.2033
  941TIP3    H224383   4.888   0.435   7.951  0.5016  0.1819 -1.5996
  942TIP3   OH224384   4.561   1.476   8.706 -0.2177  0.3222  0.0148
  942TIP3    H124385   4.533   1.442   8.791  0.5839  3.5122  1.7067
  942TIP3    H224386   4.650   1.441   8.695 -0.7011 -0.9430 -0.0612
  943TIP3   OH224387   2.885   6.586   7.308 -0.1465  0.0212 -0.8521
  943TIP3    H124388   2.921   6.649   7.371 -1.4019  0.3491 -0.4304
  943TIP3    H224389   2.876   6.636   7.227 -1.5008  0.5314 -0.4160
  944TIP3   OH224390   6.167   3.259   1.691 -0.2943 -0.5481  0.4949
  944TIP3    H124391   6.085   3.310   1.688 -0.4010 -0.7167  0.5659
  944TIP3    H224392   6.221   3.304   1.755  0.8806  1.4092 -1.7084
  945TIP3   OH224393   1.253   0.687   2.315  0.2321  0.0968 -0.0460
  945TIP3    H124394   1.218   0.737   2.241 -0.1381 -0.9945 -0.6340
  945TIP3    H224395   1.259   0.597   2.282  2.6140  0.0428  0.3640
  946TIP3   OH224396   4.180   5.543   2.361 -0.4386  0.3655 -0.3754
  946TIP3    H124397   4.126   5.513   2.434 -0.9226  2.2948  0.0992
  946TIP3    H224398   4.144   5.497   2.285  0.5611 -2.2615  0.6275
  947TIP3   OH224399   0.069   3.649   1.612  0.1134  0.3910 -0.3150
  947TIP3    H124400   0.090   3.607   1.528 -0.3917  0.9823 -0.7495
  947TIP3    H224401   0.008   3.719   1.589  0.5326  1.0331  0.4602
  948TIP3   OH224402   5.650   0.882   1.802  0.3668 -0.1146  0.8225
  948TIP3    H124403   5.592   0.948   1.839  1.1082  0.6184  0.7233
  948TIP3    H224404   5.660   0.817   1.872  0.3568  0.3532  1.2681
  949TIP3   OH224405   2.194   5.012   1.039  0.2090  0.1992  0.3822
  949TIP3    H124406   2.171   5.076   0.972  2.1312 -0.7481 -1.3038
  949TIP3    H224407   2.178   5.057   1.122 -2.7953  1.2206 -0.6293
  950TIP3   OH224408   2.715   5.656   2.605  0.2155  0.1367  0.0459
  950TIP3    H124409   2.669   5.739   2.615  1.1800  0.8123 -0.8685
  950TIP3    H224410   2.776   5.654   2.679  0.5210  0.4695 -0.1954
  951TIP3   OH224411   6.246   0.318   0.462  0.3870 -0.5175  0.2869
  951TIP3    H124412   6.240   0.399   0.411 -2.1646 -1.3635 -0.9269
  951TIP3    H224413   6.230   0.248   0.399 -0.1034 -1.7948  1.7616
  952TIP3   OH224414   1.745   5.267   2.225  0.8484  0.2409 -0.5620
  952TIP3    H124415   1.818   5.205   2.221  1.0453  0.5206 -1.8893
  952TIP3    H224416   1.715   5.274   2.134 -2.1019 -1.3279  0.1842
  953TIP3   OH224417   6.017   1.023   2.941  0.2326  0.7608  0.0532
  953TIP3    H124418   6.042   0.947   2.994  0.5319  1.1605  0.4983
  953TIP3    H224419   5.926   1.007   2.916  0.4774 -0.0229 -0.3595
  954TIP3   OH224420   3.792   0.451   1.502  0.2916 -0.1469  0.5065
  954TIP3    H124421   3.865   0.424   1.557  1.1457 -0.1271 -0.5855
  954TIP3    H224422   3.768   0.538   1.534 -0.5805 -0.9586  2.1624
  955TIP3   OH224423   1.900   5.925   3.195 -0.7600  0.0690  0.6912
  955TIP3    H124424   1.854   5.974   3.128  0.4557  1.1321  0.6007
  955TIP3    H224425   1.967   5.985   3.228  0.7731 -1.5084  0.5792
  956TIP3   OH224426   6.073   6.683   8.565  0.2986  0.1570 -0.6473
  956TIP3    H124427   6.051   6.593   8.592  2.2277 -0.6693 -1.6057
  956TIP3    H224428   6.053   6.685   8.472  2.0170  0.0780 -1.0500
  957TIP3   OH224429   4.773   2.099   0.676  0.0591  0.6592 -0.4205
  957TIP3    H124430   4.829   2.138   0.743 -0.1927 -1.9309  1.4693
  957TIP3    H224431   4.829   2.036   0.631 -0.7823 -0.5044  0.1225
  958TIP3   OH224432   4.235   3.452   1.347  0.1528  0.0484  0.6264
  958TIP3    H124433   4.217   3.531   1.398  0.0562  0.1045  0.5067
  958TIP3    H224434   4.304   3.478   1.286  0.7755 -0.2146  1.2000
  959TIP3   OH224435   5.043   4.686   0.364 -0.0040  0.0465  0.3456
  959TIP3    H124436   5.016   4.633   0.439 -2.0289  0.7536  0.1898
  959TIP3    H224437   5.112   4.743   0.399  1.4981 -1.9426  0.7507
  960TIP3   OH224438   1.068   5.780   2.169 -0.0593  0.1122  0.4627
  960TIP3    H124439   1.074   5.780   2.265 -1.5249  1.3106  0.5923
  960TIP3    H224440   0.999   5.717   2.150  0.0082  0.1190  0.1995
  961TIP3   OH224441   5.272   6.056   1.415 -0.0538 -0.0055  0.3394
  961TIP3    H124442   5.187   6.056   1.458 -1.0995  0.1746 -1.6250
  961TIP3    H224443   5.272   5.977   1.360  0.7929  0.3265 -0.1639
  962TIP3   OH224444   1.114   2.174   2.283  0.5997 -0.3607  0.0340
  962TIP3    H124445   1.095   2.082   2.263 -0.1793 -0.1919 -0.0130
  962TIP3    H224446   1.129   2.215   2.198 -0.0957 -0.2199 -0.0266
  963TIP3   OH224447   0.289   3.085   1.835 -0.2459 -0.4806 -0.0189
  963TIP3    H124448   0.348   3.150   1.875 -0.1962 -0.5828  0.0771
  963TIP3    H224449   0.232   3.057   1.907  0.9799 -1.9527  0.4397
  964TIP3   OH224450   3.254   5.125   8.500  0.3546  0.3238  0.4982
  964TIP3    H124451   3.314   5.052   8.490  0.3293  0.3345  0.2672
  964TIP3    H224452   3.279   5.187   8.432  1.0387  0.9928  1.3411
  965TIP3   OH224453   5.459   3.285   0.455 -0.2889  0.0134 -0.3130
  965TIP3    H124454   5.399   3.290   0.380 -0.0756  0.3303 -0.4642
  965TIP3    H224455   5.531   3.230   0.423  1.1098  2.2651 -1.2695
  966TIP3   OH224456   1.117   4.995   8.005  0.1323 -0.0165  0.1141
  966TIP3    H124457   1.148   4.970   7.918 -1.2769 -0.3607 -0.3205
  966TIP3    H224458   1.152   4.927   8.063 -0.2075 -0.6633 -0.4283
  967TIP3   OH224459   3.486   5.923   8.721 -0.0005  0.1011 -0.5219
  967TIP3    H124460   3.471   5.833   8.693 -1.6775  1.0134 -2.8504
  967TIP3    H224461   3.403   5.951   8.759  1.1421  0.0777  2.2250
  968TIP3   OH224462   3.337   2.343   1.393 -0.4390 -0.0912 -0.3631
  968TIP3    H124463   3.364   2.395   1.469 -3.8652  1.9840 -0.3719
  968TIP3    H224464   3.386   2.381   1.319  0.0936  0.4130  0.2408
  969TIP3   OH224465   5.629   3.520   2.822  0.0880 -0.4317 -0.2207
  969TIP3    H124466   5.589   3.500   2.737 -0.6536 -0.6384  0.1659
  969TIP3    H224467   5.633   3.615   2.824  0.9055 -0.4404 -0.8412
  970TIP3   OH224468   4.947   5.154   2.189  0.5717 -0.0599 -0.4556
  970TIP3    H124469   4.957   5.060   2.172 -0.5368 -0.2077 -0.4013
  970TIP3    H224470   4.883   5.183   2.124 -0.8036  0.1754  0.9493
  971TIP3   OH224471   4.123   4.589   7.262 -0.1910 -0.3540  0.1469
  971TIP3    H124472   4.048   4.599   7.205 -0.5814 -2.5363  0.1965
  971TIP3    H224473   4.156   4.678   7.274 -0.6718  0.2963 -2.6430
  972TIP3   OH224474   4.200   1.173   2.141 -0.1576 -0.3936  0.3622
  972TIP3    H124475   4.105   1.176   2.138 -0.2994 -2.2339  1.2518
  972TIP3    H224476   4.223   1.196   2.231  0.3742  1.4964 -0.2121
  973TIP3   OH224477   4.865   5.864   7.123 -0.1800  0.5055  0.5819
  973TIP3    H124478   4.939   5.901   7.074 -0.4666 -1.8531 -1.8597
  973TIP3    H224479   4.795   5.928   7.113  0.8579  1.7777  1.1119
  974TIP3   OH224480   3.520   4.484   1.022 -0.9611  0.2370 -0.2809
  974TIP3    H124481   3.464   4.554   1.054  0.4180  1.3905 -0.2917
  974TIP3    H224482   3.602   4.527   0.999 -0.5266 -1.1745 -1.5689
  975TIP3   OH224483   3.314   0.712   1.200 -0.0571  0.6480  0.1922
  975TIP3    H124484   3.299   0.645   1.133 -1.7027  0.3436  0.8227
  975TIP3    H224485   3.376   0.671   1.261 -2.3217 -1.0518  1.4970
  976TIP3   OH224486   2.473   1.058   2.327 -0.0274 -0.0275 -0.0920
  976TIP3    H124487   2.504   1.059   2.418  0.2785 -2.3982 -0.1306
  976TIP3    H224488   2.479   1.150   2.300  1.9886  0.4200  1.5691
  977TIP3   OH224489   4.253   4.717   8.136  0.1563 -0.1042  0.1334
  977TIP3    H124490   4.264   4.811   8.117 -1.5581 -0.2714 -2.2074
  977TIP3    H224491   4.195   4.715   8.212 -1.0075  0.7746 -0.6924
  978TIP3   OH224492   0.082   3.948   8.422 -0.0438 -0.6927  0.3702
  978TIP3    H124493   0.035   3.951   8.339 -1.5392 -0.9558  1.1711
  978TIP3    H224494   0.077   3.856   8.449 -1.3570 -0.2633  1.7061
  979TIP3   OH224495   0.883   4.079   8.208  0.2302 -0.3877  0.4228
  979TIP3    H124496   0.855   4.133   8.282  0.6816 -0.1064  0.3915
  979TIP3    H224497   0.803   4.066   8.157 -0.3238 -1.4824  1.5100
  980TIP3   OH224498   3.704   3.218   8.222 -0.6636  0.0113  0.4915
  980TIP3    H124499   3.759   3.284   8.181 -1.1315  1.3320  1.8796
  980TIP3    H224500   3.631   3.268   8.259 -1.1673 -1.3196  1.3697
  981TIP3   OH224501   3.099   4.100   8.391 -0.1337 -0.9370 -0.6441
  981TIP3    H124502   3.104   4.093   8.296  1.0364 -1.7482 -0.5504
  981TIP3    H224503   3.189   4.117   8.419 -0.4311 -0.8644  0.3303
  982TIP3   OH224504   2.272   2.875   1.910 -0.5206  0.0849 -0.0437
  982TIP3    H124505   2.258   2.860   2.004 -1.1690  0.7642 -0.0228
  982TIP3    H224506   2.192   2.842   1.868 -1.0486  1.4631 -0.1768
  983TIP3   OH224507   1.954   5.508   0.619  0.4737  0.2574 -0.0650
  983TIP3    H124508   2.009   5.455   0.561  0.3331  2.1755 -2.0547
  983TIP3    H224509   1.875   5.525   0.569 -0.6915  0.0198  1.6323
  984TIP3   OH224510   3.177   1.655   7.512 -0.4238 -0.0713 -0.0272
  984TIP3    H124511   3.203   1.641   7.421  1.1686 -0.5145  0.4740
  984TIP3    H224512   3.238   1.720   7.545  0.7394 -1.8245  1.4420
  985TIP3   OH224513   5.157   5.479   2.497  0.0987  0.0304 -0.5323
  985TIP3    H124514   5.091   5.422   2.537  0.6054 -0.6605 -0.6496
  985TIP3    H224515   5.240   5.437   2.518  0.5098  0.8992 -0.3677
  986TIP3   OH224516   4.355   0.648   8.427  0.2346 -0.2540  0.3615
  986TIP3    H124517   4.336   0.575   8.368  3.8646  0.0167 -1.3867
  986TIP3    H224518   4.364   0.606   8.513  0.8420 -1.6811 -0.3537
  987TIP3   OH224519   4.564   6.624   0.074 -0.4875  0.1553  0.0676
  987TIP3    H124520   4.554   6.691   0.007  2.4789  2.5518  1.7256
  987TIP3    H224521   4.604   6.549   0.028  1.0109  1.5412 -1.0151
  988TIP3   OH224522   1.852   5.025   1.704 -0.1881  0.2221 -1.0582
  988TIP3    H124523   1.903   5.006   1.624 -0.9511  0.5990 -1.6448
  988TIP3    H224524   1.764   5.044   1.672 -0.4916  0.4290 -0.1192
  989TIP3   OH224525   1.885   1.938   6.753  0.2074  0.3039 -0.1042
  989TIP3    H124526   1.881   2.033   6.765 -0.9337  0.1272  1.1473
  989TIP3    H224527   1.971   1.922   6.714  0.7174  1.7690  0.3530
  990TIP3   OH224528   4.987   6.802   7.367  0.5423  0.6968  0.2096
  990TIP3    H124529   5.051   6.776   7.301  0.9160  1.0757  0.4231
  990TIP3    H224530   4.903   6.777   7.329  0.8850 -1.0896  0.5065
  991TIP3   OH224531   0.306   2.178   8.160 -0.2095  0.0109 -0.4885
  991TIP3    H124532   0.347   2.186   8.245  0.6108 -0.9245 -0.7851
  991TIP3    H224533   0.359   2.233   8.102 -1.8193  2.1224 -0.0796
  992TIP3   OH224534   1.988   6.179   0.487  0.6347 -0.3660 -0.4965
  992TIP3    H124535   1.973   6.172   0.582  2.2398 -0.6893 -0.2507
  992TIP3    H224536   1.925   6.118   0.449 -0.8114  0.5861  0.2639
  993TIP3   OH224537   1.957   3.763   2.004 -0.0035 -0.0711  0.3443
  993TIP3    H124538   1.877   3.711   1.999  0.1020 -0.1655 -0.7011
  993TIP3    H224539   2.024   3.709   1.962 -0.1244  1.2852 -1.7468
  994TIP3   OH224540   6.044   4.680   8.284 -0.2385 -0.0149 -0.2431
  994TIP3    H124541   6.138   4.661   8.279 -0.2121  0.3299 -1.2480
  994TIP3    H224542   6.019   4.654   8.373  0.0241 -3.5499 -1.0784
  995TIP3   OH224543   4.618   3.727   0.988 -0.2368  1.0239 -0.1905
  995TIP3    H124544   4.526   3.708   1.008  0.2521 -0.5576  0.7620
  995TIP3    H224545   4.635   3.811   1.030 -1.5900  2.0545 -1.5684
  996TIP3   OH224546   1.494   3.962   0.858 -0.0061  0.1826 -0.0515
  996TIP3    H124547   1.411   3.925   0.827 -0.3633 -0.6749  1.7841
  996TIP3    H224548   1.482   4.057   0.852  0.0545  0.0710 -2.6600
  997TIP3   OH224549   4.466   4.105   2.944 -0.7456 -0.6011 -0.5421
  997TIP3    H124550   4.373   4.109   2.965 -0.3263 -0.4330  1.4717
  997TIP3    H224551   4.505   4.052   3.014  0.8269  0.2984 -0.6773
  998TIP3   OH224552   0.748   6.010   0.933 -0.1696 -0.0619  0.2325
  998TIP3    H124553   0.744   6.052   1.019  1.7114  0.2648  0.2062
  998TIP3    H224554   0.750   5.916   0.952 -3.1346 -0.1782  0.3458
  999TIP3   OH224555   1.051   2.720   1.562 -0.1857  0.1021 -0.3167
  999TIP3    H124556   1.032   2.813   1.554 -2.5292 -0.2287  0.4821
  999TIP3    H224557   1.126   2.715   1.621  1.6156  1.5106 -2.3341
 1000TIP3   OH224558   1.209   0.197   1.234 -0.5681  0.4470  0.0135
 1000TIP3    H124559   1.300   0.177   1.211  0.5211  2.2430  2.2575
 1000TIP3    H224560   1.209   0.292   1.247 -3.1195  0.6779 -1.1514
 1001TIP3   OH224561   0.531   6.480   8.387 -0.7199 -0.2062  0.3022
 1001TIP3    H124562   0.443   6.513   8.369 -0.8823 -0.6963  0.1854
 1001TIP3    H224563   0.564   6.452   8.302 -1.1512 -1.7104  0.5971
 1002TIP3   OH224564   5.888   1.280   7.241  0.0986  0.1914 -0.5459
 1002TIP3    H124565   5.900   1.220   7.315 -0.0815  0.3820 -0.3625
 1002TIP3    H224566   5.802   1.319   7.256  0.0369  0.1849 -0.8879
 1003TIP3   OH224567   0.961   3.130   8.678 -0.5940 -0.3367 -0.2170
 1003TIP3    H124568   0.870   3.116   8.652 -0.5058  1.4764 -1.6435
 1003TIP3    H224569   0.957   3.198   8.745 -0.2433  0.0767 -0.6165
 1004TIP3   OH224570   2.450   2.652   7.211  0.2685  0.2638 -0.0934
 1004TIP3    H124571   2.493   2.567   7.199 -0.4970 -0.3906  1.4983
 1004TIP3    H224572   2.360   2.638   7.179  0.4939  0.8980 -1.0736
 1005TIP3   OH224573   4.079   0.541   8.655  0.3849 -0.5493  0.3863
 1005TIP3    H124574   4.006   0.541   8.716 -0.1404 -2.2833 -0.1966
 1005TIP3    H224575   4.039   0.524   8.570  1.2584  0.5044 -0.2621
 1006TIP3   OH224576   1.451   1.619   7.198  0.0152  0.1306  0.0881
 1006TIP3    H124577   1.433   1.707   7.231 -0.9399 -0.2316  0.5674
 1006TIP3    H224578   1.546   1.613   7.196  0.0924  1.1722  0.0462
 1007TIP3   OH224579   0.665   6.781   0.873 -0.0658 -0.1915 -0.3107
 1007TIP3    H124580   0.694   6.872   0.876  0.2532 -0.3079  0.2598
 1007TIP3    H224581   0.603   6.778   0.800 -0.9395  0.7466  0.3599
 1008TIP3   OH224582   4.849   2.361   8.246 -0.0870 -0.5120  0.6624
 1008TIP3    H124583   4.893   2.280   8.221  1.6597  0.2198  1.1719
 1008TIP3    H224584   4.911   2.405   8.304 -0.3837  1.7902 -0.6115
 1009TIP3   OH224585   5.033   3.753   2.635  0.2196  0.3789 -0.2012
 1009TIP3    H124586   5.070   3.740   2.723  2.2519  2.5376 -0.6549
 1009TIP3    H224587   4.939   3.739   2.647  0.4892  0.1824  2.2314
 1010TIP3   OH224588   5.057   4.347   8.280 -0.4529 -0.0301 -0.0050
 1010TIP3    H124589   5.138   4.339   8.330  0.7606 -3.1645 -2.1880
 1010TIP3    H224590   5.004   4.272   8.308 -1.5941  0.6270 -0.3456
 1011TIP3   OH224591   4.670   5.335   0.971 -0.2730  0.1611 -0.2869
 1011TIP3    H124592   4.684   5.385   1.051 -0.8041 -0.8364  0.4530
 1011TIP3    H224593   4.645   5.400   0.906  0.0430  0.9716  0.3848
 1012TIP3   OH224594   1.928   6.048   2.345  0.5710 -0.5590 -0.0187
 1012TIP3    H124595   1.983   6.008   2.278 -0.0485 -2.8446  0.7163
 1012TIP3    H224596   1.988   6.106   2.394  1.9838 -1.8250 -0.1578
 1013TIP3   OH224597   4.791   6.690   2.360 -0.5409 -0.6099  0.0429
 1013TIP3    H124598   4.852   6.627   2.399 -0.8551  0.0791  1.6957
 1013TIP3    H224599   4.787   6.664   2.268  0.0207 -2.4552  0.4910
 1014TIP3   OH224600   4.706   6.807   0.544 -0.6702  0.3832  0.4122
 1014TIP3    H124601   4.651   6.886   0.542 -1.3594  0.0403  2.6519
 1014TIP3    H224602   4.787   6.836   0.586 -0.4627  0.1653  0.1578
 1015TIP3   OH224603   5.087   2.639   0.064 -0.9863  0.1567  0.3380
 1015TIP3    H124604   5.106   2.712   0.005 -1.5977  0.9469  1.0812
 1015TIP3    H224605   5.154   2.644   0.131 -0.4436 -0.5837 -0.1385
 1016TIP3   OH224606   0.555   0.416   2.540 -0.4379 -0.0844  0.8268
 1016TIP3    H124607   0.480   0.363   2.569 -1.4039  0.2967 -0.8366
 1016TIP3    H224608   0.551   0.495   2.595  0.2675 -1.1328  2.4555
 1017TIP3   OH224609   1.499   2.626   7.966 -0.1843 -0.3354  0.0027
 1017TIP3    H124610   1.510   2.659   8.056  2.1110  0.4436 -0.4930
 1017TIP3    H224611   1.481   2.705   7.914 -0.2784 -0.6115 -0.3836
 1018TIP3   OH224612   4.397   6.491   7.171  0.1596 -0.0787  0.3193
 1018TIP3    H124613   4.412   6.514   7.079 -0.4583  0.0796  0.2563
 1018TIP3    H224614   4.302   6.485   7.179  0.2430 -2.5289  0.3357
 1019TIP3   OH224615   5.532   0.498   1.720 -0.3728 -0.4346 -0.5200
 1019TIP3    H124616   5.578   0.464   1.643 -0.0684  1.9394 -1.4528
 1019TIP3    H224617   5.447   0.526   1.687  0.4049  2.2517 -0.4642
 1020TIP3   OH224618   1.314   4.970   0.902 -0.2559  0.6354 -0.1143
 1020TIP3    H124619   1.371   5.039   0.869 -1.2328  1.0088 -1.0533
 1020TIP3    H224620   1.239   4.970   0.844 -1.7059  0.8237  1.6695
 1021TIP3   OH224621   4.014   2.218   0.026 -0.1988  0.0775 -0.2240
 1021TIP3    H124622   3.987   2.304   0.059 -0.9218 -1.0114  2.3282
 1021TIP3    H224623   4.079   2.188   0.089  1.3530 -0.5622 -2.0562
 1022TIP3   OH224624   5.527   5.118   8.529 -0.9089 -0.9077 -0.0175
 1022TIP3    H124625   5.506   5.207   8.558 -0.5848 -1.1064  0.8553
 1022TIP3    H224626   5.622   5.119   8.518 -1.0183 -0.8631 -0.9984
 1023TIP3   OH224627   0.930   2.421   2.324  0.0755  0.4930  0.1541
 1023TIP3    H124628   0.969   2.489   2.378  1.3615 -0.2231  0.1659
 1023TIP3    H224629   1.001   2.358   2.310 -1.0131 -0.7234 -0.0469
 1024TIP3   OH224630   2.567   2.151   8.755 -0.5729 -0.3181 -0.4442
 1024TIP3    H124631   2.577   2.118   8.666 -0.7857  1.2852 -1.0860
 1024TIP3    H224632   2.652   2.190   8.776 -0.7323 -0.0960 -0.2048
 1025TIP3   OH224633   1.194   1.419   8.702 -0.0726 -0.6359  0.4966
 1025TIP3    H124634   1.151   1.399   8.619  0.0892  0.2238  0.1958
 1025TIP3    H224635   1.123   1.452   8.758  0.0014 -0.2225  0.3501
 1026TIP3   OH224636   0.151   4.277   8.426  0.4672 -0.0345 -0.3757
 1026TIP3    H124637   0.228   4.259   8.479  0.5071  0.7494 -0.1532
 1026TIP3    H224638   0.079   4.233   8.472 -0.0111  2.7963  1.9167
 1027TIP3   OH224639   3.613   4.424   0.523  0.2618  0.1674  0.3528
 1027TIP3    H124640   3.544   4.484   0.550 -0.9044 -0.3878 -1.1804
 1027TIP3    H224641   3.632   4.449   0.432  2.3423  0.5021  0.8279
 1028TIP3   OH224642   0.542   2.523   1.696  0.3650  0.0108 -0.0871
 1028TIP3    H124643   0.579   2.434   1.696 -0.2858 -0.2905 -1.7572
 1028TIP3    H224644   0.471   2.520   1.760  0.3412 -0.6822 -0.1382
 1029TIP3   OH224645   4.511   0.746   0.970  0.2090 -0.2385  0.2356
 1029TIP3    H124646   4.500   0.753   0.876  0.8008 -0.4775  0.1451
 1029TIP3    H224647   4.520   0.837   1.000  0.2298 -0.1763  0.0381
 1030TIP3   OH224648   3.663   6.396   7.127  0.1511  0.0926 -0.0947
 1030TIP3    H124649   3.629   6.437   7.047 -0.5260  0.4147  0.3549
 1030TIP3    H224650   3.731   6.457   7.157 -0.5121  0.6633  0.2969
 1031TIP3   OH224651   0.388   1.679   7.800 -1.1095  0.3538 -0.1505
 1031TIP3    H124652   0.401   1.700   7.708 -0.0655 -0.5262 -0.2166
 1031TIP3    H224653   0.412   1.587   7.808 -0.0982  0.7010  1.1988
 1032TIP3   OH224654   1.792   3.472   0.086 -0.2488  0.5066 -0.2830
 1032TIP3    H124655   1.825   3.481  -0.003 -0.3482  1.1712 -0.2555
 1032TIP3    H224656   1.870   3.465   0.141 -0.1870 -0.6310 -0.4795
 1033TIP3   OH224657   5.965   3.759   2.108 -0.0958  0.1260 -0.4164
 1033TIP3    H124658   6.037   3.738   2.049  1.7401 -1.1881  2.0802
 1033TIP3    H224659   5.933   3.674   2.138 -1.2227  0.7399  0.1856
 1034TIP3   OH224660   3.825   4.378   2.810  0.0670  0.1082 -0.0216
 1034TIP3    H124661   3.822   4.284   2.792  1.4317  0.2061 -0.9656
 1034TIP3    H224662   3.900   4.389   2.868  0.7234  0.7329 -0.9526
 1035TIP3   OH224663   6.696   3.074   0.091 -0.4083 -0.0599 -0.1679
 1035TIP3    H124664   6.614   3.029   0.073 -0.6942  0.9153 -1.4371
 1035TIP3    H224665   6.672   3.145   0.150 -0.3261 -0.2604  0.1109
 1036TIP3   OH224666   2.823   0.095   1.279 -0.2700 -0.3918 -0.2722
 1036TIP3    H124667   2.766   0.138   1.216  0.1744 -0.5623 -0.7890
 1036TIP3    H224668   2.775   0.102   1.362 -1.7158 -1.7946 -0.9458
 1037TIP3   OH224669   3.443   1.105   7.756  0.3770  0.1457 -0.2919
 1037TIP3    H124670   3.427   1.176   7.818 -1.6674 -0.0690 -0.5085
 1037TIP3    H224671   3.392   1.128   7.678  2.6884  0.2898 -1.8600
 1038TIP3   OH224672   6.276   6.363   3.208 -0.0564 -0.3890 -0.0989
 1038TIP3    H124673   6.316   6.299   3.149 -0.0664 -0.9880  0.5329
 1038TIP3    H224674   6.341   6.433   3.216  0.7004 -1.1584  0.5996
 1039TIP3   OH224675   0.045   4.840   0.333 -0.0466  0.0145  0.0936
 1039TIP3    H124676   0.014   4.861   0.421 -1.4048 -1.2731 -0.0384
 1039TIP3    H224677  -0.031   4.855   0.276  0.7231  0.5380 -0.8406
 1040TIP3   OH224678   0.345   4.888   8.537 -0.3988 -0.1207 -0.2648
 1040TIP3    H124679   0.431   4.926   8.555  0.2210 -1.3742 -0.5006
 1040TIP3    H224680   0.300   4.955   8.486 -0.4145  1.4949  1.7043
 1041TIP3   OH224681   4.137   5.826   2.339  0.4274  0.3557 -0.3517
 1041TIP3    H124682   4.200   5.893   2.366 -0.3206  1.0004 -0.1827
 1041TIP3    H224683   4.165   5.747   2.386  0.2319  1.0073  0.9147
 1042TIP3   OH224684   0.128   0.871   1.704  0.1077 -0.4620 -0.2926
 1042TIP3    H124685   0.059   0.825   1.657 -0.6022  1.9583 -1.8167
 1042TIP3    H224686   0.185   0.802   1.737 -2.4585 -2.5190  0.1719
 1043TIP3   OH224687   1.272   5.720   3.110  0.1881 -0.1317 -0.0370
 1043TIP3    H124688   1.367   5.710   3.115  0.0091 -1.5167  1.1437
 1043TIP3    H224689   1.248   5.760   3.194 -0.4124 -1.2176  0.3257
 1044TIP3   OH224690   4.803   3.153   2.490  0.4961  0.3807 -0.3637
 1044TIP3    H124691   4.815   3.066   2.527 -0.1060  0.0579 -0.9165
 1044TIP3    H224692   4.726   3.188   2.536  2.5891  1.9493  2.2574
 1045TIP3   OH224693   2.973   0.844   1.995  0.9437 -0.4427 -0.0600
 1045TIP3    H124694   2.936   0.925   2.031  2.1123  0.1703 -0.1727
 1045TIP3    H224695   3.059   0.837   2.036  1.2143 -1.1557 -0.7307
 1046TIP3   OH224696   1.141   3.744   1.285 -0.2202  0.0497 -0.1048
 1046TIP3    H124697   1.097   3.756   1.201 -3.4401 -2.0003  1.0975
 1046TIP3    H224698   1.078   3.775   1.350  2.0641  1.3340  1.6371
 1047TIP3   OH224699   3.358   5.896   7.998  0.0857 -0.3202  0.1656
 1047TIP3    H124700   3.285   5.934   8.046  0.2733 -1.3243  1.3131
 1047TIP3    H224701   3.375   5.957   7.927 -0.3391  1.1465  1.2735
 1048TIP3   OH224702   0.713   0.319   2.164  0.1321  0.0260 -0.0947
 1048TIP3    H124703   0.745   0.393   2.112  0.0211  0.0756 -0.0918
 1048TIP3    H224704   0.789   0.262   2.173  0.1935  0.0943 -0.1772
 1049TIP3   OH224705   0.386   6.341   1.213  0.4945  0.1922 -0.0066
 1049TIP3    H124706   0.424   6.423   1.183 -0.9490  0.1712 -2.1395
 1049TIP3    H224707   0.297   6.364   1.241 -0.6097 -0.8090 -2.3699
 1050TIP3   OH224708   5.216   1.332   8.093  0.8359 -0.6084 -0.2792
 1050TIP3    H124709   5.272   1.409   8.085  0.3995 -0.2297  0.2428
 1050TIP3    H224710   5.276   1.260   8.110  1.2748 -0.4482 -1.0833
 1051TIP3   OH224711   0.360   6.247   0.761 -0.1296 -0.0571  0.1607
 1051TIP3    H124712   0.414   6.168   0.767  1.7128  1.1832  0.6745
 1051TIP3    H224713   0.412   6.309   0.710 -2.0034  0.5094 -1.1986
 1052TIP3   OH224714   1.942   1.816   1.480  0.2703  0.1556  0.0703
 1052TIP3    H124715   1.968   1.737   1.432  0.5003  0.0533  0.3574
 1052TIP3    H224716   2.008   1.881   1.456  0.4603  0.0661  0.3493
 1053TIP3   OH224717   3.749   4.001   1.980  0.1125  0.2382  0.3587
 1053TIP3    H124718   3.826   3.997   1.923  0.0373  0.8263  0.2133
 1053TIP3    H224719   3.715   4.089   1.969 -0.5699 -0.0056  0.4491
 1054TIP3   OH224720   5.559   3.915   0.485  0.1539 -0.2055 -0.1341
 1054TIP3    H124721   5.505   3.946   0.557  0.2182 -1.4549  0.4812
 1054TIP3    H224722   5.532   3.824   0.473 -0.2067  0.1106 -2.0272
 1055TIP3   OH224723   6.661   1.402   8.153  0.0232 -0.1424 -0.3068
 1055TIP3    H124724   6.591   1.382   8.216  1.2140 -1.0212  0.7935
 1055TIP3    H224725   6.740   1.364   8.192  1.1420  0.8746 -1.4828
 1056TIP3   OH224726   4.374   2.431   7.245 -0.0234  0.5115  0.0828
 1056TIP3    H124727   4.376   2.456   7.152 -0.7008  0.4169  0.0394
 1056TIP3    H224728   4.302   2.483   7.282 -0.7618 -0.5827  0.2201
 1057TIP3   OH224729   6.560   4.039   1.347  0.7600  0.2140 -0.4976
 1057TIP3    H124730   6.560   4.131   1.371  1.7578 -0.1828  1.1449
 1057TIP3    H224731   6.587   4.038   1.255 -2.2492  1.7125 -1.5539
 1058TIP3   OH224732   1.246   1.947   1.362  0.3036  0.0385 -0.5040
 1058TIP3    H124733   1.298   1.903   1.430 -1.0195 -1.7293 -0.5748
 1058TIP3    H224734   1.170   1.981   1.408  0.9348  1.7051 -0.5941
 1059TIP3   OH224735   3.113   4.769   1.883  0.5248 -0.6101 -0.0078
 1059TIP3    H124736   3.188   4.727   1.926  1.4871 -0.4208 -1.4534
 1059TIP3    H224737   3.131   4.863   1.890  0.6294 -0.5762 -0.7149
 1060TIP3   OH224738   0.610   0.569   1.199 -0.2531 -0.2545 -0.2139
 1060TIP3    H124739   0.587   0.647   1.149  0.6722 -0.5562 -1.1276
 1060TIP3    H224740   0.568   0.497   1.152  0.0663 -0.4673 -0.1747
 1061TIP3   OH224741   1.200   0.910   0.745  0.0432  0.1337  0.2726
 1061TIP3    H124742   1.150   0.959   0.810 -0.2614  0.3292 -0.1026
 1061TIP3    H224743   1.163   0.822   0.749 -1.0439  0.5204 -0.7063
 1062TIP3   OH224744   1.334   5.983   1.819 -0.0611 -0.1583 -0.2492
 1062TIP3    H124745   1.292   5.900   1.839 -0.2719 -0.6681 -2.5220
 1062TIP3    H224746   1.423   5.960   1.794  0.2083  0.4304  0.1408
 1063TIP3   OH224747   5.782   5.833   2.559 -0.6473  0.5905 -0.0637
 1063TIP3    H124748   5.747   5.845   2.471  0.2646 -0.2469 -0.5750
 1063TIP3    H224749   5.865   5.787   2.545 -1.6297 -1.8203  1.3635
 1064TIP3   OH224750   6.681   4.868   2.063  0.0148  0.2615  0.4057
 1064TIP3    H124751   6.757   4.904   2.108 -0.6563  2.0067  0.2291
 1064TIP3    H224752   6.659   4.789   2.113  1.9090 -0.2869  0.4461
 1065TIP3   OH224753   5.219   4.187   7.656 -0.0768  0.1473  0.0188
 1065TIP3    H124754   5.198   4.102   7.617  0.9091  0.0197 -0.2591
 1065TIP3    H224755   5.161   4.249   7.611  0.1148 -0.1924 -0.7107
 1066TIP3   OH224756   3.771   4.108   2.713  0.2341  0.6529  0.4448
 1066TIP3    H124757   3.838   4.040   2.723  0.5031  1.1190  2.2136
 1066TIP3    H224758   3.688   4.061   2.724  0.2445  0.1384 -1.3808
 1067TIP3   OH224759   0.565   3.742   1.107  0.4093 -0.1099  0.1567
 1067TIP3    H124760   0.481   3.775   1.139 -0.2336 -1.7523  0.2459
 1067TIP3    H224761   0.621   3.740   1.184  1.0715  2.3889 -0.1571
 1068TIP3   OH224762   3.593   4.641   2.525 -0.0869  0.5643 -0.1773
 1068TIP3    H124763   3.647   4.662   2.601 -0.1303 -1.3712  0.4399
 1068TIP3    H224764   3.513   4.691   2.539 -0.3436 -0.2115  1.3913
 1069TIP3   OH224765   4.701   0.646   2.423  0.3186 -0.3978  0.1831
 1069TIP3    H124766   4.672   0.681   2.507  2.2221  0.9388  0.3507
 1069TIP3    H224767   4.693   0.719   2.362 -1.0543 -1.3558 -0.8459
 1070TIP3   OH224768   1.697   5.402   1.352  0.4768  0.2639 -0.0490
 1070TIP3    H124769   1.708   5.341   1.279  2.2582  0.3694  0.0725
 1070TIP3    H224770   1.753   5.366   1.422 -1.5339 -0.0866  1.4769
 1071TIP3   OH224771   5.610   5.504   7.353 -0.0530 -0.0469  0.1948
 1071TIP3    H124772   5.684   5.564   7.354  0.4745 -0.6846  0.8816
 1071TIP3    H224773   5.637   5.432   7.295 -1.2792  1.0560 -1.8837
 1072TIP3   OH224774   1.929   4.001   0.675 -0.2447 -0.3278 -0.2122
 1072TIP3    H124775   1.974   3.920   0.651  2.0514  0.6454  0.5254
 1072TIP3    H224776   1.836   3.983   0.657  0.0857 -3.2835  0.4166
 1073TIP3   OH224777   4.301   4.074   2.367  0.2234 -0.2342 -0.0312
 1073TIP3    H124778   4.228   4.091   2.427  0.7977  0.5101  0.4875
 1073TIP3    H224779   4.373   4.048   2.425  1.6512  3.2439 -0.0001
 1074TIP3   OH224780   6.044   2.318   0.990 -0.0472 -0.0112  0.5186
 1074TIP3    H124781   6.108   2.379   1.025  0.0436 -0.5520  1.3362
 1074TIP3    H224782   6.062   2.236   1.037 -0.4160 -0.5487 -0.2721
 1075TIP3   OH224783   1.553   2.133   2.702  0.2006  0.1898  0.7187
 1075TIP3    H124784   1.485   2.087   2.752  0.0280  1.2020  1.4514
 1075TIP3    H224785   1.635   2.096   2.734  0.0233 -0.6817  0.1942
 1076TIP3   OH224786   1.601   2.613   0.374 -0.4532  0.4545 -0.7151
 1076TIP3    H124787   1.563   2.675   0.437  0.2882  0.0677  0.1351
 1076TIP3    H224788   1.531   2.550   0.358 -1.1294  1.3458 -1.3907
 1077TIP3   OH224789   2.670   1.745   6.740  0.4293  0.1247 -0.0700
 1077TIP3    H124790   2.693   1.831   6.706  0.6613  0.8624  1.8410
 1077TIP3    H224791   2.575   1.749   6.752  0.7951  1.9084  4.2349
 1078TIP3   OH224792   4.243   0.445   1.724 -1.0215  0.0505  0.5462
 1078TIP3    H124793   4.227   0.375   1.660 -2.9540  0.7374  0.1920
 1078TIP3    H224794   4.335   0.468   1.713 -1.5042  0.8926 -2.8149
 1079TIP3   OH224795   4.239   3.676   7.838  0.5299  0.0128  0.1875
 1079TIP3    H124796   4.195   3.604   7.793 -0.4966 -0.5935  2.0520
 1079TIP3    H224797   4.297   3.632   7.901 -0.4418  0.7373  1.6633
 1080TIP3   OH224798   5.328   6.143   8.509  0.1401  0.6774 -0.1090
 1080TIP3    H124799   5.250   6.088   8.515 -0.6539  1.5741 -1.6623
 1080TIP3    H224800   5.318   6.207   8.580 -0.6683  0.9311 -0.4372
 1081TIP3   OH224801   6.050   6.400   8.601 -0.2463 -0.3109  0.0089
 1081TIP3    H124802   6.024   6.332   8.664 -1.7198 -0.2926 -0.5328
 1081TIP3    H224803   6.022   6.365   8.516  0.5779  0.2113 -0.4854
 1082TIP3   OH224804   5.563   5.766   7.612 -0.7126  0.0959 -0.2648
 1082TIP3    H124805   5.546   5.787   7.520  1.7101  2.5300 -0.2800
 1082TIP3    H224806   5.631   5.699   7.609  1.0426  1.7857 -0.3715
 1083TIP3   OH224807   4.531   4.055   0.542  0.4612  0.7655 -0.0092
 1083TIP3    H124808   4.526   4.060   0.447 -1.4671  2.2035  0.1108
 1083TIP3    H224809   4.546   3.962   0.561  1.3248  0.5182 -1.6839
 1084TIP3   OH224810   0.627   4.143   8.038  0.2297  0.4250  0.4222
 1084TIP3    H124811   0.630   4.053   8.006 -1.8651  0.2935  0.4504
 1084TIP3    H224812   0.555   4.183   7.989 -1.2607  1.0036  2.9054
 1085TIP3   OH224813   2.897   2.495   8.773  0.0022 -0.0017 -0.0240
 1085TIP3    H124814   2.848   2.507   8.691 -0.3689 -1.3441 -0.0189
 1085TIP3    H224815   2.978   2.453   8.746 -0.1143 -0.4358  0.2895
 1086TIP3   OH224816   5.408   4.878   0.700 -0.2608 -0.0935  0.3097
 1086TIP3    H124817   5.364   4.939   0.760 -0.8170 -1.6446  1.5486
 1086TIP3    H224818   5.439   4.807   0.757  1.0206 -0.6202 -0.9904
 1087TIP3   OH224819   6.310   2.315   8.480  0.0799 -0.3578  0.7821
 1087TIP3    H124820   6.224   2.305   8.522  0.0672  1.5810  1.3310
 1087TIP3    H224821   6.312   2.248   8.412 -1.8247 -0.5155  0.8344
 1088TIP3   OH224822   1.526   2.547   3.156  0.7083 -0.2137 -0.4146
 1088TIP3    H124823   1.469   2.623   3.142  2.0902  0.7045 -1.2305
 1088TIP3    H224824   1.599   2.581   3.207  0.8262 -1.2560  0.1370
 1089TIP3   OH224825   2.162   3.550   1.761 -0.3649 -0.2027 -0.0876
 1089TIP3    H124826   2.228   3.611   1.731 -1.4381 -0.2861 -2.9432
 1089TIP3    H224827   2.187   3.466   1.723 -1.4769 -0.4668 -0.2887
 1090TIP3   OH224828   3.710   3.020   7.525 -0.2041 -0.0716  0.0610
 1090TIP3    H124829   3.669   3.095   7.567  1.6916 -0.2985  2.5879
 1090TIP3    H224830   3.638   2.972   7.485 -1.7022  2.0491  0.0696
 1091TIP3   OH224831   2.551   6.611   0.084 -0.2426  0.2216 -0.3379
 1091TIP3    H124832   2.495   6.552   0.135 -0.2662 -0.3683 -1.0222
 1091TIP3    H224833   2.638   6.598   0.121 -0.2571 -0.2172 -0.4487
 1092TIP3   OH224834   0.648   6.180   1.172 -0.5125 -0.0342 -0.1713
 1092TIP3    H124835   0.743   6.173   1.177 -0.5631 -0.5696  0.0392
 1092TIP3    H224836   0.621   6.212   1.258 -0.2950  2.8863 -1.0720
 1093TIP3   OH224837   3.251   6.362   8.162 -0.0592  0.3219  0.2615
 1093TIP3    H124838   3.185   6.428   8.145  0.7059  0.7765 -1.0995
 1093TIP3    H224839   3.320   6.408   8.210 -0.8247 -0.2230  1.9530
 1094TIP3   OH224840   4.391   6.027   1.469 -0.1581  0.2326  0.5401
 1094TIP3    H124841   4.301   6.000   1.487 -0.6697  1.0839 -0.6179
 1094TIP3    H224842   4.407   6.101   1.528 -0.4552  0.4886  0.3059
 1095TIP3   OH224843   0.484   2.835   1.943 -0.3952  0.4378  0.2772
 1095TIP3    H124844   0.416   2.858   1.880 -0.5109  1.1381  0.6426
 1095TIP3    H224845   0.462   2.747   1.972  0.6739 -0.6655 -2.0069
 1096TIP3   OH224846   1.095   0.952   0.469  1.0879 -0.0226  0.4387
 1096TIP3    H124847   1.082   1.015   0.540  1.8955 -0.6243  1.1376
 1096TIP3    H224848   1.162   0.892   0.502  3.0799  0.8940 -1.6237
 1097TIP3   OH224849   6.547   5.410   8.377 -0.0611 -0.9388 -0.0373
 1097TIP3    H124850   6.616   5.429   8.314 -0.0911 -1.2583 -0.1710
 1097TIP3    H224851   6.535   5.491   8.426 -0.2325 -0.5946 -0.6352
 1098TIP3   OH224852   6.597   3.042   3.054 -0.0217  0.1517  0.1276
 1098TIP3    H124853   6.553   3.033   3.138  1.3451  1.6224  1.0540
 1098TIP3    H224854   6.530   3.080   2.996 -0.3635  1.1344  1.1435
 1099TIP3   OH224855   2.773   4.351   7.377 -0.0958  0.4274  0.0618
 1099TIP3    H124856   2.801   4.329   7.466  0.2634 -1.1863 -0.4269
 1099TIP3    H224857   2.841   4.410   7.344 -0.3125  1.1668  0.8769
 1100TIP3   OH224858   0.960   1.553   2.317  0.3450 -0.1729  0.5836
 1100TIP3    H124859   1.010   1.554   2.235  0.5419 -2.6929  0.5909
 1100TIP3    H224860   1.026   1.540   2.385 -0.0643 -1.1906  0.8101
 1101TIP3   OH224861   1.753   3.673   0.305 -0.2899  0.5490 -0.0911
 1101TIP3    H124862   1.745   3.584   0.271  0.9030  0.1516  0.6186
 1101TIP3    H224863   1.809   3.718   0.242  1.4111 -0.0147  0.9549
 1102TIP3   OH224864   6.657   2.797   0.690  0.0417  0.1028 -0.4285
 1102TIP3    H124865   6.726   2.769   0.751  0.7630  0.1051 -1.2164
 1102TIP3    H224866   6.668   2.739   0.615 -0.6520  0.2907 -0.6775
 1103TIP3   OH224867   2.788   0.881   1.472 -0.0818  0.1879 -0.0818
 1103TIP3    H124868   2.712   0.825   1.486  0.0435 -0.0878 -0.4795
 1103TIP3    H224869   2.858   0.840   1.523 -0.4567  1.0392  1.1659
 1104TIP3   OH224870   6.474   0.081   2.966 -0.4416 -0.0369  0.0333
 1104TIP3    H124871   6.437   0.111   3.048  0.3117  0.3066  0.2559
 1104TIP3    H224872   6.461  -0.014   2.966  0.7785 -0.2402  1.2005
 1105TIP3   OH224873   1.700   6.691   2.369  0.0186 -0.2441 -0.0703
 1105TIP3    H124874   1.636   6.679   2.438 -1.9450  0.3707 -1.6950
 1105TIP3    H224875   1.747   6.771   2.394  0.4380 -0.8835  1.3045
 1106TIP3   OH224876   6.419   3.358   8.190 -0.1460  0.0423 -0.1116
 1106TIP3    H124877   6.425   3.305   8.111  0.9119  0.7153 -0.5019
 1106TIP3    H224878   6.342   3.413   8.176  0.2064  0.3692 -0.8099
 1107TIP3   OH224879   6.566   3.212   0.312  0.0290 -0.4197 -0.5366
 1107TIP3    H124880   6.492   3.200   0.371 -0.0914  2.0140 -0.0842
 1107TIP3    H224881   6.643   3.186   0.364 -0.2203  0.2002  0.1572
 1108TIP3   OH224882   1.968   3.354   1.374 -0.5543  0.0974 -0.2925
 1108TIP3    H124883   1.873   3.339   1.378 -0.7899  1.6679  1.1376
 1108TIP3    H224884   2.005   3.266   1.363 -2.1787 -0.4560 -1.9395
 1109TIP3   OH224885   1.510   0.185   7.975 -0.5021  0.4288 -0.4371
 1109TIP3    H124886   1.512   0.092   7.953 -1.1846  0.3931 -0.3775
 1109TIP3    H224887   1.602   0.208   7.990 -0.3883 -0.4060  0.2714
 1110TIP3   OH224888   4.077   2.529   7.799 -0.0347 -0.4157 -0.0122
 1110TIP3    H124889   4.094   2.469   7.872 -2.7255  0.1595  1.2101
 1110TIP3    H224890   4.087   2.616   7.837 -0.0463 -0.0910 -0.7422
 1111TIP3   OH224891   3.421   2.514   7.898  0.2595 -0.4976  0.3652
 1111TIP3    H124892   3.506   2.503   7.856  0.5456  1.4078  0.3377
 1111TIP3    H224893   3.438   2.570   7.973 -0.8777 -0.6029  0.7219
 1112TIP3   OH224894   4.527   1.391   7.620 -0.6280  0.1625  0.0827
 1112TIP3    H124895   4.530   1.471   7.568 -2.6185 -1.5274 -2.8693
 1112TIP3    H224896   4.436   1.382   7.648 -0.0884 -0.2453  1.8974
 1113TIP3   OH224897   2.668   4.528   2.307  0.0789  0.3732 -0.0480
 1113TIP3    H124898   2.633   4.599   2.253  0.0017  0.9002  0.6836
 1113TIP3    H224899   2.756   4.556   2.329 -0.9787  1.7717  2.8342
 1114TIP3   OH224900   3.701   0.176   0.812 -0.3328  0.1834 -0.3651
 1114TIP3    H124901   3.634   0.118   0.849  0.8783 -1.3925 -0.5409
 1114TIP3    H224902   3.665   0.264   0.823 -2.2806 -0.5843 -0.1591
 1115TIP3   OH224903   5.675   6.319   8.632  0.2762  0.3856  0.2354
 1115TIP3    H124904   5.592   6.300   8.675 -0.4894  1.3431 -0.7722
 1115TIP3    H224905   5.692   6.411   8.653 -0.6915  1.2345 -2.3665
 1116TIP3   OH224906   4.570   4.215   8.513 -0.1695  0.3547 -0.5182
 1116TIP3    H124907   4.507   4.271   8.467  0.0474 -0.3041 -1.6740
 1116TIP3    H224908   4.598   4.152   8.446  0.9136 -0.0219  0.2670
 1117TIP3   OH224909   6.407   0.115   1.625  0.1994 -0.0558 -0.1415
 1117TIP3    H124910   6.437   0.091   1.537 -1.7753 -2.5933 -0.2230
 1117TIP3    H224911   6.456   0.058   1.683 -0.1663 -0.0125  0.2121
 1118TIP3   OH224912   0.920   5.927   1.868  0.0824  0.3185 -0.1327
 1118TIP3    H124913   0.942   5.839   1.836 -0.5731  0.5661 -1.3301
 1118TIP3    H224914   0.972   5.937   1.948 -0.6489 -1.5674  0.6439
 1119TIP3   OH224915   5.435   3.354   7.707  0.5076  0.0617  0.4468
 1119TIP3    H124916   5.444   3.446   7.685  0.8349  0.1026  0.7425
 1119TIP3    H224917   5.362   3.323   7.653  0.9028  0.2984 -0.2277
 1120TIP3   OH224918   6.684   2.124   1.937 -0.5856  0.3202  0.1394
 1120TIP3    H124919   6.690   2.212   1.900 -0.6131  0.0293 -0.5740
 1120TIP3    H224920   6.663   2.068   1.862  0.1241 -0.3894  0.4637
 1121TIP3   OH224921   3.603   1.356   8.400 -0.0283 -0.2786  0.5755
 1121TIP3    H124922   3.698   1.355   8.412  0.2625 -0.4335 -1.3768
 1121TIP3    H224923   3.585   1.274   8.353 -0.7207  0.9534 -1.4294
 1122TIP3   OH224924   5.657   1.975   2.199  0.0279  0.1297  1.0014
 1122TIP3    H124925   5.598   1.925   2.255  0.6491 -0.6871  0.9321
 1122TIP3    H224926   5.647   1.936   2.112  1.8480 -1.0932  1.3050
 1123TIP3   OH224927   3.547   3.959   7.961 -0.7656 -0.4737 -0.1450
 1123TIP3    H124928   3.611   4.019   7.923 -1.0079  0.1863  0.4709
 1123TIP3    H224929   3.497   3.926   7.886 -2.4303  2.1719 -0.3408
 1124TIP3   OH224930   0.771   2.751   1.381 -0.2935 -0.0559 -0.1679
 1124TIP3    H124931   0.716   2.735   1.305  0.2023 -2.3766 -0.1092
 1124TIP3    H224932   0.804   2.840   1.368 -2.0183  0.4476 -1.4653
 1125TIP3   OH224933   3.945   5.866   0.264  0.5075  0.0874  0.1124
 1125TIP3    H124934   3.984   5.867   0.177  1.3195  1.2361  0.4623
 1125TIP3    H224935   4.014   5.898   0.322 -0.7915  1.7916  0.8227
 1126TIP3   OH224936   6.668   6.622   0.320  0.2612 -0.4499  0.3264
 1126TIP3    H124937   6.754   6.660   0.304  0.5244 -0.6408  1.2409
 1126TIP3    H224938   6.674   6.534   0.282 -0.6090  0.5800 -2.5151
 1127TIP3   OH224939   4.030   6.807   8.275  0.2185 -0.0343 -0.4240
 1127TIP3    H124940   4.061   6.731   8.226  0.1088 -0.6322  0.4250
 1127TIP3    H224941   4.107   6.865   8.279  0.2744 -0.0420 -1.1514
 1128TIP3   OH224942   5.225   6.301   2.024 -0.2341  0.2365  0.3384
 1128TIP3    H124943   5.207   6.226   2.080 -0.1227  0.0214  0.0885
 1128TIP3    H224944   5.255   6.263   1.941  0.4144  0.5715  0.4157
 1129TIP3   OH224945   2.263   3.449   2.678 -0.1635 -0.0251  0.0985
 1129TIP3    H124946   2.266   3.353   2.686 -0.2736 -0.1708 -1.4273
 1129TIP3    H224947   2.320   3.469   2.604  1.6310  1.3123  1.7412
 1130TIP3   OH224948   6.128   0.909   0.703  0.4808 -0.2069  0.3365
 1130TIP3    H124949   6.074   0.850   0.756 -1.4270 -0.0883 -1.3469
 1130TIP3    H224950   6.159   0.855   0.631  0.2316  0.3940 -0.2324
 1131TIP3   OH224951   3.915   1.974   7.693 -0.1698 -0.0060  0.7724
 1131TIP3    H124952   3.975   1.926   7.751  0.0557  0.5031  0.9683
 1131TIP3    H224953   3.911   2.062   7.731  0.4597  0.5159 -0.3275
 1132TIP3   OH224954   6.047   4.132   1.851  0.1581  0.0254  0.4045
 1132TIP3    H124955   6.135   4.094   1.847  0.9682  1.7948  0.8439
 1132TIP3    H224956   6.029   4.143   1.944 -0.3203  0.1935  0.2978
 1133TIP3   OH224957   4.946   4.921   0.946 -0.2461  0.2295  0.3942
 1133TIP3    H124958   4.955   4.907   1.041  0.2029  0.2487  0.3526
 1133TIP3    H224959   4.979   5.009   0.932  0.3852 -0.0504  0.1089
 1134TIP3   OH224960   2.790   2.955   1.677  0.0940  0.7679 -0.6535
 1134TIP3    H124961   2.791   3.032   1.620 -1.0741  0.5119 -1.0509
 1134TIP3    H224962   2.802   2.881   1.617 -3.2242  0.3221 -0.9514
 1135TIP3   OH224963   4.498   3.168   8.113 -0.1237  0.4742 -0.2759
 1135TIP3    H124964   4.440   3.094   8.098  0.8324 -0.5428  0.7419
 1135TIP3    H224965   4.448   3.227   8.169 -0.4514 -0.0209 -0.0383
 1136TIP3   OH224966   0.838   6.043   8.085 -0.0554  0.4033  0.6146
 1136TIP3    H124967   0.826   6.003   8.171  0.1595 -0.9114  0.0606
 1136TIP3    H224968   0.886   5.978   8.034  2.6968  2.3831  0.4230
 1137TIP3   OH224969   6.411   1.990   0.754 -0.3152 -0.5314  0.1228
 1137TIP3    H124970   6.338   1.938   0.787 -1.4518  1.1149  0.3161
 1137TIP3    H224971   6.428   2.055   0.823 -1.7759  2.0412 -1.7773
 1138TIP3   OH224972   4.744   4.961   1.344 -0.2782 -0.8438 -0.5854
 1138TIP3    H124973   4.673   5.022   1.324 -0.3260 -0.4979  0.5467
 1138TIP3    H224974   4.700   4.886   1.383  0.0765  0.7041  3.2982
 1139TIP3   OH224975   1.858   1.936   2.203 -0.0299  0.5505  0.2789
 1139TIP3    H124976   1.934   1.986   2.232 -0.1440  0.8028  0.1459
 1139TIP3    H224977   1.879   1.845   2.224  0.6012  0.5365 -0.4015
 1140TIP3   OH224978   3.110   4.558   1.731 -1.2356 -0.1953 -0.1783
 1140TIP3    H124979   3.079   4.618   1.798  0.7462  0.1565  0.4967
 1140TIP3    H224980   3.133   4.615   1.657  1.6109  0.1041  0.8262
 1141TIP3   OH224981   4.610   2.058   8.459  0.3689  0.5841  0.0927
 1141TIP3    H124982   4.570   1.976   8.489 -0.1972  1.1364  0.8981
 1141TIP3    H224983   4.585   2.065   8.367 -0.6982  0.4977  0.3610
 1142TIP3   OH224984   2.313   5.023   1.582 -0.2488 -0.5833 -0.2572
 1142TIP3    H124985   2.355   4.939   1.566  1.3535  0.1025  0.1248
 1142TIP3    H224986   2.374   5.087   1.545 -0.1351  0.5562  1.7558
 1143TIP3   OH224987   5.746   1.329   8.687 -0.4091 -0.0264 -0.3251
 1143TIP3    H124988   5.759   1.242   8.724  1.1765  0.6606  0.9034
 1143TIP3    H224989   5.822   1.342   8.630 -0.9027  0.3533 -0.8982
 1144TIP3   OH224990   2.400   0.126   0.459  0.4949 -0.2863 -0.7523
 1144TIP3    H124991   2.375   0.077   0.381 -1.3835  1.8408 -1.6306
 1144TIP3    H224992   2.406   0.217   0.428  1.6992  0.3514  1.1974
 1145TIP3   OH224993   4.912   3.371   3.343 -0.2959  0.2119  0.0232
 1145TIP3    H124994   4.885   3.456   3.379 -0.7952 -0.4874  1.3549
 1145TIP3    H224995   4.836   3.314   3.357 -0.3676 -0.2012 -1.8313
 1146TIP3   OH224996   6.023   1.045   2.241  0.3212 -0.1061  0.3249
 1146TIP3    H124997   6.036   1.137   2.261  0.3923 -0.1283  0.3818
 1146TIP3    H224998   6.103   1.018   2.196  0.6374 -0.3352  1.0040
 1147TIP3   OH224999   6.557   0.830   7.902 -0.3499 -0.5348  0.6039
 1147TIP3    H125000   6.479   0.878   7.930 -0.9617 -0.0848 -1.6422
 1147TIP3    H225001   6.629   0.892   7.915 -0.5666 -0.4294  1.3384
 1148TIP3   OH225002   2.439   3.330   0.065 -0.3682  0.3495  0.1971
 1148TIP3    H125003   2.477   3.340  -0.023 -2.3432  1.5188 -0.5814
 1148TIP3    H225004   2.506   3.364   0.124  1.5811 -1.6927 -0.6636
 1149TIP3   OH225005   1.647   5.194   8.699  0.0548  0.4002 -0.8545
 1149TIP3    H125006   1.633   5.179   8.606 -1.0325  1.4325 -0.8850
 1149TIP3    H225007   1.663   5.288   8.706 -2.8524  0.9231  0.2649
 1150TIP3   OH225008   6.727   0.745   2.176  0.3970 -0.1338  0.1195
 1150TIP3    H125009   6.796   0.716   2.116  0.6213  2.6102 -1.1225
 1150TIP3    H225010   6.646   0.734   2.126  0.1611 -1.1453  0.6958
 1151TIP3   OH225011   0.593   5.225   1.364  0.0193 -0.0137 -0.0934
 1151TIP3    H125012   0.540   5.182   1.297 -1.0615 -0.5806  1.0899
 1151TIP3    H225013   0.672   5.170   1.370 -0.4796 -0.7280  0.0331
 1152TIP3   OH225014   6.432   5.926   1.326 -0.3219  0.0795 -0.1106
 1152TIP3    H125015   6.428   6.013   1.367 -0.2069  0.2420 -0.4391
 1152TIP3    H225016   6.516   5.925   1.281  0.3977 -0.8059  1.2135
 1153TIP3   OH225017   4.485   1.608   7.882  0.9289  0.2443 -0.1281
 1153TIP3    H125018   4.475   1.661   7.802  0.6320 -0.4072 -0.5283
 1153TIP3    H225019   4.576   1.579   7.879  1.1979  1.0047  0.2752
 1154TIP3   OH225020   0.033   3.307   7.665 -0.0525 -0.0298 -0.3407
 1154TIP3    H125021   0.124   3.336   7.671 -0.1259  0.1767 -0.1837
 1154TIP3    H225022   0.011   3.278   7.754 -0.0261 -0.4299 -0.4636
 1155TIP3   OH225023   3.125   6.192   2.993 -0.3995 -0.5457  0.1928
 1155TIP3    H125024   3.104   6.221   3.081  0.9022 -2.9241  1.3974
 1155TIP3    H225025   3.054   6.132   2.970  0.6090 -2.0555  0.8242
 1156TIP3   OH225026   5.343   0.319   1.232 -0.1857 -0.1202 -0.0358
 1156TIP3    H125027   5.259   0.364   1.224  0.5020  0.9157 -2.7358
 1156TIP3    H225028   5.366   0.296   1.142  3.2541  1.2573  0.3328
 1157TIP3   OH225029   0.204   3.227   0.836 -0.3427  0.1759 -0.2260
 1157TIP3    H125030   0.114   3.238   0.805 -0.8447 -0.4015  0.9393
 1157TIP3    H225031   0.213   3.132   0.850  0.3347  0.2616 -0.0378
 1158TIP3   OH225032   6.733   4.974   8.398 -0.3903 -0.3960 -0.0869
 1158TIP3    H125033   6.779   4.956   8.316 -0.2977 -0.4540 -0.0230
 1158TIP3    H225034   6.802   4.993   8.461 -0.5068  0.4952 -0.2253
 1159TIP3   OH225035   0.904   6.738   2.734 -0.4020  0.0849 -0.4483
 1159TIP3    H125036   0.822   6.787   2.742 -0.6585  0.1654 -2.8216
 1159TIP3    H225037   0.882   6.665   2.676  0.9972 -0.4205 -0.3646
 1160TIP3   OH225038   3.388   3.857   0.740 -0.3853 -0.5151 -0.1946
 1160TIP3    H125039   3.467   3.908   0.755 -1.8345  2.1353 -1.0441
 1160TIP3    H225040   3.318   3.908   0.779 -1.8516 -2.2025 -0.4998
 1161TIP3   OH225041   5.972   4.895   8.061  0.2514 -0.2748 -0.7396
 1161TIP3    H125042   5.922   4.835   8.007 -0.7160 -0.4392  0.2993
 1161TIP3    H225043   5.991   4.846   8.141  0.8076  0.2875 -0.5155
 1162TIP3   OH225044   3.236   0.376   7.566 -0.0879  0.1123  0.3100
 1162TIP3    H125045   3.180   0.306   7.530 -1.2561  1.2140 -0.0971
 1162TIP3    H225046   3.300   0.329   7.619 -1.6713 -1.2082  1.1710
 1163TIP3   OH225047   4.909   2.236   1.546  0.4792  0.0317  0.3547
 1163TIP3    H125048   4.972   2.296   1.586  1.1058 -1.2758  1.3645
 1163TIP3    H225049   4.942   2.223   1.457  1.3212 -0.1803  0.6867
 1164TIP3   OH225050   5.624   3.713   1.967 -0.2008  0.5662  0.1798
 1164TIP3    H125051   5.697   3.733   1.908  1.5424  0.6518  2.2490
 1164TIP3    H225052   5.610   3.619   1.955  0.3988  0.5051 -0.1026
 1165TIP3   OH225053   2.216   3.299   1.650 -0.0080  0.4898  0.0349
 1165TIP3    H125054   2.187   3.215   1.684 -0.7465  0.7838  0.1509
 1165TIP3    H225055   2.218   3.287   1.555  0.0622  0.2870  0.0619
 1166TIP3   OH225056   1.205   0.184   7.480 -0.3740  0.1924  0.1067
 1166TIP3    H125057   1.113   0.187   7.504 -0.5356  0.6314 -0.5317
 1166TIP3    H225058   1.238   0.272   7.500 -0.6930  0.8156 -1.9011
 1167TIP3   OH225059   0.897   0.418   3.195 -0.5217  0.4776 -0.2053
 1167TIP3    H125060   0.853   0.380   3.271  1.3164  1.5301  1.4822
 1167TIP3    H225061   0.880   0.512   3.202 -0.8803  0.5421 -1.5285
 1168TIP3   OH225062   1.412   0.152   8.718 -0.2578 -0.5397 -0.6562
 1168TIP3    H125063   1.369   0.103   8.788  1.6316 -1.2160  0.1247
 1168TIP3    H225064   1.341   0.194   8.670 -1.6716 -0.6956  1.1908
 1169TIP3   OH225065   1.316   0.080   8.432  0.1216  0.7685 -0.1597
 1169TIP3    H125066   1.270   0.160   8.458 -1.0387  0.3889 -0.9522
 1169TIP3    H225067   1.248   0.013   8.431  1.0039 -0.1485  0.0845
 1170TIP3   OH225068   0.155   2.729   0.450  0.6517  0.1438 -0.2186
 1170TIP3    H125069   0.068   2.719   0.487  0.7502  0.5169  0.1112
 1170TIP3    H225070   0.142   2.784   0.373  0.7288  0.9775  0.3555
 1171TIP3   OH225071   1.761   6.075   8.450  0.0151 -0.0895  0.7813
 1171TIP3    H125072   1.755   6.036   8.363 -0.2396  0.8962  0.3463
 1171TIP3    H225073   1.845   6.120   8.450 -0.8358  1.5675  0.3227
 1172TIP3   OH225074   0.206   5.759   1.206  0.0545 -0.4148 -0.1719
 1172TIP3    H125075   0.264   5.781   1.133 -0.4942 -1.3360 -0.8997
 1172TIP3    H225076   0.207   5.838   1.261  0.6602  0.2081 -1.0426
 1173TIP3   OH225077   4.643   4.690   2.166 -0.0391  0.0559 -0.3312
 1173TIP3    H125078   4.726   4.647   2.186 -0.5627 -0.3982  0.9696
 1173TIP3    H225079   4.576   4.624   2.186 -0.7103  0.2176 -1.9021
 1174TIP3   OH225080   1.619   6.488   8.285 -0.4688  0.0278  0.2574
 1174TIP3    H125081   1.601   6.534   8.366  0.6211 -0.4390  0.7906
 1174TIP3    H225082   1.539   6.438   8.267 -0.0604 -1.4162  2.1323
 1175TIP3   OH225083   1.649   4.372   0.430 -0.0197  0.2846 -0.1177
 1175TIP3    H125084   1.669   4.282   0.403 -1.5440 -0.5748  1.4435
 1175TIP3    H225085   1.554   4.378   0.426 -0.2303  0.7131  2.9368
 1176TIP3   OH225086   0.790   2.065   3.027  0.3151  0.1515 -0.1311
 1176TIP3    H125087   0.834   2.128   3.084 -0.5745  0.3929  0.3231
 1176TIP3    H225088   0.726   2.023   3.085 -0.6969  0.4925 -0.9776
 1177TIP3   OH225089   0.869   5.153   7.022  1.0547 -0.3713  0.2375
 1177TIP3    H125090   0.818   5.224   6.982 -1.1495 -1.7239  0.4716
 1177TIP3    H225091   0.915   5.195   7.094 -0.4888  0.7875  0.5998
 1178TIP3   OH225092   4.750   3.513   1.660  0.4548 -0.1944 -0.3443
 1178TIP3    H125093   4.667   3.558   1.645  0.4887 -0.1738 -0.4678
 1178TIP3    H225094   4.751   3.443   1.595  0.7237  0.0616 -0.6150
 1179TIP3   OH225095   4.612   5.596   8.055  0.2046 -0.5150 -0.5712
 1179TIP3    H125096   4.588   5.517   8.005  1.2946 -0.4755 -1.1971
 1179TIP3    H225097   4.636   5.660   7.988 -0.5826  0.3243 -0.0603
 1180TIP3   OH225098   3.836   4.045   1.274 -0.1280 -0.4426  0.0059
 1180TIP3    H125099   3.832   4.079   1.185  0.0932 -0.2425  0.0713
 1180TIP3    H225100   3.820   3.951   1.265 -0.8281 -0.3104 -0.1707
 1181TIP3   OH225101   3.692   3.839   7.609 -0.5099  0.2258 -0.2235
 1181TIP3    H125102   3.678   3.868   7.519 -0.3375  2.1919  0.3510
 1181TIP3    H225103   3.625   3.884   7.660  0.8233  0.9605  0.9527
 1182TIP3   OH225104   0.238   0.120   2.255  0.0836 -0.4084  0.3968
 1182TIP3    H125105   0.334   0.124   2.256  0.1590 -0.9558 -1.0132
 1182TIP3    H225106   0.218   0.062   2.181 -1.3387 -0.2912  0.6646
 1183TIP3   OH225107   5.454   6.196   7.797  0.0164  0.4043  0.1468
 1183TIP3    H125108   5.391   6.146   7.850 -1.3106 -1.2035 -2.7195
 1183TIP3    H225109   5.404   6.273   7.768 -0.3946 -0.4025 -1.3743
 1184TIP3   OH225110   4.968   0.326   2.741 -0.2805  0.6110 -0.6587
 1184TIP3    H125111   4.956   0.417   2.769 -1.1454  0.0535  0.9391
 1184TIP3    H225112   4.951   0.275   2.821  0.5567 -0.9297 -1.4374
 1185TIP3   OH225113   4.602   2.344   0.086  0.3968 -0.1260  0.5708
 1185TIP3    H125114   4.643   2.423   0.121 -0.7804  1.0285 -0.5110
 1185TIP3    H225115   4.651   2.325   0.006  0.9384 -0.7468  1.0449
 1186TIP3   OH225116   2.463   2.850   3.144  0.2083  0.3533  0.1626
 1186TIP3    H125117   2.555   2.866   3.124 -0.0794  1.3744 -0.3908
 1186TIP3    H225118   2.433   2.929   3.189 -0.2696 -0.1863  0.8219
 1187TIP3   OH225119   2.816   2.230   0.072 -0.5900 -0.0663 -0.0380
 1187TIP3    H125120   2.837   2.299   0.009  1.3518  1.0432  1.7272
 1187TIP3    H225121   2.869   2.156   0.046 -0.9969 -0.1618 -0.6182
 1188TIP3   OH225122   0.023   3.655   7.154 -0.2413  0.3336  0.0388
 1188TIP3    H125123   0.068   3.612   7.082  0.6952  2.4956 -0.7598
 1188TIP3    H225124   0.007   3.744   7.122 -1.3579  0.8500  1.8726
 1189TIP3   OH225125   1.335   3.070   8.370  0.3351 -0.0164  0.0115
 1189TIP3    H125126   1.289   3.107   8.445  0.3693 -0.6391  0.3481
 1189TIP3    H225127   1.426   3.094   8.383  0.4904 -0.8963  0.6658
 1190TIP3   OH225128   2.385   1.908   2.697  0.4812 -0.2652  0.5055
 1190TIP3    H125129   2.399   1.978   2.633  0.7944 -1.2623 -0.5475
 1190TIP3    H225130   2.290   1.899   2.703  0.4570 -0.5691 -0.2826
 1191TIP3   OH225131   3.375   5.710   6.859 -0.1331  0.1487 -0.1206
 1191TIP3    H125132   3.418   5.794   6.878 -0.8847 -0.1833  4.0196
 1191TIP3    H225133   3.284   5.724   6.885 -0.5881 -1.5528 -0.6798
 1192TIP3   OH225134   0.726   0.122   2.490  0.6414  0.0307 -0.5408
 1192TIP3    H125135   0.696   0.124   2.581 -0.6654  1.4783 -0.9574
 1192TIP3    H225136   0.724   0.030   2.466 -0.4664 -0.2308  0.4561
 1193TIP3   OH225137   5.465   5.242   0.074 -0.0536  0.2603 -0.5218
 1193TIP3    H125138   5.400   5.227   0.004 -0.8176 -2.3726  0.6457
 1193TIP3    H225139   5.549   5.246   0.028 -0.4456 -2.2620 -1.5916
 1194TIP3   OH225140   6.726   2.135   7.481  0.5248 -0.2098 -0.4842
 1194TIP3    H125141   6.671   2.213   7.487 -1.6136 -1.5581 -1.2259
 1194TIP3    H225142   6.771   2.143   7.396 -1.0142 -0.5371 -1.3705
 1195TIP3   OH225143   6.670   5.048   1.790 -0.0761  0.6594 -0.0066
 1195TIP3    H125144   6.649   5.073   1.700  0.3395 -2.0384 -0.9452
 1195TIP3    H225145   6.586   5.028   1.831 -0.1123 -0.4201 -0.5828
 1196TIP3   OH225146   2.094   6.727   2.220  0.3782 -0.1582  0.7440
 1196TIP3    H125147   2.069   6.781   2.146 -1.5007 -1.0327  0.6844
 1196TIP3    H225148   2.079   6.782   2.297  1.7067  0.5223  0.5427
 1197TIP3   OH225149   4.852   2.052   1.865 -0.1247 -0.0708  0.2501
 1197TIP3    H125150   4.823   2.065   1.774 -0.2361 -0.0658  0.2867
 1197TIP3    H225151   4.878   2.139   1.894 -0.4070 -0.0147  0.3337
 1198TIP3   OH225152   5.426   0.201   6.787 -0.8149 -0.4052 -0.3364
 1198TIP3    H125153   5.497   0.194   6.850  0.1200  0.7563 -1.2211
 1198TIP3    H225154   5.396   0.111   6.774 -0.9452 -0.6897  1.6329
 1199TIP3   OH225155   6.099   3.997   7.375 -0.0377 -0.4758 -0.3087
 1199TIP3    H125156   6.188   4.032   7.378  0.6714 -2.1945  0.4601
 1199TIP3    H225157   6.059   4.023   7.458  0.1833 -0.7454 -0.1169
 1200TIP3   OH225158   2.463   4.412   7.906 -0.4869  0.4258 -0.3044
 1200TIP3    H125159   2.457   4.346   7.837  0.4498 -1.5578  1.4152
 1200TIP3    H225160   2.557   4.423   7.920 -0.6598  1.0213  0.4602
 1201TIP3   OH225161   5.274   3.370   7.460  0.1885  0.2816 -0.0918
 1201TIP3    H125162   5.221   3.291   7.447 -1.7542  1.5281 -0.2101
 1201TIP3    H225163   5.272   3.414   7.375 -1.6568  2.0929  0.7969
 1202TIP3   OH225164   2.949   3.374   2.378 -0.0396  0.1245  0.2331
 1202TIP3    H125165   2.879   3.435   2.402  0.0666 -0.1980  1.4718
 1202TIP3    H225166   3.020   3.393   2.439 -0.9437 -2.8886  2.5149
 1203TIP3   OH225167   2.643   1.395   1.849 -0.1328  0.2105  0.2064
 1203TIP3    H125168   2.705   1.393   1.921  0.8472  1.6279 -0.5339
 1203TIP3    H225169   2.607   1.307   1.845  1.3047 -0.4524  1.1319
 1204TIP3   OH225170   5.550   4.353   8.731  0.1358 -0.7089 -0.3573
 1204TIP3    H125171   5.580   4.388   8.815  1.1551 -0.0572 -0.9649
 1204TIP3    H225172   5.462   4.320   8.748  0.0440  0.0871  0.7946
 1205TIP3   OH225173   1.173   1.894   1.053  0.4446 -0.3578  0.5389
 1205TIP3    H125174   1.177   1.908   1.147  1.4206 -1.9012  0.7676
 1205TIP3    H225175   1.258   1.924   1.021 -0.3138  1.2687 -0.0531
 1206TIP3   OH225176   3.612   3.356   1.001  0.0532  0.1838  0.4566
 1206TIP3    H125177   3.565   3.358   1.085 -0.6235 -0.9095  0.1188
 1206TIP3    H225178   3.673   3.283   1.010 -1.2974 -1.1496 -0.6314
 1207TIP3   OH225179   4.092   1.527   2.423  0.5905  0.0940 -0.0511
 1207TIP3    H125180   4.144   1.564   2.494  1.2796 -0.0850 -0.4554
 1207TIP3    H225181   4.150   1.463   2.381 -0.6005 -1.5925  0.7308
 1208TIP3   OH225182   4.873   5.844   7.780  0.0368  0.4833  0.1801
 1208TIP3    H125183   4.904   5.823   7.692 -1.3622  1.3958 -0.5779
 1208TIP3    H225184   4.946   5.823   7.837  0.5102 -1.4411 -1.0411
 1209TIP3   OH225185   4.262   1.349   7.659 -0.2724  0.3958 -0.3099
 1209TIP3    H125186   4.224   1.398   7.586  0.5290  1.7601  0.1479
 1209TIP3    H225187   4.245   1.404   7.736  1.8049  0.6258  0.0358
 1210TIP3   OH225188   5.976   2.093   2.045 -0.2570  0.2825  0.5717
 1210TIP3    H125189   6.031   2.018   2.063 -0.2107  0.6524  2.0647
 1210TIP3    H225190   6.017   2.136   1.969  1.3443  0.3838  1.4672
 1211TIP3   OH225191   5.873   2.231   8.253 -0.0726 -0.9640 -0.1674
 1211TIP3    H125192   5.796   2.179   8.275  1.1750 -1.8851  2.3568
 1211TIP3    H225193   5.881   2.294   8.325  0.5054  0.3859 -1.3604
 1212TIP3   OH225194   4.811   1.340   1.416  0.1968  0.2014 -0.0418
 1212TIP3    H125195   4.815   1.315   1.324  0.9691  0.6849 -0.1520
 1212TIP3    H225196   4.884   1.401   1.427  3.2210 -3.3144  1.9084
 1213TIP3   OH225197   5.332   2.117   7.230 -0.2878  0.3582 -0.8539
 1213TIP3    H125198   5.274   2.187   7.201  0.5934  1.1903 -0.6624
 1213TIP3    H225199   5.273   2.054   7.273 -0.9558  1.5907  0.1090
 1214TIP3   OH225200   3.950   5.847   2.144 -0.5096  0.2178 -0.0460
 1214TIP3    H125201   3.906   5.764   2.128  1.8782 -0.8247 -2.0246
 1214TIP3    H225202   3.991   5.836   2.230 -0.9354 -0.3230  0.0937
 1215TIP3   OH225203   3.271   4.534   2.307  0.3201  0.1998  0.2814
 1215TIP3    H125204   3.253   4.460   2.249  2.1805  0.3483 -0.5718
 1215TIP3    H225205   3.342   4.503   2.364  1.1552  1.3130 -0.1090
 1216TIP3   OH225206   6.329   4.635   1.714 -0.4559 -0.1323  0.1538
 1216TIP3    H125207   6.261   4.613   1.778 -2.5108  1.8445 -1.2098
 1216TIP3    H225208   6.409   4.642   1.766 -1.4435 -1.5490  1.9911
 1217TIP3   OH225209   6.166   6.425   8.220 -0.1067 -0.8655 -0.0439
 1217TIP3    H125210   6.258   6.421   8.244 -0.2565 -0.0735  0.7319
 1217TIP3    H225211   6.141   6.333   8.206  0.7105 -1.1145  0.0832
 1218TIP3   OH225212   2.589   3.083   1.811 -0.6092  0.0028 -0.5779
 1218TIP3    H125213   2.639   3.028   1.751  1.3750  1.4151 -0.3440
 1218TIP3    H225214   2.534   3.138   1.754 -1.4895 -1.1520 -0.8736
 1219TIP3   OH225215   3.790   5.016   3.208 -0.7118 -0.7076 -0.3624
 1219TIP3    H125216   3.851   5.057   3.147 -0.5807 -1.9899 -1.1418
 1219TIP3    H225217   3.713   5.072   3.207  0.3099  0.7866  0.4244
 1220TIP3   OH225218   4.357   0.618   1.166  0.1485 -0.3718  0.3271
 1220TIP3    H125219   4.425   0.657   1.220  1.0252 -3.0365  1.2969
 1220TIP3    H225220   4.390   0.624   1.076  1.2130 -0.6912  0.6855
 1221TIP3   OH225221   3.042   4.285   1.541 -0.5879 -0.0356 -0.5431
 1221TIP3    H125222   3.118   4.334   1.509 -0.0149 -1.6526 -1.8235
 1221TIP3    H225223   3.080   4.207   1.582 -1.5178 -0.0903  0.2429
 1222TIP3   OH225224   5.411   2.682   2.021  0.5102  0.3228 -0.0092
 1222TIP3    H125225   5.371   2.706   2.105  1.0909  0.4690  0.2284
 1222TIP3    H225226   5.492   2.733   2.018  1.8506 -1.6855  0.5580
 1223TIP3   OH225227   0.055   2.638   3.399  1.1251  0.0463 -0.7051
 1223TIP3    H125228   0.105   2.718   3.384  1.3977 -0.4685 -3.1049
 1223TIP3    H225229   0.005   2.626   3.318  0.3649 -1.6962 -0.0319
 1224TIP3   OH225230   1.529   0.003   8.278 -0.0510 -0.1764  0.0644
 1224TIP3    H125231   1.556  -0.053   8.351 -1.7865 -0.9696  0.1468
 1224TIP3    H225232   1.468   0.066   8.317 -0.9337 -0.5630 -0.6624
 1225TIP3   OH225233   5.832   4.041   1.378  0.1222  0.3062 -0.6077
 1225TIP3    H125234   5.796   4.116   1.425 -0.3046 -1.1008  1.4725
 1225TIP3    H225235   5.767   4.021   1.311 -0.5572  0.8072 -0.1149
 1226TIP3   OH225236   6.180   2.430   1.263  0.3722  0.4323  0.2246
 1226TIP3    H125237   6.165   2.462   1.352  1.1303  3.2077 -0.5494
 1226TIP3    H225238   6.102   2.455   1.214  1.0568  1.3079 -0.4552
 1227TIP3   OH225239   5.345   2.930   1.198 -0.4349  0.2691 -0.0992
 1227TIP3    H125240   5.368   3.018   1.168 -0.3114  0.5163  0.7090
 1227TIP3    H225241   5.353   2.933   1.293  0.5418 -0.8875 -0.1122
 1228TIP3   OH225242   3.874   2.823   1.505  0.2080  0.0572  0.5770
 1228TIP3    H125243   3.942   2.851   1.443 -0.0139  1.0976  0.7849
 1228TIP3    H225244   3.891   2.730   1.518  0.4321 -0.1225 -0.8237
 1229TIP3   OH225245   2.814   4.890   8.676 -0.2016 -0.6058 -0.0122
 1229TIP3    H125246   2.813   4.980   8.709  0.1863 -1.1404  1.5535
 1229TIP3    H225247   2.874   4.893   8.601  0.4911  0.2774  0.5460
 1230TIP3   OH225248   3.581   1.620   8.330 -0.7010  0.0211  0.9097
 1230TIP3    H125249   3.605   1.528   8.327 -2.0210 -0.3915  1.9212
 1230TIP3    H225250   3.616   1.657   8.248  2.9290 -0.5185  2.0475
 1231TIP3   OH225251   6.426   3.099   2.574 -0.2762 -0.0448 -0.6039
 1231TIP3    H125252   6.487   3.172   2.587 -0.1012 -0.5204  1.9074
 1231TIP3    H225253   6.451   3.036   2.642 -1.3789 -1.7960 -1.7544
 1232TIP3   OH225254   6.781   0.539   8.492  0.1874  0.0381 -0.2345
 1232TIP3    H125255   6.788   0.451   8.455  0.4207  0.9065 -2.3957
 1232TIP3    H225256   6.834   0.535   8.572  1.1852 -1.4585 -0.9201
 1233TIP3   OH225257   4.483   1.523   2.236  0.0744 -0.3519 -0.4894
 1233TIP3    H125258   4.463   1.611   2.204  3.5293  1.1883  1.0883
 1233TIP3    H225259   4.421   1.466   2.190 -1.0711  2.6502 -3.0037
 1234TIP3   OH225260   5.263   3.874   0.012  0.7480 -0.0336  0.5046
 1234TIP3    H125261   5.301   3.905  -0.071  1.8310  0.3001  1.1082
 1234TIP3    H225262   5.195   3.938   0.033 -0.3614 -0.7599 -0.7042
 1235TIP3   OH225263   6.415   5.809   8.246  0.3378 -0.7112 -0.2565
 1235TIP3    H125264   6.333   5.835   8.203 -0.0161 -0.5185  0.5220
 1235TIP3    H225265   6.465   5.765   8.177 -0.6952 -1.4112 -0.5783
 1236TIP3   OH225266   0.420   1.645   7.036  0.0692  0.1612 -0.3591
 1236TIP3    H125267   0.336   1.615   7.071 -0.9644  0.6861 -2.2136
 1236TIP3    H225268   0.408   1.740   7.025  1.3223  0.4242  0.3537
 1237TIP3   OH225269   3.141   0.609   1.909  0.2178  0.1116  0.1872
 1237TIP3    H125270   3.074   0.617   1.976  0.9832 -1.2299  1.1659
 1237TIP3    H225271   3.135   0.518   1.880 -0.7821  0.8805 -2.3607
 1238TIP3   OH225272   1.125   3.387   1.664  0.5315 -0.4409  0.1812
 1238TIP3    H125273   1.179   3.444   1.609 -0.7074  0.0025 -0.6284
 1238TIP3    H225274   1.186   3.325   1.703  1.7301  0.6004  0.0096
 1239TIP3   OH225275   4.626   2.936   2.067  0.4929  0.2670 -0.0536
 1239TIP3    H125276   4.649   2.853   2.110  2.0717  1.5099  1.6419
 1239TIP3    H225277   4.557   2.973   2.121  0.7704  0.7126 -0.0060
 1240TIP3   OH225278   6.690   3.403   7.081  0.4913 -0.5858 -0.1647
 1240TIP3    H125279   6.648   3.446   7.007 -0.3949 -0.4456  0.4036
 1240TIP3    H225280   6.772   3.450   7.093  0.0112  0.2714 -0.2088
 1241TIP3   OH225281   3.760   0.426   8.472  0.2008 -0.2349 -0.1285
 1241TIP3    H125282   3.830   0.460   8.416  0.6864 -1.7028 -0.4766
 1241TIP3    H225283   3.791   0.339   8.498 -0.5421 -0.0571  1.4861
 1242TIP3   OH225284   6.745   4.966   7.045  0.3224 -0.9796  0.6401
 1242TIP3    H125285   6.756   4.876   7.075  2.3484 -0.7971  0.5725
 1242TIP3    H225286   6.803   4.974   6.969 -1.0695 -0.0561 -0.3733
 1243TIP3   OH225287   0.395   5.203   8.476  0.1341  0.1050  0.2236
 1243TIP3    H125288   0.354   5.171   8.396  0.3813 -0.2962  0.2540
 1243TIP3    H225289   0.427   5.291   8.453 -1.1568  0.6203  0.3421
 1244TIP3   OH225290   5.720   1.354   0.980 -0.0030 -0.2863  0.3738
 1244TIP3    H125291   5.813   1.371   0.990  0.0601 -0.1762 -0.3483
 1244TIP3    H225292   5.696   1.304   1.058  0.9947 -1.7161 -0.1956
 1245TIP3   OH225293   5.469   1.091   1.843  0.1125  0.5999 -0.1341
 1245TIP3    H125294   5.436   1.005   1.871  0.6023  0.1754 -0.8441
 1245TIP3    H225295   5.424   1.153   1.901  0.4456 -0.1902  1.0188
 1246TIP3   OH225296   2.607   3.405   2.246 -0.2125  0.1594  0.1602
 1246TIP3    H125297   2.646   3.449   2.171 -2.0137  0.5652 -0.5855
 1246TIP3    H225298   2.652   3.443   2.322  1.5065 -0.1367 -0.6699
 1247TIP3   OH225299   4.069   5.067   1.910  0.2126 -0.2131 -0.1119
 1247TIP3    H125300   4.128   4.993   1.924  1.6363  1.2184  2.0159
 1247TIP3    H225301   3.990   5.045   1.959  0.5310 -0.4291  0.3093
 1248TIP3   OH225302   6.304   3.180   3.155 -0.1919  0.2300  1.0528
 1248TIP3    H125303   6.354   3.127   3.217  1.3070  0.5488  0.1769
 1248TIP3    H225304   6.213   3.165   3.179  0.2132 -1.9050  1.5332
 1249TIP3   OH225305   4.506   1.264   1.577 -0.1521  0.1844 -0.1091
 1249TIP3    H125306   4.440   1.285   1.643  1.1285  0.8671  0.9928
 1249TIP3    H225307   4.570   1.211   1.624  0.2392 -0.2304 -1.0949
 1250TIP3   OH225308   2.481   4.258   7.698  0.2729  0.0325 -0.2427
 1250TIP3    H125309   2.472   4.299   7.612  1.0184  0.2441 -0.2228
 1250TIP3    H225310   2.480   4.164   7.680  0.8506  0.0792 -0.5294
 1251TIP3   OH225311   3.596   5.402   1.496 -0.3845  0.4600  0.3786
 1251TIP3    H125312   3.561   5.363   1.576 -1.0862 -0.3953 -0.3223
 1251TIP3    H225313   3.621   5.491   1.522  1.7742 -0.5663  2.1636
 1252TIP3   OH225314   3.474   0.896   0.306  0.1646 -0.4295  0.2649
 1252TIP3    H125315   3.542   0.945   0.260  0.3405  0.9779  1.9027
 1252TIP3    H225316   3.475   0.932   0.395 -2.6561 -0.4036  0.3774
 1253TIP3   OH225317   0.225   6.641   8.642 -0.8008 -0.6632 -0.0581
 1253TIP3    H125318   0.310   6.627   8.602  0.1003  1.5270  0.9640
 1253TIP3    H225319   0.165   6.654   8.569  0.0185 -0.7364 -0.7471
 1254TIP3   OH225320   0.290   3.192   0.117  0.6982  0.1254 -0.3897
 1254TIP3    H125321   0.351   3.199   0.191  2.7186 -0.0955 -1.9297
 1254TIP3    H225322   0.311   3.268   0.063  1.3976 -1.2791 -2.1857
 1255TIP3   OH225323   2.697   6.487   8.141 -0.0746 -0.5710 -0.4204
 1255TIP3    H125324   2.760   6.451   8.079  0.1422 -0.1053 -0.4735
 1255TIP3    H225325   2.612   6.453   8.113  0.0803 -0.7225 -0.6998
 1256TIP3   OH225326   5.207   3.872   0.638  0.7853 -0.0496  0.2921
 1256TIP3    H125327   5.127   3.881   0.586  1.3760  1.3065 -0.4412
 1256TIP3    H225328   5.209   3.780   0.663 -1.2903  0.0115  0.8210
 1257TIP3   OH225329   5.056   2.983   0.845 -0.1084  0.5155  0.2948
 1257TIP3    H125330   5.041   3.062   0.898 -0.2399  0.8275 -0.1947
 1257TIP3    H225331   4.976   2.975   0.793 -0.3305 -0.2706  0.7476
 1258TIP3   OH225332   4.283   6.112   1.235 -0.3287  0.0941 -0.6446
 1258TIP3    H125333   4.335   6.105   1.155 -1.9604 -2.1622 -1.6319
 1258TIP3    H225334   4.332   6.062   1.300 -1.2711 -2.3474 -1.6719
 1259TIP3   OH225335   5.474   0.949   1.579 -0.6902 -0.2679  0.6555
 1259TIP3    H125336   5.463   1.031   1.629 -0.3007  0.4553 -0.4212
 1259TIP3    H225337   5.545   0.904   1.624 -0.9459 -0.0450  1.2980
 1260TIP3   OH225338   5.548   4.819   1.138 -0.6935  0.3770 -0.1460
 1260TIP3    H125339   5.570   4.850   1.051 -1.8955  1.3394 -0.1362
 1260TIP3    H225340   5.460   4.782   1.129 -0.2062 -0.9732  0.3436
 1261TIP3   OH225341   4.331   5.830   8.344 -0.3627  0.0857  0.0033
 1261TIP3    H125342   4.240   5.853   8.363 -0.7482 -0.6077 -0.9402
 1261TIP3    H225343   4.332   5.809   8.251  0.1196 -2.7810  0.5467
 1262TIP3   OH225344   4.751   1.251   1.092  0.2516  0.3442 -0.2212
 1262TIP3    H125345   4.746   1.324   1.031 -0.4561  0.0985 -0.4593
 1262TIP3    H225346   4.785   1.178   1.041 -0.4235  0.1146 -0.3515
 1263TIP3   OH225347   5.549   2.065   1.299  0.9446  0.4497  0.2348
 1263TIP3    H125348   5.488   2.025   1.361  2.3929  1.9691  2.8126
 1263TIP3    H225349   5.607   1.993   1.273  0.1668 -0.2656  0.4133
 1264TIP3   OH225350   5.823   0.630   1.411  0.2135  0.3326  0.1315
 1264TIP3    H125351   5.750   0.685   1.383  0.2632  0.0021 -0.6858
 1264TIP3    H225352   5.853   0.670   1.493 -0.2097  1.0932 -0.0680
 1265TIP3   OH225353   1.018   3.567   1.823  0.3134 -0.1270 -0.7989
 1265TIP3    H125354   1.067   3.493   1.785  0.3536 -1.3435  1.4707
 1265TIP3    H225355   1.085   3.633   1.838  1.6264 -2.0033  2.8514
 1266TIP3   OH225356   6.406   3.005   1.050 -0.3596  0.5079  0.6066
 1266TIP3    H125357   6.398   2.973   0.960  0.8634  0.4888  0.4827
 1266TIP3    H225358   6.337   2.960   1.098  0.6672 -1.6060  0.2270
 1267TIP3   OH225359   2.581   6.336   1.221 -0.1208  0.2999 -0.0930
 1267TIP3    H125360   2.657   6.310   1.273  0.9657  3.0223 -0.1193
 1267TIP3    H225361   2.607   6.319   1.130 -0.1612 -0.2015 -0.0103
 1268TIP3   OH225362   6.812   5.064   7.926 -0.1395 -0.3544  0.2829
 1268TIP3    H125363   6.895   5.112   7.922 -1.1929  1.6182  0.9114
 1268TIP3    H225364   6.756   5.108   7.862 -1.5676  0.1714  1.8277
 1269TIP3   OH225365   2.847   4.098   8.576 -0.5695  0.1991  0.1887
 1269TIP3    H125366   2.821   4.182   8.613  0.3606  0.1186  1.0745
 1269TIP3    H225367   2.931   4.116   8.533 -0.0735 -0.3878  0.8902
 1270TIP3   OH225368   0.256   5.473   0.444 -0.0120 -0.2557 -0.0044
 1270TIP3    H125369   0.245   5.484   0.539  1.5398 -1.9882  0.4507
 1270TIP3    H225370   0.328   5.411   0.436 -0.7919 -0.9590 -2.3252
 1271TIP3   OH225371   4.167   6.420   0.254  0.2295  0.0560 -0.3254
 1271TIP3    H125372   4.258   6.434   0.282  0.7562  1.4969 -2.4701
 1271TIP3    H225373   4.175   6.400   0.160 -1.7711  2.2070 -1.0233
 1272TIP3   OH225374   0.207   6.247   2.540 -0.2737  0.2226 -0.4129
 1272TIP3    H125375   0.242   6.158   2.542  0.0110  0.3474  1.4635
 1272TIP3    H225376   0.115   6.235   2.515 -0.6317 -0.7754  1.2074
 1273TIP3   OH225377   6.112   5.544   2.157  0.3257  0.3760  0.4644
 1273TIP3    H125378   6.192   5.503   2.190  0.1010 -1.4315 -1.0233
 1273TIP3    H225379   6.132   5.637   2.155  1.5671  0.1922  2.2553
 1274TIP3   OH225380   5.448   0.086   0.654  0.0736  0.3408 -0.0329
 1274TIP3    H125381   5.425   0.120   0.568 -0.6389 -0.2665 -0.0966
 1274TIP3    H225382   5.464   0.163   0.708 -0.5379  0.7556 -0.4307
 1275TIP3   OH225383   2.055   4.214   1.543 -0.3055  0.2790 -0.2987
 1275TIP3    H125384   2.052   4.201   1.638  2.9305  2.9638  0.3620
 1275TIP3    H225385   1.970   4.253   1.522 -2.1411 -2.7585  0.9131
 1276TIP3   OH225386   5.842   4.435   3.166  0.2711 -0.0420  0.2487
 1276TIP3    H125387   5.779   4.372   3.201  2.4778 -2.0791  0.8126
 1276TIP3    H225388   5.835   4.510   3.225 -0.4338 -0.9172  1.3338
 1277TIP3   OH225389   2.000   0.392   8.131  0.5307 -0.0538  0.4738
 1277TIP3    H125390   2.073   0.391   8.193 -0.2254 -0.3847  1.3794
 1277TIP3    H225391   2.040   0.421   8.048  1.7195 -0.4070  0.8934
 1278TIP3   OH225392   5.808   1.315   8.208 -0.1450  0.1167 -0.8206
 1278TIP3    H125393   5.810   1.382   8.139 -1.8793  2.2342  1.0146
 1278TIP3    H225394   5.715   1.306   8.230  0.3398 -0.5672  1.1409
 1279TIP3   OH225395   6.224   4.376   1.028 -0.0053  0.4504  0.6696
 1279TIP3    H125396   6.140   4.415   1.003 -0.0502 -0.8714 -1.5621
 1279TIP3    H225397   6.286   4.448   1.022 -0.5915  0.9051 -0.2257
 1280TIP3   OH225398   0.191   5.498   2.947 -0.8971  0.0128  0.0348
 1280TIP3    H125399   0.267   5.460   2.902 -1.3850 -0.6734 -0.2298
 1280TIP3    H225400   0.183   5.586   2.910 -0.2597  0.0769  0.0378
 1281TIP3   OH225401   6.409   1.292   7.561 -0.0180  0.0434  0.1151
 1281TIP3    H125402   6.491   1.244   7.576  0.0110  0.2160  0.5207
 1281TIP3    H225403   6.358   1.279   7.641 -0.0009  0.7029  0.2432
 1282TIP3   OH225404   4.973   0.923   2.867  0.1935  0.2178 -0.1405
 1282TIP3    H125405   4.890   0.960   2.897 -1.0873 -1.2143 -1.7474
 1282TIP3    H225406   5.004   0.871   2.941 -0.9022 -0.0983  0.1149
 1283TIP3   OH225407   3.079   1.519   1.951  0.2061  0.3109  0.0803
 1283TIP3    H125408   3.116   1.527   1.864  0.2822  0.6579  0.1425
 1283TIP3    H225409   2.984   1.525   1.937  0.1318 -1.1284 -0.1378
 1284TIP3   OH225410   6.596   0.427   2.219 -0.2319 -0.9219 -0.0397
 1284TIP3    H125411   6.650   0.461   2.289 -1.6117  1.3973 -0.0049
 1284TIP3    H225412   6.658   0.402   2.150  0.9395  0.3966  0.4964
 1285TIP3   OH225413   6.646   2.110   8.204 -0.1088  0.1752  0.0334
 1285TIP3    H125414   6.614   2.109   8.114  0.4230 -0.1055 -0.1546
 1285TIP3    H225415   6.716   2.175   8.204 -0.5198  0.6328  0.3969
 1286TIP3   OH225416   1.202   0.399   2.246  0.2441 -0.0748  0.8833
 1286TIP3    H125417   1.271   0.333   2.248  0.8982  0.6134  1.9243
 1286TIP3    H225418   1.185   0.413   2.153 -0.3894 -2.1694  0.6156
 1287TIP3   OH225419   2.298   2.308   7.094 -0.2070  0.1428 -0.3685
 1287TIP3    H125420   2.276   2.398   7.117  1.6749  0.9261 -1.3916
 1287TIP3    H225421   2.377   2.289   7.144 -0.1236 -0.6476 -0.7795
 1288TIP3   OH225422   4.245   1.711   8.264  0.1916  0.0382  0.1976
 1288TIP3    H125423   4.290   1.633   8.233  1.7713  0.0503  2.2896
 1288TIP3    H225424   4.206   1.749   8.185  3.1076 -0.4656 -1.6320
 1289TIP3   OH225425   3.698   4.516   7.790 -0.1410 -0.0825 -0.4476
 1289TIP3    H125426   3.761   4.522   7.862  0.8964 -0.8580 -1.2790
 1289TIP3    H225427   3.617   4.554   7.827  0.3243 -0.5597  1.1540
 1290TIP3   OH225428   5.566   3.823   7.397 -0.2441 -0.3569 -0.0935
 1290TIP3    H125429   5.473   3.799   7.392 -0.3645 -0.2875  1.2983
 1290TIP3    H225430   5.576   3.896   7.336 -0.9848 -0.7202 -0.6594
 1291TIP3   OH225431   4.976   4.537   2.510 -0.2477 -0.6768  0.0176
 1291TIP3    H125432   4.940   4.545   2.598  0.3159  1.1536  0.1156
 1291TIP3    H225433   5.068   4.514   2.523 -0.2508 -0.7710 -0.1152
 1292TIP3   OH225434   3.447   2.656   8.130 -0.6028 -0.2650 -0.1646
 1292TIP3    H125435   3.506   2.581   8.140 -0.5398 -0.1878  0.0515
 1292TIP3    H225436   3.492   2.728   8.175 -0.0200  0.2518 -1.5456
 1293TIP3   OH225437   0.144   1.590   7.506 -0.2273 -0.1276  0.2102
 1293TIP3    H125438   0.205   1.660   7.485  0.6766 -1.5359 -2.4404
 1293TIP3    H225439   0.062   1.616   7.463 -0.1915 -0.2048  0.0928
 1294TIP3   OH225440   0.550   2.484   0.386 -0.0981  0.0627  0.3524
 1294TIP3    H125441   0.597   2.439   0.457 -0.3176  0.5896  0.8433
 1294TIP3    H225442   0.598   2.567   0.375 -0.6985  0.4567  0.6310
 1295TIP3   OH225443   6.720   3.228   1.433 -0.2856  0.6408  0.3213
 1295TIP3    H125444   6.744   3.185   1.515  0.0363  1.7445  0.8311
 1295TIP3    H225445   6.657   3.295   1.459 -1.8409 -0.3759 -0.6376
 1296TIP3   OH225446   6.403   4.977   1.306  0.4037 -0.3784 -0.2887
 1296TIP3    H125447   6.340   5.046   1.289 -0.1429 -1.1454 -1.4631
 1296TIP3    H225448   6.353   4.910   1.353  0.7085 -0.3619  0.0618
 1297TIP3   OH225449   4.363   5.511   1.362 -0.4772  0.3923  0.0113
 1297TIP3    H125450   4.297   5.579   1.378  1.7688  2.8096 -0.4298
 1297TIP3    H225451   4.387   5.522   1.270  0.3332 -0.6517  0.0771
 1298TIP3   OH225452   2.534   3.446   8.560 -0.0317  0.0927  0.3514
 1298TIP3    H125453   2.466   3.418   8.498 -0.9229  3.2233 -0.2642
 1298TIP3    H225454   2.600   3.488   8.506  0.0530  1.2800  1.3403
 1299TIP3   OH225455   6.752   5.988   0.080  0.1313  0.5280 -0.0865
 1299TIP3    H125456   6.802   5.916   0.119  0.3014  0.6246 -0.1274
 1299TIP3    H225457   6.802   6.066   0.100 -1.0111  0.8748  1.6024
 1300TIP3   OH225458   1.798   1.955   0.477 -0.1335  0.1029 -0.5779
 1300TIP3    H125459   1.889   1.980   0.492 -0.4781  0.6706  0.6878
 1300TIP3    H225460   1.766   1.925   0.562 -1.9699  2.7568 -0.2022
 1301TIP3   OH225461   2.240   3.491   0.477 -0.2973  0.0014 -0.1158
 1301TIP3    H125462   2.176   3.563   0.484  0.6100  0.7371  1.2535
 1301TIP3    H225463   2.307   3.525   0.418 -0.7098 -0.4020 -0.8180
 1302TIP3   OH225464   1.015   1.433   7.937  0.5381  0.1759  0.1789
 1302TIP3    H125465   0.983   1.351   7.975  0.9242 -0.9076 -1.6861
 1302TIP3    H225466   0.937   1.475   7.901  0.0444  1.5746  2.6295
 1303TIP3   OH225467   6.803   4.944   0.599 -0.0993  0.3609  0.1687
 1303TIP3    H125468   6.888   4.978   0.626 -0.3700 -0.7017  2.5861
 1303TIP3    H225469   6.740   5.009   0.628 -0.1944  0.9661 -1.2892
 1304TIP3   OH225470   4.066   3.980   0.152  0.2946  0.0006 -0.0017
 1304TIP3    H125471   4.159   3.983   0.131 -0.1768 -1.6819 -2.7455
 1304TIP3    H225472   4.055   3.895   0.196  0.2524  0.9390  1.9333
 1305TIP3   OH225473   0.134   0.785   0.583 -0.3332  0.2351  0.6996
 1305TIP3    H125474   0.168   0.821   0.501  1.7654 -1.7669  0.5921
 1305TIP3    H225475   0.195   0.815   0.649  0.1694 -1.1897  0.9256
 1306TIP3   OH225476   2.344   3.938   1.391  0.0608 -0.4632 -0.2390
 1306TIP3    H125477   2.404   3.899   1.328 -0.0770 -2.2955  0.7014
 1306TIP3    H225478   2.347   4.032   1.372  5.0406 -0.0374  1.2186
 1307TIP3   OH225479   2.344   5.946   3.514  0.2377  0.0336  0.0171
 1307TIP3    H125480   2.427   5.911   3.545  0.1693 -1.4616 -1.4048
 1307TIP3    H225481   2.364   6.036   3.488  1.9867 -0.9899 -2.4747
 1308TIP3   OH225482   3.247   0.140   0.474  0.1499  0.6210 -0.0040
 1308TIP3    H125483   3.166   0.191   0.477 -0.0067  0.5253 -1.5442
 1308TIP3    H225484   3.225   0.057   0.516 -0.3391  0.8765  0.2531
 1309TIP3   OH225485   0.890   4.491   0.738 -0.0221 -0.3715  0.0314
 1309TIP3    H125486   0.799   4.485   0.708  0.3264  0.3121 -1.2479
 1309TIP3    H225487   0.911   4.403   0.769 -0.8679 -0.7512 -0.4375
 1310TIP3   OH225488   1.520   0.373   0.137  0.0421 -0.5070 -0.1823
 1310TIP3    H125489   1.474   0.322   0.071 -0.3469  0.6497 -0.8394
 1310TIP3    H225490   1.490   0.463   0.124  1.0543 -0.0174  0.6232
 1311TIP3   OH225491   6.304   0.254   1.193  0.1361 -0.1135  0.1994
 1311TIP3    H125492   6.339   0.283   1.277 -2.0679 -0.5973  1.3623
 1311TIP3    H225493   6.214   0.228   1.212 -1.1701  1.7566 -2.6968
 1312TIP3   OH225494   4.050   4.350   7.717 -0.1508 -0.0532  0.6833
 1312TIP3    H125495   4.137   4.358   7.676 -0.2605 -0.1008  0.4418
 1312TIP3    H225496   4.048   4.420   7.783 -1.3907  2.5475 -1.9015
 1313TIP3   OH225497   2.631   4.352   1.362  0.2233 -0.4185  0.2979
 1313TIP3    H125498   2.702   4.288   1.373 -0.3295 -1.2851 -0.9443
 1313TIP3    H225499   2.638   4.381   1.271 -1.6382 -1.3174 -0.1810
 1314TIP3   OH225500   2.024   0.089   2.003  0.1692  0.3250  0.5679
 1314TIP3    H125501   2.077   0.102   1.925  1.9869  1.9615  1.9607
 1314TIP3    H225502   1.965   0.017   1.981  0.7368  0.6082 -2.2048
 1315TIP3   OH225503   4.293   1.427   2.054 -0.3051  0.0687 -0.2123
 1315TIP3    H125504   4.204   1.455   2.028 -1.3282 -0.5213  2.3898
 1315TIP3    H225505   4.283   1.335   2.077  1.4195 -0.4831 -1.4655
 1316TIP3   OH225506   1.020   5.795   1.218 -0.1667 -0.4163  0.3432
 1316TIP3    H125507   0.985   5.854   1.286 -0.4092 -0.9765  0.7076
 1316TIP3    H225508   0.959   5.804   1.145 -0.7732 -0.9675  0.7696
 1317TIP3   OH225509   0.112   5.292   1.065 -0.0727 -0.5665 -0.0084
 1317TIP3    H125510   0.090   5.366   1.009  0.0636 -1.2349 -0.9742
 1317TIP3    H225511   0.193   5.317   1.110 -0.4499  0.1679  0.2661
 1318TIP3   OH225512   5.552   5.302   7.493 -0.5249  0.2583 -0.0166
 1318TIP3    H125513   5.578   5.369   7.431  0.3479  0.5568  0.6526
 1318TIP3    H225514   5.555   5.346   7.578  2.0253 -1.0886  0.6935
 1319TIP3   OH225515   6.499   0.142   0.458 -0.2742 -0.5121 -0.2682
 1319TIP3    H125516   6.422   0.185   0.494  0.4401 -0.1763  0.9224
 1319TIP3    H225517   6.553   0.215   0.426  0.3472 -0.6093  0.5456
 1320TIP3   OH225518   2.241   0.205   7.951 -0.2312 -0.2193  0.5485
 1320TIP3    H125519   2.158   0.236   7.914 -0.5789 -1.4836  0.2019
 1320TIP3    H225520   2.290   0.284   7.971 -1.2556  0.5411  0.1303
 1321TIP3   OH225521   2.486   4.544   0.541  0.6128  0.1600 -0.8937
 1321TIP3    H125522   2.497   4.449   0.530  1.7042  0.2164 -0.4586
 1321TIP3    H225523   2.392   4.559   0.529  0.5006 -0.9018 -1.5085
 1322TIP3   OH225524   6.714   2.164   3.459 -0.3830 -0.2056 -0.4983
 1322TIP3    H125525   6.749   2.230   3.519 -0.7963 -1.6789  1.4700
 1322TIP3    H225526   6.688   2.213   3.381  0.0540  1.8176  0.5744
 1323TIP3   OH225527   6.284   6.518   1.598  0.0887  0.9685 -0.1904
 1323TIP3    H125528   6.355   6.514   1.662  0.6561  0.3497 -0.8465
 1323TIP3    H225529   6.229   6.442   1.620 -0.0576  1.1140 -0.0509
 1324TIP3   OH225530   1.742   2.931   1.578  0.1751 -0.1551 -0.4554
 1324TIP3    H125531   1.719   3.010   1.626 -1.9585 -0.8003 -0.3384
 1324TIP3    H225532   1.757   2.961   1.488 -2.2171  0.2183 -0.7847
 1325TIP3   OH225533   5.014   0.378   1.517 -0.1659  0.4407 -0.6395
 1325TIP3    H125534   4.947   0.445   1.506 -0.6063  0.2738  0.8361
 1325TIP3    H225535   4.978   0.319   1.583  1.9495  1.1064  1.2585
 1326TIP3   OH225536   6.523   2.511   2.111 -0.1622  0.1410 -0.4690
 1326TIP3    H125537   6.619   2.508   2.112 -0.1912 -1.0949 -0.3952
 1326TIP3    H225538   6.496   2.420   2.125 -1.3485  0.4783 -0.4947
 1327TIP3   OH225539   6.469   3.893   0.239  0.3127 -0.2054  0.0964
 1327TIP3    H125540   6.482   3.807   0.199 -0.7376  0.0921 -0.9712
 1327TIP3    H225541   6.374   3.903   0.242  0.4054  1.3357 -0.7956
 1328TIP3   OH225542   1.273   1.115   0.319 -0.1682 -0.0328 -0.0744
 1328TIP3    H125543   1.228   1.061   0.384  2.8260 -2.7814 -0.0026
 1328TIP3    H225544   1.242   1.081   0.235  0.6586 -1.0158 -0.0148
 1329TIP3   OH225545   4.316   2.136   8.518 -0.0386  0.6709  0.4570
 1329TIP3    H125546   4.403   2.116   8.486 -0.9454 -2.1821 -0.4968
 1329TIP3    H225547   4.309   2.090   8.601 -0.2189  2.0372  1.2379
 1330TIP3   OH225548   2.644   3.080   0.305  0.3298 -0.2632  0.7074
 1330TIP3    H125549   2.718   3.100   0.363 -0.3369 -0.1403  1.5356
 1330TIP3    H225550   2.683   3.028   0.234  1.3823  0.6435  0.5876
 1331TIP3   OH225551   0.548   2.056   0.282 -0.5688  0.1487  0.0557
 1331TIP3    H125552   0.471   2.089   0.329 -0.2549  0.1217  0.6030
 1331TIP3    H225553   0.615   2.048   0.350 -0.2877 -0.4852 -0.2888
 1332TIP3   OH225554   5.969   1.301   0.404  0.3618  0.0628 -0.1321
 1332TIP3    H125555   5.990   1.208   0.397 -1.8091 -0.4258 -1.2486
 1332TIP3    H225556   5.890   1.304   0.459  1.4864  1.4612  1.5144
 1333TIP3   OH225557   4.112   0.925   7.920 -0.0592  0.3892  0.5235
 1333TIP3    H125558   4.194   0.975   7.920  0.9891 -1.2215 -0.1867
 1333TIP3    H225559   4.053   0.975   7.864  0.8410  0.9904  0.0825
 1334TIP3   OH225560   5.062   1.936   0.716  0.4455 -0.8469 -0.3587
 1334TIP3    H125561   5.054   1.983   0.632  0.1887 -0.2883 -0.0301
 1334TIP3    H225562   5.154   1.913   0.721  1.3258  2.3357  0.8526
 1335TIP3   OH225563   0.567   6.264   0.111 -0.2404 -0.3291 -0.2142
 1335TIP3    H125564   0.611   6.344   0.142 -0.5436 -0.8977  1.8157
 1335TIP3    H225565   0.491   6.297   0.063  0.6705  0.6033 -1.1066
 1336TIP3   OH225566   3.258   3.251   8.641  0.2203  0.2686  0.1564
 1336TIP3    H125567   3.228   3.335   8.676 -3.6657 -0.2617 -1.4085
 1336TIP3    H225568   3.260   3.264   8.546  0.8758 -1.0758 -0.0378
 1337TIP3   OH225569   5.178   5.889   2.700  0.1222  0.6308 -0.6933
 1337TIP3    H125570   5.134   5.807   2.680  0.6078  0.0472  0.5028
 1337TIP3    H225571   5.111   5.956   2.691 -0.6695 -0.0843 -0.1860
 1338TIP3   OH225572   3.170   0.502   8.352  0.1536 -0.7713  0.2347
 1338TIP3    H125573   3.203   0.588   8.377 -1.2696 -0.9331  3.0010
 1338TIP3    H225574   3.217   0.482   8.271  0.1388  2.8017 -0.8415
 1339TIP3   OH225575   5.767   3.706   1.278  0.6489  0.2553  0.6693
 1339TIP3    H125576   5.755   3.612   1.263 -0.2453  0.4595  0.0414
 1339TIP3    H225577   5.828   3.733   1.210 -0.5131  0.4674 -0.3102
 1340TIP3   OH225578   4.612   3.987   0.046 -0.5405 -0.2588  0.6945
 1340TIP3    H125579   4.599   3.939  -0.036 -0.0034 -0.9968  1.0305
 1340TIP3    H225580   4.657   4.067   0.020 -0.6143 -0.3624  0.2371
 1341TIP3   OH225581   3.057   3.235   0.865  0.1617 -0.1740 -0.6097
 1341TIP3    H125582   3.095   3.160   0.819  0.8853 -0.2909  0.1486
 1341TIP3    H225583   3.044   3.301   0.798  3.0951  0.4134 -0.7012
 1342TIP3   OH225584   2.615   4.722   2.130  0.0449 -0.0084  0.1556
 1342TIP3    H125585   2.584   4.812   2.134  1.6129  0.5421  0.3927
 1342TIP3    H225586   2.599   4.695   2.039 -0.3943  0.4980  0.0743
 1343TIP3   OH225587   1.261   3.731   8.105 -0.0330 -0.3733 -0.3731
 1343TIP3    H125588   1.276   3.817   8.144 -0.5585  0.7131 -2.4144
 1343TIP3    H225589   1.166   3.722   8.101 -0.0287 -0.0548 -2.0880
 1344TIP3   OH225590   3.820   6.532   1.864 -0.3935  0.4195  0.2408
 1344TIP3    H125591   3.806   6.594   1.937  0.4317  1.3295 -0.3500
 1344TIP3    H225592   3.752   6.555   1.801  0.3255  1.2031 -0.2718
 1345TIP3   OH225593   5.330   3.366   8.560  0.1003  0.5056 -0.0720
 1345TIP3    H125594   5.419   3.384   8.590 -0.3302  0.2874  1.4368
 1345TIP3    H225595   5.325   3.407   8.473  2.0494 -0.5811 -0.7472
 1346TIP3   OH225596   2.918   3.876   1.686  0.2788  0.4467 -0.2533
 1346TIP3    H125597   2.904   3.791   1.728 -0.8885  0.3239 -0.8526
 1346TIP3    H225598   2.841   3.888   1.631  1.1223  1.2353 -1.2909
 1347TIP3   OH225599   0.444   1.888   0.530  0.3240  0.0278  0.3332
 1347TIP3    H125600   0.440   1.976   0.567  0.3307 -0.3339  1.2069
 1347TIP3    H225601   0.529   1.854   0.557  0.8968  0.2274 -1.1274
 1348TIP3   OH225602   3.191   0.788   0.221  0.3340 -0.2402 -0.2572
 1348TIP3    H125603   3.190   0.755   0.131 -0.5172  3.4436 -1.7750
 1348TIP3    H225604   3.283   0.808   0.238  0.2565  1.0562 -1.2079
 1349TIP3   OH225605   5.198   5.121   2.345 -1.0352 -0.2448  0.0280
 1349TIP3    H125606   5.266   5.096   2.283 -1.4617 -0.2852 -0.4316
 1349TIP3    H225607   5.128   5.158   2.291 -1.4154 -0.2818  0.4832
 1350TIP3   OH225608   0.692   0.148   2.764  0.1522  0.1265  0.1359
 1350TIP3    H125609   0.625   0.153   2.832 -0.7687 -0.6367 -0.6733
 1350TIP3    H225610   0.717   0.239   2.748 -0.5955  0.4171  0.5546
 1351TIP3   OH225611   2.374   4.201   0.361  0.3655  0.2468 -0.0469
 1351TIP3    H125612   2.307   4.257   0.399  0.1329 -0.9914  1.5210
 1351TIP3    H225613   2.455   4.253   0.367 -0.1228  1.0258 -0.1608
 1352TIP3   OH225614   5.132   3.818   0.335 -0.2702 -0.0620 -0.3486
 1352TIP3    H125615   5.199   3.878   0.302 -1.7826  1.3519 -1.0370
 1352TIP3    H225616   5.175   3.733   0.339  0.8400  0.2192 -3.3626
 1353TIP3   OH225617   4.665   2.097   1.656 -0.7647 -0.4139 -0.2118
 1353TIP3    H125618   4.711   2.130   1.579 -1.1080 -1.3714 -0.8470
 1353TIP3    H225619   4.597   2.039   1.620 -1.4726 -0.2192  0.7740
 1354TIP3   OH225620   3.265   2.088   1.326  0.0464 -0.5222  0.3499
 1354TIP3    H125621   3.277   2.178   1.356 -0.1451 -0.2993 -0.2325
 1354TIP3    H225622   3.211   2.096   1.247  1.4680 -0.9858 -0.7063
 1355TIP3   OH225623   1.918   4.222   1.144 -0.2222 -0.0247 -0.3296
 1355TIP3    H125624   1.920   4.196   1.052  1.3629  0.5479 -0.4914
 1355TIP3    H225625   1.905   4.317   1.142 -0.1325 -0.0013  0.0280
 1356TIP3   OH225626   2.673   4.727   0.076  0.3768 -0.3833 -0.3641
 1356TIP3    H125627   2.726   4.770   0.009  0.7067 -0.3135 -0.0592
 1356TIP3    H225628   2.591   4.777   0.077  0.4182 -0.3072 -0.6255
 1357TIP3   OH225629   2.940   4.581   2.348  0.6156  0.4844 -0.2523
 1357TIP3    H125630   2.995   4.507   2.323 -0.4016 -0.4201  0.1516
 1357TIP3    H225631   2.929   4.631   2.267  0.7637 -0.1615 -0.6772
 1358TIP3   OH225632   1.216   1.245   2.074  0.1494 -0.3208  0.9384
 1358TIP3    H125633   1.226   1.331   2.116  0.3829 -1.0221  2.3798
 1358TIP3    H225634   1.171   1.191   2.140 -1.0871 -0.9848 -0.4078
 1359TIP3   OH225635   0.002   3.478   2.433  0.5417  0.1261 -0.0356
 1359TIP3    H125636  -0.003   3.383   2.435  1.0010  0.1119  0.4826
 1359TIP3    H225637  -0.062   3.504   2.366 -0.4930 -0.4756  0.7044
 1360TIP3   OH225638   2.090   0.350   3.145  0.3440 -0.3321 -0.5506
 1360TIP3    H125639   2.001   0.364   3.177  0.1815  1.0034 -1.5028
 1360TIP3    H225640   2.097   0.255   3.134 -0.8577 -0.4813 -0.1868
 1361TIP3   OH225641   2.135   1.838   1.844 -0.6143 -0.2485  0.2311
 1361TIP3    H125642   2.224   1.870   1.856  0.3366 -3.2082  2.1690
 1361TIP3    H225643   2.145   1.759   1.792 -1.9155 -1.2522  1.4245
 1362TIP3   OH225644   5.854   1.640   1.141 -1.0907 -0.1483 -0.5505
 1362TIP3    H125645   5.912   1.591   1.083  0.2599 -0.7186  1.1715
 1362TIP3    H225646   5.903   1.648   1.223 -3.2709 -0.2441  0.8670
 1363TIP3   OH225647   2.800   1.033   2.492  0.5720  0.0218 -0.4087
 1363TIP3    H125648   2.728   1.064   2.546 -0.0360 -2.2846  0.2491
 1363TIP3    H225649   2.870   1.014   2.553  1.4226  1.3217 -0.9426
 1364TIP3   OH225650   6.494   5.674   0.183  0.3068  0.3370 -0.6228
 1364TIP3    H125651   6.576   5.629   0.164  0.7224  0.0500  1.5887
 1364TIP3    H225652   6.426   5.609   0.161  0.8086 -0.5187  0.2554
 1365TIP3   OH225653   1.754   6.504   1.703 -0.1130 -0.3552 -0.3186
 1365TIP3    H125654   1.806   6.557   1.763 -0.9830  2.2160 -1.6829
 1365TIP3    H225655   1.663   6.521   1.728 -0.4922 -4.1137  1.4920
 1366TIP3   OH225656   6.150   5.862   2.574  0.2099  0.1539  0.3997
 1366TIP3    H125657   6.094   5.795   2.532 -1.2310  1.8380 -0.5041
 1366TIP3    H225658   6.094   5.939   2.580  1.1475  0.7202  3.3212
 1367TIP3   OH225659   1.378   5.148   8.742  0.2381 -0.6125  0.7850
 1367TIP3    H125660   1.473   5.136   8.729  0.4250  0.1857  1.3648
 1367TIP3    H225661   1.371   5.230   8.789 -0.8007 -0.2431  0.0095
 1368TIP3   OH225662   4.758   3.189   7.196  0.4041  0.1662  0.3543
 1368TIP3    H125663   4.693   3.145   7.141  0.9553  1.2219 -1.2225
 1368TIP3    H225664   4.811   3.118   7.231 -1.3379 -0.6916  1.4015
 1369TIP3   OH225665   2.780   1.167   0.976 -0.2813  0.4794  0.5118
 1369TIP3    H125666   2.716   1.096   0.967  0.9794 -0.8883  1.8227
 1369TIP3    H225667   2.792   1.177   1.070 -0.2317  2.2980  0.3436
 1370TIP3   OH225668   1.159   3.328   2.700  0.0163 -0.3582  0.1988
 1370TIP3    H125669   1.254   3.335   2.700  0.0215 -0.2785 -1.0750
 1370TIP3    H225670   1.141   3.249   2.648 -0.5709 -1.4105  1.8920
 1371TIP3   OH225671   1.547   6.613   1.407  0.2889  0.3906  0.7316
 1371TIP3    H125672   1.571   6.523   1.384  0.2801  0.2223  1.3705
 1371TIP3    H225673   1.461   6.626   1.366 -0.4954 -0.4775  2.0490
 1372TIP3   OH225674   2.893   2.609   1.306  0.0029 -0.2003 -0.0988
 1372TIP3    H125675   2.835   2.548   1.261  1.7335 -1.3564 -0.8394
 1372TIP3    H225676   2.956   2.554   1.353 -0.4490  0.9930  2.0858
 1373TIP3   OH225677   0.287   5.243   0.131 -0.0339  0.7901 -0.1355
 1373TIP3    H125678   0.238   5.252   0.213  1.7551 -2.0398  1.4058
 1373TIP3    H225679   0.248   5.167   0.089 -0.0212  1.3953 -1.2771
 1374TIP3   OH225680   1.508   3.127   1.158  0.1847 -0.3293  0.6563
 1374TIP3    H125681   1.434   3.080   1.197 -0.2237  0.6672  1.1271
 1374TIP3    H225682   1.586   3.082   1.192 -0.1852 -0.2594  1.6385
 1375TIP3   OH225683   0.310   3.834   7.059 -0.1211 -0.1271 -0.0159
 1375TIP3    H125684   0.241   3.877   7.009 -1.9238  0.6391  2.8954
 1375TIP3    H225685   0.386   3.892   7.049 -1.2672  1.5103  0.3613
 1376TIP3   OH225686   2.423   1.565   2.669 -0.6621 -0.1081 -0.0685
 1376TIP3    H125687   2.462   1.478   2.677 -1.7158 -0.4743  1.5409
 1376TIP3    H225688   2.424   1.582   2.574  1.1736 -1.0786 -0.2813
 1377TIP3   OH225689   2.019   6.566   2.528 -0.2512 -0.4887 -0.3228
 1377TIP3    H125690   2.082   6.592   2.595 -1.7021 -0.0063  0.9075
 1377TIP3    H225691   2.037   6.625   2.455  1.0041 -0.6615 -0.1761
 1378TIP3   OH225692   3.369   3.252   0.759 -0.5272  0.7600  0.1232
 1378TIP3    H125693   3.376   3.199   0.838 -0.5031 -0.0996 -0.4366
 1378TIP3    H225694   3.335   3.336   0.789 -1.7409  0.0270  0.8895
 1379TIP3   OH225695   4.200   0.556   7.972  0.0883  0.0671  0.2176
 1379TIP3    H125696   4.119   0.603   7.952  0.6724  1.5386  1.1665
 1379TIP3    H225697   4.242   0.544   7.887  0.4657  2.3272  0.0411
 1380TIP3   OH225698   6.242   1.605   7.914  0.0644  0.3962  0.0272
 1380TIP3    H125699   6.275   1.679   7.862 -0.8230  0.0407 -1.0690
 1380TIP3    H225700   6.180   1.560   7.857  1.7138 -2.1401  0.0713
 1381TIP3   OH225701   2.124   0.786   8.565  0.5090  0.5972  0.5340
 1381TIP3    H125702   2.058   0.821   8.625 -0.1634  1.0886 -0.4725
 1381TIP3    H225703   2.143   0.857   8.505  2.3202  0.6186  1.0666
 1382TIP3   OH225704   3.956   1.115   8.714 -0.1970  0.0216  0.2467
 1382TIP3    H125705   3.991   1.027   8.729 -0.4894  0.0187  0.9315
 1382TIP3    H225706   4.007   1.148   8.640 -0.0260 -0.6892  0.0386
 1383TIP3   OH225707   5.346   5.557   7.372 -0.4746 -0.5417  0.0274
 1383TIP3    H125708   5.355   5.647   7.403 -0.4351 -1.1249  1.7845
 1383TIP3    H225709   5.435   5.531   7.348 -0.7841  0.6228 -2.8414
 1384TIP3   OH225710   1.958   1.961   0.720  0.5495 -0.2441 -0.2988
 1384TIP3    H125711   1.951   2.050   0.755  2.1465 -0.3676  0.4409
 1384TIP3    H225712   1.876   1.919   0.746  0.7297  0.3469  1.3642
 1385TIP3   OH225713   2.486   5.818   0.764  0.1976 -0.2136  0.2504
 1385TIP3    H125714   2.442   5.776   0.691 -0.3163 -1.7185  1.3618
 1385TIP3    H225715   2.452   5.908   0.765 -0.6728 -0.5187 -0.6297
 1386TIP3   OH225716   3.471   1.307   1.790 -0.2888 -0.1023  0.3928
 1386TIP3    H125717   3.385   1.278   1.761 -0.4770  1.1326 -0.3357
 1386TIP3    H225718   3.454   1.380   1.848  0.2948  1.1683 -0.9814
 1387TIP3   OH225719   5.418   1.641   8.207 -0.2713 -0.1176 -0.8294
 1387TIP3    H125720   5.363   1.710   8.169 -3.5440 -2.3842 -0.6256
 1387TIP3    H225721   5.473   1.687   8.271 -1.5013  2.4314 -1.4631
 1388TIP3   OH225722   0.593   5.371   2.299  0.4081  0.3680  0.0121
 1388TIP3    H125723   0.571   5.450   2.250 -1.0546 -0.8869 -1.5210
 1388TIP3    H225724   0.509   5.330   2.317  1.1664 -1.5588 -0.5649
 1389TIP3   OH225725   4.582   4.913   8.217 -0.1061 -0.1874  0.0471
 1389TIP3    H125726   4.631   4.854   8.160  0.0075  0.1715 -0.2312
 1389TIP3    H225727   4.526   4.855   8.269 -0.1198 -0.5287 -0.3432
 1390TIP3   OH225728   2.861   5.374   1.094 -0.0489  0.6394 -0.3824
 1390TIP3    H125729   2.953   5.348   1.102  0.2337  1.4569 -0.8940
 1390TIP3    H225730   2.816   5.294   1.066  0.6466  0.4516 -0.9907
 1391TIP3   OH225731   3.189   3.533   8.687 -0.0838 -0.0946 -0.1161
 1391TIP3    H125732   3.128   3.478   8.737 -0.9132  0.7315 -0.2084
 1391TIP3    H225733   3.136   3.603   8.652  0.9864  0.8442  0.0812
 1392TIP3   OH225734   0.224   4.714   1.275 -0.0425  0.3384  0.5169
 1392TIP3    H125735   0.239   4.619   1.268  0.8844  0.4794  0.3377
 1392TIP3    H225736   0.267   4.739   1.356 -0.1556  0.6278  0.4877
 1393TIP3   OH225737   1.512   5.252   2.760 -0.2336  0.2387 -0.5622
 1393TIP3    H125738   1.597   5.247   2.717 -0.0644 -0.1992 -0.1807
 1393TIP3    H225739   1.521   5.198   2.838 -1.2952 -0.9239 -1.2212
 1394TIP3   OH225740   0.358   1.405   0.400  0.3209 -0.0781 -0.1393
 1394TIP3    H125741   0.425   1.346   0.366  1.4754  0.7703  0.5915
 1394TIP3    H225742   0.288   1.402   0.334  1.7479  0.2235 -1.7531
 1395TIP3   OH225743   6.315   0.730   8.607  0.1445 -0.8456 -0.4068
 1395TIP3    H125744   6.308   0.753   8.700 -2.2426  1.2652 -0.9924
 1395TIP3    H225745   6.361   0.804   8.567  0.3288 -1.3057 -1.0573
 1396TIP3   OH225746   1.346   0.725   1.772 -0.2944 -0.3179 -0.8104
 1396TIP3    H125747   1.437   0.752   1.773 -0.3454 -0.0853 -1.5513
 1396TIP3    H225748   1.343   0.645   1.825  0.5365 -0.9264 -1.6442
 1397TIP3   OH225749   6.735   5.144   1.194  0.1048 -0.2196  1.0497
 1397TIP3    H125750   6.779   5.189   1.121 -1.7963 -0.3543 -0.2304
 1397TIP3    H225751   6.797   5.075   1.219  0.5087 -0.6641 -0.9475
 1398TIP3   OH225752   4.263   1.037   0.069  0.5689 -0.6578  0.2944
 1398TIP3    H125753   4.220   1.122   0.075 -0.9865 -1.3406 -0.5232
 1398TIP3    H225754   4.279   1.012   0.160  0.5544  0.2553  0.5623
 1399TIP3   OH225755   0.300   3.315   1.100 -0.1092 -0.0030  0.3399
 1399TIP3    H125756   0.280   3.305   1.007  0.6891 -1.6090  0.3089
 1399TIP3    H225757   0.251   3.246   1.143  1.8937 -1.2483  0.7362
 1400TIP3   OH225758   1.979   4.537   8.548 -0.1734 -0.4656 -1.0199
 1400TIP3    H125759   1.996   4.616   8.599 -2.2663 -0.9972  0.6511
 1400TIP3    H225760   1.994   4.465   8.609 -2.8454 -1.1096 -0.9856
 1401TIP3   OH225761   2.697   5.420   0.208 -0.3582  0.0642 -0.7665
 1401TIP3    H125762   2.626   5.373   0.251  0.1579 -0.2197 -0.2016
 1401TIP3    H225763   2.772   5.361   0.214 -0.1965  0.1475 -1.8016
 1402TIP3   OH225764   1.735   4.279   2.889  0.2730  0.0478  0.0070
 1402TIP3    H125765   1.730   4.375   2.885 -0.1875 -0.0154 -1.2057
 1402TIP3    H225766   1.694   4.249   2.808  0.8817 -1.1716  0.1312
 1403TIP3   OH225767   0.252   5.813   0.529 -0.5954  0.0830 -1.3885
 1403TIP3    H125768   0.201   5.851   0.601  0.6749 -0.0603 -0.3836
 1403TIP3    H225769   0.186   5.779   0.469 -1.6924 -0.6930  0.1862
 1404TIP3   OH225770   0.673   0.708   8.521 -0.3234  0.7672 -0.1672
 1404TIP3    H125771   0.663   0.670   8.434  0.9794  0.3496 -0.1605
 1404TIP3    H225772   0.599   0.673   8.571  2.8156 -5.5706  1.1228
 1405TIP3   OH225773   1.699   5.816   7.613 -0.6239  0.5140  0.3322
 1405TIP3    H125774   1.612   5.851   7.598 -1.6499 -1.3920  1.4520
 1405TIP3    H225775   1.702   5.736   7.561  0.7432  0.9176 -0.2546
 1406TIP3   OH225776   3.528   1.689   7.315 -0.0201 -0.5472  0.6194
 1406TIP3    H125777   3.614   1.707   7.278  0.1295  1.8672  1.9109
 1406TIP3    H225778   3.468   1.694   7.241  0.8257 -1.3963 -0.1486
 1407TIP3   OH225779   5.236   6.576   2.457 -0.3637  0.2347  0.1170
 1407TIP3    H125780   5.247   6.636   2.531  1.1893  0.7656 -0.5065
 1407TIP3    H225781   5.259   6.490   2.492  0.3118  0.4740  0.2656
 1408TIP3   OH225782   1.039   4.556   7.250  0.3871  0.5238  0.2346
 1408TIP3    H125783   1.030   4.611   7.172  2.0197  1.4436  0.6471
 1408TIP3    H225784   0.963   4.579   7.304  1.0297  2.4565  0.4051
 1409TIP3   OH225785   4.028   3.832   7.847 -0.0605  0.1701 -0.1578
 1409TIP3    H125786   4.052   3.872   7.764 -0.1270  0.4513 -0.0404
 1409TIP3    H225787   4.102   3.776   7.870  0.9650  1.8328  0.7309
 1410TIP3   OH225788   4.369   5.613   0.659  0.1103  0.4564  0.2866
 1410TIP3    H125789   4.375   5.654   0.573  0.1959 -2.1224 -1.0654
 1410TIP3    H225790   4.452   5.564   0.668 -1.1367 -1.7844  0.3760
 1411TIP3   OH225791   3.149   1.350   8.417  0.1187 -0.0530 -0.1019
 1411TIP3    H125792   3.179   1.428   8.370  0.2854 -0.8218 -1.3374
 1411TIP3    H225793   3.107   1.384   8.495 -1.2379  1.3923 -1.3768
 1412TIP3   OH225794   6.571   4.975   7.433 -0.1094 -0.0150  0.1268
 1412TIP3    H125795   6.568   4.880   7.427  2.0864 -0.1077 -0.1067
 1412TIP3    H225796   6.514   4.996   7.507  0.3594 -1.5943  0.9714
 1413TIP3   OH225797   3.570   6.034   2.793  0.2396  0.2149 -0.0705
 1413TIP3    H125798   3.487   6.071   2.762  0.0984  1.0347  1.1934
 1413TIP3    H225799   3.557   6.021   2.887  0.9201 -1.4107 -0.1681
 1414TIP3   OH225800   3.278   5.896   1.231  0.8622 -0.8173  0.1060
 1414TIP3    H125801   3.268   5.824   1.169  1.6520  0.5502 -1.7019
 1414TIP3    H225802   3.372   5.895   1.252  0.5465 -1.4884  1.6237
 1415TIP3   OH225803   3.555   5.217   7.759 -0.4382 -0.1394 -0.1359
 1415TIP3    H125804   3.491   5.254   7.820 -1.1166 -2.5984  0.7498
 1415TIP3    H225805   3.504   5.200   7.680 -0.7458 -1.4585  0.3307
 1416TIP3   OH225806   4.621   0.151   2.402  0.1057  0.4193  0.5449
 1416TIP3    H125807   4.535   0.193   2.390 -2.0764 -3.5552  0.4278
 1416TIP3    H225808   4.639   0.108   2.318  1.9926  0.7387  0.7508
 1417TIP3   OH225809   1.799   3.350   0.477  0.3002 -0.3902 -0.3598
 1417TIP3    H125810   1.782   3.372   0.568  1.7775  0.7262 -0.3114
 1417TIP3    H225811   1.891   3.324   0.475  0.3008 -0.3490 -1.5421
 1418TIP3   OH225812   1.855   3.925   1.601  0.3271 -0.3330 -0.2417
 1418TIP3    H125813   1.937   3.974   1.614 -0.7011  1.4267 -0.0188
 1418TIP3    H225814   1.826   3.904   1.690  0.5486 -0.9907 -0.3221
 1419TIP3   OH225815   5.855   5.703   1.562 -0.1620  0.6002  0.0585
 1419TIP3    H125816   5.808   5.650   1.627  1.4675 -0.0583  0.7555
 1419TIP3    H225817   5.864   5.645   1.486  1.0730  0.0543  0.5934
 1420TIP3   OH225818   1.911   6.250   7.678 -0.6579  0.3490  0.6187
 1420TIP3    H125819   1.947   6.165   7.654 -1.5530  0.1827 -0.2168
 1420TIP3    H225820   1.816   6.236   7.683 -0.6725  0.8425  2.4848
 1421TIP3   OH225821   4.373   5.344   8.538  0.2117 -0.3231  0.3375
 1421TIP3    H125822   4.396   5.407   8.606 -1.2659 -0.4538  1.0032
 1421TIP3    H225823   4.278   5.350   8.532  0.0339 -2.5115  0.4387
 1422TIP3   OH225824   0.090   0.083   8.234  0.4956  0.5334 -0.3833
 1422TIP3    H125825   0.106   0.130   8.152  0.4447 -1.5101 -1.6281
 1422TIP3    H225826  -0.005   0.069   8.236  0.5980 -0.2518 -0.4806
 1423TIP3   OH225827   2.142   3.139   0.821  0.1242 -0.1105  0.0964
 1423TIP3    H125828   2.180   3.057   0.852 -0.6369  0.2073  2.0465
 1423TIP3    H225829   2.139   3.195   0.899  0.3289  1.6699 -1.1124
 1424TIP3   OH225830   6.008   6.372   1.141  0.0256 -0.6078  0.1771
 1424TIP3    H125831   6.016   6.279   1.159 -1.5832 -0.4459  2.1574
 1424TIP3    H225832   5.919   6.394   1.168  0.1663  1.4098 -0.7856
 1425TIP3   OH225833   0.071   2.961   8.260 -0.2834 -0.4180 -0.0514
 1425TIP3    H125834   0.088   2.988   8.350 -0.2478  1.1751 -0.5136
 1425TIP3    H225835   0.002   3.020   8.230 -1.7087 -2.2090 -0.4625
 1426TIP3   OH225836   4.756   4.785   8.002  0.4085 -0.4359  0.1966
 1426TIP3    H125837   4.789   4.710   7.951  0.5125 -1.0727  1.1771
 1426TIP3    H225838   4.820   4.796   8.072  0.2659  0.4373  0.1949
 1427TIP3   OH225839   1.968   1.684   2.541  0.3145 -0.4267  0.4018
 1427TIP3    H125840   2.028   1.609   2.541  0.8969 -0.0807 -2.4898
 1427TIP3    H225841   1.883   1.646   2.520  0.1188 -0.5222  1.3118
 1428TIP3   OH225842   3.037   5.097   0.875  0.6480  0.5803  0.1665
 1428TIP3    H125843   2.949   5.104   0.911 -0.2405 -0.2078 -1.7092
 1428TIP3    H225844   3.081   5.177   0.903 -0.4952  0.7626  1.5449
 1429TIP3   OH225845   0.869   3.937   8.486  0.3483 -0.5608 -0.6875
 1429TIP3    H125846   0.789   3.987   8.471  0.1095 -0.5419  0.5539
 1429TIP3    H225847   0.884   3.891   8.404 -1.5468 -1.4132 -0.6117
 1430TIP3   OH225848   1.930   4.234   0.849 -0.2577 -0.3569  0.3400
 1430TIP3    H125849   1.943   4.151   0.803 -0.2766 -0.7861  1.0883
 1430TIP3    H225850   1.835   4.248   0.847 -0.2356 -0.2326  0.0203
 1431TIP3   OH225851   0.810   6.014   2.394  0.1893 -0.0357  0.0490
 1431TIP3    H125852   0.786   5.923   2.374  0.4426 -0.6253  2.1265
 1431TIP3    H225853   0.835   6.011   2.487  1.2779  1.9566 -0.1497
 1432TIP3   OH225854   6.352   6.335   2.855 -0.2337 -0.5276 -0.4250
 1432TIP3    H125855   6.358   6.267   2.922 -0.8574 -0.2507 -0.0755
 1432TIP3    H225856   6.385   6.293   2.776 -1.1165 -1.4261 -0.3404
 1433TIP3   OH225857   6.180   6.173   8.134  0.6064  0.2794  0.4657
 1433TIP3    H125858   6.163   6.080   8.147 -0.7951  0.4639  0.0946
 1433TIP3    H225859   6.274   6.178   8.115  0.0969 -1.5760 -3.6860
 1434TIP3   OH225860   3.429   6.604   7.695  0.0882  0.2238  0.2028
 1434TIP3    H125861   3.359   6.560   7.745 -0.4701  0.9184  0.0482
 1434TIP3    H225862   3.497   6.622   7.760 -0.1900  0.2031  0.5021
 1435TIP3   OH225863   1.317   1.542   0.382  0.1812 -0.2933 -0.1955
 1435TIP3    H125864   1.355   1.506   0.301 -3.9580  0.8493 -2.9552
 1435TIP3    H225865   1.281   1.466   0.428 -2.2407 -0.6018 -2.3715
 1436TIP3   OH225866   0.733   5.038   0.544  0.3268  0.1223 -0.6953
 1436TIP3    H125867   0.760   4.974   0.610 -0.0042  1.4409  0.7955
 1436TIP3    H225868   0.670   4.991   0.489  0.4407 -0.9650  0.0746
 1437TIP3   OH225869   0.455   3.876   0.813  0.4505 -0.2583 -0.3715
 1437TIP3    H125870   0.462   3.841   0.724  1.2293  0.7783 -0.7492
 1437TIP3    H225871   0.546   3.882   0.844  0.1241 -1.9803  1.0858
 1438TIP3   OH225872   2.262   4.444   2.943  0.1094  0.4074  0.3898
 1438TIP3    H125873   2.226   4.427   3.030  1.4062 -1.5286  0.6368
 1438TIP3    H225874   2.324   4.372   2.929  0.0102  0.7169 -2.1097
 1439TIP3   OH225875   1.298   6.096   0.352  0.2186  0.1493  0.4296
 1439TIP3    H125876   1.210   6.101   0.390  0.6538  0.8816  1.3952
 1439TIP3    H225877   1.283   6.087   0.258 -0.9023 -1.4419  0.7140
 1440TIP3   OH225878   2.621   1.142   8.567  0.4047  0.2530  0.2502
 1440TIP3    H125879   2.581   1.228   8.579 -0.9289 -0.1827 -0.9028
 1440TIP3    H225880   2.649   1.141   8.476 -0.2193 -0.7903  0.0594
 1441TIP3   OH225881   2.160   2.105   7.004  0.2861 -0.0758 -0.0789
 1441TIP3    H125882   2.199   2.184   7.040  0.2031 -0.3142  0.5504
 1441TIP3    H225883   2.203   2.033   7.051  0.5764 -0.4241 -0.8489
 1442TIP3   OH225884   0.412   3.615   7.915  0.0015  0.1538  0.5362
 1442TIP3    H125885   0.410   3.617   7.819  1.0303  1.5320  0.5130
 1442TIP3    H225886   0.369   3.697   7.941 -0.2784 -0.2207  1.2653
 1443TIP3   OH225887   6.642   4.399   2.043  0.3719 -0.0129  0.5741
 1443TIP3    H125888   6.702   4.376   2.114  2.5456  0.5841 -0.9512
 1443TIP3    H225889   6.684   4.364   1.964 -2.5096 -1.6714 -0.3755
 1444TIP3   OH225890   6.157   2.454   7.690 -0.0220 -0.3114 -0.2825
 1444TIP3    H125891   6.232   2.405   7.721  0.1921  0.0430 -0.2357
 1444TIP3    H225892   6.181   2.483   7.602  0.4703  0.9987  0.2652
 1445TIP3   OH225893   6.635   1.740   8.650 -0.0866  0.1823 -0.2476
 1445TIP3    H125894   6.724   1.761   8.622  0.5482  1.2658  2.2378
 1445TIP3    H225895   6.595   1.695   8.576  2.2670  0.3906 -1.7153
 1446TIP3   OH225896   2.996   3.799   0.439 -0.2707  0.4504  0.5997
 1446TIP3    H125897   2.949   3.773   0.360  0.5014  1.2074 -0.1242
 1446TIP3    H225898   2.995   3.895   0.437  3.6339  0.6391 -0.9417
 1447TIP3   OH225899   1.850   5.950   1.180 -0.1749 -0.2341 -0.5527
 1447TIP3    H125900   1.861   6.014   1.251 -1.8816  1.3258 -1.5829
 1447TIP3    H225901   1.779   5.894   1.210  0.1452 -0.5563 -0.3899
 1448TIP3   OH225902   3.414   1.650   2.915  0.5660  0.5397 -0.8395
 1448TIP3    H125903   3.357   1.575   2.934  1.6134 -0.3896 -1.2436
 1448TIP3    H225904   3.354   1.719   2.887 -0.2510 -1.3289 -4.3062
 1449TIP3   OH225905   5.952   0.576   8.584  0.2308  0.4233  0.3125
 1449TIP3    H125906   5.893   0.523   8.638  0.8362  1.4543  2.0867
 1449TIP3    H225907   5.928   0.667   8.604  1.2837  0.8444 -0.2506
 1450TIP3   OH225908   4.108   5.620   1.417  0.2182  0.0422  0.0270
 1450TIP3    H125909   4.044   5.560   1.379  0.7908  0.6467 -2.0648
 1450TIP3    H225910   4.057   5.674   1.478 -0.5798 -1.5760  0.8467
 1451TIP3   OH225911   3.265   2.015   0.725 -0.0024  0.3357 -0.1076
 1451TIP3    H125912   3.344   2.033   0.776 -0.7863  0.3631  1.1422
 1451TIP3    H225913   3.289   1.941   0.669  1.2119  1.0061 -0.5077
 1452TIP3   OH225914   0.681   4.023   2.178  0.6574  0.3159 -0.2906
 1452TIP3    H125915   0.607   3.998   2.234 -0.5548  3.9360 -0.0061
 1452TIP3    H225916   0.689   3.951   2.115 -3.9488  0.2096 -1.1122
 1453TIP3   OH225917   2.084   5.952   2.166  0.1675  0.4992 -0.1499
 1453TIP3    H125918   2.168   5.975   2.127  0.2876  1.8799  0.8216
 1453TIP3    H225919   2.040   5.899   2.100  1.7704 -0.2115 -0.6934
 1454TIP3   OH225920   5.498   1.726   0.390  0.3660 -1.1144 -0.0263
 1454TIP3    H125921   5.489   1.788   0.463 -0.2987  0.2294 -1.1980
 1454TIP3    H225922   5.593   1.722   0.375  0.4066 -0.1573 -0.1065
 1455TIP3   OH225923   3.616   5.736   0.250 -0.5010  0.3769 -0.2839
 1455TIP3    H125924   3.521   5.739   0.237 -0.6328  2.5016  0.7664
 1455TIP3    H225925   3.646   5.824   0.227  1.5811 -0.8547 -2.7449
 1456TIP3   OH225926   0.680   2.320   1.231 -0.4678 -0.3583 -0.2867
 1456TIP3    H125927   0.594   2.353   1.255 -0.6438 -1.2016  0.3229
 1456TIP3    H225928   0.672   2.296   1.139 -0.1470  1.8049 -0.9294
 1457TIP3   OH225929   3.158   5.351   0.839 -0.1808 -0.3508 -0.1368
 1457TIP3    H125930   3.178   5.364   0.747  0.1367 -1.2048 -0.1982
 1457TIP3    H225931   3.207   5.419   0.885 -0.7410  0.3984 -0.6241
 1458TIP3   OH225932   1.920   5.106   8.733  0.0913  0.4698  0.5017
 1458TIP3    H125933   1.972   5.186   8.736 -0.7775  1.1275 -0.8045
 1458TIP3    H225934   1.832   5.136   8.708 -0.2873 -0.8633  0.1681
 1459TIP3   OH225935   6.379   6.082   0.073 -0.1631 -0.5893 -0.3610
 1459TIP3    H125936   6.319   6.015   0.108 -2.5689  0.7771 -1.5890
 1459TIP3    H225937   6.400   6.051  -0.015 -3.3374  1.2465 -1.9672
 1460TIP3   OH225938   1.147   0.968   7.788  0.2915 -0.2895  0.5346
 1460TIP3    H125939   1.134   0.924   7.704  0.0097 -0.8458  0.8671
 1460TIP3    H225940   1.059   0.979   7.823  0.4765 -1.0032  1.2371
 1461TIP3   OH225941   4.373   6.744   2.016  0.0803  0.4356 -0.1165
 1461TIP3    H125942   4.336   6.745   1.928  2.6328  0.6439 -1.2848
 1461TIP3    H225943   4.298   6.735   2.074 -1.6343 -0.3440 -2.3354
 1462TIP3   OH225944   6.451   6.485   1.801  0.2439  0.0305  0.0528
 1462TIP3    H125945   6.504   6.406   1.802  0.1951 -0.0011  0.5829
 1462TIP3    H225946   6.422   6.496   1.892 -2.2495 -1.0319 -0.5265
 1463TIP3   OH225947   3.080   6.133   2.199  0.0358  0.1016  0.5226
 1463TIP3    H125948   3.080   6.038   2.213  0.8955  0.1110  0.6311
 1463TIP3    H225949   3.102   6.144   2.107 -0.7494  0.1821  0.3396
 1464TIP3   OH225950   3.226   6.180   1.920 -0.0960  0.2837 -0.0083
 1464TIP3    H125951   3.282   6.193   1.844 -0.4178  0.1556 -0.2681
 1464TIP3    H225952   3.248   6.253   1.978  2.2073 -1.1349  1.0546
 1465TIP3   OH225953   5.035   1.742   3.197 -0.2631  0.0391 -0.6999
 1465TIP3    H125954   5.067   1.820   3.152 -1.3826  1.1598  0.3638
 1465TIP3    H225955   5.003   1.774   3.281  2.5522 -2.0788  1.3603
 1466TIP3   OH225956   4.528   2.625   8.278  0.1707  0.1249  0.0193
 1466TIP3    H125957   4.618   2.640   8.307  0.1083 -0.1977  0.3989
 1466TIP3    H225958   4.475   2.661   8.350  0.0130 -0.9529  0.4592
 1467TIP3   OH225959   5.676   2.777   0.416 -0.3957 -0.4573 -0.2872
 1467TIP3    H125960   5.598   2.769   0.470  0.2988  0.0399  0.8259
 1467TIP3    H225961   5.660   2.855   0.363 -1.4625 -1.4487 -1.5016
 1468TIP3   OH225962   2.731   6.555   1.457 -0.5769 -0.0228 -0.0714
 1468TIP3    H125963   2.728   6.464   1.426  1.0244  0.3860 -1.6372
 1468TIP3    H225964   2.792   6.553   1.531 -1.4880 -0.4043  0.6813
 1469TIP3   OH225965   3.287   2.503   0.448  0.0834  0.1330 -0.2330
 1469TIP3    H125966   3.364   2.485   0.502 -0.9046 -0.3812  1.0573
 1469TIP3    H225967   3.236   2.565   0.500 -1.4625 -1.2744  0.0315
 1470TIP3   OH225968   6.417   0.019   1.355  0.0110  0.1417 -0.4605
 1470TIP3    H125969   6.342  -0.040   1.370  1.3661 -1.8967 -1.2186
 1470TIP3    H225970   6.378   0.098   1.318 -2.0828  0.4998  2.1348
 1471TIP3   OH225971   5.199   3.247   1.864 -0.4284 -0.0190 -0.3432
 1471TIP3    H125972   5.125   3.217   1.916 -0.5430 -1.8106 -1.4795
 1471TIP3    H225973   5.188   3.205   1.779  0.2192  2.1444 -1.5867
 1472TIP3   OH225974   0.388   3.056   2.279  0.9100  0.0809 -0.8946
 1472TIP3    H125975   0.478   3.086   2.264  1.0266  0.7157  0.9003
 1472TIP3    H225976   0.334   3.133   2.261  0.6724 -0.3591 -2.1847
 1473TIP3   OH225977   4.276   1.123   8.088 -0.1082 -0.2117  0.0047
 1473TIP3    H125978   4.356   1.175   8.088  0.8220 -1.5689  0.8876
 1473TIP3    H225979   4.269   1.091   8.177  0.0527 -2.5805 -0.7659
 1474TIP3   OH225980   4.419   4.594   1.137  0.6029 -0.4809  0.4615
 1474TIP3    H125981   4.427   4.507   1.174 -0.3399 -0.1509  1.4949
 1474TIP3    H225982   4.448   4.585   1.046 -0.9665 -2.2155  0.0793
 1475TIP3   OH225983   3.688   1.145   8.664  0.6909 -0.0233  0.7191
 1475TIP3    H125984   3.653   1.062   8.697  1.9079 -1.3160 -1.0359
 1475TIP3    H225985   3.775   1.152   8.702  1.0459 -0.1524 -0.0544
 1476TIP3   OH225986   2.088   4.987   7.768 -0.0535 -0.2110  0.8505
 1476TIP3    H125987   2.166   4.941   7.798 -0.8972 -1.0176  1.8649
 1476TIP3    H225988   2.028   4.985   7.843 -0.9450  0.6348  0.1879
 1477TIP3   OH225989   0.668   0.384   0.886  0.1743 -0.0192 -0.2195
 1477TIP3    H125990   0.641   0.418   0.801 -0.2633  0.6885  0.1931
 1477TIP3    H225991   0.589   0.345   0.923 -0.0318  1.0369  0.5055
 1478TIP3   OH225992   4.957   3.199   8.741 -0.1960  0.2825 -0.1400
 1478TIP3    H125993   4.912   3.277   8.710  1.0583  0.8686 -0.5518
 1478TIP3    H225994   5.042   3.231   8.773  0.2441 -0.8700 -0.0984
 1479TIP3   OH225995   2.444   0.558   8.446 -0.4568 -0.2360 -0.4396
 1479TIP3    H125996   2.382   0.581   8.515  0.8875  1.0207  0.4303
 1479TIP3    H225997   2.413   0.605   8.368 -1.2266 -0.5553 -0.3271
 1480TIP3   OH225998   2.745   3.145   2.214  0.7114  0.5637 -0.6322
 1480TIP3    H125999   2.792   3.182   2.140 -0.9473  0.8681 -1.5767
 1480TIP3    H226000   2.685   3.214   2.242 -0.7296 -0.5443 -0.8873
 1481TIP3   OH226001   0.198   3.788   1.821 -0.7431 -0.2130 -0.1016
 1481TIP3    H126002   0.145   3.747   1.753  0.7032 -4.7703  1.1663
 1481TIP3    H226003   0.288   3.762   1.801 -0.0573 -0.1751  2.5011
 1482TIP3   OH226004   1.360   6.342   1.544  0.2716  0.0208  0.6354
 1482TIP3    H126005   1.330   6.294   1.621 -1.3991  0.6472  0.4123
 1482TIP3    H226006   1.283   6.352   1.489  1.5083 -0.7349 -1.3473
 1483TIP3   OH226007   6.809   0.515   2.416  0.3828 -0.9594  0.1336
 1483TIP3    H126008   6.891   0.466   2.406  0.8207 -0.5808  1.6573
 1483TIP3    H226009   6.829   0.601   2.379 -0.1208 -1.5967 -1.7446
 1484TIP3   OH226010   1.934   0.861   8.264 -0.4027  0.3138  0.1367
 1484TIP3    H126011   1.910   0.916   8.189 -0.3852  0.1234 -0.0063
 1484TIP3    H226012   1.990   0.918   8.317 -0.3957  0.4413 -0.0041
 1485TIP3   OH226013   4.279   3.506   7.381  0.4054 -0.4847 -0.1588
 1485TIP3    H126014   4.357   3.554   7.409  0.4920 -0.0774 -1.0812
 1485TIP3    H226015   4.207   3.569   7.389  0.0504 -1.0225  1.2315
 1486TIP3   OH226016   6.581   1.868   0.393  0.1204 -0.4434 -0.2368
 1486TIP3    H126017   6.541   1.785   0.417  0.7073 -0.7133 -0.1618
 1486TIP3    H226018   6.577   1.871   0.297 -1.0068  0.0141 -0.1876
 1487TIP3   OH226019   2.488   5.307   2.009  0.0541 -0.1407  0.0152
 1487TIP3    H126020   2.425   5.322   1.939  0.1884  0.6938  0.0571
 1487TIP3    H226021   2.544   5.237   1.977  1.0346  1.2099 -1.3623
 1488TIP3   OH226022   0.312   6.043   8.525  0.2549 -0.0271 -0.1583
 1488TIP3    H126023   0.298   6.023   8.432  1.1355  2.1314 -0.8278
 1488TIP3    H226024   0.404   6.068   8.531 -0.3007  2.0231  0.8244
 1489TIP3   OH226025   4.672   5.855   7.962 -0.8553 -0.4078 -0.5852
 1489TIP3    H126026   4.729   5.873   7.887 -0.8156 -1.9111 -0.9435
 1489TIP3    H226027   4.620   5.935   7.973 -0.0343  0.2669 -1.4640
 1490TIP3   OH226028   5.475   3.629   7.615  0.3180  0.0919 -0.1994
 1490TIP3    H126029   5.544   3.693   7.637  0.3020  0.4751 -1.2252
 1490TIP3    H226030   5.480   3.620   7.520 -0.3393 -0.7015 -0.1656
 1491TIP3   OH226031   6.162   2.751   7.468 -0.1365 -0.1198  0.9247
 1491TIP3    H126032   6.200   2.787   7.388 -2.7697  1.3763  0.2494
 1491TIP3    H226033   6.193   2.661   7.471  1.3900  0.2836 -0.8388
 1492TIP3   OH226034   1.700   1.834   2.735  0.1327 -0.1477  0.1818
 1492TIP3    H126035   1.744   1.904   2.784 -1.2328  0.4313  0.6453
 1492TIP3    H226036   1.638   1.796   2.798 -1.9337  0.8560 -1.1290
 1493TIP3   OH226037   0.223   3.159   2.629  0.3773 -0.1650  0.4604
 1493TIP3    H126038   0.202   3.169   2.722 -0.1495  0.3800  0.2914
 1493TIP3    H226039   0.318   3.149   2.627  0.6405  1.8132  0.9269
 1494TIP3   OH226040   6.084   0.577   8.294  0.0818  0.3589  0.2817
 1494TIP3    H126041   6.003   0.530   8.315  0.0046 -0.0304 -0.7997
 1494TIP3    H226042   6.064   0.622   8.211  1.3427 -0.7510 -0.6661
 1495TIP3   OH226043   1.437   0.852   0.452  0.1899 -0.4264 -0.6910
 1495TIP3    H126044   1.444   0.799   0.531  1.2456 -2.9315 -2.2932
 1495TIP3    H226045   1.501   0.923   0.464 -0.2395 -0.2947  0.9794
 1496TIP3   OH226046   5.700   2.276   1.172 -0.1044 -0.3498 -0.1807
 1496TIP3    H126047   5.639   2.213   1.212  0.3618 -2.0829 -2.0407
 1496TIP3    H226048   5.786   2.236   1.186  0.2066 -0.0861 -1.3226
 1497TIP3   OH226049   4.119   1.813   1.207 -0.6439 -0.7618  0.2094
 1497TIP3    H126050   4.127   1.847   1.296 -0.8828 -0.3705  0.0841
 1497TIP3    H226051   4.173   1.871   1.154 -0.2544 -1.1794  0.1437
 1498TIP3   OH226052   1.536   5.516   8.270  0.0990 -0.1845 -0.2782
 1498TIP3    H126053   1.589   5.504   8.192  0.5890  0.6005 -0.0800
 1498TIP3    H226054   1.501   5.429   8.289 -1.7324 -0.0336 -2.5462
 1499TIP3   OH226055   4.101   0.984   0.958  0.0449  0.3845  0.3171
 1499TIP3    H126056   4.059   1.067   0.980 -0.3073  0.7725 -1.6226
 1499TIP3    H226057   4.036   0.918   0.980 -1.3081  0.9219 -1.7243
 1500TIP3   OH226058   1.091   5.141   0.096  0.1386  0.4250 -0.3357
 1500TIP3    H126059   1.016   5.124   0.153 -0.4522  2.5982 -0.3745
 1500TIP3    H226060   1.167   5.122   0.150 -0.4115 -0.9348  0.0039
 1501TIP3   OH226061   0.969   2.155   7.420  0.0646  0.3447  0.0605
 1501TIP3    H126062   0.919   2.141   7.339  1.0912 -0.9904 -0.3906
 1501TIP3    H226063   0.903   2.157   7.489 -0.7284  0.1281 -0.6639
 1502TIP3   OH226064   0.807   5.764   1.041 -0.5209 -0.1939  0.2884
 1502TIP3    H126065   0.759   5.767   1.124 -1.4751  2.1746 -0.2630
 1502TIP3    H226066   0.837   5.674   1.034 -0.0068 -0.3845  3.4071
 1503TIP3   OH226067   3.327   1.464   2.505  0.2189 -0.1016  0.4641
 1503TIP3    H126068   3.240   1.465   2.545 -0.0815 -1.1529 -0.1398
 1503TIP3    H226069   3.374   1.395   2.553  0.4321 -0.1423  0.1961
 1504TIP3   OH226070   2.770   5.938   1.347  0.2119  0.2821  0.1682
 1504TIP3    H126071   2.750   6.010   1.407  1.1509  1.2885 -0.6781
 1504TIP3    H226072   2.852   5.965   1.305 -0.3958 -0.4088 -1.5291
 1505TIP3   OH226073   5.006   5.684   2.662  0.0518 -0.0971 -0.1053
 1505TIP3    H126074   4.924   5.697   2.708  0.5805  0.4983  0.6835
 1505TIP3    H226075   5.019   5.589   2.663 -0.4037 -0.1597  0.1385
 1506TIP3   OH226076   0.275   4.212   1.165 -0.3194 -0.7070 -0.6530
 1506TIP3    H126077   0.334   4.247   1.098  2.1935  0.4409  1.9213
 1506TIP3    H226078   0.284   4.117   1.158  1.1724 -0.5775 -0.9569
 1507TIP3   OH226079   0.433   4.454   1.762 -0.0423 -0.2942  0.1213
 1507TIP3    H126080   0.522   4.419   1.755  0.3479  0.5583  0.6971
 1507TIP3    H226081   0.378   4.388   1.719  0.7410 -1.3060  0.6254
 1508TIP3   OH226082   4.852   2.835   0.185  0.3672  0.2560 -0.2686
 1508TIP3    H126083   4.918   2.808   0.248 -1.2757 -1.3129  0.8661
 1508TIP3    H226084   4.822   2.754   0.144 -1.6357  0.7460  0.0906
 1509TIP3   OH226085   6.443   2.754   2.172  0.0020  0.4125 -0.0010
 1509TIP3    H126086   6.436   2.814   2.098  2.3497 -0.5054 -1.0478
 1509TIP3    H226087   6.472   2.671   2.134 -0.3697 -0.5826  1.7535
 1510TIP3   OH226088   1.569   1.161   0.219  0.1920  0.0317  0.0548
 1510TIP3    H126089   1.477   1.147   0.196  0.5130 -0.9398 -0.7143
 1510TIP3    H226090   1.606   1.073   0.223  1.6195  0.4707 -1.9584
 1511TIP3   OH226091   0.590   3.288   8.604 -0.0430  0.4712  0.0232
 1511TIP3    H126092   0.643   3.219   8.563  0.6618  0.3680  1.0393
 1511TIP3    H226093   0.527   3.313   8.537  1.3828  0.6918 -1.3024
 1512TIP3   OH226094   6.011   6.711   0.749  0.5060 -0.2108  0.3701
 1512TIP3    H126095   5.925   6.681   0.778  0.6270  0.5218  1.5252
 1512TIP3    H226096   5.994   6.755   0.665 -0.2382 -0.0653  0.5949
 1513TIP3   OH226097   1.652   0.109   0.093 -0.1078 -0.2390 -0.4588
 1513TIP3    H126098   1.626   0.055   0.168 -1.1576  1.8338  0.7644
 1513TIP3    H226099   1.571   0.125   0.046  0.0188  0.9206 -0.3195
 1514TIP3   OH226100   2.283   6.049   2.399  0.5896 -0.2928  0.4638
 1514TIP3    H126101   2.240   6.082   2.320  0.9849 -0.6576  0.0858
 1514TIP3    H226102   2.241   5.964   2.415  1.8972 -1.1753 -0.5570
 1515TIP3   OH226103   3.055   6.740   7.459  0.4702 -0.8093  0.5626
 1515TIP3    H126104   3.060   6.835   7.451  0.2119 -0.8546 -0.1877
 1515TIP3    H226105   3.146   6.712   7.470  0.8230 -0.6517 -1.4846
 1516TIP3   OH226106   4.980   6.197   0.207 -0.3153 -0.7355 -0.3718
 1516TIP3    H126107   5.039   6.259   0.163 -0.6655 -0.1843 -0.0640
 1516TIP3    H226108   4.935   6.249   0.273 -2.1100 -0.8414 -1.4409
 1517TIP3   OH226109   2.728   0.532   7.372 -0.1684 -0.3744 -0.1310
 1517TIP3    H126110   2.704   0.481   7.295  0.1633 -0.1160 -0.4102
 1517TIP3    H226111   2.764   0.468   7.433  1.9888 -0.2488 -1.1923
 1518TIP3   OH226112   3.693   2.270   2.119  0.2149 -0.4537  0.0039
 1518TIP3    H126113   3.741   2.189   2.100 -0.7180 -1.0866  0.3009
 1518TIP3    H226114   3.715   2.290   2.210  1.3466  0.2735 -0.4026
 1519TIP3   OH226115   2.888   2.586   2.263  0.2253  0.0752 -0.1392
 1519TIP3    H126116   2.794   2.592   2.278  0.2455  0.4404 -0.1434
 1519TIP3    H226117   2.914   2.674   2.237  0.8524  0.4391  1.5819
 1520TIP3   OH226118   0.589   2.516   8.651  0.3012  0.3740  0.3337
 1520TIP3    H126119   0.677   2.481   8.665  0.7138  1.5074  0.6483
 1520TIP3    H226120   0.539   2.487   8.727  0.9676  1.4813  1.2166
 1521TIP3   OH226121   3.770   3.637   1.732  0.8088 -0.0439 -0.3921
 1521TIP3    H126122   3.748   3.544   1.744  0.5414  0.2966  2.3555
 1521TIP3    H226123   3.689   3.677   1.703  0.5339 -0.4435 -0.1909
 1522TIP3   OH226124   2.644   6.413   7.664 -0.1615  0.0880  0.0242
 1522TIP3    H126125   2.612   6.453   7.583  1.1206  0.3362 -0.3891
 1522TIP3    H226126   2.650   6.319   7.643 -0.6424  0.0341  0.1197
 1523TIP3   OH226127   2.029   0.438   2.353  0.0685  0.5387 -0.0356
 1523TIP3    H126128   2.064   0.507   2.297 -1.8409  2.7359  1.3270
 1523TIP3    H226129   1.961   0.396   2.301  1.7304 -0.9662 -1.1476
 1524TIP3   OH226130   0.065   4.921   8.136  0.4040 -0.2636  0.1353
 1524TIP3    H126131   0.125   4.851   8.109  1.6481  0.6055  0.5914
 1524TIP3    H226132   0.033   4.958   8.054  0.4781 -0.7336 -0.1105
 1525TIP3   OH226133   1.047   4.904   1.579 -0.5417 -0.2062  0.0702
 1525TIP3    H126134   1.107   4.831   1.564  1.0174  1.5628 -3.3880
 1525TIP3    H226135   0.979   4.892   1.512 -0.2566  1.4281 -0.5539
 1526TIP3   OH226136   3.544   6.537   1.873  0.6973  0.2611  0.5218
 1526TIP3    H126137   3.527   6.453   1.831 -1.4084  0.8155  0.1755
 1526TIP3    H226138   3.571   6.514   1.962 -0.8869 -0.7768  0.7685
 1527TIP3   OH226139   6.415   4.623   0.984  0.2702 -0.1861 -0.2287
 1527TIP3    H126140   6.411   4.705   1.034  0.1722  0.1484 -0.7756
 1527TIP3    H226141   6.426   4.651   0.893 -0.6560 -0.7529 -0.5254
 1528TIP3   OH226142   4.353   4.041   0.952 -0.1398 -0.0360  0.5734
 1528TIP3    H126143   4.381   4.086   0.872  1.4922 -1.9406 -0.0063
 1528TIP3    H226144   4.258   4.037   0.946 -0.0279 -0.3805 -1.4167
 1529TIP3   OH226145   4.828   2.206   7.950  0.1732 -0.1049 -0.0868
 1529TIP3    H126146   4.829   2.140   7.880 -2.5372  0.5237 -0.8594
 1529TIP3    H226147   4.906   2.188   8.002 -0.0324 -3.4383 -0.7084
 1530TIP3   OH226148   0.035   5.417   2.156 -0.0030  0.4695 -0.0935
 1530TIP3    H126149   0.005   5.389   2.069 -1.6560  0.3911  0.4658
 1530TIP3    H226150   0.094   5.490   2.138 -0.9591  0.9935 -1.2766
 1531TIP3   OH226151   5.115   4.761   7.855  0.0091 -0.0402 -0.4798
 1531TIP3    H126152   5.073   4.847   7.863 -1.5399 -0.8178  0.3273
 1531TIP3    H226153   5.189   4.776   7.797 -0.5732  1.7141 -0.8525
 1532TIP3   OH226154   5.168   5.859   0.896  0.2976  0.4199 -0.1629
 1532TIP3    H126155   5.215   5.883   0.816 -0.9226  0.6254 -0.8479
 1532TIP3    H226156   5.112   5.934   0.915 -0.4797 -0.1914  0.0583
 1533TIP3   OH226157   0.326   2.054   2.227  0.5208  0.2593  0.3719
 1533TIP3    H126158   0.308   1.971   2.272 -0.2733  0.2413  0.0334
 1533TIP3    H226159   0.422   2.057   2.220  0.5263 -1.3406 -0.8969
 1534TIP3   OH226160   0.625   1.193   2.110 -0.3993 -0.5355 -0.2951
 1534TIP3    H126161   0.592   1.142   2.036  0.5774 -0.8064 -0.5695
 1534TIP3    H226162   0.712   1.223   2.081 -1.2931  2.1265 -0.5510
 1535TIP3   OH226163   0.083   3.930   1.423  0.1897 -0.4005  0.3903
 1535TIP3    H126164   0.096   3.935   1.329 -1.3708 -0.9530  0.1137
 1535TIP3    H226165   0.017   3.998   1.442  0.7696 -0.0311  1.1443
 1536TIP3   OH226166   0.289   6.701   7.891  0.2335  0.3987 -0.5809
 1536TIP3    H126167   0.306   6.618   7.846  2.4831 -0.6583  1.9274
 1536TIP3    H226168   0.361   6.757   7.864  0.6825  0.3083  0.4025
 1537TIP3   OH226169   6.545   4.998   1.063  0.0614 -0.0828  0.3208
 1537TIP3    H126170   6.487   4.966   1.131  0.1447 -1.7404 -0.3460
 1537TIP3    H226171   6.574   5.084   1.095 -4.6736  2.1414 -0.4582
 1538TIP3   OH226172   2.802   0.129   2.097  0.3685 -0.1783  0.4814
 1538TIP3    H126173   2.886   0.083   2.096 -0.6334 -2.1929  1.8988
 1538TIP3    H226174   2.777   0.130   2.189  0.1830  3.0682  0.4824
 1539TIP3   OH226175   3.504   3.770   2.467  0.6694  0.0236 -0.1286
 1539TIP3    H126176   3.547   3.718   2.534  0.7926  0.4653  0.1376
 1539TIP3    H226177   3.523   3.724   2.385  0.4364 -0.5696  0.1446
 1540TIP3   OH226178   2.249   2.704   8.253 -0.1822  0.1273  0.2983
 1540TIP3    H126179   2.195   2.627   8.269  0.3019 -0.0829  1.0007
 1540TIP3    H226180   2.230   2.762   8.326  0.7968 -0.1055  0.7585
 1541TIP3   OH226181   5.302   4.557   0.672 -0.4749  0.1835  0.6564
 1541TIP3    H126182   5.334   4.590   0.588  0.9237 -0.6622  0.8131
 1541TIP3    H226183   5.357   4.601   0.737  2.4306 -3.1823  0.8301
 1542TIP3   OH226184   0.159   6.049   1.375  0.0835  0.4560  0.2114
 1542TIP3    H126185   0.138   6.115   1.442 -0.2549  0.9883 -0.4063
 1542TIP3    H226186   0.116   6.081   1.295  2.0362  0.8312 -0.7473
 1543TIP3   OH226187   2.970   3.403   8.454  0.1746 -0.3048 -0.0052
 1543TIP3    H126188   2.941   3.447   8.374 -0.8044  0.2699  0.6311
 1543TIP3    H226189   2.944   3.462   8.524  1.0329 -0.7888  0.7464
 1544TIP3   OH226190   0.639   4.104   1.217 -0.1422 -0.3492 -0.0177
 1544TIP3    H126191   0.720   4.059   1.195  0.6740  1.2890 -0.5143
 1544TIP3    H226192   0.609   4.143   1.134  0.8355  2.5444  0.8538
 1545TIP3   OH226193   5.189   0.135   0.497 -0.8865  0.4161  0.1053
 1545TIP3    H126194   5.128   0.205   0.521 -0.7705 -0.0417  1.8605
 1545TIP3    H226195   5.134   0.070   0.454 -1.1283  1.2074 -0.8349
 1546TIP3   OH226196   2.670   3.451   7.445 -0.3479 -0.0049 -0.3183
 1546TIP3    H126197   2.638   3.365   7.473  1.2362 -0.4998  0.0618
 1546TIP3    H226198   2.592   3.494   7.409 -1.4807 -1.0379  0.7775
 1547TIP3   OH226199   0.913   3.180   1.083 -0.4424 -0.3147 -0.2672
 1547TIP3    H126200   0.884   3.180   1.174  0.6424  0.5814  0.1051
 1547TIP3    H226201   0.895   3.092   1.052 -0.8520 -0.6234  0.8107
 1548TIP3   OH226202   4.974   3.130   8.440  0.3972 -0.0788 -0.4519
 1548TIP3    H126203   4.883   3.102   8.431  0.7745 -0.9968 -1.6688
 1548TIP3    H226204   4.995   3.115   8.532 -1.1987  1.8354  0.2796
 1549TIP3   OH226205   2.716   2.673   0.454 -0.2618  0.3377 -0.0454
 1549TIP3    H126206   2.674   2.599   0.497 -0.0559  0.6846  0.7798
 1549TIP3    H226207   2.771   2.633   0.386 -0.7057 -0.2127 -0.0861
 1550TIP3   OH226208   4.722   5.398   2.681 -0.0229 -0.2666 -0.4220
 1550TIP3    H126209   4.744   5.337   2.752 -0.9379  1.2437  1.2549
 1550TIP3    H226210   4.644   5.360   2.640 -0.5119 -0.3034  0.5159
 1551TIP3   OH226211   0.502   3.053   8.145 -0.3112  0.9828  0.0621
 1551TIP3    H126212   0.520   3.137   8.188 -0.0949  0.7702  0.3912
 1551TIP3    H226213   0.448   3.005   8.207  1.4250 -0.0105  0.8735
 1552TIP3   OH226214   5.593   1.433   0.347 -0.0417 -0.1468 -0.0064
 1552TIP3    H126215   5.651   1.436   0.423  0.1698  0.0685 -0.1751
 1552TIP3    H226216   5.651   1.448   0.273 -0.6254  2.1999 -0.0416
 1553TIP3   OH226217   4.073   5.417   0.131  0.1412  0.3051 -0.2657
 1553TIP3    H126218   4.103   5.439   0.219 -0.4021  1.1020 -0.2607
 1553TIP3    H226219   4.012   5.488   0.109  1.2797  0.8477 -1.8004
 1554TIP3   OH226220   0.224   4.998   1.915  0.2448 -0.0006  0.3813
 1554TIP3    H126221   0.285   4.967   1.983  0.5982  0.2005  0.1637
 1554TIP3    H226222   0.263   5.080   1.885 -0.1524  0.1410  0.2543
 1555TIP3   OH226223   4.059   6.359   8.356  0.2124 -0.8795  1.0717
 1555TIP3    H126224   3.990   6.319   8.408  0.3228 -1.2400  0.9424
 1555TIP3    H226225   4.076   6.297   8.286 -1.1701  0.3945 -0.4616
 1556TIP3   OH226226   2.837   0.543   2.268 -0.2036 -0.0658  0.2742
 1556TIP3    H126227   2.920   0.535   2.315 -0.9824  0.7288  1.8662
 1556TIP3    H226228   2.809   0.634   2.284 -2.8449 -1.1058  2.4601
 1557TIP3   OH226229   6.121   5.602   8.322 -0.2922  0.0996 -0.2384
 1557TIP3    H126230   6.050   5.575   8.264 -1.8366  0.5542  1.3313
 1557TIP3    H226231   6.200   5.565   8.283 -1.5466 -1.5242 -1.3959
 1558TIP3   OH226232   0.646   6.178   2.789 -0.5319  0.7161 -0.4337
 1558TIP3    H126233   0.563   6.140   2.761 -1.1825  1.7156  0.0508
 1558TIP3    H226234   0.629   6.272   2.793  0.8025  1.0035 -0.8785
 1559TIP3   OH226235   2.101   1.022   8.407 -0.1680  0.3832  0.4640
 1559TIP3    H126236   2.163   1.053   8.474 -0.7041  0.5638  0.8874
 1559TIP3    H226237   2.049   1.099   8.386 -0.6296  0.0932  0.5391
 1560TIP3   OH226238   4.119   6.546   8.534 -0.4327 -0.1929  0.0318
 1560TIP3    H126239   4.065   6.625   8.541  1.9799  1.6018 -0.4555
 1560TIP3    H226240   4.081   6.497   8.461 -1.5189  0.9014 -0.1594
 1561TIP3   OH226241   2.741   2.848   8.434 -0.7585 -0.5002 -0.2427
 1561TIP3    H126242   2.721   2.941   8.447  2.0749  0.4503 -1.8830
 1561TIP3    H226243   2.713   2.806   8.515 -2.2518  1.7337  0.4996
 1562TIP3   OH226244   6.339   4.650   8.271  1.0626 -0.2035 -0.1728
 1562TIP3    H126245   6.370   4.713   8.205 -0.8031 -1.8244 -2.7689
 1562TIP3    H226246   6.414   4.592   8.286  2.4645  1.8723  1.4855
 1563TIP3   OH226247   4.237   0.227   0.468  0.0975  0.4243 -0.0372
 1563TIP3    H126248   4.258   0.134   0.473 -0.1181  0.4059  0.5623
 1563TIP3    H226249   4.207   0.240   0.378  3.5398  0.6586 -1.2811
 1564TIP3   OH226250   0.780   4.356   7.972  0.2989 -0.3454 -0.0237
 1564TIP3    H126251   0.713   4.399   7.919  0.5854 -1.7754 -1.6532
 1564TIP3    H226252   0.731   4.295   8.027 -0.0828  1.7379  2.1062
 1565TIP3   OH226253   5.614   3.995   8.248  0.7069 -0.4156 -0.0605
 1565TIP3    H126254   5.671   3.941   8.193  1.1889  0.0358 -0.0078
 1565TIP3    H226255   5.627   3.960   8.336  0.5459 -0.6139 -0.1136
 1566TIP3   OH226256   6.467   5.319   2.654 -0.0748  0.5761 -0.1721
 1566TIP3    H126257   6.478   5.332   2.748  0.6606 -1.3231  0.0636
 1566TIP3    H226258   6.384   5.273   2.645 -0.7814  1.8912 -0.6008
 1567TIP3   OH226259   1.051   5.670   2.941  0.4634  0.2328 -0.2697
 1567TIP3    H126260   1.083   5.620   2.866  0.0278 -2.0688  0.9906
 1567TIP3    H226261   1.127   5.682   2.997  0.3403  0.0462 -0.0639
 1568TIP3   OH226262   0.742   1.511   7.956  0.2532 -0.1388  0.2001
 1568TIP3    H126263   0.689   1.488   8.032  0.1592  0.4703  0.3270
 1568TIP3    H226264   0.689   1.487   7.880 -1.3516  2.7885  0.2730
 1569TIP3   OH226265   4.714   5.747   1.135  0.2287 -0.0069  0.1862
 1569TIP3    H126266   4.640   5.747   1.074  0.5045 -0.4665 -0.1609
 1569TIP3    H226267   4.682   5.793   1.212 -0.6319 -0.7504  0.2933
 1570TIP3   OH226268   3.759   0.154   1.142  0.8068  0.1256  0.8436
 1570TIP3    H126269   3.680   0.202   1.117  1.3600  1.1392  0.9702
 1570TIP3    H226270   3.731   0.063   1.148 -0.4583  0.5233  1.3109
 1571TIP3   OH226271   1.469   0.035   1.107  0.5148 -0.5116 -0.0471
 1571TIP3    H126272   1.456   0.063   1.017 -0.9767 -1.1854 -0.0649
 1571TIP3    H226273   1.460  -0.060   1.105 -3.2235 -0.3262  1.3049
 1572TIP3   OH226274   6.253   5.498   7.343  0.2040 -0.2808  0.2618
 1572TIP3    H126275   6.322   5.544   7.295  0.2845  0.1985  0.8102
 1572TIP3    H226276   6.244   5.414   7.300  0.7414 -0.1207 -0.1648
 1573TIP3   OH226277   0.704   3.785   2.048  0.4791 -0.3484 -0.6867
 1573TIP3    H126278   0.626   3.770   1.994 -0.2663  0.0871  0.2416
 1573TIP3    H226279   0.758   3.707   2.034 -0.4311 -0.9621 -0.8259
 1574TIP3   OH226280   5.076   5.883   0.486 -0.2354 -0.2497 -0.3349
 1574TIP3    H126281   5.030   5.884   0.402 -2.0647  1.7459  0.6024
 1574TIP3    H226282   5.035   5.953   0.536  0.6795 -1.4996  2.3100
 1575TIP3   OH226283   2.687   0.801   0.440  0.5358  0.0722  0.0736
 1575TIP3    H126284   2.653   0.745   0.371 -2.8815  0.6882  1.0345
 1575TIP3    H226285   2.749   0.746   0.488 -0.8712 -2.1203 -0.4595
 1576TIP3   OH226286   6.760   0.113   1.979 -0.4901  0.3806 -0.0143
 1576TIP3    H126287   6.693   0.097   2.045  0.1897 -0.5369  0.4767
 1576TIP3    H226288   6.731   0.191   1.933 -0.5859  1.5205  1.8920
 1577TIP3   OH226289   6.253   0.178   0.010 -0.1046  0.4730  0.0937
 1577TIP3    H126290   6.210   0.192  -0.074  0.9604 -1.2208 -0.8071
 1577TIP3    H226291   6.261   0.083   0.017  0.1098  0.5902  1.9909
 1578TIP3   OH226292   6.135   2.581   8.415 -0.4043 -0.1936  0.1144
 1578TIP3    H126293   6.178   2.586   8.500  0.9191 -0.4279 -0.5149
 1578TIP3    H226294   6.133   2.671   8.383 -0.3521 -0.1853  0.1350
 1579TIP3   OH226295   0.899   6.755   1.512 -0.3431  0.0658  0.0748
 1579TIP3    H126296   0.891   6.790   1.423  1.5905 -0.8360 -0.4986
 1579TIP3    H226297   0.970   6.806   1.551 -0.3203 -0.4065  0.6549
 1580TIP3   OH226298   1.014   0.050   2.494  0.3235 -0.2745  0.3442
 1580TIP3    H126299   0.974   0.131   2.463  0.3364 -0.3467  0.1317
 1580TIP3    H226300   0.972   0.032   2.578 -0.9530 -0.9616 -0.4021
 1581TIP3   OH226301   5.475   0.014   2.318  0.1803  0.2770 -0.1821
 1581TIP3    H126302   5.543  -0.040   2.277  0.0869  0.3697 -0.4571
 1581TIP3    H226303   5.411   0.029   2.249  0.1524  0.6497 -0.0757
 1582TIP3   OH226304   5.132   4.346   1.964  0.9363 -0.0807 -0.1021
 1582TIP3    H126305   5.186   4.355   2.042  0.6917  0.6848 -0.0133
 1582TIP3    H226306   5.140   4.430   1.919  0.0289 -0.0427 -0.2160
 1583TIP3   OH226307   4.694   0.576   7.476 -0.7040  0.4597  0.5583
 1583TIP3    H126308   4.719   0.562   7.384 -0.4686  3.0270  0.1772
 1583TIP3    H226309   4.603   0.605   7.472 -1.1131 -0.6533  1.2820
 1584TIP3   OH226310   0.978   1.998   7.723  0.2356  0.4779  0.0039
 1584TIP3    H126311   0.903   2.036   7.677 -0.0204 -0.9840 -0.8458
 1584TIP3    H226312   1.044   2.068   7.724 -1.2107  1.9199  1.0710
 1585TIP3   OH226313   1.504   3.703   0.474  0.2530 -0.3480  0.4403
 1585TIP3    H126314   1.582   3.706   0.418  0.6080  1.4545  0.9608
 1585TIP3    H226315   1.501   3.613   0.507  1.6949 -0.6419 -0.1605
 1586TIP3   OH226316   5.787   2.337   1.724 -0.2850  0.2355 -0.3616
 1586TIP3    H126317   5.879   2.323   1.747  0.7946  2.5115 -2.7903
 1586TIP3    H226318   5.752   2.249   1.711  1.2994 -0.7154  1.3151
 1587TIP3   OH226319   6.272   4.035   8.422 -0.6794  0.1836  0.0983
 1587TIP3    H126320   6.249   3.942   8.416  0.7953 -0.3055  1.2830
 1587TIP3    H226321   6.362   4.040   8.390 -0.8020  1.2513 -0.1222
 1588TIP3   OH226322   6.638   5.226   0.022 -0.1392 -0.1259  0.1102
 1588TIP3    H126323   6.593   5.244  -0.061  0.8870 -0.6686 -0.5970
 1588TIP3    H226324   6.569   5.228   0.088 -1.1262 -0.5260 -0.8755
 1589TIP3   OH226325   4.023   4.318   8.186  0.1798  0.3601 -0.2801
 1589TIP3    H126326   3.937   4.275   8.186  0.3669 -0.0874  1.1779
 1589TIP3    H226327   4.008   4.402   8.229  0.8680 -0.7271  2.2723
 1590TIP3   OH226328   6.587   3.396   1.797  0.6538  0.0820  0.0979
 1590TIP3    H126329   6.559   3.424   1.710  1.1605 -0.2341 -0.1737
 1590TIP3    H226330   6.529   3.323   1.818  2.0123 -1.3856 -0.9894
 1591TIP3   OH226331   1.054   5.133   2.062 -0.2017  0.1229 -0.1047
 1591TIP3    H126332   1.027   5.145   1.971 -2.9764  0.2460  0.6478
 1591TIP3    H226333   0.973   5.140   2.112  0.9186 -1.9134  2.2145
 1592TIP3   OH226334   1.610   5.079   2.423 -0.4206  0.0268 -0.2019
 1592TIP3    H126335   1.585   5.158   2.375  0.3616 -0.3751 -1.3027
 1592TIP3    H226336   1.705   5.088   2.435 -0.4824 -0.2721  0.5642
 1593TIP3   OH226337   5.919   6.570   7.789 -0.1127 -0.0313  0.5477
 1593TIP3    H126338   5.937   6.664   7.791 -1.8658  0.3691 -0.3611
 1593TIP3    H226339   6.004   6.530   7.770  0.2985  1.5344 -1.2989
 1594TIP3   OH226340   5.353   3.408   8.312  0.6347 -0.8190 -0.2786
 1594TIP3    H126341   5.285   3.406   8.244 -1.5687  1.2728  1.6751
 1594TIP3    H226342   5.422   3.462   8.274 -1.4159  2.0067 -0.2815
 1595TIP3   OH226343   0.156   1.760   1.792 -0.1739  0.3944  0.3667
 1595TIP3    H126344   0.094   1.708   1.741 -1.6966  2.4357  0.0083
 1595TIP3    H226345   0.102   1.801   1.860  0.5818  2.7488 -0.3557
 1596TIP3   OH226346   3.334   3.364   1.576  0.1531  0.1684 -0.3832
 1596TIP3    H126347   3.281   3.444   1.578  0.2505  0.2265 -0.1555
 1596TIP3    H226348   3.306   3.320   1.495  1.1436  1.1506 -1.2985
 1597TIP3   OH226349   1.302   2.432   0.933 -0.0649  0.1881  0.1564
 1597TIP3    H126350   1.252   2.400   0.857  0.7024 -1.3707  0.2853
 1597TIP3    H226351   1.307   2.358   0.992  1.1734  0.7433  0.7903
 1598TIP3   OH226352   4.844   5.621   0.553  0.2408  0.4164 -0.6449
 1598TIP3    H126353   4.938   5.603   0.551  0.0781 -0.5274 -0.3581
 1598TIP3    H226354   4.817   5.621   0.461  0.1631 -1.4063 -0.6539
 1599TIP3   OH226355   2.690   3.150   8.522 -0.4632  0.0236  0.0223
 1599TIP3    H126356   2.701   3.222   8.460 -1.0638  0.4667  0.4167
 1599TIP3    H226357   2.597   3.150   8.543 -0.2541 -0.0239  1.0271
 1600TIP3   OH226358   3.112   3.975   8.138  0.2604 -0.2246  0.4614
 1600TIP3    H126359   3.098   3.921   8.061 -1.4118  1.0195 -0.1520
 1600TIP3    H226360   3.082   3.921   8.211  0.5049 -0.8573  0.1052
 1601TIP3   OH226361   5.373   0.622   7.497 -0.8291  0.4506 -0.1742
 1601TIP3    H126362   5.366   0.547   7.556 -0.1194 -1.2733 -2.1664
 1601TIP3    H226363   5.332   0.593   7.416  0.4591  1.8221 -1.3774
 1602TIP3   OH226364   3.775   4.167   1.041 -0.2973 -0.3058  0.1001
 1602TIP3    H126365   3.813   4.205   0.962  1.3839 -0.1624  0.9209
 1602TIP3    H226366   3.758   4.243   1.098 -2.7149 -0.2747 -0.5594
 1603TIP3   OH226367   2.789   6.242   2.272 -0.1174  0.3475  0.6682
 1603TIP3    H126368   2.775   6.159   2.318  0.3181  0.0531  0.2810
 1603TIP3    H226369   2.874   6.231   2.229 -0.7568  0.4107 -0.6687
 1604TIP3   OH226370   3.241   6.655   0.844  0.1111  0.1435 -0.3391
 1604TIP3    H126371   3.179   6.662   0.916 -0.1846  1.0882 -0.6617
 1604TIP3    H226372   3.292   6.576   0.863 -0.4340 -0.0145  0.5212
 1605TIP3   OH226373   6.680   1.075   0.807 -0.0160  0.7427 -0.5587
 1605TIP3    H126374   6.660   1.169   0.816  1.0500  0.8668  0.9400
 1605TIP3    H226375   6.665   1.039   0.895  2.4374  0.1134 -0.3384
 1606TIP3   OH226376   5.564   2.219   8.276  0.1676  0.4800  0.3677
 1606TIP3    H126377   5.516   2.274   8.338 -0.6330  1.8190 -1.3540
 1606TIP3    H226378   5.496   2.176   8.224  0.8174  0.2489 -0.3045
 1607TIP3   OH226379   2.833   2.600   1.816 -0.2511 -0.3507 -0.0200
 1607TIP3    H126380   2.913   2.555   1.841 -0.1579 -1.1042 -1.5834
 1607TIP3    H226381   2.845   2.690   1.848  0.2357 -0.9836  1.7253
 1608TIP3   OH226382   2.815   6.271   7.233  0.0980 -0.2433  0.1317
 1608TIP3    H126383   2.792   6.316   7.315  3.2442  0.0091  0.9988
 1608TIP3    H226384   2.831   6.181   7.259  1.3546 -0.1064 -0.1228
 1609TIP3   OH226385   3.506   1.411   0.649 -0.1375 -0.1844  0.1017
 1609TIP3    H126386   3.556   1.349   0.595  0.8016  1.8413 -1.5139
 1609TIP3    H226387   3.419   1.414   0.608  0.6356  1.5119 -1.6043
 1610TIP3   OH226388   1.305   2.458   8.178 -0.4902 -0.7938 -0.4764
 1610TIP3    H126389   1.355   2.403   8.239  0.5897 -0.6935 -1.2456
 1610TIP3    H226390   1.357   2.538   8.170 -0.0607 -1.2276 -2.3312
 1611TIP3   OH226391   6.430   1.919   1.557 -0.3072 -0.1919  0.0690
 1611TIP3    H126392   6.427   1.929   1.462  0.7027 -1.0970 -0.0720
 1611TIP3    H226393   6.424   1.824   1.571  0.7592 -0.1520  0.8498
 1612TIP3   OH226394   2.595   6.676   7.159 -0.0097 -0.4275 -0.0247
 1612TIP3    H126395   2.557   6.641   7.078 -0.2343  0.9765 -0.5534
 1612TIP3    H226396   2.679   6.712   7.133 -0.8280  1.6066 -0.0309
 1613TIP3   OH226397   5.373   1.366   7.589 -0.2061  0.3694  0.0716
 1613TIP3    H126398   5.323   1.436   7.632 -0.0440  0.6075 -0.1255
 1613TIP3    H226399   5.447   1.411   7.549 -0.4993  0.1868 -0.7000
 1614TIP3   OH226400   2.104   1.320   8.103 -0.1181 -0.2314 -0.2442
 1614TIP3    H126401   2.117   1.390   8.040  0.1753 -1.0000 -1.0520
 1614TIP3    H226402   2.186   1.317   8.153  0.0843 -0.3705 -0.5860
 1615TIP3   OH226403   4.463   3.554   1.245 -0.3550  0.1147  0.2242
 1615TIP3    H126404   4.558   3.541   1.245 -0.4103 -0.3294  0.4260
 1615TIP3    H226405   4.448   3.621   1.312 -0.1489  0.4527 -0.0726
 1616TIP3   OH226406   6.810   3.508   2.151  0.3647 -0.1862  0.3184
 1616TIP3    H126407   6.762   3.429   2.125 -0.0603  0.7049 -1.9075
 1616TIP3    H226408   6.900   3.491   2.123  0.0003  0.5858 -1.5133
 1617TIP3   OH226409   1.413   4.291   3.308  0.4227 -0.0626  0.3704
 1617TIP3    H126410   1.456   4.209   3.333 -0.8821 -1.2314 -1.0104
 1617TIP3    H226411   1.409   4.342   3.389  3.7049 -0.1676  0.7207
 1618TIP3   OH226412   2.703   0.149   8.261 -0.7158 -0.0645  0.1291
 1618TIP3    H126413   2.772   0.173   8.323 -0.2464  0.8281 -0.7204
 1618TIP3    H226414   2.688   0.056   8.277 -0.3083  0.0470  1.2847
 1619TIP3   OH226415   0.247   0.267   1.545 -0.2885 -0.0855  0.3984
 1619TIP3    H126416   0.276   0.178   1.526 -1.6581 -0.7250  1.2129
 1619TIP3    H226417   0.187   0.259   1.619 -0.8902  1.4370  0.1339
 1620TIP3   OH226418   6.135   1.611   0.380  1.0845 -0.1615 -0.3744
 1620TIP3    H126419   6.125   1.680   0.446  0.0802  0.8288 -1.5178
 1620TIP3    H226420   6.170   1.536   0.429  1.6549  0.9614  1.0109
 1621TIP3   OH226421   3.388   1.801   7.063 -0.2417  0.3700 -0.2412
 1621TIP3    H126422   3.462   1.837   7.015 -0.4721  1.9725  0.5524
 1621TIP3    H226423   3.386   1.708   7.037  3.6383 -0.4788  1.6675
 1622TIP3   OH226424   2.257   1.982   7.836 -0.0415 -0.1425  0.7421
 1622TIP3    H126425   2.287   1.998   7.925  0.3415  0.3047  0.5359
 1622TIP3    H226426   2.315   1.912   7.803  0.0370 -0.0705  0.7279
 1623TIP3   OH226427   3.370   6.714   7.350  0.4026  1.1188 -0.4195
 1623TIP3    H126428   3.371   6.672   7.264 -0.2492  0.3356 -0.0626
 1623TIP3    H226429   3.337   6.802   7.333 -0.8150  0.6100 -0.8488
 1624TIP3   OH226430   3.913   0.837   1.618 -0.0960 -0.1808  0.0211
 1624TIP3    H126431   3.947   0.751   1.642  1.1819  0.2910  0.0191
 1624TIP3    H226432   3.984   0.877   1.567 -1.2010  0.3579 -1.1419
 1625TIP3   OH226433   4.516   6.060   8.622 -1.0213 -0.0281 -0.3283
 1625TIP3    H126434   4.493   6.135   8.677 -0.2395 -0.5052  0.6766
 1625TIP3    H226435   4.508   6.093   8.533 -0.9582  1.1795  0.0854
 1626TIP3   OH226436   2.481   1.290   1.033 -0.7178  0.1902  0.2085
 1626TIP3    H126437   2.413   1.243   0.985 -0.3689  1.3045 -1.4438
 1626TIP3    H226438   2.529   1.339   0.966  0.3938  1.0779  1.5889
 1627TIP3   OH226439   6.421   2.244   1.581  0.1896  0.5430 -0.0486
 1627TIP3    H126440   6.334   2.238   1.541  0.8678 -1.6842 -1.3967
 1627TIP3    H226441   6.438   2.156   1.614  1.1296  1.4581  2.1021
 1628TIP3   OH226442   2.358   4.706   7.578  0.3684 -0.0236  0.6160
 1628TIP3    H126443   2.391   4.622   7.544  0.1846 -0.3476  1.2203
 1628TIP3    H226444   2.373   4.768   7.507 -2.1544 -1.1210 -1.0359
 1629TIP3   OH226445   0.064   1.920   2.696 -0.3474  0.0565  0.2010
 1629TIP3    H126446   0.085   1.829   2.673 -2.9965 -0.6707  0.3942
 1629TIP3    H226447   0.125   1.942   2.766  0.8779 -1.2727 -0.4075
 1630TIP3   OH226448   4.055   4.761   8.552 -0.3245 -0.1230 -0.4918
 1630TIP3    H126449   4.143   4.797   8.547 -0.3806  0.1542  0.3598
 1630TIP3    H226450   4.050   4.722   8.640 -1.4680  1.0055 -0.0261
 1631TIP3   OH226451   3.294   6.605   1.694 -0.0456  0.1296 -0.2778
 1631TIP3    H126452   3.240   6.566   1.762 -1.2801 -0.8869 -1.7712
 1631TIP3    H226453   3.232   6.639   1.630  1.0728  0.8738 -1.0091
 1632TIP3   OH226454   1.378   4.218   0.884 -0.1483 -0.0942  0.0090
 1632TIP3    H126455   1.297   4.194   0.837 -0.9823  2.4510 -0.0372
 1632TIP3    H226456   1.435   4.254   0.816 -0.1797  0.8302  0.4446
 1633TIP3   OH226457   4.179   0.663   0.172  0.4265  0.0924 -0.2916
 1633TIP3    H126458   4.247   0.647   0.238  0.6415 -1.1079 -0.7785
 1633TIP3    H226459   4.099   0.674   0.223  1.0783  2.4582  0.3533
 1634TIP3   OH226460   4.971   2.289   1.893  0.6606 -0.2813  0.6829
 1634TIP3    H126461   4.980   2.349   1.967  1.3923  1.6154 -0.8318
 1634TIP3    H226462   5.027   2.327   1.825 -1.8291 -0.5386 -1.6961
 1635TIP3   OH226463   5.206   5.248   1.295  0.0705  0.2453  0.5124
 1635TIP3    H126464   5.221   5.338   1.266  0.2523  0.0583  0.0304
 1635TIP3    H226465   5.113   5.232   1.276  0.3270 -0.0713 -0.5019
 1636TIP3   OH226466   3.988   0.986   2.355 -0.5329  0.2017  0.0569
 1636TIP3    H126467   3.947   0.957   2.437  0.6029  0.3743  0.7026
 1636TIP3    H226468   4.070   1.026   2.382 -0.3124  0.5993 -1.1483
 1637TIP3   OH226469   6.654   3.588   7.884  0.0221 -0.0320 -0.4605
 1637TIP3    H126470   6.730   3.531   7.896  0.3816  0.6584  0.6175
 1637TIP3    H226471   6.594   3.536   7.829  0.8248 -0.9810 -0.4731
 1638TIP3   OH226472   1.180   6.169   8.368 -0.2528  0.1534 -0.0989
 1638TIP3    H126473   1.183   6.251   8.417  0.1348 -0.0065  0.1479
 1638TIP3    H226474   1.194   6.194   8.277 -1.2685  0.4847 -0.1701
 1639TIP3   OH226475   1.742   5.789   2.205 -0.5157 -0.3859 -0.1171
 1639TIP3    H126476   1.804   5.721   2.178 -0.1040  0.3485 -1.1197
 1639TIP3    H226477   1.763   5.864   2.148 -2.5307 -0.2223 -0.7218
 1640TIP3   OH226478   5.175   0.140   1.399  0.2325 -0.2893 -0.8675
 1640TIP3    H126479   5.248   0.180   1.352  0.1740 -1.6689 -2.2241
 1640TIP3    H226480   5.130   0.213   1.441  1.2943  0.7941 -1.5510
 1641TIP3   OH226481   4.874   5.623   0.912  0.7509 -0.4457 -0.0619
 1641TIP3    H126482   4.853   5.670   0.831  1.0696  0.8966  0.6045
 1641TIP3    H226483   4.837   5.677   0.981  0.0904 -1.8044  0.6900
 1642TIP3   OH226484   2.203   5.404   7.774  0.1358 -0.0763  0.2927
 1642TIP3    H126485   2.262   5.476   7.753  1.3792 -1.4411 -1.1873
 1642TIP3    H226486   2.148   5.394   7.697  0.6720 -1.3437  0.0553
 1643TIP3   OH226487   6.427   4.344   0.376  0.0110 -0.3247 -0.3025
 1643TIP3    H126488   6.430   4.250   0.397 -0.2344 -0.7497 -2.0178
 1643TIP3    H226489   6.479   4.352   0.296 -1.0446  0.7740 -0.9115
 1644TIP3   OH226490   5.354   4.036   1.851  0.3525  0.2815 -0.7105
 1644TIP3    H126491   5.327   4.012   1.939  0.7783  0.2909 -0.5761
 1644TIP3    H226492   5.313   3.970   1.795 -0.2943  0.5444 -0.5533
 1645TIP3   OH226493   1.053   6.008   8.536 -0.2761  0.1826 -0.1497
 1645TIP3    H126494   1.109   6.022   8.613 -0.5955  1.6212 -0.1369
 1645TIP3    H226495   1.098   6.054   8.465 -1.7716  2.0563  0.0413
 1646TIP3   OH226496   5.088   2.216   0.296 -0.7135 -0.3589 -0.0675
 1646TIP3    H126497   5.023   2.285   0.280 -0.4550 -0.2731 -0.8052
 1646TIP3    H226498   5.160   2.236   0.235 -0.3122 -0.8589  0.2335
 1647TIP3   OH226499   2.777   4.316   7.654  0.0435 -0.2365  0.5961
 1647TIP3    H126500   2.685   4.295   7.636  0.1870 -0.3936  0.0162
 1647TIP3    H226501   2.813   4.236   7.692 -0.2409  0.0690  1.5392
 1648TIP3   OH226502   5.444   1.667   1.799 -0.0443 -0.0130  0.3260
 1648TIP3    H126503   5.470   1.582   1.765  0.4428  0.3400 -0.2040
 1648TIP3    H226504   5.367   1.691   1.748 -0.4534 -0.3348  0.7863
 1649TIP3   OH226505   0.482   1.983   8.444  0.4433  0.1943  0.0651
 1649TIP3    H126506   0.490   2.078   8.432 -1.0774  0.0626 -3.0235
 1649TIP3    H226507   0.509   1.946   8.360 -1.2017 -1.9305  0.3907
 1650TIP3   OH226508   0.609   2.900   1.574 -0.4297  0.0842 -0.0858
 1650TIP3    H126509   0.641   2.841   1.642 -2.0164 -3.7380 -2.3255
 1650TIP3    H226510   0.677   2.896   1.506 -1.1583 -0.3158 -0.8103
 1651TIP3   OH226511   1.500   3.255   7.840 -0.1196 -0.4890 -0.3084
 1651TIP3    H126512   1.528   3.234   7.750  0.2203  0.7329 -0.5004
 1651TIP3    H226513   1.406   3.271   7.832 -0.0622 -0.2290 -0.4769
 1652TIP3   OH226514   6.405   5.441   7.893 -0.6234 -0.0577 -0.0692
 1652TIP3    H126515   6.405   5.460   7.800  1.8685 -0.3627 -0.1976
 1652TIP3    H226516   6.471   5.372   7.903  1.0742  1.7505  2.2122
 1653TIP3   OH226517   6.000   0.861   8.558 -0.0520  0.7557  0.7873
 1653TIP3    H126518   6.067   0.895   8.617  0.4601  0.7690  0.2053
 1653TIP3    H226519   6.048   0.837   8.478 -0.2667 -1.8511  1.3415
 1654TIP3   OH226520   2.857   2.293   1.168  0.6417 -0.3244 -0.1393
 1654TIP3    H126521   2.785   2.235   1.146 -0.8500  1.9461 -1.7344
 1654TIP3    H226522   2.884   2.267   1.256 -2.0107 -1.3818  0.4362
 1655TIP3   OH226523   1.787   6.249   2.223 -0.1189  0.6824  0.0336
 1655TIP3    H126524   1.810   6.312   2.291 -0.2643 -0.0527  0.7732
 1655TIP3    H226525   1.851   6.178   2.233 -0.0981  0.6021 -0.6413
 1656TIP3   OH226526   3.599   5.738   8.070 -0.4266 -0.4031  0.1756
 1656TIP3    H126527   3.590   5.654   8.025 -0.0719  0.3757 -1.4387
 1656TIP3    H226528   3.532   5.794   8.031  2.8258  1.7102 -2.9651
 1657TIP3   OH226529   5.794   6.559   1.225  0.0350  0.0660 -0.2018
 1657TIP3    H126530   5.786   6.652   1.248 -1.5376 -0.2825  0.7811
 1657TIP3    H226531   5.756   6.513   1.300 -0.7344 -1.3034 -1.4002
 1658TIP3   OH226532   0.667   4.247   0.007 -0.0697  0.1473  0.4727
 1658TIP3    H126533   0.624   4.296   0.076  0.6905  2.0242 -0.3228
 1658TIP3    H226534   0.728   4.189   0.053 -0.7154  0.2068  1.4209
 1659TIP3   OH226535   6.201   2.765   2.457  0.4971 -0.3183 -0.3958
 1659TIP3    H126536   6.190   2.758   2.552  0.1979 -0.5172 -0.4430
 1659TIP3    H226537   6.287   2.728   2.440  0.6588 -0.0488 -0.1736
 1660TIP3   OH226538   2.082   5.688   2.657 -0.0284  0.6064 -0.6107
 1660TIP3    H126539   2.059   5.674   2.565  0.1480 -1.3790 -0.3979
 1660TIP3    H226540   2.092   5.600   2.693 -2.5339  1.2074  1.9636
 1661TIP3   OH226541   4.291   5.450   0.355  0.3905 -0.0990 -0.7348
 1661TIP3    H126542   4.309   5.532   0.310  1.0965 -0.7030 -1.5824
 1661TIP3    H226543   4.267   5.477   0.444  0.7548  1.0113 -0.9511
 1662TIP3   OH226544   6.304   6.216   7.863  0.8173 -0.5496  0.0263
 1662TIP3    H126545   6.359   6.194   7.937  0.5809  0.3012  0.4749
 1662TIP3    H226546   6.226   6.161   7.873  0.3201  0.3060  1.0109
 1663TIP3   OH226547   2.206   0.705   7.939 -0.2506  0.2424  0.3121
 1663TIP3    H126548   2.121   0.732   7.974 -0.0498 -0.1970  1.1584
 1663TIP3    H226549   2.191   0.695   7.845 -1.5374 -1.2387  0.6286
 1664TIP3   OH226550   4.704   6.371   1.643  0.0487  0.0254 -0.2728
 1664TIP3    H126551   4.629   6.354   1.586  0.1258 -0.4249 -0.2464
 1664TIP3    H226552   4.765   6.422   1.589  0.5013 -1.1260 -0.8968
 1665TIP3   OH226553   5.927   3.511   1.645  0.0817  0.7908  0.9570
 1665TIP3    H126554   5.923   3.463   1.728 -0.2074  0.8314  0.9642
 1665TIP3    H226555   5.975   3.591   1.666  1.8051 -0.1117  0.6534
 1666TIP3   OH226556   5.963   2.165   0.161 -0.2648 -0.4488  0.2026
 1666TIP3    H126557   6.027   2.233   0.183  0.6651 -0.7452 -1.4208
 1666TIP3    H226558   5.988   2.091   0.216 -0.0908 -0.1084  0.5910
 1667TIP3   OH226559   0.394   3.316   7.918 -0.1422  0.4253  0.5757
 1667TIP3    H126560   0.479   3.340   7.881  0.0659  0.1536  0.8655
 1667TIP3    H226561   0.341   3.396   7.910 -0.7641 -0.1596 -2.0557
 1668TIP3   OH226562   5.029   4.043   1.637 -0.3893  0.3629  0.5696
 1668TIP3    H126563   4.977   3.966   1.615 -1.7117  1.6575 -1.1332
 1668TIP3    H226564   5.040   4.089   1.554 -0.0116  2.2341  1.5999
 1669TIP3   OH226565   0.829   2.880   0.113  0.4981 -0.0271  0.4406
 1669TIP3    H126566   0.840   2.900   0.020  2.2694  0.4002  0.7076
 1669TIP3    H226567   0.918   2.877   0.147 -0.0594 -1.4834  1.8688
 1670TIP3   OH226568   1.259   1.678   8.511 -0.2742  0.6702  0.0807
 1670TIP3    H126569   1.307   1.689   8.429 -0.0139  0.2716  0.1766
 1670TIP3    H226570   1.224   1.589   8.507  0.2055  0.4477  0.6423
 1671TIP3   OH226571   5.390   4.129   1.107 -0.2044 -0.2552  0.1733
 1671TIP3    H126572   5.394   4.105   1.199  0.0995 -1.5258 -0.1455
 1671TIP3    H226573   5.467   4.089   1.068 -0.8430 -0.5810 -0.8110
 1672TIP3   OH226574   0.927   1.781   3.121  0.1471  0.2925  0.7366
 1672TIP3    H126575   1.021   1.764   3.122  0.0254 -0.7338 -0.7665
 1672TIP3    H226576   0.908   1.802   3.030 -1.2241 -0.5652  0.7908
 1673TIP3   OH226577   2.169   2.132   0.365  0.6787  0.3107  0.8370
 1673TIP3    H126578   2.143   2.149   0.456 -0.7000  0.9588  0.3489
 1673TIP3    H226579   2.211   2.213   0.337 -1.2581  1.1421  0.1220
 1674TIP3   OH226580   1.752   6.533   7.939  0.0050 -0.2244 -0.1595
 1674TIP3    H126581   1.817   6.481   7.891  1.6835  0.3452  1.3754
 1674TIP3    H226582   1.725   6.477   8.012  3.2879  1.4770  2.6818
 1675TIP3   OH226583   0.843   4.356   0.289  0.7026 -0.5719 -0.4396
 1675TIP3    H126584   0.787   4.420   0.334  0.2221 -1.6985  0.6155
 1675TIP3    H226585   0.838   4.381   0.197 -1.4138 -0.5048 -0.3683
 1676TIP3   OH226586   0.411   2.683   1.496 -0.0404 -0.6457 -0.3253
 1676TIP3    H126587   0.450   2.769   1.507 -0.9433 -0.1931 -0.6095
 1676TIP3    H226588   0.463   2.626   1.552  0.4143  0.1247  0.0481
 1677TIP3   OH226589   3.367   0.618   7.487  0.0573  0.6890 -1.2869
 1677TIP3    H126590   3.323   0.539   7.518  2.4076  0.1485  1.0344
 1677TIP3    H226591   3.328   0.689   7.538  1.1917  0.3160  0.1803
 1678TIP3   OH226592   5.007   1.711   2.413  0.0739 -0.1218 -0.2699
 1678TIP3    H126593   5.080   1.751   2.460 -0.4022 -1.0722  1.3684
 1678TIP3    H226594   4.999   1.762   2.332  1.2909  1.2323  0.4246
 1679TIP3   OH226595   1.070   1.936   2.472  0.4294 -0.1640  0.0886
 1679TIP3    H126596   1.065   1.853   2.519 -1.0672  0.0465  0.3498
 1679TIP3    H226597   1.001   1.990   2.510  1.0376  1.0275 -0.4275
 1680TIP3   OH226598   4.628   1.593   8.168  0.3437  0.4427  0.1130
 1680TIP3    H126599   4.655   1.513   8.212  1.2375 -0.6262 -2.2265
 1680TIP3    H226600   4.539   1.575   8.137  0.2061  0.6960  0.3601
 1681TIP3   OH226601   3.275   1.493   7.283  0.0937 -0.0011  0.3314
 1681TIP3    H126602   3.321   1.478   7.201 -0.2978  0.2423  0.0653
 1681TIP3    H226603   3.341   1.476   7.351  0.7722  1.0190 -0.0569
 1682TIP3   OH226604   1.651   4.260   0.945  0.5644 -0.2555 -0.2760
 1682TIP3    H126605   1.671   4.348   0.978  0.4889 -0.6579  0.9270
 1682TIP3    H226606   1.610   4.216   1.020 -0.7482 -0.8618 -1.3002
 1683TIP3   OH226607   2.178   5.073   8.508 -0.2124 -0.2498  0.2790
 1683TIP3    H126608   2.156   5.130   8.434 -0.0965  0.6411  0.9151
 1683TIP3    H226609   2.141   4.988   8.484 -0.5362  0.1277 -0.6156
 1684TIP3   OH226610   0.964   2.547   7.744  0.2693 -0.0946 -0.0294
 1684TIP3    H126611   0.872   2.557   7.721  0.1794 -0.3219  0.2337
 1684TIP3    H226612   1.011   2.585   7.670 -0.0419  0.7030  0.1685
 1685TIP3   OH226613   0.369   2.583   8.486 -0.1762 -0.5973  0.6692
 1685TIP3    H126614   0.452   2.558   8.526  0.1625 -0.5803 -0.0071
 1685TIP3    H226615   0.380   2.562   8.393 -0.5449  0.3577  0.3967
 1686TIP3   OH226616   4.419   3.608   8.577 -0.0507 -0.4873  0.5775
 1686TIP3    H126617   4.473   3.532   8.603 -0.6337 -0.7027  1.1800
 1686TIP3    H226618   4.350   3.611   8.643 -0.3747  0.2136  0.2038
 1687TIP3   OH226619   2.787   3.265   1.216 -0.5887 -0.0370 -0.2882
 1687TIP3    H126620   2.786   3.268   1.120 -0.8784 -2.9589 -0.4659
 1687TIP3    H226621   2.698   3.288   1.242  0.0852  3.3053 -0.4595
 1688TIP3   OH226622   4.648   6.358   2.043  0.1526 -0.0230 -0.2363
 1688TIP3    H126623   4.743   6.369   2.037  0.2031  0.2209  0.8886
 1688TIP3    H226624   4.629   6.284   1.985  1.1886 -0.8580  0.4585
 1689TIP3   OH226625   1.282   5.479   8.606  0.7250  0.2822 -0.3756
 1689TIP3    H126626   1.253   5.395   8.571  1.4028  0.0445 -0.3807
 1689TIP3    H226627   1.305   5.461   8.697 -2.7355  1.2593  0.8308
 1690TIP3   OH226628   1.948   6.646   8.564 -0.6840 -0.2459 -0.6420
 1690TIP3    H126629   2.018   6.653   8.629  0.3049  0.0339 -1.7121
 1690TIP3    H226630   1.903   6.565   8.588  0.7926 -1.1210 -0.6721
 1691TIP3   OH226631   5.395   2.432   2.282  0.1214 -0.0427  0.2497
 1691TIP3    H126632   5.442   2.449   2.200  0.8460  1.4793  0.9421
 1691TIP3    H226633   5.368   2.519   2.313 -0.9088 -0.6710  1.1921
 1692TIP3   OH226634   4.029   2.634   0.378 -0.0891  0.0622  0.2743
 1692TIP3    H126635   4.121   2.653   0.364 -0.1518  0.3926  0.3098
 1692TIP3    H226636   4.028   2.567   0.446  0.1993 -1.1211 -0.8497
 1693TIP3   OH226637   0.225   4.153   2.603  0.3549 -0.0840 -0.4400
 1693TIP3    H126638   0.300   4.181   2.656  2.0373 -1.3098 -2.0199
 1693TIP3    H226639   0.205   4.064   2.635 -1.4806  0.7767  0.9829
 1694TIP3   OH226640   5.769   0.234   1.253  0.1370 -0.5874  0.3153
 1694TIP3    H126641   5.852   0.273   1.226  0.1524 -0.0286  1.1533
 1694TIP3    H226642   5.762   0.155   1.199  0.4281  0.1982 -0.9300
 1695TIP3   OH226643   6.669   1.967   1.696  0.0407 -0.7067 -0.6056
 1695TIP3    H126644   6.739   1.933   1.641  0.1226  1.1316 -1.7250
 1695TIP3    H226645   6.591   1.963   1.642 -0.8219 -2.9212  0.7047
 1696TIP3   OH226646   0.859   2.482   0.238  0.2515 -0.0630  0.0604
 1696TIP3    H126647   0.811   2.547   0.289  0.7427  0.6594 -0.3777
 1696TIP3    H226648   0.791   2.437   0.188 -0.2074 -0.6026  1.1344
 1697TIP3   OH226649   4.851   1.019   2.123  0.2983  0.1446  0.4132
 1697TIP3    H126650   4.931   1.045   2.170  1.3287 -0.4806 -0.9379
 1697TIP3    H226651   4.882   0.988   2.038 -1.5616  1.7987 -0.9643
 1698TIP3   OH226652   6.665   2.942   1.434 -0.3461  0.6462  0.4585
 1698TIP3    H126653   6.593   2.894   1.393 -0.8672  1.3298  0.5594
 1698TIP3    H226654   6.670   3.025   1.386  1.1347  0.1534 -0.3123
 1699TIP3   OH226655   5.712   6.376   1.420  0.3524 -0.1524 -0.5111
 1699TIP3    H126656   5.788   6.320   1.435  1.2258  0.9462 -0.6810
 1699TIP3    H226657   5.651   6.321   1.373  1.0859 -1.0363 -0.4628
 1700TIP3   OH226658   4.293   3.278   2.443 -0.0831  0.3581 -0.6405
 1700TIP3    H126659   4.304   3.323   2.360  2.5851 -0.9989 -1.1197
 1700TIP3    H226660   4.247   3.341   2.499  3.5245  3.8638 -1.1633
 1701TIP3   OH226661   4.475   4.730   0.191  0.7001 -0.5119  0.2032
 1701TIP3    H126662   4.446   4.639   0.180 -1.1789  0.0075  0.6224
 1701TIP3    H226663   4.395   4.782   0.188  1.8652  1.3390 -1.7562
 1702TIP3   OH226664   3.272   3.389   2.236  0.1651  0.5581  0.3680
 1702TIP3    H126665   3.342   3.328   2.213 -0.9341 -0.7062  0.3156
 1702TIP3    H226666   3.235   3.416   2.152 -0.6377 -0.2437  0.4590
 1703TIP3   OH226667   0.342   1.088   0.573  0.4126 -0.2239 -0.3680
 1703TIP3    H126668   0.356   1.066   0.665  1.0626  0.6636 -0.2439
 1703TIP3    H226669   0.251   1.119   0.570  0.1959 -0.8189 -0.1459
 1704TIP3   OH226670   5.727   6.065   0.971 -0.5426 -0.0742  0.0251
 1704TIP3    H126671   5.693   6.146   1.007  0.1933  0.2786 -0.0519
 1704TIP3    H226672   5.816   6.058   1.006 -0.1494 -0.2008 -0.9511
 1705TIP3   OH226673   4.346   3.872   0.101  0.0838  0.6192  0.7612
 1705TIP3    H126674   4.396   3.918   0.033  0.5534  0.6182  1.0970
 1705TIP3    H226675   4.379   3.909   0.183 -0.0847  0.2292  1.0071
 1706TIP3   OH226676   5.360   0.099   1.659  0.7412 -0.1162 -0.4225
 1706TIP3    H126677   5.375   0.167   1.593  1.1337  0.6815  0.4560
 1706TIP3    H226678   5.309   0.143   1.727 -2.9893 -1.8718 -1.7840
 1707TIP3   OH226679   6.263   4.018   7.119 -0.1192 -0.5088 -0.1581
 1707TIP3    H126680   6.351   3.979   7.120  1.0504  1.9143 -0.7467
 1707TIP3    H226681   6.219   3.975   7.046  0.7618 -1.3925 -0.1952
 1708TIP3   OH226682   5.554   3.242   1.402  0.2949  0.3487 -0.8011
 1708TIP3    H126683   5.622   3.284   1.350 -1.0928  2.6116 -0.9433
 1708TIP3    H226684   5.505   3.189   1.339 -1.9683  3.7989 -2.2895
 1709TIP3   OH226685   2.857   1.164   1.859  0.1274  0.1263  0.6543
 1709TIP3    H126686   2.810   1.196   1.782 -1.6270 -0.1264  1.5873
 1709TIP3    H226687   2.925   1.108   1.822  0.4594  1.3702 -0.7843
 1710TIP3   OH226688   0.369   4.376   2.396 -0.0837 -0.0543  0.3431
 1710TIP3    H126689   0.365   4.431   2.475  2.4025  0.4735  0.1693
 1710TIP3    H226690   0.311   4.420   2.334  1.4825  2.2274  0.3659
 1711TIP3   OH226691   5.056   0.768   3.094  0.0528  0.5510  0.2049
 1711TIP3    H126692   5.015   0.690   3.058  0.3826  0.2292  0.5156
 1711TIP3    H226693   4.988   0.807   3.150 -1.9265  3.2377 -3.6577
 1712TIP3   OH226694   6.027   4.652   2.396 -0.2574 -0.0146 -0.0045
 1712TIP3    H126695   5.950   4.601   2.421  1.3977 -2.7245 -0.0563
 1712TIP3    H226696   6.068   4.676   2.479  0.1778 -0.8081  0.0221
 1713TIP3   OH226697   3.207   5.978   0.866  0.0143  0.3724  0.8258
 1713TIP3    H126698   3.238   6.044   0.804 -3.5576  1.2923 -0.1881
 1713TIP3    H226699   3.240   5.895   0.831  0.8641  1.1832 -0.3880
 1714TIP3   OH226700   4.956   4.550   8.136  0.1458  0.4873 -0.0338
 1714TIP3    H126701   5.007   4.493   8.193  1.1814  1.1209 -0.2948
 1714TIP3    H226702   4.950   4.503   8.053  0.6266  0.5629 -0.1137
 1715TIP3   OH226703   4.041   0.778   0.419 -0.2703  0.2724 -0.4290
 1715TIP3    H126704   4.026   0.857   0.367 -0.0756  0.8314  0.3361
 1715TIP3    H226705   4.067   0.811   0.505 -0.9129 -0.6150  0.1313
 1716TIP3   OH226706   5.035   3.270   7.692 -0.0341 -0.5502 -0.4355
 1716TIP3    H126707   5.020   3.180   7.663  0.4259 -0.6993 -0.2340
 1716TIP3    H226708   5.064   3.260   7.783 -1.1455 -0.1183 -0.0208
 1717TIP3   OH226709   2.429   6.017   1.322  0.0303 -0.4321 -0.5354
 1717TIP3    H126710   2.442   5.965   1.401  2.3784  0.0885 -0.5144
 1717TIP3    H226711   2.487   5.978   1.258 -0.3382  0.4089 -1.4038
 1718TIP3   OH226712   6.598   0.977   1.927 -0.1557 -0.2779 -0.2334
 1718TIP3    H126713   6.680   1.009   1.964  0.2137 -2.5747  1.1103
 1718TIP3    H226714   6.546   0.950   2.002 -1.1896 -1.0442 -1.1816
 1719TIP3   OH226715   2.123   1.862   2.120  0.3658  0.7149  0.0257
 1719TIP3    H126716   2.124   1.837   2.028  2.1430  0.2050  0.1539
 1719TIP3    H226717   2.124   1.779   2.167  1.2113  0.9797  0.4908
 1720TIP3   OH226718   3.138   1.638   0.593  0.2216 -0.3579  0.4392
 1720TIP3    H126719   3.089   1.568   0.550 -2.1384  1.3006  0.2397
 1720TIP3    H226720   3.136   1.614   0.686  0.2173 -0.9975  0.2787
 1721TIP3   OH226721   1.132   4.623   2.574  0.1081 -0.2488  0.2937
 1721TIP3    H126722   1.135   4.712   2.609 -0.0091  0.3492 -1.1159
 1721TIP3    H226723   1.209   4.579   2.611 -0.6638 -0.0615  2.2120
 1722TIP3   OH226724   2.315   5.708   2.056  0.0061 -0.3675 -0.4786
 1722TIP3    H126725   2.397   5.751   2.078 -0.4684  0.2203  0.1831
 1722TIP3    H226726   2.313   5.708   1.960  0.3739  0.4004 -0.4936
 1723TIP3   OH226727   4.135   1.757   1.768 -0.8992  0.2003  0.1195
 1723TIP3    H126728   4.107   1.835   1.721  0.4772 -0.6124 -2.2023
 1723TIP3    H226729   4.224   1.776   1.797 -1.4870  0.4330  1.9554
 1724TIP3   OH226730   0.317   2.530   1.860 -0.1870  0.2363  0.1300
 1724TIP3    H126731   0.265   2.450   1.863 -0.4684  0.4364  0.8546
 1724TIP3    H226732   0.283   2.584   1.931  1.4582  0.0974  1.0656
 1725TIP3   OH226733   3.784   0.414   7.893 -0.2106 -0.0640  0.3668
 1725TIP3    H126734   3.772   0.490   7.836  1.6603  0.3798  0.5094
 1725TIP3    H226735   3.699   0.401   7.934 -1.1293  0.6853 -1.1886
 1726TIP3   OH226736   3.816   3.327   7.503  0.1346 -0.6999  0.0403
 1726TIP3    H126737   3.837   3.315   7.596 -0.8296  2.0155  0.7044
 1726TIP3    H226738   3.853   3.413   7.481 -0.1737 -1.0306 -1.9553
 1727TIP3   OH226739   6.031   6.486   2.496 -0.4273 -0.1489 -0.3714
 1727TIP3    H126740   6.033   6.463   2.589 -1.5607 -0.5284 -0.4203
 1727TIP3    H226741   6.123   6.497   2.472 -0.0967 -0.4263  0.6980
 1728TIP3   OH226742   3.935   2.280   0.993  0.1449 -0.5982 -0.0549
 1728TIP3    H126743   3.972   2.194   0.975 -0.4352 -1.1016  1.0845
 1728TIP3    H226744   4.006   2.341   0.974  0.1303 -1.1721 -2.3147
 1729TIP3   OH226745   2.395   2.869   2.254 -0.3858 -0.2211 -0.5249
 1729TIP3    H126746   2.380   2.951   2.300  3.9169 -0.1678  1.2820
 1729TIP3    H226747   2.334   2.808   2.294 -0.9867  1.2526  0.9043
 1730TIP3   OH226748   4.479   5.585   1.603  0.2022  0.1477 -0.1454
 1730TIP3    H126749   4.469   5.492   1.584  3.2478 -0.2471 -0.3104
 1730TIP3    H226750   4.510   5.623   1.521  0.3107  1.0373  0.2987
 1731TIP3   OH226751   5.607   2.061   0.716  0.2643  0.9200 -0.0043
 1731TIP3    H126752   5.576   2.128   0.656 -0.7896  0.0413 -0.4560
 1731TIP3    H226753   5.576   2.090   0.802 -1.1047  0.4841 -0.3366
 1732TIP3   OH226754   3.091   3.915   2.401 -0.3603 -0.5545 -0.1219
 1732TIP3    H126755   3.102   3.884   2.491 -1.0759  0.6958  0.4232
 1732TIP3    H226756   3.148   3.859   2.349  1.5392 -0.0965  1.3510
 1733TIP3   OH226757   0.418   1.071   1.123 -0.2153 -0.4205  0.0280
 1733TIP3    H126758   0.440   1.164   1.134 -2.1718  0.5181 -2.8702
 1733TIP3    H226759   0.425   1.034   1.211 -1.1153  2.8965  1.6438
 1734TIP3   OH226760   0.371   6.350   8.733  0.2525 -0.0366  0.0624
 1734TIP3    H126761   0.282   6.318   8.718 -0.5067  1.5977  0.8985
 1734TIP3    H226762   0.361   6.443   8.749  2.0836  0.1059  0.5908
 1735TIP3   OH226763   3.317   5.809   0.470  0.2307  0.1913 -0.5702
 1735TIP3    H126764   3.229   5.825   0.436 -0.1830 -2.6877 -1.0609
 1735TIP3    H226765   3.365   5.771   0.397  1.9209  1.6031 -0.2697
 1736TIP3   OH226766   2.642   2.009   8.528  0.4151  0.0063 -0.3310
 1736TIP3    H126767   2.616   2.007   8.436 -0.4641  0.7114 -0.1078
 1736TIP3    H226768   2.694   1.930   8.540 -1.4850 -1.3861 -0.8316
 1737TIP3   OH226769   5.916   0.640   2.065  0.0663  0.1778  0.5578
 1737TIP3    H126770   5.830   0.614   2.032  0.2436  0.2249  0.0601
 1737TIP3    H226771   5.977   0.576   2.028  0.2942  0.3516  0.6298
 1738TIP3   OH226772   2.259   0.122   8.322 -0.2593 -0.1687  0.3217
 1738TIP3    H126773   2.234   0.094   8.234 -1.7973 -1.5526  1.1303
 1738TIP3    H226774   2.297   0.209   8.311 -1.8510  0.3372 -1.5103
 1739TIP3   OH226775   0.617   5.885   8.737 -0.4907 -0.4951  0.4009
 1739TIP3    H126776   0.689   5.845   8.689  0.8429 -1.3938  2.9338
 1739TIP3    H226777   0.651   5.971   8.762 -0.9187 -0.2916  0.2859
 1740TIP3   OH226778   1.285   4.007   1.311  0.3295 -0.2968  0.3634
 1740TIP3    H126779   1.212   4.061   1.340 -0.1102  0.1413 -1.4438
 1740TIP3    H226780   1.244   3.923   1.287  0.7177 -0.7388  1.2140
 1741TIP3   OH226781   4.022   6.151   1.786 -0.0654 -0.0162 -0.1108
 1741TIP3    H126782   3.989   6.138   1.875 -0.4000  1.1294 -0.0564
 1741TIP3    H226783   4.110   6.113   1.788 -1.0884 -2.5618 -0.0969
 1742TIP3   OH226784   4.333   2.684   0.277 -0.6720  0.0987  0.0792
 1742TIP3    H126785   4.332   2.634   0.359 -2.7398  0.9407  0.6390
 1742TIP3    H226786   4.351   2.774   0.304 -1.8347  0.4618 -0.3095
 1743TIP3   OH226787   3.659   3.133   2.554  0.2922 -0.5206 -0.4338
 1743TIP3    H126788   3.665   3.194   2.628 -1.4233 -2.1615  1.1521
 1743TIP3    H226789   3.570   3.142   2.522  0.1241 -1.8930 -0.4252
 1744TIP3   OH226790   1.598   1.416   2.104  0.1323  0.2293 -0.1905
 1744TIP3    H126791   1.659   1.344   2.121  1.3804  1.0103 -1.2035
 1744TIP3    H226792   1.584   1.455   2.190 -0.2121 -0.9392  0.3015
 1745TIP3   OH226793   1.957   2.750   1.412 -0.3635  0.0342 -0.2345
 1745TIP3    H126794   1.914   2.829   1.381 -0.5115  0.3951  0.8240
 1745TIP3    H226795   1.896   2.713   1.476 -0.0410 -0.6260 -0.2975
 1746TIP3   OH226796   1.992   4.878   0.100 -0.7232  0.1861  0.3016
 1746TIP3    H126797   2.004   4.877   0.194 -0.9182 -2.8791  0.3738
 1746TIP3    H226798   1.960   4.967   0.081 -0.4226  0.9595  3.0263
 1747TIP3   OH226799   5.398   2.693   2.626  0.4921  0.0548 -0.2125
 1747TIP3    H126800   5.374   2.600   2.622  1.3044 -0.2403  0.9553
 1747TIP3    H226801   5.433   2.704   2.715  1.8812  1.1072 -0.8577
 1748TIP3   OH226802   3.264   3.635   1.609  0.2647  0.1621 -0.0339
 1748TIP3    H126803   3.175   3.602   1.600  1.0747 -1.9167 -1.0157
 1748TIP3    H226804   3.265   3.716   1.559 -1.2464  0.6396  0.6487
 1749TIP3   OH226805   3.608   6.812   3.028 -0.1431 -0.1352  0.2301
 1749TIP3    H126806   3.640   6.739   3.081  1.0975  0.6774  0.6465
 1749TIP3    H226807   3.532   6.845   3.076  0.7829  0.3945  1.3885
 1750TIP3   OH226808   0.080   2.273   6.967 -0.0588 -0.7002  0.5154
 1750TIP3    H126809   0.140   2.319   6.907  1.6100 -1.7314  1.3195
 1750TIP3    H226810   0.117   2.288   7.054 -1.5468 -0.5583  1.1453
 1751TIP3   OH226811   3.049   4.741   1.342 -0.4024  0.4316 -0.2441
 1751TIP3    H126812   3.080   4.702   1.260  0.3590  1.9115 -0.7023
 1751TIP3    H226813   2.957   4.716   1.347 -0.5171  0.4609 -1.6602
 1752TIP3   OH226814   0.596   4.986   8.402  0.2629  0.3091 -0.3927
 1752TIP3    H126815   0.640   4.902   8.388 -1.1178 -0.3542 -0.9252
 1752TIP3    H226816   0.548   5.002   8.321 -1.5615  0.3141  0.6376
 1753TIP3   OH226817   4.040   5.325   8.019 -0.4003 -0.2245  0.0867
 1753TIP3    H126818   4.121   5.330   7.968  0.4162  0.4261  1.3725
 1753TIP3    H226819   3.973   5.300   7.956  0.1513  2.5457 -1.7688
 1754TIP3   OH226820   4.003   2.691   0.843 -0.3648  0.2495  0.1540
 1754TIP3    H126821   3.935   2.684   0.910 -0.8905 -0.6682 -0.4476
 1754TIP3    H226822   4.068   2.626   0.869 -0.6114 -0.1707 -0.2556
 1755TIP3   OH226823   0.934   1.407   1.151 -1.4047 -0.1935  0.0410
 1755TIP3    H126824   0.999   1.336   1.154 -2.8895 -1.5719  1.2268
 1755TIP3    H226825   0.969   1.468   1.085  1.2157 -0.7171  0.8090
 1756TIP3   OH226826   2.297   1.603   8.333  0.4789 -0.1331 -0.4010
 1756TIP3    H126827   2.335   1.599   8.421  2.3253  0.5972 -1.1244
 1756TIP3    H226828   2.206   1.576   8.345  0.8887 -0.7739  1.6094
 1757TIP3   OH226829   1.744   1.025   0.675  0.5448 -0.5157 -0.2556
 1757TIP3    H126830   1.812   0.985   0.729 -0.2424 -0.6569  0.6395
 1757TIP3    H226831   1.665   1.024   0.729  0.5014  2.3861 -0.1067
 1758TIP3   OH226832   3.557   5.489   7.980 -0.0415  0.5698  0.3366
 1758TIP3    H126833   3.609   5.411   8.002 -0.6283 -0.1924 -0.8248
 1758TIP3    H226834   3.474   5.453   7.949 -0.2154  1.6538 -0.5014
 1759TIP3   OH226835   3.746   1.185   1.688  0.3195 -0.9714 -0.4650
 1759TIP3    H126836   3.703   1.113   1.642  0.8872 -0.6777 -1.4685
 1759TIP3    H226837   3.673   1.242   1.715  0.0355 -0.3393 -2.3892
 1760TIP3   OH226838   5.247   0.210   7.142 -0.2234 -0.1116  0.2086
 1760TIP3    H126839   5.187   0.158   7.088 -0.2979  0.1075  0.0798
 1760TIP3    H226840   5.325   0.219   7.088  0.1202 -0.8079  0.5662
 1761TIP3   OH226841   6.382   4.938   1.848 -0.4200  0.4563 -0.3156
 1761TIP3    H126842   6.332   4.938   1.930  0.2175  0.8432  0.0828
 1761TIP3    H226843   6.315   4.943   1.779 -0.9959 -0.6200  0.1468
 1762TIP3   OH226844   0.779   2.350   0.020  0.2903 -0.3190 -0.2541
 1762TIP3    H126845   0.848   2.416   0.014 -1.0394  1.0478 -1.4140
 1762TIP3    H226846   0.825   2.268   0.036  2.1495  0.5975 -0.6388
 1763TIP3   OH226847   4.665   4.858   0.843  0.3069 -0.6713  0.1912
 1763TIP3    H126848   4.755   4.875   0.871  0.6997  0.6583 -1.7256
 1763TIP3    H226849   4.616   4.934   0.874  0.3439 -0.2030 -0.8663
 1764TIP3   OH226850   5.547   6.726   1.408 -0.6073  0.4085  0.2428
 1764TIP3    H126851   5.525   6.671   1.483 -2.6156  1.0526  0.1947
 1764TIP3    H226852   5.465   6.731   1.358  0.1507  1.6062 -0.9391
 1765TIP3   OH226853   5.097   1.395   2.648  0.8821  0.3134  0.1888
 1765TIP3    H126854   5.011   1.407   2.607  0.5979 -1.1347  0.2958
 1765TIP3    H226855   5.092   1.309   2.689  1.8791  0.8487  1.5162
 1766TIP3   OH226856   3.586   5.980   1.157 -0.4992 -0.1999  0.8320
 1766TIP3    H126857   3.673   6.013   1.137  0.2906 -2.0968  0.9539
 1766TIP3    H226858   3.570   5.912   1.092 -1.2549 -0.9149  1.7343
 1767TIP3   OH226859   5.339   1.111   0.857  0.6640 -0.4757  0.0275
 1767TIP3    H126860   5.363   1.203   0.868 -2.0098  0.4207 -1.0012
 1767TIP3    H226861   5.383   1.084   0.776  0.4473  0.2544 -0.3310
 1768TIP3   OH226862   2.999   5.950   8.168 -0.2229 -0.4207  0.5490
 1768TIP3    H126863   3.079   6.002   8.167 -0.0638 -0.6354  1.3821
 1768TIP3    H226864   3.002   5.903   8.251  0.0430 -2.3655 -0.4847
 1769TIP3   OH226865   6.191   0.774   0.433 -0.3647 -0.6716  0.5975
 1769TIP3    H126866   6.200   0.689   0.389  0.5000 -0.3851  0.1962
 1769TIP3    H226867   6.275   0.787   0.477  0.4063  1.0132 -1.2265
 1770TIP3   OH226868   1.250   1.465   8.069 -0.3231 -0.1248 -0.5741
 1770TIP3    H126869   1.260   1.560   8.081 -0.2179 -0.0472 -1.2436
 1770TIP3    H226870   1.161   1.454   8.038 -0.2738 -0.2272 -0.6809
 1771TIP3   OH226871   1.225   1.293   0.989  0.0741 -0.1718 -0.0408
 1771TIP3    H126872   1.276   1.373   1.002  0.0373 -0.2118  0.3750
 1771TIP3    H226873   1.243   1.241   1.068 -1.2570  0.1625  0.5062
 1772TIP3   OH226874   4.192   2.673   1.664 -0.4346 -0.0959  0.0314
 1772TIP3    H126875   4.129   2.710   1.726 -0.6373  0.0676 -0.2689
 1772TIP3    H226876   4.138   2.630   1.598 -0.2374  0.2865 -0.3795
 1773TIP3   OH226877   5.767   3.443   8.299 -0.3968  0.6812  0.1841
 1773TIP3    H126878   5.832   3.415   8.363 -1.1769  0.3139  0.8324
 1773TIP3    H226879   5.805   3.419   8.214 -0.2478 -0.7471  0.6258
 1774TIP3   OH226880   4.095   1.203   2.699 -0.6901  0.3807 -0.2613
 1774TIP3    H126881   4.017   1.248   2.732  0.0381 -0.0605  2.3139
 1774TIP3    H226882   4.167   1.240   2.750  0.0764 -2.8970  1.3151
 1775TIP3   OH226883   0.309   6.336   1.599 -0.2396 -0.2258 -0.1995
 1775TIP3    H126884   0.252   6.259   1.594 -0.0437 -0.6356  2.4035
 1775TIP3    H226885   0.397   6.299   1.605 -0.1951  0.1149  1.7774
 1776TIP3   OH226886   2.017   4.519   2.057 -0.5518  0.2176  0.4459
 1776TIP3    H126887   2.099   4.565   2.077  0.8465 -2.0192  0.1872
 1776TIP3    H226888   1.995   4.471   2.137 -2.1708  1.4886  0.8229
 1777TIP3   OH226889   6.619   4.458   7.232  0.1771  0.3856  0.0378
 1777TIP3    H126890   6.587   4.474   7.321  1.4052  0.1438  0.5382
 1777TIP3    H226891   6.542   4.428   7.184  0.0171 -2.1533  1.7099
 1778TIP3   OH226892   3.667   4.216   2.244 -0.6317 -0.0772  0.7699
 1778TIP3    H126893   3.725   4.250   2.313  1.7092 -2.0595 -0.0659
 1778TIP3    H226894   3.634   4.134   2.280  1.0787 -1.4276 -0.5865
 1779TIP3   OH226895   5.341   0.445   2.308 -0.4319 -0.0737  0.6727
 1779TIP3    H126896   5.288   0.367   2.293 -1.2784  0.3278  1.4729
 1779TIP3    H226897   5.277   0.516   2.315  0.3702  0.8713 -0.9761
 1780TIP3   OH226898   1.384   5.177   7.977 -0.0748  0.1214  0.6954
 1780TIP3    H126899   1.313   5.238   7.994  0.6109  0.8732  0.9129
 1780TIP3    H226900   1.351   5.122   7.905 -0.0201  1.9537 -0.8265
 1781TIP3   OH226901   5.308   0.857   1.862 -0.7873  0.2083  0.5367
 1781TIP3    H126902   5.276   0.778   1.819  0.7458 -0.5386  0.6993
 1781TIP3    H226903   5.257   0.863   1.943 -1.0125 -0.5398  0.4562
 1782TIP3   OH226904   6.239   0.553   0.297 -0.2602  0.2349 -0.0938
 1782TIP3    H126905   6.149   0.562   0.263 -0.6735 -1.7253  0.3655
 1782TIP3    H226906   6.294   0.572   0.221 -1.1145 -0.4070 -0.9114
 1783TIP3   OH226907   5.442   0.278   7.797  0.0786 -0.6020  0.0843
 1783TIP3    H126908   5.452   0.295   7.704  3.9345  0.9104  0.6188
 1783TIP3    H226909   5.462   0.185   7.807 -3.1291 -1.5372 -0.7391
 1784TIP3   OH226910   5.612   1.032   0.148 -0.8155 -0.1084 -0.1833
 1784TIP3    H126911   5.608   0.944   0.186  0.6993  0.3374  1.1138
 1784TIP3    H226912   5.663   1.021   0.068  0.0565 -0.3197  0.3804
 1785TIP3   OH226913   2.243   5.402   1.387  0.1304 -0.0404 -0.3676
 1785TIP3    H126914   2.316   5.423   1.446 -0.2642 -1.0411  0.5219
 1785TIP3    H226915   2.209   5.487   1.360  0.6488  0.4446  0.4469
 1786TIP3   OH226916   2.430   5.754   0.421  0.4298  0.7266 -0.1799
 1786TIP3    H126917   2.382   5.702   0.485 -0.0152  1.6454  0.2443
 1786TIP3    H226918   2.364   5.784   0.359  0.7245  0.5678 -0.5754
 1787TIP3   OH226919   0.899   4.753   7.958  0.3579  0.3846 -0.8767
 1787TIP3    H126920   0.924   4.664   7.934 -0.9555 -0.1711 -0.2801
 1787TIP3    H226921   0.934   4.807   7.888  3.6288 -0.2254  0.1458
 1788TIP3   OH226922   6.316   2.488   0.399 -0.5308 -0.0877  0.6294
 1788TIP3    H126923   6.344   2.453   0.315 -1.1000  1.7069 -0.3578
 1788TIP3    H226924   6.390   2.472   0.458  0.3898 -0.2115 -0.5336
 1789TIP3   OH226925   3.883   3.767   8.590  0.0033  0.4240  0.3899
 1789TIP3    H126926   3.874   3.860   8.611 -0.1679  1.0349 -2.0684
 1789TIP3    H226927   3.793   3.733   8.594  0.0136  0.4365  0.8723
 1790TIP3   OH226928   1.986   2.566   1.983 -0.5144  0.0412 -0.1759
 1790TIP3    H126929   2.063   2.593   2.033 -0.3889  1.7985 -1.2474
 1790TIP3    H226930   2.018   2.551   1.894 -1.1352 -0.8160 -0.2690
 1791TIP3   OH226931   6.531   0.042   3.570  0.0490  0.5334  0.6099
 1791TIP3    H126932   6.489   0.095   3.502  2.0689  1.1073 -0.2502
 1791TIP3    H226933   6.512  -0.048   3.546 -0.1992  0.7618 -0.0611
 1792TIP3   OH226934   2.535   5.206   8.439 -0.0226 -0.5636  0.0629
 1792TIP3    H126935   2.479   5.280   8.413  0.0673 -0.8805 -1.0816
 1792TIP3    H226936   2.488   5.129   8.408  0.0015 -0.9857  1.0498
 1793TIP3   OH226937   3.433   3.017   2.403  0.0945  0.3219 -0.2172
 1793TIP3    H126938   3.369   3.088   2.404 -0.5303 -0.2304  0.8558
 1793TIP3    H226939   3.410   2.963   2.479  2.3668  0.5718  0.7250
 1794TIP3   OH226940   4.542   4.976   7.155  0.6871 -0.1901  0.2959
 1794TIP3    H126941   4.472   5.041   7.167  0.7217 -0.0230 -0.3587
 1794TIP3    H226942   4.623   5.028   7.156  0.9096 -0.5050  2.1759
 1795TIP3   OH226943   5.747   6.777   8.362  0.1603 -0.1486 -0.0416
 1795TIP3    H126944   5.840   6.767   8.339  0.4488 -0.8532  1.3065
 1795TIP3    H226945   5.743   6.861   8.407  0.6286 -1.1487  1.9749
 1796TIP3   OH226946   2.308   5.726   1.771 -0.2931 -0.0813  0.1323
 1796TIP3    H126947   2.393   5.769   1.761 -0.0025 -0.7188 -0.2465
 1796TIP3    H226948   2.325   5.635   1.747 -0.3613 -0.9885  3.1156
 1797TIP3   OH226949   1.895   3.200   8.652  0.2340 -0.0028  0.2635
 1797TIP3    H126950   1.825   3.262   8.632 -0.4630 -0.7797  0.2966
 1797TIP3    H226951   1.888   3.185   8.746  1.1205  0.7242  0.4624
 1798TIP3   OH226952   4.956   0.241   0.081  0.2907 -0.3160  0.0529
 1798TIP3    H126953   4.884   0.238   0.143  1.8607 -0.0502  1.9822
 1798TIP3    H226954   4.986   0.150   0.074 -0.3212 -0.4635 -0.9197
 1799TIP3   OH226955   4.577   4.162   0.286  0.3085 -0.4445 -0.0784
 1799TIP3    H126956   4.666   4.193   0.272 -0.0385  0.1237 -1.0587
 1799TIP3    H226957   4.540   4.153   0.198 -1.0487  0.6528  0.3567
 1800TIP3   OH226958   2.427   1.584   1.132  0.5829  0.4189  0.4261
 1800TIP3    H126959   2.336   1.561   1.148  1.2358 -1.0336  2.4321
 1800TIP3    H226960   2.467   1.504   1.097  0.4881  1.9186 -3.5828
 1801TIP3   OH226961   1.999   1.696   7.412 -0.3410 -0.5041 -0.2889
 1801TIP3    H126962   2.069   1.726   7.355  0.6513 -1.4296  0.3901
 1801TIP3    H226963   1.980   1.606   7.382  0.7640 -1.3106  1.2964
 1802TIP3   OH226964   6.403   3.194   1.445  0.1263 -0.0891 -0.0233
 1802TIP3    H126965   6.316   3.155   1.444  0.4504 -0.9525 -2.6371
 1802TIP3    H226966   6.449   3.148   1.515 -1.1627 -0.4139  0.6383
 1803TIP3   OH226967   5.850   5.761   3.272  0.1448 -0.3087 -0.4010
 1803TIP3    H126968   5.777   5.789   3.328  1.8377  0.0337  1.7703
 1803TIP3    H226969   5.813   5.694   3.215 -1.3611 -1.8563  2.2244
 1804TIP3   OH226970   5.919   4.541   2.062  0.2001  0.6543 -0.2304
 1804TIP3    H126971   5.906   4.543   1.967  0.6545 -0.7434 -0.3420
 1804TIP3    H226972   5.913   4.633   2.089 -1.4137  0.9449 -1.4003
 1805TIP3   OH226973   4.769   6.110   7.370  0.9125  0.0595 -0.6718
 1805TIP3    H126974   4.713   6.101   7.293  1.8326  1.4849 -1.5520
 1805TIP3    H226975   4.858   6.095   7.337  1.2078 -0.6546  0.3956
 1806TIP3   OH226976   5.967   4.326   8.226 -0.3241  0.3537 -0.4583
 1806TIP3    H126977   5.934   4.237   8.226  0.3747  0.0895 -0.6805
 1806TIP3    H226978   6.061   4.317   8.243 -0.3306  1.0749  0.0059
 1807TIP3   OH226979   5.487   6.807   7.597 -0.3034  0.0387  0.4763
 1807TIP3    H126980   5.460   6.808   7.505 -0.6689  0.2308  0.5839
 1807TIP3    H226981   5.519   6.718   7.611 -0.5644 -0.0945  0.2528
 1808TIP3   OH226982   0.642   2.226   2.000  0.6372  0.3180 -0.2198
 1808TIP3    H126983   0.572   2.168   1.970  0.1832  0.7907 -0.1056
 1808TIP3    H226984   0.714   2.168   2.022 -0.1108 -0.2926  0.7439
 1809TIP3   OH226985   3.157   1.052   7.503  0.1200  0.4358 -0.0860
 1809TIP3    H126986   3.105   1.121   7.460  0.8018  2.1046  1.6263
 1809TIP3    H226987   3.247   1.072   7.479  0.1998 -1.1362 -1.2338
 1810TIP3   OH226988   6.796   0.452   7.841 -0.0306 -0.5669 -0.3900
 1810TIP3    H126989   6.813   0.446   7.747  1.1016 -0.5731 -0.1923
 1810TIP3    H226990   6.864   0.511   7.874 -2.3232  2.1692 -0.0714
 1811TIP3   OH226991   4.595   2.004   0.107  0.0017 -0.0957 -0.1851
 1811TIP3    H126992   4.635   1.917   0.109 -1.1548 -0.6626 -0.8659
 1811TIP3    H226993   4.669   2.064   0.101  0.8427 -0.9969  0.7257
 1812TIP3   OH226994   5.504   1.244   1.153  0.1845 -0.5546 -0.0972
 1812TIP3    H126995   5.519   1.302   1.227 -2.8826 -0.4550  0.5872
 1812TIP3    H226996   5.474   1.162   1.192 -0.1149 -0.9846 -1.1742
 1813TIP3   OH226997   2.158   1.759   0.722  0.9664 -0.0004  0.3497
 1813TIP3    H126998   2.074   1.803   0.733  0.9643 -0.0306  0.4592
 1813TIP3    H226999   2.170   1.753   0.627 -0.0143 -1.6092  0.2912
 1814TIP3   OH227000   4.846   4.636   7.781  0.1190  0.1335 -0.4218
 1814TIP3    H127001   4.772   4.576   7.790  0.3378  0.0265  0.8595
 1814TIP3    H227002   4.821   4.695   7.710 -1.1686  0.0464 -0.0589
 1815TIP3   OH227003   1.691   3.155   1.727 -0.4721 -0.3516 -0.4407
 1815TIP3    H127004   1.618   3.156   1.788 -0.9642 -0.9052 -1.0029
 1815TIP3    H227005   1.707   3.247   1.706 -1.4821 -0.2577 -0.8629
 1816TIP3   OH227006   0.045   2.923   8.555  0.0738 -0.0298  0.1078
 1816TIP3    H127007   0.129   2.959   8.582  0.1064  0.5679 -0.7324
 1816TIP3    H227008   0.064   2.833   8.528  0.2262 -0.2759  0.9882
 1817TIP3   OH227009   0.419   6.786   2.570 -0.2997 -0.2474 -0.3130
 1817TIP3    H127010   0.440   6.710   2.516 -0.2812 -0.0678 -0.5603
 1817TIP3    H227011   0.370   6.749   2.644  0.4302 -0.5989 -0.0015
 1818TIP3   OH227012   5.442   5.379   8.537  0.3826 -0.5405  0.5315
 1818TIP3    H127013   5.402   5.450   8.587 -0.7973 -2.1032  1.9220
 1818TIP3    H227014   5.465   5.419   8.453 -1.0229  1.2631  0.9355
 1819TIP3   OH227015   4.623   3.528   7.873  1.4975  0.4635  0.5714
 1819TIP3    H127016   4.710   3.534   7.913  0.6786 -0.5256  2.6924
 1819TIP3    H227017   4.566   3.573   7.935  0.6955  2.9787 -1.7874
 1820TIP3   OH227018   3.507   6.234   8.515  1.0570  0.7964 -0.1752
 1820TIP3    H127019   3.552   6.219   8.598  0.2972 -0.2997  0.0710
 1820TIP3    H227020   3.414   6.232   8.538  0.7793  4.4243 -0.4343
 1821TIP3   OH227021   5.564   6.510   1.619 -0.8001 -0.3174  0.3516
 1821TIP3    H127022   5.603   6.466   1.544 -1.4446  0.0119 -0.1830
 1821TIP3    H227023   5.470   6.496   1.609 -1.0944  1.7882 -0.2303
 1822TIP3   OH227024   5.609   6.527   0.737  0.1862  0.3413 -0.3673
 1822TIP3    H127025   5.654   6.478   0.805 -0.7887 -0.9914 -0.6468
 1822TIP3    H227026   5.674   6.590   0.706  0.3850  1.6295  2.3987
 1823TIP3   OH227027   0.882   4.921   2.240 -0.2250 -0.0381 -0.5224
 1823TIP3    H127028   0.828   4.999   2.253 -0.1585 -0.1317  0.3648
 1823TIP3    H227029   0.830   4.865   2.183  0.1651  1.0941 -2.0506
 1824TIP3   OH227030   2.695   5.119   1.901 -0.0625 -0.4482  0.2154
 1824TIP3    H127031   2.673   5.027   1.886 -1.1223 -0.0646 -0.6945
 1824TIP3    H227032   2.774   5.133   1.849 -0.8777 -0.4186 -1.0496
 1825TIP3   OH227033   1.134   3.566   2.110  0.0738  0.5422 -0.2741
 1825TIP3    H127034   1.107   3.650   2.149  2.9360  1.9200 -0.9723
 1825TIP3    H227035   1.079   3.557   2.032 -3.8554 -0.9246  2.3542
 1826TIP3   OH227036   4.323   6.047   8.098  0.6485 -0.1022  0.0887
 1826TIP3    H127037   4.301   6.080   8.011 -0.5073  0.3741  0.5384
 1826TIP3    H227038   4.311   5.952   8.092 -1.2640  0.0867  0.1889
 1827TIP3   OH227039   2.146   4.179   1.290  0.3449  0.0100 -0.1822
 1827TIP3    H127040   2.114   4.171   1.380  0.0742  0.8370 -0.2040
 1827TIP3    H227041   2.067   4.173   1.236  0.4887 -0.3116 -0.3603
 1828TIP3   OH227042   4.711   3.064   7.871  0.0523  0.4389 -0.3272
 1828TIP3    H127043   4.637   3.111   7.832  1.5193  1.7162 -1.7004
 1828TIP3    H227044   4.782   3.129   7.873  0.7433 -0.2968  2.3409
 1829TIP3   OH227045   1.489   2.847   2.450  0.8463  0.2551  0.3422
 1829TIP3    H127046   1.418   2.900   2.414  0.6573  1.0712  1.8781
 1829TIP3    H227047   1.478   2.852   2.545  3.0545  0.5607  0.6281
 1830TIP3   OH227048   0.429   6.019   1.162  0.2979  0.1960  0.0957
 1830TIP3    H127049   0.363   6.088   1.171  0.3545  0.3663 -0.6827
 1830TIP3    H227050   0.512   6.066   1.150  0.3323 -0.0040 -0.4723
 1831TIP3   OH227051   5.674   2.294   7.412  0.9888 -0.2435 -0.0125
 1831TIP3    H127052   5.609   2.338   7.466 -2.9424 -2.8101 -2.1763
 1831TIP3    H227053   5.682   2.206   7.449  2.1750 -0.4335 -0.6603
 1832TIP3   OH227054   0.610   2.457   3.231 -0.3966 -0.3717 -0.1096
 1832TIP3    H127055   0.616   2.368   3.267  0.8830 -0.8378 -1.3554
 1832TIP3    H227056   0.534   2.455   3.173  1.8659 -1.9844 -3.3258
 1833TIP3   OH227057   6.621   2.098   2.662  0.1991 -0.0494 -0.0067
 1833TIP3    H127058   6.696   2.039   2.675  0.5025  0.2895 -0.2137
 1833TIP3    H227059   6.657   2.185   2.675 -0.3832  0.0595  0.8749
 1834TIP3   OH227060   0.247   0.428   8.160 -0.2664 -0.0496 -0.6495
 1834TIP3    H127061   0.198   0.511   8.157  0.9297  0.7115  0.0225
 1834TIP3    H227062   0.338   0.454   8.145  0.1944 -1.1914  0.0762
 1835TIP3   OH227063   0.885   2.516   1.266 -0.2244 -0.0914 -0.4216
 1835TIP3    H127064   0.809   2.463   1.242  0.2077 -1.1592  0.4841
 1835TIP3    H227065   0.848   2.591   1.312 -0.7415 -0.5040 -0.1529
 1836TIP3   OH227066   4.185   3.554   8.294  0.0830  0.2347 -0.2828
 1836TIP3    H127067   4.117   3.486   8.293  0.4472 -0.1660  0.8688
 1836TIP3    H227068   4.161   3.610   8.368  0.1793  0.9652 -0.7979
 1837TIP3   OH227069   2.249   3.380   2.244  0.0021 -0.1320 -0.2639
 1837TIP3    H127070   2.167   3.346   2.211 -0.1885 -0.1867  0.2538
 1837TIP3    H227071   2.309   3.377   2.169 -0.0971 -1.3016 -0.3235
 1838TIP3   OH227072   1.483   0.746   2.428 -0.7239 -0.2981 -0.4244
 1838TIP3    H127073   1.462   0.838   2.412 -0.1851 -0.1861 -0.5104
 1838TIP3    H227074   1.403   0.699   2.407 -1.4439  0.2687  0.9124
 1839TIP3   OH227075   0.544   1.733   1.164  0.3505  0.3560 -0.1679
 1839TIP3    H127076   0.474   1.797   1.178 -1.8324 -2.2358  2.0433
 1839TIP3    H227077   0.599   1.739   1.242 -0.0256 -0.5550  0.1890
 1840TIP3   OH227078   1.917   4.914   0.544  0.7203  0.8315  0.5688
 1840TIP3    H127079   1.903   5.000   0.505  0.0291  1.5738  2.3248
 1840TIP3    H227080   1.833   4.870   0.538  1.0723  0.2437 -0.3265
 1841TIP3   OH227081   1.169   0.985   8.514  0.2463  0.3619 -0.4387
 1841TIP3    H127082   1.232   0.913   8.511  0.7286  0.7315  0.3309
 1841TIP3    H227083   1.086   0.946   8.487  0.1828 -0.8250  1.3357
 1842TIP3   OH227084   0.022   2.994   7.755  0.3387 -0.2651  0.2254
 1842TIP3    H127085   0.071   3.031   7.828  0.5402  1.0097 -0.5140
 1842TIP3    H227086   0.033   2.900   7.763  0.0843 -0.1799  2.0212
 1843TIP3   OH227087   3.760   4.178   8.119  0.3113  0.0547 -0.0089
 1843TIP3    H127088   3.722   4.214   8.039 -2.0590 -1.6500  0.2168
 1843TIP3    H227089   3.792   4.091   8.093  0.4628 -0.0997  0.6719
 1844TIP3   OH227090   4.225   3.391   7.745 -0.1032 -0.3852  0.3698
 1844TIP3    H127091   4.289   3.453   7.709 -0.3823 -0.6925 -0.7233
 1844TIP3    H227092   4.250   3.307   7.706 -1.2958 -0.4682 -0.2584
 1845TIP3   OH227093   5.407   4.351   1.882 -0.1035  0.1711 -0.2536
 1845TIP3    H127094   5.423   4.257   1.876  0.5152  0.2575 -0.0823
 1845TIP3    H227095   5.313   4.359   1.899 -0.1227 -0.4233 -0.0557
 1846TIP3   OH227096   6.465   6.049   2.094 -0.1586  0.1407 -0.3512
 1846TIP3    H127097   6.522   6.121   2.122 -0.4948 -0.0200  0.7672
 1846TIP3    H227098   6.480   5.979   2.157  0.4751 -0.9581 -1.6582
 1847TIP3   OH227099   3.740   5.261   0.404  0.5471  0.4821  0.0543
 1847TIP3    H127100   3.781   5.340   0.440  0.3320  0.4188  0.4453
 1847TIP3    H227101   3.653   5.259   0.445  0.9262 -0.5081  0.8350
 1848TIP3   OH227102   0.646   2.455   0.952 -0.2306 -0.7425 -0.5926
 1848TIP3    H127103   0.650   2.459   0.857  0.5023  0.0498 -0.5490
 1848TIP3    H227104   0.663   2.546   0.980 -0.8946 -0.8727  0.2744
 1849TIP3   OH227105   3.308   3.011   8.746 -0.1347 -0.4073  0.6065
 1849TIP3    H127106   3.296   3.095   8.702 -1.1493 -0.3576  0.9577
 1849TIP3    H227107   3.332   2.950   8.676  1.0362  0.2561  0.4117
 1850TIP3   OH227108   3.323   3.770   8.336  0.7850 -0.6851 -0.7972
 1850TIP3    H127109   3.391   3.815   8.286  2.1216 -2.7119 -0.9145
 1850TIP3    H227110   3.370   3.703   8.386 -0.6852  0.1793  1.9863
 1851TIP3   OH227111   0.321   4.685   8.295  0.0737 -0.1905  0.6136
 1851TIP3    H127112   0.331   4.643   8.210 -2.4604  0.5556 -0.1612
 1851TIP3    H227113   0.343   4.777   8.280  1.8338 -0.4468  1.3703
 1852TIP3   OH227114   6.322   2.901   8.008 -1.2283 -0.4207 -0.0916
 1852TIP3    H127115   6.347   2.881   7.918 -0.4640 -2.0725  0.4502
 1852TIP3    H227116   6.226   2.901   8.007 -1.2430  0.6948 -1.1071
 1853TIP3   OH227117   3.079   6.812   2.059  0.3794  0.3945  0.2465
 1853TIP3    H127118   3.102   6.836   1.969 -0.0797  1.8056  0.4797
 1853TIP3    H227119   3.137   6.739   2.080 -0.4921 -0.9427 -1.6806
 1854TIP3   OH227120   1.382   4.000   8.213  0.0762  0.3239  0.1854
 1854TIP3    H127121   1.430   4.023   8.293  0.8708  1.7876 -0.6572
 1854TIP3    H227122   1.450   3.969   8.153 -0.3408  0.3745 -0.3117
 1855TIP3   OH227123   5.876   3.476   2.183 -0.1704 -0.7544  0.3773
 1855TIP3    H127124   5.782   3.476   2.198 -0.0091  0.4653  1.5815
 1855TIP3    H227125   5.905   3.389   2.210 -0.8285 -0.8035  0.9579
 1856TIP3   OH227126   6.405   2.602   2.403 -0.4623 -0.5001  0.4513
 1856TIP3    H127127   6.442   2.642   2.325  1.6409 -0.6749  1.2790
 1856TIP3    H227128   6.455   2.522   2.415 -0.8132 -0.5361  1.9002
 1857TIP3   OH227129   6.375   4.285   1.996  0.3114 -0.0575 -0.0055
 1857TIP3    H127130   6.455   4.335   1.982  0.5693  0.0068  1.5139
 1857TIP3    H227131   6.311   4.324   1.937  1.5223 -0.4478 -1.6292
 1858TIP3   OH227132   5.069   5.939   1.970  0.3224  0.1866 -0.5632
 1858TIP3    H127133   4.992   5.940   1.914 -1.4956  0.4523  1.7791
 1858TIP3    H227134   5.071   5.851   2.007  1.1048  0.2134 -0.5318
 1859TIP3   OH227135   4.944   0.569   8.686 -0.3828 -0.1737 -0.5890
 1859TIP3    H127136   4.880   0.633   8.655 -0.0662  0.9744  1.0020
 1859TIP3    H227137   4.921   0.554   8.778  3.4304  2.8329  1.1432
 1860TIP3   OH227138   0.780   6.024   2.978  0.4198  0.1654 -0.4775
 1860TIP3    H127139   0.722   6.067   2.916 -0.0461  0.4415  0.1369
 1860TIP3    H227140   0.815   6.095   3.032 -2.7932 -0.3397  2.6408
 1861TIP3   OH227141   5.142   2.817   2.577  0.0174 -0.2204 -0.2294
 1861TIP3    H127142   5.232   2.783   2.577  0.3441  0.6168  0.2021
 1861TIP3    H227143   5.151   2.910   2.555 -0.3480  0.7240  3.0338
 1862TIP3   OH227144   3.222   3.223   2.501 -0.2313 -0.3675 -0.2135
 1862TIP3    H127145   3.305   3.218   2.548 -0.7569  0.8135  0.8982
 1862TIP3    H227146   3.232   3.298   2.442 -1.2839  1.3414  1.6475
 1863TIP3   OH227147   3.566   5.477   8.357 -0.3287 -0.0246  0.0727
 1863TIP3    H127148   3.529   5.558   8.321 -0.5600 -0.9331 -1.9137
 1863TIP3    H227149   3.660   5.486   8.345 -0.3751 -0.1439 -0.4344
 1864TIP3   OH227150   6.485   1.275   7.970  0.5934  0.2312 -0.5844
 1864TIP3    H127151   6.536   1.345   8.012  0.9694  0.3076 -1.1485
 1864TIP3    H227152   6.437   1.234   8.041  2.7139 -0.9246  0.2613
 1865TIP3   OH227153   3.756   2.229   0.424 -0.0442  0.0219 -0.0242
 1865TIP3    H127154   3.782   2.244   0.515  0.8321 -0.8357 -0.1178
 1865TIP3    H227155   3.814   2.159   0.393  1.3767  1.9288 -1.9920
 1866TIP3   OH227156   1.992   4.657   0.605 -0.0239 -0.2467  0.3961
 1866TIP3    H127157   1.983   4.752   0.605 -2.8486 -0.4274  0.5849
 1866TIP3    H227158   1.986   4.632   0.513  2.0749 -0.2406  0.1922
 1867TIP3   OH227159   3.934   3.967   8.045 -0.6219 -0.5658 -0.4175
 1867TIP3    H127160   4.020   4.007   8.056 -0.4875 -0.8788 -0.3324
 1867TIP3    H227161   3.943   3.915   7.965 -0.5895 -0.9804 -0.1434
 1868TIP3   OH227162   3.726   1.704   7.763 -0.1064 -0.6511  0.1527
 1868TIP3    H127163   3.790   1.744   7.704  0.7138 -1.0587  0.7459
 1868TIP3    H227164   3.763   1.619   7.785 -0.2801 -0.4277  1.4148
 1869TIP3   OH227165   2.129   0.551   0.709 -0.0536 -0.0584 -0.2292
 1869TIP3    H127166   2.213   0.527   0.749  0.1178  0.7988 -0.0583
 1869TIP3    H227167   2.064   0.497   0.755  0.3290 -0.2661  0.0755
 1870TIP3   OH227168   1.223   3.759   1.813 -0.0698 -0.1975 -0.0555
 1870TIP3    H127169   1.227   3.825   1.744 -0.0910  1.2506  1.2686
 1870TIP3    H227170   1.314   3.747   1.840 -0.1167 -0.3579  0.0332
 1871TIP3   OH227171   3.257   1.771   8.550 -0.3475  0.8823 -0.4203
 1871TIP3    H127172   3.258   1.681   8.582  1.3384  0.5290 -1.3619
 1871TIP3    H227173   3.167   1.801   8.564 -0.3946 -0.1449  2.0571
 1872TIP3   OH227174   6.253   1.195   8.167 -0.0976 -0.2828  0.2450
 1872TIP3    H127175   6.168   1.161   8.197  0.1420 -0.9531  0.1957
 1872TIP3    H227176   6.244   1.290   8.173 -0.7698 -0.3494  0.4702
 1873TIP3   OH227177   4.913   0.528   0.199  0.0866 -0.1031 -0.0672
 1873TIP3    H127178   4.975   0.523   0.272 -2.2749  0.2650  2.1193
 1873TIP3    H227179   4.849   0.459   0.217 -0.7497  0.2270 -1.6295
 1874TIP3   OH227180   2.534   4.228   7.271 -0.1598  0.2951  0.0190
 1874TIP3    H127181   2.602   4.282   7.312  0.7461 -0.7172 -0.1105
 1874TIP3    H227182   2.520   4.155   7.331  0.0353 -0.3585 -0.7080
 1875TIP3   OH227183   4.707   2.505   8.033 -0.5586  0.1511  0.1321
 1875TIP3    H127184   4.726   2.467   7.947 -2.0621 -0.7544  0.1657
 1875TIP3    H227185   4.732   2.437   8.095 -1.4827 -0.0581  0.2895
 1876TIP3   OH227186   2.078   4.361   2.334 -0.1662  0.0483  0.4433
 1876TIP3    H127187   2.160   4.409   2.324 -0.0673 -0.1744  0.1745
 1876TIP3    H227188   2.104   4.277   2.371 -0.4520  0.5944  1.9383
 1877TIP3   OH227189   0.909   1.241   1.720 -0.5181 -0.4936  0.3360
 1877TIP3    H127190   0.930   1.171   1.781 -2.8822 -1.5076  0.1006
 1877TIP3    H227191   0.917   1.200   1.633 -2.2137 -0.6258  0.2095
 1878TIP3   OH227192   3.291   5.604   8.685  0.6610 -0.2142  0.0430
 1878TIP3    H127193   3.301   5.509   8.691 -0.9537 -0.5782 -2.0027
 1878TIP3    H227194   3.369   5.633   8.637  1.2295 -0.4681  0.7966
 1879TIP3   OH227195   4.827   5.125   1.606  0.7683 -0.8132 -0.1343
 1879TIP3    H127196   4.789   5.103   1.691 -0.2123  0.1050 -0.3220
 1879TIP3    H227197   4.845   5.040   1.565  2.4750 -1.3112  1.4854
 1880TIP3   OH227198   3.068   2.440   1.434 -0.7018  0.3957 -0.5343
 1880TIP3    H127199   3.150   2.411   1.392 -0.6810  0.6827 -0.6982
 1880TIP3    H227200   3.015   2.361   1.440  0.1896 -0.1238  0.9981
 1881TIP3   OH227201   4.303   3.030   2.557  0.1455 -0.1155 -0.3078
 1881TIP3    H127202   4.334   3.056   2.643 -0.0742 -0.1624 -0.2141
 1881TIP3    H227203   4.322   3.105   2.501 -0.9846  0.4769  0.0728
 1882TIP3   OH227204   3.591   3.968   8.372  0.3705  0.1531  0.0941
 1882TIP3    H127205   3.602   3.928   8.459 -0.0383  0.4795  0.3026
 1882TIP3    H227206   3.636   4.052   8.379  0.8063 -0.0490 -0.1898
 1883TIP3   OH227207   4.096   1.255   1.348  0.5643  0.0725 -0.0625
 1883TIP3    H127208   4.074   1.338   1.305  2.7116  1.5525  1.5455
 1883TIP3    H227209   4.050   1.258   1.432  0.3715 -0.5687 -0.1328
 1884TIP3   OH227210   5.579   3.545   0.559  0.6383 -0.2352  0.1346
 1884TIP3    H127211   5.522   3.470   0.576  0.9290 -0.4156  0.3325
 1884TIP3    H227212   5.633   3.552   0.638  1.6524 -0.7570 -0.4965
 1885TIP3   OH227213   6.389   5.399   0.455 -0.5521 -0.2518 -0.5084
 1885TIP3    H127214   6.364   5.322   0.507  3.0946 -0.6224  0.9543
 1885TIP3    H227215   6.307   5.447   0.443 -2.7086 -3.5152 -0.1355
 1886TIP3   OH227216   5.445   1.148   7.428 -0.5728  0.2487  0.1510
 1886TIP3    H127217   5.484   1.173   7.344  2.3750 -0.1968  1.2725
 1886TIP3    H227218   5.405   1.229   7.461  0.7533  1.1650 -0.4105
 1887TIP3   OH227219   4.489   0.393   8.690 -0.9700  0.4568 -0.8514
 1887TIP3    H127220   4.454   0.481   8.675 -0.2947  0.5209 -2.1977
 1887TIP3    H227221   4.568   0.389   8.636  2.2898  0.9648  3.2901
 1888TIP3   OH227222   3.203   3.540   2.516 -0.2149  0.4443 -0.3526
 1888TIP3    H127223   3.175   3.487   2.590  1.2093  0.0624 -0.0467
 1888TIP3    H227224   3.286   3.579   2.544 -0.5185  1.6981 -1.1089
 1889TIP3   OH227225   3.123   4.838   0.030  0.0023  0.1642  0.0069
 1889TIP3    H127226   3.119   4.934   0.034 -0.9191  0.1413 -0.1408
 1889TIP3    H227227   3.105   4.817  -0.062 -0.8670 -0.1849  0.2452
 1890TIP3   OH227228   5.280   3.250   3.299  0.4505  0.2296 -0.5441
 1890TIP3    H127229   5.208   3.215   3.247  0.3821 -1.2754  0.4937
 1890TIP3    H227230   5.239   3.279   3.380  0.7078  1.5446 -0.8649
 1891TIP3   OH227231   0.745   2.716   1.687 -0.3948  0.1826 -0.4533
 1891TIP3    H127232   0.803   2.675   1.623  1.2276 -0.6195  1.4086
 1891TIP3    H227233   0.696   2.643   1.725 -0.9990  0.5814 -0.4639
 1892TIP3   OH227234   5.403   1.533   7.957 -0.5738 -0.3278 -0.3143
 1892TIP3    H127235   5.432   1.572   8.039 -1.3497  2.2102 -1.1488
 1892TIP3    H227236   5.481   1.533   7.901 -1.0195  2.3231 -1.0662
 1893TIP3   OH227237   6.795   3.062   0.372  0.8055 -0.4577  0.2418
 1893TIP3    H127238   6.819   3.007   0.298  1.2520 -0.4313  0.3676
 1893TIP3    H227239   6.865   3.049   0.436  1.4821  1.1141 -0.1667
 1894TIP3   OH227240   6.519   0.308   0.985  0.0299 -0.1297 -0.0948
 1894TIP3    H127241   6.592   0.247   0.995 -0.6422 -0.8845  0.2524
 1894TIP3    H227242   6.443   0.262   1.020 -0.0653  1.8561  2.6613
 1895TIP3   OH227243   6.028   0.699   2.468 -0.2778  0.7628 -0.1972
 1895TIP3    H127244   6.029   0.682   2.563  1.0719 -1.3864 -0.5293
 1895TIP3    H227245   5.954   0.649   2.436  0.5110 -0.2546 -0.5011
 1896TIP3   OH227246   3.948   1.630   1.362 -0.2770 -0.3534  0.6169
 1896TIP3    H127247   3.911   1.555   1.315  0.5853 -0.0034 -0.6722
 1896TIP3    H227248   4.023   1.594   1.409  1.0021 -0.0877 -1.1284
 1897TIP3   OH227249   1.510   6.039   2.090  0.2799  0.0744  0.0284
 1897TIP3    H127250   1.573   6.010   2.024 -0.7643 -1.3234 -0.4104
 1897TIP3    H227251   1.459   5.960   2.110 -1.5185  1.2055  0.1377
 1898TIP3   OH227252   5.912   3.642   2.440 -0.2683 -0.0066 -0.2412
 1898TIP3    H127253   6.002   3.623   2.415 -0.4381 -0.5843 -0.4163
 1898TIP3    H227254   5.915   3.653   2.535 -0.3330 -1.9502  0.0280
 1899TIP3   OH227255   1.070   1.990   1.621  0.4122  0.6102  0.0279
 1899TIP3    H127256   1.146   1.960   1.671  1.9111  3.0909 -0.6171
 1899TIP3    H227257   1.014   1.912   1.615  2.1922 -0.9301  1.7510
 1900TIP3   OH227258   6.423   0.917   2.111  0.1005  0.2635 -0.0110
 1900TIP3    H127259   6.368   0.839   2.119  1.5385 -0.6847  1.1744
 1900TIP3    H227260   6.371   0.987   2.150  0.1465 -0.8726  2.2987
 1901TIP3   OH227261   2.592   0.063   1.891 -0.3174  0.0838 -0.2963
 1901TIP3    H127262   2.510   0.095   1.929 -0.0534  1.3530 -0.7148
 1901TIP3    H227263   2.658   0.082   1.957 -0.4774 -1.8956  0.4782
 1902TIP3   OH227264   0.701   1.061   7.119  0.0134 -0.3127 -0.1953
 1902TIP3    H127265   0.681   1.022   7.203  0.7945  0.4567  0.3723
 1902TIP3    H227266   0.628   1.120   7.102  0.4460  0.4689  0.5643
 1903TIP3   OH227267   4.493   3.784   2.734 -0.4354 -0.0872 -0.4844
 1903TIP3    H127268   4.530   3.764   2.820 -0.6286  0.5869 -0.2353
 1903TIP3    H227269   4.439   3.708   2.713 -1.9663  0.5548  0.8930
 1904TIP3   OH227270   2.194   2.449   0.405  0.4494  0.2277  0.0355
 1904TIP3    H127271   2.130   2.434   0.475 -0.5485  1.7739 -0.4799
 1904TIP3    H227272   2.278   2.428   0.444 -0.3749 -2.4771  0.5692
 1905TIP3   OH227273   3.176   2.774   8.171 -0.5501 -0.3664  0.6394
 1905TIP3    H127274   3.248   2.717   8.197  0.7446  0.8838 -0.0695
 1905TIP3    H227275   3.210   2.823   8.096 -1.2494  2.0212  1.8061
 1906TIP3   OH227276   6.807   1.433   2.977  0.8629 -0.6758  0.6296
 1906TIP3    H127277   6.813   1.350   2.929  0.8922  0.9532 -2.4564
 1906TIP3    H227278   6.885   1.481   2.949 -0.8556  1.6630 -0.4386
 1907TIP3   OH227279   1.971   0.127   7.730  0.3309 -0.0757 -0.4251
 1907TIP3    H127280   1.930   0.079   7.802 -0.9455  0.0182 -1.0655
 1907TIP3    H227281   2.002   0.059   7.670  0.0978 -0.1331 -0.4817
 1908TIP3   OH227282   6.131   4.892   1.744 -0.3941 -0.2239  0.1103
 1908TIP3    H127283   6.132   4.911   1.838  0.4435  0.2354  0.0190
 1908TIP3    H227284   6.042   4.914   1.716 -0.5311  0.0252  0.7183
 1909TIP3   OH227285   3.221   0.290   8.552 -0.6567 -0.0903 -0.0406
 1909TIP3    H127286   3.226   0.375   8.508 -1.5949 -0.9514 -1.9542
 1909TIP3    H227287   3.260   0.304   8.638 -1.7923  2.5549  0.1308
 1910TIP3   OH227288   2.562   5.618   0.013 -0.5529  0.5646  0.2372
 1910TIP3    H127289   2.574   5.569   0.095 -1.6434  2.0652  1.3503
 1910TIP3    H227290   2.533   5.705   0.041 -0.8323  1.1630 -1.7583
 1911TIP3   OH227291   1.188   3.245   2.362  0.0962 -0.0200  0.5092
 1911TIP3    H127292   1.167   3.214   2.274  3.6847 -1.1523 -0.1286
 1911TIP3    H227293   1.128   3.318   2.378 -1.3813 -0.4865 -2.4035
 1912TIP3   OH227294   4.956   3.826   7.716 -0.3150 -0.7740  0.0787
 1912TIP3    H127295   4.937   3.878   7.638  1.4808 -1.1061 -0.6209
 1912TIP3    H227296   4.877   3.835   7.770 -0.6581  1.4275 -0.6851
 1913TIP3   OH227297   0.170   6.654   8.128 -0.0242  0.2355 -0.8064
 1913TIP3    H127298   0.143   6.740   8.158 -0.8221 -0.0229 -0.7788
 1913TIP3    H227299   0.215   6.671   8.044  1.7521  0.8979  0.2252
 1914TIP3   OH227300   6.449   4.884   8.450 -0.0792 -0.9541 -0.2445
 1914TIP3    H127301   6.543   4.899   8.441  0.0609 -0.9538  0.9919
 1914TIP3    H227302   6.425   4.933   8.528 -1.2352 -0.4555 -0.8943
 1915TIP3   OH227303   4.466   0.985   2.205  0.3025 -0.0774 -0.3642
 1915TIP3    H127304   4.476   1.070   2.248  2.8719 -0.5926  0.2163
 1915TIP3    H227305   4.445   1.006   2.114 -1.3376  1.0903  0.2382
 1916TIP3   OH227306   6.203   4.515   1.971  0.6720 -0.0185  0.3149
 1916TIP3    H127307   6.201   4.522   2.067  1.0554 -0.4002  0.3539
 1916TIP3    H227308   6.119   4.551   1.943  0.8299  0.7241  0.7521
 1917TIP3   OH227309   4.032   3.468   1.854 -0.0682  0.0177  0.8128
 1917TIP3    H127310   3.976   3.399   1.888  0.9789 -0.5341  1.4642
 1917TIP3    H227311   3.999   3.548   1.897 -1.8382  0.1208 -0.6027
 1918TIP3   OH227312   3.858   3.710   8.235 -0.2799  0.0743  0.4648
 1918TIP3    H127313   3.850   3.776   8.166  0.3002 -0.3684 -0.0403
 1918TIP3    H227314   3.771   3.703   8.273 -0.9984 -0.7754 -1.2439
 1919TIP3   OH227315   1.399   6.343   1.997  0.4581 -0.4980 -0.0326
 1919TIP3    H127316   1.356   6.348   1.912 -0.6534  0.6001  0.5510
 1919TIP3    H227317   1.327   6.336   2.060  1.1854  0.0092  0.8895
 1920TIP3   OH227318   4.324   1.283   1.790 -0.1972 -0.5167 -0.2184
 1920TIP3    H127319   4.326   1.362   1.844  0.3534  0.1489 -1.1793
 1920TIP3    H227320   4.237   1.284   1.749  0.1346  0.0846 -0.9247
 1921TIP3   OH227321   4.885   2.884   2.525  0.5091  0.0906 -0.4994
 1921TIP3    H127322   4.872   2.831   2.447 -0.4744 -1.0219  0.3752
 1921TIP3    H227323   4.968   2.854   2.561  0.7483  0.2946 -0.8805
 1922TIP3   OH227324   0.693   6.682   1.305 -0.1326 -0.1072 -0.1466
 1922TIP3    H127325   0.692   6.629   1.385 -2.1814 -0.5695 -0.4294
 1922TIP3    H227326   0.673   6.620   1.235 -1.1367  0.7689 -0.6644
 1923TIP3   OH227327   0.804   6.294   8.007 -0.2723  0.8723 -0.6018
 1923TIP3    H127328   0.808   6.199   8.023 -1.9781  0.8502 -0.0763
 1923TIP3    H227329   0.872   6.310   7.942 -0.6999 -0.9007 -1.5545
 1924TIP3   OH227330   3.754   5.048   7.870  0.2454 -0.0464  0.3853
 1924TIP3    H127331   3.806   5.127   7.855  1.3576 -1.1637 -2.3778
 1924TIP3    H227332   3.668   5.069   7.834  0.6317 -0.1429 -0.6401
 1925TIP3   OH227333   1.950   2.762   2.469  0.0252  0.0915 -0.1684
 1925TIP3    H127334   2.045   2.757   2.458  0.2007  0.4473  1.0502
 1925TIP3    H227335   1.929   2.693   2.532 -0.7929 -1.2062 -1.7888
 1926TIP3   OH227336   4.482   2.806   1.865  0.3196 -0.3989  0.7008
 1926TIP3    H127337   4.558   2.836   1.914  0.1119 -0.8658  1.3173
 1926TIP3    H227338   4.408   2.822   1.923 -0.1441  0.6143 -0.1246
 1927TIP3   OH227339   6.056   4.454   2.687 -0.8124  0.6438 -0.6186
 1927TIP3    H127340   6.145   4.491   2.687 -1.0280  1.2198 -1.9473
 1927TIP3    H227341   6.058   4.388   2.618 -0.9096 -0.7210  0.6244
 1928TIP3   OH227342   0.895   6.230   0.693 -0.2170 -0.3956 -0.0358
 1928TIP3    H127343   0.933   6.194   0.613 -1.6913  2.5631 -2.2721
 1928TIP3    H227344   0.808   6.189   0.699 -0.0711 -0.6848  0.1016
 1929TIP3   OH227345   4.393   4.305   7.863  0.0207 -0.0810 -0.0406
 1929TIP3    H127346   4.391   4.366   7.936 -0.1294  0.3815 -0.4227
 1929TIP3    H227347   4.373   4.359   7.786  0.8836 -0.4227 -0.5184
 1930TIP3   OH227348   1.331   2.992   0.111  0.6269 -0.0709  0.3175
 1930TIP3    H127349   1.254   3.047   0.099  1.1730  0.5209 -0.6331
 1930TIP3    H227350   1.297   2.908   0.138 -0.4657 -0.1828 -1.2533
 1931TIP3   OH227351   6.610   5.429   1.582 -0.9578  0.4767 -0.3690
 1931TIP3    H127352   6.690   5.406   1.534 -0.7171 -1.5924  0.8540
 1931TIP3    H227353   6.642   5.462   1.666 -1.3949  1.5588 -0.6154
 1932TIP3   OH227354   4.435   5.462   8.219  0.4207  0.4080 -0.0377
 1932TIP3    H127355   4.442   5.543   8.169  0.8598  0.2825 -0.1879
 1932TIP3    H227356   4.455   5.393   8.156  2.2774  0.3199  0.5779
 1933TIP3   OH227357   5.844   1.540   3.605 -0.3494 -0.1988  0.2668
 1933TIP3    H127358   5.858   1.486   3.683 -0.0555 -1.5737 -0.7062
 1933TIP3    H227359   5.766   1.593   3.626 -1.1388 -1.5788  0.9538
 1934TIP3   OH227360   6.387   1.918   8.513 -0.1448 -0.0296 -0.1326
 1934TIP3    H127361   6.478   1.919   8.543 -0.3482  0.4718  0.4864
 1934TIP3    H227362   6.335   1.939   8.590 -0.7604  0.1393 -0.5783
 1935TIP3   OH227363   4.478   6.566   8.378  0.0165  0.1893 -0.4684
 1935TIP3    H127364   4.416   6.569   8.305 -1.3191  0.7594  0.6226
 1935TIP3    H227365   4.503   6.474   8.384  0.3033  0.1648 -1.7364
 1936TIP3   OH227366   5.095   1.005   0.891 -0.1193 -0.1464  0.1159
 1936TIP3    H127367   5.179   1.032   0.853  0.1850 -1.5773 -0.2763
 1936TIP3    H227368   5.095   1.044   0.979  0.6501  0.4244 -0.1223
 1937TIP3   OH227369   3.208   6.498   1.939  0.1433  0.1169  0.6437
 1937TIP3    H127370   3.116   6.495   1.965 -0.3842 -1.7447 -1.1645
 1937TIP3    H227371   3.255   6.469   2.017 -0.7196  1.4160  1.7083
 1938TIP3   OH227372   2.584   1.273   8.064  0.2466  0.4013  0.0531
 1938TIP3    H127373   2.622   1.361   8.060  0.3012  0.3445 -2.1388
 1938TIP3    H227374   2.627   1.225   7.993 -0.2047 -1.2286  0.8416
 1939TIP3   OH227375   1.336   1.233   7.962 -0.1526  0.5340 -0.4692
 1939TIP3    H127376   1.328   1.320   8.000  0.6079 -0.2288  1.5466
 1939TIP3    H227377   1.253   1.189   7.983  0.8419 -0.3926  1.7741
 1940TIP3   OH227378   6.382   6.234   1.475 -0.2732  0.3204 -0.7971
 1940TIP3    H127379   6.317   6.212   1.542  0.9532  3.4428  1.6551
 1940TIP3    H227380   6.335   6.227   1.392 -2.0174 -3.1717  0.2890
 1941TIP3   OH227381   6.589   1.173   7.733  0.9549 -0.0569 -0.0125
 1941TIP3    H127382   6.544   1.210   7.809  1.4463 -0.2255  0.3669
 1941TIP3    H227383   6.646   1.244   7.702  0.7775  0.0016 -0.2051
 1942TIP3   OH227384   2.761   0.539   0.897 -0.5530 -0.4478  0.2271
 1942TIP3    H127385   2.831   0.596   0.864 -0.9783 -0.5367 -0.8593
 1942TIP3    H227386   2.798   0.499   0.976 -0.8328  2.6618  2.1235
 1943TIP3   OH227387   2.467   1.927   2.403 -0.4362  0.0652  0.1395
 1943TIP3    H127388   2.393   1.866   2.410 -0.3272  0.0878  2.2729
 1943TIP3    H227389   2.436   2.007   2.446  0.0978  0.8591 -0.9103
 1944TIP3   OH227390   3.174   5.322   7.235 -0.3276 -0.2201  0.3413
 1944TIP3    H127391   3.126   5.384   7.290  1.5882  1.2451  0.4480
 1944TIP3    H227392   3.196   5.250   7.294  0.7212  0.8072  1.2460
 1945TIP3   OH227393   4.134   5.152   7.512 -0.0271  0.3816 -0.0614
 1945TIP3    H127394   4.051   5.199   7.515 -0.4880 -0.4515  0.7390
 1945TIP3    H227395   4.198   5.218   7.484 -0.3884  1.9100  2.3839
 1946TIP3   OH227396   3.502   4.035   2.444  0.7681 -0.1829  0.4617
 1946TIP3    H127397   3.483   3.943   2.463 -0.3645  0.2375  1.4949
 1946TIP3    H227398   3.479   4.081   2.524  0.0124  1.1666 -0.4931
 1947TIP3   OH227399   5.888   1.238   7.637 -0.4949 -0.8024  0.4743
 1947TIP3    H127400   5.819   1.174   7.617 -1.0260  0.3029 -1.4467
 1947TIP3    H227401   5.879   1.305   7.570  1.2218  0.3847  1.3581
 1948TIP3   OH227402   3.956   3.976   2.422 -0.2336 -0.5654  0.2019
 1948TIP3    H127403   3.959   4.002   2.330 -2.2056 -0.0400  0.2430
 1948TIP3    H227404   3.967   4.058   2.470  0.6236 -0.8192  0.4628
 1949TIP3   OH227405   0.709   1.859   2.743 -0.1583 -0.1267 -0.1337
 1949TIP3    H127406   0.614   1.865   2.748 -0.3033 -1.1236 -1.3593
 1949TIP3    H227407   0.726   1.796   2.673  1.3791 -1.3702  1.2700
 1950TIP3   OH227408   3.561   3.896   0.185 -0.5828 -0.1534  0.1770
 1950TIP3    H127409   3.584   3.989   0.187 -0.8239 -0.0961  1.5247
 1950TIP3    H227410   3.516   3.881   0.268 -1.2799 -1.2991 -0.3794
 1951TIP3   OH227411   1.018   3.317   0.849 -0.4889 -0.1929 -0.1108
 1951TIP3    H127412   0.958   3.353   0.783 -0.7700  2.0097  1.2461
 1951TIP3    H227413   0.961   3.290   0.921 -0.0503 -0.6631  0.0651
 1952TIP3   OH227414   3.888   0.910   2.104 -0.4542  0.6228  0.2323
 1952TIP3    H127415   3.898   0.972   2.033  1.4780  0.4977  0.3277
 1952TIP3    H227416   3.930   0.952   2.179  0.7981 -0.6914  0.3275
 1953TIP3   OH227417   4.819   6.622   1.065 -0.3514  0.6415 -0.1522
 1953TIP3    H127418   4.893   6.680   1.045  0.4777 -0.1699  0.4907
 1953TIP3    H227419   4.859   6.538   1.089 -1.3628  0.7718  2.3327
 1954TIP3   OH227420   1.255   4.461   7.847 -0.1434  0.0918 -0.0868
 1954TIP3    H127421   1.234   4.438   7.757 -0.9939 -2.1412  0.6135
 1954TIP3    H227422   1.173   4.492   7.884  0.4599  2.1568 -0.3392
 1955TIP3   OH227423   0.665   5.744   1.259 -0.3756  0.0085  0.0131
 1955TIP3    H127424   0.621   5.798   1.325  0.0112 -0.8524  1.0128
 1955TIP3    H227425   0.688   5.663   1.306 -2.1320 -1.6334 -1.7406
 1956TIP3   OH227426   5.021   0.161   2.959 -0.4030  0.1890 -0.1315
 1956TIP3    H127427   4.994   0.210   3.037 -0.4639  0.5254 -0.3633
 1956TIP3    H227428   5.047   0.075   2.993 -0.5332  0.2963  0.2468
 1957TIP3   OH227429   6.687   1.027   1.104  0.1621 -0.1079  0.2541
 1957TIP3    H127430   6.676   0.981   1.187 -0.5060 -2.1451 -0.8925
 1957TIP3    H227431   6.782   1.027   1.089  0.3598  0.9423  1.3238
 1958TIP3   OH227432   0.908   4.968   1.840 -0.0135  0.1011 -0.1462
 1958TIP3    H127433   0.916   4.938   1.750 -1.5836  0.9021 -0.5820
 1958TIP3    H227434   0.842   4.909   1.879  0.3394  0.0321  0.3673
 1959TIP3   OH227435   3.443   2.863   8.566 -0.4668  0.7828  0.1506
 1959TIP3    H127436   3.388   2.785   8.556 -1.4913  1.5840 -0.7274
 1959TIP3    H227437   3.532   2.828   8.573 -0.7885 -0.4496 -1.2095
 1960TIP3   OH227438   2.741   5.578   8.551  0.7189  0.0881  0.4908
 1960TIP3    H127439   2.668   5.573   8.613 -0.9290 -1.6367 -1.4586
 1960TIP3    H227440   2.710   5.637   8.482  1.8407  0.6274  0.4266
 1961TIP3   OH227441   3.332   2.396   1.801  0.6126 -0.8328  0.7177
 1961TIP3    H127442   3.412   2.397   1.854  1.3339 -1.6707 -0.2977
 1961TIP3    H227443   3.290   2.313   1.823 -0.8412  0.2942  2.4192
 1962TIP3   OH227444   5.651   5.316   2.892  0.2650  0.5228 -0.3702
 1962TIP3    H127445   5.696   5.244   2.849  0.0875  0.8754 -1.1761
 1962TIP3    H227446   5.580   5.274   2.941  0.5672  0.0965 -0.2934
 1963TIP3   OH227447   4.711   1.717   8.432  0.4050  0.0849  0.2444
 1963TIP3    H127448   4.675   1.673   8.354  1.3962 -3.2570  1.5166
 1963TIP3    H227449   4.634   1.740   8.483 -0.1723 -0.2096 -0.4664
 1964TIP3   OH227450   1.659   3.157   0.693 -0.0733 -0.0307 -0.5017
 1964TIP3    H127451   1.580   3.152   0.639 -0.2844  1.3862 -0.3787
 1964TIP3    H227452   1.723   3.104   0.646 -0.6050  0.1757 -1.5073
 1965TIP3   OH227453   4.225   5.591   1.967  0.0129  0.1134  0.1208
 1965TIP3    H127454   4.157   5.594   1.900  0.1487 -0.1177 -0.0270
 1965TIP3    H227455   4.236   5.498   1.986 -1.5908  0.2469  2.0595
 1966TIP3   OH227456   2.177   2.953   8.358 -0.4232 -0.1321 -0.5462
 1966TIP3    H127457   2.201   3.038   8.320  1.2257 -0.6932 -0.8416
 1966TIP3    H227458   2.112   2.975   8.425  0.7890  1.5283  0.1770
 1967TIP3   OH227459   2.388   2.448   8.738  0.0728  0.1709  0.0318
 1967TIP3    H127460   2.348   2.373   8.693  0.3181  0.0337  0.0396
 1967TIP3    H227461   2.441   2.491   8.671  2.5706 -1.5454  0.7613
 1968TIP3   OH227462   4.042   5.101   2.348 -0.4120 -0.0179  0.0723
 1968TIP3    H127463   3.990   5.140   2.278  0.2807  2.2167  0.7347
 1968TIP3    H227464   3.989   5.113   2.426  0.7785  1.7439  0.6568
 1969TIP3   OH227465   3.307   5.707   2.246  0.6150 -0.0268 -0.3501
 1969TIP3    H127466   3.276   5.776   2.187  1.7631 -0.9352 -2.1269
 1969TIP3    H227467   3.271   5.626   2.208  1.7544 -0.6838 -0.0745
 1970TIP3   OH227468   4.301   6.681   0.213 -0.6253 -0.1500 -0.6283
 1970TIP3    H127469   4.214   6.681   0.173 -0.3805 -0.2679 -1.1716
 1970TIP3    H227470   4.355   6.632   0.151 -0.4479 -1.1896  0.3182
 1971TIP3   OH227471   0.122   1.123   8.086  0.4484 -0.4425 -0.0116
 1971TIP3    H127472   0.127   1.188   8.016  1.0392 -1.3271 -0.8204
 1971TIP3    H227473   0.124   1.174   8.167 -0.1684  0.5956 -0.6297
 1972TIP3   OH227474   4.193   4.995   1.099  0.2840  0.0601 -0.0822
 1972TIP3    H127475   4.229   5.065   1.153 -0.0322 -0.5943  0.9919
 1972TIP3    H227476   4.220   4.914   1.143  1.2396 -0.5346 -1.6702
 1973TIP3   OH227477   6.429   6.528   0.563  0.0218  0.6734  0.3382
 1973TIP3    H127478   6.436   6.498   0.654 -1.8758  3.0895  1.4089
 1973TIP3    H227479   6.344   6.495   0.533 -0.6777  2.2354  0.4938
 1974TIP3   OH227480   3.420   4.998   1.751 -0.2726  0.4557 -0.2143
 1974TIP3    H127481   3.496   5.029   1.702 -0.5835 -1.1920 -1.8539
 1974TIP3    H227482   3.455   4.972   1.836  0.3185  3.1974  0.4687
 1975TIP3   OH227483   0.396   2.933   2.845 -0.0613 -0.2701 -0.0739
 1975TIP3    H127484   0.438   2.854   2.813 -2.0696 -1.6332  0.4998
 1975TIP3    H227485   0.393   2.992   2.770 -0.5202 -1.5999 -1.1140
 1976TIP3   OH227486   6.771   4.590   1.121  0.2997 -0.1174 -0.2257
 1976TIP3    H127487   6.799   4.614   1.210 -1.4230  1.7499 -0.0998
 1976TIP3    H227488   6.772   4.673   1.073  0.6621 -1.0138 -1.8084
 1977TIP3   OH227489   1.103   0.752   0.032 -0.1548  0.6924 -0.5884
 1977TIP3    H127490   1.163   0.781   0.101  0.4874 -0.8797 -0.4258
 1977TIP3    H227491   1.156   0.692  -0.021 -1.7494 -1.3294 -0.0215
 1978TIP3   OH227492   6.707   6.492   1.591 -0.7031 -0.0093  0.0221
 1978TIP3    H127493   6.713   6.469   1.684 -0.6933 -1.5736 -0.3406
 1978TIP3    H227494   6.684   6.410   1.547 -2.4401  1.0595 -1.1878
 1979TIP3   OH227495   2.861   6.553   0.524 -0.5588 -0.1620 -0.7663
 1979TIP3    H127496   2.894   6.486   0.584  0.3105 -0.8534 -1.9584
 1979TIP3    H227497   2.892   6.636   0.559  0.9717 -0.6541 -0.9007
 1980TIP3   OH227498   0.600   5.765   0.723  0.6069  0.7320 -0.3928
 1980TIP3    H127499   0.523   5.791   0.774 -0.6214  0.3952 -1.9715
 1980TIP3    H227500   0.637   5.691   0.770 -0.5202  0.3864 -0.0282
 1981TIP3   OH227501   6.779   5.311   1.875  0.3000  0.0654 -0.4711
 1981TIP3    H127502   6.741   5.224   1.863 -0.9528  0.6533 -0.9570
 1981TIP3    H227503   6.868   5.304   1.840  0.2344 -1.0258 -0.4493
 1982TIP3   OH227504   5.827   2.375   0.819 -0.2315 -0.6452  0.1554
 1982TIP3    H127505   5.909   2.378   0.868 -0.1776 -3.0058  0.3368
 1982TIP3    H227506   5.854   2.383   0.727  0.0716 -0.2820  0.2729
 1983TIP3   OH227507   3.379   2.915   0.218 -0.5083 -0.4461  0.5672
 1983TIP3    H127508   3.364   2.821   0.209 -0.4081 -0.5409  1.3242
 1983TIP3    H227509   3.353   2.952   0.134  1.1154 -1.3518 -0.3703
 1984TIP3   OH227510   6.682   1.682   7.953  0.5950 -0.6660  0.1155
 1984TIP3    H127511   6.641   1.618   8.010  2.5679 -1.0315  1.2124
 1984TIP3    H227512   6.746   1.632   7.902  0.6825  0.0894 -0.5366
 1985TIP3   OH227513   5.943   2.901   1.340 -0.3315  0.0541 -0.1869
 1985TIP3    H127514   5.931   2.949   1.259 -0.0197 -0.6568 -0.6718
 1985TIP3    H227515   5.856   2.871   1.364 -0.4770  0.5808 -0.0572
 1986TIP3   OH227516   3.990   0.589   1.730 -0.7583  0.5672  0.2509
 1986TIP3    H127517   3.943   0.535   1.793 -1.0359 -0.0094 -0.4466
 1986TIP3    H227518   4.075   0.547   1.720 -0.2850  1.2930  1.0831
 1987TIP3   OH227519   5.457   2.377   0.344  0.9150 -0.6646 -0.2667
 1987TIP3    H127520   5.502   2.423   0.273  0.4711 -0.5601 -0.4815
 1987TIP3    H227521   5.416   2.302   0.301 -0.3961  0.0729 -0.3512
 1988TIP3   OH227522   5.609   4.719   8.685 -0.4311  0.0330  0.5439
 1988TIP3    H127523   5.622   4.739   8.592 -1.9893  0.1554  0.3271
 1988TIP3    H227524   5.689   4.675   8.711  0.1253  0.1948 -0.8080
 1989TIP3   OH227525   2.238   4.691   2.023 -0.1858 -0.3162 -0.2977
 1989TIP3    H127526   2.274   4.738   2.099 -0.0671  0.4279 -0.8129
 1989TIP3    H227527   2.315   4.651   1.982 -0.2372 -0.6286 -0.0977
 1990TIP3   OH227528   2.279   3.116   0.036  0.2370  0.0833  0.1273
 1990TIP3    H127529   2.241   3.108   0.123 -0.9195  0.5236 -0.3162
 1990TIP3    H227530   2.327   3.199   0.038 -2.9983  2.1462 -0.7524
 1991TIP3   OH227531   6.491   3.214   8.456 -0.2219  0.0307  0.4418
 1991TIP3    H127532   6.430   3.252   8.519 -1.5639 -0.4889 -0.4858
 1991TIP3    H227533   6.531   3.141   8.504 -1.1383 -0.2924  0.7406
 1992TIP3   OH227534   5.368   3.901   8.134  0.6073  0.1727 -0.2076
 1992TIP3    H127535   5.450   3.934   8.172  0.2701 -1.0426  1.7128
 1992TIP3    H227536   5.300   3.931   8.194  0.0095 -1.6269  0.0726
 1993TIP3   OH227537   5.739   4.453   2.761  0.1951  0.5360  0.1100
 1993TIP3    H127538   5.685   4.384   2.799 -2.7690  1.3511 -2.2325
 1993TIP3    H227539   5.816   4.408   2.727 -0.4682 -1.1948  0.8269
 1994TIP3   OH227540   4.475   0.066   3.139  0.6917  0.0210  0.2585
 1994TIP3    H127541   4.461   0.158   3.117  1.2665  0.1162  0.2725
 1994TIP3    H227542   4.388   0.026   3.134  0.5307  0.4350 -0.3435
 1995TIP3   OH227543   3.799   6.687   2.118  0.3563 -0.2452  0.0714
 1995TIP3    H127544   3.864   6.742   2.162  0.6865  0.1807 -0.9182
 1995TIP3    H227545   3.715   6.731   2.135  0.7897  1.7420 -2.2993
 1996TIP3   OH227546   3.154   0.891   8.164  0.0126  0.4815  0.3292
 1996TIP3    H127547   3.079   0.852   8.120  2.2506 -2.3747 -1.2543
 1996TIP3    H227548   3.163   0.978   8.124 -2.2169  0.8019  0.4048
 1997TIP3   OH227549   3.930   6.078   2.029  0.6148 -0.1456 -0.0969
 1997TIP3    H127550   3.942   5.986   2.054  1.0087 -0.0040  0.2472
 1997TIP3    H227551   3.897   6.120   2.109 -2.5589 -0.5602 -1.0621
 1998TIP3   OH227552   0.338   2.856   7.955  0.4715  0.2569 -0.1043
 1998TIP3    H127553   0.307   2.822   8.039  1.6687 -0.5820  0.0239
 1998TIP3    H227554   0.303   2.796   7.890  0.6576  0.1276 -0.0850
 1999TIP3   OH227555   3.529   4.469   1.357 -0.4037 -0.2968  0.0552
 1999TIP3    H127556   3.593   4.507   1.417 -0.5537  0.0627 -0.0101
 1999TIP3    H227557   3.534   4.525   1.279 -0.0902 -0.8540 -0.3370
 2000TIP3   OH227558   4.131   5.174   1.520  0.5817  0.3040  0.2174
 2000TIP3    H127559   4.037   5.188   1.513  0.8424  1.5253 -1.6479
 2000TIP3    H227560   4.143   5.081   1.502 -0.2499  0.2071  0.1249
 2001TIP3   OH227561   6.019   1.935   2.655 -0.1068 -0.1094 -0.9332
 2001TIP3    H127562   6.027   2.013   2.599 -0.0588  0.6133  0.0435
 2001TIP3    H227563   5.958   1.878   2.609  1.2902 -0.3341 -2.5928
 2002TIP3   OH227564   3.824   0.508   1.947 -0.9199  0.1514  0.2636
 2002TIP3    H127565   3.760   0.559   1.897  0.2971  0.2075 -1.3440
 2002TIP3    H227566   3.774   0.435   1.984 -1.5799 -1.3957 -3.2062
 2003TIP3   OH227567   4.105   2.807   7.836 -0.5673  0.1102 -0.0043
 2003TIP3    H127568   4.144   2.831   7.752 -1.4722  1.4169 -0.0779
 2003TIP3    H227569   4.105   2.889   7.886 -3.8777  0.3999 -0.2866
 2004TIP3   OH227570   6.122   4.163   2.115  0.1270  0.2617  0.3900
 2004TIP3    H127571   6.198   4.215   2.090 -0.0780 -0.4840 -2.0878
 2004TIP3    H227572   6.065   4.224   2.161  0.6070  1.8153 -0.9916
 2005TIP3   OH227573   6.787   0.499   1.334 -0.0166 -0.1307  0.3081
 2005TIP3    H127574   6.757   0.559   1.402  0.2343  0.7440 -0.3264
 2005TIP3    H227575   6.715   0.439   1.321 -1.4046  1.6705 -0.9002
 2006TIP3   OH227576   0.608   6.058   7.333 -0.3195 -0.1279 -0.1880
 2006TIP3    H127577   0.657   6.138   7.317 -0.1658  0.1307  1.4207
 2006TIP3    H227578   0.669   5.987   7.311 -0.0461  0.1846 -0.4366
 2007TIP3   OH227579   4.745   3.297   7.730 -0.6431  0.0193 -0.0399
 2007TIP3    H127580   4.840   3.303   7.720 -0.8211  0.0613 -2.4106
 2007TIP3    H227581   4.721   3.374   7.781  0.6438 -0.3795  1.2220
 2008TIP3   OH227582   4.372   4.458   0.863  0.2514 -0.4672  0.4973
 2008TIP3    H127583   4.425   4.395   0.913 -0.1592 -1.0898  0.1610
 2008TIP3    H227584   4.434   4.498   0.802  0.9054  0.7875  1.9290
 2009TIP3   OH227585   5.211   3.724   8.403  0.1784 -0.2581  0.1723
 2009TIP3    H127586   5.182   3.710   8.312 -1.2691  2.1138  0.2108
 2009TIP3    H227587   5.167   3.655   8.453  0.1711 -0.9453 -0.7376
 2010TIP3   OH227588   6.048   2.806   2.219  0.0125  0.1961 -0.2913
 2010TIP3    H127589   6.092   2.783   2.302  1.0862  3.0755  0.0399
 2010TIP3    H227590   5.977   2.865   2.244 -2.1442 -1.8726 -1.1605
 2011TIP3   OH227591   6.391   4.614   8.598 -0.0453 -0.1380 -0.1478
 2011TIP3    H127592   6.435   4.680   8.545 -1.1442 -0.1121 -1.0466
 2011TIP3    H227593   6.367   4.545   8.536  2.6422 -2.3099  1.0019
 2012TIP3   OH227594   5.697   3.382   1.172  0.2998 -0.4098 -0.4723
 2012TIP3    H127595   5.756   3.399   1.245 -0.1852 -0.2022 -0.1295
 2012TIP3    H227596   5.744   3.317   1.119  0.7768 -0.3500 -0.1317
 2013TIP3   OH227597   5.469   0.508   7.954  0.0084 -0.7986 -1.0390
 2013TIP3    H127598   5.423   0.483   8.034 -1.3939  0.6201 -1.3562
 2013TIP3    H227599   5.455   0.434   7.894  0.3674 -1.5039 -0.2807
 2014TIP3   OH227600   3.925   2.384   0.276 -0.2938  0.0354 -0.1368
 2014TIP3    H127601   3.992   2.343   0.332 -0.8100 -3.2341 -1.6333
 2014TIP3    H227602   3.843   2.342   0.303 -1.1173  1.1160 -0.8973
 2015TIP3   OH227603   6.760   3.275   0.796 -0.1268  0.0582 -0.1963
 2015TIP3    H127604   6.741   3.330   0.872  0.2843 -0.5919  0.3896
 2015TIP3    H227605   6.689   3.293   0.734  0.2437  1.5728 -0.2069
 2016TIP3   OH227606   0.723   1.243   2.948 -0.2810 -0.2532 -0.2801
 2016TIP3    H127607   0.731   1.308   3.018 -1.8051 -0.3897  0.0466
 2016TIP3    H227608   0.630   1.222   2.944 -0.0666 -1.1264 -1.5688
 2017TIP3   OH227609   4.199   4.018   8.560  0.5761  0.6466 -0.1984
 2017TIP3    H127610   4.169   3.939   8.514 -2.2943  0.9877  0.8533
 2017TIP3    H227611   4.221   4.080   8.490  1.2199 -0.5015 -1.0404
 2018TIP3   OH227612   0.252   3.478   0.738 -0.0292 -0.2143  0.5441
 2018TIP3    H127613   0.208   3.423   0.803  0.3485 -0.9316  0.2147
 2018TIP3    H227614   0.310   3.535   0.789 -0.8130  0.2553  0.9288
 2019TIP3   OH227615   2.965   0.195   0.417  0.2741  0.0057 -0.0427
 2019TIP3    H127616   2.922   0.137   0.354  0.0339 -0.5554  0.6247
 2019TIP3    H227617   2.914   0.276   0.413  0.7869  0.2886 -1.1914
 2020TIP3   OH227618   0.093   6.637   1.776  0.4430 -0.2759  0.3381
 2020TIP3    H127619   0.045   6.617   1.696  0.5752 -1.0172  0.4387
 2020TIP3    H227620   0.185   6.639   1.750  0.4686 -0.2720  0.4261
 2021TIP3   OH227621   6.595   6.424   2.456 -0.6586  0.3109  0.3798
 2021TIP3    H127622   6.541   6.488   2.408  0.9388  0.4660 -1.3170
 2021TIP3    H227623   6.649   6.478   2.514 -0.4779  0.3729  0.1558
 2022TIP3   OH227624   3.335   1.137   2.949  0.2539  0.4385 -0.2454
 2022TIP3    H127625   3.284   1.199   3.001 -1.8320 -1.3567 -0.0186
 2022TIP3    H227626   3.424   1.144   2.985 -0.5687  1.1294  1.8307
 2023TIP3   OH227627   1.452   4.215   7.990  0.0218 -0.0585  0.4072
 2023TIP3    H127628   1.380   4.154   7.975  0.6263 -0.6999  0.0556
 2023TIP3    H227629   1.439   4.246   8.080 -1.0439  0.3215  0.1326
 2024TIP3   OH227630   5.189   2.054   7.883  0.4843 -0.2995 -0.5451
 2024TIP3    H127631   5.195   1.988   7.814 -0.7710 -2.2999  1.1231
 2024TIP3    H227632   5.149   2.130   7.841  2.2565 -0.4025 -2.6134
 2025TIP3   OH227633   6.783   4.684   0.672  0.2099  0.4470  0.5773
 2025TIP3    H127634   6.693   4.669   0.644 -0.3030  1.2065  1.7337
 2025TIP3    H227635   6.803   4.772   0.640  1.0610 -0.2492 -0.8999
 2026TIP3   OH227636   4.710   2.586   0.181 -0.0295 -0.1272 -0.3952
 2026TIP3    H127637   4.671   2.604   0.266  0.8163  0.2263 -0.0682
 2026TIP3    H227638   4.649   2.623   0.117 -0.1691  0.5145  0.1050
 2027TIP3   OH227639   4.734   5.793   3.136 -0.5896 -0.5802  0.3117
 2027TIP3    H127640   4.788   5.736   3.081  0.9195  2.0595 -1.1377
 2027TIP3    H227641   4.796   5.831   3.199 -0.5719  2.4806 -1.3464
 2028TIP3   OH227642   3.069   1.657   8.127 -0.0577 -0.5594 -0.8040
 2028TIP3    H127643   3.113   1.652   8.212 -0.8209  0.4406 -0.3300
 2028TIP3    H227644   3.136   1.633   8.064  2.0528  3.3324 -0.3534
 2029TIP3   OH227645   3.288   6.109   2.781  0.2309  0.3009 -0.3700
 2029TIP3    H127646   3.227   6.150   2.719 -0.4189  0.5118  0.3989
 2029TIP3    H227647   3.249   6.124   2.867  0.0579 -1.7859 -0.0314
 2030TIP3   OH227648   6.171   1.749   7.485  0.1074 -0.0042  0.3657
 2030TIP3    H127649   6.207   1.663   7.509 -0.3322 -1.0991 -2.5199
 2030TIP3    H227650   6.247   1.800   7.458  0.1583 -0.1960  0.1422
 2031TIP3   OH227651   3.419   1.873   8.751  0.0357 -0.4995  1.1479
 2031TIP3    H127652   3.408   1.818   8.673 -0.1258  0.6735  0.3179
 2031TIP3    H227653   3.330   1.897   8.776  0.1143 -0.4884  1.4203
 2032TIP3   OH227654   4.411   1.095   0.615 -0.1862  0.3333  0.0832
 2032TIP3    H127655   4.374   1.059   0.696 -0.2045  1.7378  0.7401
 2032TIP3    H227656   4.504   1.073   0.620 -0.6812 -2.3676 -1.1054
 2033TIP3   OH227657   6.025   6.609   3.325 -0.6379  0.2780  0.7184
 2033TIP3    H127658   6.097   6.669   3.307 -1.5055  0.8519 -1.0994
 2033TIP3    H227659   6.010   6.617   3.419  0.7517  1.1789  0.8929
 2034TIP3   OH227660   2.334   4.348   2.644  0.5502  0.1242  0.3956
 2034TIP3    H127661   2.370   4.409   2.580  1.8170 -0.0329  0.9447
 2034TIP3    H227662   2.396   4.349   2.717 -1.3538  1.0353  2.0848
 2035TIP3   OH227663   4.333   4.495   1.611  0.0415  0.3329 -0.4039
 2035TIP3    H127664   4.368   4.529   1.693 -0.9018  1.2169 -0.3605
 2035TIP3    H227665   4.267   4.431   1.638 -2.1094  2.4379 -0.3851
 2036TIP3   OH227666   3.325   0.552   0.446  0.0618  0.4854 -0.6156
 2036TIP3    H127667   3.291   0.504   0.370 -0.4896  1.3031 -0.9020
 2036TIP3    H227668   3.350   0.484   0.508  1.4489 -0.2386 -1.9004
 2037TIP3   OH227669   5.493   1.335   8.211  0.3328 -0.4780 -0.4781
 2037TIP3    H127670   5.489   1.430   8.215 -0.3380 -0.4147 -2.0679
 2037TIP3    H227671   5.458   1.306   8.296  0.8566  0.6675  0.1575
 2038TIP3   OH227672   3.564   6.680   7.922  0.0389  0.0917  0.7371
 2038TIP3    H127673   3.516   6.752   7.963  1.3672  0.9691  0.8126
 2038TIP3    H227674   3.612   6.639   7.994 -0.0907 -0.3802  0.5583
 2039TIP3   OH227675   4.282   6.588   2.448 -0.3830  0.0702  0.7725
 2039TIP3    H127676   4.353   6.531   2.478 -0.8601 -1.1190 -0.2770
 2039TIP3    H227677   4.278   6.658   2.513  1.3495 -0.1653  1.1692
 2040TIP3   OH227678   0.211   4.703   7.995 -0.8132 -0.1455 -0.4061
 2040TIP3    H127679   0.306   4.703   7.985 -0.7840  1.4063 -0.4275
 2040TIP3    H227680   0.181   4.631   7.939  0.2469  0.3202 -1.6453
 2041TIP3   OH227681   3.952   2.196   1.790 -0.2566  0.1633  0.0372
 2041TIP3    H127682   3.886   2.152   1.844  0.8124 -1.1307  0.3538
 2041TIP3    H227683   3.945   2.155   1.704 -0.2393  0.4250 -0.0916
 2042TIP3   OH227684   1.832   0.379   8.384 -0.2627 -0.3478 -0.1903
 2042TIP3    H127685   1.927   0.387   8.393 -0.0510  0.0406 -2.2826
 2042TIP3    H227686   1.807   0.312   8.449  1.3816 -0.2889  0.5471
 2043TIP3   OH227687   0.451   1.410   8.491  0.3704  0.0514  0.0340
 2043TIP3    H127688   0.491   1.479   8.545  2.1061 -0.4128 -0.6014
 2043TIP3    H227689   0.402   1.458   8.424 -0.3168  0.6302  0.9187
 2044TIP3   OH227690   2.409   3.231   1.042  0.7601  0.2093  0.5872
 2044TIP3    H127691   2.429   3.159   0.982  0.3576 -0.4967  1.2934
 2044TIP3    H227692   2.315   3.223   1.059  0.6967  0.9549  0.6040
 2045TIP3   OH227693   2.405   0.044   2.350 -0.3036 -0.2230  0.2749
 2045TIP3    H127694   2.450  -0.002   2.421  0.1238 -0.6813 -0.2878
 2045TIP3    H227695   2.352   0.110   2.395 -2.9915 -2.8815  1.3534
 2046TIP3   OH227696   2.481   2.252   0.450  0.3256 -0.0256 -0.2588
 2046TIP3    H127697   2.433   2.180   0.491  0.9605  0.7055  1.8798
 2046TIP3    H227698   2.572   2.224   0.453  0.6244  1.0200  0.9904
 2047TIP3   OH227699   3.662   1.906   2.978  0.1347  0.0793  0.2225
 2047TIP3    H127700   3.593   1.916   2.912 -0.0417 -1.0652  0.2100
 2047TIP3    H227701   3.626   1.843   3.040  1.4741 -1.1750 -0.2176
 2048TIP3   OH227702   1.675   1.019   8.619 -0.1222  0.4721 -0.1625
 2048TIP3    H127703   1.631   1.031   8.535 -0.3729  0.9961  0.0402
 2048TIP3    H227704   1.697   1.107   8.648  0.0032  0.2938  0.3013
 2049TIP3   OH227705   5.117   0.581   8.386 -0.7547 -0.0489 -0.2638
 2049TIP3    H127706   5.074   0.495   8.391  0.3129 -0.5697  0.5537
 2049TIP3    H227707   5.136   0.593   8.294 -1.0922 -0.5997 -0.4138
 2050TIP3   OH227708   5.296   6.377   7.668 -0.8972 -0.1260 -0.1446
 2050TIP3    H127709   5.241   6.418   7.602  1.7622  1.6706 -1.4703
 2050TIP3    H227710   5.314   6.447   7.731 -1.4822 -1.1596  1.2279
 2051TIP3   OH227711   1.227   4.855   0.502  0.5087 -0.0725  0.3017
 2051TIP3    H127712   1.238   4.802   0.423  0.0973  0.2001  0.0624
 2051TIP3    H227713   1.277   4.808   0.569  1.4541  0.0726 -0.2823
 2052TIP3   OH227714   6.206   2.629   8.703  0.2327  0.1003 -0.1758
 2052TIP3    H127715   6.288   2.673   8.724 -0.1666  0.6609  0.2374
 2052TIP3    H227716   6.138   2.690   8.730 -0.3616 -1.2060  1.4555
 2053TIP3   OH227717   3.890   1.948   8.751  0.1491 -0.3238  0.0193
 2053TIP3    H127718   3.875   1.975   8.661  0.6374 -0.5654 -0.1355
 2053TIP3    H227719   3.892   2.030   8.801  2.8542  0.1022 -0.6161
 2054TIP3   OH227720   2.940   6.554   2.014  0.0522 -0.5319 -0.0912
 2054TIP3    H127721   2.880   6.523   2.082 -0.1778 -0.6951 -0.3657
 2054TIP3    H227722   2.943   6.649   2.025  0.9821 -0.6677  0.9446
 2055TIP3   OH227723   4.643   6.588   0.348 -0.6889 -0.0345 -0.0283
 2055TIP3    H127724   4.617   6.610   0.258 -1.7254  0.3421  0.3505
 2055TIP3    H227725   4.662   6.672   0.389  1.2278 -0.2947 -0.2938
 2056TIP3   OH227726   3.503   0.323   6.773  0.1196  0.3304  0.9472
 2056TIP3    H127727   3.443   0.391   6.804 -1.4665 -1.4245  1.9118
 2056TIP3    H227728   3.450   0.243   6.770  2.3814 -1.3178  1.8142
 2057TIP3   OH227729   0.947   4.011   2.108  0.0494 -0.2475 -0.2258
 2057TIP3    H127730   0.859   4.048   2.106 -0.2358 -0.8765  0.2628
 2057TIP3    H227731   1.003   4.084   2.133 -0.2532  0.2925 -1.0918
 2058TIP3   OH227732   0.592   5.682   2.819 -0.2210  0.3718 -0.0700
 2058TIP3    H127733   0.657   5.688   2.888 -1.1296 -2.0618  1.1128
 2058TIP3    H227734   0.539   5.762   2.828  1.2687  1.3410  0.3100
 2059TIP3   OH227735   2.329   4.325   0.970  0.5087  0.2745  0.1178
 2059TIP3    H127736   2.406   4.364   0.930  0.4379  0.8023  0.4942
 2059TIP3    H227737   2.293   4.268   0.902  0.8132  0.5885 -0.3060
 2060TIP3   OH227738   4.093   1.518   1.929 -0.4836 -0.2794 -0.4959
 2060TIP3    H127739   4.091   1.606   1.891  1.1634 -0.0430 -0.0664
 2060TIP3    H227740   4.001   1.491   1.929 -1.1436  1.7679  0.1417
 2061TIP3   OH227741   3.505   3.508   1.298 -0.1002  0.9088 -0.5240
 2061TIP3    H127742   3.469   3.577   1.242  0.3978  1.0337 -0.6940
 2061TIP3    H227743   3.464   3.427   1.265 -1.4828  1.2302  0.3510
 2062TIP3   OH227744   3.132   4.951   1.550  0.3881  0.3085  0.1640
 2062TIP3    H127745   3.125   5.006   1.628  2.3642  1.1308 -0.1756
 2062TIP3    H227746   3.193   4.882   1.575 -1.7521 -1.5739  0.4497
 2063TIP3   OH227747   1.295   4.441   2.747  0.8037 -0.1225 -0.1086
 2063TIP3    H127748   1.201   4.429   2.760  0.7819 -1.5675 -1.3256
 2063TIP3    H227749   1.332   4.438   2.835 -0.0485 -2.1121  0.2433
 2064TIP3   OH227750   5.402   6.232   7.129 -1.0189  0.0486  0.7138
 2064TIP3    H127751   5.428   6.191   7.047 -2.7218 -0.3779  0.3349
 2064TIP3    H227752   5.332   6.176   7.163  0.3669 -0.3927  3.0464
 2065TIP3   OH227753   4.240   5.186   0.087  0.2117 -0.1670 -0.2024
 2065TIP3    H127754   4.265   5.155   0.174 -1.0039  0.8169  0.5452
 2065TIP3    H227755   4.197   5.270   0.103 -1.1143 -0.5209 -1.6366
 2066TIP3   OH227756   3.524   3.321   7.939  0.4759  0.7266 -0.5001
 2066TIP3    H127757   3.525   3.413   7.911 -0.0262  0.7716 -0.3716
 2066TIP3    H227758   3.604   3.312   7.992  0.3913  1.1620 -0.2914
 2067TIP3   OH227759   5.618   2.260   7.152  0.0205 -0.2742 -0.2804
 2067TIP3    H127760   5.645   2.287   7.240  0.8085 -2.5069  0.2258
 2067TIP3    H227761   5.622   2.340   7.100 -0.8361  1.1787  1.7836
 2068TIP3   OH227762   4.278   0.455   2.203 -0.1297 -0.4420 -0.0527
 2068TIP3    H127763   4.263   0.399   2.127 -1.4895 -0.4879  0.2357
 2068TIP3    H227764   4.286   0.543   2.166  1.2855 -0.6926 -0.4294
 2069TIP3   OH227765   0.250   2.793   1.827  0.2032  0.4352  0.5164
 2069TIP3    H127766   0.237   2.727   1.759 -0.6212  0.7322  0.3738
 2069TIP3    H227767   0.186   2.862   1.806 -0.5651  0.2028  2.0035
 2070TIP3   OH227768   0.080   0.746   2.606  0.2913 -0.0640  0.1070
 2070TIP3    H127769   0.061   0.680   2.673  2.9730 -1.1111 -0.0609
 2070TIP3    H227770   0.024   0.820   2.630 -1.9058 -1.8987  1.0235
 2071TIP3   OH227771   0.807   3.063   0.353  0.4895  0.2771 -0.1678
 2071TIP3    H127772   0.747   3.136   0.342  0.2672 -0.1477 -2.0613
 2071TIP3    H227773   0.811   3.021   0.267  1.5500 -1.2161  0.5549
 2072TIP3   OH227774   3.226   3.673   0.576 -0.1630 -0.3196 -0.2508
 2072TIP3    H127775   3.267   3.730   0.641 -1.3748 -1.1187  1.2808
 2072TIP3    H227776   3.156   3.726   0.539 -1.5451 -0.8454  1.4538
 2073TIP3   OH227777   6.435   5.781   1.668  0.3805 -0.0858  0.4830
 2073TIP3    H127778   6.374   5.822   1.606  0.0742 -1.1752  0.0364
 2073TIP3    H227779   6.510   5.756   1.614  0.3209 -0.6114  0.6371
 2074TIP3   OH227780   2.238   4.770   1.179  0.1258 -0.2010 -0.7298
 2074TIP3    H127781   2.176   4.769   1.251 -0.3910 -2.5915 -1.1038
 2074TIP3    H227782   2.211   4.843   1.124 -0.7095  0.4101  0.4666
 2075TIP3   OH227783   5.693   1.508   2.984 -0.5995 -0.6396 -0.3267
 2075TIP3    H127784   5.648   1.589   2.958  0.1095  0.5825  1.9948
 2075TIP3    H227785   5.779   1.537   3.013  0.2054 -2.4505 -0.8145
 2076TIP3   OH227786   6.528   6.671   2.680  0.1998  0.5756 -0.1017
 2076TIP3    H127787   6.448   6.710   2.644 -0.6843 -1.1503 -0.0872
 2076TIP3    H227788   6.503   6.640   2.767  1.1191  0.7489  0.2353
 2077TIP3   OH227789   0.755   4.690   8.354  0.0704 -0.5158 -0.1954
 2077TIP3    H127790   0.704   4.650   8.424 -0.8394  0.1627 -0.4522
 2077TIP3    H227791   0.815   4.621   8.326 -1.7088 -1.8930 -0.8806
 2078TIP3   OH227792   4.340   6.620   8.672 -0.0144  0.1434  0.0550
 2078TIP3    H127793   4.409   6.673   8.632  0.1595  0.2752  0.5277
 2078TIP3    H227794   4.287   6.591   8.598 -0.4070  1.3855 -0.1681
 2079TIP3   OH227795   4.857   1.813   0.064 -0.2502 -0.0636 -0.4298
 2079TIP3    H127796   4.816   1.730   0.040 -1.2017  0.2924 -0.0940
 2079TIP3    H227797   4.929   1.788   0.123 -0.8330 -0.6191  0.0606
 2080TIP3   OH227798   6.802   2.590   2.416 -0.1793 -0.2845 -0.9878
 2080TIP3    H127799   6.794   2.495   2.424 -0.0141 -0.2139  0.1399
 2080TIP3    H227800   6.736   2.625   2.477  2.3228  0.3086  1.5765
 2081TIP3   OH227801   6.354   1.698   8.296  0.8028  0.0171  0.1219
 2081TIP3    H127802   6.352   1.754   8.374 -1.9877 -2.0974  1.7579
 2081TIP3    H227803   6.350   1.759   8.222  0.6375  2.0225  1.7171
 2082TIP3   OH227804   2.619   1.501   2.143 -0.6357  0.6787  0.3296
 2082TIP3    H127805   2.619   1.588   2.102 -0.0489  0.1811 -0.7559
 2082TIP3    H227806   2.702   1.462   2.116 -0.7146 -0.0748  1.1453
 2083TIP3   OH227807   5.276   3.837   1.652 -0.3591 -0.4064  0.3639
 2083TIP3    H127808   5.205   3.821   1.590 -0.5080  0.2570  0.3471
 2083TIP3    H227809   5.269   3.766   1.716 -2.1076  0.5480  1.3104
 2084TIP3   OH227810   4.052   0.080   0.757  0.5450 -0.0150 -0.0362
 2084TIP3    H127811   4.065   0.172   0.731  1.7317 -0.2448 -0.3192
 2084TIP3    H227812   3.969   0.055   0.716  0.3239  0.8691 -0.1470
 2085TIP3   OH227813   2.723   1.948   0.445  1.1445 -0.5142  0.2771
 2085TIP3    H127814   2.753   2.027   0.399 -1.5588  0.2657 -0.3541
 2085TIP3    H227815   2.777   1.944   0.524  1.2151  2.1786  0.4567
 2086TIP3   OH227816   4.165   1.121   8.562  0.1338 -0.1605  0.2502
 2086TIP3    H127817   4.229   1.068   8.609  0.6411 -0.2071 -0.4746
 2086TIP3    H227818   4.217   1.174   8.501 -0.3960  0.8219  0.6212
 2087TIP3   OH227819   1.467   4.950   0.650  0.4315  0.2919 -0.5218
 2087TIP3    H127820   1.487   5.027   0.703 -1.8270  0.4913  0.1258
 2087TIP3    H227821   1.489   4.977   0.560  0.6687  1.3099 -0.1710
 2088TIP3   OH227822   6.781   6.087   0.402  0.2462  0.4296  0.1629
 2088TIP3    H127823   6.777   5.992   0.389  0.4933  0.3747  0.4788
 2088TIP3    H227824   6.803   6.122   0.316  0.3203  0.1865  0.0808
 2089TIP3   OH227825   1.645   2.661   8.511  0.2845  0.0791 -0.0249
 2089TIP3    H127826   1.711   2.704   8.566 -1.2657  3.4508 -0.5644
 2089TIP3    H227827   1.665   2.691   8.423 -1.2194  0.1124 -0.3696
 2090TIP3   OH227828   5.246   4.088   3.050 -0.3083 -0.2461 -0.1385
 2090TIP3    H127829   5.170   4.044   3.089 -0.8640 -0.5626 -1.5296
 2090TIP3    H227830   5.209   4.151   2.989  0.5109  1.5662  1.1394
 2091TIP3   OH227831   4.974   2.501   2.110  0.1674 -0.0032 -0.1338
 2091TIP3    H127832   4.969   2.511   2.205  1.1064  0.8427 -0.1683
 2091TIP3    H227833   4.944   2.584   2.075  0.2667 -0.1512 -0.5769
 2092TIP3   OH227834   1.374   0.176   0.631  0.1177  0.5969  0.2974
 2092TIP3    H127835   1.372   0.181   0.535 -2.7097 -1.6119  0.1065
 2092TIP3    H227836   1.404   0.262   0.659  1.0552  1.3072 -2.5468
 2093TIP3   OH227837   0.462   5.686   7.174 -0.8156 -0.1725  0.1086
 2093TIP3    H127838   0.551   5.689   7.209 -1.7647 -0.0054  2.7215
 2093TIP3    H227839   0.450   5.596   7.143 -0.0142 -0.3995  0.4489
 2094TIP3   OH227840   1.102   1.180   8.110  0.2475  0.0805 -0.1074
 2094TIP3    H127841   1.033   1.181   8.044  0.6620  0.1361 -0.5384
 2094TIP3    H227842   1.059   1.212   8.190 -0.3261 -0.2638 -0.2732
 2095TIP3   OH227843   4.318   5.472   1.086  0.0440 -0.3321 -0.0193
 2095TIP3    H127844   4.232   5.434   1.071 -0.1169  0.3012 -0.7737
 2095TIP3    H227845   4.367   5.452   1.006 -0.0349  0.9823 -0.4156
 2096TIP3   OH227846   1.614   3.012   8.551 -0.2509  0.1316  0.0479
 2096TIP3    H127847   1.651   3.042   8.634 -1.2468  0.5121  0.3548
 2096TIP3    H227848   1.546   2.950   8.576 -1.7091  1.4955 -0.4049
 2097TIP3   OH227849   0.837   3.655   0.447  0.5471  0.4646 -0.4195
 2097TIP3    H127850   0.865   3.569   0.478  0.6506  0.7679  0.3479
 2097TIP3    H227851   0.830   3.708   0.526 -0.9310  0.7699 -0.7316
 2098TIP3   OH227852   2.724   2.278   2.509  0.1012 -0.1634 -0.5828
 2098TIP3    H127853   2.630   2.296   2.498 -0.3816 -1.2533  1.3387
 2098TIP3    H227854   2.737   2.193   2.467  0.6734  0.7750 -2.4458
 2099TIP3   OH227855   0.697   1.814   7.619  0.2242 -0.5329  0.1312
 2099TIP3    H127856   0.695   1.817   7.714 -1.0946  1.0823  0.1015
 2099TIP3    H227857   0.738   1.730   7.598  0.2938 -1.0342  2.1039
 2100TIP3   OH227858   2.065   6.694   8.018 -0.0404 -0.2092 -0.5544
 2100TIP3    H127859   1.982   6.738   8.006  0.2448  0.2064 -1.0332
 2100TIP3    H227860   2.117   6.719   7.942  0.7950  0.1669  0.1187
 2101TIP3   OH227861   6.725   3.040   1.010  0.1080  0.0119 -0.4938
 2101TIP3    H127862   6.731   3.112   0.947 -0.2512 -0.0302 -0.5761
 2101TIP3    H227863   6.682   2.970   0.962 -0.6898  0.1751 -0.0336
 2102TIP3   OH227864   4.205   2.030   7.081  0.2297  0.2758 -0.5947
 2102TIP3    H127865   4.134   1.970   7.105  1.3308 -0.4757  0.8904
 2102TIP3    H227866   4.164   2.091   7.019 -1.4622 -0.7093 -0.5150
 2103TIP3   OH227867   4.559   6.092   7.840 -0.3190 -0.6208  0.4039
 2103TIP3    H127868   4.587   6.073   7.750 -2.5583  0.2103 -0.5374
 2103TIP3    H227869   4.606   6.173   7.862 -0.9103  0.0344 -0.6347
 2104TIP3   OH227870   4.270   5.737   1.702  0.1856  0.1646 -0.9365
 2104TIP3    H127871   4.211   5.663   1.690  1.1679 -1.1937  1.9001
 2104TIP3    H227872   4.358   5.700   1.691  0.6576  1.1941 -0.7370
 2105TIP3   OH227873   6.076   1.308   2.703 -0.2026 -0.4410 -0.4221
 2105TIP3    H127874   6.132   1.230   2.698 -1.7955 -1.5647 -2.5910
 2105TIP3    H227875   5.993   1.276   2.737 -0.6292  0.4815 -0.5695
 2106TIP3   OH227876   6.057   1.807   7.174  0.1049 -0.1789 -0.3808
 2106TIP3    H127877   6.053   1.888   7.224 -0.1955 -0.0576 -0.5966
 2106TIP3    H227878   6.136   1.815   7.120  0.0001  0.0312 -0.5029
 2107TIP3   OH227879   5.070   2.861   1.218  0.1515  0.2892 -0.0291
 2107TIP3    H127880   5.140   2.861   1.153  0.2097  1.2192  0.0191
 2107TIP3    H227881   5.109   2.822   1.296  0.5432  0.5782 -0.0787
 2108TIP3   OH227882   6.281   4.410   1.534  0.0025  0.4351  0.2567
 2108TIP3    H127883   6.304   4.468   1.607  0.3691 -0.2435  0.6906
 2108TIP3    H227884   6.217   4.460   1.483 -0.3016  0.8899  1.0739
 2109TIP3   OH227885   6.711   5.581   1.845  0.4225  0.4118 -0.2763
 2109TIP3    H127886   6.621   5.553   1.864  0.9846 -0.2544  1.5521
 2109TIP3    H227887   6.765   5.506   1.867  1.2624 -0.8989 -5.4528
 2110TIP3   OH227888   5.231   0.206   1.885 -0.1355 -0.1680  0.0395
 2110TIP3    H127889   5.136   0.202   1.902  0.0677  0.3080  1.4379
 2110TIP3    H227890   5.261   0.281   1.935  1.2654 -1.4097  1.1562
 2111TIP3   OH227891   0.460   0.604   1.451 -0.4063  0.1528 -0.2418
 2111TIP3    H127892   0.530   0.574   1.393 -0.9350 -0.2219 -0.6991
 2111TIP3    H227893   0.467   0.548   1.528  0.4451  0.8045  0.1600
 2112TIP3   OH227894   3.698   0.303   0.175 -0.1369 -0.5994  0.0142
 2112TIP3    H127895   3.653   0.382   0.205 -0.4107 -0.3147 -1.1011
 2112TIP3    H227896   3.651   0.277   0.096  1.5057 -0.4308 -1.0662
 2113TIP3   OH227897   0.313   0.072   0.888 -0.5202 -0.3044  0.3979
 2113TIP3    H127898   0.271   0.053   0.972  0.5985  0.2556  1.1043
 2113TIP3    H227899   0.394   0.022   0.889 -0.6493 -0.5645 -0.5142
 2114TIP3   OH227900   6.275   0.665   2.686 -0.2846  0.2267  0.2962
 2114TIP3    H127901   6.323   0.734   2.732 -0.1263  1.1666 -1.2243
 2114TIP3    H227902   6.220   0.625   2.754  1.7007 -0.0670  1.8174
 2115TIP3   OH227903   3.876   2.462   8.755 -0.0673 -0.0938 -0.2465
 2115TIP3    H127904   3.801   2.421   8.711 -1.7354  1.5886  0.8868
 2115TIP3    H227905   3.911   2.523   8.691 -0.3782 -0.0569 -0.3841
 2116TIP3   OH227906   2.234   0.091   8.586  0.3228  0.3866  0.3582
 2116TIP3    H127907   2.143   0.112   8.606 -0.2131 -0.6325 -0.8705
 2116TIP3    H227908   2.237   0.086   8.490  0.9283 -2.6327  0.4588
 2117TIP3   OH227909   2.054   3.710   0.475 -0.1725 -0.3318  0.7876
 2117TIP3    H127910   2.068   3.773   0.404  1.4890 -1.4923  0.0071
 2117TIP3    H227911   1.980   3.657   0.446  0.7951 -1.1076 -0.3720
 2118TIP3   OH227912   4.877   4.364   7.936 -0.5480 -0.4006  0.5431
 2118TIP3    H127913   4.798   4.413   7.913  1.2012  1.3916 -2.3368
 2118TIP3    H227914   4.874   4.285   7.882 -1.0815 -1.1481  1.6306
 2119TIP3   OH227915   0.068   5.307   3.093  0.6373  0.6172  0.6514
 2119TIP3    H127916   0.110   5.379   3.045 -0.5024  1.3313  0.6871
 2119TIP3    H227917  -0.016   5.344   3.123  0.2228 -0.5974  1.0389
 2120TIP3   OH227918   2.479   3.604   2.792  0.5915 -0.3089 -0.3157
 2120TIP3    H127919   2.560   3.632   2.835  0.8967  1.2903 -1.8182
 2120TIP3    H227920   2.500   3.517   2.757  2.0068  0.4246 -1.4293
 2121TIP3   OH227921   1.270   6.680   1.355  0.1577  0.3437 -0.0147
 2121TIP3    H127922   1.241   6.698   1.265  1.6940 -1.8642 -1.0599
 2121TIP3    H227923   1.221   6.602   1.381  2.5699 -1.4865 -0.5831
 2122TIP3   OH227924   2.010   2.848   1.828 -0.2655  0.6923 -0.1736
 2122TIP3    H127925   2.014   2.826   1.921  0.9726  2.7320  0.3131
 2122TIP3    H227926   1.918   2.840   1.805 -0.6191  0.3292  1.2796
 2123TIP3   OH227927   4.370   5.830   8.641 -0.4316 -0.0013 -0.6842
 2123TIP3    H127928   4.428   5.906   8.633 -1.5251  1.1682  1.4023
 2123TIP3    H227929   4.315   5.834   8.563 -0.8269  1.7390 -0.3721
 2124TIP3   OH227930   5.575   4.731   8.410  0.3055 -0.1472  0.2878
 2124TIP3    H127931   5.589   4.681   8.330 -2.5192  1.0991 -1.1675
 2124TIP3    H227932   5.636   4.805   8.404 -1.5158  1.3338 -2.1603
 2125TIP3   OH227933   4.633   5.931   2.257 -0.2324 -0.1966 -0.3024
 2125TIP3    H127934   4.666   5.854   2.304 -1.8728 -1.0977 -0.5342
 2125TIP3    H227935   4.675   6.005   2.299 -1.8137 -0.9119  2.8338
 2126TIP3   OH227936   1.476   5.156   8.396 -0.0953 -0.1915 -0.5792
 2126TIP3    H127937   1.525   5.157   8.314  1.1639  0.3592  0.1421
 2126TIP3    H227938   1.419   5.233   8.392  1.9974  1.5093  0.1790
 2127TIP3   OH227939   2.772   6.319   7.925  0.3888 -0.4260  0.2435
 2127TIP3    H127940   2.701   6.359   7.875  0.2643  1.3973  1.7641
 2127TIP3    H227941   2.852   6.360   7.890  0.4915 -0.7601  0.0842
 2128TIP3   OH227942   4.967   3.444   1.357  0.0613 -0.6454 -0.6534
 2128TIP3    H127943   4.897   3.411   1.414 -0.2946  0.9840 -0.1019
 2128TIP3    H227944   4.993   3.368   1.305 -2.5237 -1.1916 -1.3000
 2129TIP3   OH227945   4.485   1.050   7.148 -0.5676  0.2321  0.2885
 2129TIP3    H127946   4.518   1.118   7.207  1.3136 -0.4060  0.0316
 2129TIP3    H227947   4.491   1.089   7.061  0.0796 -0.0925  0.1849
 2130TIP3   OH227948   6.569   6.767   1.746  0.4480  0.3866  0.2505
 2130TIP3    H127949   6.664   6.761   1.739  0.2920 -1.5805 -1.2504
 2130TIP3    H227950   6.539   6.676   1.744 -1.4412  0.9297  1.4487
 2131TIP3   OH227951   0.112   3.461   8.344 -0.0301  0.0802  0.3789
 2131TIP3    H127952   0.020   3.449   8.322 -0.0713 -1.6252  1.3076
 2131TIP3    H227953   0.152   3.497   8.265 -1.2894 -0.1088 -0.3586
 2132TIP3   OH227954   4.305   2.564   7.017 -0.4509 -0.1584  0.1241
 2132TIP3    H127955   4.210   2.575   7.025 -0.2747  0.8623  1.0893
 2132TIP3    H227956   4.340   2.653   7.019  0.6281 -0.5731  1.4995
 2133TIP3   OH227957   5.726   5.123   7.585 -0.0396  0.2931 -0.0789
 2133TIP3    H127958   5.680   5.183   7.527 -0.0826 -0.5309 -0.9090
 2133TIP3    H227959   5.804   5.096   7.536 -0.1038 -0.4511  0.2132
 2134TIP3   OH227960   2.829   1.276   0.685  0.0242 -0.3214 -0.6801
 2134TIP3    H127961   2.857   1.367   0.689  0.8782 -0.5911 -0.2471
 2134TIP3    H227962   2.763   1.268   0.754  1.5363 -0.5501  0.7773
 2135TIP3   OH227963   4.344   0.624   8.714  0.1543 -0.1046 -0.2831
 2135TIP3    H127964   4.254   0.593   8.703 -0.7667  1.8220  1.2169
 2135TIP3    H227965   4.344   0.668   8.799  3.2421 -2.3907  1.1251
 2136TIP3   OH227966   5.850   5.429   8.360 -0.0817 -0.1386  0.2053
 2136TIP3    H127967   5.837   5.502   8.420 -0.8006  0.4590 -0.6450
 2136TIP3    H227968   5.889   5.469   8.282  1.2606 -0.9737  0.4298
 2137TIP3   OH227969   4.118   3.582   1.594 -0.0729 -0.4757  0.5421
 2137TIP3    H127970   4.072   3.657   1.557  1.1430 -0.5160 -1.1787
 2137TIP3    H227971   4.058   3.546   1.658 -2.1712 -0.1710 -1.1460
 2138TIP3   OH227972   1.616   5.814   3.659 -0.1570  0.0680 -0.2875
 2138TIP3    H127973   1.644   5.807   3.567  0.1561  0.5548 -0.2305
 2138TIP3    H227974   1.681   5.763   3.707  0.4790  0.9595 -0.1874
 2139TIP3   OH227975   6.581   4.627   2.199  0.3549  0.1668  0.1529
 2139TIP3    H127976   6.603   4.592   2.285 -0.2506 -1.0613 -0.1757
 2139TIP3    H227977   6.570   4.550   2.144  2.6350  0.9239 -1.5468
 2140TIP3   OH227978   1.305   3.616   0.819 -0.3658  0.2356 -0.0192
 2140TIP3    H127979   1.260   3.674   0.757  0.3338  0.9509  0.1115
 2140TIP3    H227980   1.398   3.624   0.795 -0.1404  0.1298  0.7859
 2141TIP3   OH227981   2.960   6.272   0.258 -0.2105 -0.2654  0.6919
 2141TIP3    H127982   2.866   6.288   0.264 -0.1678 -0.2313  1.3635
 2141TIP3    H227983   2.978   6.270   0.164 -0.7832  0.3016  0.5616
 2142TIP3   OH227984   4.820   3.437   8.729 -0.3627 -0.1668 -0.0941
 2142TIP3    H127985   4.813   3.531   8.745  1.5192 -0.0389  0.1683
 2142TIP3    H227986   4.743   3.400   8.773 -0.6087  1.1454  0.6508
 2143TIP3   OH227987   5.612   6.034   2.651 -0.0662  0.7723  0.2265
 2143TIP3    H127988   5.682   5.984   2.609  0.5170  0.2832  1.7145
 2143TIP3    H227989   5.534   6.016   2.598  0.8002  0.8575 -1.1056
 2144TIP3   OH227990   4.291   5.155   0.375 -0.0581 -0.6008  0.4277
 2144TIP3    H127991   4.228   5.167   0.446 -0.0224 -1.5128  0.6260
 2144TIP3    H227992   4.335   5.240   0.366  1.2350 -0.9548  2.7364
 2145TIP3   OH227993   1.047   2.306   1.301 -0.1542 -0.5710  0.2490
 2145TIP3    H127994   1.014   2.242   1.237  0.2074  0.5215 -1.0694
 2145TIP3    H227995   1.001   2.387   1.280  1.3578  0.3004  0.0987
 2146TIP3   OH227996   5.612   2.274   0.552 -0.0080  0.4861  0.3273
 2146TIP3    H127997   5.563   2.328   0.489 -1.4052 -1.1228 -0.0695
 2146TIP3    H227998   5.652   2.205   0.498  0.1653  0.0393  1.0109
 2147TIP3   OH227999   6.553   4.012   0.859  0.2434  0.0375  0.2590
 2147TIP3    H128000   6.530   3.922   0.838  0.5507 -0.4512  1.8522
 2147TIP3    H228001   6.478   4.064   0.832 -0.9583 -1.0011  1.4894
 2148TIP3   OH228002   0.984   1.698   1.862  0.0007 -0.1965  0.1131
 2148TIP3    H128003   0.997   1.650   1.943 -1.3692  1.2166  1.2326
 2148TIP3    H228004   0.892   1.725   1.864  0.5900  2.1209 -0.6174
 2149TIP3   OH228005   1.506   4.461   2.518 -0.0375  0.5230 -0.1113
 2149TIP3    H128006   1.543   4.417   2.442  1.6345  1.0416  0.3386
 2149TIP3    H228007   1.483   4.390   2.578  0.8233  0.1723 -0.1744
 2150TIP3   OH228008   4.672   3.759   0.272  0.1811  0.2725 -0.1277
 2150TIP3    H128009   4.682   3.697   0.344  2.6778  3.5365  2.7301
 2150TIP3    H228010   4.579   3.783   0.275  0.0019 -0.4471  1.3659
 2151TIP3   OH228011   5.520   0.266   2.423 -0.0305  0.2840  0.1998
 2151TIP3    H128012   5.502   0.181   2.382 -1.4446 -0.2834  1.8448
 2151TIP3    H228013   5.441   0.317   2.408  0.1043  0.6657  0.7477
 2152TIP3   OH228014   6.073   0.133   0.606  0.3631 -0.1423 -0.9165
 2152TIP3    H128015   5.999   0.186   0.635  0.3228 -1.1594  1.0377
 2152TIP3    H228016   6.144   0.196   0.593  0.5018  0.4548  1.9455
 2153TIP3   OH228017   5.880   3.051   1.112  0.0517  0.3414 -0.0106
 2153TIP3    H128018   5.791   3.014   1.112 -0.0539  0.5903  0.5662
 2153TIP3    H228019   5.870   3.137   1.071 -0.0717  0.5952  0.5471
 2154TIP3   OH228020   5.192   0.209   2.318  1.0670  0.6249  0.4355
 2154TIP3    H128021   5.104   0.243   2.300  1.1017  0.8079  0.6144
 2154TIP3    H228022   5.189   0.118   2.287  0.9404  0.7550  0.0593
 2155TIP3   OH228023   5.332   2.094   8.529 -0.7954 -0.4523 -0.4249
 2155TIP3    H128024   5.303   2.175   8.487  0.2288  0.1431 -0.0280
 2155TIP3    H228025   5.322   2.027   8.461 -0.5944  0.2143 -1.1342
 2156TIP3   OH228026   5.958   6.284   8.022 -0.2652 -0.5635 -0.4330
 2156TIP3    H128027   5.974   6.261   7.931  0.8745  1.2824 -0.7313
 2156TIP3    H228028   6.038   6.256   8.068 -0.4173 -0.5567 -0.1619
 2157TIP3   OH228029   5.384   5.174   0.534  0.3405 -0.0260  0.0194
 2157TIP3    H128030   5.459   5.233   0.538  1.1262 -1.0424  1.3399
 2157TIP3    H228031   5.380   5.135   0.622 -1.4359 -0.3738 -0.1816
 2158TIP3   OH228032   0.771   5.732   3.031 -0.3387  0.5804 -0.2544
 2158TIP3    H128033   0.863   5.707   3.031 -0.8162 -1.5437  1.6182
 2158TIP3    H228034   0.772   5.828   3.039  1.6808  0.6677 -1.0454
 2159TIP3   OH228035   2.851   6.304   8.757  0.4986 -0.4534  0.3258
 2159TIP3    H128036   2.849   6.362   8.681  1.1090 -1.2514 -0.3130
 2159TIP3    H228037   2.768   6.255   8.753  0.2622 -0.0727  0.5169
 2160TIP3   OH228038   4.789   3.860   1.596 -0.1030 -0.5788  0.3183
 2160TIP3    H128039   4.708   3.814   1.614 -0.4944 -0.4416 -0.9909
 2160TIP3    H228040   4.771   3.952   1.617 -0.3588 -0.5158 -0.1695
 2161TIP3   OH228041   2.819   3.700   7.745  0.2697  0.2465 -0.1065
 2161TIP3    H128042   2.864   3.622   7.712  1.7549  0.7766  0.5877
 2161TIP3    H228043   2.786   3.743   7.667  1.0686 -0.1125 -0.6564
 2162TIP3   OH228044   1.034   6.338   7.852 -0.2912 -0.6538  0.3763
 2162TIP3    H128045   1.062   6.414   7.802  1.7761 -1.4720  0.1887
 2162TIP3    H228046   1.021   6.269   7.786 -1.2072 -0.7385  0.6310
 2163TIP3   OH228047   5.165   1.014   7.469  0.6473  0.5140 -0.1524
 2163TIP3    H128048   5.257   0.989   7.478  0.6763  0.8650  0.5702
 2163TIP3    H228049   5.119   0.931   7.452  1.2172  0.4657 -1.6440
 2164TIP3   OH228050   4.717   6.036   7.631 -0.4534 -0.0450 -0.0324
 2164TIP3    H128051   4.794   5.981   7.640 -0.3380  0.3521  1.7678
 2164TIP3    H228052   4.728   6.081   7.547  1.4593  0.3097  0.3853
 2165TIP3   OH228053   5.735   2.662   3.066 -0.6566  0.4218 -0.0696
 2165TIP3    H128054   5.820   2.658   3.111 -0.4303 -0.8059 -0.5784
 2165TIP3    H228055   5.718   2.756   3.057  0.6097  0.6911  0.1005
 2166TIP3   OH228056   6.651   5.741   2.538  0.0284 -0.0200  0.0971
 2166TIP3    H128057   6.733   5.709   2.575  0.6223  1.5273  0.1825
 2166TIP3    H228058   6.584   5.682   2.574  0.8652 -0.0559  1.6791
 2167TIP3   OH228059   4.110   1.234   0.539  0.1512 -0.0296  0.0361
 2167TIP3    H128060   4.129   1.325   0.516  0.1553 -0.5706 -2.3653
 2167TIP3    H228061   4.031   1.213   0.489  0.0353 -1.2975  0.7161
 2168TIP3   OH228062   4.695   1.277   0.747 -0.0557  0.1123 -0.0484
 2168TIP3    H128063   4.721   1.186   0.764 -1.2258 -0.7895 -2.5896
 2168TIP3    H228064   4.714   1.323   0.829 -0.0854 -2.5535  1.5802
 2169TIP3   OH228065   4.525   4.476   2.301 -0.3346 -0.1506  0.5419
 2169TIP3    H128066   4.513   4.392   2.257 -0.8284 -0.7848  1.8146
 2169TIP3    H228067   4.483   4.464   2.387 -0.3554  1.3756  0.7730
 2170TIP3   OH228068   6.741   5.440   8.051 -0.2213  0.9489 -0.4856
 2170TIP3    H128069   6.824   5.431   8.097 -0.5288  0.9254  0.0716
 2170TIP3    H228070   6.703   5.352   8.053 -0.4137  1.0326 -0.4416
 2171TIP3   OH228071   5.105   0.771   0.770  0.3311  0.0591 -0.1334
 2171TIP3    H128072   5.074   0.852   0.810 -0.8022  0.6756 -2.1541
 2171TIP3    H228073   5.029   0.714   0.769  1.1858 -1.2152  1.5257
 2172TIP3   OH228074   5.364   4.834   7.337 -0.1842  0.3648  0.7267
 2172TIP3    H128075   5.406   4.910   7.377 -1.4779  0.2076  2.4894
 2172TIP3    H228076   5.272   4.843   7.358 -0.3777 -1.7317  1.0719
 2173TIP3   OH228077   0.576   0.475   2.874  0.2526 -0.3088 -0.2396
 2173TIP3    H128078   0.558   0.382   2.860 -0.0471 -0.3181  0.1505
 2173TIP3    H228079   0.553   0.490   2.966 -1.3762  0.5168 -0.7236
 2174TIP3   OH228080   4.455   6.556   6.892 -0.7538 -0.0004 -0.2144
 2174TIP3    H128081   4.405   6.589   6.818 -1.7815  2.1058  1.3034
 2174TIP3    H228082   4.504   6.633   6.924  2.1608 -1.5557 -0.5402
 2175TIP3   OH228083   4.714   0.775   0.044  0.6716 -0.2744  0.0398
 2175TIP3    H128084   4.635   0.828   0.031  1.8034  0.9292 -2.5070
 2175TIP3    H228085   4.743   0.753  -0.044  3.8679  0.3805  0.8098
 2176TIP3   OH228086   2.471   3.659   2.225  0.4765  0.1742  0.4003
 2176TIP3    H128087   2.526   3.733   2.200 -1.1294  1.0413 -0.7978
 2176TIP3    H228088   2.512   3.583   2.184  0.2013  0.9649 -1.4435
 2177TIP3   OH228089   5.612   5.251   1.050 -0.5723  0.6761 -0.1238
 2177TIP3    H128090   5.567   5.306   0.986 -0.2184  2.4148  1.0584
 2177TIP3    H228091   5.623   5.307   1.126  0.0058 -0.9917  1.0763
 2178TIP3   OH228092   5.357   1.892   7.047  0.3519  0.2370  0.4301
 2178TIP3    H128093   5.276   1.863   7.089 -0.6862  0.5261 -1.2882
 2178TIP3    H228094   5.387   1.816   6.997  0.8705  0.2852  0.6669
 2179TIP3   OH228095   1.448   3.213   0.009  0.0324  0.1091 -0.1308
 2179TIP3    H128096   1.410   3.141   0.059 -0.5922  1.0976  0.8915
 2179TIP3    H228097   1.383   3.232  -0.059  0.4693 -0.6600 -0.7718
 2180TIP3   OH228098   1.796   1.425   2.533  0.6225 -0.4720 -0.2721
 2180TIP3    H128099   1.874   1.384   2.495  1.0831  0.6520 -0.5886
 2180TIP3    H228100   1.755   1.471   2.460 -0.0690 -0.6407  0.0026
 2181TIP3   OH228101   6.310   0.146   2.750  0.2501  0.3635  0.0901
 2181TIP3    H128102   6.258   0.205   2.804 -0.2353 -0.1784  0.2257
 2181TIP3    H228103   6.367   0.100   2.811  2.4681  2.4500 -0.2484
 2182TIP3   OH228104   3.040   2.981   8.716 -0.2986  0.1208  0.1949
 2182TIP3    H128105   3.013   3.064   8.678 -0.9510  0.5276  1.4916
 2182TIP3    H228106   3.135   2.981   8.709 -0.3966  0.0358 -1.6657
 2183TIP3   OH228107   0.925   6.443   8.241 -0.2379  0.2991  0.2371
 2183TIP3    H128108   0.896   6.461   8.151 -1.2986  1.0653  0.7051
 2183TIP3    H228109   1.015   6.412   8.232  0.7737  3.2240 -0.8869
 2184TIP3   OH228110   0.736   2.208   0.971  0.6733 -0.2601 -0.4344
 2184TIP3    H128111   0.748   2.145   0.900  1.5779  0.2952 -0.7852
 2184TIP3    H228112   0.723   2.292   0.927 -2.8590 -0.4741 -0.0607
 2185TIP3   OH228113   2.984   5.780   0.993  0.6107 -0.3330  0.0911
 2185TIP3    H128114   3.040   5.735   1.056  1.1255  0.4771  0.2232
 2185TIP3    H228115   3.038   5.852   0.960 -1.0963  1.9929  2.0019
 2186TIP3   OH228116   2.139   2.260   0.620  0.7467 -0.1663 -0.8776
 2186TIP3    H128117   2.074   2.259   0.690  1.5275  0.4605 -0.1219
 2186TIP3    H228118   2.221   2.237   0.664  1.8378  3.1194 -0.9542
 2187TIP3   OH228119   3.279   0.764   1.765 -0.0567 -0.4337  0.5227
 2187TIP3    H128120   3.330   0.704   1.711 -1.8926 -0.5451 -1.1620
 2187TIP3    H228121   3.232   0.708   1.826  1.8024 -0.3246  2.1536
 2188TIP3   OH228122   6.467   6.488   2.072 -0.5283  0.3457 -0.3637
 2188TIP3    H128123   6.508   6.574   2.079 -1.4574  0.7547  0.2977
 2188TIP3    H228124   6.537   6.426   2.091  0.6975  0.8223 -2.9216
 2189TIP3   OH228125   3.891   3.271   2.343  0.3168 -0.4061 -0.4490
 2189TIP3    H128126   3.967   3.269   2.285  1.0940 -3.0262  0.5182
 2189TIP3    H228127   3.841   3.193   2.318 -2.3736  1.4484 -1.3426
 2190TIP3   OH228128   0.904   1.908   8.251 -0.2370 -0.2339 -0.1647
 2190TIP3    H128129   0.823   1.956   8.272  0.1155 -0.0506  0.8300
 2190TIP3    H228130   0.881   1.855   8.175 -1.4389 -0.5460  0.3909
 2191TIP3   OH228131   0.016   3.782   2.044  0.2818 -0.2239 -0.3993
 2191TIP3    H128132  -0.003   3.705   2.097 -1.5802  0.3241 -0.1911
 2191TIP3    H228133  -0.005   3.756   1.955  0.4345 -0.1943 -0.4450
 2192TIP3   OH228134   6.115   4.901   0.061  0.3443  0.1963  0.3081
 2192TIP3    H128135   6.132   4.942  -0.023 -0.4387 -0.6662 -0.2887
 2192TIP3    H228136   6.121   4.807   0.044  1.0628  0.0152  1.4116
 2193TIP3   OH228137   3.977   2.799   2.258 -0.6548 -1.0634 -0.1747
 2193TIP3    H128138   3.984   2.894   2.249  0.6238 -1.1242 -0.1220
 2193TIP3    H228139   4.027   2.780   2.338 -1.0540 -1.7654 -0.0875
 2194TIP3   OH228140   4.220   3.912   2.719 -0.1969 -0.5659  0.3604
 2194TIP3    H128141   4.300   3.911   2.772  0.5063  0.7036 -0.6276
 2194TIP3    H228142   4.218   3.826   2.676  0.9681 -0.3797 -0.0796
 2195TIP3   OH228143   5.875   2.403   8.742  0.2074 -0.4061  0.7455
 2195TIP3    H128144   5.873   2.436   8.832 -1.6756  0.0872  0.5795
 2195TIP3    H228145   5.802   2.448   8.699 -0.4873 -2.4601 -0.3715
 2196TIP3   OH228146   6.342   3.369   8.718  0.2970 -0.5296 -0.6586
 2196TIP3    H128147   6.258   3.326   8.734 -0.1332 -0.1078 -1.7301
 2196TIP3    H228148   6.397   3.341   8.791  0.6343 -4.3865 -2.1397
 2197TIP3   OH228149   5.064   0.468   7.410  0.2470 -0.2676 -0.6929
 2197TIP3    H128150   4.973   0.442   7.417  0.1058 -0.3845 -2.5772
 2197TIP3    H228151   5.109   0.391   7.376  1.3423 -0.6728  1.5136
 2198TIP3   OH228152   2.124   3.593   1.320  0.7362 -1.1549  0.2642
 2198TIP3    H128153   2.061   3.615   1.251  1.3434 -0.9684 -0.2358
 2198TIP3    H228154   2.103   3.503   1.343  0.8250 -1.3744 -0.4870
 2199TIP3   OH228155   2.713   1.777   0.092  0.1397  0.1232  0.8799
 2199TIP3    H128156   2.793   1.819   0.059 -1.0989  0.9035 -1.3419
 2199TIP3    H228157   2.643   1.838   0.071 -1.3469 -1.6063  0.5478
 2200TIP3   OH228158   1.427   2.230   1.831  0.5873  0.3078 -0.3970
 2200TIP3    H128159   1.502   2.183   1.794  0.4196 -0.4333  0.1882
 2200TIP3    H228160   1.351   2.185   1.794  0.3995 -0.9791  1.4389
 2201TIP3   OH228161   1.439   2.520   1.349 -0.3647 -0.1512 -0.6746
 2201TIP3    H128162   1.443   2.567   1.266 -2.3378  1.1094 -0.1368
 2201TIP3    H228163   1.400   2.435   1.326 -1.5251  0.4399 -0.9911
 2202TIP3   OH228164   0.162   2.125   2.535 -0.2754  0.5222  0.1547
 2202TIP3    H128165   0.102   2.074   2.589  0.5498 -0.8304 -0.1481
 2202TIP3    H228166   0.195   2.062   2.470 -0.0601  1.7181 -0.9383
 2203TIP3   OH228167   0.826   4.418   7.625 -0.4716  0.3091 -0.4623
 2203TIP3    H128168   0.831   4.338   7.677 -0.6912  0.7389  0.2194
 2203TIP3    H228169   0.753   4.467   7.662  0.8977  1.7470  0.4391
 2204TIP3   OH228170   3.976   4.789   0.951 -0.0085  0.0190  0.0167
 2204TIP3    H128171   3.905   4.725   0.958  0.3370 -0.3813 -0.1506
 2204TIP3    H228172   4.040   4.761   1.017 -1.4707  2.2803  2.5939
 2205TIP3   OH228173   6.512   3.398   3.062  0.0646 -0.2975 -0.2342
 2205TIP3    H128174   6.588   3.395   3.004  1.7708 -0.0328  1.8615
 2205TIP3    H228175   6.493   3.306   3.080  1.6830 -0.3696  1.3650
 2206TIP3   OH228176   1.376   4.287   0.429 -0.1508 -0.1250  0.2268
 2206TIP3    H128177   1.345   4.234   0.502 -1.3278  0.0960 -0.1025
 2206TIP3    H228178   1.314   4.359   0.422  1.7498  1.6813  1.0418
 2207TIP3   OH228179   3.876   3.814   1.558 -0.0701 -0.1017 -0.4898
 2207TIP3    H128180   3.825   3.738   1.588 -0.2982  0.2756  0.1048
 2207TIP3    H228181   3.830   3.889   1.596  2.0210  0.1580  1.7443
 2208TIP3   OH228182   5.950   4.553   1.771  0.4338 -0.0989  0.0957
 2208TIP3    H128183   5.903   4.622   1.725 -1.0173 -1.6230 -0.8027
 2208TIP3    H228184   5.979   4.494   1.702 -0.1967 -1.4859  0.9866
 2209TIP3   OH228185   1.989   4.827   1.575  0.2136  0.0037 -0.1881
 2209TIP3    H128186   2.037   4.861   1.651  1.8000 -1.2051 -0.5918
 2209TIP3    H228187   1.986   4.732   1.589  0.2144 -0.1985 -1.4445
 2210TIP3   OH228188   0.621   0.952   8.170 -0.1881  0.2015 -0.9216
 2210TIP3    H128189   0.710   0.916   8.169 -0.2009  0.1676 -0.7242
 2210TIP3    H228190   0.566   0.879   8.141 -0.5148 -0.7235  1.7939
 2211TIP3   OH228191   2.782   6.439   7.023 -0.8575 -0.4427 -0.2281
 2211TIP3    H128192   2.810   6.526   7.051 -1.5838  0.0242 -0.9202
 2211TIP3    H228193   2.810   6.381   7.095 -1.7222  0.5593  0.9656
 2212TIP3   OH228194   3.154   1.014   1.803  0.5160 -0.3926 -0.0646
 2212TIP3    H128195   3.170   0.920   1.797 -0.5128 -0.5164 -1.2950
 2212TIP3    H228196   3.210   1.043   1.874 -0.0497 -2.1355  1.1660
 2213TIP3   OH228197   0.673   0.501   7.198  0.3051  0.2765 -0.3501
 2213TIP3    H128198   0.663   0.586   7.155  0.7761 -0.3554 -1.7795
 2213TIP3    H228199   0.591   0.455   7.180 -0.8590  1.1707  2.2847
 2214TIP3   OH228200   0.732   0.795   1.914 -0.2046  0.2324  0.5051
 2214TIP3    H128201   0.711   0.719   1.968 -0.6905  0.0347  0.0554
 2214TIP3    H228202   0.652   0.809   1.863  1.4766 -2.1026 -3.1778
 2215TIP3   OH228203   0.791   5.186   2.169 -0.0004  0.3574  0.3777
 2215TIP3    H128204   0.746   5.160   2.088  1.2098 -0.1103 -0.1699
 2215TIP3    H228205   0.720   5.216   2.227 -1.0363 -0.5590 -0.3632
 2216TIP3   OH228206   0.950   0.657   1.742  0.3454  0.0350 -0.0685
 2216TIP3    H128207   1.018   0.631   1.804  0.2235  1.5230  0.7149
 2216TIP3    H228208   0.871   0.667   1.795  0.4491  2.2389 -0.2599
 2217TIP3   OH228209   2.106   2.341   8.507 -0.0519  0.2770 -0.0191
 2217TIP3    H128210   2.090   2.435   8.502  0.1232  0.2549 -1.0505
 2217TIP3    H228211   2.066   2.315   8.591  1.0476  1.4787  0.9224
 2218TIP3   OH228212   0.463   2.168   1.360 -0.1247  0.1496 -0.0172
 2218TIP3    H128213   0.525   2.129   1.299 -2.1046  0.5663 -2.4362
 2218TIP3    H228214   0.488   2.261   1.365 -0.1337  0.1725 -0.4272
 2219TIP3   OH228215   0.056   2.242   8.136 -0.3765 -0.3022  0.3024
 2219TIP3    H128216   0.145   2.206   8.137  1.0185  2.8585  0.3463
 2219TIP3    H228217   0.050   2.287   8.052 -2.6772 -1.9249 -0.5058
 2220TIP3   OH228218   1.805   5.296   1.092  0.1180  0.0470 -0.0256
 2220TIP3    H128219   1.895   5.281   1.063 -0.7306  0.6125 -3.4336
 2220TIP3    H228220   1.767   5.208   1.098  0.8261 -0.1931  1.4392
 2221TIP3   OH228221   6.473   4.691   2.797  0.2235  0.4854  0.1287
 2221TIP3    H128222   6.443   4.600   2.803 -0.1752  0.6488  0.6376
 2221TIP3    H228223   6.567   4.687   2.816  0.6096 -0.0549 -1.6379
 2222TIP3   OH228224   4.405   4.484   8.055  0.1614 -0.1126  0.1470
 2222TIP3    H128225   4.368   4.569   8.077  0.6973 -0.2700  1.7248
 2222TIP3    H228226   4.429   4.445   8.139  2.9082 -0.4661 -0.6953
 2223TIP3   OH228227   4.216   4.236   0.315  0.6608  0.1554  0.0813
 2223TIP3    H128228   4.122   4.253   0.317  0.7480  0.7117 -0.3415
 2223TIP3    H228229   4.242   4.252   0.225  1.0447 -0.6880  0.0299
 2224TIP3   OH228230   4.501   1.839   2.256 -0.4633  0.1225 -0.3356
 2224TIP3    H128231   4.588   1.804   2.235 -0.9037 -0.8207 -0.6722
 2224TIP3    H228232   4.448   1.817   2.180 -1.1812  0.0060  0.1899
 2225TIP3   OH228233   5.674   6.648   1.825 -0.0050 -0.5069 -0.2612
 2225TIP3    H128234   5.652   6.582   1.759 -0.3098 -0.0954 -0.5716
 2225TIP3    H228235   5.643   6.730   1.788 -0.2776 -0.2869  0.4481
 2226TIP3   OH228236   2.155   1.056   8.015  0.5290  0.0170 -0.7261
 2226TIP3    H128237   2.135   1.141   8.054  0.6220 -0.0398 -0.5511
 2226TIP3    H228238   2.230   1.024   8.067 -0.4733 -0.8566  0.2212
 2227TIP3   OH228239   3.107   4.681   0.259  0.3025  0.1732  0.4415
 2227TIP3    H128240   3.097   4.747   0.190 -1.3561  0.6577  1.1030
 2227TIP3    H228241   3.018   4.655   0.280  0.9092 -2.5253  0.0116
 2228TIP3   OH228242   0.889   6.386   8.760  0.6464 -0.4401 -0.5935
 2228TIP3    H128243   0.876   6.292   8.773 -0.1535 -0.1187  1.1588
 2228TIP3    H228244   0.831   6.408   8.687 -0.4717 -1.0014  0.1019
 2229TIP3   OH228245   0.335   4.676   1.004 -0.8869 -0.0938  0.0933
 2229TIP3    H128246   0.336   4.680   1.099 -0.0753  0.0828  0.0890
 2229TIP3    H228247   0.340   4.768   0.976 -1.9405 -0.0912 -0.1318
 2230TIP3   OH228248   5.606   0.783   0.703 -0.0074 -0.1539  0.1809
 2230TIP3    H128249   5.672   0.798   0.636  0.4989 -0.9122  0.4953
 2230TIP3    H228250   5.629   0.698   0.741 -0.3082  0.2329  1.2779
 2231TIP3   OH228251   1.956   4.246   0.520  0.0633  0.2510 -0.0490
 2231TIP3    H128252   1.969   4.175   0.583  1.2497 -1.4694 -2.0932
 2231TIP3    H228253   1.872   4.226   0.479  0.9683 -0.7677 -1.4976
 2232TIP3   OH228254   5.011   3.602   0.867 -0.5397  0.0711 -0.7358
 2232TIP3    H128255   5.094   3.631   0.906 -0.5042 -0.6878 -0.2188
 2232TIP3    H228256   5.022   3.617   0.773  0.3262 -0.3538 -0.7127
 2233TIP3   OH228257   0.828   5.070   7.459 -0.2469 -0.4240  0.9947
 2233TIP3    H128258   0.748   5.047   7.412 -0.4375 -0.4401  1.3257
 2233TIP3    H228259   0.805   5.149   7.509  0.5613  0.8752 -0.5791
 2234TIP3   OH228260   2.526   0.850   8.393  0.6449  0.4301  0.0188
 2234TIP3    H128261   2.616   0.860   8.423  0.4056  0.5798  0.6861
 2234TIP3    H228262   2.477   0.827   8.471  0.8107 -4.2246 -0.9957
 2235TIP3   OH228263   1.780   1.188   7.402 -0.6096  0.2426 -0.1462
 2235TIP3    H128264   1.763   1.227   7.316 -0.3376  0.5249 -0.0741
 2235TIP3    H228265   1.767   1.094   7.389 -0.1511  0.2374 -0.5979
 2236TIP3   OH228266   3.017   0.664   0.809 -0.3566  0.1323 -0.7995
 2236TIP3    H128267   3.076   0.723   0.762  1.8291  0.6052  2.2773
 2236TIP3    H228268   3.038   0.577   0.773  2.0531  0.3297 -0.0748
 2237TIP3   OH228269   0.233   6.207   1.007 -0.8169 -0.2085 -0.1806
 2237TIP3    H128270   0.267   6.222   0.918 -1.4362 -2.3018 -0.8208
 2237TIP3    H228271   0.268   6.280   1.058 -1.8377  2.0490 -2.4807
 2238TIP3   OH228272   2.325   5.206   7.981  0.7615 -0.8507  0.4390
 2238TIP3    H128273   2.266   5.191   7.907  0.2525  0.5070  0.5575
 2238TIP3    H228274   2.381   5.128   7.982  1.1420 -0.6693 -1.7211
 2239TIP3   OH228275   1.509   6.308   8.604 -0.5426 -1.1522  0.5971
 2239TIP3    H128276   1.563   6.376   8.644 -0.2212 -1.9612  1.5736
 2239TIP3    H228277   1.421   6.346   8.601 -0.2774 -0.5241  0.7065
 2240TIP3   OH228278   4.587   4.202   8.050  0.1211 -0.2894 -0.2970
 2240TIP3    H128279   4.598   4.243   7.965  0.6142  1.0455  0.3789
 2240TIP3    H228280   4.612   4.111   8.036  3.3273  0.5636 -0.9236
 2241TIP3   OH228281   0.327   0.004   1.482 -0.0209  0.4959 -0.2634
 2241TIP3    H128282   0.356  -0.069   1.537 -0.2379  1.0273  0.5842
 2241TIP3    H228283   0.406   0.032   1.436  0.3090  0.4338  0.2497
 2242TIP3   OH228284   0.050   3.204   3.260 -0.0721 -0.6436  0.3227
 2242TIP3    H128285  -0.002   3.271   3.216  0.0551  0.5091  1.8510
 2242TIP3    H228286   0.118   3.182   3.196  1.3974  2.5270  0.5713
 2243TIP3   OH228287   1.427   3.687   7.172  0.0172 -0.0202 -0.3954
 2243TIP3    H128288   1.362   3.745   7.211 -0.4192  0.9108 -2.3801
 2243TIP3    H228289   1.388   3.599   7.177 -0.2822  0.1585  0.6369
 2244TIP3   OH228290   3.369   6.464   0.523  0.1220 -0.0989 -0.0068
 2244TIP3    H128291   3.447   6.418   0.491  0.2792  1.2971 -1.8350
 2244TIP3    H228292   3.297   6.425   0.473  0.1748  1.1380 -1.0917
 2245TIP3   OH228293   3.733   0.438   1.236 -0.1736  0.0925  0.0676
 2245TIP3    H128294   3.800   0.432   1.168 -1.1775 -5.0911 -0.8795
 2245TIP3    H228295   3.782   0.432   1.318  0.7151 -0.8200 -0.5046
 2246TIP3   OH228296   2.850   2.493   0.965  0.0027  0.2186 -0.1333
 2246TIP3    H128297   2.932   2.537   0.944 -0.2211  0.9837  0.5260
 2246TIP3    H228298   2.869   2.442   1.044 -0.2655  0.7693  0.2962
 2247TIP3   OH228299   3.381   5.358   8.616 -0.5091 -0.2463  0.0291
 2247TIP3    H128300   3.469   5.359   8.578 -0.4200 -0.4605  0.2301
 2247TIP3    H228301   3.343   5.277   8.584  0.0875 -1.1834  1.5818
 2248TIP3   OH228302   2.456   6.200   3.353  0.4688  0.6904 -0.4532
 2248TIP3    H128303   2.484   6.290   3.337  0.3668  0.9993  0.9409
 2248TIP3    H228304   2.530   6.146   3.325  0.6729  1.2263 -0.9661
 2249TIP3   OH228305   0.419   0.899   1.341  0.3460  0.0345  0.5321
 2249TIP3    H128306   0.352   0.831   1.349  1.0793 -0.5690  1.9357
 2249TIP3    H228307   0.501   0.852   1.351  0.9053  1.0302  0.6966
 2250TIP3   OH228308   0.634   2.556   7.432 -0.1177  0.5616 -0.0172
 2250TIP3    H128309   0.636   2.557   7.336  0.8371  0.7872 -0.0095
 2250TIP3    H228310   0.669   2.470   7.456  0.5103  0.8498  0.1274
 2251TIP3   OH228311   1.959   2.039   8.465 -0.5024 -0.7994  0.1134
 2251TIP3    H128312   1.878   2.088   8.478  0.9518  1.7415  0.4726
 2251TIP3    H228313   1.964   2.023   8.371 -1.5172 -1.2088  0.1238
 2252TIP3   OH228314   3.138   2.937   2.762 -0.1031  0.3618 -0.2644
 2252TIP3    H128315   3.119   2.888   2.842  0.0594 -0.9483 -1.0021
 2252TIP3    H228316   3.133   3.029   2.788 -1.3833 -0.0195  0.9508
 2253TIP3   OH228317   1.070   6.454   0.839 -0.5934  0.1284 -0.3850
 2253TIP3    H128318   0.982   6.423   0.858 -0.5226  0.8126  1.2069
 2253TIP3    H228319   1.072   6.543   0.873  0.3850  0.5366 -1.4232
 2254TIP3   OH228320   3.229   2.651   8.576  0.1708  0.1630  0.2887
 2254TIP3    H128321   3.165   2.612   8.635 -0.1734 -0.2417 -0.3486
 2254TIP3    H228322   3.178   2.684   8.502  0.7272 -0.5324 -0.4293
 2255TIP3   OH228323   6.428   0.593   1.484  0.1787 -0.2014  0.6759
 2255TIP3    H128324   6.381   0.638   1.554  0.2198  0.0655  0.5362
 2255TIP3    H228325   6.442   0.661   1.418 -0.6600 -0.6567  0.0035
 2256TIP3   OH228326   5.779   5.103   8.099  0.1418  0.0665  0.2903
 2256TIP3    H128327   5.861   5.075   8.139  0.3555  0.8792  0.4393
 2256TIP3    H228328   5.725   5.024   8.097 -0.2602  0.1522  3.0975
 2257TIP3   OH228329   5.839   5.182   8.443  0.1342  0.0484  0.3845
 2257TIP3    H128330   5.839   5.275   8.421 -1.6555  0.3213  1.3108
 2257TIP3    H228331   5.924   5.150   8.413 -0.0686  1.4752 -2.0276
 2258TIP3   OH228332   5.322   6.741   1.266  0.5541 -0.2591  0.2799
 2258TIP3    H128333   5.259   6.812   1.278  2.6839  1.5881  1.1534
 2258TIP3    H228334   5.306   6.708   1.178 -0.0761  1.7397 -0.3846
 2259TIP3   OH228335   0.736   4.589   0.141 -0.0901  0.1238  0.0211
 2259TIP3    H128336   0.765   4.668   0.185  2.7449 -0.7342 -0.1426
 2259TIP3    H228337   0.640   4.595   0.142  0.0117  2.9044  1.0936
 2260TIP3   OH228338   4.167   2.617   8.422 -0.2811 -0.0015 -0.5874
 2260TIP3    H128339   4.241   2.555   8.421  0.2137  0.5625 -0.2102
 2260TIP3    H228340   4.120   2.597   8.503  0.2197  0.4834 -0.1617
 2261TIP3   OH228341   6.551   4.698   7.441  0.0967  0.5033 -0.2636
 2261TIP3    H128342   6.456   4.693   7.438  0.0636  0.8782  0.0624
 2261TIP3    H228343   6.576   4.635   7.509  0.1067  0.1639 -0.5783
 2262TIP3   OH228344   4.117   6.628   0.719 -0.1347  0.1218 -0.0725
 2262TIP3    H128345   4.207   6.608   0.694 -0.1677 -1.0957  0.6767
 2262TIP3    H228346   4.107   6.722   0.704  1.4904  0.4155  0.5114
 2263TIP3   OH228347   1.270   2.351   2.020  0.6322 -0.1038  0.3051
 2263TIP3    H128348   1.317   2.295   1.958 -0.3027 -1.0505  0.4146
 2263TIP3    H228349   1.339   2.395   2.069  1.4095  1.3797 -1.9842
 2264TIP3   OH228350   2.301   1.875   1.546  0.0633  0.4612  0.7933
 2264TIP3    H128351   2.267   1.964   1.538  1.0415  0.7579 -0.3861
 2264TIP3    H228352   2.241   1.822   1.493  1.1758  0.9360 -1.0351
 2265TIP3   OH228353   6.393   6.067   8.361 -0.1559  0.1959  0.7544
 2265TIP3    H128354   6.375   5.982   8.321  1.3743  0.1220  0.1544
 2265TIP3    H228355   6.353   6.063   8.447  1.6456 -1.9672  1.5842
 2266TIP3   OH228356   5.214   2.408   7.856 -0.1116  0.8198 -0.1758
 2266TIP3    H128357   5.226   2.460   7.776 -1.7628  0.2340 -0.8557
 2266TIP3    H228358   5.148   2.344   7.832 -0.6016  0.5920  1.6731
 2267TIP3   OH228359   2.594   5.816   1.183  0.1360  0.3075 -0.0238
 2267TIP3    H128360   2.667   5.849   1.236  0.1593  1.9056 -0.9909
 2267TIP3    H228361   2.623   5.730   1.153  0.3047 -0.4666  2.1351
 2268TIP3   OH228362   6.594   2.381   0.867 -0.0705 -0.0651 -0.0562
 2268TIP3    H128363   6.522   2.325   0.896 -0.9664  0.6939 -0.7471
 2268TIP3    H228364   6.630   2.419   0.948 -1.5523  0.8524  0.2166
 2269TIP3   OH228365   2.941   3.268   7.784 -0.1416  0.5506  0.2801
 2269TIP3    H128366   2.902   3.202   7.728 -2.8172  1.2491  1.1966
 2269TIP3    H228367   2.927   3.351   7.737  1.0895  0.7615  0.2306
 2270TIP3   OH228368   5.072   1.742   1.919  0.5490 -0.0737  0.0596
 2270TIP3    H128369   5.058   1.830   1.954 -0.6927  0.7597 -2.3009
 2270TIP3    H228370   5.142   1.754   1.854 -0.0121 -0.6890 -0.6745
 2271TIP3   OH228371   6.246   1.336   0.017  0.2188 -0.3411 -0.2115
 2271TIP3    H128372   6.305   1.408   0.041  0.0638 -0.7024  1.3546
 2271TIP3    H228373   6.170   1.348   0.073 -1.2471  0.0855 -2.1687
 2272TIP3   OH228374   1.943   5.082   8.273 -0.3019  0.2818  0.2965
 2272TIP3    H128375   1.912   4.992   8.280 -0.1447  0.0566 -1.3444
 2272TIP3    H228376   1.872   5.135   8.308 -0.8305 -0.4326  0.3207
 2273TIP3   OH228377   3.188   3.430   1.989  0.4014 -0.2240  0.2833
 2273TIP3    H128378   3.270   3.467   1.957  0.1709 -0.1619 -0.2424
 2273TIP3    H228379   3.156   3.376   1.916 -0.5033  0.5041  0.1258
 2274TIP3   OH228380   1.034   0.419   8.088  0.1375  0.1796 -0.1888
 2274TIP3    H128381   1.117   0.376   8.067 -0.1943 -1.7733  2.0440
 2274TIP3    H228382   0.977   0.400   8.014 -0.4728 -4.7895  1.2228
 2275TIP3   OH228383   2.456   4.783   7.338 -0.0963 -0.2684 -0.6482
 2275TIP3    H128384   2.467   4.849   7.270 -0.7841  0.5547  0.0141
 2275TIP3    H228385   2.411   4.710   7.295  1.1559 -0.5535 -1.5208
 2276TIP3   OH228386   5.841   5.439   2.460 -0.0383  0.1207  0.8452
 2276TIP3    H128387   5.756   5.410   2.427  0.2468 -0.0766  0.2802
 2276TIP3    H228388   5.886   5.358   2.485  0.1525  0.1944  0.7394
 2277TIP3   OH228389   1.422   1.556   1.329 -0.0007  0.2670  0.2282
 2277TIP3    H128390   1.506   1.523   1.361  0.6426  1.3063 -0.3341
 2277TIP3    H228391   1.397   1.624   1.392 -0.4382 -0.0483  0.4013
 2278TIP3   OH228392   1.778   2.791   8.298  0.1604 -0.2557  0.5538
 2278TIP3    H128393   1.785   2.882   8.329  2.2574  0.0763 -0.7006
 2278TIP3    H228394   1.750   2.800   8.207 -0.2431 -0.9213  0.6056
 2279TIP3   OH228395   1.615   2.475   0.101 -1.1544 -0.2882  0.3803
 2279TIP3    H128396   1.702   2.509   0.120 -0.1152 -2.5617 -0.0276
 2279TIP3    H228397   1.562   2.553   0.083  0.7025  1.1545  0.8814
 2280TIP3   OH228398   2.629   3.609   8.762  0.3435 -0.3442 -0.2304
 2280TIP3    H128399   2.576   3.574   8.690  0.4788 -1.1233  0.0399
 2280TIP3    H228400   2.672   3.532   8.799  0.2607  0.0459  0.6988
 2281TIP3   OH228401   5.583   5.547   0.122  0.7850 -0.1981 -0.0967
 2281TIP3    H128402   5.542   5.462   0.138  2.4637 -0.8776  0.9320
 2281TIP3    H228403   5.612   5.576   0.209  2.7456  0.0413 -0.7848
 2282TIP3   OH228404   0.416   5.820   0.939  0.8916 -0.0674  0.1871
 2282TIP3    H128405   0.411   5.880   1.014  0.2403 -2.2655  2.0180
 2282TIP3    H228406   0.334   5.835   0.892  0.6812  0.4157  0.6913
 2283TIP3   OH228407   1.606   1.122   8.373  0.0991  0.4154  0.2082
 2283TIP3    H128408   1.606   1.144   8.280  1.8094  1.4118  0.4060
 2283TIP3    H228409   1.515   1.137   8.401 -1.1467 -2.4629 -1.7943
 2284TIP3   OH228410   5.251   4.907   0.117  0.0182  0.7504  0.1171
 2284TIP3    H128411   5.338   4.914   0.156  0.0232  1.4491 -0.0075
 2284TIP3    H228412   5.192   4.947   0.182  0.0114  1.8014 -0.5078
 2285TIP3   OH228413   0.880   4.307   1.055  0.0357  0.0612 -0.0994
 2285TIP3    H128414   0.945   4.308   1.126 -0.7765 -3.5777  0.9296
 2285TIP3    H228415   0.805   4.354   1.091  0.2302 -0.3117  0.8396
 2286TIP3   OH228416   2.582   4.253   1.936 -0.1965  0.0580  0.0463
 2286TIP3    H128417   2.630   4.210   1.866 -0.7861  0.3920 -0.5807
 2286TIP3    H228418   2.647   4.306   1.982  0.0968  0.2192 -0.5571
 2287TIP3   OH228419   2.155   6.580   1.477  0.2863 -0.5182 -0.1316
 2287TIP3    H128420   2.090   6.509   1.482  1.0583 -1.2615 -0.3282
 2287TIP3    H228421   2.216   6.552   1.408  2.1043 -0.9746  1.5590
 2288TIP3   OH228422   3.416   2.644   7.070 -0.1630  0.4718  0.2899
 2288TIP3    H128423   3.336   2.685   7.101 -0.9818 -0.9019  0.0928
 2288TIP3    H228424   3.386   2.565   7.024  1.3051 -0.1046  0.2666
 2289TIP3   OH228425   3.742   0.161   1.446  0.0322  0.0867 -0.2310
 2289TIP3    H128426   3.682   0.220   1.400  0.7804  0.1390 -1.1790
 2289TIP3    H228427   3.803   0.220   1.491  0.0202  0.0269 -0.1342
 2290TIP3   OH228428   1.215   2.830   2.157  0.3907  0.0911  0.1375
 2290TIP3    H128429   1.134   2.785   2.135  0.1718  0.2541  0.6058
 2290TIP3    H228430   1.219   2.828   2.253  0.2893  1.2230  0.1760
 2291TIP3   OH228431   1.976   6.225   8.381  0.1521 -0.0330  0.0154
 2291TIP3    H128432   2.037   6.299   8.385 -0.8996  0.8479  0.1331
 2291TIP3    H228433   2.031   6.149   8.399  0.7839  0.9544  2.7474
 2292TIP3   OH228434   3.279   5.494   1.939  0.0900  0.3089  0.2456
 2292TIP3    H128435   3.284   5.467   2.031 -0.2497  1.4308  0.6089
 2292TIP3    H228436   3.367   5.523   1.917  0.1478  0.1377  0.2547
 2293TIP3   OH228437   6.356   0.431   8.418 -0.3052 -0.1871  0.3706
 2293TIP3    H128438   6.297   0.371   8.371  0.4294 -0.4707 -0.2023
 2293TIP3    H228439   6.444   0.400   8.396  0.2127  2.4314 -1.8025
 2294TIP3   OH228440   2.372   5.024   7.559  0.7961 -0.3508 -0.3098
 2294TIP3    H128441   2.461   5.032   7.596  0.8013 -0.0220 -0.3855
 2294TIP3    H228442   2.345   5.115   7.544  1.0816 -0.4957 -1.8148
 2295TIP3   OH228443   1.488   4.978   1.131  0.1397  0.3595  0.4475
 2295TIP3    H128444   1.441   4.901   1.162  1.8889 -0.0344  2.2906
 2295TIP3    H228445   1.441   5.004   1.051 -3.7154  0.4976  2.4861
 2296TIP3   OH228446   5.202   0.385   0.139  0.3725 -0.5796 -0.1641
 2296TIP3    H128447   5.113   0.364   0.114  0.6211 -1.9739  0.0144
 2296TIP3    H228448   5.257   0.326   0.087  1.1694 -0.0547  0.0458
 2297TIP3   OH228449   2.658   4.401   1.081  0.1278 -0.2355 -0.0333
 2297TIP3    H128450   2.573   4.391   1.038 -0.0039  0.9531 -0.0738
 2297TIP3    H228451   2.721   4.388   1.010  0.0001 -1.1657  0.0059
 2298TIP3   OH228452   1.813   4.489   0.750 -0.0869 -0.2226  0.3097
 2298TIP3    H128453   1.892   4.520   0.706  0.2166 -1.6616 -0.2232
 2298TIP3    H228454   1.846   4.431   0.819 -0.6204  0.8073  1.4562
 2299TIP3   OH228455   4.915   0.161   1.667 -0.1825  0.4211  0.2844
 2299TIP3    H128456   4.928   0.163   1.761  2.4690 -1.3111  0.0541
 2299TIP3    H228457   4.899   0.069   1.646 -0.8561  0.7907 -0.9900
 2300TIP3   OH228458   6.402   6.304   0.222 -0.0522 -0.0348 -0.1933
 2300TIP3    H128459   6.315   6.343   0.226 -0.4534 -0.9035 -0.3966
 2300TIP3    H228460   6.389   6.221   0.177  1.0347  0.2667 -1.1169
 2301TIP3   OH228461   3.485   5.926   3.301 -0.2477 -0.1638  0.1741
 2301TIP3    H128462   3.437   5.845   3.286 -1.5106  0.4058  0.9650
 2301TIP3    H228463   3.417   5.992   3.316  0.7580  0.4251  2.6456
 2302TIP3   OH228464   1.129   2.069   8.195 -0.3159 -0.3536  0.2226
 2302TIP3    H128465   1.194   2.003   8.171 -0.3935 -0.4000  0.1413
 2302TIP3    H228466   1.054   2.019   8.227 -0.2422 -0.2952  0.4952
 2303TIP3   OH228467   1.597   6.125   1.139 -0.0090  0.2419  0.2165
 2303TIP3    H128468   1.590   6.061   1.068  0.1300  0.7042 -0.2252
 2303TIP3    H228469   1.533   6.096   1.204 -1.3789  0.7583 -0.8622
 2304TIP3   OH228470   3.546   0.742   2.184 -0.3158 -0.1976  0.0274
 2304TIP3    H128471   3.619   0.740   2.246  0.1928  2.2266 -0.3740
 2304TIP3    H228472   3.587   0.763   2.100 -1.4554  1.9261 -0.0756
 2305TIP3   OH228473   4.406   4.429   2.546 -0.5594  0.1297  0.0178
 2305TIP3    H128474   4.426   4.350   2.597 -1.9441 -0.8612 -0.8908
 2305TIP3    H228475   4.316   4.451   2.570 -1.5557 -0.8338 -2.4746
 2306TIP3   OH228476   5.151   2.857   1.963  0.9498 -0.0377  0.8019
 2306TIP3    H128477   5.217   2.877   2.030 -0.0099  0.5568  1.6068
 2306TIP3    H228478   5.078   2.916   1.984  0.8220  0.5370 -1.0896
 2307TIP3   OH228479   3.109   6.136   0.433  0.0763  0.0505  0.5311
 2307TIP3    H128480   3.044   6.183   0.381  1.6949  0.3742 -1.3445
 2307TIP3    H228481   3.103   6.045   0.402 -1.1803 -0.4885  2.2044
 2308TIP3   OH228482   1.776   1.278   7.903 -0.8832  0.2790  0.5781
 2308TIP3    H128483   1.745   1.285   7.813  0.1354 -2.1645 -0.0260
 2308TIP3    H228484   1.852   1.335   7.906 -2.8711  3.1544  0.9711
 2309TIP3   OH228485   0.384   2.663   3.119 -0.1389  0.1670 -0.5295
 2309TIP3    H128486   0.397   2.586   3.064  2.9721  0.7469 -0.7550
 2309TIP3    H228487   0.363   2.627   3.206 -0.8048 -0.8458 -1.0917
 2310TIP3   OH228488   4.524   6.591   1.468  0.4756  0.2281 -0.2447
 2310TIP3    H128489   4.437   6.566   1.500  0.5733  0.7126  0.4305
 2310TIP3    H228490   4.574   6.509   1.469  0.1816  0.0467 -0.1350
 2311TIP3   OH228491   6.663   2.638   1.716  0.1917  0.1060 -0.1276
 2311TIP3    H128492   6.681   2.587   1.637 -0.4050 -1.4396  0.7097
 2311TIP3    H228493   6.582   2.601   1.751  1.0032  0.0591  1.7973
 2312TIP3   OH228494   5.501   4.436   2.498 -0.2266 -0.1016  0.3890
 2312TIP3    H128495   5.454   4.397   2.572  2.0372 -1.1693  1.3760
 2312TIP3    H228496   5.472   4.386   2.422 -1.7046  0.2217  0.7103
 2313TIP3   OH228497   4.131   0.039   1.001 -0.2429 -0.1046 -0.2661
 2313TIP3    H128498   4.219   0.018   0.969 -0.3603 -1.7746  0.4140
 2313TIP3    H228499   4.079   0.052   0.921 -0.0735 -2.2100 -0.7944
 2314TIP3   OH228500   4.156   2.561   0.101  0.3038 -0.9449 -0.1965
 2314TIP3    H128501   4.204   2.503   0.042  2.1814 -0.7338  1.0423
 2314TIP3    H228502   4.224   2.608   0.150 -1.1722  0.3063  0.7684
 2315TIP3   OH228503   3.148   1.396   7.670  0.7496 -0.1038  0.0331
 2315TIP3    H128504   3.169   1.349   7.589  0.5621 -0.7888  0.3834
 2315TIP3    H228505   3.152   1.489   7.645  0.9036 -0.3058 -0.7093
 2316TIP3   OH228506   3.349   5.384   2.222  0.0786 -0.9244 -0.0190
 2316TIP3    H128507   3.266   5.427   2.202 -0.3682 -1.3973  0.7518
 2316TIP3    H228508   3.332   5.334   2.302  1.2447 -0.6343  0.4418
 2317TIP3   OH228509   3.614   1.677   1.780 -0.2911 -0.0567  0.4650
 2317TIP3    H128510   3.690   1.735   1.769 -0.2980 -0.2531 -0.7334
 2317TIP3    H228511   3.566   1.715   1.853  0.6858  0.3743  0.9103
 2318TIP3   OH228512   0.776   5.599   0.066 -0.2248  0.0056  0.4085
 2318TIP3    H128513   0.701   5.554   0.026  0.0364 -0.0570 -0.0234
 2318TIP3    H228514   0.783   5.561   0.154 -0.5572 -0.1554  0.3656
 2319TIP3   OH228515   4.644   4.395   1.833 -0.2542 -0.2205 -0.3953
 2319TIP3    H128516   4.709   4.444   1.883 -1.0553 -0.0810  0.5612
 2319TIP3    H228517   4.580   4.461   1.805 -0.5677 -0.5072 -0.3633
 2320TIP3   OH228518   5.012   6.105   3.437  0.0920 -0.1181  0.1240
 2320TIP3    H128519   5.034   6.188   3.395 -1.6883  1.0652  1.3923
 2320TIP3    H228520   5.048   6.112   3.525 -0.6303 -0.4103  0.4500
 2321TIP3   OH228521   5.134   2.486   8.265 -0.1427 -0.5137 -0.4993
 2321TIP3    H128522   5.227   2.473   8.247  0.3898  0.0455  1.5823
 2321TIP3    H228523   5.107   2.552   8.201  1.2403  0.3253 -0.2680
 2322TIP3   OH228524   2.617   3.167   0.662 -0.2553 -0.5801 -0.1406
 2322TIP3    H128525   2.536   3.218   0.659  1.1401  1.8536  0.2816
 2322TIP3    H228526   2.590   3.080   0.690 -2.8348 -0.1821 -1.1159
 2323TIP3   OH228527   0.728   6.554   0.456  0.4232  0.0004 -0.6286
 2323TIP3    H128528   0.818   6.567   0.485 -0.0520  0.6410  0.6177
 2323TIP3    H228529   0.686   6.506   0.527 -0.6317  1.1465 -0.4355
 2324TIP3   OH228530   0.430   5.819   0.144 -0.1333 -0.0807  0.2424
 2324TIP3    H128531   0.512   5.840   0.100  1.0944  1.3114  2.9272
 2324TIP3    H228532   0.430   5.724   0.153  0.7012 -0.1691 -0.6204
 2325TIP3   OH228533   5.760   4.643   1.072  0.4036  0.3854  0.3715
 2325TIP3    H128534   5.728   4.588   1.001  0.4470 -1.6011  1.7956
 2325TIP3    H228535   5.687   4.700   1.094  0.0322  0.2646 -0.5219
 2326TIP3   OH228536   5.173   3.363   0.003 -0.1236  0.6096 -0.7959
 2326TIP3    H128537   5.135   3.446   0.032  0.3526  1.1311 -1.6296
 2326TIP3    H228538   5.226   3.386  -0.073  0.5486 -0.3568 -0.6411
 2327TIP3   OH228539   1.934   4.516   8.099  0.2075 -0.3783  0.4634
 2327TIP3    H128540   2.001   4.585   8.101 -1.1466  1.0119  0.5151
 2327TIP3    H228541   1.929   4.492   8.007  0.7945 -0.5235  0.4615
 2328TIP3   OH228542   0.141   1.889   7.297 -0.3540  1.3489  0.4507
 2328TIP3    H128543   0.217   1.834   7.317  0.3253  1.3014 -1.9171
 2328TIP3    H228544   0.172   1.978   7.311 -1.1859  1.2672  3.4290
 2329TIP3   OH228545   3.834   5.450   0.815 -0.2254  0.0357 -0.3547
 2329TIP3    H128546   3.922   5.483   0.796 -0.0338 -1.3842 -2.3181
 2329TIP3    H228547   3.839   5.357   0.792 -1.3948 -0.8346  2.5475
 2330TIP3   OH228548   1.185   5.077   0.369 -0.4024 -0.1680 -0.2031
 2330TIP3    H128549   1.194   4.996   0.420  0.2928  0.4947  0.7516
 2330TIP3    H228550   1.105   5.117   0.402 -0.5620 -0.2848 -0.4393
 2331TIP3   OH228551   1.356   6.631   0.699 -0.1038 -0.5532  0.2922
 2331TIP3    H128552   1.328   6.562   0.758 -0.6175 -0.1334  0.5444
 2331TIP3    H228553   1.431   6.594   0.652 -1.1772 -1.7719 -0.5348
 2332TIP3   OH228554   4.390   5.813   0.488 -0.1163 -0.0496 -0.6268
 2332TIP3    H128555   4.454   5.860   0.435  0.2346 -0.5840 -0.6848
 2332TIP3    H228556   4.305   5.846   0.459  0.1668  1.7808  0.4899
 2333TIP3   OH228557   1.472   1.865   1.230  0.0862 -0.6028  0.6402
 2333TIP3    H128558   1.540   1.898   1.289  0.5456  1.7298 -1.0676
 2333TIP3    H228559   1.393   1.910   1.258 -0.2008 -1.2516  0.8940
 2334TIP3   OH228560   6.580   2.949   8.459  0.1113 -0.4731 -0.0914
 2334TIP3    H128561   6.562   2.966   8.367  0.7558  0.0923 -0.1278
 2334TIP3    H228562   6.660   2.896   8.458  0.5874  0.2182  0.1517
 2335TIP3   OH228563   0.308   3.781   1.229 -0.1703  0.5098  0.5981
 2335TIP3    H128564   0.262   3.707   1.190 -0.7924 -0.0326  2.3201
 2335TIP3    H228565   0.283   3.856   1.175 -0.6426 -0.2852 -0.3106
 2336TIP3   OH228566   0.428   4.246   7.899  0.5074 -0.1921  0.1196
 2336TIP3    H128567   0.406   4.318   7.958 -0.3976 -0.9209  0.6934
 2336TIP3    H228568   0.385   4.269   7.817 -1.5145 -1.0348  0.8893
 2337TIP3   OH228569   5.939   4.672   0.574 -0.4586 -0.1770 -0.1790
 2337TIP3    H128570   5.855   4.693   0.614  0.0270 -0.7892  1.2290
 2337TIP3    H228571   5.951   4.578   0.590  1.5682  0.3289  1.8416
 2338TIP3   OH228572   5.083   2.178   1.340 -0.5429  0.0783 -0.1049
 2338TIP3    H128573   5.091   2.083   1.337 -0.4781 -0.3009  4.6855
 2338TIP3    H228574   5.169   2.210   1.313  0.0271 -1.3181 -0.0201
 2339TIP3   OH228575   6.304   6.529   8.480 -0.1484  0.1542 -0.1923
 2339TIP3    H128576   6.221   6.575   8.499 -0.0754  0.7165 -1.1993
 2339TIP3    H228577   6.310   6.463   8.549 -1.0047  0.6776  0.4137
 2340TIP3   OH228578   5.127   1.572   1.394  0.3281 -0.2109 -0.1442
 2340TIP3    H128579   5.186   1.590   1.321 -0.1885 -1.4931 -0.8957
 2340TIP3    H228580   5.151   1.485   1.424 -0.7260 -0.4684 -0.0125
 2341TIP3   OH228581   3.589   5.803   7.758  0.3291  0.1665 -0.0791
 2341TIP3    H128582   3.519   5.856   7.797  0.5573  1.3073 -1.1249
 2341TIP3    H228583   3.543   5.730   7.716 -0.0974  0.0913  0.5100
 2342TIP3   OH228584   5.829   3.107   7.464  0.9888  0.1021 -0.1062
 2342TIP3    H128585   5.871   3.123   7.380  0.3538 -0.0802 -0.4658
 2342TIP3    H228586   5.774   3.184   7.478  0.6841 -0.1119 -0.1171
 2343TIP3   OH228587   1.124   5.963   1.523  0.0689 -0.1606  0.2692
 2343TIP3    H128588   1.126   5.895   1.591  0.2376 -0.0848  0.3426
 2343TIP3    H228589   1.032   5.982   1.510  0.0460  0.0290  0.6845
 2344TIP3   OH228590   5.540   3.584   8.239  0.0416  0.0150  0.3462
 2344TIP3    H128591   5.561   3.595   8.146 -0.4061  0.9808  0.3446
 2344TIP3    H228592   5.624   3.564   8.280  0.8215  2.5230  0.1614
 2345TIP3   OH228593   1.254   5.561   1.510 -0.1990 -0.4319  0.3335
 2345TIP3    H128594   1.178   5.614   1.534 -1.5798 -2.1351 -0.0969
 2345TIP3    H228595   1.240   5.539   1.418  1.8558  0.8148 -0.3683
 2346TIP3   OH228596   6.080   4.558   1.393 -0.1758 -0.5165  0.2300
 2346TIP3    H128597   6.044   4.533   1.308 -1.6699  0.8438  0.4291
 2346TIP3    H228598   6.132   4.636   1.375 -0.4180 -0.2802  0.5552
 2347TIP3   OH228599   4.168   2.807   2.477 -0.0903 -0.6907 -0.5990
 2347TIP3    H128600   4.201   2.891   2.508 -0.9879 -0.1936 -0.9363
 2347TIP3    H228601   4.116   2.772   2.550  0.4529 -1.0639 -0.3819
 2348TIP3   OH228602   2.147   3.068   0.265  0.3222 -0.2680  0.2065
 2348TIP3    H128603   2.096   2.989   0.246 -1.0852  1.2231 -2.7770
 2348TIP3    H228604   2.133   3.083   0.359 -0.9874 -2.4506  0.4357
 2349TIP3   OH228605   6.019   0.000   8.308 -0.7354 -0.4702 -0.7142
 2349TIP3    H128606   6.050  -0.068   8.248 -0.7019 -2.0938  1.0825
 2349TIP3    H228607   6.056   0.081   8.272  1.1060 -1.6492 -1.6735
 2350TIP3   OH228608   4.069   1.950   1.969 -0.0587  0.3127  0.3823
 2350TIP3    H128609   4.119   1.887   2.021  0.7361 -0.3217 -1.1011
 2350TIP3    H228610   4.133   1.989   1.909 -0.9490  1.0057 -0.1552
 2351TIP3   OH228611   6.543   4.263   8.065 -0.2366 -0.2773 -0.4248
 2351TIP3    H128612   6.634   4.281   8.042 -0.3376 -0.2838 -0.8383
 2351TIP3    H228613   6.537   4.167   8.066 -0.5054 -0.2842 -1.5024
 2352TIP3   OH228614   0.366   3.434   8.749 -0.0235  0.0316 -0.2368
 2352TIP3    H128615   0.446   3.398   8.709  0.4066 -1.2195  1.6460
 2352TIP3    H228616   0.304   3.438   8.676  1.4234  0.0540 -1.5387
 2353TIP3   OH228617   0.522   0.994   8.683 -0.5732 -0.0818 -0.2203
 2353TIP3    H128618   0.461   1.032   8.620 -1.1413 -1.5722 -0.6244
 2353TIP3    H228619   0.603   0.980   8.633 -0.3370  0.6516 -0.0481
 2354TIP3   OH228620   2.044   6.321   2.395 -0.8733 -1.1637 -0.3566
 2354TIP3    H128621   2.083   6.358   2.316  0.3158 -1.6960 -0.0380
 2354TIP3    H228622   1.991   6.391   2.431  0.9263  0.0932 -0.0305
 2355TIP3   OH228623   1.166   0.329   0.874  0.1467  0.3079  0.9764
 2355TIP3    H128624   1.186   0.236   0.882  1.2255  0.5787  1.7068
 2355TIP3    H228625   1.086   0.341   0.924  0.1564 -0.1862  1.1118
 2356TIP3   OH228626   1.674   1.760   1.407 -0.1125 -0.4218  0.2769
 2356TIP3    H128627   1.689   1.670   1.377 -0.0922 -2.1208  4.6247
 2356TIP3    H228628   1.761   1.800   1.405  0.4093 -1.4637  0.7496
 2357TIP3   OH228629   0.044   1.525   1.947 -0.1235 -0.3150 -0.5604
 2357TIP3    H128630  -0.011   1.556   1.876  0.5557 -0.8065 -1.3187
 2357TIP3    H228631   0.039   1.594   2.014 -1.0965 -0.0448 -0.8964
 2358TIP3   OH228632   5.099   6.149   8.182  0.6725  0.1631 -0.1212
 2358TIP3    H128633   5.034   6.182   8.120 -1.2486  1.2466  2.2995
 2358TIP3    H228634   5.072   6.059   8.200  0.6163  0.1917 -0.0652
 2359TIP3   OH228635   0.793   2.386   7.103 -0.0879  0.5347  0.2882
 2359TIP3    H128636   0.711   2.434   7.110 -1.0251 -0.1038 -3.7146
 2359TIP3    H228637   0.860   2.453   7.090 -0.6212  0.9475 -0.3883
 2360TIP3   OH228638   2.541   2.039   1.612  0.5274  0.0667 -0.5469
 2360TIP3    H128639   2.448   2.018   1.603  1.1931 -3.0707 -1.2224
 2360TIP3    H228640   2.545   2.134   1.605 -2.7480  0.4406  0.9315
 2361TIP3   OH228641   4.076   3.710   7.357 -0.4749  0.0135  0.5728
 2361TIP3    H128642   4.025   3.713   7.277 -2.0628 -2.8242  1.3420
 2361TIP3    H228643   4.096   3.802   7.377 -0.6906  0.8455 -2.5713
 2362TIP3   OH228644   2.218   3.529   7.806 -0.5274 -0.1707 -0.2502
 2362TIP3    H128645   2.299   3.501   7.763 -1.0731 -0.7677 -0.9204
 2362TIP3    H228646   2.161   3.452   7.803 -0.2059 -0.6367  2.5913
 2363TIP3   OH228647   0.519   2.697   2.813 -0.2058  0.2142  0.0100
 2363TIP3    H128648   0.503   2.603   2.801  1.0961 -0.1543  0.9549
 2363TIP3    H228649   0.545   2.705   2.904 -1.7476  1.7326  0.3676
 2364TIP3   OH228650   3.194   0.775   8.412 -0.0162 -0.0646  0.0823
 2364TIP3    H128651   3.186   0.785   8.317 -0.8102  0.9861  0.2434
 2364TIP3    H228652   3.184   0.863   8.447  1.2545 -0.2878  1.0991
 2365TIP3   OH228653   2.736   0.811   7.472  0.3526 -0.1040 -0.1913
 2365TIP3    H128654   2.728   0.734   7.416 -1.4810  0.7615 -1.2187
 2365TIP3    H228655   2.733   0.777   7.561 -0.7894 -1.2251 -0.6265
 2366TIP3   OH228656   4.272   1.951   0.844 -0.3016 -0.2670 -0.3559
 2366TIP3    H128657   4.360   1.982   0.822  0.0807 -1.8670 -1.2658
 2366TIP3    H228658   4.280   1.855   0.846 -2.0456 -0.4562 -0.5834
 2367TIP3   OH228659   5.546   6.039   1.455 -0.7415  0.5099 -0.3764
 2367TIP3    H128660   5.539   6.120   1.405 -0.9211  0.7280  0.0063
 2367TIP3    H228661   5.459   6.000   1.450 -0.7245  0.4674 -0.3377
 2368TIP3   OH228662   3.859   5.597   2.096  0.0617  0.3001  0.2017
 2368TIP3    H128663   3.942   5.560   2.127  0.7143 -0.1475 -1.8748
 2368TIP3    H228664   3.794   5.531   2.119  0.8589 -1.0795 -1.2554
 2369TIP3   OH228665   6.367   1.598   0.863  0.1720 -0.1562  0.7827
 2369TIP3    H128666   6.450   1.556   0.884 -0.0379 -0.5150  0.9075
 2369TIP3    H228667   6.322   1.608   0.947  0.4264  0.7840  0.8229
 2370TIP3   OH228668   4.568   3.803   0.562  0.6205 -0.2910  0.0156
 2370TIP3    H128669   4.522   3.759   0.633 -0.8765 -0.2544 -0.8829
 2370TIP3    H228670   4.660   3.782   0.577  0.0759 -3.0378  0.1479
 2371TIP3   OH228671   6.252   6.036   8.600 -0.4025  0.0767 -0.7279
 2371TIP3    H128672   6.196   5.963   8.574  1.3059 -1.5091 -0.2378
 2371TIP3    H228673   6.207   6.076   8.674 -1.2781 -0.6018 -0.8807
 2372TIP3   OH228674   0.189   0.311   1.269  0.0332 -0.0496  0.2949
 2372TIP3    H128675   0.120   0.376   1.284  0.5270  0.1893  1.5877
 2372TIP3    H228676   0.223   0.290   1.356  1.4799 -0.2944 -0.3029
 2373TIP3   OH228677   2.803   5.580   1.845 -0.2679 -0.6534  0.1512
 2373TIP3    H128678   2.879   5.635   1.865 -0.5473 -0.7092  1.4362
 2373TIP3    H228679   2.775   5.546   1.930 -2.2703  0.0649 -0.1600
 2374TIP3   OH228680   1.906   5.796   8.663  0.1551 -0.2796  0.3228
 2374TIP3    H128681   1.831   5.853   8.679  0.0840 -0.1150 -0.5400
 2374TIP3    H228682   1.884   5.751   8.581  2.4382  2.2640 -1.8673
 2375TIP3   OH228683   2.116   0.545   0.327 -0.1814 -0.3781 -0.3014
 2375TIP3    H128684   2.116   0.450   0.337  0.3522 -0.5166 -1.4176
 2375TIP3    H228685   2.181   0.576   0.390  1.4648 -0.9898 -1.6165
 2376TIP3   OH228686   1.204   5.591   1.233  0.1613 -0.0715  0.2667
 2376TIP3    H128687   1.151   5.522   1.192  1.4014  0.2530 -2.0991
 2376TIP3    H228688   1.143   5.662   1.250 -0.9298 -1.2925  1.7263
 2377TIP3   OH228689   0.438   5.090   1.197 -0.1755 -0.0664 -0.3845
 2377TIP3    H128690   0.391   5.169   1.170  0.5066  0.2876 -0.5659
 2377TIP3    H228691   0.412   5.023   1.134 -1.0423 -0.0893 -0.0122
 2378TIP3   OH228692   4.416   4.596   1.853  0.5004  0.1493 -0.3583
 2378TIP3    H128693   4.477   4.662   1.887 -1.3517  1.8806 -0.2499
 2378TIP3    H228694   4.370   4.564   1.930  1.2680 -1.1853 -0.4360
 2379TIP3   OH228695   2.420   3.137   8.477  0.2436 -0.1707 -0.0739
 2379TIP3    H128696   2.338   3.130   8.527  0.8278  0.8811  1.1033
 2379TIP3    H228697   2.396   3.187   8.399 -0.3789 -0.4556 -0.0706
 2380TIP3   OH228698   3.542   0.530   8.580 -0.2395  0.2676  0.2708
 2380TIP3    H128699   3.605   0.491   8.519 -1.2120 -0.4277 -0.3176
 2380TIP3    H228700   3.499   0.456   8.621 -2.8637  0.5954 -1.6314
 2381TIP3   OH228701   4.500   4.659   7.163 -0.0256 -0.3652 -0.0324
 2381TIP3    H128702   4.436   4.728   7.147 -0.6082 -1.1939 -1.6007
 2381TIP3    H228703   4.566   4.672   7.095 -0.8239 -2.0690 -1.2163
 2382TIP3   OH228704   6.141   5.078   0.265  0.1984  0.5518  0.3740
 2382TIP3    H128705   6.095   5.144   0.214  0.8437 -0.4217 -1.5831
 2382TIP3    H228706   6.130   4.997   0.215  1.4262 -0.3334  1.4598
 2383TIP3   OH228707   2.971   0.503   8.560  0.0438 -0.3892 -0.0209
 2383TIP3    H128708   3.028   0.498   8.483  0.5759  0.5746  0.2895
 2383TIP3    H228709   2.896   0.556   8.531 -0.9607 -2.0458 -0.5677
 2384TIP3   OH228710   1.783   4.472   1.117  0.0430 -0.4357  0.0952
 2384TIP3    H128711   1.761   4.499   1.207 -2.7244 -0.5989 -0.4446
 2384TIP3    H228712   1.835   4.545   1.083  3.7309 -1.5938  2.6172
 2385TIP3   OH228713   2.426   1.854   1.108 -0.1988 -0.6427  0.2847
 2385TIP3    H128714   2.370   1.776   1.103 -0.3515 -0.4410 -1.9981
 2385TIP3    H228715   2.370   1.922   1.146 -0.9320 -0.9299 -0.2637
 2386TIP3   OH228716   6.447   2.834   1.892 -0.4831  0.3548  0.2346
 2386TIP3    H128717   6.531   2.789   1.878  1.6228  3.8120  0.5174
 2386TIP3    H228718   6.392   2.804   1.820  1.6831 -0.6266 -1.1511
 2387TIP3   OH228719   5.663   1.398   2.179 -0.2234 -0.5184  0.0495
 2387TIP3    H128720   5.592   1.339   2.204 -0.6205  0.1780  0.6491
 2387TIP3    H228721   5.734   1.341   2.150 -0.1744 -1.3663  1.6793
 2388TIP3   OH228722   6.156   3.293   7.494 -0.3477  0.0622  0.3700
 2388TIP3    H128723   6.083   3.349   7.521 -0.6604  0.1443 -0.6262
 2388TIP3    H228724   6.170   3.235   7.569  1.9724  3.3432  2.7675
 2389TIP3   OH228725   0.600   0.773   0.115  0.2187 -0.0100  0.2894
 2389TIP3    H128726   0.538   0.748   0.183 -1.1191  2.2562  0.0166
 2389TIP3    H228727   0.545   0.801   0.042  1.5826  1.0262 -0.3873
 2390TIP3   OH228728   6.807   2.039   1.165  0.0249 -0.1969  0.3225
 2390TIP3    H128729   6.745   2.077   1.227  1.1430 -0.6022  1.7497
 2390TIP3    H228730   6.888   2.090   1.177  0.5482 -0.9030 -0.0949
 2391TIP3   OH228731   5.736   3.637   7.864 -0.1069  0.4865 -0.3467
 2391TIP3    H128732   5.745   3.700   7.793 -0.5074  1.4910  0.4786
 2391TIP3    H228733   5.654   3.591   7.845 -0.3468  0.9305 -0.4003
 2392TIP3   OH228734   3.702   5.740   8.396 -0.8021  0.6422 -0.5636
 2392TIP3    H128735   3.772   5.675   8.400 -3.2685 -2.1947 -0.5962
 2392TIP3    H228736   3.681   5.747   8.303 -2.3504 -0.6598 -0.3486
 2393TIP3   OH228737   5.924   1.416   8.458  0.2334 -0.0641  0.3773
 2393TIP3    H128738   5.862   1.489   8.455 -1.0429 -1.1442 -0.6413
 2393TIP3    H228739   5.927   1.382   8.369  0.3497 -1.6031  0.9245
 2394TIP3   OH228740   5.302   1.570   2.536 -0.0097  0.1004 -0.6822
 2394TIP3    H128741   5.224   1.523   2.566  0.0334 -0.1146 -0.9059
 2394TIP3    H228742   5.288   1.660   2.566  0.5591 -0.3236  0.9880
 2395TIP3   OH228743   1.920   3.639   8.364 -0.3668  0.3200 -0.2630
 2395TIP3    H128744   2.015   3.648   8.357 -0.2656 -1.1274 -1.1300
 2395TIP3    H228745   1.885   3.693   8.294 -0.1471  0.1949 -0.4697
 2396TIP3   OH228746   4.723   0.428   8.554  0.0791  0.2606  0.0944
 2396TIP3    H128747   4.714   0.389   8.468  3.0307  1.3161 -0.8184
 2396TIP3    H228748   4.780   0.504   8.540  0.0973  0.8644  2.8576
 2397TIP3   OH228749   0.625   1.546   0.839  0.0967  0.0615 -0.0855
 2397TIP3    H128750   0.617   1.508   0.752 -0.4649  1.6054 -0.7231
 2397TIP3    H228751   0.574   1.487   0.895  0.2551 -0.7971 -0.8115
 2398TIP3   OH228752   5.472   5.042   8.233  0.3992  0.4715 -0.2561
 2398TIP3    H128753   5.540   4.980   8.206  0.3819  0.1548  0.3943
 2398TIP3    H228754   5.501   5.073   8.319  0.0457  0.8265 -0.2623
 2399TIP3   OH228755   0.608   3.428   1.457 -0.0223 -0.2239 -0.5001
 2399TIP3    H128756   0.554   3.381   1.520 -2.2025  1.9089 -0.6068
 2399TIP3    H228757   0.691   3.443   1.503 -0.6356 -0.8997  0.8918
 2400TIP3   OH228758   0.448   0.751   8.141 -0.1743  0.0600  0.3275
 2400TIP3    H128759   0.427   0.713   8.056 -0.6422 -1.0745  0.9274
 2400TIP3    H228760   0.364   0.777   8.177 -0.3614 -1.9920  1.5736
 2401TIP3   OH228761   4.758   1.806   2.134 -0.6629  0.0196 -0.6118
 2401TIP3    H128762   4.798   1.728   2.173 -1.1687 -0.2675 -0.6590
 2401TIP3    H228763   4.806   1.879   2.172  0.8818 -0.3540 -1.7555
 2402TIP3   OH228764   2.414   1.908   8.377 -0.3833  0.4670  0.3838
 2402TIP3    H128765   2.363   1.908   8.458 -1.6476 -1.1078 -0.3595
 2402TIP3    H228766   2.446   1.818   8.369  0.0833  0.7110 -0.6490
 2403TIP3   OH228767   6.687   0.776   0.489 -0.2582 -0.1451 -0.6514
 2403TIP3    H128768   6.707   0.687   0.459  1.1682 -0.7440  1.7660
 2403TIP3    H228769   6.772   0.813   0.512 -1.0276  0.9832  0.5242
 2404TIP3   OH228770   0.017   1.654   0.576 -0.3360 -0.2089  0.1691
 2404TIP3    H128771   0.066   1.618   0.649  0.6960 -0.7544 -0.7581
 2404TIP3    H228772  -0.021   1.735   0.610  2.3122  0.9735  0.6288
 2405TIP3   OH228773   3.097   2.782   0.171  0.2689  0.4552 -0.3994
 2405TIP3    H128774   3.068   2.795   0.081  0.8134  3.1569 -0.2775
 2405TIP3    H228775   3.175   2.727   0.165  0.4793  0.8709 -1.6204
 2406TIP3   OH228776   3.479   1.633   1.314  0.3159 -0.2017  0.3777
 2406TIP3    H128777   3.528   1.646   1.233 -1.1989  1.9855 -0.3001
 2406TIP3    H228778   3.545   1.623   1.381  1.7572  2.2014 -0.5496
 2407TIP3   OH228779   3.511   0.126   7.504  0.1496 -0.1514 -0.1406
 2407TIP3    H128780   3.490   0.157   7.593  0.5351 -1.2872  0.3560
 2407TIP3    H228781   3.427   0.127   7.458 -0.2615 -0.6652  0.5857
 2408TIP3   OH228782   5.815   5.965   1.462 -0.0285  0.0033  0.0062
 2408TIP3    H128783   5.812   5.873   1.488  1.1247  0.5562  2.2932
 2408TIP3    H228784   5.723   5.992   1.456 -0.3611 -0.9159  0.8159
 2409TIP3   OH228785   5.185   2.545   0.612  1.0937 -0.0494  0.0481
 2409TIP3    H128786   5.091   2.560   0.599  0.9201 -1.2561 -0.2223
 2409TIP3    H228787   5.197   2.451   0.595  2.2564 -0.0296  0.6505
 2410TIP3   OH228788   5.290   6.678   7.861 -0.3350  0.2391 -0.0711
 2410TIP3    H128789   5.234   6.747   7.896  0.9628  1.3097 -0.0058
 2410TIP3    H228790   5.379   6.708   7.879  0.2865 -1.8753  0.7589
 2411TIP3   OH228791   6.011   1.115   8.259  0.4107  0.5505  0.0910
 2411TIP3    H128792   5.945   1.054   8.291 -0.3790  0.2522 -1.9233
 2411TIP3    H228793   5.977   1.201   8.280  1.0059  0.3576  1.9852
 2412TIP3   OH228794   4.692   3.638   0.741  0.5493  0.6703  0.4637
 2412TIP3    H128795   4.694   3.665   0.833 -1.2072 -1.5457  1.2227
 2412TIP3    H228796   4.676   3.544   0.744 -0.0317  0.6263 -2.1458
 2413TIP3   OH228797   0.170   4.558   0.049  0.6873 -0.0953  0.0298
 2413TIP3    H128798   0.099   4.495   0.045  0.1106  0.4315  1.3712
 2413TIP3    H228799   0.148   4.624  -0.018 -0.1109  0.0764  0.4509
 2414TIP3   OH228800   3.193   5.325   8.096 -0.2304  0.4042  0.1873
 2414TIP3    H128801   3.114   5.347   8.145  0.7272  0.9844  1.5597
 2414TIP3    H228802   3.182   5.232   8.074 -1.2282  0.4425  0.4671
 2415TIP3   OH228803   5.169   6.081   2.198 -0.0213  0.1959  0.1550
 2415TIP3    H128804   5.093   6.117   2.244 -1.1637 -2.0149  0.1239
 2415TIP3    H228805   5.134   6.045   2.117  1.2194 -0.0643 -0.2914
 2416TIP3   OH228806   4.544   5.183   0.107 -0.6639 -0.0938  0.0122
 2416TIP3    H128807   4.450   5.197   0.117 -0.3648  1.5152  0.7300
 2416TIP3    H228808   4.577   5.264   0.068  0.2518 -1.1495 -1.5322
 2417TIP3   OH228809   0.871   0.254   8.287  0.1930  0.0425  0.2248
 2417TIP3    H128810   0.900   0.331   8.239 -0.4351 -0.3660 -0.8514
 2417TIP3    H228811   0.932   0.185   8.262  0.5492  0.1047  0.9154
 2418TIP3   OH228812   2.815   1.430   8.612 -0.4266 -0.3679  0.2015
 2418TIP3    H128813   2.842   1.339   8.624  1.3786  0.3806  2.6366
 2418TIP3    H228814   2.764   1.451   8.691  0.0917  1.0031  0.2127
 2419TIP3   OH228815   4.405   4.799   0.485 -0.1006 -0.2208  0.1183
 2419TIP3    H128816   4.406   4.810   0.580 -0.2420  1.3010 -0.0386
 2419TIP3    H228817   4.326   4.843   0.456  1.4235  1.9821 -0.9704
 2420TIP3   OH228818   3.108   3.178   7.972 -0.1349 -0.6923 -0.2720
 2420TIP3    H128819   3.156   3.258   7.993  0.3736 -1.3879  1.3008
 2420TIP3    H228820   3.049   3.204   7.901  1.3527  0.5909 -1.0919
 2421TIP3   OH228821   1.253   5.939   1.270  0.9106  0.1517  0.2207
 2421TIP3    H128822   1.193   5.877   1.231  3.4490 -1.9622 -0.6054
 2421TIP3    H228823   1.201   5.985   1.336 -1.9244 -0.4254 -1.4629
 2422TIP3   OH228824   6.071   1.621   2.296 -0.5810  0.0511  0.0155
 2422TIP3    H128825   6.035   1.554   2.354  0.9370 -1.4831 -0.7168
 2422TIP3    H228826   6.054   1.589   2.208  0.6117  0.3490 -0.3454
 2423TIP3   OH228827   1.224   3.283   7.051 -0.5547 -0.0132  0.3588
 2423TIP3    H128828   1.153   3.219   7.044 -2.0480  1.7474 -2.3261
 2423TIP3    H228829   1.299   3.239   7.012 -1.1320 -0.7038 -0.0080
 2424TIP3   OH228830   4.721   0.304   0.243  0.1860 -0.4672  0.3746
 2424TIP3    H128831   4.636   0.347   0.233 -0.0096 -0.9129  0.1180
 2424TIP3    H228832   4.743   0.316   0.336 -1.3067 -2.4763  1.0477
 2425TIP3   OH228833   4.921   5.194   1.331 -0.0756 -0.0138 -0.2727
 2425TIP3    H128834   4.876   5.227   1.408 -0.8566 -0.8486 -0.3532
 2425TIP3    H228835   4.880   5.109   1.314  1.6610 -0.8968 -0.2513
 2426TIP3   OH228836   3.864   1.829   1.538 -0.4762 -0.5560 -0.1964
 2426TIP3    H128837   3.772   1.814   1.557 -1.5351  0.7710 -3.6006
 2426TIP3    H228838   3.886   1.765   1.470  1.3853 -1.3152  1.0188
 2427TIP3   OH228839   2.859   4.206   1.341  0.3273  0.2338  0.4329
 2427TIP3    H128840   2.894   4.201   1.429 -0.1382  0.5038  0.6399
 2427TIP3    H228841   2.918   4.266   1.295  0.4941  0.1961  0.5984
 2428TIP3   OH228842   1.068   2.623   2.471  0.1428  0.1480 -0.1276
 2428TIP3    H128843   1.120   2.576   2.536 -0.6737 -0.6228 -0.0212
 2428TIP3    H228844   1.099   2.714   2.477 -0.1359  0.1619  1.5677
 2429TIP3   OH228845   0.582   5.085   1.640 -0.2637 -0.2176 -0.6617
 2429TIP3    H128846   0.613   5.079   1.550  0.9076 -0.3712 -0.2668
 2429TIP3    H228847   0.660   5.110   1.691 -1.4174  2.4394 -0.0132
 2430TIP3   OH228848   2.743   0.568   0.165 -0.0939 -0.1191  0.0436
 2430TIP3    H128849   2.774   0.498   0.106 -0.3167  0.3244 -0.6095
 2430TIP3    H228850   2.801   0.642   0.146 -1.6495  0.8024 -1.3636
 2431TIP3   OH228851   6.406   4.368   1.260 -0.0906  0.6143  0.4667
 2431TIP3    H128852   6.374   4.367   1.350 -0.3047  2.6123  0.4516
 2431TIP3    H228853   6.350   4.430   1.215 -0.2513 -0.6668 -1.1852
 2432TIP3   OH228854   5.394   4.679   1.647  0.1421  0.0189  0.4123
 2432TIP3    H128855   5.317   4.679   1.704  0.1693 -1.6350  0.4786
 2432TIP3    H228856   5.434   4.765   1.661 -0.9351  0.3823  1.3985
 2433TIP3   OH228857   6.524   3.447   7.693  0.7237 -0.0813 -0.7501
 2433TIP3    H128858   6.497   3.357   7.709  1.9556 -0.7935 -2.3807
 2433TIP3    H228859   6.453   3.485   7.642  0.2515 -0.1592 -0.1575
 2434TIP3   OH228860   4.344   6.685   1.240 -0.0626 -0.4025 -0.1301
 2434TIP3    H128861   4.396   6.625   1.295 -0.3248  0.6340  1.2917
 2434TIP3    H228862   4.407   6.720   1.177  0.9722  0.6728  1.4361
 2435TIP3   OH228863   6.173   5.349   2.687 -0.1117 -0.1696  0.1602
 2435TIP3    H128864   6.148   5.283   2.623  1.2175 -0.2417 -0.3160
 2435TIP3    H228865   6.193   5.427   2.634  0.8450 -0.1836  0.4893
 2436TIP3   OH228866   2.433   0.053   0.823  0.3404 -0.4255 -0.1658
 2436TIP3    H128867   2.418   0.020   0.911  0.2759  1.0537  0.4077
 2436TIP3    H228868   2.393  -0.013   0.765  2.2419 -2.4936  0.7632
 2437TIP3   OH228869   3.938   6.612   2.397 -0.2248  0.0337 -0.2642
 2437TIP3    H128870   3.976   6.647   2.477  0.8047 -0.1911 -0.6438
 2437TIP3    H228871   3.997   6.639   2.327 -0.2479 -1.1076 -0.7537
 2438TIP3   OH228872   5.516   1.262   2.452  0.1849 -0.3364  0.2098
 2438TIP3    H128873   5.520   1.338   2.510 -0.4756  2.1524 -2.7379
 2438TIP3    H228874   5.602   1.221   2.459  0.3785  0.3552  2.2589
 2439TIP3   OH228875   5.396   3.290   7.090  0.2070 -0.2346 -0.2461
 2439TIP3    H128876   5.389   3.381   7.118 -0.5396  0.3235 -2.0751
 2439TIP3    H228877   5.440   3.294   7.005 -0.7953 -1.4477 -0.8744
 2440TIP3   OH228878   4.295   6.785   0.499  0.0628  0.0568  0.4324
 2440TIP3    H128879   4.290   6.774   0.404  1.2721  0.4908  0.2907
 2440TIP3    H228880   4.332   6.703   0.530 -2.1574 -0.8616  0.7793
 2441TIP3   OH228881   1.071   5.355   7.529 -0.4051  0.5444 -0.4874
 2441TIP3    H128882   1.073   5.357   7.625  0.9270 -1.2220 -0.4311
 2441TIP3    H228883   0.983   5.384   7.506 -1.2597 -0.4499  1.3460
 2442TIP3   OH228884   1.455   2.940   0.925  0.2791 -0.6834  0.1775
 2442TIP3    H128885   1.486   3.023   0.887  5.1176 -1.6435  1.3247
 2442TIP3    H228886   1.427   2.963   1.014 -2.0841  0.1504 -0.7088
 2443TIP3   OH228887   3.594   1.332   0.903  0.1928 -0.0319 -0.0844
 2443TIP3    H128888   3.652   1.266   0.865  1.9947  1.6459 -0.4404
 2443TIP3    H228889   3.546   1.368   0.828  0.0058 -0.1746 -0.0356
 2444TIP3   OH228890   4.090   1.509   8.431  0.2679 -0.6032 -0.1207
 2444TIP3    H128891   4.178   1.498   8.396  0.4825 -1.6397  0.6845
 2444TIP3    H228892   4.094   1.472   8.519 -0.4016  1.4142  0.8027
 2445TIP3   OH228893   6.237   0.827   7.670 -0.5086 -0.1989  0.1241
 2445TIP3    H128894   6.189   0.859   7.747 -0.2218  1.1481 -0.2305
 2445TIP3    H228895   6.213   0.888   7.600  0.1370 -0.7229 -0.5696
 2446TIP3   OH228896   4.354   0.970   0.848 -0.1043  0.1649  0.0555
 2446TIP3    H128897   4.271   0.940   0.886 -0.3450  0.9003  0.1208
 2446TIP3    H228898   4.410   0.988   0.924  0.7291 -1.9188  0.0206
 2447TIP3   OH228899   3.638   3.173   7.741  0.4246 -0.1662  0.6042
 2447TIP3    H128900   3.720   3.218   7.759 -0.2732  1.2148  0.4122
 2447TIP3    H228901   3.579   3.203   7.810 -0.5549  0.5912 -0.5321
 2448TIP3   OH228902   3.937   1.768   8.454 -0.3122 -0.1930 -0.1577
 2448TIP3    H128903   3.989   1.845   8.432 -0.0133 -0.2645  0.2886
 2448TIP3    H228904   3.984   1.694   8.416 -0.3232 -0.2106 -0.1379
 2449TIP3   OH228905   3.087   4.892   7.602 -0.5546  0.2587 -0.2607
 2449TIP3    H128906   3.031   4.867   7.529  0.4339 -1.8793 -0.3483
 2449TIP3    H228907   3.175   4.863   7.577 -0.2362 -0.8856  1.8845
 2450TIP3   OH228908   0.789   2.943   8.113  0.9603 -0.1422  0.2813
 2450TIP3    H128909   0.716   2.999   8.085  0.7880 -0.4889  0.0269
 2450TIP3    H228910   0.828   2.913   8.031  0.1142 -1.6133  0.3868
 2451TIP3   OH228911   1.026   6.109   0.929 -0.5998 -0.0961 -0.1047
 2451TIP3    H128912   1.081   6.177   0.892 -0.7613  0.5781  0.8628
 2451TIP3    H228913   0.943   6.117   0.882 -0.8093  0.7600  0.3922
 2452TIP3   OH228914   3.586   0.544   0.205  1.1397 -0.6725  0.9564
 2452TIP3    H128915   3.613   0.575   0.118  0.4147 -0.8700  0.6581
 2452TIP3    H228916   3.641   0.594   0.266 -1.1860  2.6147  0.6052
 2453TIP3   OH228917   3.442   5.110   8.005  0.6651  0.4694 -0.3168
 2453TIP3    H128918   3.350   5.112   7.982  0.6130  0.3360 -0.1240
 2453TIP3    H228919   3.456   5.023   8.041  0.3630  1.1799  1.6614
 2454TIP3   OH228920   2.546   6.390   7.176  0.0097 -0.1207  0.0711
 2454TIP3    H128921   2.629   6.370   7.134  3.1454  1.3922  4.6995
 2454TIP3    H228922   2.554   6.482   7.202 -3.1584  0.0890  0.7061
 2455TIP3   OH228923   1.608   1.206   2.445  0.6083  0.2010  0.3013
 2455TIP3    H128924   1.675   1.235   2.508  0.5065  0.6923  0.1905
 2455TIP3    H228925   1.575   1.287   2.407 -1.0854  0.0834  1.4065
 2456TIP3   OH228926   4.226   5.407   1.665  0.7056 -0.4234 -0.2553
 2456TIP3    H128927   4.222   5.453   1.581 -1.0718 -0.4344 -0.2238
 2456TIP3    H228928   4.161   5.338   1.656 -1.7097  1.3392  2.0977
 2457TIP3   OH228929   4.243   3.226   1.523 -0.1809 -0.0861 -0.3275
 2457TIP3    H128930   4.311   3.193   1.465 -0.7900 -0.0776 -1.0553
 2457TIP3    H228931   4.201   3.296   1.473 -1.7661 -1.1442 -0.5391
 2458TIP3   OH228932   2.841   6.058   1.067 -0.0439 -0.4011 -0.0118
 2458TIP3    H128933   2.812   5.969   1.046  0.4772 -0.7374  0.6525
 2458TIP3    H228934   2.778   6.115   1.023  1.0452 -1.0513 -2.6275
 2459TIP3   OH228935   4.899   1.473   8.320 -0.1679 -0.4439 -0.8959
 2459TIP3    H128936   4.947   1.407   8.369  0.2284  0.9130  0.6415
 2459TIP3    H228937   4.897   1.549   8.379 -3.3035 -0.1000 -1.2942
 2460TIP3   OH228938   5.240   0.650   8.619  0.2660  0.3919  0.1755
 2460TIP3    H128939   5.221   0.640   8.525  2.0148 -1.8809 -0.0345
 2460TIP3    H228940   5.154   0.657   8.660 -0.6024  0.1202 -1.5075
 2461TIP3   OH228941   1.495   2.614   0.772 -0.0471 -0.0394 -0.1029
 2461TIP3    H128942   1.461   2.696   0.735 -1.3051 -1.5288 -2.4119
 2461TIP3    H228943   1.427   2.587   0.834 -0.0925  0.1537 -0.0655
 2462TIP3   OH228944   2.751   2.992   0.029  0.6671  0.6470 -0.4433
 2462TIP3    H128945   2.684   2.935  -0.009 -0.3706  0.3161  1.7541
 2462TIP3    H228946   2.833   2.960  -0.008  0.2377 -2.8511  1.2228
 2463TIP3   OH228947   4.478   6.522   1.793 -0.2773 -0.3084  0.4237
 2463TIP3    H128948   4.557   6.542   1.742 -0.5975 -0.6310 -0.2125
 2463TIP3    H228949   4.407   6.521   1.729 -0.8455  0.2194  1.0329
 2464TIP3   OH228950   1.945   3.937   0.051 -0.3971 -0.3877 -0.3363
 2464TIP3    H128951   2.026   3.937   0.102 -0.4136  1.2575 -0.2605
 2464TIP3    H228952   1.936   3.847   0.020  1.6223 -0.5479 -0.5840
 2465TIP3   OH228953   3.245   4.071   0.839 -0.3428  0.1481 -0.3415
 2465TIP3    H128954   3.258   4.137   0.771 -0.2279  1.2414  0.6948
 2465TIP3    H228955   3.264   4.117   0.921  0.7445 -1.4486  0.3610
 2466TIP3   OH228956   5.234   0.697   0.517  0.0319  0.0544 -0.0096
 2466TIP3    H128957   5.199   0.686   0.606  1.6388 -0.5724  0.5743
 2466TIP3    H228958   5.298   0.767   0.525 -0.3905  0.5553 -0.8689
 2467TIP3   OH228959   4.547   3.241   0.525 -0.3001 -0.1135  0.9682
 2467TIP3    H128960   4.480   3.210   0.463  0.8210 -0.8100  0.0641
 2467TIP3    H228961   4.497   3.272   0.600 -1.6231 -2.1757  1.0391
 2468TIP3   OH228962   4.869   6.477   7.581 -0.1548  0.1407  0.5523
 2468TIP3    H128963   4.816   6.527   7.644 -0.1321  0.5316  0.2609
 2468TIP3    H228964   4.943   6.534   7.561  0.3691 -0.3952  0.9324
 2469TIP3   OH228965   0.806   0.326   2.973 -0.8591  0.2832 -0.2758
 2469TIP3    H128966   0.779   0.416   2.956 -0.0912  0.5640 -0.0645
 2469TIP3    H228967   0.839   0.328   3.063  0.4928  0.1247 -0.7475
 2470TIP3   OH228968   1.131   4.305   8.506  0.0566  0.3718 -0.3308
 2470TIP3    H128969   1.062   4.268   8.561  0.8202 -1.3163 -0.4286
 2470TIP3    H228970   1.148   4.237   8.440  2.5615  0.2047  0.3631
 2471TIP3   OH228971   0.152   5.976   7.811 -0.3654 -0.2938  0.2910
 2471TIP3    H128972   0.104   5.996   7.731  0.3290 -0.2550 -0.1216
 2471TIP3    H228973   0.237   6.018   7.799 -0.4730  0.2395  1.3205
 2472TIP3   OH228974   4.945   5.085   0.551 -0.0562 -0.0675 -0.6062
 2472TIP3    H128975   5.000   5.109   0.626 -1.4902  0.1870  0.4158
 2472TIP3    H228976   5.003   5.089   0.476  1.7756 -1.5860  0.6321
 2473TIP3   OH228977   1.161   5.296   0.778 -0.2250 -0.1823  0.4088
 2473TIP3    H128978   1.089   5.345   0.738 -0.6707 -1.9510 -1.1284
 2473TIP3    H228979   1.139   5.204   0.760  1.9598 -0.8081  0.7245
 2474TIP3   OH228980   4.135   4.447   2.642  0.4276  0.7902  0.2357
 2474TIP3    H128981   4.107   4.538   2.642  0.3790  0.7811  1.0294
 2474TIP3    H228982   4.151   4.426   2.734 -0.8151 -0.3707  0.2366
 2475TIP3   OH228983   2.818   1.987   0.961  0.6812 -0.6364 -0.6150
 2475TIP3    H128984   2.878   2.033   0.903  1.9673  0.7803  1.7168
 2475TIP3    H228985   2.732   2.022   0.939  1.2534  0.5558 -1.0374
 2476TIP3   OH228986   3.679   0.298   2.029  0.6018 -0.2875  0.2037
 2476TIP3    H128987   3.595   0.308   1.985  0.7375 -1.2084 -0.2848
 2476TIP3    H228988   3.661   0.238   2.102  0.7245 -0.0468  0.4384
 2477TIP3   OH228989   3.548   3.040   7.203 -0.3741  0.2209  0.0519
 2477TIP3    H128990   3.505   3.057   7.119 -1.0270 -2.6746 -0.3003
 2477TIP3    H228991   3.600   3.118   7.219 -1.3727  1.4798 -2.3221
 2478TIP3   OH228992   2.765   4.391   8.625 -0.1401  0.3324 -1.2729
 2478TIP3    H128993   2.833   4.421   8.565  1.7096  0.2942  0.6654
 2478TIP3    H228994   2.732   4.471   8.666  0.4395  0.1928 -0.5137
 2479TIP3   OH228995   1.571   0.749   8.701 -0.6447  0.2088 -0.5538
 2479TIP3    H128996   1.596   0.835   8.665 -1.1393  0.8926  0.6775
 2479TIP3    H228997   1.632   0.688   8.661  0.8898  1.3925 -0.1075
 2480TIP3   OH228998   6.220   0.229   8.232  0.5817 -0.7001  0.1705
 2480TIP3    H128999   6.244   0.161   8.169  0.0097 -1.0639  0.3424
 2480TIP3    H229000   6.222   0.310   8.180 -1.8534 -1.2260 -0.8495
 2481TIP3   OH229001   0.374   2.663   0.622 -0.4075 -0.2031  0.1430
 2481TIP3    H129002   0.309   2.670   0.552 -0.5074 -2.8536 -0.1453
 2481TIP3    H229003   0.430   2.590   0.595  1.3652  0.5994  1.4485
 2482TIP3   OH229004   5.842   3.183   0.602 -0.7539 -0.1770  0.3475
 2482TIP3    H129005   5.920   3.128   0.589 -1.1202 -0.5821 -0.2217
 2482TIP3    H229006   5.863   3.265   0.556  0.0505  0.4284  1.7469
 2483TIP3   OH229007   2.398   0.795   8.633 -0.0283  0.6694  0.0051
 2483TIP3    H129008   2.405   0.836   8.720 -0.1708  2.4317 -0.7769
 2483TIP3    H229009   2.309   0.761   8.630  0.5689 -1.2152  1.2596
 2484TIP3   OH229010   5.803   2.950   2.041 -0.2639  0.6814 -0.2749
 2484TIP3    H129011   5.831   2.870   1.996 -1.0692  0.7099 -0.8531
 2484TIP3    H229012   5.883   3.000   2.052  0.5731 -0.9678  1.7227
 2485TIP3   OH229013   3.321   5.922   1.628 -0.2578 -0.1512  0.2433
 2485TIP3    H129014   3.340   5.954   1.539 -0.3552 -0.0362  0.2636
 2485TIP3    H229015   3.407   5.901   1.664 -0.2368 -0.4272  0.0364
 2486TIP3   OH229016   5.841   4.412   1.410  0.4399  0.2688 -0.1228
 2486TIP3    H129017   5.914   4.444   1.464  1.7325 -0.8587 -1.1142
 2486TIP3    H229018   5.796   4.349   1.465 -0.2897  1.5199  0.7693
 2487TIP3   OH229019   6.586   0.313   8.342 -0.3519  0.0556  0.1884
 2487TIP3    H129020   6.606   0.229   8.300  2.7785  0.7576 -0.0246
 2487TIP3    H229021   6.640   0.313   8.421 -1.1188  1.4594  0.7415
 2488TIP3   OH229022   4.450   0.241   8.156 -0.1924  0.1624 -0.3378
 2488TIP3    H129023   4.391   0.200   8.093  1.8262  0.2568 -2.4403
 2488TIP3    H229024   4.484   0.169   8.209  0.9066 -0.5344 -1.8983
 2489TIP3   OH229025   0.072   5.642   7.876 -0.9039  0.1129 -0.0742
 2489TIP3    H129026   0.038   5.576   7.937  0.8681 -0.8960 -0.1016
 2489TIP3    H229027   0.071   5.723   7.927 -0.2262 -0.5558  1.0671
 2490TIP3   OH229028   6.316   3.533   7.550 -0.0403  0.1770  1.1300
 2490TIP3    H129029   6.246   3.472   7.529 -0.8333  0.3886  2.9534
 2490TIP3    H229030   6.279   3.619   7.535 -0.0071  0.2751  1.5840
 2491TIP3   OH229031   6.125   1.141   1.972 -0.3904  0.7819 -0.1195
 2491TIP3    H129032   6.060   1.202   2.008  0.0733  0.5767  1.1461
 2491TIP3    H229033   6.089   1.054   1.990 -0.7537  0.6547 -1.3562
 2492TIP3   OH229034   3.440   6.425   8.328  0.2453 -0.4833 -0.4538
 2492TIP3    H129035   3.508   6.487   8.354 -0.5686  0.4236 -0.4249
 2492TIP3    H229036   3.438   6.360   8.398 -0.5160  0.7947  0.7566
 2493TIP3   OH229037   6.178   0.605   1.926  0.0353  0.1052  0.7549
 2493TIP3    H129038   6.199   0.538   1.991  1.2405 -1.1645 -0.8635
 2493TIP3    H229039   6.160   0.556   1.846 -3.0746  1.5145  0.4412
 2494TIP3   OH229040   6.476   1.114   2.490  0.1225 -0.2676 -0.3017
 2494TIP3    H129041   6.509   1.024   2.491  0.3564 -0.1821  0.3075
 2494TIP3    H229042   6.445   1.127   2.401  2.1684 -0.1907 -1.0541
 2495TIP3   OH229043   5.572   2.848   1.620  0.1197  0.1765  0.2798
 2495TIP3    H129044   5.606   2.783   1.682  1.0347  0.1358 -0.2439
 2495TIP3    H229045   5.630   2.841   1.544 -0.3384  0.9664 -0.1555
 2496TIP3   OH229046   5.661   6.598   2.185  0.2826 -0.0007 -0.3940
 2496TIP3    H129047   5.688   6.591   2.094  0.8291  1.5641 -0.3787
 2496TIP3    H229048   5.607   6.520   2.200 -0.3033  0.0215 -2.2063
 2497TIP3   OH229049   1.252   2.233   0.534  0.1558 -0.4044 -0.4246
 2497TIP3    H129050   1.342   2.266   0.522  0.8053 -0.8323  2.4267
 2497TIP3    H229051   1.259   2.139   0.522 -0.0805 -0.3530 -0.9700
 2498TIP3   OH229052   3.919   1.031   1.850  0.3128 -0.1219  0.2073
 2498TIP3    H129053   3.878   1.107   1.811  1.0426  0.8684  1.2884
 2498TIP3    H229054   3.916   0.964   1.782 -1.0623  0.6055 -0.4822
 2499TIP3   OH229055   6.341   0.583   7.762  0.2599  0.5404 -0.0596
 2499TIP3    H129056   6.350   0.572   7.856 -0.5952  1.4240  0.1453
 2499TIP3    H229057   6.336   0.678   7.749 -1.6519  0.3910 -0.7681
 2500TIP3   OH229058   3.816   2.797   0.656 -0.4948  0.1224 -0.1702
 2500TIP3    H129059   3.881   2.741   0.698  0.5140  0.6659 -0.9525
 2500TIP3    H229060   3.822   2.880   0.703  1.5197  1.1551 -2.0209
 2501TIP3   OH229061   5.330   2.234   0.066 -0.3971  0.0573 -0.1381
 2501TIP3    H129062   5.409   2.216   0.014 -0.0790  2.4419 -0.6000
 2501TIP3    H229063   5.338   2.178   0.143  2.5644  1.2912  0.5803
 2502TIP3   OH229064   3.247   1.242   3.209  0.2316 -0.0981 -0.1789
 2502TIP3    H129065   3.278   1.160   3.246  0.9746  0.2443 -0.0365
 2502TIP3    H229066   3.195   1.282   3.280 -2.7117 -1.7894 -1.1869
 2503TIP3   OH229067   0.399   4.076   2.358  0.6429  0.1511 -0.1292
 2503TIP3    H129068   0.356   4.153   2.395 -0.3070 -0.7559  0.7196
 2503TIP3    H229069   0.430   4.028   2.435  1.1985 -0.3289 -0.6510
 2504TIP3   OH229070   4.041   5.689   7.950  0.1106 -0.1017  0.2187
 2504TIP3    H129071   4.045   5.605   7.904 -0.8451  0.0233 -0.1187
 2504TIP3    H229072   4.005   5.750   7.886  1.4892  0.7584  0.2142
 2505TIP3   OH229073   5.394   5.462   0.539  0.3599 -0.3812 -0.4290
 2505TIP3    H129074   5.409   5.519   0.614  1.3403 -1.7977  0.4882
 2505TIP3    H229075   5.298   5.455   0.534  0.2057  1.2404 -0.5368
 2506TIP3   OH229076   3.087   1.252   0.715 -0.1264 -0.1687 -0.7431
 2506TIP3    H129077   3.124   1.253   0.804  1.9626  1.8263 -1.5318
 2506TIP3    H229078   2.996   1.223   0.727  0.9434 -3.0351  1.6202
 2507TIP3   OH229079   4.244   0.422   7.698 -0.0221  0.3826  0.2751
 2507TIP3    H129080   4.205   0.343   7.734  2.1459 -0.5950  0.6647
 2507TIP3    H229081   4.170   0.475   7.668 -1.5137 -2.1004 -0.6808
 2508TIP3   OH229082   2.351   6.047   2.116 -0.3457  0.9323 -0.1491
 2508TIP3    H129083   2.410   6.115   2.150 -1.0302  1.0293  0.8841
 2508TIP3    H229084   2.404   5.967   2.116  0.8229  1.6185 -2.4117
 2509TIP3   OH229085   5.804   0.834   0.469 -0.4812  0.0356  0.2335
 2509TIP3    H129086   5.880   0.892   0.474 -2.3875  2.8585 -1.1154
 2509TIP3    H229087   5.823   0.777   0.395 -0.2582  1.7473 -1.1088
 2510TIP3   OH229088   2.091   4.011   0.378  0.6580 -0.3663 -0.4068
 2510TIP3    H129089   2.004   4.037   0.408  1.2367 -0.2813  1.2563
 2510TIP3    H229090   2.143   4.001   0.458  1.1661 -4.2345 -1.0223
 2511TIP3   OH229091   3.281   1.831   2.282  0.2172 -0.3261  0.5494
 2511TIP3    H129092   3.243   1.756   2.236 -1.4548 -0.0101  1.3385
 2511TIP3    H229093   3.332   1.793   2.353 -1.9964 -0.7825  2.0027
 2512TIP3   OH229094   3.190   5.113   0.008  0.5837 -0.2058  0.7590
 2512TIP3    H129095   3.154   5.195   0.041  0.0047 -0.7228  1.4245
 2512TIP3    H229096   3.208   5.130  -0.085  0.4639  0.6654  0.8932
 2513TIP3   OH229097   0.164   0.682   1.103 -0.5748  0.2175  0.1307
 2513TIP3    H129098   0.219   0.696   1.181 -0.6792  0.7533  0.1112
 2513TIP3    H229099   0.146   0.588   1.104 -0.9573  0.2826  1.0161
 2514TIP3   OH229100   1.504   2.064   0.806  0.1915 -0.6867  0.4080
 2514TIP3    H129101   1.516   1.988   0.863  0.6522 -0.2546  0.9022
 2514TIP3    H229102   1.554   2.133   0.848 -1.5170  0.3467  0.8531
 2515TIP3   OH229103   0.179   2.237   0.746  0.5338  0.3318 -0.0573
 2515TIP3    H129104   0.096   2.193   0.727  1.1642 -0.5407 -0.9474
 2515TIP3    H229105   0.155   2.318   0.789 -0.7207 -0.5980  1.0603
 2516TIP3   OH229106   5.253   5.116   8.631 -0.1141 -0.0162 -0.2922
 2516TIP3    H129107   5.241   5.033   8.678 -1.7147  0.0523 -0.5182
 2516TIP3    H229108   5.333   5.102   8.579 -0.8878 -1.8200 -1.1061
 2517TIP3   OH229109   5.221   4.898   0.893 -0.2881 -0.6401  0.5905
 2517TIP3    H129110   5.125   4.904   0.888 -0.2673  0.9681  1.3848
 2517TIP3    H229111   5.238   4.857   0.977 -0.2770 -1.9825 -0.0504
 2518TIP3   OH229112   6.301   1.519   1.806 -0.1821  0.4249 -0.2850
 2518TIP3    H129113   6.320   1.575   1.882 -1.0894  0.9016 -0.3935
 2518TIP3    H229114   6.216   1.550   1.775 -0.6649 -0.9658 -0.4128
 2519TIP3   OH229115   1.379   6.022   2.452  0.0274  0.1376  0.1550
 2519TIP3    H129116   1.379   5.927   2.455  0.8925  0.0773 -0.9962
 2519TIP3    H229117   1.464   6.045   2.414 -0.7118  1.3187 -0.8716
 2520TIP3   OH229118   4.082   6.331   7.657  0.2248 -0.1357  0.0055
 2520TIP3    H129119   4.022   6.332   7.731  1.1624  1.3284  0.7859
 2520TIP3    H229120   4.026   6.344   7.580 -0.7498 -1.6578  0.4243
 2521TIP3   OH229121   2.937   0.740   1.170 -0.2292 -0.4726  0.2278
 2521TIP3    H129122   3.014   0.740   1.113 -0.1180  1.2954  0.3053
 2521TIP3    H229123   2.870   0.785   1.119  0.1680  2.0637  1.7857
 2522TIP3   OH229124   5.523   1.804   8.432 -0.0983 -0.6695 -0.1587
 2522TIP3    H129125   5.607   1.841   8.407  0.6837 -1.9313  0.4705
 2522TIP3    H229126   5.458   1.861   8.391  1.0613  0.1205 -0.9636
 2523TIP3   OH229127   1.470   6.678   2.593 -0.2337  0.3291  0.3885
 2523TIP3    H129128   1.391   6.713   2.552  0.4283 -0.9372 -2.2003
 2523TIP3    H229129   1.491   6.740   2.663 -1.7111  2.4312 -0.9214
 2524TIP3   OH229130   5.959   6.593   0.043 -0.6909  0.2192  0.4891
 2524TIP3    H129131   5.905   6.575  -0.033  1.3905  0.5372 -1.1535
 2524TIP3    H229132   5.956   6.688   0.053 -1.4492  0.1309  1.2202
 2525TIP3   OH229133   3.003   6.489   8.381  0.0123 -0.2854  0.6284
 2525TIP3    H129134   3.063   6.511   8.452 -1.4173  0.8017  1.5442
 2525TIP3    H229135   3.041   6.530   8.303  1.4702 -1.2941  0.7800
 2526TIP3   OH229136   2.461   0.550   1.354  0.2398 -0.1901  0.2132
 2526TIP3    H129137   2.506   0.470   1.326  1.5602  0.3689  0.6420
 2526TIP3    H229138   2.495   0.617   1.295  1.0868  0.5127  1.4616
 2527TIP3   OH229139   2.752   1.588   1.208  0.1793  0.1098 -0.3077
 2527TIP3    H129140   2.778   1.497   1.222 -0.7713  0.0050  0.9179
 2527TIP3    H229141   2.834   1.636   1.207  0.5857 -0.2200  3.2605
 2528TIP3   OH229142   4.070   4.022   0.987  0.3060  0.1522  0.8647
 2528TIP3    H129143   4.002   4.061   0.933  0.5480  0.7316  0.9752
 2528TIP3    H229144   4.029   3.944   1.026 -0.4349  0.7580  1.3108
 2529TIP3   OH229145   5.215   6.670   2.713 -0.0936  0.5635 -0.3252
 2529TIP3    H129146   5.146   6.610   2.741 -0.3660  0.7723 -0.5383
 2529TIP3    H229147   5.277   6.671   2.785 -1.2854  1.8897  0.7470
 2530TIP3   OH229148   1.632   4.576   8.651  0.2515  0.2114 -0.3701
 2530TIP3    H129149   1.614   4.670   8.648  2.5015  0.6761 -2.7511
 2530TIP3    H229150   1.645   4.551   8.560 -1.2596 -2.6876  0.0926
 2531TIP3   OH229151   6.566   1.296   2.214 -0.4220  0.5650 -0.1751
 2531TIP3    H129152   6.559   1.358   2.141  0.4709 -0.8811 -1.5591
 2531TIP3    H229153   6.499   1.230   2.197 -0.7591  0.6368  0.7890
 2532TIP3   OH229154   0.163   6.665   0.752 -0.0243  0.3372 -0.9703
 2532TIP3    H129155   0.237   6.657   0.692  0.9194  0.8796  0.0709
 2532TIP3    H229156   0.198   6.717   0.825 -0.5008 -1.9327  1.0030
 2533TIP3   OH229157   4.347   2.530   1.137  0.4204 -0.1199 -0.2258
 2533TIP3    H129158   4.265   2.504   1.096  1.0243 -2.3343 -0.1561
 2533TIP3    H229159   4.391   2.583   1.070 -1.9419  3.1481  0.5513
 2534TIP3   OH229160   5.718   3.925   0.776  0.4107 -0.0052  0.1938
 2534TIP3    H129161   5.648   3.932   0.712 -0.6582 -1.5142  1.1372
 2534TIP3    H229162   5.732   3.830   0.786  0.3416  0.1627  2.3676
 2535TIP3   OH229163   0.816   4.838   0.728  0.4169  0.0172 -0.2108
 2535TIP3    H129164   0.875   4.776   0.771  1.3049 -0.9838 -2.7182
 2535TIP3    H229165   0.738   4.786   0.708 -0.0689  0.5305  0.3138
 2536TIP3   OH229166   1.445   6.575   1.056  0.2601  0.5394  0.5430
 2536TIP3    H129167   1.513   6.530   1.107 -0.3951 -0.9189  0.1812
 2536TIP3    H229168   1.415   6.509   0.993  0.0978  1.8762 -0.8262
 2537TIP3   OH229169   6.654   5.175   8.142 -0.2391 -0.2643 -0.2732
 2537TIP3    H129170   6.668   5.150   8.050  1.5056 -1.0635  0.1617
 2537TIP3    H229171   6.643   5.091   8.188  1.0233 -0.0214  0.5267
 2538TIP3   OH229172   5.549   4.681   7.166 -0.0051  0.4940 -0.7530
 2538TIP3    H129173   5.535   4.763   7.214 -0.2859  0.4541 -0.7634
 2538TIP3    H229174   5.639   4.656   7.187 -0.1202  0.4892 -0.2670
 2539TIP3   OH229175   1.097   3.527   2.420 -0.9280  0.4021  0.3277
 2539TIP3    H129176   1.037   3.525   2.494  0.1067 -0.2963  1.1761
 2539TIP3    H229177   1.042   3.550   2.345 -2.1300  0.3775  1.1749
 2540TIP3   OH229178   0.070   6.658   1.077  0.3323 -0.0876  0.2760
 2540TIP3    H129179  -0.018   6.640   1.043  0.5171 -0.7611  0.1610
 2540TIP3    H229180   0.061   6.650   1.172  0.2550 -0.0687  0.2706
 2541TIP3   OH229181   5.113   5.449   7.495 -0.2246  0.3125 -0.5987
 2541TIP3    H129182   5.199   5.485   7.472 -0.4186 -1.2723 -4.5278
 2541TIP3    H229183   5.129   5.356   7.510 -0.8058  0.5916  2.5829
 2542TIP3   OH229184   3.748   5.503   8.685  0.0481  0.5547 -0.5252
 2542TIP3    H129185   3.830   5.549   8.671 -0.3303  1.3445 -0.1811
 2542TIP3    H229186   3.730   5.511   8.778 -0.1757 -0.0299 -0.5126
 2543TIP3   OH229187   4.460   3.150   7.396 -0.6710 -0.1005 -0.0345
 2543TIP3    H129188   4.537   3.114   7.439 -1.1570 -1.0715  0.0433
 2543TIP3    H229189   4.441   3.230   7.445  1.5400  1.3460 -1.3907
 2544TIP3   OH229190   0.795   6.668   2.475 -0.2147  0.7882  0.0660
 2544TIP3    H129191   0.845   6.611   2.417  1.3557  1.3783  0.7677
 2544TIP3    H229192   0.721   6.615   2.504 -1.8086  0.8537 -3.3869
 2545TIP3   OH229193   6.605   5.721   1.459 -0.3982  0.5141 -0.2835
 2545TIP3    H129194   6.628   5.777   1.385 -0.0924 -0.5558 -1.0296
 2545TIP3    H229195   6.660   5.643   1.448 -1.3948 -0.2871  0.2570
 2546TIP3   OH229196   1.658   2.398   2.971 -0.0580  0.2554 -0.2362
 2546TIP3    H129197   1.731   2.458   2.981  0.6175  0.0319 -3.0332
 2546TIP3    H229198   1.595   2.426   3.037  0.7683  3.2305 -0.5711
 2547TIP3   OH229199   6.132   0.849   2.071 -0.0511 -0.4291  0.1274
 2547TIP3    H129200   6.046   0.810   2.089 -0.3506  0.4704  0.7280
 2547TIP3    H229201   6.178   0.784   2.018 -0.3382 -1.8087  1.5190
 2548TIP3   OH229202   2.724   1.441   2.606  0.1691  0.3025 -0.0061
 2548TIP3    H129203   2.647   1.397   2.642  0.0402 -0.8398 -1.5502
 2548TIP3    H229204   2.787   1.445   2.678 -0.7104 -0.2763  0.8071
 2549TIP3   OH229205   3.330   4.753   7.539 -0.1795 -0.2690 -0.0295
 2549TIP3    H129206   3.332   4.678   7.480 -0.7868  0.1744 -0.6240
 2549TIP3    H229207   3.355   4.827   7.485 -0.5639  0.1158  0.3135
 2550TIP3   OH229208   4.929   0.825   8.251  0.6103  0.0377 -0.0942
 2550TIP3    H129209   5.011   0.780   8.230  0.6694  0.1350 -0.0679
 2550TIP3    H229210   4.890   0.845   8.166  0.3861 -0.4304 -0.1061
 2551TIP3   OH229211   2.316   2.895   8.642  0.2734 -0.0167  0.3172
 2551TIP3    H129212   2.283   2.951   8.713 -0.7492  0.1048 -0.2435
 2551TIP3    H229213   2.266   2.922   8.565  0.8669 -0.6479 -0.2952
 2552TIP3   OH229214   3.845   2.263   7.824  0.3909  0.2287 -0.2190
 2552TIP3    H129215   3.765   2.232   7.867 -0.0750  0.5675 -0.8396
 2552TIP3    H229216   3.910   2.264   7.895 -0.3341  0.6561  0.4571
 2553TIP3   OH229217   4.716   3.467   2.004 -0.3113 -0.2988  0.0355
 2553TIP3    H129218   4.664   3.547   2.006 -0.6539 -0.5298  0.6696
 2553TIP3    H229219   4.747   3.461   1.914 -1.0986  0.0340 -0.2733
 2554TIP3   OH229220   1.907   2.735   0.601  0.1153 -0.5417 -0.0211
 2554TIP3    H129221   1.915   2.742   0.506 -0.9044  2.8790  0.0270
 2554TIP3    H229222   1.897   2.825   0.631 -1.6000 -1.6433  3.1579
 2555TIP3   OH229223   6.342   0.821   0.102  0.2895  0.4885  0.2571
 2555TIP3    H129224   6.352   0.917   0.106  1.6194  0.5950 -2.7893
 2555TIP3    H229225   6.423   0.787   0.139  1.4041  0.7235 -1.8016
 2556TIP3   OH229226   4.298   3.513   1.814  0.0720 -0.3142  0.0496
 2556TIP3    H129227   4.305   3.589   1.757  1.1150 -1.4856 -1.4359
 2556TIP3    H229228   4.204   3.494   1.817 -0.1226  0.5955 -0.1358
 2557TIP3   OH229229   3.151   4.453   8.305  0.2812 -0.1873 -0.3195
 2557TIP3    H129230   3.120   4.383   8.248  1.8232  0.6107 -2.2666
 2557TIP3    H229231   3.244   4.462   8.283 -0.2774  3.9459 -1.9159
 2558TIP3   OH229232   3.701   3.653   2.266  0.7213 -0.0379 -0.4075
 2558TIP3    H129233   3.689   3.559   2.249 -1.0533  0.2636 -1.0037
 2558TIP3    H229234   3.682   3.695   2.182  0.8946  0.9118  0.0203
 2559TIP3   OH229235   2.617   4.279   0.389 -0.3280  0.4426 -0.1700
 2559TIP3    H129236   2.691   4.339   0.376  0.2415  0.1464  1.4851
 2559TIP3    H229237   2.634   4.238   0.474 -0.9046 -1.7765 -1.0377
 2560TIP3   OH229238   5.954   4.265   2.959  0.0441 -0.0613 -0.6301
 2560TIP3    H129239   5.901   4.320   3.016 -0.5201  0.6813 -1.8208
 2560TIP3    H229240   5.938   4.176   2.989 -0.8776  0.2509 -0.1535
 2561TIP3   OH229241   3.973   0.047   0.385  0.3399 -0.7415  0.0243
 2561TIP3    H129242   4.005  -0.042   0.399  1.6977 -0.3193 -0.2060
 2561TIP3    H229243   3.938   0.073   0.471 -0.1646 -1.5297  0.0610
 2562TIP3   OH229244   4.069   3.766   0.321 -0.5207  0.0982 -0.5522
 2562TIP3    H129245   4.030   3.694   0.272 -0.9464  1.4609 -2.3247
 2562TIP3    H229246   4.054   3.744   0.412 -2.5197 -1.0249 -1.0903
 2563TIP3   OH229247   1.240   5.477   0.311  0.0569  0.5665 -0.0551
 2563TIP3    H129248   1.191   5.450   0.233  1.3016  1.7832 -1.3248
 2563TIP3    H229249   1.252   5.396   0.361 -0.8614 -0.2302 -1.0667
 2564TIP3   OH229250   0.976   2.118   1.123 -0.7165 -0.2123 -0.2486
 2564TIP3    H129251   0.958   2.048   1.185  0.1597 -0.7488 -0.5898
 2564TIP3    H229252   0.904   2.113   1.060  0.6468 -2.5075 -1.7481
 2565TIP3   OH229253   4.486   3.637   2.005  0.0234 -0.0283 -0.6812
 2565TIP3    H129254   4.439   3.575   1.950 -0.1098 -0.0020 -0.5983
 2565TIP3    H229255   4.509   3.709   1.946 -1.4765  0.7351 -0.3862
 2566TIP3   OH229256   1.483   3.966   0.228 -0.1362 -0.2305 -0.2527
 2566TIP3    H129257   1.462   3.876   0.205 -2.6558  0.4414 -0.8197
 2566TIP3    H229258   1.574   3.977   0.200 -0.2222 -2.1557 -1.4826
 2567TIP3   OH229259   3.767   6.742   2.797 -0.5589 -0.2833  0.2041
 2567TIP3    H129260   3.763   6.648   2.814 -0.9165 -0.5476 -1.1804
 2567TIP3    H229261   3.732   6.783   2.876 -1.9064 -1.3804  0.1966
 2568TIP3   OH229262   2.496   6.020   0.441  0.8200 -0.3450  0.0684
 2568TIP3    H129263   2.406   6.041   0.416  0.8807  0.1941  0.2859
 2568TIP3    H229264   2.500   5.925   0.439 -0.1778 -0.4457  1.4872
 2569TIP3   OH229265   3.635   2.820   8.263  0.5832 -0.1684  0.3938
 2569TIP3    H129266   3.635   2.809   8.358  1.0934 -0.5336  0.3590
 2569TIP3    H229267   3.719   2.862   8.244  0.6024 -0.3413  0.0817
 2570TIP3   OH229268   0.504   6.719   0.371  1.0654 -0.3088  0.2031
 2570TIP3    H129269   0.593   6.729   0.405  1.8859  0.0412 -1.9047
 2570TIP3    H229270   0.514   6.668   0.291 -0.3091  1.5897 -1.2901
 2571TIP3   OH229271   2.599   4.060   7.976 -0.3063 -0.3332 -0.4238
 2571TIP3    H129272   2.632   4.137   8.022  0.3308  0.1389 -1.6293
 2571TIP3    H229273   2.664   4.044   7.907 -1.8489 -0.2481 -1.9518
 2572TIP3   OH229274   2.478   2.745   1.297  0.3772  0.2573  0.2133
 2572TIP3    H129275   2.501   2.761   1.388 -0.2259 -0.1368  0.4437
 2572TIP3    H229276   2.422   2.819   1.272  0.4777  0.3240  0.1858
 2573TIP3   OH229277   0.161   6.258   3.429  0.6061  0.1961  0.5908
 2573TIP3    H129278   0.075   6.223   3.450 -0.8882  1.5961 -2.4185
 2573TIP3    H229279   0.195   6.199   3.361  0.6367  1.2631 -0.3549
 2574TIP3   OH229280   4.618   5.887   1.984 -0.1211 -0.3715  0.2535
 2574TIP3    H129281   4.566   5.813   1.956  0.7852 -0.9062 -0.0739
 2574TIP3    H229282   4.595   5.900   2.076 -1.0309 -0.4069  0.0329
 2575TIP3   OH229283   1.771   1.497   7.313  0.2273 -0.2464 -0.6090
 2575TIP3    H129284   1.854   1.450   7.309 -0.0820 -0.7707 -0.8685
 2575TIP3    H229285   1.754   1.523   7.222  1.2132  1.8193 -0.2654
 2576TIP3   OH229286   5.126   5.529   0.304  0.4217  0.5461  0.3710
 2576TIP3    H129287   5.192   5.460   0.293 -0.7694 -0.3656 -1.6477
 2576TIP3    H229288   5.102   5.525   0.396 -0.7499 -2.9472  0.0847
 2577TIP3   OH229289   2.351   1.203   8.231  0.3325 -0.3212  0.1390
 2577TIP3    H129290   2.419   1.241   8.176  2.5758 -0.2591  2.7487
 2577TIP3    H229291   2.359   1.108   8.218 -0.3221 -0.2515 -0.8741
 2578TIP3   OH229292   0.258   0.377   2.352  0.5460  0.2514  0.1472
 2578TIP3    H129293   0.265   0.326   2.433 -1.3208 -1.2122 -0.5105
 2578TIP3    H229294   0.256   0.310   2.283 -2.2876  1.1119 -0.7421
 2579TIP3   OH229295   5.765   0.293   7.712 -0.1830  0.0827 -0.0231
 2579TIP3    H129296   5.781   0.199   7.719 -0.1325  0.0630 -0.3626
 2579TIP3    H229297   5.790   0.329   7.797 -0.1593 -0.2050  0.0916
 2580TIP3   OH229298   2.638   2.168   1.337  0.0451 -0.4744 -0.1780
 2580TIP3    H129299   2.572   2.155   1.269  0.2403  1.9895 -0.9130
 2580TIP3    H229300   2.589   2.197   1.414  0.0547 -1.0902  0.0705
 2581TIP3   OH229301   0.974   6.628   8.032  0.0688  0.2860  0.0575
 2581TIP3    H129302   1.064   6.646   8.005  0.3283 -0.1984  0.5838
 2581TIP3    H229303   0.939   6.571   7.964 -0.1105  1.1135 -0.5665
 2582TIP3   OH229304   2.605   4.008   8.508 -0.0863 -0.0995 -0.8370
 2582TIP3    H129305   2.584   3.988   8.599 -1.7785 -1.1413 -1.4119
 2582TIP3    H229306   2.697   4.035   8.510 -0.1288  0.0649  1.1815
 2583TIP3   OH229307   1.751   5.382   0.273  0.1665  0.3116 -0.0347
 2583TIP3    H129308   1.686   5.450   0.254 -2.4028 -1.5407  1.4106
 2583TIP3    H229309   1.778   5.401   0.363 -1.2163 -0.9533  0.6961
 2584TIP3   OH229310   6.356   1.308   7.105 -0.8884 -0.1483  0.1521
 2584TIP3    H129311   6.337   1.252   7.030  0.2906 -0.0469 -0.2361
 2584TIP3    H229312   6.293   1.281   7.171 -0.7519 -1.5124 -0.2387
 2585TIP3   OH229313   3.945   3.103   1.978  0.5155  0.7867 -0.1959
 2585TIP3    H129314   4.013   3.118   1.913  1.9337  0.6244  1.1914
 2585TIP3    H229315   3.979   3.142   2.058 -0.5652 -0.1908  0.7865
 2586TIP3   OH229316   1.601   0.024   2.796  0.3752  0.2288  0.2009
 2586TIP3    H129317   1.607   0.116   2.820  1.2317 -0.1483  1.5756
 2586TIP3    H229318   1.682   0.006   2.748 -0.0374  0.3165 -0.5296
 2587TIP3   OH229319   3.903   5.727   1.047  0.2164 -0.0782 -0.2669
 2587TIP3    H129320   3.996   5.720   1.025 -0.0581 -1.1676 -1.1182
 2587TIP3    H229321   3.859   5.735   0.963 -0.4652  0.6864  0.1414
 2588TIP3   OH229322   3.256   4.744   7.936  0.1456 -0.4199  0.2010
 2588TIP3    H129323   3.172   4.775   7.970  0.0806 -0.1131 -0.2266
 2588TIP3    H229324   3.304   4.824   7.915  0.9948 -0.5609  1.4890
 2589TIP3   OH229325   1.053   3.468   0.588  0.3099  0.2319  0.0779
 2589TIP3    H129326   1.138   3.509   0.578  2.0769 -3.1744 -0.4527
 2589TIP3    H229327   1.009   3.520   0.655  2.8212  2.0607  0.4549
 2590TIP3   OH229328   5.477   4.660   0.858  0.0172  0.7498 -0.3883
 2590TIP3    H129329   5.413   4.691   0.922 -0.1223  0.4316 -0.3693
 2590TIP3    H229330   5.519   4.585   0.900  0.4226  0.9704 -0.3906
 2591TIP3   OH229331   4.713   5.451   1.910  0.4608  0.2801 -0.0650
 2591TIP3    H129332   4.717   5.455   2.006  0.3934 -1.4905  0.0311
 2591TIP3    H229333   4.631   5.496   1.889 -0.5204 -1.0025  0.8561
 2592TIP3   OH229334   3.873   1.161   1.053  0.1838 -0.8160 -0.3170
 2592TIP3    H129335   3.823   1.135   1.130 -1.0260  1.4366 -0.2641
 2592TIP3    H229336   3.875   1.257   1.056  1.6038 -0.7175 -2.1563
 2593TIP3   OH229337   1.046   5.800   0.142  0.0241  0.0708  0.0416
 2593TIP3    H129338   0.990   5.862   0.095  1.6104  0.4982 -1.3716
 2593TIP3    H229339   1.042   5.720   0.088 -1.9950 -1.1474  1.8352
 2594TIP3   OH229340   4.311   2.808   2.079  0.0571 -0.3281 -0.0094
 2594TIP3    H129341   4.337   2.741   2.143  2.3532 -1.4415 -1.9210
 2594TIP3    H229342   4.268   2.876   2.130 -2.5720 -3.2751  2.0560
 2595TIP3   OH229343   0.929   0.611   0.865 -0.3791 -0.1315 -0.3885
 2595TIP3    H129344   0.840   0.577   0.868 -0.0015 -1.1502 -0.4035
 2595TIP3    H229345   0.921   0.703   0.893 -1.3612 -0.3417  0.0399
 2596TIP3   OH229346   6.151   4.758   2.656  0.1413 -0.1559  0.1763
 2596TIP3    H129347   6.162   4.789   2.746 -0.1236  2.0366 -0.5038
 2596TIP3    H229348   6.240   4.749   2.623  0.2194  0.2128  0.2808
 2597TIP3   OH229349   0.364   1.673   8.762  0.1253  0.5115  0.2007
 2597TIP3    H129350   0.331   1.724   8.836  0.7314  1.7414 -0.3343
 2597TIP3    H229351   0.449   1.713   8.742  0.3743 -0.3738 -0.5977
 2598TIP3   OH229352   3.587   4.405   2.046  0.0677  0.2259  0.7765
 2598TIP3    H129353   3.604   4.495   2.075  0.1938 -0.1238  1.8334
 2598TIP3    H229354   3.610   4.351   2.121  2.2556 -0.8967 -0.6112
 2599TIP3   OH229355   0.631   2.031   1.180 -0.0373 -0.2939  0.5805
 2599TIP3    H129356   0.725   2.049   1.189  0.6044 -2.6345 -0.6651
 2599TIP3    H229357   0.614   2.038   1.086 -1.0130 -0.3635  0.7412
 2600TIP3   OH229358   4.738   0.411   2.567  0.0095 -0.0939  0.8204
 2600TIP3    H129359   4.832   0.415   2.580  0.0818  0.6419  0.1633
 2600TIP3    H229360   4.716   0.493   2.523 -1.0782  0.1863  1.8107
 2601TIP3   OH229361   1.318   2.254   7.993 -0.4584 -0.0926 -0.0237
 2601TIP3    H129362   1.327   2.292   8.080  1.1685 -0.6068  0.0746
 2601TIP3    H229363   1.286   2.326   7.938 -1.6860  0.1833  1.0056
 2602TIP3   OH229364   0.212   3.990   0.824  0.1527 -0.5342  0.1089
 2602TIP3    H129365   0.293   3.942   0.809 -0.1781 -1.2495  0.5796
 2602TIP3    H229366   0.212   4.010   0.917 -1.4627 -2.9182  0.7037
 2603TIP3   OH229367   5.918   3.525   0.971 -0.0847 -0.1763 -0.2035
 2603TIP3    H129368   6.013   3.510   0.971 -0.4104 -3.4132  2.7035
 2603TIP3    H229369   5.908   3.607   1.021  1.1631 -1.1182  1.7314
 2604TIP3   OH229370   1.153   4.137   8.287  0.1620  0.2042  0.2232
 2604TIP3    H129371   1.066   4.113   8.256  0.2442  0.9223 -0.6242
 2604TIP3    H229372   1.212   4.074   8.245  0.1368  0.3174  0.0145
 2605TIP3   OH229373   0.107   6.315   8.150  0.1424  0.4159 -0.1329
 2605TIP3    H129374   0.189   6.347   8.112  0.5151 -0.7736 -0.3895
 2605TIP3    H229375   0.041   6.378   8.121  0.6020  0.1671 -1.8621
 2606TIP3   OH229376   0.881   4.204   7.783 -0.2202 -0.2464  0.0896
 2606TIP3    H129377   0.867   4.248   7.867  0.0918 -0.1120  0.0727
 2606TIP3    H229378   0.836   4.120   7.793 -0.0381 -0.3063  0.4560
 2607TIP3   OH229379   4.545   4.566   0.673  0.0980 -0.2753 -0.0441
 2607TIP3    H129380   4.601   4.642   0.660 -0.2392  0.3110  1.7049
 2607TIP3    H229381   4.590   4.495   0.627  1.5252  0.5113  0.0926
 2608TIP3   OH229382   0.730   3.418   0.248  0.0007 -0.0081 -0.2398
 2608TIP3    H129383   0.782   3.482   0.200  0.6749  0.9904  1.7449
 2608TIP3    H229384   0.724   3.452   0.337  0.9319 -2.9625  1.1099
 2609TIP3   OH229385   4.620   5.480   0.700 -0.3049 -0.1292  0.2365
 2609TIP3    H129386   4.613   5.388   0.671 -2.5875  0.0059  0.1628
 2609TIP3    H229387   4.688   5.517   0.644 -1.2389 -1.1102 -1.6499
 2610TIP3   OH229388   2.116   3.293   7.698  0.0237 -0.1137 -0.1271
 2610TIP3    H129389   2.128   3.252   7.783  1.2755  1.3365  0.4196
 2610TIP3    H229390   2.179   3.248   7.641  0.7712  0.4371  0.2565
 2611TIP3   OH229391   3.900   4.774   7.784  0.1677  0.2280 -0.3253
 2611TIP3    H129392   3.921   4.707   7.849 -1.5661  1.2849  1.4096
 2611TIP3    H229393   3.898   4.856   7.833  0.6308  1.3583 -2.0934
 2612TIP3   OH229394   1.375   2.861   1.437 -0.2675  0.0062  0.4970
 2612TIP3    H129395   1.460   2.893   1.468  1.1615 -1.3313 -1.7648
 2612TIP3    H229396   1.378   2.766   1.449 -0.7467 -0.2481 -1.0884
 2613TIP3   OH229397   3.652   4.253   7.882  0.4875 -0.6136 -0.4185
 2613TIP3    H129398   3.556   4.257   7.891 -0.2103 -3.0845 -4.1709
 2613TIP3    H229399   3.676   4.338   7.845  0.1430  0.7245  2.2157
 2614TIP3   OH229400   5.646   2.083   0.353 -1.2535 -0.5189 -0.6618
 2614TIP3    H129401   5.724   2.028   0.363 -0.9405  0.0594  0.2583
 2614TIP3    H229402   5.663   2.136   0.276  0.4241  1.3874  0.9012
 2615TIP3   OH229403   2.430   4.642   2.916 -0.0639 -0.0113 -0.1213
 2615TIP3    H129404   2.366   4.571   2.908  1.7303 -1.4928 -3.8010
 2615TIP3    H229405   2.501   4.605   2.970 -1.2622  0.9232  2.2408
 2616TIP3   OH229406   6.193   0.370   2.085  0.0856 -0.2432  0.0274
 2616TIP3    H129407   6.245   0.323   2.019 -0.4979 -1.6907  0.5620
 2616TIP3    H229408   6.237   0.351   2.168 -0.4879 -0.3264  0.3167
 2617TIP3   OH229409   2.241   0.824   1.688 -0.0000 -0.3604 -0.0188
 2617TIP3    H129410   2.323   0.843   1.644  0.6414 -1.1407  0.8044
 2617TIP3    H229411   2.266   0.795   1.776 -1.0301 -2.0414 -0.2252
 2618TIP3   OH229412   2.287   5.796   3.261 -0.5791 -0.0467  1.1788
 2618TIP3    H129413   2.231   5.727   3.299  0.7172 -1.2421  1.0264
 2618TIP3    H229414   2.312   5.849   3.337 -2.3761  0.8925  1.1640
 2619TIP3   OH229415   3.338   1.884   1.507  0.1988 -0.3320  0.3814
 2619TIP3    H129416   3.279   1.821   1.465 -0.0087 -0.0799  0.2884
 2619TIP3    H229417   3.345   1.956   1.444 -0.9674  0.5426  1.2009
 2620TIP3   OH229418   2.683   1.829   7.835 -0.1472  0.4508  0.2824
 2620TIP3    H129419   2.756   1.772   7.860 -1.2670 -0.8263  0.7611
 2620TIP3    H229420   2.677   1.894   7.905  0.6761  0.7091  0.1158
 2621TIP3   OH229421   6.288   3.118   2.045 -0.2420 -0.0677  0.0500
 2621TIP3    H129422   6.319   3.112   2.135  0.4543  0.3759 -0.1487
 2621TIP3    H229423   6.302   3.030   2.009  0.7701  0.1051 -0.0183
 2622TIP3   OH229424   3.572   4.856   7.985  0.5026 -1.2141 -0.4164
 2622TIP3    H129425   3.511   4.863   7.911 -0.2536  0.4986  0.3122
 2622TIP3    H229426   3.650   4.904   7.958 -0.5280  1.1559  0.5575
 2623TIP3   OH229427   4.112   0.228   0.189 -0.1704 -0.1069 -0.5671
 2623TIP3    H129428   4.156   0.211   0.105 -1.6947 -2.0827 -1.0392
 2623TIP3    H229429   4.064   0.147   0.208 -0.8190  0.7234  1.6411
 2624TIP3   OH229430   5.535   2.975   0.311 -0.2301  0.1527  0.1351
 2624TIP3    H129431   5.588   3.054   0.315  3.1601 -1.9579  2.0394
 2624TIP3    H229432   5.479   2.979   0.388  0.6721  0.2919  0.8018
 2625TIP3   OH229433   2.242   1.034   1.916  0.4831 -0.3605 -0.3770
 2625TIP3    H129434   2.242   1.090   1.994 -2.4371 -0.0370 -0.5077
 2625TIP3    H229435   2.202   0.952   1.946 -1.4429  0.0537 -1.6525
 2626TIP3   OH229436   0.925   0.602   8.243 -0.4235  0.3812 -0.5571
 2626TIP3    H129437   0.940   0.695   8.226 -0.4502  1.0742  2.4627
 2626TIP3    H229438   0.978   0.556   8.179  0.0050  2.4728 -1.8073
 2627TIP3   OH229439   4.931   5.282   8.301  0.3556  0.0292  0.0381
 2627TIP3    H129440   4.911   5.369   8.267 -0.8321 -0.0395  0.5400
 2627TIP3    H229441   4.947   5.295   8.394  1.1624 -0.1515 -0.0671
 2628TIP3   OH229442   5.775   5.769   0.662  0.1163  0.0164  0.7263
 2628TIP3    H129443   5.865   5.738   0.659  0.1719  0.2386 -0.0679
 2628TIP3    H229444   5.766   5.825   0.585 -0.8907 -0.5463  0.4162
 2629TIP3   OH229445   4.785   6.325   1.241 -0.2041  0.2543  0.2703
 2629TIP3    H129446   4.715   6.289   1.187  0.9056 -1.3818 -0.1643
 2629TIP3    H229447   4.854   6.347   1.178 -0.7285  3.0009  0.5538
 2630TIP3   OH229448   6.593   5.178   2.064 -0.1661 -0.5170 -0.4789
 2630TIP3    H129449   6.661   5.146   2.124  0.4375  0.5536 -0.5616
 2630TIP3    H229450   6.527   5.216   2.121 -0.0166 -0.2910 -0.4569
 2631TIP3   OH229451   1.403   6.365   8.086 -0.7520 -0.1810 -0.2305
 2631TIP3    H129452   1.382   6.359   7.993 -0.7315  1.0895 -0.3415
 2631TIP3    H229453   1.404   6.274   8.117 -1.4440 -0.5743 -1.3112
 2632TIP3   OH229454   4.061   0.617   7.627  0.1758  0.1184 -0.0690
 2632TIP3    H129455   4.030   0.648   7.712 -0.9296  0.3804 -0.5495
 2632TIP3    H229456   4.005   0.662   7.564 -0.1470 -1.3600 -0.8681
 2633TIP3   OH229457   5.795   0.266   7.178 -0.3197 -0.5188 -0.3354
 2633TIP3    H129458   5.863   0.198   7.183  0.3507  0.1834  0.3634
 2633TIP3    H229459   5.770   0.267   7.086 -0.0429 -1.4238 -0.4348
 2634TIP3   OH229460   5.655   6.305   1.079 -0.2030  0.3612 -0.4250
 2634TIP3    H129461   5.689   6.379   1.028 -2.2400  1.3037 -0.5421
 2634TIP3    H229462   5.560   6.314   1.073 -0.5096 -1.8606  0.2140
 2635TIP3   OH229463   0.291   1.972   1.717 -0.6560  0.4301 -0.2577
 2635TIP3    H129464   0.273   1.878   1.726  0.9557  0.1396  0.1244
 2635TIP3    H229465   0.237   2.013   1.785 -1.5399 -0.1848 -0.5688
 2636TIP3   OH229466   4.696   2.298   8.588 -0.0203 -0.7634  0.3475
 2636TIP3    H129467   4.666   2.215   8.552  0.3810 -0.6675 -0.2241
 2636TIP3    H229468   4.729   2.346   8.512  1.0880 -0.6628  0.8714
 2637TIP3   OH229469   4.997   3.088   2.922  0.1576  0.1296  0.2631
 2637TIP3    H129470   4.919   3.126   2.881 -0.3861  0.6255  1.7007
 2637TIP3    H229471   5.030   3.157   2.980  1.5697 -0.1424 -0.1816
 2638TIP3   OH229472   3.818   0.116   8.442  0.0879  0.1223 -0.4868
 2638TIP3    H129473   3.869   0.089   8.365 -0.7072  0.8905 -1.3114
 2638TIP3    H229474   3.734   0.071   8.432 -0.9643  2.1731 -1.4620
 2639TIP3   OH229475   2.284   0.220   1.526  0.2844 -0.1629  0.1226
 2639TIP3    H129476   2.380   0.222   1.524  0.3197 -1.1370 -1.4599
 2639TIP3    H229477   2.258   0.303   1.486  0.4720 -0.0643  0.2032
 2640TIP3   OH229478   5.717   1.873   1.211 -0.0230  0.3140  0.6133
 2640TIP3    H129479   5.732   1.801   1.150 -0.2226  1.6779 -1.1330
 2640TIP3    H229480   5.804   1.899   1.240  0.0601 -0.4855  1.1328
 2641TIP3   OH229481   4.950   1.445   8.046 -0.1134 -0.6829  0.4296
 2641TIP3    H129482   4.926   1.470   8.136 -0.0017 -1.2984  0.6360
 2641TIP3    H229483   5.035   1.401   8.056  0.4622  0.2745 -0.1225
 2642TIP3   OH229484   1.250   4.715   1.521 -0.5677 -0.2834 -0.0571
 2642TIP3    H129485   1.216   4.647   1.463 -0.5814 -0.2683 -0.0668
 2642TIP3    H229486   1.308   4.668   1.581 -2.4631 -0.7319  1.5510
 2643TIP3   OH229487   2.155   6.442   8.294 -0.5315 -0.2037 -0.2123
 2643TIP3    H129488   2.098   6.518   8.279  2.1782  2.0551  0.2069
 2643TIP3    H229489   2.192   6.423   8.207 -1.5998 -1.4541 -0.4214
 2644TIP3   OH229490   5.527   4.502   2.096  0.5069  0.0323  0.3881
 2644TIP3    H129491   5.493   4.473   2.011  1.5308  1.6040 -0.6070
 2644TIP3    H229492   5.603   4.446   2.113 -0.6494 -1.3819  1.1031
 2645TIP3   OH229493   3.082   3.137   0.234  0.0266  0.5618 -0.4841
 2645TIP3    H129494   3.024   3.209   0.260 -1.0526 -0.3914 -0.1639
 2645TIP3    H229495   3.022   3.068   0.204  1.0366 -0.2127 -0.7605
 2646TIP3   OH229496   5.359   3.913   8.530 -0.1449 -0.9459  0.6873
 2646TIP3    H129497   5.304   3.852   8.482  0.5747  1.2291 -3.4484
 2646TIP3    H229498   5.449   3.883   8.514  0.1628  0.4647 -0.5017
 2647TIP3   OH229499   5.508   1.167   0.375 -0.4071 -0.6804  0.0845
 2647TIP3    H129500   5.583   1.134   0.326  0.2398 -0.1273  0.6814
 2647TIP3    H229501   5.522   1.262   0.379  0.0195 -0.7932  2.0619
 2648TIP3   OH229502   3.379   6.813   2.382 -0.6259  0.0156 -0.0906
 2648TIP3    H129503   3.343   6.745   2.439 -0.2403 -0.3398 -0.2670
 2648TIP3    H229504   3.306   6.874   2.369 -0.2250  1.1260  2.2941
 2649TIP3   OH229505   3.620   5.272   8.165 -0.2875 -0.2358 -0.4934
 2649TIP3    H129506   3.589   5.203   8.106  0.8833  0.8541 -2.5103
 2649TIP3    H229507   3.541   5.301   8.211 -0.9103 -2.4085 -0.0785
 2650TIP3   OH229508   1.940   2.223   8.737 -0.0944  0.3093  0.4902
 2650TIP3    H129509   1.886   2.187   8.666 -0.4834 -0.3685  1.1118
 2650TIP3    H229510   1.998   2.150   8.761  0.1593  0.5968  0.7504
 2651TIP3   OH229511   5.097   0.610   2.200  0.2937  0.3441 -0.2679
 2651TIP3    H129512   5.121   0.677   2.264 -0.1568  0.4329 -0.1875
 2651TIP3    H229513   5.027   0.560   2.242  0.7193 -0.2679 -0.2717
 2652TIP3   OH229514   4.000   6.071   2.822 -0.4606 -0.3302 -0.5461
 2652TIP3    H129515   4.075   6.014   2.838 -0.4133 -0.5791 -1.6344
 2652TIP3    H229516   3.924   6.014   2.832 -0.5497 -0.0017  0.9121
 2653TIP3   OH229517   3.313   1.864   7.772  0.2661  0.0212 -0.4828
 2653TIP3    H129518   3.338   1.898   7.686  0.7555 -0.2315 -0.4403
 2653TIP3    H229519   3.218   1.855   7.767  0.1255  1.2759 -0.5455
 2654TIP3   OH229520   2.003   4.851   2.611  0.3317  0.3834 -0.0683
 2654TIP3    H129521   1.989   4.832   2.518  2.8850 -0.1798 -0.4136
 2654TIP3    H229522   2.066   4.922   2.611 -0.2265  0.9015  1.2786
 2655TIP3   OH229523   3.738   3.372   1.879  0.3256 -0.3555  0.7531
 2655TIP3    H129524   3.759   3.284   1.848 -1.3937 -0.1235 -1.3721
 2655TIP3    H229525   3.680   3.359   1.953 -0.7618 -1.0572 -0.1970
 2656TIP3   OH229526   0.911   6.132   3.310 -0.0604  0.4744 -0.2575
 2656TIP3    H129527   0.986   6.181   3.344 -0.2421  0.6744 -0.1422
 2656TIP3    H229528   0.911   6.152   3.217  1.1451 -1.0077 -0.6184
 2657TIP3   OH229529   6.246   3.179   8.314  0.0218  0.5224 -0.7366
 2657TIP3    H129530   6.270   3.209   8.227  0.9381  1.1817 -0.2632
 2657TIP3    H229531   6.326   3.186   8.366 -0.6091  0.5235  0.2710
 2658TIP3   OH229532   5.702   2.605   0.895  0.5154  0.0454 -0.1110
 2658TIP3    H129533   5.769   2.672   0.907 -0.1996  0.8242 -0.4010
 2658TIP3    H229534   5.750   2.528   0.863  1.2523  0.6297 -0.4245
 2659TIP3   OH229535   3.813   0.108   2.561 -0.0089  0.3057  0.1633
 2659TIP3    H129536   3.807   0.185   2.617 -4.6184 -0.8618  1.6829
 2659TIP3    H229537   3.832   0.036   2.621  0.3984 -0.3027 -0.6652
 2660TIP3   OH229538   3.372   4.832   2.588 -0.2187  0.0112  0.1162
 2660TIP3    H129539   3.335   4.761   2.640 -3.1225  0.8294 -0.6847
 2660TIP3    H229540   3.351   4.911   2.637 -1.3775  0.6539 -1.3464
 2661TIP3   OH229541   6.722   3.230   7.909  0.1010 -0.1324 -0.5466
 2661TIP3    H129542   6.639   3.215   7.864  0.2464 -1.3627 -0.4332
 2661TIP3    H229543   6.706   3.203   7.999  1.2824 -2.8975 -1.0465
 2662TIP3   OH229544   3.254   3.493   0.961  0.2326  0.3261 -0.5912
 2662TIP3    H129545   3.176   3.445   0.931  0.5405  0.0885 -1.0246
 2662TIP3    H229546   3.261   3.568   0.902 -0.8538  1.5227  0.7398
 2663TIP3   OH229547   5.446   1.899   7.937  0.3295 -0.5091  0.0323
 2663TIP3    H129548   5.360   1.930   7.964  0.6253  2.8462 -2.3940
 2663TIP3    H229549   5.504   1.925   8.009  0.3460  3.9704 -1.3278
 2664TIP3   OH229550   5.068   6.803   0.046 -0.1516  0.3167  0.1284
 2664TIP3    H129551   5.086   6.817  -0.047 -1.6825  0.3354 -0.1864
 2664TIP3    H229552   5.155   6.790   0.085  0.4247 -2.9139 -1.7884
 2665TIP3   OH229553   1.206   6.412   8.468  0.2349 -0.2338  0.5352
 2665TIP3    H129554   1.138   6.460   8.515  0.8714 -0.2789  1.5158
 2665TIP3    H229555   1.234   6.472   8.399 -0.5694 -0.0979  0.3148
 2666TIP3   OH229556   0.707   0.837   1.355  0.1783  0.4815  0.0293
 2666TIP3    H129557   0.737   0.808   1.441 -0.6467 -2.6589 -0.6414
 2666TIP3    H229558   0.728   0.765   1.296 -2.1616  1.1796 -1.8137
 2667TIP3   OH229559   3.141   5.820   3.210  0.6432  0.1072  0.6538
 2667TIP3    H129560   3.202   5.751   3.186  2.3971  1.5368  0.7913
 2667TIP3    H229561   3.057   5.792   3.173  1.6773 -1.2501 -0.7740
 2668TIP3   OH229562   2.108   4.866   1.814 -0.2283 -0.2069  0.0986
 2668TIP3    H129563   2.154   4.812   1.879  0.0996  0.0772  0.1029
 2668TIP3    H229564   2.114   4.955   1.849 -1.7349 -0.2975  0.6607
 2669TIP3   OH229565   4.039   2.830   1.814  0.5460 -0.2794 -0.4952
 2669TIP3    H129566   3.949   2.861   1.798 -0.1436 -0.8868  1.8324
 2669TIP3    H229567   4.089   2.910   1.831  0.3175  0.0160 -1.1662
 2670TIP3   OH229568   1.414   3.663   7.511  0.0747 -0.2963  0.0741
 2670TIP3    H129569   1.424   3.611   7.431 -0.3307 -2.3567  1.2994
 2670TIP3    H229570   1.439   3.752   7.485  1.4002 -1.1990 -1.9527
 2671TIP3   OH229571   0.344   2.261   2.689  0.4074  0.2447  0.2814
 2671TIP3    H129572   0.321   2.256   2.782  1.3457 -0.1665  0.5018
 2671TIP3    H229573   0.286   2.197   2.647  2.5258 -2.4466  1.1321
 2672TIP3   OH229574   6.462   3.261   1.167  0.3942  0.0068  0.2116
 2672TIP3    H129575   6.464   3.180   1.115 -1.3002  1.1177 -1.7626
 2672TIP3    H229576   6.451   3.231   1.257 -0.1904 -1.9714 -0.4556
 2673TIP3   OH229577   4.801   0.568   1.490 -0.0186  0.3531  0.4096
 2673TIP3    H129578   4.755   0.650   1.507 -1.1183 -0.6990  3.1899
 2673TIP3    H229579   4.778   0.512   1.565  3.5733 -1.2488  0.5174
 2674TIP3   OH229580   5.192   6.794   7.601 -0.4321 -0.3820 -0.0618
 2674TIP3    H129581   5.230   6.871   7.559  0.2447  0.5384  2.1184
 2674TIP3    H229582   5.245   6.780   7.679  0.8172 -4.3488 -1.3619
 2675TIP3   OH229583   6.441   2.191   8.684  0.5743  0.0643  0.0534
 2675TIP3    H129584   6.527   2.222   8.655  0.8721 -0.3963  0.4380
 2675TIP3    H229585   6.378   2.239   8.629  1.0986 -0.1334 -0.7209
 2676TIP3   OH229586   2.806   2.694   7.931  0.1793 -0.0343  0.2398
 2676TIP3    H129587   2.866   2.619   7.933 -0.0015 -0.1714  2.1016
 2676TIP3    H229588   2.719   2.655   7.926  0.1573  0.1559 -1.8158
 2677TIP3   OH229589   3.610   3.324   1.546 -0.1831  0.0247 -0.0230
 2677TIP3    H129590   3.604   3.287   1.458 -1.4056  0.4692 -0.1432
 2677TIP3    H229591   3.533   3.380   1.554 -0.2705 -0.2717  1.4593
 2678TIP3   OH229592   5.055   5.727   2.139 -0.2045 -0.2435  0.6576
 2678TIP3    H129593   5.065   5.761   2.228 -0.9602  0.4664  0.4818
 2678TIP3    H229594   5.043   5.633   2.151 -0.4227 -0.1381  1.3143
 2679TIP3   OH229595   4.780   3.699   0.006 -0.1163 -0.0310  0.1673
 2679TIP3    H129596   4.730   3.744   0.074  0.4460 -0.8628  1.1646
 2679TIP3    H229597   4.851   3.759  -0.016 -1.0363  0.7930 -0.6486
 2680TIP3   OH229598   0.516   0.782   1.069 -0.1045 -0.0150 -0.5071
 2680TIP3    H129599   0.463   0.773   0.990  0.8404 -0.7145 -1.0770
 2680TIP3    H229600   0.487   0.865   1.108 -0.2133  0.6033 -1.8575
 2681TIP3   OH229601   2.748   5.144   0.925  0.9623 -0.4976 -0.2010
 2681TIP3    H129602   2.734   5.188   0.841 -0.3391  0.7576  0.6161
 2681TIP3    H229603   2.660   5.118   0.953  1.2245  0.1194  1.2761
 2682TIP3   OH229604   3.174   4.239   8.084  0.1853  0.1828  0.1489
 2682TIP3    H129605   3.124   4.158   8.096 -0.0143  0.3843  0.6765
 2682TIP3    H229606   3.264   4.214   8.102  0.1447  0.0450  0.1681
 2683TIP3   OH229607   5.120   0.493   0.379 -0.6302 -0.0945  0.3316
 2683TIP3    H129608   5.182   0.461   0.312 -0.9595  0.6596 -0.3557
 2683TIP3    H229609   5.162   0.572   0.413 -1.7289  1.1234 -1.0071
 2684TIP3   OH229610   2.558   0.992   0.989 -0.2524 -0.3069 -0.0230
 2684TIP3    H129611   2.472   0.992   0.948 -0.1329 -1.3570 -0.3030
 2684TIP3    H229612   2.600   0.912   0.957 -0.8908 -2.3542  3.7388
 2685TIP3   OH229613   2.352   1.613   2.391 -0.3944  0.0698  0.4806
 2685TIP3    H129614   2.294   1.689   2.400 -0.8406 -0.4874  3.0056
 2685TIP3    H229615   2.440   1.651   2.388 -0.7029  0.7638 -0.1639
 2686TIP3   OH229616   4.652   2.600   7.710  0.6434 -0.6913 -0.6374
 2686TIP3    H129617   4.624   2.647   7.631 -0.6101  2.0597  1.2753
 2686TIP3    H229618   4.572   2.565   7.747  1.0211 -0.8625  0.0446
 2687TIP3   OH229619   3.175   3.984   0.087 -0.0019  0.0468 -0.5479
 2687TIP3    H129620   3.203   4.075   0.074  0.3168 -0.0939 -0.8842
 2687TIP3    H229621   3.184   3.970   0.182 -0.2641  0.4283 -0.4615
 2688TIP3   OH229622   6.349   2.407   7.175  0.0996 -0.4500  0.1777
 2688TIP3    H129623   6.345   2.324   7.127 -2.7392 -1.3776  1.8035
 2688TIP3    H229624   6.283   2.462   7.135  0.6522  0.3362  0.3294
 2689TIP3   OH229625   0.333   4.487   0.822  0.4140  0.5175  0.1927
 2689TIP3    H129626   0.343   4.531   0.906 -0.5454 -0.6119  0.9382
 2689TIP3    H229627   0.279   4.546   0.770 -1.3627  0.0190  1.3778
 2690TIP3   OH229628   3.927   1.936   0.534  0.2863 -0.2900 -0.2188
 2690TIP3    H129629   3.890   1.854   0.567 -0.4274  0.4891  0.9961
 2690TIP3    H229630   4.010   1.945   0.580  0.7225 -0.6744 -0.9050
 2691TIP3   OH229631   5.718   4.235   1.586  0.5808  0.2748 -0.0942
 2691TIP3    H129632   5.717   4.187   1.669 -1.0618 -1.7387 -1.1954
 2691TIP3    H229633   5.628   4.262   1.573  1.1140  1.9517 -0.5178
 2692TIP3   OH229634   6.549   1.844   1.931 -0.7718 -0.4983 -0.4899
 2692TIP3    H129635   6.589   1.875   1.850 -0.7896  0.7132 -0.0577
 2692TIP3    H229636   6.622   1.828   1.990 -0.8279  0.7587 -0.0333
 2693TIP3   OH229637   2.204   1.520   7.913  0.4531 -0.0644  0.5047
 2693TIP3    H129638   2.259   1.468   7.854 -0.4174 -0.9220  0.4341
 2693TIP3    H229639   2.244   1.607   7.912  1.3476 -0.4711 -0.1553
 2694TIP3   OH229640   0.389   5.985   1.888  0.3615  1.4598 -0.2934
 2694TIP3    H129641   0.338   5.988   1.969 -1.3115  0.6360 -1.2836
 2694TIP3    H229642   0.480   5.974   1.918 -0.4279 -1.1960  1.4682
 2695TIP3   OH229643   5.354   0.132   8.486 -0.0523 -0.5466 -0.0074
 2695TIP3    H129644   5.395   0.049   8.512 -1.0323 -0.3615  2.4198
 2695TIP3    H229645   5.394   0.197   8.544  1.6036  1.0005 -2.6731
 2696TIP3   OH229646   4.387   2.352   7.498 -0.0434 -0.4464  0.0156
 2696TIP3    H129647   4.407   2.375   7.407  1.1225  0.2311  0.4212
 2696TIP3    H229648   4.364   2.436   7.539 -1.1184 -0.8271  0.2280
 2697TIP3   OH229649   2.098   5.266   7.092 -0.3840  0.2133 -0.1489
 2697TIP3    H129650   2.029   5.324   7.062  0.2139  1.2744  0.4807
 2697TIP3    H229651   2.121   5.299   7.179  1.7203  0.6220 -0.8009
 2698TIP3   OH229652   4.960   4.875   2.137 -0.2844 -0.0286  0.1675
 2698TIP3    H129653   4.907   4.856   2.059 -0.0717  0.4874 -0.1091
 2698TIP3    H229654   5.036   4.818   2.128 -1.5706 -2.0550  1.4412
 2699TIP3   OH229655   6.292   6.207   0.740 -0.4656  0.4891 -0.2611
 2699TIP3    H129656   6.378   6.233   0.706 -0.2141 -0.3681 -0.2851
 2699TIP3    H229657   6.259   6.286   0.784  1.4997  0.1083  2.1411
 2700TIP3   OH229658   4.531   0.961   0.037 -0.7336  0.5960  0.1118
 2700TIP3    H129659   4.454   0.977   0.091  0.3799 -0.2005  2.0442
 2700TIP3    H229660   4.510   1.000  -0.048 -2.5764  1.8627  1.0949
 2701TIP3   OH229661   0.892   2.660   0.994 -0.4584 -0.7700  0.3056
 2701TIP3    H129662   0.890   2.588   1.057 -2.1375 -0.6469  0.4343
 2701TIP3    H229663   0.879   2.619   0.909  1.6695 -0.9184 -0.0208
 2702TIP3   OH229664   5.254   5.657   0.101  0.0836  0.5607  0.0457
 2702TIP3    H129665   5.315   5.720   0.138  0.5729  0.9539 -1.3531
 2702TIP3    H229666   5.209   5.619   0.177  1.0231  1.3152  1.0118
 2703TIP3   OH229667   5.065   1.151   2.232 -0.1264 -0.0620 -0.4848
 2703TIP3    H129668   5.111   1.235   2.225  0.1517 -0.0325  1.1916
 2703TIP3    H229669   5.117   1.100   2.295 -0.9846 -1.0012 -0.5146
 2704TIP3   OH229670   0.895   5.360   8.586 -0.0773  0.5513 -0.2851
 2704TIP3    H129671   0.879   5.309   8.665  0.5287 -0.2991 -0.7010
 2704TIP3    H229672   0.835   5.323   8.520  0.4516  0.2847 -0.6222
 2705TIP3   OH229673   0.375   5.907   7.356  0.7734 -0.0244 -0.6413
 2705TIP3    H129674   0.387   5.870   7.269  2.1851 -1.0739 -0.0321
 2705TIP3    H229675   0.456   5.955   7.373  0.8579 -0.5064  0.3993
 2706TIP3   OH229676   6.576   2.503   1.148 -0.7579 -0.0497 -0.8230
 2706TIP3    H129677   6.512   2.450   1.196 -1.9953 -0.0519 -2.3907
 2706TIP3    H229678   6.636   2.535   1.216 -0.0928 -3.1805  0.2496
 2707TIP3   OH229679   2.597   6.719   8.042 -0.1119  0.2880  0.3487
 2707TIP3    H129680   2.634   6.654   8.102 -1.6681 -0.9459  0.0166
 2707TIP3    H229681   2.518   6.750   8.086 -0.9447 -0.1878 -0.7542
 2708TIP3   OH229682   4.673   5.639   7.774  0.2851  0.4531 -0.0385
 2708TIP3    H129683   4.739   5.708   7.786  1.3753 -0.4857 -0.4582
 2708TIP3    H229684   4.721   5.567   7.733 -0.7691 -0.6549  0.6140
 2709TIP3   OH229685   3.060   0.289   1.093  0.1806 -0.4335  0.1803
 2709TIP3    H129686   2.986   0.236   1.063  0.6114 -1.1468  0.3426
 2709TIP3    H229687   3.131   0.267   1.032  0.0186  0.9522 -0.5604
 2710TIP3   OH229688   0.229   5.444   8.102 -0.1874  0.7639  1.0066
 2710TIP3    H129689   0.324   5.447   8.107 -0.2297  0.0372  2.7474
 2710TIP3    H229690   0.199   5.498   8.175 -1.0953  0.1908  1.0732
 2711TIP3   OH229691   6.633   2.383   7.683 -0.8039  0.1815  0.3485
 2711TIP3    H129692   6.560   2.350   7.630 -0.1916 -0.9592  0.1904
 2711TIP3    H229693   6.612   2.354   7.772 -0.2011 -0.7847  0.1889
 2712TIP3   OH229694   3.221   3.014   8.391 -0.3827 -0.5169 -0.5208
 2712TIP3    H129695   3.188   2.954   8.325 -0.1806 -0.5809 -0.5646
 2712TIP3    H229696   3.144   3.042   8.440 -0.5117 -0.5849 -0.6891
 2713TIP3   OH229697   2.229   5.508   2.216  0.2829 -0.2642 -0.1521
 2713TIP3    H129698   2.215   5.554   2.133  1.0640  1.5956  0.6969
 2713TIP3    H229699   2.193   5.566   2.283  0.3715 -1.3648  0.8987
 2714TIP3   OH229700   1.616   2.508   1.781  0.2171 -0.3936  0.4082
 2714TIP3    H129701   1.585   2.508   1.871  1.0867  1.9681  0.7952
 2714TIP3    H229702   1.665   2.427   1.772 -1.5239 -1.6187  1.4003
 2715TIP3   OH229703   5.015   0.793   1.272  0.4273 -0.2345 -0.1496
 2715TIP3    H129704   5.015   0.699   1.290  2.3513 -1.0030 -3.3452
 2715TIP3    H229705   5.108   0.817   1.273 -0.0028  1.5029 -0.0042
 2716TIP3   OH229706   2.780   5.942   7.742  0.5780 -0.3673 -0.2357
 2716TIP3    H129707   2.807   5.956   7.832 -1.7752  0.4615  0.4229
 2716TIP3    H229708   2.700   5.889   7.749  0.2406 -0.1139 -1.7906
 2717TIP3   OH229709   0.819   5.155   2.466  0.3862 -0.0641 -0.0831
 2717TIP3    H129710   0.753   5.115   2.408 -0.7446  0.4694  0.7983
 2717TIP3    H229711   0.845   5.084   2.524  1.4974 -0.5938 -1.1677
 2718TIP3   OH229712   0.998   4.484   8.753  0.2957 -0.3004  0.2432
 2718TIP3    H129713   1.048   4.525   8.682 -1.6376 -0.3558 -1.2433
 2718TIP3    H229714   0.982   4.555   8.815  0.6609  0.1502 -0.1698
 2719TIP3   OH229715   1.353   3.434   7.244 -0.2310 -0.1338 -0.2359
 2719TIP3    H129716   1.423   3.371   7.261  0.0656  0.2668  0.0082
 2719TIP3    H229717   1.307   3.397   7.168 -0.2387 -0.7980  0.0838
 2720TIP3   OH229718   0.905   2.491   1.553 -0.9040 -0.0632 -0.3168
 2720TIP3    H129719   0.951   2.575   1.555  0.8467 -0.9495 -1.0944
 2720TIP3    H229720   0.925   2.456   1.466 -1.4365 -1.3702  0.0706
 2721TIP3   OH229721   2.340   2.859   7.659 -0.3373  0.1699 -0.1040
 2721TIP3    H129722   2.356   2.936   7.604  0.4971 -0.8307 -1.2831
 2721TIP3    H229723   2.351   2.892   7.749 -4.9787  2.6642 -0.1237
 2722TIP3   OH229724   1.826   0.810   2.209  0.5443  0.5150  0.1728
 2722TIP3    H129725   1.793   0.722   2.189  2.2776 -0.1623  0.1281
 2722TIP3    H229726   1.854   0.804   2.300  0.2499  1.1736  0.3101
 2723TIP3   OH229727   1.441   1.032   0.762  0.6288 -0.4022  0.7754
 2723TIP3    H129728   1.458   1.061   0.672 -0.5516  0.9388  0.9466
 2723TIP3    H229729   1.375   0.964   0.754  0.5508 -0.3095  0.6293
 2724TIP3   OH229730   5.614   3.274   8.125  0.0810 -0.4272  0.2081
 2724TIP3    H129731   5.538   3.251   8.179 -0.2266  0.7679  0.3202
 2724TIP3    H229732   5.580   3.338   8.063  1.0621  0.3518  0.4537
 2725TIP3   OH229733   1.672   3.154   3.507 -0.5063  0.3700 -0.2962
 2725TIP3    H129734   1.640   3.233   3.551  1.5969  1.3578 -0.4024
 2725TIP3    H229735   1.657   3.170   3.414 -0.5925  0.4132 -0.2741
 2726TIP3   OH229736   0.230   5.542   0.726 -0.1093 -0.2019  0.5096
 2726TIP3    H129737   0.214   5.636   0.730  0.0780 -0.1591  0.2865
 2726TIP3    H229738   0.150   5.502   0.760 -0.1029  0.0420  0.8119
 2727TIP3   OH229739   5.454   4.496   8.510  0.0797 -0.4381  0.1975
 2727TIP3    H129740   5.518   4.438   8.552  0.2405 -0.7578 -0.4693
 2727TIP3    H229741   5.490   4.584   8.521 -0.9484 -0.2508  2.6315
 2728TIP3   OH229742   3.161   1.553   0.856  0.2359 -0.0464  0.6388
 2728TIP3    H129743   3.151   1.463   0.886 -2.0561  0.1212  0.5403
 2728TIP3    H229744   3.222   1.592   0.919  0.5536 -1.4095  1.2182
 2729TIP3   OH229745   4.959   4.977   7.806  0.3384  0.1465 -1.3993
 2729TIP3    H129746   4.913   4.915   7.750 -0.7538 -1.2198  0.8739
 2729TIP3    H229747   4.893   5.042   7.830  0.1469 -0.5321  0.0259
 2730TIP3   OH229748   3.465   3.149   8.370  0.4110  0.1590 -0.0108
 2730TIP3    H129749   3.382   3.105   8.388  0.9123 -0.7628  0.1236
 2730TIP3    H229750   3.507   3.095   8.303  1.2060  0.2219  0.4196
 2731TIP3   OH229751   4.584   4.966   7.859  0.4860 -0.2738  0.2152
 2731TIP3    H129752   4.497   4.936   7.834 -0.8125  2.4067  1.0925
 2731TIP3    H229753   4.617   4.897   7.917 -0.5803 -1.8352 -0.9605
 2732TIP3   OH229754   3.520   2.854   7.424  0.2318 -0.2825 -0.9119
 2732TIP3    H129755   3.487   2.765   7.411 -2.2398  0.5658 -1.1044
 2732TIP3    H229756   3.524   2.891   7.336 -1.0714  0.4885 -0.6826
 2733TIP3   OH229757   3.502   0.222   1.065  0.1623 -0.3786  0.1467
 2733TIP3    H129758   3.464   0.157   1.006 -0.1058 -0.8500  0.8405
 2733TIP3    H229759   3.442   0.226   1.140  1.8635 -1.7388  1.6567
 2734TIP3   OH229760   1.027   6.507   0.569  0.4111  0.2864 -0.2932
 2734TIP3    H129761   1.106   6.552   0.600  0.2323  0.5188 -0.1754
 2734TIP3    H229762   1.003   6.449   0.642 -0.0123  0.8365  0.0086
 2735TIP3   OH229763   2.676   4.615   7.750  0.6048  0.4069  0.1534
 2735TIP3    H129764   2.767   4.644   7.747  0.1998  1.6428 -2.1142
 2735TIP3    H229765   2.656   4.588   7.661 -0.6639 -1.9509  1.0476
 2736TIP3   OH229766   0.077   6.773   0.352 -0.0189  0.5691 -0.9830
 2736TIP3    H129767   0.063   6.867   0.363  1.3271  0.6416  0.4852
 2736TIP3    H229768   0.127   6.765   0.272 -0.7905  1.0201 -1.5251
 2737TIP3   OH229769   1.777   5.863   2.648 -0.3473 -0.0113 -0.0897
 2737TIP3    H129770   1.850   5.883   2.707 -1.0024 -0.5705  0.9475
 2737TIP3    H229771   1.786   5.926   2.576  1.2479 -0.1917 -0.0787
 2738TIP3   OH229772   2.348   2.967   1.200 -0.3575 -0.5278  0.0548
 2738TIP3    H129773   2.410   3.034   1.227 -1.6652 -0.0249  1.9711
 2738TIP3    H229774   2.346   2.973   1.104 -1.8043  3.5048  0.1672
 2739TIP3   OH229775   5.600   3.774   8.446 -0.1955  0.0219 -0.2873
 2739TIP3    H129776   5.570   3.692   8.486  0.4740 -1.0288 -1.8189
 2739TIP3    H229777   5.584   3.761   8.352  0.4552  1.4241 -0.6067
 2740TIP3   OH229778   4.905   4.466   1.010 -0.5419  0.6462  0.5761
 2740TIP3    H129779   4.816   4.502   1.011 -0.1177  1.7146  1.3949
 2740TIP3    H229780   4.958   4.534   0.969  0.0143  0.2837  0.6815
 2741TIP3   OH229781   0.417   3.455   8.375  0.8865  0.0883  0.4731
 2741TIP3    H129782   0.442   3.527   8.433  0.8257  0.5923 -0.1166
 2741TIP3    H229783   0.321   3.456   8.374  0.8902  0.4242 -0.0476
 2742TIP3   OH229784   3.945   0.377   0.425  0.2655 -0.5373 -0.0175
 2742TIP3    H129785   3.872   0.334   0.471 -0.2996 -1.4476 -1.6476
 2742TIP3    H229786   4.013   0.310   0.421  1.5513  0.5501  2.1464
 2743TIP3   OH229787   1.776   3.301   7.287  0.3256  0.3127  0.3129
 2743TIP3    H129788   1.824   3.312   7.369 -1.4647  0.1994  1.4405
 2743TIP3    H229789   1.762   3.391   7.255  0.1524  0.4181  0.6803
 2744TIP3   OH229790   0.067   2.770   2.210  0.2693  0.3681  0.1661
 2744TIP3    H129791   0.151   2.732   2.186  0.1057  0.3511 -0.3858
 2744TIP3    H229792   0.028   2.707   2.270  0.4392  0.1542  0.0503
 2745TIP3   OH229793   6.175   3.057   1.530  0.0204  0.1173 -0.4881
 2745TIP3    H129794   6.087   3.026   1.552  0.8209 -1.6349  0.5085
 2745TIP3    H229795   6.190   3.130   1.590 -0.4355 -0.1593 -0.0238
 2746TIP3   OH229796   1.255   5.235   1.319  0.3530 -0.1000 -0.8381
 2746TIP3    H129797   1.161   5.233   1.340  0.7635 -1.4278  1.1699
 2746TIP3    H229798   1.269   5.157   1.266  0.6349 -1.0887  0.6280
 2747TIP3   OH229799   0.618   6.742   1.601  0.1321 -0.1381 -0.0811
 2747TIP3    H129800   0.634   6.655   1.638 -0.6285  0.4264  1.7043
 2747TIP3    H229801   0.700   6.765   1.557  1.1419 -0.8615  1.3274
 2748TIP3   OH229802   0.974   4.865   1.079 -0.2563  0.3111  1.2934
 2748TIP3    H129803   1.017   4.824   1.004 -0.1317  1.2126  0.8659
 2748TIP3    H229804   0.938   4.791   1.129 -0.4375 -0.2882  0.2939
 2749TIP3   OH229805   3.111   6.392   7.278 -0.2431  0.2534  0.2850
 2749TIP3    H129806   3.150   6.315   7.236 -0.6313 -0.4418  1.1752
 2749TIP3    H229807   3.017   6.382   7.263 -0.1910  1.5276 -1.1823
 2750TIP3   OH229808   6.454   6.171   8.080 -0.0809  0.3538  0.8965
 2750TIP3    H129809   6.530   6.183   8.022 -0.3628  0.0103  0.4548
 2750TIP3    H229810   6.482   6.210   8.163 -0.2293  2.2308  0.1059
 2751TIP3   OH229811   0.092   6.222   0.159 -0.1134  0.1944 -0.1983
 2751TIP3    H129812   0.172   6.220   0.212  0.6271 -0.1600 -1.3002
 2751TIP3    H229813   0.123   6.223   0.068 -1.3539  0.7107 -0.6396
 2752TIP3   OH229814   0.545   3.681   1.847  0.1301  0.1375 -0.0536
 2752TIP3    H129815   0.473   3.634   1.805  0.1314  0.0222  0.0755
 2752TIP3    H229816   0.605   3.612   1.877  0.7970  0.2437 -1.0500
 2753TIP3   OH229817   1.133   2.231   2.575  0.2654 -0.2068  0.1858
 2753TIP3    H129818   1.156   2.324   2.580  0.3510 -0.2781  2.1865
 2753TIP3    H229819   1.117   2.206   2.666  0.4223 -2.2034 -0.2865
 2754TIP3   OH229820   1.918   3.944   0.957  0.1222  0.7631  0.0459
 2754TIP3    H129821   1.876   3.923   0.874 -1.1908  1.1445  0.5805
 2754TIP3    H229822   2.008   3.967   0.934  0.4975 -1.4882 -0.9838
 2755TIP3   OH229823   6.162   2.863   1.971 -0.0868  0.4005 -0.2583
 2755TIP3    H129824   6.128   2.860   2.060 -2.4568 -1.1033 -1.1377
 2755TIP3    H229825   6.235   2.800   1.972  1.9126  2.5631  1.2674
 2756TIP3   OH229826   6.055   2.627   1.121  0.1564  0.2748  0.1468
 2756TIP3    H129827   5.969   2.593   1.144  0.1050  0.5529  0.3694
 2756TIP3    H229828   6.045   2.659   1.031 -0.4149  1.7537  0.7015
 2757TIP3   OH229829   1.119   3.843   3.228  0.1054  0.0133 -0.2159
 2757TIP3    H129830   1.051   3.832   3.161  1.8089 -1.7895 -1.7969
 2757TIP3    H229831   1.149   3.754   3.246  0.7314  0.6060  1.8744
 2758TIP3   OH229832   2.239   3.799   2.988 -0.5805  0.9033  0.9317
 2758TIP3    H129833   2.176   3.795   3.059  0.3392  0.7997  1.7580
 2758TIP3    H229834   2.234   3.890   2.956 -1.3906  0.7994  0.7506
 2759TIP3   OH229835   4.301   2.914   3.179  0.6629  0.5422 -0.8473
 2759TIP3    H129836   4.273   2.901   3.088 -0.4275 -0.1417 -0.4227
 2759TIP3    H229837   4.223   2.897   3.231  1.5564 -0.1554  0.2965
 2760TIP3   OH229838   3.337   4.418   1.719  0.3511 -0.3538  0.0398
 2760TIP3    H129839   3.335   4.406   1.624 -0.5383  0.1786 -0.0208
 2760TIP3    H229840   3.254   4.460   1.739  0.7935  0.0991  0.9805
 2761TIP3   OH229841   4.174   1.680   0.840  0.0916  0.3828 -0.2673
 2761TIP3    H129842   4.128   1.598   0.857 -0.0437  0.6394  0.6547
 2761TIP3    H229843   4.251   1.654   0.789  1.4931 -0.7101  2.2382
 2762TIP3   OH229844   5.165   6.312   0.594  0.1467 -0.1771  0.1859
 2762TIP3    H129845   5.104   6.265   0.651  1.9141 -0.7629  1.6593
 2762TIP3    H229846   5.140   6.404   0.604 -2.0248 -0.5255 -1.1558
 2763TIP3   OH229847   4.958   4.105   1.382  0.0338 -0.4119  0.1091
 2763TIP3    H129848   5.004   4.062   1.310 -1.3019 -1.2010 -0.3096
 2763TIP3    H229849   4.923   4.186   1.344  0.2987 -0.2637  0.1804
 2764TIP3   OH229850   5.477   4.030   3.199  0.4542 -0.5875 -0.5396
 2764TIP3    H129851   5.513   3.977   3.129  0.3518  0.8920 -1.7520
 2764TIP3    H229852   5.395   4.065   3.164 -1.1066 -2.0695  1.3484
 2765TIP3   OH229853   3.445   0.254   7.764 -0.4625 -0.1945  0.5932
 2765TIP3    H129854   3.442   0.175   7.819  1.8510  0.4669  1.8238
 2765TIP3    H229855   3.475   0.323   7.824 -1.7180  1.4923 -0.6257
 2766TIP3   OH229856   5.854   2.715   8.409  0.1121  0.3115 -0.0639
 2766TIP3    H129857   5.894   2.639   8.452  1.0409  1.0376  0.3744
 2766TIP3    H229858   5.780   2.739   8.465  0.9981  0.9276  0.8617
 2767TIP3   OH229859   5.462   4.646   0.428 -0.4963  0.3639 -0.1481
 2767TIP3    H129860   5.428   4.594   0.355 -0.2817 -0.0735  0.0579
 2767TIP3    H229861   5.445   4.736   0.403 -1.3616  0.1750 -0.2717
 2768TIP3   OH229862   0.470   0.373   2.016  0.0840  0.1864  0.7020
 2768TIP3    H129863   0.418   0.452   2.032 -0.5896 -0.2422  0.6675
 2768TIP3    H229864   0.527   0.365   2.092  2.0671  2.1745 -0.4795
 2769TIP3   OH229865   2.067   6.703   0.075  0.0350  0.3485 -0.2754
 2769TIP3    H129866   2.042   6.794   0.092  2.1811  0.8573  0.4345
 2769TIP3    H229867   1.998   6.651   0.115 -0.6113  1.6554  0.3713
 2770TIP3   OH229868   6.270   4.675   7.462  0.2618  0.3851  0.4340
 2770TIP3    H129869   6.257   4.726   7.542  2.5676  1.1269  0.4242
 2770TIP3    H229870   6.205   4.709   7.401  1.1159  2.7312  0.7346
 2771TIP3   OH229871   0.585   6.560   1.060  0.4579 -0.4489 -0.1051
 2771TIP3    H129872   0.625   6.630   1.008 -0.0563  0.0468  0.1612
 2771TIP3    H229873   0.494   6.588   1.072  0.4158 -0.8506  0.5433
 2772TIP3   OH229874   0.076   3.991   3.076  0.6865  0.4924 -0.1336
 2772TIP3    H129875   0.111   3.931   3.010 -2.3985 -1.3728 -0.2433
 2772TIP3    H229876   0.021   3.936   3.131 -1.2332  2.9942  0.5903
 2773TIP3   OH229877   1.294   2.401   8.490  0.0920  0.6063  0.1693
 2773TIP3    H129878   1.308   2.485   8.447  0.2165  0.5410  0.0819
 2773TIP3    H229879   1.369   2.347   8.464 -0.8316 -0.1055 -1.1927
 2774TIP3   OH229880   0.303   0.831   7.598  0.1551  0.1056 -0.0743
 2774TIP3    H129881   0.263   0.746   7.579  0.6298 -0.7192  2.2631
 2774TIP3    H229882   0.261   0.891   7.537  0.1400 -1.8547 -2.1480
 2775TIP3   OH229883   0.604   6.606   8.589 -0.2869  0.1059 -0.0967
 2775TIP3    H129884   0.602   6.689   8.541 -2.2873  0.4290  0.4508
 2775TIP3    H229885   0.595   6.539   8.522 -1.4308  0.4844 -0.3459
 2776TIP3   OH229886   5.301   1.303   7.164  0.0189  0.5427  0.0458
 2776TIP3    H129887   5.287   1.274   7.074 -2.6266  0.3923  0.4460
 2776TIP3    H229888   5.257   1.387   7.170  0.5781  0.7817  1.1005
 2777TIP3   OH229889   3.807   0.304   2.331 -0.2112  0.3100  0.3327
 2777TIP3    H129890   3.885   0.282   2.280 -0.9646 -1.1805 -0.2322
 2777TIP3    H229891   3.817   0.256   2.413  0.4075  1.7337  1.1296
 2778TIP3   OH229892   2.600   2.734   0.198  0.8628 -0.1221  0.3932
 2778TIP3    H129893   2.611   2.726   0.293 -2.4005  2.4025  1.1897
 2778TIP3    H229894   2.562   2.651   0.171  0.2685 -0.2965  1.6598
 2779TIP3   OH229895   3.232   1.624   1.414 -0.6512  0.0888  0.2463
 2779TIP3    H129896   3.223   1.528   1.420 -0.9672  0.1525  0.8378
 2779TIP3    H229897   3.324   1.637   1.392 -0.2289 -0.3128  1.6583
 2780TIP3   OH229898   2.224   5.781   0.253  0.0358  0.1452  0.8293
 2780TIP3    H129899   2.152   5.836   0.223  0.6273 -0.0168 -1.0304
 2780TIP3    H229900   2.247   5.728   0.177  1.4292 -0.5575  1.6923
 2781TIP3   OH229901   5.554   3.526   0.276  0.6694 -0.4545 -0.1574
 2781TIP3    H129902   5.571   3.523   0.370 -0.9557  0.9621  0.2324
 2781TIP3    H229903   5.539   3.618   0.257 -0.1652 -0.8531 -1.5914
 2782TIP3   OH229904   6.809   6.029   2.213 -0.4256 -0.1508  0.3888
 2782TIP3    H129905   6.871   5.990   2.152  0.3308 -1.0662  1.6963
 2782TIP3    H229906   6.754   5.956   2.243 -0.4559  0.1768  1.1703
 2783TIP3   OH229907   5.060   5.565   1.529 -0.1293 -0.3317 -0.8129
 2783TIP3    H129908   5.127   5.498   1.524  0.2504  0.1510 -3.0633
 2783TIP3    H229909   5.073   5.606   1.615  0.6931 -1.9785 -0.1074
 2784TIP3   OH229910   5.368   4.263   0.139 -0.1978 -0.3836 -0.3395
 2784TIP3    H129911   5.399   4.174   0.157 -1.3051 -0.7857 -0.3274
 2784TIP3    H229912   5.368   4.305   0.225  1.3120 -0.0200 -0.4868
 2785TIP3   OH229913   0.496   5.498   8.086 -0.2815  0.2575 -0.3180
 2785TIP3    H129914   0.558   5.444   8.036  0.4501  1.6260 -0.9544
 2785TIP3    H229915   0.551   5.566   8.126 -1.4079  1.8177 -1.3214
 2786TIP3   OH229916   3.615   6.101   7.051 -0.6253 -0.2178  0.5620
 2786TIP3    H129917   3.643   6.192   7.058  2.9663 -1.2922  3.2063
 2786TIP3    H229918   3.546   6.091   7.116 -0.7523  0.4810  0.5401
 2787TIP3   OH229919   1.695   0.564   2.365 -0.1936  0.1669  0.0769
 2787TIP3    H129920   1.620   0.620   2.383  0.5252  0.0658  4.5135
 2787TIP3    H229921   1.662   0.475   2.373 -0.0163  0.0623 -0.2969
 2788TIP3   OH229922   3.060   0.259   8.147  0.7909  0.3934  0.1136
 2788TIP3    H129923   2.979   0.220   8.113 -0.7633  2.9180  0.6467
 2788TIP3    H229924   3.037   0.287   8.236  2.6148  0.2226  0.6760
 2789TIP3   OH229925   6.338   2.073   2.591 -0.5444  0.0110  0.1811
 2789TIP3    H129926   6.294   2.141   2.643 -2.4114 -0.6015 -0.5172
 2789TIP3    H229927   6.422   2.061   2.635 -1.0285  1.2777  1.5681
 2790TIP3   OH229928   1.655   6.210   7.719 -0.4267 -0.5137  0.2127
 2790TIP3    H129929   1.638   6.261   7.798 -1.1411 -0.8766  0.2994
 2790TIP3    H229930   1.569   6.177   7.692 -0.2860  0.0288 -1.0101
 2791TIP3   OH229931   1.754   3.760   8.650 -0.4389 -0.2192 -0.2353
 2791TIP3    H129932   1.751   3.782   8.557  0.9644 -0.4728 -0.3475
 2791TIP3    H229933   1.777   3.668   8.653  1.7566  0.3038  0.3868
 2792TIP3   OH229934   0.347   3.717   8.219 -0.1945 -0.7877 -0.1972
 2792TIP3    H129935   0.319   3.672   8.299  0.3269 -2.5092 -0.9294
 2792TIP3    H229936   0.326   3.655   8.149  0.7395  0.0448 -1.2420
 2793TIP3   OH229937   1.470   0.577   2.039 -0.6206  0.2814 -0.3664
 2793TIP3    H129938   1.497   0.657   2.082 -1.0259  0.4495 -0.4119
 2793TIP3    H229939   1.377   0.590   2.020 -0.7394 -0.2772 -0.1991
 2794TIP3   OH229940   2.420   4.518   2.419 -0.0763 -0.1396 -0.6477
 2794TIP3    H129941   2.516   4.513   2.420  0.0024  0.7338  1.1319
 2794TIP3    H229942   2.394   4.464   2.345  1.7764 -0.8753 -0.8282
 2795TIP3   OH229943   3.657   6.496   2.904 -0.1318  0.2283 -0.2460
 2795TIP3    H129944   3.708   6.439   2.846  1.6621  1.9097 -0.4345
 2795TIP3    H229945   3.591   6.439   2.943 -0.1072 -1.3804 -2.4156
 2796TIP3   OH229946   3.013   6.195   7.526  0.0739 -0.6963 -0.1701
 2796TIP3    H129947   3.079   6.235   7.583 -0.5836  1.6958 -0.9990
 2796TIP3    H229948   3.065   6.151   7.459  0.8280 -1.8995  1.1394
 2797TIP3   OH229949   4.901   5.959   0.299 -0.0859  0.3747  0.6172
 2797TIP3    H129950   4.851   5.916   0.229  2.9258 -1.2345 -0.7588
 2797TIP3    H229951   4.937   6.037   0.259  2.1496 -0.8651  0.0555
 2798TIP3   OH229952   5.663   6.017   2.175 -0.4895 -0.2752  0.1767
 2798TIP3    H129953   5.683   6.052   2.089  2.2861 -0.0376  0.8353
 2798TIP3    H229954   5.680   5.923   2.168 -0.4675 -0.2898  0.4200
 2799TIP3   OH229955   4.654   5.940   3.407  0.1659 -0.6624 -0.7910
 2799TIP3    H129956   4.676   5.860   3.455  0.0240  0.2414  0.8600
 2799TIP3    H229957   4.738   5.983   3.392  0.2258 -1.0161 -1.5327
 2800TIP3   OH229958   3.411   6.052   7.795 -0.5029  0.1052  0.5392
 2800TIP3    H129959   3.429   6.133   7.843 -1.1800  0.9537 -0.6031
 2800TIP3    H229960   3.410   6.077   7.703 -0.5487 -1.2436  0.1456
 2801TIP3   OH229961   2.724   1.635   7.522  0.3076  0.1115 -0.4838
 2801TIP3    H129962   2.712   1.540   7.521  0.5420  0.0847 -1.0269
 2801TIP3    H229963   2.661   1.667   7.458  0.0179  0.3508 -0.0822
 2802TIP3   OH229964   1.446   1.949   0.328  0.4362  0.0642 -0.0183
 2802TIP3    H129965   1.352   1.937   0.314 -0.0404  2.0219  1.0884
 2802TIP3    H229966   1.453   1.973   0.421  1.8313  1.3452 -0.4126
 2803TIP3   OH229967   6.293   6.220   2.403  0.5222 -0.7045  0.0455
 2803TIP3    H129968   6.206   6.227   2.364  1.0109  1.1241 -0.7967
 2803TIP3    H229969   6.332   6.307   2.392  1.5089 -0.7272  2.6934
 2804TIP3   OH229970   6.493   2.078   2.905  0.1552 -0.4625  0.8513
 2804TIP3    H129971   6.562   2.083   2.839  0.6657 -2.6200  1.1506
 2804TIP3    H229972   6.433   2.149   2.882  1.5217  0.3186 -0.5013
 2805TIP3   OH229973   5.336   2.159   6.944 -0.9267 -0.5012 -0.4063
 2805TIP3    H129974   5.321   2.077   6.898 -0.4432  0.2315 -1.9318
 2805TIP3    H229975   5.260   2.168   7.002 -0.8314 -2.1526  0.0098
 2806TIP3   OH229976   4.540   4.817   1.971 -0.6113 -0.7794 -0.2234
 2806TIP3    H129977   4.480   4.887   1.997  0.9890  1.3394 -1.8020
 2806TIP3    H229978   4.593   4.801   2.049 -0.4433  0.4413 -0.0533
 2807TIP3   OH229979   5.949   0.453   1.129  0.3751 -0.3984  0.1375
 2807TIP3    H129980   6.001   0.506   1.188  0.4129 -0.7922  0.4580
 2807TIP3    H229981   6.005   0.440   1.053  1.0099 -1.3846  0.7564
 2808TIP3   OH229982   5.590   6.146   0.294  0.3995  0.3557  0.4873
 2808TIP3    H129983   5.521   6.210   0.313 -0.3557 -0.7821  1.7442
 2808TIP3    H229984   5.563   6.106   0.211  0.1227  0.6806  0.4169
 2809TIP3   OH229985   1.864   0.916   1.722  0.0012  0.2946 -0.7541
 2809TIP3    H129986   1.928   0.849   1.748  0.7228  1.2987  0.1467
 2809TIP3    H229987   1.909   0.968   1.656 -0.3693  0.1988 -1.0810
 2810TIP3   OH229988   3.677   4.967   8.292 -0.0212  0.0806  0.2249
 2810TIP3    H129989   3.662   5.062   8.288 -0.8636 -0.0951 -1.0894
 2810TIP3    H229990   3.738   4.957   8.365  0.1539  1.6417  0.3435
 2811TIP3   OH229991   6.479   2.659   0.947 -0.0098 -0.0679 -0.4260
 2811TIP3    H129992   6.553   2.674   0.889 -0.2513  0.1520 -0.6780
 2811TIP3    H229993   6.518   2.625   1.027  0.6079  2.3551  0.3785
 2812TIP3   OH229994   2.461   6.312   1.875  0.5947  0.7395  0.3678
 2812TIP3    H129995   2.451   6.223   1.841 -0.9547  0.6207  1.0192
 2812TIP3    H229996   2.404   6.366   1.820  0.4231  1.0662  0.8542
 2813TIP3   OH229997   1.806   4.156   2.218 -0.3477  0.2493 -0.2071
 2813TIP3    H129998   1.812   4.061   2.227 -1.2810  0.1949 -0.0533
 2813TIP3    H229999   1.897   4.186   2.222 -0.0864 -0.5743  0.4602
 2814TIP3   OH230000   4.676   3.036   0.247 -0.4159 -0.0160  0.5447
 2814TIP3    H130001   4.721   2.968   0.195  0.2018  0.1722  0.8267
 2814TIP3    H230002   4.654   2.993   0.329  2.8878  0.9384  2.1000
 2815TIP3   OH230003   5.634   1.654   2.087  0.2312 -0.0359  0.0596
 2815TIP3    H130004   5.683   1.669   2.006  0.9033 -0.1353  0.4365
 2815TIP3    H230005   5.653   1.563   2.110 -0.5089 -0.2145 -0.0343
 2816TIP3   OH230006   0.133   5.166   7.659 -0.1017 -0.3224 -0.2333
 2816TIP3    H130007   0.064   5.206   7.605  3.5078  0.9280 -4.4834
 2816TIP3    H230008   0.148   5.229   7.729 -1.8865  0.3011 -0.3522
 2817TIP3   OH230009   0.399   6.519   2.427  0.0657 -0.1725 -0.1540
 2817TIP3    H130010   0.445   6.450   2.380  0.3003 -0.1890  0.0976
 2817TIP3    H230011   0.331   6.549   2.366 -0.6543 -1.2695  0.0904
 2818TIP3   OH230012   4.327   3.907   2.069 -0.4820 -0.2638 -0.6775
 2818TIP3    H130013   4.280   3.988   2.093 -2.1576 -1.3850  0.0058
 2818TIP3    H230014   4.293   3.885   1.983  0.3197 -0.0142 -1.0647
 2819TIP3   OH230015   5.511   2.769   3.290  0.6339 -0.2232  0.0803
 2819TIP3    H130016   5.544   2.843   3.340 -0.7992  0.5864 -0.0997
 2819TIP3    H230017   5.507   2.697   3.354  0.6909  0.2525  0.6275
 2820TIP3   OH230018   4.598   0.051   1.706  0.1281 -0.0644  0.0065
 2820TIP3    H130019   4.669   0.039   1.643 -0.8457 -0.7240 -1.0020
 2820TIP3    H230020   4.524   0.080   1.653 -0.0399  1.8690  1.2042
 2821TIP3   OH230021   3.412   6.236   1.383  0.6507 -0.6491  0.2444
 2821TIP3    H130022   3.435   6.270   1.297 -0.2581 -0.2492  0.1508
 2821TIP3    H230023   3.458   6.153   1.389  2.7005  0.4321  0.3662
 2822TIP3   OH230024   2.605   4.766   8.497 -0.4354  0.5455  0.4951
 2822TIP3    H130025   2.662   4.789   8.571  0.5390  1.5604 -0.5246
 2822TIP3    H230026   2.664   4.760   8.422 -1.5599  0.7743 -0.4445
 2823TIP3   OH230027   1.845   3.781   7.593  0.7184 -0.4011  0.2294
 2823TIP3    H130028   1.762   3.804   7.635  0.7771 -0.9098  0.6368
 2823TIP3    H230029   1.891   3.864   7.583  0.4685 -0.2044  0.6744
 2824TIP3   OH230030   1.523   1.137   7.755 -0.7708  0.4982 -0.0697
 2824TIP3    H130031   1.469   1.155   7.832  0.2099  0.8198  0.5685
 2824TIP3    H230032   1.570   1.219   7.740  0.9130 -0.3140  0.5403
 2825TIP3   OH230033   3.172   4.187   2.580  0.2500 -0.3269 -0.1610
 2825TIP3    H130034   3.251   4.190   2.634  0.1463  0.5421 -0.0422
 2825TIP3    H230035   3.194   4.126   2.510  0.0778 -2.1467  1.3148
 2826TIP3   OH230036   3.426   2.581   7.339 -0.4893  0.2882  0.1860
 2826TIP3    H130037   3.375   2.501   7.354  0.1050 -0.0715  0.3384
 2826TIP3    H230038   3.442   2.582   7.245 -1.5984  0.9223 -0.0179
 2827TIP3   OH230039   1.113   6.472   1.432 -0.5332 -0.0955  0.7266
 2827TIP3    H130040   1.056   6.478   1.355 -0.8187  0.8971  1.0001
 2827TIP3    H230041   1.065   6.519   1.500 -0.4609 -1.2927  1.6290
 2828TIP3   OH230042   0.583   3.249   2.284  0.6312 -0.3753  0.7850
 2828TIP3    H130043   0.591   3.282   2.373 -1.9355 -2.6784  2.0384
 2828TIP3    H230044   0.672   3.253   2.249  1.5704  1.4089  3.1039
 2829TIP3   OH230045   1.542   0.398   8.202 -0.5675  0.3620  0.0812
 2829TIP3    H130046   1.532   0.420   8.295 -1.6817  0.9321 -0.1520
 2829TIP3    H230047   1.459   0.427   8.162 -0.7382 -1.2747 -0.8180
 2830TIP3   OH230048   2.421   1.901   1.866 -0.1084  0.0525 -0.7764
 2830TIP3    H130049   2.444   1.808   1.876 -0.6528 -0.1115 -0.9961
 2830TIP3    H230050   2.505   1.946   1.861  0.1616 -0.4049 -0.4379
 2831TIP3   OH230051   5.503   3.537   2.590  0.1438  0.0808 -0.2760
 2831TIP3    H130052   5.560   3.515   2.517 -0.7516  1.1409 -1.3317
 2831TIP3    H230053   5.415   3.535   2.554 -0.2948  0.9216  0.6900
 2832TIP3   OH230054   1.812   6.263   1.174  0.1839 -0.4333  0.2768
 2832TIP3    H130055   1.871   6.232   1.244  2.7468 -1.4871 -2.1682
 2832TIP3    H230056   1.774   6.183   1.137  0.9759 -0.1509 -1.2219
 2833TIP3   OH230057   5.595   5.305   7.967  0.2431 -0.1426 -0.1159
 2833TIP3    H130058   5.638   5.269   8.045 -0.9210 -1.1232  0.1043
 2833TIP3    H230059   5.581   5.229   7.910  2.1720  0.7307 -1.8763
 2834TIP3   OH230060   0.346   2.812   0.093 -0.0017  0.3479  0.5851
 2834TIP3    H130061   0.251   2.801   0.097  0.0896 -1.3224 -0.6648
 2834TIP3    H230062   0.381   2.723   0.096  1.4633  0.8615 -0.1323
 2835TIP3   OH230063   0.964   1.853   2.853  0.2164 -0.6239 -0.4412
 2835TIP3    H130064   0.943   1.788   2.785  1.1637 -0.0091 -1.3387
 2835TIP3    H230065   1.056   1.873   2.840  0.3210 -0.2089  0.8043
 2836TIP3   OH230066   3.351   4.977   1.132 -0.0730 -0.6999  0.1200
 2836TIP3    H130067   3.361   5.072   1.130 -1.9278 -0.3949  1.8544
 2836TIP3    H230068   3.437   4.944   1.157  0.9153  0.3998 -1.6474
 2837TIP3   OH230069   1.335   0.768   8.459 -0.1021 -0.3671  0.0757
 2837TIP3    H130070   1.279   0.702   8.501 -0.5888 -0.8785 -1.2921
 2837TIP3    H230071   1.422   0.752   8.493 -0.4019 -1.0577  0.5304
 2838TIP3   OH230072   3.349   5.717   0.188  0.1255 -0.2222 -0.0484
 2838TIP3    H130073   3.356   5.691   0.096 -0.2362  0.2858 -0.2295
 2838TIP3    H230074   3.272   5.775   0.190  2.3893  3.1118 -0.2253
 2839TIP3   OH230075   2.162   0.635   2.263  0.3350  0.0135 -0.1900
 2839TIP3    H130076   2.175   0.727   2.241  3.1395 -0.3697 -0.5042
 2839TIP3    H230077   2.243   0.592   2.235 -0.9939 -2.6232 -0.3178
 2840TIP3   OH230078   2.017   4.933   1.314 -0.2102  0.0923 -0.0498
 2840TIP3    H130079   2.073   5.009   1.332 -0.0690  0.1822 -0.8287
 2840TIP3    H230080   2.030   4.875   1.389  1.7868 -0.3790 -0.6708
 2841TIP3   OH230081   2.258   3.818   2.290 -0.6083 -0.0620 -0.8389
 2841TIP3    H130082   2.311   3.895   2.312  0.5116 -1.1320  0.4229
 2841TIP3    H230083   2.321   3.745   2.291 -2.3234 -1.7602  2.8670
 2842TIP3   OH230084   0.791   6.269   2.460  0.1229  0.3085 -0.0903
 2842TIP3    H130085   0.814   6.284   2.552  2.4682  0.2831 -0.5953
 2842TIP3    H230086   0.813   6.177   2.445 -0.0233  0.3768 -0.7254
 2843TIP3   OH230087   4.489   2.450   0.819 -0.1330 -0.1972 -1.0863
 2843TIP3    H130088   4.414   2.455   0.878  1.6070  0.1976  1.2028
 2843TIP3    H230089   4.453   2.410   0.739 -2.1452 -3.0472  1.0234
 2844TIP3   OH230090   4.050   5.412   2.154 -0.4567  0.1375 -0.4968
 2844TIP3    H130091   4.109   5.364   2.096 -0.2594 -1.2711  0.8036
 2844TIP3    H230092   3.987   5.346   2.185 -0.8202  0.9343  0.5302
 2845TIP3   OH230093   1.259   2.736   1.047  0.0064 -0.3523 -0.0898
 2845TIP3    H130094   1.349   2.708   1.064 -0.4423 -1.6392  0.3103
 2845TIP3    H230095   1.211   2.654   1.035 -1.3260  0.2620  0.8371
 2846TIP3   OH230096   5.618   4.226   2.954 -0.8938  0.0455  0.2827
 2846TIP3    H130097   5.585   4.224   3.044 -2.0710 -1.0244 -0.1417
 2846TIP3    H230098   5.682   4.155   2.950 -0.6737  0.2407  0.3351
 2847TIP3   OH230099   0.614   2.948   0.834  0.2364  0.0346  0.0591
 2847TIP3    H130100   0.667   3.020   0.799  2.5211 -1.8305 -0.5183
 2847TIP3    H230101   0.676   2.894   0.882 -1.5811 -1.1713  1.1688
 2848TIP3   OH230102   0.088   1.191   8.726  0.4381  0.4052  0.3678
 2848TIP3    H130103   0.037   1.204   8.646  1.4157  0.0515 -0.3374
 2848TIP3    H230104   0.024   1.200   8.797 -0.4806  0.5660 -0.4515
 2849TIP3   OH230105   0.834   1.715   2.488 -0.3614 -0.2547 -0.3576
 2849TIP3    H130106   0.853   1.659   2.412 -1.1377  0.5478 -1.1683
 2849TIP3    H230107   0.743   1.743   2.475 -0.1825  0.7131  0.3503
 2850TIP3   OH230108   0.827   0.335   1.801  0.0932  0.1119 -0.0157
 2850TIP3    H130109   0.855   0.416   1.843  1.3720 -0.1150 -0.3720
 2850TIP3    H230110   0.734   0.348   1.782  0.2758  1.4889 -0.0530
 2851TIP3   OH230111   1.400   3.550   2.186  0.1402  0.6354 -0.5067
 2851TIP3    H130112   1.380   3.529   2.277 -0.8065 -0.7098 -0.9910
 2851TIP3    H230113   1.322   3.524   2.137  1.3075 -0.4033 -1.9296
 2852TIP3   OH230114   5.825   2.443   2.938  0.1173 -0.1536  0.1242
 2852TIP3    H130115   5.785   2.510   2.994  1.3412 -0.1070  0.9704
 2852TIP3    H230116   5.751   2.407   2.888 -0.5873  1.7583 -0.3145
 2853TIP3   OH230117   3.562   3.966   1.034  0.3437  0.2294  0.3269
 2853TIP3    H130118   3.611   4.044   1.058 -1.4636  2.1043 -1.6079
 2853TIP3    H230119   3.613   3.925   0.965  0.5701  0.5645  0.2940
 2854TIP3   OH230120   3.968   6.505   1.103  0.1251 -0.7785 -0.1619
 2854TIP3    H130121   3.970   6.566   1.176 -0.2347 -0.0853 -0.7125
 2854TIP3    H230122   3.996   6.421   1.140 -1.0914 -0.7026  1.0155
 2855TIP3   OH230123   2.486   0.843   1.408 -0.4127 -0.1153  0.1307
 2855TIP3    H130124   2.518   0.882   1.327 -1.5219 -1.2715 -0.9155
 2855TIP3    H230125   2.554   0.781   1.434  0.5040  1.1200  0.7931
 2856TIP3   OH230126   3.539   2.766   0.403 -0.0763  0.1264 -0.4388
 2856TIP3    H130127   3.546   2.792   0.495  2.1203  2.9213 -1.2461
 2856TIP3    H230128   3.491   2.838   0.362  1.9306  0.6514 -2.0054
 2857TIP3   OH230129   3.436   1.370   2.288  0.1047  0.0666 -0.1474
 2857TIP3    H130130   3.463   1.291   2.334 -1.5676 -0.1193  0.5892
 2857TIP3    H230131   3.379   1.416   2.350  2.1440  2.5926 -0.0047
 2858TIP3   OH230132   4.902   6.541   0.234  0.0257 -0.2136 -0.5828
 2858TIP3    H130133   4.836   6.608   0.254  0.7784 -0.1858  2.1956
 2858TIP3    H230134   4.878   6.466   0.289  1.7581 -0.5340 -0.2163
 2859TIP3   OH230135   0.639   1.279   8.062 -0.0668 -0.6729 -0.4287
 2859TIP3    H130136   0.713   1.220   8.045 -0.5316 -1.5176  0.3941
 2859TIP3    H230137   0.570   1.247   8.004  0.0671 -0.1519 -0.8821
 2860TIP3   OH230138   6.577   5.893   8.687  0.0716  0.0723 -0.3082
 2860TIP3    H130139   6.642   5.942   8.736  0.1426 -1.3364  1.0891
 2860TIP3    H230140   6.528   5.845   8.754 -0.4892 -1.1414 -1.5439
 2861TIP3   OH230141   4.343   1.112   1.381 -0.0253 -0.6001  0.1229
 2861TIP3    H130142   4.381   1.175   1.442  3.8875 -1.7588 -0.8153
 2861TIP3    H230143   4.280   1.163   1.330  1.8669  2.2061  0.3815
 2862TIP3   OH230144   0.225   2.854   3.258 -0.3580  0.4425 -0.5560
 2862TIP3    H130145   0.243   2.941   3.222  1.4612  0.6289  0.6266
 2862TIP3    H230146   0.294   2.798   3.222 -1.0495 -0.3308 -0.6987
 2863TIP3   OH230147   0.595   6.001   8.013  0.0749 -0.0970 -1.1493
 2863TIP3    H130148   0.683   6.038   8.011  0.2677 -0.4125  0.4869
 2863TIP3    H230149   0.537   6.075   7.995  0.5338  0.7778  0.7361
 2864TIP3   OH230150   0.208   2.054   1.982 -0.1551 -0.4257  0.0032
 2864TIP3    H130151   0.199   2.143   1.948 -0.1870  0.1875  1.5478
 2864TIP3    H230152   0.249   2.064   2.068 -0.8922 -1.8258  0.5710
 2865TIP3   OH230153   1.928   2.062   1.074 -0.1564  0.2203 -0.4999
 2865TIP3    H130154   1.974   2.064   1.158  1.7508  0.8488 -1.5073
 2865TIP3    H230155   1.852   2.119   1.086 -0.9377 -1.1092  1.3092
 2866TIP3   OH230156   1.568   2.063   2.397  0.2727 -0.4657  0.2458
 2866TIP3    H130157   1.661   2.069   2.418  0.2122 -0.2031  0.4430
 2866TIP3    H230158   1.560   2.102   2.310  0.4746 -1.2538 -0.1305
 2867TIP3   OH230159   0.312   0.096   1.162 -0.6695 -0.2925  0.6688
 2867TIP3    H130160   0.268   0.180   1.177 -0.6270 -0.4520  1.7350
 2867TIP3    H230161   0.395   0.105   1.208 -0.5075 -0.7947  0.4764
 2868TIP3   OH230162   2.040   3.400   8.275  0.4545 -0.2061 -0.7040
 2868TIP3    H130163   1.949   3.376   8.288  0.6973 -1.1030 -0.5849
 2868TIP3    H230164   2.046   3.491   8.305 -0.2914 -0.2958 -0.2686
 2869TIP3   OH230165   4.125   1.780   7.352 -0.3013  0.2484  0.1412
 2869TIP3    H130166   4.063   1.830   7.300 -1.3139 -2.9650 -2.0352
 2869TIP3    H230167   4.210   1.798   7.312 -0.4585  1.2026  0.2313
 2870TIP3   OH230168   4.726   3.576   1.299  0.6928 -0.2908  0.1240
 2870TIP3    H130169   4.746   3.661   1.259  0.2288 -0.4361 -0.4254
 2870TIP3    H230170   4.812   3.539   1.321  1.0093 -0.4867 -1.3266
 2871TIP3   OH230171   0.515   5.621   1.064  0.2861  0.5441  0.4044
 2871TIP3    H130172   0.480   5.698   1.018  0.9037  0.1604 -0.7523
 2871TIP3    H230173   0.582   5.657   1.122  1.0408  0.8447 -0.6144
 2872TIP3   OH230174   6.782   4.287   7.877  0.0791  0.3263 -0.2423
 2872TIP3    H130175   6.715   4.285   7.808 -0.3755 -0.0170  0.2067
 2872TIP3    H230176   6.845   4.221   7.850  0.2317  0.6274 -0.6507
 2873TIP3   OH230177   2.315   0.554   0.111 -0.0434 -1.0654  0.3319
 2873TIP3    H130178   2.224   0.536   0.136 -1.0296 -0.4733 -2.5209
 2873TIP3    H230179   2.329   0.500   0.033  2.6896 -2.4704  1.6623
 2874TIP3   OH230180   2.020   0.906   0.756  0.1642 -0.1447  0.1927
 2874TIP3    H130181   2.042   0.843   0.688 -0.5839 -0.1371 -0.0656
 2874TIP3    H230182   1.951   0.864   0.807  0.8900 -0.2521  1.1111
 2875TIP3   OH230183   2.481   1.909   0.323 -0.1379  0.3378 -0.1127
 2875TIP3    H130184   2.572   1.914   0.352 -0.8857  0.5060  2.4113
 2875TIP3    H230185   2.431   1.948   0.394 -2.2305 -0.0788 -1.2845
 2876TIP3   OH230186   4.157   4.580   7.898  0.2576 -0.1730 -0.0143
 2876TIP3    H130187   4.183   4.622   7.980  0.1553 -1.1095  0.5186
 2876TIP3    H230188   4.240   4.546   7.863  0.2659 -0.0033 -0.1535
 2877TIP3   OH230189   2.512   3.387   1.237  0.5893 -1.0543  0.3266
 2877TIP3    H130190   2.458   3.465   1.249  1.5318 -0.4114  0.4553
 2877TIP3    H230191   2.466   3.337   1.170  0.1049 -0.2597  0.0504
 2878TIP3   OH230192   2.412   6.082   0.790 -0.0842 -0.1568 -0.6824
 2878TIP3    H130193   2.410   6.099   0.885  0.8399  0.6432 -0.7904
 2878TIP3    H230194   2.321   6.060   0.768  0.2590 -4.1284  1.0194
 2879TIP3   OH230195   4.454   2.798   7.017 -0.3448  0.3694 -0.5212
 2879TIP3    H130196   4.535   2.843   6.991 -0.0784  0.5096  0.4960
 2879TIP3    H230197   4.422   2.849   7.091  0.9616 -2.1546  1.9254
 2880TIP3   OH230198   2.768   1.204   2.864  0.1329 -0.3440  0.6701
 2880TIP3    H130199   2.777   1.122   2.913 -0.5250 -0.1783  1.0799
 2880TIP3    H230200   2.678   1.233   2.882  0.4344  0.5876  0.7115
 2881TIP3   OH230201   0.369   3.322   7.584  0.1688 -0.2708 -0.2768
 2881TIP3    H130202   0.313   3.335   7.507 -1.4064  2.4123  1.1711
 2881TIP3    H230203   0.456   3.307   7.547 -1.1147 -2.9573 -2.5778
 2882TIP3   OH230204   6.766   6.194   2.429 -0.0430 -0.0006  0.3505
 2882TIP3    H130205   6.721   6.276   2.410 -2.6624 -1.2789  0.5645
 2882TIP3    H230206   6.779   6.153   2.344 -0.2775 -0.0922  0.3567
 2883TIP3   OH230207   1.093   4.335   2.465  0.4151  0.3081  0.7994
 2883TIP3    H130208   1.026   4.266   2.463  1.0641 -0.3170 -0.3238
 2883TIP3    H230209   1.110   4.349   2.558 -1.0418  0.2494  1.0915
 2884TIP3   OH230210   6.767   2.105   2.205  0.5374  0.2511  0.2268
 2884TIP3    H130211   6.753   2.012   2.225 -1.5063  0.0927 -1.5380
 2884TIP3    H230212   6.785   2.106   2.111 -1.3150  1.7543 -0.1606
 2885TIP3   OH230213   4.869   5.099   0.264 -0.2762  0.5761  0.4212
 2885TIP3    H130214   4.850   5.070   0.175  2.5773  0.2813 -0.1798
 2885TIP3    H230215   4.826   5.035   0.320  0.9017 -1.4004 -0.8314
 2886TIP3   OH230216   3.378   3.222   2.767 -0.3140 -0.2554 -0.2057
 2886TIP3    H130217   3.429   3.141   2.768  0.8319  0.4453  1.5442
 2886TIP3    H230218   3.287   3.193   2.759  0.1185 -1.6871 -0.1548
 2887TIP3   OH230219   5.495   0.280   7.267 -0.0827 -0.4761  0.0314
 2887TIP3    H130220   5.583   0.277   7.228  0.6555  0.0677  1.5647
 2887TIP3    H230221   5.460   0.364   7.240  0.2244 -0.3141  0.1280
 2888TIP3   OH230222   5.095   5.432   0.575  0.5169 -0.1064 -0.5184
 2888TIP3    H130223   5.097   5.457   0.668  1.1706 -0.3503 -0.4616
 2888TIP3    H230224   5.077   5.338   0.575  0.7126 -0.1444 -0.6304
 2889TIP3   OH230225   4.111   4.162   2.554 -0.1367  0.4692 -0.2020
 2889TIP3    H130226   4.109   4.250   2.590  1.3950  0.1986  0.6261
 2889TIP3    H230227   4.132   4.106   2.629  1.3505 -0.3052 -1.1528
 2890TIP3   OH230228   5.452   0.892   0.490 -0.2138  0.2484  0.2780
 2890TIP3    H130229   5.498   0.972   0.462 -0.5784  0.1953 -0.4725
 2890TIP3    H230230   5.495   0.869   0.573 -0.4443  1.5151  0.7828
 2891TIP3   OH230231   6.099   6.343   1.690 -0.4800  0.8387 -0.2122
 2891TIP3    H130232   6.046   6.333   1.769 -0.6555  0.2444 -0.3971
 2891TIP3    H230233   6.122   6.253   1.665  3.5968  1.1040  1.8333
 2892TIP3   OH230234   0.907   3.061   2.838 -0.1644  0.1846  0.3384
 2892TIP3    H130235   0.899   3.024   2.926 -1.0903  3.0085  1.5634
 2892TIP3    H230236   0.819   3.094   2.819 -0.8737 -3.0860 -3.0817
 2893TIP3   OH230237   1.870   3.691   0.748 -0.7989 -0.4803 -0.4753
 2893TIP3    H130238   1.894   3.622   0.810  1.5997  0.4917 -0.2250
 2893TIP3    H230239   1.924   3.673   0.671 -1.1496  0.3667 -0.9270
 2894TIP3   OH230240   3.323   0.490   0.168 -0.0512  0.4027  0.0346
 2894TIP3    H130241   3.339   0.437   0.089 -1.3204 -0.2345  0.1736
 2894TIP3    H230242   3.410   0.514   0.199  0.6526 -2.3510  0.4557
 2895TIP3   OH230243   4.485   5.941   3.185 -0.3962  0.1789 -0.0931
 2895TIP3    H130244   4.487   5.944   3.280 -1.6848 -1.1137  0.0103
 2895TIP3    H230245   4.567   5.898   3.160 -0.3962 -0.1503  0.4685
 2896TIP3   OH230246   3.155   3.110   2.167  0.4515 -0.1538  0.3512
 2896TIP3    H130247   3.182   3.113   2.075 -3.3465  1.1179 -0.9530
 2896TIP3    H230248   3.115   3.195   2.183 -3.3470 -1.9136  1.4968
 2897TIP3   OH230249   2.342   1.521   0.563 -0.1379  0.0997 -0.6054
 2897TIP3    H130250   2.300   1.442   0.597  1.1509 -1.6152 -2.6993
 2897TIP3    H230251   2.423   1.529   0.612  1.0595 -1.5742 -2.1707
 2898TIP3   OH230252   2.869   4.884   1.671 -0.2246 -0.0349  0.2035
 2898TIP3    H130253   2.949   4.900   1.621 -0.1118  0.5557  0.5634
 2898TIP3    H230254   2.827   4.811   1.626  0.1048  0.1848 -0.4805
 2899TIP3   OH230255   5.796   5.273   0.200  0.0529  0.1645  0.2600
 2899TIP3    H130256   5.726   5.334   0.225  0.6254 -0.0065  2.5570
 2899TIP3    H230257   5.791   5.204   0.267  2.0869 -0.1067  0.1795
 2900TIP3   OH230258   6.063   2.567   1.992 -0.1507  0.2451 -0.3669
 2900TIP3    H130259   6.120   2.538   1.920  0.5714 -1.9323  0.9915
 2900TIP3    H230260   6.123   2.601   2.058 -0.4986 -0.8326  0.5320
 2901TIP3   OH230261   4.830   3.407   2.295 -0.7170 -0.2407 -0.0874
 2901TIP3    H130262   4.793   3.318   2.301  0.6134 -0.9050 -1.0523
 2901TIP3    H230263   4.833   3.438   2.385 -0.2648 -1.5931  0.3982
 2902TIP3   OH230264   4.477   0.819   8.180  0.3275 -0.5490 -0.6114
 2902TIP3    H130265   4.488   0.741   8.125 -0.2898 -1.0373 -0.0547
 2902TIP3    H230266   4.507   0.891   8.125  1.5067 -1.2412 -0.9190
 2903TIP3   OH230267   4.914   0.760   7.728  0.2479  0.1907  0.2901
 2903TIP3    H130268   4.881   0.670   7.736 -1.7009  0.6668 -1.5184
 2903TIP3    H230269   4.978   0.756   7.658 -0.5795  0.3493 -0.4983
 2904TIP3   OH230270   6.247   6.777   0.886  0.8157 -0.5299 -0.0198
 2904TIP3    H130271   6.160   6.764   0.849 -0.2222 -0.1689  2.1479
 2904TIP3    H230272   6.252   6.872   0.901  2.0920 -0.3802 -1.2725
 2905TIP3   OH230273   6.688   5.562   2.809  0.1236 -0.2463 -0.6423
 2905TIP3    H130274   6.666   5.477   2.847  1.0230  0.9692  3.0938
 2905TIP3    H230275   6.643   5.626   2.865  0.4032  1.8216 -2.5973
 2906TIP3   OH230276   6.270   0.902   3.119  0.2027 -0.2207 -0.1578
 2906TIP3    H130277   6.205   0.840   3.087 -0.8886  1.7455 -2.0093
 2906TIP3    H230278   6.222   0.961   3.177  1.0398 -0.5302  0.9014
 2907TIP3   OH230279   2.608   2.719   2.277 -0.3637  0.4041  0.0278
 2907TIP3    H130280   2.586   2.679   2.362  2.8822  0.5448  1.0861
 2907TIP3    H230281   2.525   2.752   2.244 -2.4065 -2.7339  1.4562
 2908TIP3   OH230282   5.650   0.643   1.946  0.1819 -0.0978 -0.0236
 2908TIP3    H130283   5.625   0.575   1.884  0.3150  1.0145 -1.3304
 2908TIP3    H230284   5.618   0.611   2.031  0.2840 -1.7928 -0.5874
 2909TIP3   OH230285   5.265   3.556   0.328  0.1581  0.2201 -0.3278
 2909TIP3    H130286   5.349   3.557   0.282 -1.1214 -1.3320 -2.9923
 2909TIP3    H230287   5.232   3.467   0.316 -1.9097  0.8076  0.5301
 2910TIP3   OH230288   2.099   3.229   2.999  0.6633  0.0464 -0.3034
 2910TIP3    H130289   2.192   3.208   2.990  0.7589  0.8137 -1.2450
 2910TIP3    H230290   2.067   3.168   3.065  1.8046 -0.3194 -0.0694
 2911TIP3   OH230291   5.654   6.040   7.810 -0.2831  0.9912 -0.2931
 2911TIP3    H130292   5.594   5.969   7.835 -0.4825  1.9384  2.2475
 2911TIP3    H230293   5.597   6.117   7.801  0.4564  2.2032  3.4021
 2912TIP3   OH230294   0.420   2.436   3.002 -0.2902 -0.2240  0.0634
 2912TIP3    H130295   0.358   2.371   2.969 -0.6299 -0.3507  0.9153
 2912TIP3    H230296   0.506   2.400   2.981 -0.4618 -1.2059  0.9735
 2913TIP3   OH230297   5.140   6.780   8.556  0.1958 -0.0660 -0.2271
 2913TIP3    H130298   5.151   6.707   8.495 -1.3914  1.1441 -2.0694
 2913TIP3    H230299   5.218   6.834   8.542  0.3604 -0.3365 -0.3753
 2914TIP3   OH230300   2.027   5.987   0.185  0.0674  0.2697  0.4950
 2914TIP3    H130301   1.935   5.985   0.210  1.2998 -1.6898  6.2078
 2914TIP3    H230302   2.053   6.078   0.198 -0.3175  0.1002  2.7605
 2915TIP3   OH230303   2.456   6.093   1.706 -0.4371 -0.3131 -0.1329
 2915TIP3    H130304   2.506   6.131   1.633  0.6074 -1.1834  0.0971
 2915TIP3    H230305   2.476   6.000   1.702  0.4614 -0.2568  1.8660
 2916TIP3   OH230306   1.381   2.014   8.131 -0.2078  0.4138  0.0164
 2916TIP3    H130307   1.445   2.029   8.201  0.1314  0.9745 -0.4121
 2916TIP3    H230308   1.371   2.099   8.088 -0.1164 -0.0126 -0.8720
 2917TIP3   OH230309   3.120   2.433   8.107  0.3150 -0.5869 -0.4491
 2917TIP3    H130310   3.169   2.371   8.161 -0.4288  1.8074  3.2942
 2917TIP3    H230311   3.180   2.506   8.094 -0.6448  0.3255  0.1283
 2918TIP3   OH230312   3.265   1.146   8.111 -0.6284  0.0923  0.6590
 2918TIP3    H130313   3.341   1.199   8.089 -0.3223 -1.3945 -2.3473
 2918TIP3    H230314   3.200   1.169   8.045 -0.7551 -2.5697 -0.2547
 2919TIP3   OH230315   6.007   3.370   7.823 -0.3051 -0.4602 -0.0279
 2919TIP3    H130316   5.990   3.406   7.735 -2.3227 -0.6471  0.2310
 2919TIP3    H230317   6.066   3.296   7.808 -1.8281 -1.4598 -1.4460
 2920TIP3   OH230318   4.094   4.719   2.670  0.0453 -0.1352  0.0874
 2920TIP3    H130319   4.067   4.779   2.740  0.6047  1.3823 -0.9481
 2920TIP3    H230320   4.169   4.762   2.629  0.9775 -1.9438 -0.2080
 2921TIP3   OH230321   3.119   1.273   2.217 -0.6406 -0.8564 -0.1286
 2921TIP3    H130322   3.178   1.249   2.288  0.0150 -0.1855 -0.4376
 2921TIP3    H230323   3.076   1.353   2.247  1.1382  0.6191 -1.2775
 2922TIP3   OH230324   5.936   0.795   0.891  0.0056 -0.1875 -0.1254
 2922TIP3    H130325   5.906   0.814   0.980 -0.9205 -0.9628 -0.2466
 2922TIP3    H230326   5.871   0.733   0.857  0.9177 -0.7135 -0.9710
 2923TIP3   OH230327   5.363   2.378   8.440 -0.0931 -0.3390 -0.1674
 2923TIP3    H130328   5.418   2.453   8.418 -1.2225  0.1251 -1.6006
 2923TIP3    H230329   5.310   2.408   8.514  1.6732 -0.8691  1.3723
 2924TIP3   OH230330   5.339   5.573   7.815 -0.0613  0.3524  0.0790
 2924TIP3    H130331   5.288   5.512   7.869 -1.5672  2.8473  1.6648
 2924TIP3    H230332   5.399   5.517   7.765 -1.7018 -2.4209  1.0274
 2925TIP3   OH230333   1.682   1.419   8.448 -0.5335  0.6643  0.1774
 2925TIP3    H130334   1.611   1.422   8.512 -1.0740 -0.0997 -0.3679
 2925TIP3    H230335   1.674   1.333   8.407  0.5636  0.6576 -0.0690
 2926TIP3   OH230336   5.131   3.557   7.800 -0.0767  0.2782  0.3667
 2926TIP3    H130337   5.129   3.513   7.715  0.3550  1.4417 -0.2631
 2926TIP3    H230338   5.168   3.643   7.782  2.6591 -0.4083  2.1963
 2927TIP3   OH230339   0.478   0.852   1.626  0.3367 -0.3867  0.5382
 2927TIP3    H130340   0.572   0.832   1.621  0.2582 -0.4830 -0.8060
 2927TIP3    H230341   0.452   0.869   1.535 -1.0566 -0.8362  0.8355
 2928TIP3   OH230342   4.773   2.992   8.693  0.3410  0.3090  0.0611
 2928TIP3    H130343   4.814   2.911   8.724 -0.8331 -0.8711 -1.3363
 2928TIP3    H230344   4.833   3.061   8.720  1.6658 -1.0700  0.7951
 2929TIP3   OH230345   6.510   6.671   2.341  0.0272 -0.2680  0.0173
 2929TIP3    H130346   6.464   6.733   2.398 -1.0356 -1.2778  0.3052
 2929TIP3    H230347   6.528   6.721   2.261 -2.0020  0.0576 -0.2855
 2930TIP3   OH230348   5.799   2.367   2.443  0.0546 -0.1751  0.2497
 2930TIP3    H130349   5.802   2.450   2.396 -1.6073 -0.7520 -0.9967
 2930TIP3    H230350   5.798   2.300   2.374  2.9416 -1.3961  1.2125
 2931TIP3   OH230351   4.599   2.673   0.454  0.2843  0.0294 -0.4147
 2931TIP3    H130352   4.632   2.644   0.539  0.3274 -0.2699 -0.5285
 2931TIP3    H230353   4.555   2.756   0.471 -1.3376 -0.9221  0.2354
 2932TIP3   OH230354   4.606   4.966   6.809  0.6195  0.1206  0.3532
 2932TIP3    H130355   4.585   4.983   6.717 -1.8652 -0.6795  0.7067
 2932TIP3    H230356   4.562   5.036   6.857  1.7719  0.4407  1.0003
 2933TIP3   OH230357   1.704   4.876   8.092  0.1934 -0.4156  0.5961
 2933TIP3    H130358   1.627   4.820   8.090  0.1697 -0.3617 -0.2032
 2933TIP3    H230359   1.728   4.881   8.185  0.6028 -2.2724  0.6146
 2934TIP3   OH230360   2.749   6.690   8.377 -0.5219 -0.3367  0.0014
 2934TIP3    H130361   2.771   6.604   8.342  0.3906  0.0575 -0.4244
 2934TIP3    H230362   2.653   6.693   8.374 -0.4903 -0.2947 -2.5686
 2935TIP3   OH230363   5.925   4.814   2.151  0.1936 -0.0755 -0.2670
 2935TIP3    H130364   5.950   4.776   2.236  0.9480 -2.0116 -1.2783
 2935TIP3    H230365   5.830   4.816   2.153  0.2005  1.0369  1.0508
 2936TIP3   OH230366   2.408   2.978   0.401  0.0938  0.2958  0.2036
 2936TIP3    H130367   2.319   3.002   0.374  0.3353  1.8895  0.7115
 2936TIP3    H230368   2.464   3.009   0.330  0.2249 -1.3487 -0.4601
 2937TIP3   OH230369   4.048   0.477   8.357  0.5324  0.1827  0.1062
 2937TIP3    H130370   3.979   0.526   8.312  0.4371 -0.9320 -1.0216
 2937TIP3    H230371   4.104   0.444   8.286  1.2732 -0.3043  0.9053
 2938TIP3   OH230372   1.244   4.753   8.143 -0.1101  0.3161  0.1336
 2938TIP3    H130373   1.203   4.670   8.118 -0.7120  0.7929 -0.5128
 2938TIP3    H230374   1.200   4.777   8.225 -0.1774  0.1714  0.1411
 2939TIP3   OH230375   4.663   0.052   8.036 -0.0260 -0.0325 -0.6225
 2939TIP3    H130376   4.571   0.057   8.010 -0.2902  1.0350  0.4228
 2939TIP3    H230377   4.667  -0.022   8.097 -0.6973  1.2869  1.1068
 2940TIP3   OH230378   1.128   0.239   1.921 -0.6264 -0.6949 -0.0170
 2940TIP3    H130379   1.068   0.222   1.994 -1.1077  0.0629 -0.2240
 2940TIP3    H230380   1.156   0.329   1.934  0.1089 -0.8948 -0.1910
 2941TIP3   OH230381   3.814   5.185   0.711  0.2472 -0.3625  0.2839
 2941TIP3    H130382   3.839   5.093   0.701 -0.8699 -0.5593 -0.8713
 2941TIP3    H230383   3.782   5.211   0.625 -1.0235  0.6310  1.0244
 2942TIP3   OH230384   4.098   3.192   0.436 -0.0330  0.4467 -0.0326
 2942TIP3    H130385   4.054   3.188   0.351  1.0061  0.8403 -0.5932
 2942TIP3    H230386   4.033   3.232   0.494 -0.6999  0.3037 -0.6628
 2943TIP3   OH230387   3.015   0.401   0.692  0.1511  0.1947 -0.2826
 2943TIP3    H130388   2.928   0.408   0.732  0.3358 -0.9857  0.3816
 2943TIP3    H230389   3.009   0.454   0.613 -0.4795  1.9325  0.8811
 2944TIP3   OH230390   2.595   2.803   1.938  0.2318  0.1355 -0.5340
 2944TIP3    H130391   2.591   2.893   1.904 -4.4376  0.9911  1.4912
 2944TIP3    H230392   2.662   2.807   2.006 -1.5912  3.0126  1.3201
 2945TIP3   OH230393   5.804   1.747   8.234  0.6571 -0.4812  0.7685
 2945TIP3    H130394   5.796   1.734   8.329  0.6350 -2.2494  0.5554
 2945TIP3    H230395   5.889   1.709   8.212  1.6205  1.7822  0.3380
 2946TIP3   OH230396   2.786   5.121   2.155  0.0216  0.0129  0.2249
 2946TIP3    H130397   2.830   5.037   2.166 -2.1379 -1.5384 -1.9629
 2946TIP3    H230398   2.744   5.116   2.069 -1.7840  2.5794  0.8194
 2947TIP3   OH230399   6.706   4.874   0.114  0.3298 -0.0695  0.0273
 2947TIP3    H130400   6.689   4.789   0.074  0.0751  1.0149 -2.3471
 2947TIP3    H230401   6.625   4.924   0.101  0.1809  0.2993  2.1132
 2948TIP3   OH230402   5.298   4.557   7.558  0.1746 -0.4462 -0.0886
 2948TIP3    H130403   5.259   4.512   7.633  0.3939 -0.4733  0.0100
 2948TIP3    H230404   5.323   4.643   7.591 -0.0105 -0.3456 -0.2107
 2949TIP3   OH230405   0.352   3.883   7.893 -0.1466 -0.3072  0.0692
 2949TIP3    H130406   0.292   3.956   7.900 -0.3399 -0.2181 -1.9767
 2949TIP3    H230407   0.411   3.893   7.968 -0.4871  1.6261  0.1223
 2950TIP3   OH230408   1.416   6.590   2.132  0.2238 -0.0320  0.6405
 2950TIP3    H130409   1.372   6.538   2.065  0.0840  0.0945  0.6356
 2950TIP3    H230410   1.353   6.598   2.203  0.0822  0.5064  0.4589
 2951TIP3   OH230411   4.494   5.638   1.894 -0.0335 -0.0382  0.2510
 2951TIP3    H130412   4.500   5.622   1.800 -0.2289 -0.2527  0.2739
 2951TIP3    H230413   4.405   5.614   1.917  0.1779 -0.5215  0.5906
 2952TIP3   OH230414   5.857   6.798   1.977  0.2147 -0.4521  0.1756
 2952TIP3    H130415   5.807   6.724   1.942 -0.2139 -0.0043 -0.1639
 2952TIP3    H230416   5.845   6.868   1.913  0.7997 -0.1509  0.3838
 2953TIP3   OH230417   3.450   3.094   1.403  0.4419  0.5515  0.3026
 2953TIP3    H130418   3.358   3.122   1.395  0.4518  0.1633 -1.6608
 2953TIP3    H230419   3.485   3.101   1.315  1.9881 -0.4281  0.7984
 2954TIP3   OH230420   5.279   5.858   1.228  0.0263 -0.0267  0.0833
 2954TIP3    H130421   5.188   5.832   1.215 -0.2276  0.4651  0.8065
 2954TIP3    H230422   5.297   5.920   1.158 -0.8993  1.5649  1.2015
 2955TIP3   OH230423   5.643   5.442   1.276  0.4786  0.4742 -0.0014
 2955TIP3    H130424   5.579   5.513   1.265 -0.8376 -0.2790  2.2355
 2955TIP3    H230425   5.602   5.381   1.337  2.1798 -1.5189 -0.7251
 2956TIP3   OH230426   6.576   3.797   8.627  0.2913 -0.0048  0.5745
 2956TIP3    H130427   6.495   3.746   8.635  0.1002  0.3289  0.7876
 2956TIP3    H230428   6.610   3.803   8.716  0.5621 -0.1595  0.4826
 2957TIP3   OH230429   6.236   1.353   1.065  0.3303  0.2691  0.3869
 2957TIP3    H130430   6.295   1.389   1.131 -0.3000  2.7832 -0.3251
 2957TIP3    H230431   6.294   1.319   0.997  1.1029  3.1519 -0.5465
 2958TIP3   OH230432   4.405   2.478   1.650 -0.4162 -0.3068 -0.4319
 2958TIP3    H130433   4.329   2.460   1.595 -1.1011  0.8281  0.0887
 2958TIP3    H230434   4.450   2.394   1.658 -0.3544 -0.5373 -2.5942
 2959TIP3   OH230435   5.177   4.610   1.867 -0.1929  0.8444 -0.5686
 2959TIP3    H130436   5.211   4.671   1.933 -0.4419  0.5271 -0.1378
 2959TIP3    H230437   5.120   4.664   1.812  0.2422  1.1725 -0.7008
 2960TIP3   OH230438   6.201   5.905   8.089  0.0517 -0.7124 -0.1834
 2960TIP3    H130439   6.125   5.916   8.031 -0.2961 -1.1150  0.1873
 2960TIP3    H230440   6.274   5.888   8.029 -0.1214 -0.1879 -0.5514
 2961TIP3   OH230441   1.623   1.985   0.093 -0.2197  0.0270  0.0940
 2961TIP3    H130442   1.702   1.960   0.046 -0.3519 -1.8969  0.8145
 2961TIP3    H230443   1.571   1.905   0.097 -0.6661  0.3586  2.5962
 2962TIP3   OH230444   4.588   5.799   6.799 -0.0224 -0.0397  0.3170
 2962TIP3    H130445   4.620   5.852   6.872 -0.4462  0.8361 -0.1173
 2962TIP3    H230446   4.573   5.861   6.728  0.3733 -0.8754 -0.5240
 2963TIP3   OH230447   4.780   3.696   8.178  0.0841 -0.1305 -0.6545
 2963TIP3    H130448   4.772   3.662   8.267 -0.3142  0.8395 -0.2999
 2963TIP3    H230449   4.725   3.639   8.125 -2.4918  1.2532  0.3149
 2964TIP3   OH230450   2.767   4.247   8.149  0.6536 -0.4974 -0.0367
 2964TIP3    H130451   2.774   4.331   8.195 -1.0130 -0.2574 -0.1782
 2964TIP3    H230452   2.766   4.271   8.056  1.4802 -0.7949 -0.1332
 2965TIP3   OH230453   6.269   3.998   8.711 -0.7082  0.6046  0.0156
 2965TIP3    H130454   6.214   3.921   8.725  0.3551  0.0123  1.1563
 2965TIP3    H230455   6.284   4.000   8.617 -1.0709 -0.3662 -0.0782
 2966TIP3   OH230456   0.129   6.555   2.577 -0.0675 -0.0280 -0.3216
 2966TIP3    H130457   0.170   6.469   2.582  0.1742  0.1509  1.2305
 2966TIP3    H230458   0.185   6.611   2.631 -0.9045  0.8229 -0.3092
 2967TIP3   OH230459   5.867   2.586   0.182  0.0705 -0.2007 -0.3852
 2967TIP3    H130460   5.899   2.560   0.268  0.6636  0.6003 -0.3572
 2967TIP3    H230461   5.862   2.682   0.185 -0.4263 -0.1911 -1.0598
 2968TIP3   OH230462   4.290   4.940   7.510  0.4596 -0.4159  0.0937
 2968TIP3    H130463   4.231   5.015   7.498  0.8340 -0.3859 -1.8544
 2968TIP3    H230464   4.263   4.902   7.594 -1.5183  0.2995 -0.1542
 2969TIP3   OH230465   2.391   2.111   1.194 -0.0144 -0.2533  0.5557
 2969TIP3    H130466   2.345   2.149   1.119  0.8598  1.7289  0.9688
 2969TIP3    H230467   2.336   2.132   1.269 -0.2453 -1.1124  0.6383
 2970TIP3   OH230468   1.633   4.812   0.170 -0.3286 -0.2274  0.1933
 2970TIP3    H130469   1.714   4.796   0.121 -1.6156 -2.4401 -1.4340
 2970TIP3    H230470   1.634   4.748   0.241 -0.5750 -0.1768  0.2450
 2971TIP3   OH230471   5.933   0.491   2.323  0.7004  0.1240 -0.0321
 2971TIP3    H130472   5.915   0.539   2.242 -1.3123 -0.2604  0.1434
 2971TIP3    H230473   5.965   0.405   2.294  2.3156  0.7898 -0.3529
 2972TIP3   OH230474   6.180   5.807   2.141  0.0770  0.8080  0.0655
 2972TIP3    H130475   6.235   5.851   2.205 -1.1690 -0.6992  2.2760
 2972TIP3    H230476   6.242   5.754   2.089  0.8432 -0.4795  2.1785
 2973TIP3   OH230477   6.146   4.951   2.034  0.2634 -0.0347  0.0455
 2973TIP3    H130478   6.224   4.939   2.088  0.4149 -0.3028 -0.2281
 2973TIP3    H230479   6.074   4.919   2.088  0.6309 -2.0830 -0.5905
 2974TIP3   OH230480   1.027   5.582   0.910  0.1425 -0.3813 -0.0183
 2974TIP3    H130481   1.081   5.655   0.942 -0.7001  0.8702 -1.3689
 2974TIP3    H230482   1.060   5.506   0.958  1.7995  0.6809  0.6148
 2975TIP3   OH230483   2.079   2.571   0.721 -0.1430  0.2104 -0.2241
 2975TIP3    H130484   2.150   2.607   0.669 -1.5155 -0.2401 -2.5244
 2975TIP3    H230485   2.003   2.623   0.698 -1.3397 -1.6193 -0.6465
 2976TIP3   OH230486   6.513   0.594   8.213  0.1326  0.4003 -0.0831
 2976TIP3    H130487   6.518   0.506   8.250 -5.4785 -0.4154 -0.3028
 2976TIP3    H230488   6.534   0.583   8.120 -0.8764 -0.8834 -0.1903
 2977TIP3   OH230489   3.444   1.297   1.387  0.4795  0.1795  0.5089
 2977TIP3    H130490   3.352   1.323   1.390 -0.1222 -1.7190 -0.0731
 2977TIP3    H230491   3.490   1.366   1.436 -1.3783  0.5588  1.8326
 2978TIP3   OH230492   1.837   4.259   2.490 -0.5882 -0.2287 -0.6252
 2978TIP3    H130493   1.834   4.296   2.401 -1.7045  0.1096 -0.4657
 2978TIP3    H230494   1.802   4.170   2.480 -0.7447 -0.1792 -0.5212
 2979TIP3   OH230495   4.380   0.685   7.534 -0.4780 -0.3673  0.0764
 2979TIP3    H130496   4.288   0.664   7.544 -0.4611 -0.3721  0.2171
 2979TIP3    H230497   4.402   0.655   7.445 -0.3971 -1.1497  0.3563
 2980TIP3   OH230498   5.907   1.994   2.336  0.3638 -0.2580 -0.2635
 2980TIP3    H130499   5.874   1.920   2.387  0.6430 -1.3283 -1.5734
 2980TIP3    H230500   5.844   2.004   2.264  0.1465  1.0091  0.0697
 2981TIP3   OH230501   3.556   4.228   0.823  0.5816 -0.3350  0.0509
 2981TIP3    H130502   3.579   4.319   0.843 -0.7694  0.4050 -1.5074
 2981TIP3    H230503   3.469   4.216   0.861  1.0023 -1.2072  0.7856
 2982TIP3   OH230504   0.247   1.616   1.131  0.3330  0.5838 -0.9024
 2982TIP3    H130505   0.180   1.652   1.073 -0.5666  0.8831  0.3018
 2982TIP3    H230506   0.299   1.692   1.157 -0.9728  0.9306  0.8646
 2983TIP3   OH230507   2.015   6.096   0.952 -0.1000 -0.3872  0.1852
 2983TIP3    H130508   2.103   6.119   0.983  0.2547  0.9527 -1.6489
 2983TIP3    H230509   1.970   6.063   1.030  0.8146  2.4465  2.0674
 2984TIP3   OH230510   1.383   3.092   0.493  0.0668 -0.1126  0.0113
 2984TIP3    H130511   1.289   3.108   0.494 -0.1168 -0.8591 -1.9254
 2984TIP3    H230512   1.419   3.165   0.443  0.2270 -1.0310 -1.2571
 2985TIP3   OH230513   0.147   4.598   2.213 -0.0928  0.6600 -0.2288
 2985TIP3    H130514   0.215   4.665   2.220  0.6209 -0.1593  1.4196
 2985TIP3    H230515   0.078   4.629   2.272  1.4179 -1.2518  2.8337
 2986TIP3   OH230516   3.901   6.616   7.637  0.4206  0.6295 -0.5704
 2986TIP3    H130517   3.921   6.529   7.672  1.3544  1.0455 -0.0629
 2986TIP3    H230518   3.985   6.662   7.635  0.3490  0.7917 -2.9139
 2987TIP3   OH230519   3.052   1.544   2.231 -0.3593 -0.7849 -0.4142
 2987TIP3    H130520   2.965   1.582   2.237 -0.7635 -1.7098 -0.2940
 2987TIP3    H230521   3.076   1.552   2.139 -0.9039 -1.2317 -0.6005
 2988TIP3   OH230522   2.151   1.253   8.728 -0.2100 -0.1337 -0.3139
 2988TIP3    H130523   2.177   1.325   8.785  0.2993 -1.2471  0.9303
 2988TIP3    H230524   2.230   1.233   8.677 -0.9132  1.4312 -2.1128
 2989TIP3   OH230525   2.149   3.247   8.532  0.1537  0.4009 -0.5434
 2989TIP3    H130526   2.079   3.236   8.597  1.6191  0.1028  1.0506
 2989TIP3    H230527   2.103   3.272   8.452 -1.7464  0.6107  0.5454
 2990TIP3   OH230528   0.491   1.466   1.071  0.3129 -0.7286  0.4743
 2990TIP3    H130529   0.526   1.555   1.067 -0.7601 -0.2617  1.0181
 2990TIP3    H230530   0.467   1.454   1.163 -1.3639 -0.8483  0.0470
 2991TIP3   OH230531   0.274   4.119   0.582  0.1298  0.0357 -0.2004
 2991TIP3    H130532   0.336   4.048   0.562  0.9354  0.4844  0.6397
 2991TIP3    H230533   0.276   4.127   0.677 -0.3835  0.8148 -0.2489
 2992TIP3   OH230534   6.202   2.834   1.225 -0.0002 -0.1724  0.0717
 2992TIP3    H130535   6.149   2.754   1.222 -0.1648 -0.1365  1.4241
 2992TIP3    H230536   6.149   2.896   1.275 -0.3560  1.1922 -1.8957
 2993TIP3   OH230537   2.047   1.214   0.365 -0.4259  0.4291 -0.3286
 2993TIP3    H130538   2.040   1.211   0.269 -0.9255  0.8551 -0.3155
 2993TIP3    H230539   2.012   1.130   0.394  1.9440 -0.7313 -0.5963
 2994TIP3   OH230540   1.419   1.827   1.543  0.2201 -0.3003 -0.4176
 2994TIP3    H130541   1.456   1.767   1.609  1.6436 -1.9602 -2.5806
 2994TIP3    H230542   1.495   1.860   1.496 -0.6018  2.7548  0.2236
 2995TIP3   OH230543   5.291   2.430   0.856  0.2404  0.6387  0.0158
 2995TIP3    H130544   5.314   2.402   0.768 -0.8254 -0.3129  0.0128
 2995TIP3    H230545   5.297   2.525   0.854 -1.2288  0.7344 -1.5303
 2996TIP3   OH230546   6.723   2.742   8.731 -0.0506 -0.1381  0.7986
 2996TIP3    H130547   6.793   2.681   8.707  0.3008  0.5506  0.0399
 2996TIP3    H230548   6.737   2.819   8.675 -1.6588 -0.1469  0.3415
 2997TIP3   OH230549   6.793   5.612   7.632  0.3084  0.0926 -1.0107
 2997TIP3    H130550   6.856   5.665   7.583  0.6166  0.2169 -0.4925
 2997TIP3    H230551   6.817   5.625   7.724 -1.5307  1.4833 -0.6821
 2998TIP3   OH230552   5.466   5.479   2.105 -0.1492 -0.2579  0.2311
 2998TIP3    H130553   5.498   5.534   2.033 -1.0322  0.6594  0.5281
 2998TIP3    H230554   5.543   5.428   2.131  0.7424  0.9513  0.0681
 2999TIP3   OH230555   4.927   6.761   2.691  0.7812  0.5072 -0.0461
 2999TIP3    H130556   4.936   6.795   2.781  1.1838  1.1778 -0.3269
 2999TIP3    H230557   4.960   6.671   2.696 -0.1037  0.2106  0.6775
 3000TIP3   OH230558   1.285   5.244   1.923 -0.0019 -0.2235  0.5219
 3000TIP3    H130559   1.249   5.196   1.997  3.0434 -0.7630  1.8080
 3000TIP3    H230560   1.258   5.193   1.846 -0.6021 -1.4443  1.5039
 3001TIP3   OH230561   4.431   3.736   2.268  0.0159 -0.7806  0.3278
 3001TIP3    H130562   4.398   3.822   2.244  2.1908  0.0805  0.1385
 3001TIP3    H230563   4.426   3.685   2.187 -1.9260 -1.0964  0.6110
 3002TIP3   OH230564   2.451   5.455   7.962  0.3156  0.1054  0.0425
 3002TIP3    H130565   2.434   5.496   7.878 -0.0813  2.1180  1.0352
 3002TIP3    H230566   2.430   5.363   7.949 -1.8600  0.7497 -1.4612
 3003TIP3   OH230567   3.420   1.447   7.496 -0.0309 -0.1033  0.7429
 3003TIP3    H130568   3.408   1.501   7.575 -0.1921 -1.5832  1.7800
 3003TIP3    H230569   3.514   1.425   7.497  0.3697  1.4139 -0.5544
 3004TIP3   OH230570   6.465   5.206   0.857 -0.0053  0.2248  0.0561
 3004TIP3    H130571   6.481   5.125   0.906 -2.0059 -0.1463  0.1971
 3004TIP3    H230572   6.543   5.218   0.804  1.0954 -0.8136  1.3601
 3005TIP3   OH230573   4.657   6.636   0.750 -0.0908  0.4990 -0.0172
 3005TIP3    H130574   4.690   6.698   0.685  0.7929  0.8574  0.7424
 3005TIP3    H230575   4.666   6.682   0.834  0.8201 -0.7209  0.5931
 3006TIP3   OH230576   1.350   2.271   1.266 -0.1215  0.8519 -0.0516
 3006TIP3    H130577   1.314   2.242   1.182 -0.8253  1.9448 -0.1541
 3006TIP3    H230578   1.275   2.272   1.325  0.1322  1.2116  0.2742
 3007TIP3   OH230579   1.797   2.925   0.962  0.3824  0.1199  0.4042
 3007TIP3    H130580   1.800   2.830   0.953 -0.5426  0.0779  0.4310
 3007TIP3    H230581   1.788   2.940   1.056  1.7757  0.2868  0.5307
 3008TIP3   OH230582   2.697   5.181   8.703  0.1317 -0.4163  0.0241
 3008TIP3    H130583   2.653   5.150   8.624  1.4446  1.1688 -1.4201
 3008TIP3    H230584   2.639   5.249   8.737 -0.0029 -0.4628 -0.1096
 3009TIP3   OH230585   0.675   3.672   8.504 -0.9882  0.1320  0.0374
 3009TIP3    H130586   0.635   3.659   8.590 -2.1394 -1.7212 -0.7253
 3009TIP3    H230587   0.694   3.766   8.500 -2.6851  0.5809  1.5460
 3010TIP3   OH230588   1.107   6.729   2.901  0.7435 -0.0336  0.6865
 3010TIP3    H130589   1.132   6.638   2.886  2.4602  0.4385  0.4135
 3010TIP3    H230590   1.034   6.744   2.840  0.4742 -1.1964  0.6959
 3011TIP3   OH230591   5.021   4.021   0.031 -0.0958  0.1051  0.4551
 3011TIP3    H130592   4.991   4.103  -0.009 -1.2508 -0.3034  0.4758
 3011TIP3    H230593   4.989   4.025   0.121  1.5303  0.5027  1.0623
 3012TIP3   OH230594   5.255   3.259   7.966 -0.2489 -0.0475 -0.3245
 3012TIP3    H130595   5.302   3.343   7.972  0.2936 -0.2543 -1.4882
 3012TIP3    H230596   5.194   3.261   8.040  2.2781 -0.2219  1.9370
 3013TIP3   OH230597   1.881   2.264   2.287 -0.1964 -0.2650  0.8271
 3013TIP3    H130598   1.875   2.353   2.321  0.6762 -1.0062  3.0995
 3013TIP3    H230599   1.834   2.267   2.204 -3.6426  1.4260  2.6192
 3014TIP3   OH230600   3.637   2.493   0.896 -0.4041  0.5249  0.5057
 3014TIP3    H130601   3.573   2.552   0.935  0.4927  1.3302  0.8138
 3014TIP3    H230602   3.716   2.507   0.947 -0.1448 -0.8974  0.5221
 3015TIP3   OH230603   1.056   2.428   3.148 -0.1257  0.2094  0.1785
 3015TIP3    H130604   1.041   2.465   3.061 -1.2341 -1.0067 -0.1788
 3015TIP3    H230605   1.096   2.343   3.132  1.5471  0.7956  0.9634
 3016TIP3   OH230606   2.607   2.470   0.629 -0.4001 -0.4521  0.2918
 3016TIP3    H130607   2.661   2.408   0.680  1.2954  1.1639  0.5921
 3016TIP3    H230608   2.553   2.414   0.573  0.6513 -2.2165  0.9325
 3017TIP3   OH230609   2.586   4.465   0.124  0.0477 -0.2176  0.3825
 3017TIP3    H130610   2.616   4.550   0.093  0.4750 -0.5259 -0.0714
 3017TIP3    H230611   2.554   4.481   0.213 -0.6804  0.5736 -0.0159
 3018TIP3   OH230612   5.345   3.057   7.806  0.1734 -0.3144  0.1096
 3018TIP3    H130613   5.365   3.133   7.859 -0.4656 -1.3464  1.9294
 3018TIP3    H230614   5.257   3.030   7.834  0.1571 -1.4044 -0.8704
 3019TIP3   OH230615   1.016   2.317   8.078 -0.5393  0.6964 -0.5077
 3019TIP3    H130616   1.068   2.243   8.109 -2.0964 -0.3003 -0.2209
 3019TIP3    H230617   1.052   2.335   7.991  0.2559 -0.0003 -0.3407
 3020TIP3   OH230618   4.518   3.549   2.450  0.1506  0.2902  1.1617
 3020TIP3    H130619   4.487   3.609   2.383 -0.1785  0.4926  1.4923
 3020TIP3    H230620   4.475   3.578   2.530 -0.6304 -0.8550  1.1826
 3021TIP3   OH230621   3.867   0.601   8.203 -0.3946  0.0338  0.4019
 3021TIP3    H130622   3.918   0.653   8.141 -0.5996 -1.1152 -0.7848
 3021TIP3    H230623   3.777   0.632   8.192 -0.1823  1.1217  1.5141
 3022TIP3   OH230624   0.115   4.483   2.864 -0.1605 -0.0787  0.5326
 3022TIP3    H130625   0.207   4.500   2.884 -0.1445 -0.1771  0.5451
 3022TIP3    H230626   0.096   4.401   2.909  0.8085 -2.1730 -2.5238
 3023TIP3   OH230627   3.141   2.092   1.093 -0.0301  0.2284 -0.3945
 3023TIP3    H130628   3.135   2.021   1.030  1.5135 -0.5965  0.3325
 3023TIP3    H230629   3.062   2.144   1.078 -1.1583 -1.5632 -1.0169
 3024TIP3   OH230630   1.796   2.812   0.315  0.1723  0.6461 -0.0152
 3024TIP3    H130631   1.730   2.745   0.328  1.1992  0.0879  3.1575
 3024TIP3    H230632   1.746   2.894   0.305 -1.1453  0.5043  3.8761
 3025TIP3   OH230633   3.523   5.981   1.416  0.3100 -0.6930  0.5198
 3025TIP3    H130634   3.532   5.891   1.445 -0.7218 -1.1832 -0.5888
 3025TIP3    H230635   3.571   5.985   1.333 -0.1759 -0.3888  0.2478
 3026TIP3   OH230636   5.331   5.672   2.403 -0.3470  0.0163 -0.2674
 3026TIP3    H130637   5.289   5.757   2.416  1.7323  1.3066 -1.3419
 3026TIP3    H230638   5.271   5.609   2.442 -3.0787  1.7244 -1.4220
 3027TIP3   OH230639   6.680   1.266   1.830 -0.6936 -0.0947  0.1591
 3027TIP3    H130640   6.617   1.197   1.848 -0.9792 -0.0311 -0.5719
 3027TIP3    H230641   6.732   1.233   1.757  1.5590 -1.0786  2.0607
 3028TIP3   OH230642   5.916   3.785   1.056 -0.3119 -0.0575  0.5442
 3028TIP3    H130643   5.954   3.832   0.981  0.7177 -1.1696  0.3353
 3028TIP3    H230644   5.968   3.814   1.131  1.1953 -1.7373  0.2273
 3029TIP3   OH230645   1.538   4.369   0.703  0.3792  0.2392  0.5314
 3029TIP3    H130646   1.594   4.358   0.626 -0.3684 -2.2193  0.2575
 3029TIP3    H230647   1.599   4.368   0.777  0.7716 -2.1547  0.2300
 3030TIP3   OH230648   5.680   0.427   7.508 -0.0753 -0.0856 -0.3226
 3030TIP3    H130649   5.588   0.443   7.528  0.5038  3.4438  0.0852
 3030TIP3    H230650   5.714   0.383   7.586 -0.7189  1.7033  1.0198
 3031TIP3   OH230651   4.477   0.918   1.727  0.2262 -0.2620  0.3661
 3031TIP3    H130652   4.418   0.952   1.794  0.7899  0.2513  0.6071
 3031TIP3    H230653   4.565   0.928   1.764  0.5810  0.3575 -0.5841
 3032TIP3   OH230654   5.770   6.520   0.948  0.2219 -0.1532  0.2112
 3032TIP3    H130655   5.767   6.552   1.038  1.0016  3.0461 -0.7549
 3032TIP3    H230656   5.862   6.495   0.935  1.1041  3.0597 -0.6678
 3033TIP3   OH230657   0.086   5.218   0.493 -0.5806 -0.2930 -0.0685
 3033TIP3    H130658   0.026   5.292   0.498  0.6473  0.6993  0.7167
 3033TIP3    H230659   0.057   5.168   0.417 -1.6896  0.7625 -0.3679
 3034TIP3   OH230660   1.700   1.840   0.709  0.2304  0.3197  0.5506
 3034TIP3    H130661   1.656   1.848   0.793  0.4156  0.5649  0.6254
 3034TIP3    H230662   1.662   1.762   0.669  0.8781 -0.4039  1.3086
 3035TIP3   OH230663   2.278   3.984   2.050  0.2415  0.4212 -0.2379
 3035TIP3    H130664   2.313   4.064   2.011  0.9188 -0.0155 -0.5630
 3035TIP3    H230665   2.352   3.923   2.049 -0.7688 -0.8922 -1.9241
 3036TIP3   OH230666   0.582   0.287   7.648 -0.1087  0.1034 -0.2181
 3036TIP3    H130667   0.637   0.220   7.608  2.2726  0.4647  2.1540
 3036TIP3    H230668   0.569   0.352   7.579  0.6001 -1.0695 -1.4974
 3037TIP3   OH230669   5.282   5.627   8.148  0.0875  0.3080 -0.5648
 3037TIP3    H130670   5.290   5.665   8.236  0.8177 -0.0944 -0.4433
 3037TIP3    H230671   5.247   5.539   8.164  0.9579 -0.0495 -0.6065
 3038TIP3   OH230672   2.642   3.892   0.600 -0.1267 -0.0805 -0.1130
 3038TIP3    H130673   2.621   3.858   0.687 -0.4317 -1.2775 -0.6366
 3038TIP3    H230674   2.601   3.979   0.598 -0.5745 -0.2598  0.7382
 3039TIP3   OH230675   3.249   1.010   2.699  0.1665 -0.4098  0.0154
 3039TIP3    H130676   3.155   1.030   2.707  1.0024  5.0397  0.3507
 3039TIP3    H230677   3.288   1.049   2.777  2.9555  0.4160 -1.6650
 3040TIP3   OH230678   0.451   6.008   0.547 -0.2455 -0.8467 -0.5237
 3040TIP3    H130679   0.488   6.001   0.459 -0.4824  0.7612 -0.7870
 3040TIP3    H230680   0.389   5.935   0.554  0.1590 -1.2909 -1.4838
 3041TIP3   OH230681   0.079   4.841   1.653  0.0081  0.2958  0.1520
 3041TIP3    H130682   0.080   4.761   1.601  0.6410 -0.5468  1.4040
 3041TIP3    H230683   0.068   4.911   1.589  0.3886 -0.7187 -1.0671
 3042TIP3   OH230684   2.600   2.312   1.595 -0.0248 -0.0673  0.3190
 3042TIP3    H130685   2.615   2.320   1.690  0.6678  1.2989  0.1166
 3042TIP3    H230686   2.553   2.392   1.571  2.2264  0.9628 -0.9247
 3043TIP3   OH230687   4.192   1.741   0.334  0.1514 -0.0458  0.0241
 3043TIP3    H130688   4.250   1.669   0.358  0.2397  0.0508  0.0961
 3043TIP3    H230689   4.177   1.789   0.415  0.6858  0.4492 -0.1691
 3044TIP3   OH230690   3.541   5.810   1.850  0.6722 -0.3682  0.7483
 3044TIP3    H130691   3.603   5.862   1.799 -1.9082  0.5046 -1.7971
 3044TIP3    H230692   3.537   5.853   1.935  1.3173  1.4450 -0.0807
 3045TIP3   OH230693   4.109   4.571   8.751  0.3369  0.4758  0.3445
 3045TIP3    H130694   4.058   4.538   8.825 -0.8433 -2.1551 -1.4710
 3045TIP3    H230695   4.171   4.501   8.732 -0.4862  0.3271 -2.1070
 3046TIP3   OH230696   6.108   6.194   0.301  0.0664 -0.3752  0.5635
 3046TIP3    H130697   6.061   6.111   0.295 -1.8551  0.6877 -3.5178
 3046TIP3    H230698   6.041   6.257   0.329 -0.0774  0.5372 -1.5948
 3047TIP3   OH230699   0.037   1.339   0.709  0.1828 -0.5153  0.1131
 3047TIP3    H130700   0.096   1.378   0.646  0.3251  0.2952  0.7349
 3047TIP3    H230701   0.019   1.251   0.675  0.6833 -0.2824 -0.7566
 3048TIP3   OH230702   2.350   5.770   1.057  0.9215 -0.2016  0.3436
 3048TIP3    H130703   2.432   5.778   1.104  2.3819 -1.4261 -1.8058
 3048TIP3    H230704   2.335   5.858   1.021  1.3404  0.0095  0.6721
 3049TIP3   OH230705   4.971   3.212   0.949 -0.1277 -0.8440 -0.8873
 3049TIP3    H130706   4.968   3.246   0.860  0.4455  0.2724 -0.5016
 3049TIP3    H230707   4.950   3.288   1.004  1.8317 -0.9154  0.0445
 3050TIP3   OH230708   5.782   6.152   8.200  0.2145 -0.6543  0.2866
 3050TIP3    H130709   5.732   6.075   8.175 -1.9682  0.6286  0.4770
 3050TIP3    H230710   5.814   6.188   8.117 -0.4512 -0.6641  0.0223
 3051TIP3   OH230711   0.514   1.985   3.129  0.4894  0.2081  0.0080
 3051TIP3    H130712   0.438   2.010   3.182  0.1232  0.4073 -0.6029
 3051TIP3    H230713   0.479   1.975   3.041  0.7651 -1.7825  0.0945
 3052TIP3   OH230714   4.543   1.799   0.477 -0.2485 -0.0877  0.0778
 3052TIP3    H130715   4.497   1.716   0.469  0.1857 -0.3673  0.4259
 3052TIP3    H230716   4.492   1.860   0.424 -0.4222 -0.6349 -0.3921
 3053TIP3   OH230717   5.202   4.573   6.955  0.4631  0.3594  0.0471
 3053TIP3    H130718   5.132   4.622   6.914  0.5760 -0.0741 -0.6904
 3053TIP3    H230719   5.172   4.482   6.952  1.2448  0.1141 -0.6945
 3054TIP3   OH230720   1.399   0.741   2.961  0.1123 -0.1870  0.2969
 3054TIP3    H130721   1.490   0.756   2.933 -0.0050 -0.5235 -0.2856
 3054TIP3    H230722   1.352   0.819   2.933  0.0187 -0.4715 -0.3563
 3055TIP3   OH230723   0.190   1.936   0.720 -0.3113  0.5005  0.0876
 3055TIP3    H130724   0.210   1.950   0.627 -0.7653  0.8151  0.0322
 3055TIP3    H230725   0.202   2.022   0.760 -1.0126  0.5806  0.1464
 3056TIP3   OH230726   1.545   1.618   1.727 -0.8508  0.5624 -0.0930
 3056TIP3    H130727   1.609   1.644   1.661 -1.1369  0.4733 -0.4088
 3056TIP3    H230728   1.564   1.526   1.744  0.8399  1.2017  1.7933
 3057TIP3   OH230729   1.580   1.888   2.138  0.4723  0.3532 -0.3582
 3057TIP3    H130730   1.572   1.865   2.045  1.3676  0.1275 -0.3891
 3057TIP3    H230731   1.650   1.953   2.141  0.6539  0.1375  0.1946
 3058TIP3   OH230732   4.232   3.893   1.265 -0.5297  0.1976 -0.4515
 3058TIP3    H130733   4.166   3.842   1.310 -1.8383  2.6484  0.6050
 3058TIP3    H230734   4.260   3.958   1.329  0.2900  1.4725 -2.0240
 3059TIP3   OH230735   0.200   1.995   8.475  0.0110  0.3399 -0.2943
 3059TIP3    H130736   0.205   2.089   8.490  3.2608  0.4918 -1.5609
 3059TIP3    H230737   0.289   1.970   8.449 -1.2687 -2.6983 -2.2649
 3060TIP3   OH230738   3.878   3.330   0.524 -0.5115  0.0728  0.7013
 3060TIP3    H130739   3.813   3.391   0.559 -1.2572 -1.6447  2.5043
 3060TIP3    H230740   3.827   3.263   0.479  0.2940  0.6471 -1.2006
 3061TIP3   OH230741   2.337   2.095   7.497  0.2277 -0.0883 -0.5289
 3061TIP3    H130742   2.315   2.002   7.503 -0.2402  0.0914  1.7334
 3061TIP3    H230743   2.252   2.138   7.487  0.5199  0.0923 -2.6678
 3062TIP3   OH230744   0.087   3.842   0.588  0.4217 -0.5073 -0.3966
 3062TIP3    H130745   0.128   3.899   0.653  1.1024 -1.3071 -0.0999
 3062TIP3    H230746   0.053   3.901   0.521  0.7431  0.2594  0.1084
 3063TIP3   OH230747   0.374   6.143   7.867  0.4928 -0.5142  0.4299
 3063TIP3    H130748   0.418   6.199   7.803  0.8354 -1.7483 -0.4535
 3063TIP3    H230749   0.354   6.201   7.940 -1.3515  1.3331 -1.4219
 3064TIP3   OH230750   0.726   2.702   0.366  0.3820 -0.6184  0.1515
 3064TIP3    H130751   0.649   2.752   0.337 -0.6025 -1.4529  1.2062
 3064TIP3    H230752   0.800   2.760   0.350 -0.3057 -0.2546 -2.0308
 3065TIP3   OH230753   3.164   5.625   1.112 -0.8347  0.1205  0.1755
 3065TIP3    H130754   3.164   5.558   1.180 -0.6217 -1.8545 -1.6961
 3065TIP3    H230755   3.229   5.597   1.049  0.2956  2.8509 -0.0391
 3066TIP3   OH230756   6.783   2.995   2.852  0.1047  0.0777 -0.3021
 3066TIP3    H130757   6.717   2.989   2.922  1.0710 -0.7428  0.5634
 3066TIP3    H230758   6.835   3.071   2.875 -0.4763  0.6929 -0.9581
 3067TIP3   OH230759   0.116   5.234   2.340  0.3780  0.3878  0.2363
 3067TIP3    H130760   0.100   5.302   2.275 -0.4764 -0.1745 -0.1642
 3067TIP3    H230761   0.047   5.246   2.405  0.2808 -0.0362  0.2140
 3068TIP3   OH230762   5.261   0.155   2.770 -0.5699  0.0072  0.1856
 3068TIP3    H130763   5.300   0.176   2.855 -0.7111  1.5595 -0.1129
 3068TIP3    H230764   5.168   0.173   2.781 -0.6683 -0.2787 -0.1597
 3069TIP3   OH230765   0.377   0.467   1.690 -0.3221  0.1503 -0.3403
 3069TIP3    H130766   0.420   0.407   1.751 -1.1701  0.8382  0.9867
 3069TIP3    H230767   0.347   0.411   1.618 -0.8061 -0.9823  0.7130
 3070TIP3   OH230768   2.331   1.533   7.365  0.2876  0.3245  0.2947
 3070TIP3    H130769   2.411   1.582   7.348 -0.0509  0.7224 -0.1807
 3070TIP3    H230770   2.356   1.441   7.354  0.2955  0.5162 -1.5642
 3071TIP3   OH230771   5.682   4.716   0.632 -0.2772  0.3574  0.1538
 3071TIP3    H130772   5.664   4.717   0.538 -0.8395  0.5961  0.2564
 3071TIP3    H230773   5.657   4.628   0.660 -0.6147  0.4584  0.1717
 3072TIP3   OH230774   2.058   1.427   7.338 -0.2855  0.2245 -0.4654
 3072TIP3    H130775   2.134   1.484   7.350  0.9651 -1.5861  0.7879
 3072TIP3    H230776   2.088   1.358   7.279 -0.4955 -1.1970  0.9953
 3073TIP3   OH230777   4.054   0.693   2.054  0.6656  0.0624 -0.3422
 3073TIP3    H130778   3.990   0.757   2.085 -0.9330 -1.8552  0.5127
 3073TIP3    H230779   4.002   0.616   2.030  2.4717 -0.8319 -1.6952
 3074TIP3   OH230780   4.908   5.071   8.735 -0.6288  0.1926 -0.0180
 3074TIP3    H130781   4.840   5.055   8.670 -0.4355  0.8010 -0.3786
 3074TIP3    H230782   4.943   5.157   8.712  1.5438 -0.8891 -0.9863
 3075TIP3   OH230783   0.579   4.206   3.230 -0.0764  0.0288 -0.5214
 3075TIP3    H130784   0.570   4.189   3.136  1.9387  1.5146 -1.0707
 3075TIP3    H230785   0.500   4.252   3.254 -0.1883  0.5053 -1.7354
 3076TIP3   OH230786   1.817   3.387   2.366  0.7782  0.1389 -0.1756
 3076TIP3    H130787   1.763   3.452   2.411  1.7383 -0.6839  2.3805
 3076TIP3    H230788   1.772   3.372   2.283  0.5363  4.0193 -0.9410
 3077TIP3   OH230789   1.637   1.591   7.541 -0.0299 -0.0230 -0.1891
 3077TIP3    H130790   1.681   1.556   7.463  2.0186  0.5124  0.6494
 3077TIP3    H230791   1.617   1.682   7.518  1.7286  0.5264  0.2859
 3078TIP3   OH230792   1.424   0.184   2.314  0.1198 -0.2173  0.1479
 3078TIP3    H130793   1.437   0.127   2.238  1.0190 -0.2774  0.3400
 3078TIP3    H230794   1.368   0.132   2.372 -1.4189  0.2296 -0.8885
 3079TIP3   OH230795   1.197   0.469   1.677  0.4241 -0.4298  0.2153
 3079TIP3    H130796   1.176   0.479   1.770  1.6246  0.7145  0.3943
 3079TIP3    H230797   1.207   0.559   1.645 -3.4088 -0.5316 -1.9186
 3080TIP3   OH230798   3.796   4.582   2.348  0.4266 -0.0996  0.4110
 3080TIP3    H130799   3.737   4.597   2.421 -0.1218  1.4705 -0.3063
 3080TIP3    H230800   3.858   4.655   2.352  0.3981 -0.0020 -0.6603
 3081TIP3   OH230801   3.696   3.199   0.336  0.7597  0.1307 -0.3800
 3081TIP3    H130802   3.609   3.224   0.367  1.1322  0.5639  0.3496
 3081TIP3    H230803   3.682   3.116   0.289  0.0086  0.0428 -0.0177
 3082TIP3   OH230804   0.812   2.029   2.108  0.0874 -0.5460  0.0583
 3082TIP3    H130805   0.876   2.037   2.038  1.5228  0.6457  1.4212
 3082TIP3    H230806   0.853   1.971   2.172 -1.1128 -1.4568  0.0473
 3083TIP3   OH230807   4.985   1.039   8.669  0.8302  0.0217 -0.1039
 3083TIP3    H130808   4.897   1.059   8.637  0.2876 -0.6245  0.9335
 3083TIP3    H230809   5.044   1.070   8.599 -0.3377 -2.4925 -2.3909
 3084TIP3   OH230810   2.314   4.225   1.932  0.3298  0.1813  0.6385
 3084TIP3    H130811   2.408   4.233   1.950  0.3879  0.7069  0.1445
 3084TIP3    H230812   2.295   4.299   1.874 -0.5502  0.5289  1.3546
 3085TIP3   OH230813   6.805   6.393   0.439 -0.1285 -0.1326 -0.2731
 3085TIP3    H130814   6.875   6.441   0.395 -0.0901  1.2057  1.1813
 3085TIP3    H230815   6.732   6.455   0.444 -0.2246 -0.3263  1.2665
 3086TIP3   OH230816   2.018   5.352   2.786 -0.0716  0.5605  0.8188
 3086TIP3    H130817   2.077   5.377   2.858 -0.1316  1.2886  0.6166
 3086TIP3    H230818   1.970   5.277   2.821  1.8838 -0.9152  0.5331
 3087TIP3   OH230819   5.856   1.068   0.867  0.5213  0.0510  0.3658
 3087TIP3    H130820   5.906   1.101   0.942 -0.6947 -1.7560  2.0899
 3087TIP3    H230821   5.886   0.977   0.857 -0.6741 -0.3050 -0.1220
 3088TIP3   OH230822   3.292   6.595   2.543 -0.0359  0.8521 -0.4955
 3088TIP3    H130823   3.218   6.629   2.592 -0.3990  2.0917 -1.8289
 3088TIP3    H230824   3.314   6.512   2.586 -0.5076  1.7238  1.5283
 3089TIP3   OH230825   5.070   4.009   1.903  0.9092 -0.1676 -0.5849
 3089TIP3    H130826   5.066   4.100   1.934  1.2971 -0.8530  1.6236
 3089TIP3    H230827   5.090   4.017   1.809 -1.4094  2.0514 -1.0262
 3090TIP3   OH230828   1.211   4.868   8.774 -0.5985  0.6266  0.4632
 3090TIP3    H130829   1.272   4.827   8.835  0.2781  1.0388 -0.0905
 3090TIP3    H230830   1.124   4.846   8.806 -0.2046  2.1038  2.7324
 3091TIP3   OH230831   1.147   3.508   1.028 -0.5619 -0.6302  0.1557
 3091TIP3    H130832   1.111   3.439   0.972 -0.6147  0.3030 -1.0111
 3091TIP3    H230833   1.202   3.559   0.969  1.5982 -1.1918  1.5870
 3092TIP3   OH230834   4.886   4.771   0.003 -0.1680  0.4970 -0.0280
 3092TIP3    H130835   4.914   4.724  -0.076 -1.0831 -0.0969 -0.0132
 3092TIP3    H230836   4.938   4.851   0.004  0.6153  0.0055 -0.6614
 3093TIP3   OH230837   4.067   6.283   1.233 -0.5205 -0.1639 -0.2873
 3093TIP3    H130838   4.142   6.238   1.193 -0.8790 -0.8922 -0.1619
 3093TIP3    H230839   4.015   6.213   1.272 -1.1540  0.3564 -0.1745
 3094TIP3   OH230840   3.872   4.664   7.118 -0.6976  0.5207  0.5460
 3094TIP3    H130841   3.896   4.746   7.075  1.5266 -0.5876 -0.4925
 3094TIP3    H230842   3.833   4.611   7.049  2.2155 -0.9937 -0.0766
 3095TIP3   OH230843   4.148   5.505   8.199  0.4978  0.3424 -0.5958
 3095TIP3    H130844   4.111   5.441   8.139 -0.5844 -0.2200  0.6130
 3095TIP3    H230845   4.234   5.469   8.223  1.2999  0.9796 -2.3774
 3096TIP3   OH230846   3.238   2.844   2.511 -0.1050 -0.3201  0.0710
 3096TIP3    H130847   3.265   2.757   2.543  0.6621  0.5851  2.0473
 3096TIP3    H230848   3.197   2.886   2.587 -1.3415  0.7335 -1.1193
 3097TIP3   OH230849   1.997   1.285   1.849  0.4190  0.3279 -0.1391
 3097TIP3    H130850   2.067   1.332   1.894 -0.2731  0.5825  0.6735
 3097TIP3    H230851   1.918   1.336   1.865 -0.2354 -0.7638  0.2360
 3098TIP3   OH230852   4.663   5.726   8.643 -0.1206 -0.1949  0.0896
 3098TIP3    H130853   4.642   5.633   8.631 -0.0894 -0.1083 -0.6723
 3098TIP3    H230854   4.608   5.771   8.578  1.1381  0.1776 -0.7412
 3099TIP3   OH230855   1.959   4.432   7.378  0.0504 -0.1469  0.7829
 3099TIP3    H130856   2.033   4.400   7.326 -0.4377  0.6974 -0.4836
 3099TIP3    H230857   1.924   4.354   7.421  0.8952 -0.7623  0.3755
 3100TIP3   OH230858   2.153   1.470   2.709  0.2875  0.4447  0.4602
 3100TIP3    H130859   2.089   1.532   2.745  0.1681 -0.3501  1.6765
 3100TIP3    H230860   2.237   1.516   2.712  0.4631  0.0683  2.7699
 3101TIP3   OH230861   4.987   0.328   8.588  0.0043  0.0002  0.1221
 3101TIP3    H130862   4.977   0.271   8.664 -2.4188  0.4906  0.2728
 3101TIP3    H230863   4.983   0.416   8.623 -0.5222  0.2303 -0.4891
 3102TIP3   OH230864   3.861   5.790   8.108  0.4507 -0.1552 -0.5929
 3102TIP3    H130865   3.778   5.763   8.070  1.5244 -1.5550 -2.1096
 3102TIP3    H230866   3.927   5.736   8.064  2.1750  0.8554  0.5797
 3103TIP3   OH230867   6.276   1.464   8.136 -0.5324 -0.1412 -0.0832
 3103TIP3    H130868   6.283   1.516   8.215  0.0292 -0.3365 -0.0010
 3103TIP3    H230869   6.295   1.525   8.065  1.7563 -0.5635  0.1061
 3104TIP3   OH230870   6.043   4.977   3.071 -0.3718 -0.1814  0.5326
 3104TIP3    H130871   5.955   4.946   3.093 -0.3135 -3.3374 -2.6773
 3104TIP3    H230872   6.034   5.012   2.982  1.3363  0.8613  0.7438
 3105TIP3   OH230873   4.912   5.132   2.684 -0.1514 -0.3912  0.2515
 3105TIP3    H130874   4.906   5.144   2.589  0.4796  1.5567  0.3926
 3105TIP3    H230875   4.913   5.038   2.697 -1.7659 -0.7211 -1.5591
 3106TIP3   OH230876   3.362   2.269   8.645 -0.2137  0.6573 -0.1195
 3106TIP3    H130877   3.411   2.231   8.572 -0.7228  0.6709 -0.4767
 3106TIP3    H230878   3.333   2.194   8.696 -0.9646  0.5572 -0.6610
 3107TIP3   OH230879   5.442   2.564   1.461 -0.0264  0.1991 -0.3337
 3107TIP3    H130880   5.455   2.479   1.503  1.0699  0.9647  0.9397
 3107TIP3    H230881   5.445   2.545   1.367 -0.2086 -1.2183 -0.0674
 3108TIP3   OH230882   6.140   2.695   0.362  0.2137  0.0851 -0.4158
 3108TIP3    H130883   6.183   2.758   0.305  0.9503 -1.2468 -1.3903
 3108TIP3    H230884   6.203   2.623   0.371  0.3794  0.5058  2.6083
 3109TIP3   OH230885   2.879   0.793   0.109  1.0792 -0.3555 -0.6088
 3109TIP3    H130886   2.811   0.858   0.095  0.3003 -0.7225  1.2302
 3109TIP3    H230887   2.949   0.841   0.154  1.7758 -0.1637 -1.8158
 3110TIP3   OH230888   4.615   3.764   2.979  0.4686  0.6782 -0.4740
 3110TIP3    H130889   4.622   3.702   3.052 -0.7638  0.3402 -0.6139
 3110TIP3    H230890   4.673   3.836   3.003  0.4313  0.3575  0.6227
 3111TIP3   OH230891   3.077   1.355   2.539  0.1818 -0.0773 -0.3329
 3111TIP3    H130892   3.028   1.336   2.620 -0.0015 -2.1497 -0.8773
 3111TIP3    H230893   3.012   1.344   2.469  1.2109 -2.2610 -1.0242
 3112TIP3   OH230894   0.596   4.047   8.482 -0.0495  0.9603 -0.1330
 3112TIP3    H130895   0.522   4.004   8.439  2.4279 -3.0395 -0.8943
 3112TIP3    H230896   0.571   4.052   8.574 -1.0143 -1.1010 -0.2345
 3113TIP3   OH230897   0.913   3.267   1.357  0.2490  0.0677  0.1860
 3113TIP3    H130898   1.009   3.268   1.352  0.2567 -2.2306 -2.0878
 3113TIP3    H230899   0.890   3.354   1.389  3.0235  1.4737 -1.2775
 3114TIP3   OH230900   0.327   1.889   1.144 -0.4075 -0.1158 -0.1006
 3114TIP3    H130901   0.288   1.963   1.191  0.3804 -0.0455  0.4604
 3114TIP3    H230902   0.357   1.927   1.061  0.2003  0.2454  0.2804
 3115TIP3   OH230903   0.011   1.836   0.981  0.5808 -0.5645  0.0304
 3115TIP3    H130904  -0.004   1.884   0.900  0.8496 -2.1553 -0.9844
 3115TIP3    H230905   0.011   1.904   1.049 -1.0953  0.6291 -1.0976
 3116TIP3   OH230906   4.365   0.329   1.222 -0.3578 -0.0235  0.4932
 3116TIP3    H130907   4.369   0.422   1.243  1.6179  0.2094 -0.6825
 3116TIP3    H230908   4.412   0.321   1.138  0.4442 -2.1954  1.0833
 3117TIP3   OH230909   4.187   3.598   2.091  0.3008  0.0780 -0.0539
 3117TIP3    H130910   4.110   3.642   2.055 -0.5910  0.6139  2.3728
 3117TIP3    H230911   4.223   3.549   2.016 -0.3551  2.5189 -2.1304
 3118TIP3   OH230912   6.138   6.008   0.623 -0.1357 -0.3070  0.2976
 3118TIP3    H130913   6.106   6.042   0.540  1.2384  0.5186  0.0855
 3118TIP3    H230914   6.218   6.058   0.641 -1.0348  0.4193  2.7184
 3119TIP3   OH230915   2.800   1.676   0.349 -0.1763  0.4380  0.3569
 3119TIP3    H130916   2.762   1.752   0.392 -0.0189  1.1580 -0.7248
 3119TIP3    H230917   2.802   1.700   0.256 -1.2531 -1.3422 -0.1924
 3120TIP3   OH230918   3.833   3.032   0.807  0.0008  0.2963 -0.0907
 3120TIP3    H130919   3.927   3.018   0.821  0.1991  1.0283 -0.6575
 3120TIP3    H230920   3.825   3.126   0.789 -1.1305  0.7461  2.3113
 3121TIP3   OH230921   3.768   4.301   0.086  0.4907 -0.3184  0.6310
 3121TIP3    H130922   3.742   4.369   0.024  3.3815 -0.0957 -0.4802
 3121TIP3    H230923   3.851   4.332   0.123  1.3315 -2.6802  0.9328
 3122TIP3   OH230924   1.603   6.515   8.770  0.1040 -0.1943  0.0045
 3122TIP3    H130925   1.619   6.605   8.798 -0.9023 -0.0987  0.3063
 3122TIP3    H230926   1.556   6.475   8.843  3.6488 -2.0983  1.5332
 3123TIP3   OH230927   3.819   0.613   0.368 -0.1124 -0.1808 -0.1941
 3123TIP3    H130928   3.884   0.682   0.378 -0.9883  0.9666 -1.8595
 3123TIP3    H230929   3.865   0.533   0.391  1.7905  0.6230 -0.9828
 3124TIP3   OH230930   1.250   3.386   7.828 -0.1537  0.2767 -0.4220
 3124TIP3    H130931   1.195   3.433   7.766 -0.1919 -0.1004 -0.6808
 3124TIP3    H230932   1.246   3.438   7.908 -0.7347  0.3544 -0.4960
 3125TIP3   OH230933   3.503   2.905   0.667  0.1627 -0.8311 -0.1541
 3125TIP3    H130934   3.449   2.971   0.710 -1.3644 -1.6693 -0.7135
 3125TIP3    H230935   3.577   2.954   0.631  0.4185  0.1814  1.6320
 3126TIP3   OH230936   6.558   4.831   8.172 -0.6055  0.2786  0.0752
 3126TIP3    H130937   6.619   4.759   8.161 -0.9611 -0.1311  0.7657
 3126TIP3    H230938   6.551   4.844   8.266 -0.3124  1.4215 -0.0424
 3127TIP3   OH230939   4.797   3.500   2.554  0.1574  0.4131 -0.1310
 3127TIP3    H130940   4.796   3.531   2.644 -0.1721  1.5033 -0.4971
 3127TIP3    H230941   4.712   3.525   2.519  0.5044  0.5207 -0.9157
 3128TIP3   OH230942   0.696   6.470   0.217 -0.4209  0.2430  0.4406
 3128TIP3    H130943   0.710   6.548   0.163  2.8338 -0.4233  0.1239
 3128TIP3    H230944   0.681   6.505   0.305 -0.5127  1.2591  0.0390
 3129TIP3   OH230945   3.360   6.379   2.710  0.7651  0.0382  0.4401
 3129TIP3    H130946   3.403   6.456   2.747  2.3004 -0.7093  0.2808
 3129TIP3    H230947   3.392   6.306   2.763  0.2745 -0.6278 -0.1644
 3130TIP3   OH230948   5.910   5.449   0.626 -0.1507 -0.5442 -0.0451
 3130TIP3    H130949   5.960   5.390   0.570 -2.0657  0.2709 -2.7711
 3130TIP3    H230950   5.968   5.523   0.641  0.8886 -1.3925  0.2521
 3131TIP3   OH230951   6.114   4.155   1.167  0.1548  0.0044  0.6904
 3131TIP3    H130952   6.028   4.194   1.183 -0.3000 -0.4788 -0.4607
 3131TIP3    H230953   6.165   4.225   1.126  0.0128  0.0144  0.5304
 3132TIP3   OH230954   5.764   5.454   0.952 -0.3359 -0.4113 -0.4121
 3132TIP3    H130955   5.692   5.466   0.891 -1.1459  0.0428  0.6036
 3132TIP3    H230956   5.753   5.365   0.986 -0.7968 -0.1232  0.2070
 3133TIP3   OH230957   0.498   2.830   8.596  0.0979  0.2885  0.1639
 3133TIP3    H130958   0.525   2.741   8.618 -1.9055 -0.3887  0.1514
 3133TIP3    H230959   0.410   2.839   8.635 -0.5565  1.5678 -1.4617
 3134TIP3   OH230960   0.040   3.720   0.946 -0.3147  0.0804  0.4464
 3134TIP3    H130961  -0.028   3.697   1.008  0.3681 -0.6070  0.9671
 3134TIP3    H230962   0.019   3.669   0.867  0.0856 -0.8482  0.9195
 3135TIP3   OH230963   1.812   6.535   1.115  0.2066 -0.0797 -0.2340
 3135TIP3    H130964   1.832   6.447   1.146  0.2050 -0.1313 -0.3790
 3135TIP3    H230965   1.800   6.587   1.195 -1.6081 -0.5968 -0.1288
 3136TIP3   OH230966   1.029   2.199   7.111  0.3688 -0.2221 -0.0956
 3136TIP3    H130967   0.988   2.112   7.120  1.5047 -0.7508  0.1238
 3136TIP3    H230968   0.956   2.257   7.089 -0.5789 -1.0632  0.6635
 3137TIP3   OH230969   0.326   5.357   2.619  0.0136  0.2728  0.8550
 3137TIP3    H130970   0.380   5.391   2.690  2.0413 -0.0992 -0.4375
 3137TIP3    H230971   0.351   5.265   2.612 -0.9967  0.0217  0.3763
 3138TIP3   OH230972   6.508   1.792   0.114 -0.4455  0.2204  0.7257
 3138TIP3    H130973   6.555   1.769   0.034 -1.7685 -0.4084  0.0984
 3138TIP3    H230974   6.423   1.825   0.084 -1.1213 -0.3916  1.8637
 3139TIP3   OH230975   2.891   2.555   0.270 -0.4525 -0.0928 -0.0408
 3139TIP3    H130976   2.872   2.527   0.180 -0.6109  1.4764 -0.5182
 3139TIP3    H230977   2.924   2.644   0.261  1.2916 -0.5564  1.3236
 3140TIP3   OH230978   5.070   5.258   1.702 -0.3574  0.6864  0.3947
 3140TIP3    H130979   5.059   5.307   1.784 -0.0082  0.8132  0.3673
 3140TIP3    H230980   4.984   5.221   1.685 -0.2258 -0.0460  1.2647
 3141TIP3   OH230981   6.359   2.079   1.938  0.2629  0.3145 -0.3624
 3141TIP3    H130982   6.272   2.046   1.915  0.8346 -0.4330 -1.5285
 3141TIP3    H230983   6.414   2.001   1.942  0.6754  0.6547  1.4890
 3142TIP3   OH230984   3.906   1.694   2.361  0.1715 -0.0245 -0.0163
 3142TIP3    H130985   3.978   1.633   2.346  0.6567  0.2542  1.0393
 3142TIP3    H230986   3.872   1.669   2.448 -0.7620  0.0907 -0.3337
 3143TIP3   OH230987   6.579   1.342   0.785 -0.4376  0.2681 -0.1449
 3143TIP3    H130988   6.524   1.355   0.708 -0.8733 -1.0446 -0.0927
 3143TIP3    H230989   6.666   1.371   0.759 -0.7992  0.8072 -0.7764
 3144TIP3   OH230990   6.046   5.355   0.127  0.4301  0.1073 -0.0226
 3144TIP3    H130991   6.073   5.315   0.044 -1.2655  0.0707 -0.5961
 3144TIP3    H230992   5.951   5.340   0.131 -0.0578  2.7879  0.4326
 3145TIP3   OH230993   3.025   4.501   7.966  0.5168 -0.6233 -0.1922
 3145TIP3    H130994   3.007   4.582   8.015 -0.0445 -1.6544  1.4031
 3145TIP3    H230995   3.114   4.477   7.991  0.5709 -0.6574 -0.4188
 3146TIP3   OH230996   1.545   5.115   0.864  0.0205 -0.1497  0.1752
 3146TIP3    H130997   1.524   5.208   0.871 -2.0181 -0.3684 -1.8953
 3146TIP3    H230998   1.633   5.107   0.901  0.0974  2.5078  0.7399
 3147TIP3   OH230999   0.476   4.933   0.922 -0.3538 -0.1747  0.4358
 3147TIP3    H131000   0.523   5.017   0.922 -0.8696  0.1195  1.1010
 3147TIP3    H231001   0.404   4.946   0.861  0.1269 -0.4635 -0.2056
 3148TIP3   OH231002   0.862   3.963   1.125  0.0844 -0.0118  0.4484
 3148TIP3    H131003   0.839   3.871   1.140  0.6364 -0.3081 -0.4759
 3148TIP3    H231004   0.934   3.980   1.186 -0.0136 -0.1922  0.6158
 3149TIP3   OH231005   6.714   5.546   1.233  0.0345  0.1877  0.5936
 3149TIP3    H131006   6.795   5.495   1.246  0.9452  1.2910 -0.4537
 3149TIP3    H231007   6.709   5.558   1.138 -0.9032  0.8835  0.7231
 3150TIP3   OH231008   0.528   0.950   7.717 -0.1931  0.5369 -0.5781
 3150TIP3    H131009   0.562   0.885   7.779 -0.7992  1.6334  0.9547
 3150TIP3    H231010   0.457   0.905   7.672 -2.1220  0.7137  2.0473
 3151TIP3   OH231011   4.466   4.741   8.404 -0.2188  0.2924 -0.4954
 3151TIP3    H131012   4.399   4.784   8.458  0.1820 -0.6569  0.8390
 3151TIP3    H231013   4.543   4.738   8.461 -0.0641 -1.6005 -0.7388
 3152TIP3   OH231014   0.259   6.559   3.232 -0.8321 -0.0728  0.0667
 3152TIP3    H131015   0.303   6.546   3.148 -3.5805 -0.0606 -1.4823
 3152TIP3    H231016   0.291   6.489   3.288  0.7537 -0.3228 -1.0982
 3153TIP3   OH231017   2.874   3.936   7.534  0.0421  0.4561 -0.0842
 3153TIP3    H131018   2.946   3.985   7.495  1.2716 -1.1808  0.0631
 3153TIP3    H231019   2.847   3.874   7.466  0.7319 -0.9085  0.8468
 3154TIP3   OH231020   5.580   2.979   0.975  0.4372 -0.3720 -0.2344
 3154TIP3    H131021   5.607   3.033   0.901  0.8367  0.9997  0.8473
 3154TIP3    H231022   5.485   2.974   0.969  0.5779 -2.1189 -2.0119
 3155TIP3   OH231023   5.035   3.704   8.114 -0.1505  0.1854  0.6027
 3155TIP3    H131024   4.939   3.703   8.120 -0.2081 -0.5471 -0.2263
 3155TIP3    H231025   5.059   3.794   8.137 -1.2914  1.3809 -2.3798
 3156TIP3   OH231026   3.069   1.085   6.869  0.4594  0.4540 -0.0211
 3156TIP3    H131027   3.028   1.015   6.818  0.4756  0.0467  0.5060
 3156TIP3    H231028   3.020   1.164   6.846 -1.0789 -0.1254  1.0690
 3157TIP3   OH231029   2.880   1.647   7.930 -0.2985 -0.4287 -0.0282
 3157TIP3    H131030   2.918   1.655   7.843  1.0858 -0.8998  0.5020
 3157TIP3    H231031   2.955   1.654   7.990 -1.1150 -0.9023  1.0945
 3158TIP3   OH231032   1.411   3.855   1.577  0.2615  0.0459  0.2275
 3158TIP3    H131033   1.469   3.785   1.549 -1.4039 -1.2154 -0.2005
 3158TIP3    H231034   1.372   3.888   1.496  0.0364  0.5783  0.5425
 3159TIP3   OH231035   0.279   4.185   0.208  0.3885 -0.0927 -0.1367
 3159TIP3    H131036   0.198   4.139   0.184  0.1843 -0.5460  1.3472
 3159TIP3    H231037   0.325   4.196   0.125 -1.6096  1.0211 -1.1783
 3160TIP3   OH231038   5.876   2.385   7.691  0.1328 -0.0564  0.5397
 3160TIP3    H131039   5.969   2.405   7.702  0.0537 -0.1752  1.4662
 3160TIP3    H231040   5.862   2.391   7.596  0.8383  1.0076  0.4815
 3161TIP3   OH231041   1.472   5.634   1.985 -0.2178 -0.1335 -0.3761
 3161TIP3    H131042   1.466   5.555   2.038 -0.4549  0.0744 -0.0925
 3161TIP3    H231043   1.564   5.640   1.961 -0.0228  0.0414  0.4175
 3162TIP3   OH231044   0.932   2.544   8.575 -0.1804 -0.5046  0.1021
 3162TIP3    H131045   1.011   2.567   8.623 -1.0592 -2.0596  2.5298
 3162TIP3    H231046   0.962   2.483   8.507  0.7976 -0.4276  0.4486
 3163TIP3   OH231047   1.609   2.391   8.606 -0.8028  0.0417  0.0471
 3163TIP3    H131048   1.602   2.480   8.570 -2.0799 -0.4464 -0.9844
 3163TIP3    H231049   1.593   2.401   8.699  0.5320  1.0765  0.2028
 3164TIP3   OH231050   4.907   3.270   8.133  0.3128  0.2629  0.5937
 3164TIP3    H131051   4.968   3.203   8.101  1.2752  1.2235  0.3688
 3164TIP3    H231052   4.854   3.225   8.198  1.2168 -0.6170  0.7442
 3165TIP3   OH231053   1.916   1.148   0.124  0.4103 -0.1852  0.4678
 3165TIP3    H131054   1.894   1.058   0.101 -0.3853  0.1981 -0.3450
 3165TIP3    H231055   1.989   1.170   0.066  0.7624 -0.3770  0.8334
 3166TIP3   OH231056   4.453   2.127   7.968  0.4301 -0.0716  0.3367
 3166TIP3    H131057   4.541   2.096   7.986  0.8611 -0.3227 -1.9617
 3166TIP3    H231058   4.461   2.182   7.890 -1.6665 -1.5800 -1.0579
 3167TIP3   OH231059   1.842   1.337   0.778  0.0039  0.2523  0.0033
 3167TIP3    H131060   1.801   1.389   0.709  0.4945 -0.6853 -1.0172
 3167TIP3    H231061   1.921   1.300   0.737 -0.1859 -1.0639  0.7721
 3168TIP3   OH231062   6.270   0.845   0.990  0.3381 -0.5989  0.0726
 3168TIP3    H131063   6.253   0.921   0.935  0.2744  0.5833  1.6310
 3168TIP3    H231064   6.341   0.798   0.946 -0.3206 -0.2100 -1.4458
 3169TIP3   OH231065   2.780   2.861   2.121 -0.2382 -0.0031  0.5845
 3169TIP3    H131066   2.790   2.949   2.157 -0.2798  0.7301 -1.1076
 3169TIP3    H231067   2.729   2.814   2.187 -1.0291  1.5148  1.1063
 3170TIP3   OH231068   6.387   3.662   8.771  0.7617 -0.0355  0.3067
 3170TIP3    H131069   6.295   3.688   8.765  0.7602 -0.0203  0.3932
 3170TIP3    H231070   6.385   3.569   8.793  0.7640  0.2411  1.5475
 3171TIP3   OH231071   5.485   0.897   7.347 -0.2541 -0.1270  0.2289
 3171TIP3    H131072   5.533   0.898   7.264 -2.3968 -0.2696 -1.0769
 3171TIP3    H231073   5.466   0.989   7.365 -1.4508 -0.2122 -0.4925
 3172TIP3   OH231074   5.982   5.928   7.921 -0.1032  0.4889 -0.3138
 3172TIP3    H131075   5.957   6.006   7.871 -0.0469  0.9016  0.2929
 3172TIP3    H231076   5.907   5.869   7.913 -0.9156  1.3419  0.7306
 3173TIP3   OH231077   3.242   4.549   8.668 -0.0660 -0.6778 -0.0026
 3173TIP3    H131078   3.181   4.611   8.628  0.9346  0.7067  0.5419
 3173TIP3    H231079   3.195   4.466   8.667 -1.5875  0.1413 -0.4558
 3174TIP3   OH231080   0.438   2.251   0.077  0.0532 -0.6479 -0.3130
 3174TIP3    H131081   0.527   2.231   0.106 -0.4197 -0.8430  1.0873
 3174TIP3    H231082   0.409   2.171   0.033 -0.1474 -1.3826  1.0899
 3175TIP3   OH231083   5.269   0.504   1.602  0.2524 -0.4939  0.0869
 3175TIP3    H131084   5.228   0.567   1.661  0.5947  0.0257 -0.2246
 3175TIP3    H231085   5.199   0.444   1.578  0.0251 -0.4857  0.7274
 3176TIP3   OH231086   5.035   2.325   2.348 -0.9351 -0.2463  0.0968
 3176TIP3    H131087   5.023   2.249   2.405 -1.7477  0.2868  0.6582
 3176TIP3    H231088   5.053   2.397   2.408 -0.7176  0.1119 -0.3955
 3177TIP3   OH231089   4.737   5.137   8.504 -0.4205 -0.0185  0.4095
 3177TIP3    H131090   4.658   5.088   8.526 -0.1631 -0.7024 -0.1591
 3177TIP3    H231091   4.708   5.228   8.497 -1.0067 -0.1599  0.9443
 3178TIP3   OH231092   6.491   2.120   0.515 -0.1157  0.5611  1.0982
 3178TIP3    H131093   6.442   2.081   0.588  0.8331  0.7497  1.8471
 3178TIP3    H231094   6.512   2.046   0.459 -3.2101  0.7133 -0.4908
 3179TIP3   OH231095   0.885   3.231   2.274  0.6820  0.5428 -0.2390
 3179TIP3    H131096   0.948   3.174   2.230  0.0742  0.1145 -0.5710
 3179TIP3    H231097   0.902   3.217   2.368  2.3856  1.9148 -0.2877
 3180TIP3   OH231098   1.138   5.654   7.955 -0.4825 -0.6323 -0.1756
 3180TIP3    H131099   1.229   5.624   7.964 -0.7757 -1.7967 -0.7969
 3180TIP3    H231100   1.093   5.612   8.029 -0.8047 -1.3304 -0.7628
 3181TIP3   OH231101   6.543   5.999   1.803  0.3845  0.1777  0.4761
 3181TIP3    H131102   6.463   5.969   1.760  0.2989 -0.4090  1.0248
 3181TIP3    H231103   6.512   6.041   1.883  0.5868  0.5449  0.3632
 3182TIP3   OH231104   6.050   1.047   0.448 -0.3769  0.0001 -0.4425
 3182TIP3    H131105   6.083   0.986   0.382 -1.3452 -0.5727 -0.4094
 3182TIP3    H231106   6.101   1.028   0.527 -0.6377 -0.7403 -0.4465
 3183TIP3   OH231107   3.391   4.943   0.828  0.0115  0.1497 -0.0831
 3183TIP3    H131108   3.368   4.969   0.918 -0.5763 -0.0159 -0.1828
 3183TIP3    H231109   3.312   4.963   0.777  0.2920  0.0990 -0.5327
 3184TIP3   OH231110   2.920   6.524   1.678  0.2427 -0.0175  0.0187
 3184TIP3    H131111   2.842   6.479   1.711 -0.4943  1.7018  0.7391
 3184TIP3    H231112   2.943   6.586   1.747  2.1082 -0.2779 -0.3054
 3185TIP3   OH231113   4.766   0.598   8.227 -0.2072 -0.1076  0.1525
 3185TIP3    H131114   4.799   0.688   8.222  1.1306 -0.6037 -0.4600
 3185TIP3    H231115   4.818   0.551   8.162 -0.4049 -1.4711  0.9609
 3186TIP3   OH231116   0.080   3.539   8.081 -0.1723  0.1950 -0.5024
 3186TIP3    H131117   0.060   3.493   8.000 -0.0104 -0.1324 -0.3565
 3186TIP3    H231118   0.008   3.601   8.091 -1.7571 -1.7018  0.5714
 3187TIP3   OH231119   0.752   3.666   1.640 -0.7438 -0.5015 -0.1592
 3187TIP3    H131120   0.764   3.756   1.609  2.0386  0.1879  2.4975
 3187TIP3    H231121   0.671   3.669   1.692  0.2336  0.9565  1.3505
 3188TIP3   OH231122   4.653   0.291   1.405  0.1837  0.2106 -0.1239
 3188TIP3    H131123   4.699   0.300   1.488 -1.7723 -1.6467  1.2829
 3188TIP3    H231124   4.571   0.338   1.417 -0.8329 -1.4090 -0.3453
 3189TIP3   OH231125   0.921   5.275   8.293  0.0800  0.1443 -0.2293
 3189TIP3    H131126   0.924   5.199   8.234 -0.8307 -0.5994  0.6557
 3189TIP3    H231127   0.827   5.293   8.304  0.2301  0.2413  1.0188
 3190TIP3   OH231128   2.538   3.961   1.791 -0.3794  0.1113  0.0441
 3190TIP3    H131129   2.533   4.021   1.716  1.6658 -0.4209 -0.5827
 3190TIP3    H231130   2.449   3.957   1.824 -1.2390  0.8030 -2.0259
 3191TIP3   OH231131   4.112   5.153   0.563 -0.2709  0.2678 -0.6642
 3191TIP3    H131132   4.030   5.190   0.595  1.0607  1.1019  2.1651
 3191TIP3    H231133   4.159   5.128   0.643  1.5875 -1.6191 -2.2575
 3192TIP3   OH231134   6.693   4.861   3.052  0.1015  0.7614  0.6160
 3192TIP3    H131135   6.769   4.858   3.110  0.9838  1.3149 -0.4661
 3192TIP3    H231136   6.706   4.788   2.991 -1.3693 -0.4966  1.7308
 3193TIP3   OH231137   0.210   5.255   7.905  0.2150 -1.1677 -0.2497
 3193TIP3    H131138   0.233   5.325   7.966 -0.0854 -0.3259 -1.0981
 3193TIP3    H231139   0.286   5.196   7.908  0.6614 -0.5883  0.1349
 3194TIP3   OH231140   2.912   3.904   0.009  0.0127 -0.0693 -0.3939
 3194TIP3    H131141   2.878   3.970  -0.052 -1.5736 -1.3824 -0.9923
 3194TIP3    H231142   3.006   3.922   0.014  0.3235 -0.2179 -3.6479
 3195TIP3   OH231143   1.198   3.588   7.641  0.2399  0.4339 -0.5190
 3195TIP3    H131144   1.214   3.648   7.714 -0.2958  0.3138 -0.3008
 3195TIP3    H231145   1.260   3.616   7.574  0.9049  0.3992  0.0638
 3196TIP3   OH231146   3.123   6.311   2.561 -0.6840  0.2006 -0.4813
 3196TIP3    H131147   3.197   6.353   2.605  0.1429 -1.1237 -0.5753
 3196TIP3    H231148   3.063   6.287   2.631 -0.6648  0.5709 -0.3354
 3197TIP3   OH231149   3.675   4.168   7.593  0.4794  0.0567  0.1270
 3197TIP3    H131150   3.598   4.220   7.571 -0.0191 -0.8315 -0.2564
 3197TIP3    H231151   3.651   4.123   7.675  0.2412 -0.9066 -0.4603
 3198TIP3   OH231152   1.198   1.795   8.068  0.5170  0.9582 -0.1501
 3198TIP3    H131153   1.288   1.826   8.061  1.3764 -1.5644 -1.1463
 3198TIP3    H231154   1.161   1.809   7.981  1.2574 -1.5828 -0.9518
 3199TIP3   OH231155   3.692   3.061   8.547 -0.0465 -0.0212  0.8900
 3199TIP3    H131156   3.696   2.966   8.539 -0.2505  0.0722 -0.7615
 3199TIP3    H231157   3.618   3.086   8.492 -0.1440  1.0821  1.4943
 3200TIP3   OH231158   3.375   6.722   7.061 -0.2071  0.1285  0.6055
 3200TIP3    H131159   3.289   6.682   7.076 -0.4429 -1.3370 -3.4625
 3200TIP3    H231160   3.414   6.668   6.992  3.0998  2.0582  0.7953
 3201TIP3   OH231161   3.680   2.949   0.205 -0.3377  0.1561 -0.3567
 3201TIP3    H131162   3.615   2.879   0.216 -1.6588  0.9485 -2.3890
 3201TIP3    H231163   3.761   2.904   0.181 -1.2976 -0.7406 -2.1714
 3202TIP3   OH231164   1.760   1.784   8.191 -0.2940 -0.5707 -0.2487
 3202TIP3    H131165   1.784   1.692   8.179  0.6981 -0.2552 -0.7418
 3202TIP3    H231166   1.816   1.832   8.130  0.2069  0.4891  1.0071
 3203TIP3   OH231167   4.153   5.861   0.027  0.4757 -0.4636  0.2959
 3203TIP3    H131168   4.243   5.871  -0.001  0.1414  2.4704  0.0084
 3203TIP3    H231169   4.121   5.950   0.040 -2.2118 -1.4172  0.9729
 3204TIP3   OH231170   0.198   4.088   8.007  0.1072  0.4397  0.1281
 3204TIP3    H131171   0.127   4.109   8.067 -1.2639  0.3879 -1.3956
 3204TIP3    H231172   0.264   4.155   8.023  0.5429 -0.5121  2.7935
 3205TIP3   OH231173   3.840   0.959   2.596  0.3110  0.0339 -0.5373
 3205TIP3    H131174   3.889   0.930   2.673 -0.8230 -1.6205 -0.4040
 3205TIP3    H231175   3.798   1.041   2.623 -1.9191 -1.6489  1.4537
 3206TIP3   OH231176   6.758   4.829   0.974 -0.1040  0.0833  0.4715
 3206TIP3    H131177   6.748   4.791   0.887  1.4117  0.9365 -0.1211
 3206TIP3    H231178   6.680   4.883   0.986 -1.5280 -1.9217  0.7046
 3207TIP3   OH231179   5.809   0.708   1.124 -0.1082 -0.1623 -0.1484
 3207TIP3    H131180   5.713   0.703   1.117 -0.1171  1.0140 -1.2088
 3207TIP3    H231181   5.834   0.624   1.160 -1.1643 -2.4501 -4.1663
 3208TIP3   OH231182   0.798   1.779   8.038  0.8895 -0.6823  0.2356
 3208TIP3    H131183   0.768   1.695   8.001 -1.8575 -0.4672  1.7219
 3208TIP3    H231184   0.779   1.843   7.970  0.0683 -0.8730  0.2763
 3209TIP3   OH231185   1.669   5.756   1.763 -0.3241 -0.3648  0.2729
 3209TIP3    H131186   1.668   5.837   1.712 -3.2377 -0.4935 -0.0498
 3209TIP3    H231187   1.595   5.705   1.729 -0.4021 -1.8584  2.4620
 3210TIP3   OH231188   1.991   1.271   8.377 -0.0110 -0.0481 -0.3014
 3210TIP3    H131189   1.945   1.323   8.443 -1.0053 -2.1691  0.7762
 3210TIP3    H231190   2.000   1.330   8.302  0.9390  2.3745  1.5905
 3211TIP3   OH231191   3.686   5.030   6.993  0.1896 -0.2018  0.4584
 3211TIP3    H131192   3.691   5.101   6.928 -1.5698  1.4526  1.9988
 3211TIP3    H231193   3.618   5.059   7.054  0.1114 -2.7984  1.7244
 3212TIP3   OH231194   4.168   6.305   1.543 -0.3105  0.0755 -0.2198
 3212TIP3    H131195   4.109   6.287   1.470 -0.2821  2.7069 -0.9849
 3212TIP3    H231196   4.115   6.292   1.622 -0.6793 -1.5965 -0.6979
 3213TIP3   OH231197   4.874   2.556   1.430 -0.7027  0.1622  0.1901
 3213TIP3    H131198   4.840   2.494   1.495  1.6163 -1.5988 -0.1292
 3213TIP3    H231199   4.841   2.524   1.346 -1.2143  0.6379  0.2030
 3214TIP3   OH231200   0.903   4.248   2.657  0.1373  0.1697 -0.3904
 3214TIP3    H131201   0.840   4.185   2.622  0.5739 -0.3869 -0.2010
 3214TIP3    H231202   0.862   4.282   2.736  0.3214 -0.6451  0.0690
 3215TIP3   OH231203   5.970   3.378   8.452 -0.8752  0.0581  0.1532
 3215TIP3    H131204   5.946   3.287   8.470 -0.8156 -0.1984 -0.9926
 3215TIP3    H231205   5.979   3.417   8.538 -0.6694 -1.0837  0.6762
 3216TIP3   OH231206   1.504   3.520   2.811 -0.2319  0.3201 -0.1029
 3216TIP3    H131207   1.469   3.538   2.898  0.3172  0.9156  0.0011
 3216TIP3    H231208   1.482   3.597   2.759 -3.4023 -1.3066 -1.4363
 3217TIP3   OH231209   5.425   1.836   2.340 -0.2097  0.2726  0.0191
 3217TIP3    H131210   5.355   1.863   2.399 -2.1257 -0.1392 -1.9707
 3217TIP3    H231211   5.390   1.759   2.295  1.1340  0.6264 -1.7203
 3218TIP3   OH231212   5.101   2.007   0.458 -0.4559 -0.4421 -0.7160
 3218TIP3    H131213   5.086   2.085   0.404 -2.0188  0.5532  1.0477
 3218TIP3    H231214   5.103   1.935   0.395  0.8983  0.9410 -2.3889
 3219TIP3   OH231215   5.887   4.713   7.866  0.4997 -0.0430 -0.3055
 3219TIP3    H131216   5.925   4.634   7.904  1.4838  0.6606  0.1933
 3219TIP3    H231217   5.902   4.704   7.772  1.1478 -0.1778 -0.1934
 3220TIP3   OH231218   3.271   0.173   7.325  0.1182 -0.1767  0.0386
 3220TIP3    H131219   3.183   0.192   7.358  0.1888 -1.8718  1.3368
 3220TIP3    H231220   3.301   0.256   7.287 -1.6709  0.6801  0.4059
 3221TIP3   OH231221   0.283   3.726   0.212 -0.4610  0.1022  0.3618
 3221TIP3    H131222   0.249   3.652   0.163 -2.1827  1.5041 -0.6854
 3221TIP3    H231223   0.220   3.740   0.282  0.6448 -0.3129  1.4702
 3222TIP3   OH231224   6.554   5.657   3.008  0.3830 -0.1876 -0.1280
 3222TIP3    H131225   6.510   5.742   3.011  2.0756  0.6921  2.1442
 3222TIP3    H231226   6.540   5.619   3.095  0.3138 -1.9208 -0.8532
 3223TIP3   OH231227   2.733   0.236   1.073  0.3183 -0.1963  0.0953
 3223TIP3    H131228   2.805   0.195   1.023 -1.6471 -1.7719 -1.6373
 3223TIP3    H231229   2.669   0.260   1.006 -1.5507 -0.5162  1.6963
 3224TIP3   OH231230   6.536   0.305   7.666 -0.1955 -0.4945 -0.1941
 3224TIP3    H131231   6.505   0.237   7.607 -4.4121  1.5247 -0.6907
 3224TIP3    H231232   6.548   0.382   7.610  0.1828  0.3063  0.9414
 3225TIP3   OH231233   0.163   6.225   8.638  0.0628 -0.6105 -0.2176
 3225TIP3    H131234   0.141   6.289   8.570 -1.9830 -0.1349  0.7919
 3225TIP3    H231235   0.216   6.159   8.594  1.1504  1.1062 -1.5950
 3226TIP3   OH231236   6.134   3.458   0.285  0.1222  0.2982 -0.6868
 3226TIP3    H131237   6.137   3.553   0.298  0.7027  0.3371 -1.0808
 3226TIP3    H231238   6.119   3.449   0.190 -0.1420 -0.0068 -0.6169
 3227TIP3   OH231239   3.573   3.667   2.009 -0.2326  0.0099  0.0467
 3227TIP3    H131240   3.597   3.577   1.988 -0.1079 -0.5157  2.1891
 3227TIP3    H231241   3.633   3.721   1.957  1.3812 -1.1899  0.5918
 3228TIP3   OH231242   2.785   5.223   0.575  0.4996 -0.2182  0.2600
 3228TIP3    H131243   2.737   5.305   0.566 -0.2660 -0.7456 -0.4963
 3228TIP3    H231244   2.877   5.248   0.562  0.4031  0.6999  1.1801
 3229TIP3   OH231245   5.918   4.402   0.602  0.5384  0.1932 -0.0600
 3229TIP3    H131246   5.873   4.380   0.520 -2.4285  0.3460  1.3951
 3229TIP3    H231247   5.864   4.362   0.670  0.0830  4.0908  2.1600
 3230TIP3   OH231248   3.759   0.079   8.157  0.7987 -0.1217 -0.0479
 3230TIP3    H131249   3.751   0.166   8.197  0.5676 -0.0501 -0.2477
 3230TIP3    H231250   3.853   0.064   8.151  0.8724 -0.8189  2.0052
 3231TIP3   OH231251   6.802   2.325   2.494 -0.0898  0.1860  0.0250
 3231TIP3    H131252   6.818   2.337   2.588  1.5868  0.1847 -0.2218
 3231TIP3    H231253   6.845   2.242   2.474 -2.2695 -0.9228 -0.3676
 3232TIP3   OH231254   2.040   3.351   7.987 -0.7207 -0.3992  0.0667
 3232TIP3    H131255   2.019   3.442   7.965 -0.2535  0.0577  1.4573
 3232TIP3    H231256   2.037   3.348   8.082 -3.9703 -2.6108  0.0638
 3233TIP3   OH231257   1.390   1.820   2.981  0.1365  0.6086 -0.2124
 3233TIP3    H131258   1.361   1.815   3.072 -0.0371 -0.9788 -0.3119
 3233TIP3    H231259   1.331   1.883   2.940 -1.7081 -0.7785  0.1432
 3234TIP3   OH231260   5.750   4.774   7.575 -0.2719 -0.0710 -0.1872
 3234TIP3    H131261   5.702   4.751   7.655  1.1341 -0.4062  0.5974
 3234TIP3    H231262   5.839   4.740   7.590  0.9555  2.7166 -0.4998
 3235TIP3   OH231263   2.376   0.680   1.993  0.2227  0.0027  0.1043
 3235TIP3    H131264   2.302   0.726   2.031  0.1853  0.7434 -0.8262
 3235TIP3    H231265   2.453   0.724   2.030  0.1898  0.2661 -0.1381
 3236TIP3   OH231266   0.812   1.249   8.596  0.9890  0.1193  0.1887
 3236TIP3    H131267   0.767   1.245   8.512  1.3272  0.6231 -0.0208
 3236TIP3    H231268   0.744   1.230   8.661  0.9385 -1.3081 -0.2508
 3237TIP3   OH231269   3.320   6.775   1.180  0.5018  0.2196  1.2435
 3237TIP3    H131270   3.265   6.709   1.138  0.4466  0.4345  0.9724
 3237TIP3    H231271   3.258   6.833   1.224  0.5671 -0.0859  1.7448
 3238TIP3   OH231272   6.749   0.209   0.257  0.2975  0.5750  0.6432
 3238TIP3    H131273   6.808   0.230   0.185 -0.4548  2.4539  0.5280
 3238TIP3    H231274   6.670   0.176   0.214  1.0643 -1.6226  0.7867
 3239TIP3   OH231275   4.441   6.291   8.177 -0.1285  0.0838  0.3440
 3239TIP3    H131276   4.404   6.214   8.135 -0.1181  0.5479 -0.5628
 3239TIP3    H231277   4.486   6.258   8.254 -2.3004 -0.5098  1.4215
 3240TIP3   OH231278   2.249   2.447   7.882 -0.1533  0.3174  0.1878
 3240TIP3    H131279   2.163   2.446   7.924 -0.7944  1.1637 -1.0550
 3240TIP3    H231280   2.286   2.532   7.905  0.6764 -0.3339  1.3193
 3241TIP3   OH231281   1.762   2.460   8.270 -0.5793 -0.1099  0.3481
 3241TIP3    H131282   1.790   2.404   8.342  2.3394 -3.5339 -2.9757
 3241TIP3    H231283   1.778   2.549   8.300 -0.5332 -1.2405  4.1877
 3242TIP3   OH231284   1.056   1.912   6.905  0.1705  0.1162 -0.2740
 3242TIP3    H131285   1.018   1.929   6.991  1.0799  0.4307  0.0736
 3242TIP3    H231286   1.039   1.819   6.889 -0.9090  0.2824 -0.2254
 3243TIP3   OH231287   4.909   6.356   7.336 -0.2425 -0.1940  0.6589
 3243TIP3    H131288   4.969   6.282   7.327  0.0998  0.0354  1.0159
 3243TIP3    H231289   4.908   6.374   7.430 -0.0304  0.4917  0.5348
 3244TIP3   OH231290   5.917   5.089   0.987 -0.4323  0.2749  0.3040
 3244TIP3    H131291   5.840   5.053   0.944 -0.0147  0.3535 -0.5442
 3244TIP3    H231292   5.909   5.062   1.078 -1.3239  0.0610  0.1713
 3245TIP3   OH231293   5.526   4.998   1.685  0.2148  0.0106 -0.7758
 3245TIP3    H131294   5.505   5.090   1.696 -3.8908 -0.8053 -0.0700
 3245TIP3    H231295   5.580   4.976   1.761 -2.0791  1.0629  1.2637
 3246TIP3   OH231296   6.310   4.104   2.376  0.2580  0.3462 -0.4417
 3246TIP3    H131297   6.306   4.016   2.413  0.1048 -0.1390 -1.5574
 3246TIP3    H231298   6.351   4.092   2.290 -0.8128  1.1776 -1.0966
 3247TIP3   OH231299   6.759   2.944   2.585 -0.5551  0.0943 -0.2867
 3247TIP3    H131300   6.742   2.853   2.609  0.0019 -0.0066 -0.2587
 3247TIP3    H231301   6.761   2.990   2.669 -1.5767  0.2737 -0.3430
 3248TIP3   OH231302   3.974   1.113   7.776  0.4648  0.4608  0.0184
 3248TIP3    H131303   4.011   1.172   7.710  0.2436  2.2933  1.4493
 3248TIP3    H231304   3.881   1.108   7.754  0.8660 -1.4735 -1.5925
 3249TIP3   OH231305   0.589   1.859   1.426 -0.2036  0.1686 -0.5842
 3249TIP3    H131306   0.616   1.915   1.499 -0.8625 -0.3438  0.0796
 3249TIP3    H231307   0.606   1.911   1.348 -1.0433  1.4136  0.0241
 3250TIP3   OH231308   5.648   4.197   2.525 -0.1697  0.1557  0.0912
 3250TIP3    H131309   5.652   4.196   2.429 -1.9297 -3.0435 -0.1033
 3250TIP3    H231310   5.599   4.276   2.546 -1.3131  0.0185 -1.8126
 3251TIP3   OH231311   5.748   1.266   0.704  0.2157 -0.3138  0.3930
 3251TIP3    H131312   5.797   1.190   0.733 -0.4249 -1.7214 -1.9250
 3251TIP3    H231313   5.683   1.282   0.773  0.2630 -1.9751  0.8448
 3252TIP3   OH231314   6.759   1.250   8.480  0.3722  0.7243  0.3308
 3252TIP3    H131315   6.669   1.257   8.512 -0.3694  1.4678 -1.7108
 3252TIP3    H231316   6.756   1.177   8.418  1.4209  0.1512  0.9355
 3253TIP3   OH231317   5.044   0.020   7.918  0.4044 -0.0571 -0.6851
 3253TIP3    H131318   4.980  -0.047   7.897 -1.3868  1.5835 -0.7440
 3253TIP3    H231319   5.031   0.037   8.011 -0.2231  1.2115 -0.9783
 3254TIP3   OH231320   1.031   3.792   1.562  0.0251  0.1954  0.4215
 3254TIP3    H131321   0.988   3.860   1.615  2.6327  0.7087  2.0849
 3254TIP3    H231322   1.027   3.714   1.617 -2.0634 -0.8114 -1.0582
 3255TIP3   OH231323   4.996   6.375   1.067 -0.5632 -0.2930 -0.3205
 3255TIP3    H131324   5.043   6.344   1.144 -1.0522  0.5964  0.3467
 3255TIP3    H231325   5.051   6.349   0.993  0.5717  0.0214  0.3979
 3256TIP3   OH231326   2.895   1.022   8.367 -0.3275  0.4524 -0.1392
 3256TIP3    H131327   2.844   0.976   8.433 -0.8366  0.2888 -0.6378
 3256TIP3    H231328   2.985   1.021   8.400 -0.4076 -0.5204  0.0606
 3257TIP3   OH231329   0.236   4.347   0.447  0.0730  0.0043  0.3539
 3257TIP3    H131330   0.239   4.264   0.494  4.2854  0.7403  1.7740
 3257TIP3    H231331   0.254   4.324   0.356 -1.2248 -0.7875  0.2686
 3258TIP3   OH231332   6.127   5.737   0.926 -0.1374 -0.0651  0.1208
 3258TIP3    H131333   6.135   5.696   1.012 -0.0745 -0.4650 -0.0770
 3258TIP3    H231334   6.216   5.740   0.892 -0.0439  0.8391  0.4103
 3259TIP3   OH231335   0.856   4.224   0.786 -0.2337  0.0465 -0.0104
 3259TIP3    H131336   0.780   4.180   0.748 -0.3045 -0.1840  0.3990
 3259TIP3    H231337   0.831   4.242   0.876 -0.2958  1.1405 -0.2380
 3260TIP3   OH231338   2.985   1.761   1.392 -0.0258 -0.0498  0.1451
 3260TIP3    H131339   3.001   1.782   1.300  1.5791 -0.1191  0.3851
 3260TIP3    H231340   3.060   1.709   1.419 -0.3205  0.2251  1.5879
 3261TIP3   OH231341   1.754   4.003   2.461 -0.0848 -0.2386  0.2041
 3261TIP3    H131342   1.830   3.947   2.475  0.2181  0.2767  0.6415
 3261TIP3    H231343   1.700   3.991   2.540 -0.4938 -0.6524 -0.1322
 3262TIP3   OH231344   4.447   0.103   0.264 -0.5233  0.0724 -0.3103
 3262TIP3    H131345   4.386   0.035   0.234  0.9110 -2.1461  1.4992
 3262TIP3    H231346   4.516   0.103   0.198  0.4403 -1.7052  0.6190
 3263TIP3   OH231347   0.385   5.201   2.373 -0.0969 -0.2553 -0.3578
 3263TIP3    H131348   0.414   5.179   2.462  1.6545 -1.4438 -1.1768
 3263TIP3    H231349   0.289   5.203   2.379 -0.0031  0.1251  1.6373
 3264TIP3   OH231350   3.273   6.095   8.200  0.4630 -0.2989  0.3597
 3264TIP3    H131351   3.242   6.185   8.193  0.2180  0.0695  4.0883
 3264TIP3    H231352   3.366   6.101   8.177  0.1433  0.5851 -0.8205
 3265TIP3   OH231353   5.183   1.101   0.081  0.5859 -0.4915  0.0644
 3265TIP3    H131354   5.270   1.123   0.048  0.4675  3.2876  1.7556
 3265TIP3    H231355   5.130   1.091   0.001  2.1249 -0.8910 -0.9577
 3266TIP3   OH231356   0.437   4.896   2.055 -0.0100  0.1726 -0.2626
 3266TIP3    H131357   0.517   4.944   2.033 -0.7991  1.1984 -0.9934
 3266TIP3    H231358   0.438   4.819   1.999  0.9819 -0.3975  0.5010
 3267TIP3   OH231359   5.122   0.489   7.684  0.5342  0.4371 -0.2335
 3267TIP3    H131360   5.113   0.471   7.591  1.5243 -2.8752  0.2002
 3267TIP3    H231361   5.079   0.415   7.728  0.4044  1.7141  1.9687
 3268TIP3   OH231362   2.820   2.913   1.337 -0.3193 -0.6713 -0.3042
 3268TIP3    H131363   2.752   2.881   1.279  0.0415 -1.1706 -0.4551
 3268TIP3    H231364   2.827   2.846   1.405 -2.4563  1.0160  1.7461
 3269TIP3   OH231365   6.314   1.963   0.034 -0.0514  0.2630 -0.1457
 3269TIP3    H131366   6.360   2.047   0.028  1.6284 -0.6043  0.0740
 3269TIP3    H231367   6.280   1.961   0.123  1.4290 -0.0148  0.4477
 3270TIP3   OH231368   5.471   3.209   1.844  0.3286  0.2363 -0.7569
 3270TIP3    H131369   5.488   3.117   1.824 -2.2570 -0.0591 -2.0435
 3270TIP3    H231370   5.379   3.210   1.873  0.4655  2.3493 -0.2466
 3271TIP3   OH231371   2.495   0.139   0.157  0.4767 -0.2339  0.0679
 3271TIP3    H131372   2.436   0.073   0.192  0.7464 -0.8407 -0.6038
 3271TIP3    H231373   2.531   0.100   0.077  2.2552 -0.1440  0.7632
 3272TIP3   OH231374   5.618   5.399   0.367  0.3616  0.5376 -0.1879
 3272TIP3    H131375   5.656   5.350   0.440 -0.8134 -0.7077 -0.3613
 3272TIP3    H231376   5.546   5.448   0.406 -0.3785 -0.2627 -0.5006
 3273TIP3   OH231377   5.352   1.216   2.046  0.4429  0.6308 -0.1084
 3273TIP3    H131378   5.392   1.161   2.114 -1.6321 -0.1898  0.5139
 3273TIP3    H231379   5.297   1.277   2.095 -1.6106 -0.4032 -1.0253
 3274TIP3   OH231380   3.292   6.411   0.774  0.3145  0.3160 -0.1856
 3274TIP3    H131381   3.264   6.321   0.761  1.6825 -0.0959 -0.4241
 3274TIP3    H231382   3.318   6.442   0.687 -0.5349  1.0803 -0.1749
 3275TIP3   OH231383   2.441   1.802   0.784 -0.0466 -0.1324 -0.1208
 3275TIP3    H131384   2.484   1.716   0.779 -1.3266 -0.8856  1.2311
 3275TIP3    H231385   2.351   1.786   0.755  0.3579  1.3302 -2.4469
 3276TIP3   OH231386   0.293   6.517   2.162 -0.3773 -0.2100  0.1331
 3276TIP3    H131387   0.219   6.564   2.123  0.1001  0.0466 -0.4638
 3276TIP3    H231388   0.369   6.574   2.146  0.1155 -0.9383 -0.1337
 3277TIP3   OH231389   3.739   2.812   3.182 -0.5905 -0.2980 -0.0702
 3277TIP3    H131390   3.780   2.891   3.148 -0.8136  0.0706  0.5184
 3277TIP3    H231391   3.744   2.750   3.109 -1.6854  0.6944 -1.0217
 3278TIP3   OH231392   2.488   6.289   2.204 -0.2409  0.1142 -0.3866
 3278TIP3    H131393   2.536   6.323   2.129 -2.0197  1.0518 -1.1775
 3278TIP3    H231394   2.451   6.367   2.246 -0.4253 -0.5040  0.6377
 3279TIP3   OH231395   1.663   3.628   2.115  0.3391 -0.2163  0.3011
 3279TIP3    H131396   1.651   3.569   2.041 -0.7045 -0.0044  0.2843
 3279TIP3    H231397   1.576   3.636   2.154  0.4592  1.2381  0.3428
 3280TIP3   OH231398   1.890   6.651   1.902  0.3233 -0.0798 -0.5032
 3280TIP3    H131399   1.830   6.620   1.970 -1.6349 -0.8166 -2.4332
 3280TIP3    H231400   1.957   6.583   1.896  0.6211  0.0795  0.7522
 3281TIP3   OH231401   3.373   4.169   2.251 -0.3306 -0.5186 -0.1295
 3281TIP3    H131402   3.379   4.228   2.327  2.0429 -0.1931 -0.4852
 3281TIP3    H231403   3.405   4.085   2.284 -2.8760 -1.4815  0.1427
 3282TIP3   OH231404   2.893   4.449   0.346  0.1985  0.2522 -0.6855
 3282TIP3    H131405   2.858   4.538   0.342 -0.5774 -0.0799 -1.4909
 3282TIP3    H231406   2.906   4.433   0.439 -2.0332  0.3161 -0.3057
 3283TIP3   OH231407   0.602   4.498   7.740 -0.5887  0.4902  0.2019
 3283TIP3    H131408   0.580   4.590   7.726 -1.9169  0.1850  0.1434
 3283TIP3    H231409   0.528   4.450   7.705  0.4702 -0.6525 -0.5494
 3284TIP3   OH231410   1.394   1.201   1.844  0.0803  0.2365  0.2627
 3284TIP3    H131411   1.332   1.264   1.808 -0.3443  0.2664  1.0258
 3284TIP3    H231412   1.384   1.209   1.939  0.7528 -0.2580  0.3849
 3285TIP3   OH231413   0.171   4.229   2.964  0.5440  0.4952  0.2924
 3285TIP3    H131414   0.168   4.148   3.014 -2.4023  0.3011  0.0247
 3285TIP3    H231415   0.239   4.215   2.898  1.3528 -0.9980  1.3892
 3286TIP3   OH231416   2.752   6.154   7.573  0.3278 -0.5435 -0.3932
 3286TIP3    H131417   2.754   6.080   7.633  2.6478 -0.7476 -0.6279
 3286TIP3    H231418   2.844   6.180   7.563 -0.2319  1.1299 -1.8339
 3287TIP3   OH231419   5.944   0.043   0.115 -0.6803  0.0032  0.1232
 3287TIP3    H131420   5.941   0.079   0.027 -1.7152 -2.2629 -0.8633
 3287TIP3    H231421   5.897   0.106   0.169 -1.6195  0.5606 -1.2955
 3288TIP3   OH231422   5.862   3.159   8.209  0.2253  0.2616  0.5350
 3288TIP3    H131423   5.842   3.139   8.301 -1.3587  1.8940  0.5951
 3288TIP3    H231424   5.787   3.209   8.178  0.4761 -0.7178 -1.8504
 3289TIP3   OH231425   3.105   5.256   2.001 -0.6400 -0.2130  0.1139
 3289TIP3    H131426   3.020   5.275   2.041 -0.5556 -0.6245  0.4925
 3289TIP3    H231427   3.114   5.323   1.932 -0.7798  0.5014  0.7744
 3290TIP3   OH231428   5.917   0.259   8.248  0.0003  0.8452  0.1991
 3290TIP3    H131429   5.918   0.266   8.153 -0.2648  0.6937  0.1855
 3290TIP3    H231430   5.829   0.287   8.274  0.2355  1.3851  0.4381
 3291TIP3   OH231431   5.835   3.986   0.446 -0.8556 -0.2523  0.0382
 3291TIP3    H131432   5.741   3.971   0.457 -1.0745 -1.7325 -2.7409
 3291TIP3    H231433   5.877   3.925   0.506 -1.7164 -0.9063 -0.0018
 3292TIP3   OH231434   0.105   6.177   1.618 -0.3051  0.6729 -0.1311
 3292TIP3    H131435   0.092   6.182   1.713 -0.3124 -0.6349 -0.0391
 3292TIP3    H231436   0.021   6.146   1.584  0.4867 -1.5682 -0.2299
 3293TIP3   OH231437   1.846   6.733   2.693 -0.4525  0.1312 -0.1894
 3293TIP3    H131438   1.923   6.704   2.742  0.1917  0.9575 -0.6702
 3293TIP3    H231439   1.883   6.777   2.616 -1.2409  3.5568  1.1993
 3294TIP3   OH231440   3.097   6.596   1.319 -0.4288  0.8067 -0.0720
 3294TIP3    H131441   3.135   6.551   1.244 -0.0057  0.4361  0.3510
 3294TIP3    H231442   3.008   6.617   1.293 -1.0490 -1.3687  0.1454
 3295TIP3   OH231443   4.345   2.359   8.772 -0.4299 -0.4893 -0.5477
 3295TIP3    H131444   4.325   2.265   8.768 -0.8066 -0.6001  2.0336
 3295TIP3    H231445   4.433   2.363   8.810 -1.2820  0.1582  1.5202
 3296TIP3   OH231446   0.939   1.509   1.441 -0.0850  0.2318  0.0595
 3296TIP3    H131447   0.888   1.497   1.361 -0.6955 -1.0503  0.6211
 3296TIP3    H231448   1.029   1.490   1.415  0.0279  1.6113 -0.7199
 3297TIP3   OH231449   4.891   6.508   8.744 -0.3391  0.2459 -0.0126
 3297TIP3    H131450   4.868   6.589   8.698 -0.7937 -0.7083 -1.5081
 3297TIP3    H231451   4.904   6.536   8.835  1.8294  2.4394 -0.8726
 3298TIP3   OH231452   4.000   5.227   2.641  0.1594 -0.0214  0.0706
 3298TIP3    H131453   3.965   5.145   2.674  0.8183 -0.2192  0.2901
 3298TIP3    H231454   4.093   5.224   2.663  0.4274  0.2561 -0.9652
 3299TIP3   OH231455   1.055   5.215   7.796 -0.1547  0.0652  0.1010
 3299TIP3    H131456   1.125   5.267   7.759 -0.2487 -0.3398 -0.6700
 3299TIP3    H231457   1.089   5.125   7.796 -1.7223 -0.6831 -3.1995
 3300TIP3   OH231458   0.869   6.430   1.762  0.3592  0.0629  0.3497
 3300TIP3    H131459   0.859   6.489   1.837 -1.5285 -0.0568  0.2356
 3300TIP3    H231460   0.879   6.343   1.801  0.5721  0.1423  0.4746
 3301TIP3   OH231461   1.843   0.600   0.357  0.2505 -0.2412 -0.6808
 3301TIP3    H131462   1.932   0.566   0.344  0.6423  1.0793 -1.7118
 3301TIP3    H231463   1.851   0.658   0.433  0.3331  0.1016 -0.9522
 3302TIP3   OH231464   3.500   5.740   1.054 -0.3207  0.1327  0.4330
 3302TIP3    H131465   3.445   5.690   0.994  1.8746 -0.2166 -1.4500
 3302TIP3    H231466   3.529   5.677   1.119 -0.8792 -0.0445  0.5106
 3303TIP3   OH231467   4.504   4.071   3.319  0.5115  0.5158 -0.3924
 3303TIP3    H131468   4.555   4.062   3.239  0.9099 -0.4660 -0.0394
 3303TIP3    H231469   4.494   3.982   3.352  1.0709  0.9692  1.0957
 3304TIP3   OH231470   0.795   5.649   2.021 -0.1638 -0.0696 -0.5497
 3304TIP3    H131471   0.838   5.567   1.995  0.1877 -0.9445  2.4041
 3304TIP3    H231472   0.715   5.620   2.066  0.0699  1.1785  0.7251
 3305TIP3   OH231473   5.134   6.743   0.741  0.1185  0.4025 -0.2136
 3305TIP3    H131474   5.142   6.813   0.676  0.9918  0.1153 -0.4312
 3305TIP3    H231475   5.206   6.684   0.721 -1.1600 -1.0830 -0.6599
 3306TIP3   OH231476   3.287   2.341   0.824 -0.7559  0.7998 -0.2624
 3306TIP3    H131477   3.233   2.270   0.859 -0.2794 -0.2585 -1.5928
 3306TIP3    H231478   3.225   2.398   0.778 -0.9683  0.5485 -0.2880
 3307TIP3   OH231479   1.109   0.394   2.633 -0.8329 -0.2843 -0.0491
 3307TIP3    H131480   1.182   0.334   2.617 -0.3026  0.6141 -1.2005
 3307TIP3    H231481   1.148   0.468   2.680 -1.0631  0.0445 -0.3653
 3308TIP3   OH231482   0.413   2.526   0.109  0.0409 -0.2120  0.4895
 3308TIP3    H131483   0.462   2.499   0.187  3.1502 -0.3171 -1.3207
 3308TIP3    H231484   0.381   2.445   0.070  0.2185 -0.3303  0.5906
 3309TIP3   OH231485   1.405   0.299   2.974 -0.0845  0.6066  0.0562
 3309TIP3    H131486   1.476   0.345   3.019 -0.3142  0.0681  0.9901
 3309TIP3    H231487   1.328   0.313   3.030 -0.0625 -1.2780  0.6174
 3310TIP3   OH231488   0.419   2.429   1.311  0.3247  0.0191 -0.0579
 3310TIP3    H131489   0.349   2.455   1.251 -0.3104 -0.8463  0.2823
 3310TIP3    H231490   0.421   2.499   1.377 -0.3648 -0.0388  0.0358
 3311TIP3   OH231491   0.493   6.735   0.023  0.5373 -0.2736 -0.0509
 3311TIP3    H131492   0.552   6.685  -0.034  0.4740  0.3368 -0.6645
 3311TIP3    H231493   0.552   6.782   0.082  0.6239 -0.4665  0.0192
 3312TIP3   OH231494   1.716   2.169   8.139  0.1529 -0.1776  0.1915
 3312TIP3    H131495   1.788   2.146   8.080 -2.0366 -1.0726 -2.3169
 3312TIP3    H231496   1.720   2.264   8.146  0.2143  0.0199 -1.8761
 3313TIP3   OH231497   6.654   2.664   0.207 -0.1473 -0.3556  0.6330
 3313TIP3    H131498   6.654   2.703   0.120 -0.9480  1.0927  1.2567
 3313TIP3    H231499   6.697   2.579   0.195 -3.0563 -1.6808 -1.8512
 3314TIP3   OH231500   3.200   5.039   0.641 -0.1082  0.1601 -0.1695
 3314TIP3    H131501   3.159   5.085   0.714 -0.7174 -2.0864  1.0043
 3314TIP3    H231502   3.137   4.971   0.617  2.2095 -2.4796  0.7210
 3315TIP3   OH231503   2.798   6.303   1.377  0.5082 -0.1697  0.0896
 3315TIP3    H131504   2.890   6.295   1.353  0.5812 -1.9728  0.8265
 3315TIP3    H231505   2.786   6.240   1.448 -1.8201 -1.8937 -1.6451
 3316TIP3   OH231506   2.364   1.969   2.167  0.1203  0.1304  0.1933
 3316TIP3    H131507   2.275   1.934   2.178 -0.2842  0.7910 -0.8641
 3316TIP3    H231508   2.399   1.972   2.256 -0.4675 -1.2944  0.5034
 3317TIP3   OH231509   0.035   1.147   1.318  0.7204 -0.6876 -0.0765
 3317TIP3    H131510   0.066   1.233   1.290 -1.1950  0.0417 -0.1123
 3317TIP3    H231511   0.057   1.089   1.245  1.7290 -0.1845 -0.1970
 3318TIP3   OH231512   3.050   6.519   0.116 -0.2108 -0.4839 -0.2634
 3318TIP3    H131513   3.099   6.480   0.189 -1.0380 -2.1747 -0.5566
 3318TIP3    H231514   3.055   6.453   0.047 -0.2635  0.6833 -1.3943
 3319TIP3   OH231515   2.913   3.660   0.640 -0.6926 -0.0368 -0.4356
 3319TIP3    H131516   2.976   3.701   0.580  0.2591  1.0395  1.2092
 3319TIP3    H231517   2.862   3.734   0.674 -1.3384 -0.6435 -0.0839
 3320TIP3   OH231518   1.772   4.699   2.155 -0.5990  0.0503  0.1486
 3320TIP3    H131519   1.811   4.651   2.228  1.5570  0.7281 -0.4987
 3320TIP3    H231520   1.808   4.658   2.077 -1.7184  0.2979 -0.5304
 3321TIP3   OH231521   1.360   5.994   0.980  0.5422 -0.1876 -0.1265
 3321TIP3    H131522   1.330   6.034   0.898 -0.0386  0.2865  0.3181
 3321TIP3    H231523   1.284   5.947   1.014  0.0273  1.6600  1.3947
 3322TIP3   OH231524   4.636   0.600   2.138  0.1541 -0.0695  0.1356
 3322TIP3    H131525   4.545   0.609   2.167 -0.0069  1.0614 -0.6402
 3322TIP3    H231526   4.685   0.581   2.218 -0.3237  2.5128  1.1616
 3323TIP3   OH231527   4.673   5.428   0.019  0.5419  0.0242  0.4704
 3323TIP3    H131528   4.584   5.461   0.014 -0.2085 -2.0753 -1.8029
 3323TIP3    H231529   4.700   5.418  -0.072  2.9478  0.1467  1.1029
 3324TIP3   OH231530   6.286   2.499   1.000  0.1040  0.0020  0.2024
 3324TIP3    H131531   6.369   2.544   0.990  0.9080 -1.2855  0.7890
 3324TIP3    H231532   6.228   2.564   1.040  0.5850  1.1523 -0.9245
 3325TIP3   OH231533   4.470   3.481   7.649 -0.3538  0.4293  0.2451
 3325TIP3    H131534   4.539   3.515   7.706  1.7889 -2.5024 -0.3679
 3325TIP3    H231535   4.475   3.535   7.570  0.2776  1.1498  0.7694
 3326TIP3   OH231536   4.454   0.356   0.969 -0.4177 -0.1227 -0.0871
 3326TIP3    H131537   4.398   0.431   0.949  1.2660  1.3022  0.2625
 3326TIP3    H231538   4.446   0.299   0.892 -1.0053  0.8784 -0.7942
 3327TIP3   OH231539   0.251   2.630   7.794 -0.5465  0.5925  1.0684
 3327TIP3    H131540   0.176   2.681   7.761  0.0967  1.5277  1.0211
 3327TIP3    H231541   0.211   2.555   7.838 -1.4810 -0.8226 -1.8698
 3328TIP3   OH231542   2.777   6.159   0.742  0.5706 -0.7071  0.1387
 3328TIP3    H131543   2.872   6.149   0.748  0.5219 -0.6767  1.2850
 3328TIP3    H231544   2.746   6.074   0.709  1.0620 -0.3574 -1.2902
 3329TIP3   OH231545   4.637   4.792   8.669  0.2834  0.6897 -1.2493
 3329TIP3    H131546   4.724   4.796   8.710  0.6722 -2.1240 -1.5556
 3329TIP3    H231547   4.580   4.757   8.737 -0.2666  1.0776 -1.5072
 3330TIP3   OH231548   6.256   3.308   7.233 -0.0451  0.3202  0.3130
 3330TIP3    H131549   6.213   3.247   7.174 -0.9973  0.8487  0.4484
 3330TIP3    H231550   6.221   3.288   7.320  0.4676  0.3241  0.5254
 3331TIP3   OH231551   6.559   4.972   0.723  0.2231 -0.0699 -0.2881
 3331TIP3    H131552   6.516   5.016   0.796  1.3129 -0.8810  0.8859
 3331TIP3    H231553   6.500   4.900   0.701 -0.3521  0.4742 -0.5638
 3332TIP3   OH231554   0.144   2.589   0.030 -0.1478  0.0961  0.2549
 3332TIP3    H131555   0.117   2.503   0.001  0.5817  0.7600 -2.7227
 3332TIP3    H231556   0.239   2.584   0.035 -0.0486  0.8814 -0.6058
 3333TIP3   OH231557   1.144   0.797   8.137  0.9826 -0.2501  0.7382
 3333TIP3    H131558   1.065   0.830   8.096  0.8487 -0.6841  0.6465
 3333TIP3    H231559   1.182   0.873   8.182  1.1543  0.2383 -0.2171
 3334TIP3   OH231560   5.266   0.458   2.003 -0.3456 -0.2034  0.1672
 3334TIP3    H131561   5.237   0.468   2.094  3.1009  0.1778  1.3397
 3334TIP3    H231562   5.313   0.539   1.984  1.2502 -1.3706 -1.0269
 3335TIP3   OH231563   0.828   5.308   0.066  0.2498 -0.8139 -0.5934
 3335TIP3    H131564   0.888   5.279   0.136  1.3290  1.9591 -0.2325
 3335TIP3    H231565   0.741   5.297   0.103  0.7461 -0.7646  0.6524
 3336TIP3   OH231566   6.563   0.570   7.947 -0.4977 -0.1792 -0.7160
 3336TIP3    H131567   6.639   0.527   7.908  0.1603  0.5259 -0.2153
 3336TIP3    H231568   6.565   0.659   7.913 -1.5158 -0.3418 -1.2586
 3337TIP3   OH231569   2.932   5.543   0.260 -0.0514  0.5102  0.1194
 3337TIP3    H131570   2.941   5.595   0.180 -0.8943  0.9580  0.3056
 3337TIP3    H231571   2.840   5.520   0.264  0.3111 -1.0782  0.0127
 3338TIP3   OH231572   0.132   5.005   1.385 -0.4410  0.5132 -0.2604
 3338TIP3    H131573   0.182   5.007   1.303 -2.4360 -1.3225 -1.6185
 3338TIP3    H231574   0.053   4.956   1.364 -0.7905 -0.4961  2.9352
 3339TIP3   OH231575   4.027   4.300   2.977  0.1335  0.2069  0.9227
 3339TIP3    H131576   4.111   4.343   2.961  0.4433 -0.7441 -0.0436
 3339TIP3    H231577   4.048   4.226   3.034  0.5371 -1.9991 -1.8875
 3340TIP3   OH231578   2.508   4.741   1.207  0.0833 -0.4817 -0.0692
 3340TIP3    H131579   2.414   4.752   1.220  0.3065  0.7338  0.6499
 3340TIP3    H231580   2.546   4.755   1.294  0.9970  0.0194 -0.5349
 3341TIP3   OH231581   1.997   4.362   8.312  0.5172 -0.1765 -0.2834
 3341TIP3    H131582   1.947   4.426   8.263  0.6244  0.0824 -0.0603
 3341TIP3    H231583   2.030   4.411   8.388  0.1152 -0.6373  0.1974
 3342TIP3   OH231584   5.778   4.919   8.379 -0.1423 -0.3941  0.4521
 3342TIP3    H131585   5.856   4.878   8.417  1.5530  0.7226 -1.5536
 3342TIP3    H231586   5.802   5.011   8.371 -1.0918 -0.2633 -1.4855
 3343TIP3   OH231587   1.608   3.635   1.452 -0.4397 -0.0007 -0.1005
 3343TIP3    H131588   1.669   3.709   1.456 -0.5829  0.0915  2.1918
 3343TIP3    H231589   1.531   3.669   1.407 -1.0085  1.7490  1.9842
 3344TIP3   OH231590   5.317   3.951   2.153  0.1104  0.7528  0.0171
 3344TIP3    H131591   5.265   3.902   2.217 -0.9578  0.0809 -1.3292
 3344TIP3    H231592   5.388   3.892   2.128 -0.5793  0.2622 -0.8284
 3345TIP3   OH231593   6.328   1.912   8.125 -0.0206 -0.0884 -0.0834
 3345TIP3    H131594   6.386   1.950   8.058  1.7564  0.1829  1.5059
 3345TIP3    H231595   6.336   1.972   8.199  1.1205 -2.3296  1.7072
 3346TIP3   OH231596   3.461   5.445   6.863  0.3741  0.5437 -0.2785
 3346TIP3    H131597   3.397   5.382   6.895  1.3731 -0.4200 -0.1398
 3346TIP3    H231598   3.409   5.523   6.843 -0.8884 -0.3037 -0.4565
 3347TIP3   OH231599   3.299   4.214   0.107 -0.4698  0.4624  0.2573
 3347TIP3    H131600   3.336   4.178   0.187  0.9572  0.7272 -0.2546
 3347TIP3    H231601   3.318   4.308   0.112 -2.2418  0.8286  0.5717
 3348TIP3   OH231602   5.124   0.664   1.755 -0.4357 -0.0401  0.5195
 3348TIP3    H131603   5.075   0.671   1.837  2.0590  0.0767  2.1234
 3348TIP3    H231604   5.070   0.711   1.691 -1.4223  1.9497  2.6202
 3349TIP3   OH231605   5.539   0.791   3.121 -0.2023  0.0731  0.1532
 3349TIP3    H131606   5.549   0.717   3.060  0.4098 -1.7988  2.3808
 3349TIP3    H231607   5.456   0.832   3.095  0.0472 -0.6085 -1.9208
 3350TIP3   OH231608   6.232   2.443   8.175 -0.6648  0.3975 -0.1831
 3350TIP3    H131609   6.195   2.503   8.111  1.4150  0.8933 -0.9663
 3350TIP3    H231610   6.186   2.464   8.256 -0.8377  2.2161 -0.7080
 3351TIP3   OH231611   0.505   3.688   2.629 -0.6741 -0.6344  0.0939
 3351TIP3    H131612   0.518   3.597   2.600 -1.7219 -0.5762 -0.6041
 3351TIP3    H231613   0.538   3.689   2.719  0.1387 -1.4949 -0.1730
 3352TIP3   OH231614   2.249   4.962   2.644  0.1868  0.6333  0.0155
 3352TIP3    H131615   2.199   4.970   2.725 -0.7330 -0.0743 -0.4655
 3352TIP3    H231616   2.312   4.892   2.661 -0.7152 -0.2493 -0.2230
 3353TIP3   OH231617   0.171   4.673   8.582  0.3291  0.4909  0.4525
 3353TIP3    H131618   0.185   4.767   8.593  0.4696  0.6508 -0.9269
 3353TIP3    H231619   0.195   4.655   8.491 -0.8026 -0.6718  0.3507
 3354TIP3   OH231620   2.420   6.739   1.074  0.5332 -0.3638 -0.4829
 3354TIP3    H131621   2.422   6.815   1.131  1.0022 -1.2904  0.7885
 3354TIP3    H231622   2.342   6.690   1.101  1.7371 -1.7486  0.7047
 3355TIP3   OH231623   5.730   5.144   2.595  0.1802  0.3446 -0.0165
 3355TIP3    H131624   5.823   5.146   2.571  0.0831  0.8497 -0.3690
 3355TIP3    H231625   5.728   5.100   2.679  0.5081 -1.8660 -1.0924
 3356TIP3   OH231626   4.843   5.913   8.416 -0.2050 -0.4442 -0.1776
 3356TIP3    H131627   4.782   5.859   8.366  0.2645 -0.2711 -0.9373
 3356TIP3    H231628   4.921   5.920   8.362 -0.0355  0.5151  0.1609
 3357TIP3   OH231629   5.237   2.434   8.681 -0.1059  0.8140 -0.2698
 3357TIP3    H131630   5.206   2.517   8.717  0.5401 -0.1681  2.9461
 3357TIP3    H231631   5.276   2.389   8.756  3.0276 -0.8504 -2.6501
 3358TIP3   OH231632   3.013   5.016   0.325 -0.0482  0.3891  0.1607
 3358TIP3    H131633   2.968   5.005   0.408 -1.4805 -0.8604 -0.7127
 3358TIP3    H231634   2.950   5.062   0.269 -0.4421 -1.5934 -1.1635
 3359TIP3   OH231635   6.434   2.451   1.765 -0.0881  0.4730  0.4572
 3359TIP3    H131636   6.435   2.387   1.694  0.1853  0.5209  0.4170
 3359TIP3    H231637   6.389   2.407   1.837  0.4089  0.1101  0.5475
 3360TIP3   OH231638   0.478   4.712   7.995 -0.1813  0.3458  0.6835
 3360TIP3    H131639   0.514   4.637   8.042  0.8582  0.7385  0.5477
 3360TIP3    H231640   0.554   4.767   7.976 -0.6260  0.4341 -1.0296
 3361TIP3   OH231641   2.049   0.653   1.775 -0.2010 -0.6214  0.0761
 3361TIP3    H131642   2.084   0.564   1.781  0.3335 -0.6905 -2.6628
 3361TIP3    H231643   2.095   0.692   1.700 -2.5705  0.9428 -0.6829
 3362TIP3   OH231644   1.700   2.954   0.106 -0.9397  0.0245 -0.1087
 3362TIP3    H131645   1.629   2.946   0.170 -1.2184  1.0207 -0.2767
 3362TIP3    H231646   1.732   3.043   0.117 -0.8990  0.1674 -1.2675
 3363TIP3   OH231647   6.229   3.759   7.444  0.4938 -0.1593  0.4763
 3363TIP3    H131648   6.162   3.827   7.432  0.0087 -0.4086  1.7261
 3363TIP3    H231649   6.292   3.776   7.373 -1.5945 -0.8211 -1.6518
 3364TIP3   OH231650   4.383   5.037   1.995  0.7372  0.2033  0.1577
 3364TIP3    H131651   4.324   4.962   2.005  0.4009  0.6357  1.7814
 3364TIP3    H231652   4.378   5.060   1.902 -0.8479 -0.4381  0.0562
 3365TIP3   OH231653   3.306   4.489   0.143 -0.7265 -0.4390 -0.5082
 3365TIP3    H131654   3.234   4.534   0.188 -1.8831 -2.7167  0.1081
 3365TIP3    H231655   3.300   4.519   0.052 -0.5179  1.6541  0.1201
 3366TIP3   OH231656   6.603   3.100   1.895 -0.1006 -0.6788  0.1330
 3366TIP3    H131657   6.556   3.022   1.925  1.4803 -1.5739  0.4157
 3366TIP3    H231658   6.600   3.094   1.800 -1.8118  0.0905  0.1086
 3367TIP3   OH231659   2.946   1.694   7.677  0.6167  0.6967 -0.2775
 3367TIP3    H131660   2.862   1.680   7.634  1.0816  1.6271 -1.5242
 3367TIP3    H231661   3.010   1.657   7.617  1.2033  1.2031  0.0254
 3368TIP3   OH231662   3.532   1.658   0.793 -0.6144 -0.0512 -0.1103
 3368TIP3    H131663   3.517   1.569   0.762 -4.4397  0.1495  0.7239
 3368TIP3    H231664   3.511   1.714   0.717  1.4331  0.2564 -0.5261
 3369TIP3   OH231665   3.975   1.278   7.535  0.2743  0.6874  0.3012
 3369TIP3    H131666   3.964   1.370   7.513 -0.3764  0.6820  0.5693
 3369TIP3    H231667   3.990   1.234   7.452  3.0120  1.3307  0.3487
 3370TIP3   OH231668   6.721   4.345   0.372  0.0000  0.0815  0.8235
 3370TIP3    H131669   6.682   4.260   0.393  0.3143 -0.4054 -0.4053
 3370TIP3    H231670   6.815   4.326   0.366  0.0196  0.3905  0.0367
 3371TIP3   OH231671   4.266   0.117   1.376  0.4355 -0.2128 -0.0047
 3371TIP3    H131672   4.319   0.167   1.314 -0.5829  0.9520  0.0357
 3371TIP3    H231673   4.250   0.033   1.331  0.3813  0.3069 -0.9905
 3372TIP3   OH231674   4.100   6.119   0.132 -0.0477 -0.5984 -0.2844
 3372TIP3    H131675   4.053   6.165   0.201  0.2384  1.4962 -1.3908
 3372TIP3    H231676   4.043   6.125   0.055  0.4010 -1.3421 -0.6890
 3373TIP3   OH231677   1.219   2.659   8.690  0.1232  0.3416  0.3765
 3373TIP3    H131678   1.202   2.688   8.780 -2.3640  0.2337  0.0119
 3373TIP3    H231679   1.185   2.730   8.636 -1.0991 -0.8342 -0.4699
 3374TIP3   OH231680   2.374   3.250   0.579 -0.0443 -0.2072  0.4223
 3374TIP3    H131681   2.321   3.319   0.538 -0.5264 -0.4179  0.6822
 3374TIP3    H231682   2.313   3.176   0.589  1.1079 -1.6629 -2.3050
 3375TIP3   OH231683   5.371   6.638   0.675  0.3786  0.5032 -0.0735
 3375TIP3    H131684   5.389   6.729   0.651 -0.4004  0.0767 -2.6025
 3375TIP3    H231685   5.457   6.598   0.686  0.9673  0.4415 -3.8175
 3376TIP3   OH231686   6.025   2.128   0.761  0.5373  0.2279  0.2898
 3376TIP3    H131687   6.051   2.174   0.841 -1.7326  1.8227  0.2026
 3376TIP3    H231688   6.023   2.196   0.694 -0.4648 -0.4925 -0.4357
 3377TIP3   OH231689   2.329   6.402   8.501 -0.1261 -0.3505 -0.3216
 3377TIP3    H131690   2.341   6.492   8.532  1.2959 -0.1793 -1.2448
 3377TIP3    H231691   2.252   6.406   8.445  0.3677  0.4913 -0.9743
 3378TIP3   OH231692   2.272   1.965   8.172 -0.1653  0.1385 -0.4799
 3378TIP3    H131693   2.213   2.037   8.192 -1.6061 -0.9907 -0.4861
 3378TIP3    H231694   2.348   1.979   8.228 -0.8005  1.1694  0.1410
 3379TIP3   OH231695   4.565   5.203   2.284 -0.2820 -0.4064 -0.3526
 3379TIP3    H131696   4.496   5.137   2.285  0.1559 -0.8733 -0.0934
 3379TIP3    H231697   4.543   5.262   2.357 -0.8458 -0.0780 -0.7827
 3380TIP3   OH231698   2.669   2.262   7.859  0.1384 -0.0611 -0.2876
 3380TIP3    H131699   2.600   2.286   7.921  0.9480 -0.6509  0.8785
 3380TIP3    H231700   2.749   2.301   7.895  0.4455  0.6365 -1.6345
 3381TIP3   OH231701   1.348   5.665   0.607  0.4820 -0.5396  1.0092
 3381TIP3    H131702   1.278   5.724   0.581  0.5273 -1.1988 -0.7700
 3381TIP3    H231703   1.415   5.722   0.645  0.8201  0.7028 -1.2652
 3382TIP3   OH231704   3.069   5.762   8.620 -0.8237 -0.2308  0.7229
 3382TIP3    H131705   3.152   5.722   8.646  0.4535  3.0310  2.3310
 3382TIP3    H231706   3.086   5.796   8.532  0.1122  1.4657  1.4863
 3383TIP3   OH231707   6.131   1.873   2.118 -0.2444  0.1825 -0.0592
 3383TIP3    H131708   6.168   1.924   2.190 -0.6530  0.7437 -0.2432
 3383TIP3    H231709   6.062   1.821   2.159 -1.4068  1.5117 -0.2601
 3384TIP3   OH231710   2.167   1.294   0.598 -0.4170 -0.1181  0.2828
 3384TIP3    H131711   2.224   1.217   0.600 -3.2548 -2.3892  1.0994
 3384TIP3    H231712   2.115   1.284   0.518  0.0838  1.7649 -0.3359
 3385TIP3   OH231713   6.698   5.986   2.648  0.0451  0.0152  0.7102
 3385TIP3    H131714   6.698   6.058   2.585  1.5530 -0.7195 -0.1765
 3385TIP3    H231715   6.654   5.914   2.602  0.3526 -0.2446  0.8184
 3386TIP3   OH231716   6.115   3.706   1.753 -0.0619  0.2595 -0.2794
 3386TIP3    H131717   6.083   3.796   1.741 -1.4569 -0.0848  0.6161
 3386TIP3    H231718   6.132   3.699   1.847  2.6602  0.3807 -0.6906
 3387TIP3   OH231719   4.107   3.460   0.878 -0.3211  0.1720 -0.3592
 3387TIP3    H131720   4.096   3.544   0.834 -0.5521  0.4211  0.1685
 3387TIP3    H231721   4.182   3.472   0.935  0.3330 -0.3284 -1.0821
 3388TIP3   OH231722   2.625   0.393   0.498 -0.1590 -0.1606  0.4414
 3388TIP3    H131723   2.547   0.388   0.443  0.1815 -0.0598 -0.0600
 3388TIP3    H231724   2.599   0.449   0.571 -0.7873 -0.7530  0.6797
 3389TIP3   OH231725   0.811   0.403   8.769 -0.1809  0.4126  0.6391
 3389TIP3    H131726   0.736   0.445   8.811 -0.6255  0.1506  0.1319
 3389TIP3    H231727   0.855   0.474   8.722  0.4921  0.7652  1.7565
 3390TIP3   OH231728   0.964   6.228   1.608 -0.3171 -0.6138 -0.8140
 3390TIP3    H131729   0.948   6.312   1.651  0.3881 -0.5023 -0.7599
 3390TIP3    H231730   0.883   6.179   1.621 -0.0751 -0.6417  0.7868
 3391TIP3   OH231731   1.879   2.802   2.084 -0.6299  0.3085  0.7207
 3391TIP3    H131732   1.908   2.713   2.064  0.1869  1.0455 -1.6292
 3391TIP3    H231733   1.949   2.838   2.139 -0.2094  0.0133  0.3834
 3392TIP3   OH231734   1.629   2.346   0.987 -0.6254  0.2850 -0.1427
 3392TIP3    H131735   1.721   2.371   0.994 -0.9191  1.4283 -0.1550
 3392TIP3    H231736   1.600   2.382   0.903 -1.3006  0.6952  0.2501
 3393TIP3   OH231737   1.982   5.769   1.985 -0.2116 -0.5170 -0.2650
 3393TIP3    H131738   1.903   5.715   1.992  0.8484 -2.2508 -1.0617
 3393TIP3    H231739   2.018   5.749   1.899  1.5408 -0.4009  0.4004
 3394TIP3   OH231740   2.885   1.008   8.069 -0.2618  0.0830  0.3179
 3394TIP3    H131741   2.875   1.096   8.032 -0.1526 -0.3881 -0.8946
 3394TIP3    H231742   2.913   1.023   8.159 -1.9981  1.2997  0.6960
 3395TIP3   OH231743   3.668   1.999   0.628 -0.0165 -0.0427 -0.1735
 3395TIP3    H131744   3.746   1.954   0.596 -0.8274 -0.3360 -1.8740
 3395TIP3    H231745   3.695   2.040   0.710  1.5978 -1.0605 -0.1612
 3396TIP3   OH231746   4.836   3.219   0.505  0.3390  0.4084  0.0858
 3396TIP3    H131747   4.865   3.227   0.414 -0.4994  1.4420 -0.1145
 3396TIP3    H231748   4.754   3.268   0.508 -0.7967 -1.4270  0.8992
 3397TIP3   OH231749   6.435   5.867   7.933  0.2468  0.5951 -0.0845
 3397TIP3    H131750   6.471   5.780   7.952 -1.3551  0.0520  0.6404
 3397TIP3    H231751   6.512   5.923   7.922  1.3126 -0.4043  1.8048
 3398TIP3   OH231752   3.444   2.525   0.676 -0.0467  0.6314 -0.2545
 3398TIP3    H131753   3.529   2.565   0.698  0.3946 -0.7345  0.6520
 3398TIP3    H231754   3.442   2.444   0.726 -1.4634  0.1247 -1.0749
 3399TIP3   OH231755   6.639   4.366   1.042  0.4687 -0.1456  0.0642
 3399TIP3    H131756   6.706   4.426   1.073  0.2522  0.9105 -1.3877
 3399TIP3    H231757   6.556   4.407   1.066  0.3092  0.4459 -1.3927
 3400TIP3   OH231758   6.497   2.123   7.220  0.2559 -0.0640  0.3363
 3400TIP3    H131759   6.470   2.134   7.129  1.0001  1.6363  0.2889
 3400TIP3    H231760   6.422   2.155   7.271  0.0229 -0.5767  0.3212
 3401TIP3   OH231761   4.815   5.491   1.502  0.0795  0.4643  0.0926
 3401TIP3    H131762   4.808   5.488   1.597 -0.0516 -1.3447  0.0573
 3401TIP3    H231763   4.903   5.526   1.486  0.7601 -0.7627  0.9339
 3402TIP3   OH231764   1.525   1.535   8.076  0.0894  0.5071  0.6246
 3402TIP3    H131765   1.517   1.528   7.981 -1.1705  0.7687  0.6978
 3402TIP3    H231766   1.466   1.468   8.110  1.0186 -0.0303  1.2370
 3403TIP3   OH231767   3.604   2.837   6.876 -0.3679 -0.4225  0.2383
 3403TIP3    H131768   3.587   2.930   6.864 -0.7011 -0.3373  1.2383
 3403TIP3    H231769   3.549   2.813   6.951 -0.4871 -1.4833 -0.1760
 3404TIP3   OH231770   6.657   6.370   0.141  0.4238 -0.5072  0.3513
 3404TIP3    H131771   6.724   6.323   0.191 -0.5783 -0.3038  1.9771
 3404TIP3    H231772   6.575   6.344   0.182 -0.2156  2.1079  0.9110
 3405TIP3   OH231773   0.433   5.923   2.445 -0.6729 -0.4111  0.4621
 3405TIP3    H131774   0.456   5.990   2.509 -1.5275 -0.3139  0.6815
 3405TIP3    H231775   0.473   5.843   2.480  0.6696  0.0260  0.0039
 3406TIP3   OH231776   5.422   5.633   8.672 -0.1244 -0.2443 -0.3658
 3406TIP3    H131777   5.338   5.652   8.713 -0.2267  0.0414 -0.7089
 3406TIP3    H231778   5.475   5.595   8.742  0.3736  2.0310  0.5556
 3407TIP3   OH231779   3.561   0.836   7.751 -0.0889 -0.1800 -0.3586
 3407TIP3    H131780   3.514   0.919   7.765  0.5787  0.2748 -0.7660
 3407TIP3    H231781   3.532   0.807   7.664 -0.1700 -0.2758 -0.3001
 3408TIP3   OH231782   5.689   4.264   2.005 -0.0452  0.1378 -0.2512
 3408TIP3    H131783   5.693   4.346   1.956 -2.7013  0.7108  0.3112
 3408TIP3    H231784   5.702   4.196   1.939 -0.9387  0.9652 -1.3214
 3409TIP3   OH231785   0.671   6.003   8.332  0.0280 -0.0616  0.0259
 3409TIP3    H131786   0.591   5.965   8.297  1.0338  0.1500 -2.7652
 3409TIP3    H231787   0.648   6.095   8.349 -0.3704 -0.0090 -0.7303
 3410TIP3   OH231788   1.700   1.691   0.371 -0.3029 -0.3163  0.2286
 3410TIP3    H131789   1.671   1.621   0.313 -0.4914 -0.8320  0.9221
 3410TIP3    H231790   1.622   1.713   0.423 -0.7403  1.6182 -1.1313
 3411TIP3   OH231791   4.579   6.769   1.108  0.6598  0.3013  0.6819
 3411TIP3    H131792   4.609   6.860   1.119  1.0503  0.4333 -1.1237
 3411TIP3    H231793   4.660   6.718   1.104  0.4401 -0.1243  1.6216
 3412TIP3   OH231794   3.429   4.205   2.722  0.6036 -0.1658 -0.7448
 3412TIP3    H131795   3.409   4.113   2.709  1.0568 -0.1938 -1.2248
 3412TIP3    H231796   3.452   4.212   2.815 -0.1664 -0.3971 -0.5293
 3413TIP3   OH231797   5.985   2.367   8.464 -0.0874  0.3482  0.0654
 3413TIP3    H131798   5.958   2.376   8.556  0.9221  0.9180  0.3237
 3413TIP3    H231799   6.044   2.441   8.449 -0.0849  0.1478 -0.9925
 3414TIP3   OH231800   5.096   2.725   8.550 -0.5852  0.7998  0.2800
 3414TIP3    H131801   5.136   2.695   8.468 -1.2048 -0.6204  0.4612
 3414TIP3    H231802   5.011   2.682   8.552 -0.8166  1.2826  1.3895
 3415TIP3   OH231803   0.551   1.743   3.248 -0.1449  0.7548 -0.0031
 3415TIP3    H131804   0.641   1.735   3.279  0.5065 -1.0636 -2.0797
 3415TIP3    H231805   0.549   1.826   3.200  0.3391  0.9320  0.2750
 3416TIP3   OH231806   0.631   4.238   2.560 -0.7368 -0.5989 -0.4450
 3416TIP3    H131807   0.583   4.301   2.613  0.6320 -1.1667  1.5781
 3416TIP3    H231808   0.578   4.159   2.564 -1.8323  0.0093 -1.9683
 3417TIP3   OH231809   0.066   1.567   7.785 -1.0691  0.0023 -0.3300
 3417TIP3    H131810   0.129   1.638   7.785 -0.2058 -0.6758  1.4495
 3417TIP3    H231811   0.056   1.543   7.693  0.6453  0.6815 -0.7416
 3418TIP3   OH231812   0.630   5.264   0.241 -0.6971  0.1219  0.4302
 3418TIP3    H131813   0.549   5.275   0.292 -0.1368  1.8181  1.0191
 3418TIP3    H231814   0.629   5.172   0.215 -3.1728  0.2315 -0.1917
 3419TIP3   OH231815   0.519   4.204   2.963  0.4058  0.5326  0.0200
 3419TIP3    H131816   0.522   4.272   2.896  3.0074 -1.2805 -1.9388
 3419TIP3    H231817   0.490   4.125   2.917 -1.4959  0.0007  1.9644
 3420TIP3   OH231818   2.253   0.376   8.699  0.1628  0.4058 -0.3286
 3420TIP3    H131819   2.324   0.318   8.726 -0.8064  0.4065  2.5998
 3420TIP3    H231820   2.174   0.324   8.709 -0.4418  1.0175 -1.6517
 3421TIP3   OH231821   2.937   1.909   0.607 -0.1045  0.1740 -0.2453
 3421TIP3    H131822   3.017   1.907   0.554  0.5550 -0.9843  0.7449
 3421TIP3    H231823   2.955   1.973   0.675  0.0694 -0.2408  0.1018
 3422TIP3   OH231824   1.411   3.697   1.262 -0.1908 -0.4268 -0.0419
 3422TIP3    H131825   1.454   3.746   1.192  1.9158 -2.4566 -0.2765
 3422TIP3    H231826   1.318   3.717   1.251  0.2245  0.5585 -2.3968
 3423TIP3   OH231827   1.820   0.600   7.726 -0.3647  0.1167  0.1037
 3423TIP3    H131828   1.757   0.533   7.754  0.1455 -0.8005 -0.8954
 3423TIP3    H231829   1.893   0.551   7.689  0.9179  1.1747  1.1372
 3424TIP3   OH231830   0.540   4.654   1.260 -0.1691  0.4323 -0.9074
 3424TIP3    H131831   0.487   4.723   1.301  2.6496  1.7645  0.7514
 3424TIP3    H231832   0.514   4.574   1.307 -1.1279  0.9188 -0.5750
 3425TIP3   OH231833   1.742   3.434   3.098 -0.4472 -0.2781  0.0087
 3425TIP3    H131834   1.663   3.487   3.086 -3.0570 -3.7579  0.3822
 3425TIP3    H231835   1.804   3.470   3.035 -2.9376  1.4662 -1.6651
 3426TIP3   OH231836   1.720   4.124   8.119 -0.2059  0.2990 -0.4868
 3426TIP3    H131837   1.776   4.112   8.195 -0.4719 -0.7181 -0.4282
 3426TIP3    H231838   1.671   4.204   8.137 -0.4742 -0.0785  0.5618
 3427TIP3   OH231839   2.487   6.177   8.436  0.5022 -0.2653 -0.1459
 3427TIP3    H131840   2.460   6.268   8.425 -0.6909 -0.7014 -1.1571
 3427TIP3    H231841   2.583   6.179   8.434  0.5479  1.1208  1.4024
 3428TIP3   OH231842   4.003   3.978   1.823 -0.4102 -0.4283 -0.3346
 3428TIP3    H131843   4.020   4.016   1.737 -0.8827 -0.8024 -0.5954
 3428TIP3    H231844   4.062   4.025   1.882 -0.6383  0.3696 -0.7315
 3429TIP3   OH231845   3.432   5.888   2.411 -0.1754 -0.3015  0.6024
 3429TIP3    H131846   3.362   5.942   2.448  0.8941  0.8612  0.9798
 3429TIP3    H231847   3.387   5.827   2.352 -1.4303  0.8918  0.2853
 3430TIP3   OH231848   4.727   0.579   0.975 -0.0978 -0.1954 -0.0791
 3430TIP3    H131849   4.676   0.498   0.973  0.4270 -0.5806  1.2824
 3430TIP3    H231850   4.662   0.648   0.986 -0.4204 -0.6035  0.6560
 3431TIP3   OH231851   6.181   1.131   8.624 -0.4066  0.0646  0.0063
 3431TIP3    H131852   6.092   1.121   8.657 -0.2809 -0.1995  0.2693
 3431TIP3    H231853   6.213   1.211   8.667 -1.0939  1.1246 -1.3912
 3432TIP3   OH231854   6.345   2.894   8.573  0.6898 -0.8452 -0.0915
 3432TIP3    H131855   6.437   2.903   8.547  0.1494  0.0774 -1.8286
 3432TIP3    H231856   6.296   2.901   8.491 -1.1172  2.0444  1.0892
 3433TIP3   OH231857   1.075   2.227   8.442 -0.0685  0.2821  0.0118
 3433TIP3    H131858   1.079   2.188   8.355 -1.1834  0.1247  0.0160
 3433TIP3    H231859   1.127   2.307   8.436  0.7380 -0.2667 -0.4955
 3434TIP3   OH231860   4.572   2.083   1.045 -0.9568 -0.5937 -0.5606
 3434TIP3    H131861   4.601   2.088   0.954 -0.9966  2.3963 -0.4982
 3434TIP3    H231862   4.506   2.152   1.053  0.1864  0.2998  2.1214
 3435TIP3   OH231863   1.122   2.502   0.159  0.4086 -0.2884  0.0085
 3435TIP3    H131864   1.030   2.479   0.174  0.4326 -1.0398 -0.9252
 3435TIP3    H231865   1.140   2.472   0.070  0.8939  1.9941 -0.7319
 3436TIP3   OH231866   5.413   0.458   6.893  0.3461 -0.3567  0.0241
 3436TIP3    H131867   5.326   0.488   6.919  0.5483  0.4730 -0.2456
 3436TIP3    H231868   5.396   0.386   6.832 -0.1618  0.1979 -0.5036
 3437TIP3   OH231869   3.642   0.507   0.841 -0.1151 -0.1322 -0.2321
 3437TIP3    H131870   3.724   0.557   0.837 -1.4134  2.4685  2.4559
 3437TIP3    H231871   3.589   0.543   0.770 -0.1904  0.7378  0.2496
 3438TIP3   OH231872   3.650   3.860   3.001  0.0544 -1.0143  0.2886
 3438TIP3    H131873   3.568   3.860   3.051  0.3413  0.3990  0.7953
 3438TIP3    H231874   3.622   3.858   2.910 -0.6015  0.4891  0.4285
 3439TIP3   OH231875   4.097   5.630   0.648  0.0095 -0.3202  0.7133
 3439TIP3    H131876   4.075   5.708   0.698  1.1474  0.6091 -0.1732
 3439TIP3    H231877   4.188   5.612   0.670  0.2856 -0.3681 -0.3869
 3440TIP3   OH231878   5.686   4.124   8.658 -0.4313 -0.3380  0.0537
 3440TIP3    H131879   5.738   4.163   8.587  0.3878  0.4090  1.0463
 3440TIP3    H231880   5.637   4.197   8.694  1.3336 -0.0814  2.1223
 3441TIP3   OH231881   6.761   4.329   0.029 -0.8007  0.2342 -0.2449
 3441TIP3    H131882   6.675   4.369   0.041 -1.5182 -0.8224 -1.5813
 3441TIP3    H231883   6.758   4.250   0.084 -1.0356 -0.2719 -0.9688
 3442TIP3   OH231884   5.735   4.758   1.380 -0.3786  0.3031 -0.1698
 3442TIP3    H131885   5.773   4.784   1.296 -0.1853  1.7680  0.3388
 3442TIP3    H231886   5.708   4.667   1.367  1.1787 -0.0442 -1.2817
 3443TIP3   OH231887   0.750   3.538   1.943 -0.9102  0.0313  0.1657
 3443TIP3    H131888   0.750   3.448   1.975 -1.8521  0.1358  0.4817
 3443TIP3    H231889   0.834   3.548   1.899 -1.0756 -1.2039 -0.4453
 3444TIP3   OH231890   1.107   2.182   6.822 -0.3074  0.3127  0.1810
 3444TIP3    H131891   1.114   2.087   6.812  1.5643  0.4966 -0.6595
 3444TIP3    H231892   1.114   2.196   6.916 -0.4184 -0.3762  0.3002
 3445TIP3   OH231893   4.158   5.531   2.654  0.4543  0.0178 -0.7031
 3445TIP3    H131894   4.194   5.443   2.670  1.0995  0.1322 -1.4748
 3445TIP3    H231895   4.074   5.531   2.699  1.1256 -0.4788  0.6095
 3446TIP3   OH231896   1.104   1.633   1.062 -0.6541  0.4561 -0.2458
 3446TIP3    H131897   1.187   1.592   1.039 -1.3651 -0.3059 -1.5416
 3446TIP3    H231898   1.120   1.727   1.047  0.1105  0.3751 -0.0073
 3447TIP3   OH231899   4.879   1.334   6.902 -0.2317 -0.1605  0.4983
 3447TIP3    H131900   4.815   1.390   6.860 -0.8834 -1.1575  0.1368
 3447TIP3    H231901   4.831   1.256   6.927  0.5230 -0.3118  1.5570
 3448TIP3   OH231902   0.331   6.628   1.137  0.0941  0.0466  0.1059
 3448TIP3    H131903   0.241   6.620   1.105 -0.0320  0.5133  0.3468
 3448TIP3    H231904   0.337   6.717   1.171  0.5227 -0.1209  0.4777
 3449TIP3   OH231905   4.535   3.071   2.293  0.3376  0.5256  0.1273
 3449TIP3    H131906   4.552   3.160   2.265  2.5032  0.2536  0.4050
 3449TIP3    H231907   4.540   3.074   2.389  1.2876 -0.0364  0.1026
 3450TIP3   OH231908   6.555   0.631   0.187 -0.7854 -0.3216 -0.5054
 3450TIP3    H131909   6.636   0.643   0.237 -0.8342  0.2516 -0.5590
 3450TIP3    H231910   6.573   0.556   0.129  0.3071  0.8518 -1.7375
 3451TIP3   OH231911   6.135   5.665   7.920 -0.9582 -0.1425 -0.1462
 3451TIP3    H131912   6.128   5.741   7.862  1.7719 -0.4392 -0.9972
 3451TIP3    H231913   6.165   5.702   8.004  0.3015 -0.2378 -0.5396
 3452TIP3   OH231914   2.602   3.524   0.982  0.3013  0.6914 -0.3200
 3452TIP3    H131915   2.523   3.496   1.028  0.2126  1.6901  0.1735
 3452TIP3    H231916   2.637   3.444   0.943  1.0452 -0.4990  2.5277
 3453TIP3   OH231917   2.802   1.194   7.898  0.7438 -0.3093 -0.3918
 3453TIP3    H131918   2.775   1.283   7.874  2.5864  0.3489 -0.1450
 3453TIP3    H231919   2.785   1.142   7.820 -0.4564  0.1983 -0.5041
 3454TIP3   OH231920   5.665   5.271   0.627 -0.1439  0.1024  0.3061
 3454TIP3    H131921   5.752   5.309   0.634 -0.8196  1.7894 -0.0459
 3454TIP3    H231922   5.680   5.180   0.602  1.5539 -0.1435  2.0290
 3455TIP3   OH231923   2.117   0.113   1.052  0.5286 -0.1419  0.0965
 3455TIP3    H131924   2.028   0.139   1.076  1.4170  1.0571  2.3776
 3455TIP3    H231925   2.173   0.179   1.092  2.6000 -2.4097  1.2304
 3456TIP3   OH231926   1.515   5.461   0.716 -0.1628  0.5077 -0.0709
 3456TIP3    H131927   1.537   5.482   0.807  1.1988 -0.2103 -0.2008
 3456TIP3    H231928   1.461   5.534   0.687 -0.1484  1.0308  1.1414
 3457TIP3   OH231929   5.073   2.548   2.516  0.1723  0.4458 -0.3991
 3457TIP3    H131930   5.091   2.641   2.531 -0.9495  1.2119 -3.2752
 3457TIP3    H231931   4.978   2.543   2.507  0.2612 -0.9110 -0.8444
 3458TIP3   OH231932   5.299   5.307   0.290  0.1698  0.1388 -0.4185
 3458TIP3    H131933   5.341   5.261   0.363 -1.5308 -0.4108  0.2595
 3458TIP3    H231934   5.363   5.302   0.219  1.8128  0.5536  0.9603
 3459TIP3   OH231935   3.360   3.033   1.947 -0.3016 -0.2961 -1.0406
 3459TIP3    H131936   3.387   2.942   1.933  1.0669  0.1864 -1.7692
 3459TIP3    H231937   3.344   3.068   1.859 -3.6305 -0.5623 -0.6749
 3460TIP3   OH231938   3.971   2.834   0.154 -0.0121 -0.0859 -0.1385
 3460TIP3    H131939   3.957   2.880   0.238 -1.9135 -0.9260  0.0524
 3460TIP3    H231940   4.042   2.883   0.112  1.4952 -0.0414  2.2319
 3461TIP3   OH231941   1.877   0.279   0.177 -0.3012  0.1396  0.1543
 3461TIP3    H131942   1.924   0.257   0.258  0.6050 -0.2618 -0.4609
 3461TIP3    H231943   1.810   0.211   0.169 -0.6703  0.4196  0.7727
 3462TIP3   OH231944   4.521   2.799   1.094 -0.2946  0.0699  0.0606
 3462TIP3    H131945   4.582   2.821   1.023 -0.8697  0.7674 -0.2197
 3462TIP3    H231946   4.557   2.841   1.172 -0.5035  0.6191 -0.1391
 3463TIP3   OH231947   5.288   2.714   7.856  0.3572  0.2279  0.2168
 3463TIP3    H131948   5.367   2.769   7.853  1.8616 -1.6811  1.9913
 3463TIP3    H231949   5.282   2.675   7.768  0.0220  2.1031 -0.6440
 3464TIP3   OH231950   1.765   5.957   0.311 -0.0829 -0.2304 -0.1570
 3464TIP3    H131951   1.684   5.979   0.265  0.9385  4.3029 -0.2129
 3464TIP3    H231952   1.736   5.908   0.388 -2.5888 -0.9091 -1.4319
 3465TIP3   OH231953   2.612   2.602   0.918  0.1725 -0.0110  0.1881
 3465TIP3    H131954   2.702   2.578   0.942 -0.0718 -1.4184 -0.2312
 3465TIP3    H231955   2.611   2.596   0.822 -0.4554 -0.2963  0.2106
 3466TIP3   OH231956   4.157   4.129   1.998  0.4325 -0.3598  0.0787
 3466TIP3    H131957   4.187   4.220   2.009 -0.9371  0.5105 -2.6025
 3466TIP3    H231958   4.091   4.118   2.067 -0.1563  1.0699 -0.2104
 3467TIP3   OH231959   1.146   3.421   1.300 -0.5498 -0.0567 -0.1467
 3467TIP3    H131960   1.136   3.513   1.323 -0.6400 -0.0128 -0.3612
 3467TIP3    H231961   1.153   3.420   1.204 -0.7049 -0.2841 -0.1573
 3468TIP3   OH231962   6.777   4.325   8.245 -0.3554 -0.4067 -0.0453
 3468TIP3    H131963   6.754   4.232   8.241  0.7963 -0.6746 -1.6038
 3468TIP3    H231964   6.854   4.329   8.301 -0.8971 -0.2543  0.7066
 3469TIP3   OH231965   4.247   3.010   2.259  0.1071  0.3357  0.9776
 3469TIP3    H131966   4.224   2.992   2.350  0.2936  0.9188  1.1457
 3469TIP3    H231967   4.341   3.029   2.262  0.0587  0.6215  0.7084
 3470TIP3   OH231968   0.602   4.368   1.304  0.2749 -0.8450  0.4826
 3470TIP3    H131969   0.529   4.336   1.357  0.6558 -0.4079  1.2886
 3470TIP3    H231970   0.647   4.289   1.274  0.0212 -1.0915  0.7525
 3471TIP3   OH231971   4.382   0.266   2.410  0.4065  0.0121 -0.2279
 3471TIP3    H131972   4.318   0.211   2.455  0.5333  0.6947  0.8322
 3471TIP3    H231973   4.330   0.314   2.345  0.4079 -1.8096 -1.6522
 3472TIP3   OH231974   3.791   2.914   1.768 -0.4427  0.4489  0.2657
 3472TIP3    H131975   3.805   3.008   1.760  0.0641  0.3406 -0.2250
 3472TIP3    H231976   3.791   2.882   1.677  3.2867 -0.5430  0.4380
 3473TIP3   OH231977   0.152   0.969   1.113 -0.1376 -0.7425 -0.4894
 3473TIP3    H131978   0.230   1.000   1.158 -0.2636  1.0964 -1.4506
 3473TIP3    H231979   0.178   0.884   1.077  1.1097 -0.5798 -0.0175
 3474TIP3   OH231980   0.406   3.982   2.849  0.5822  0.1664 -0.2957
 3474TIP3    H131981   0.324   3.934   2.843  0.8959 -0.4190 -0.0011
 3474TIP3    H231982   0.450   3.965   2.765  0.4511  0.3937 -0.4114
 3475TIP3   OH231983   5.594   1.615   0.953  0.1265 -0.0510 -0.3706
 3475TIP3    H131984   5.598   1.519   0.953  1.8374 -0.0821  2.1686
 3475TIP3    H231985   5.682   1.642   0.927 -0.1781  0.8146 -0.5042
 3476TIP3   OH231986   6.012   6.246   1.920  0.2067  0.3089 -0.4257
 3476TIP3    H131987   5.928   6.290   1.931  1.2211  2.3407 -0.3519
 3476TIP3    H231988   6.021   6.192   1.999 -1.4537 -0.7725 -0.9225
 3477TIP3   OH231989   5.921   1.985   3.234 -0.2646  0.1974 -0.1079
 3477TIP3    H131990   5.916   1.901   3.279 -1.2179 -0.2596 -0.9999
 3477TIP3    H231991   5.829   2.007   3.215  0.0689  0.5673 -1.4012
 3478TIP3   OH231992   5.674   3.200   0.319  0.3386 -0.0645  0.4144
 3478TIP3    H131993   5.715   3.280   0.352 -0.5632  0.4876  0.2383
 3478TIP3    H231994   5.687   3.204   0.224  0.7008 -0.3712  0.4474
 3479TIP3   OH231995   4.454   3.630   8.074 -0.2707  0.6239 -0.0379
 3479TIP3    H131996   4.486   3.625   8.164  0.2635 -0.9331 -0.2818
 3479TIP3    H231997   4.382   3.568   8.071  1.3594 -1.3527 -1.2764
 3480TIP3   OH231998   2.997   6.064   8.757 -0.0724 -0.1449 -0.3920
 3480TIP3    H131999   2.919   6.035   8.804 -1.6178 -0.0457 -2.7366
 3480TIP3    H232000   2.978   6.154   8.732  1.9447  0.8177  1.1617
 3481TIP3   OH232001   2.498   3.876   1.176  0.0104  0.8110 -0.1514
 3481TIP3    H132002   2.455   3.956   1.147 -1.4614  0.7460  1.6481
 3481TIP3    H232003   2.591   3.899   1.181 -0.2148  1.9612 -1.0013
 3482TIP3   OH232004   1.176   2.893   7.745 -0.4256 -0.3434  0.2373
 3482TIP3    H132005   1.157   2.977   7.787 -0.0672 -0.1662  0.0403
 3482TIP3    H232006   1.145   2.903   7.655 -2.0326 -1.0280  0.6760
 3483TIP3   OH232007   3.812   4.856   2.537  0.3166  0.3270  0.3800
 3483TIP3    H132008   3.853   4.912   2.604  0.7187  1.0715 -0.4765
 3483TIP3    H232009   3.729   4.898   2.518  0.0634 -0.0554  0.6188
 3484TIP3   OH232010   6.698   0.245   8.579 -0.7350  0.1716  0.2175
 3484TIP3    H132011   6.791   0.240   8.555 -0.5273  1.3218  0.7191
 3484TIP3    H232012   6.678   0.159   8.614  0.1485 -0.0868  0.1163
 3485TIP3   OH232013   0.245   3.436   2.007  0.2369 -0.5571 -0.3683
 3485TIP3    H132014   0.195   3.446   1.926  1.1890  0.1700 -0.8968
 3485TIP3    H232015   0.327   3.395   1.978  0.4319 -0.6328  0.2888
 3486TIP3   OH232016   6.148   0.986   2.633  0.2154  0.1876  0.0970
 3486TIP3    H132017   6.150   0.901   2.591 -2.2854  0.0410  0.1210
 3486TIP3    H232018   6.067   1.027   2.601  1.3514  2.5768  0.0550
 3487TIP3   OH232019   6.747   4.480   8.571 -0.3785 -0.6926 -0.0754
 3487TIP3    H132020   6.806   4.553   8.588 -1.9396  0.9181 -1.2169
 3487TIP3    H232021   6.764   4.418   8.642  1.4450  0.4727  0.5595
 3488TIP3   OH232022   4.709   1.162   1.723 -0.2545 -0.1923  0.6710
 3488TIP3    H132023   4.734   1.222   1.793 -0.7399  0.3225  0.4031
 3488TIP3    H232024   4.756   1.081   1.744 -1.8062 -0.6735  2.6454
 3489TIP3   OH232025   3.434   4.619   0.600  0.7273 -0.0160 -0.4346
 3489TIP3    H132026   3.398   4.692   0.550  1.0736  0.1807 -0.3999
 3489TIP3    H232027   3.374   4.607   0.673 -0.0378 -0.5979 -1.1445
 3490TIP3   OH232028   3.436   2.086   2.390 -0.5097 -0.6437  0.4856
 3490TIP3    H132029   3.391   2.075   2.474  0.8036 -1.9385  1.0623
 3490TIP3    H232030   3.410   2.011   2.338 -0.7020 -0.2551  0.0145
 3491TIP3   OH232031   0.229   5.879   8.080  0.0472 -0.2601  0.7244
 3491TIP3    H132032   0.176   5.933   8.139 -1.4178 -1.3664  0.4797
 3491TIP3    H232033   0.208   5.912   7.993  1.4661  0.7293  0.7309
 3492TIP3   OH232034   2.534   1.770   1.447  0.3046 -0.1058  0.3328
 3492TIP3    H132035   2.572   1.734   1.527 -1.1208 -0.1708  1.0236
 3492TIP3    H232036   2.452   1.809   1.476  0.1168  0.5165 -0.9954
 3493TIP3   OH232037   4.854   3.765   0.566 -0.0954 -0.8169  0.2857
 3493TIP3    H132038   4.796   3.732   0.635  0.1573 -0.3339  0.7386
 3493TIP3    H232039   4.898   3.687   0.532 -0.5879 -1.1159  0.3311
 3494TIP3   OH232040   2.285   4.034   0.580 -0.1273  0.1039  0.4308
 3494TIP3    H132041   2.248   4.082   0.654  1.2177  0.7949  0.6800
 3494TIP3    H232042   2.306   4.101   0.515 -0.9281 -0.4567 -0.4454
 3495TIP3   OH232043   3.929   0.795   1.090 -0.4064 -0.3737 -0.1035
 3495TIP3    H132044   3.985   0.717   1.096  1.2044  0.7283 -0.2081
 3495TIP3    H232045   3.965   0.854   1.156 -1.4137  0.4008 -0.2435
 3496TIP3   OH232046   2.535   3.808   8.039  0.7036  0.4842 -0.4271
 3496TIP3    H132047   2.553   3.808   8.133 -0.5149 -0.0245 -0.1779
 3496TIP3    H232048   2.546   3.899   8.013 -0.2284  0.8655  0.4714
 3497TIP3   OH232049   0.495   0.015   0.669 -0.3173  0.3471 -0.0629
 3497TIP3    H132050   0.492   0.109   0.654 -0.5712  0.2448 -0.6773
 3497TIP3    H232051   0.439  -0.022   0.601  0.2586 -0.2886 -0.2073
 3498TIP3   OH232052   0.898   0.954   8.132 -0.5118  0.1499  0.2114
 3498TIP3    H132053   0.937   1.024   8.185  0.4599  0.4370 -0.8426
 3498TIP3    H232054   0.874   0.997   8.050  0.2006 -0.7512 -0.4956
 3499TIP3   OH232055   5.245   1.373   2.268 -0.2847  0.7523  0.0516
 3499TIP3    H132056   5.309   1.431   2.309  0.8884 -0.2567 -0.3024
 3499TIP3    H232057   5.166   1.427   2.261  0.6849  2.2347 -0.0727
 3500TIP3   OH232058   2.519   5.095   1.089  0.2980  0.1317  0.4663
 3500TIP3    H132059   2.461   5.165   1.060  0.5179 -0.6796 -2.2342
 3500TIP3    H232060   2.483   5.016   1.049  2.6540 -0.5391 -0.5135
 3501TIP3   OH232061   6.689   0.229   1.470  0.8301  0.0361 -0.0136
 3501TIP3    H132062   6.598   0.253   1.454  0.9383  0.2707 -0.2830
 3501TIP3    H232063   6.705   0.256   1.560  0.2868 -1.0804  0.4288
 3502TIP3   OH232064   6.338   3.378   1.972 -1.0288 -0.5369  0.3167
 3502TIP3    H132065   6.392   3.411   2.044 -0.0309  0.1696 -0.7181
 3502TIP3    H232066   6.315   3.289   1.998  0.2286 -0.6871  1.0107
 3503TIP3   OH232067   1.018   1.338   0.829  0.3933  0.2782  0.1940
 3503TIP3    H132068   0.947   1.297   0.879  0.3514 -0.8203 -0.7304
 3503TIP3    H232069   1.098   1.300   0.867  0.5822  2.0118  1.6876
 3504TIP3   OH232070   5.637   1.077   3.138 -0.1346  0.2997  1.0242
 3504TIP3    H132071   5.557   1.062   3.188 -0.2763  0.5873  0.8838
 3504TIP3    H232072   5.703   1.024   3.182 -0.2797  0.4828  1.4593
 3505TIP3   OH232073   1.559   0.989   1.684 -0.2009  0.2847  0.1290
 3505TIP3    H132074   1.501   1.024   1.752  0.7096 -0.5026  1.3807
 3505TIP3    H232075   1.643   0.978   1.729  1.2950  2.4925 -1.9070
 3506TIP3   OH232076   4.285   3.425   8.027  0.0100  0.3751 -0.1855
 3506TIP3    H132077   4.259   3.411   8.118  0.3805 -0.3953 -0.1924
 3506TIP3    H232078   4.216   3.384   7.976 -0.5328  1.3674 -0.2791
 3507TIP3   OH232079   0.410   6.118   2.720 -0.0080  0.3464 -0.0045
 3507TIP3    H132080   0.345   6.057   2.686  1.0311 -1.3744  0.9501
 3507TIP3    H232081   0.366   6.204   2.719 -1.7777 -0.5234 -0.6663
 3508TIP3   OH232082   0.510   5.665   1.846 -0.6344  0.3352 -0.1014
 3508TIP3    H132083   0.498   5.703   1.759 -2.1927  0.1521  0.0057
 3508TIP3    H232084   0.577   5.720   1.887 -0.3062  0.7837 -1.2012
 3509TIP3   OH232085   2.871   4.353   0.847  0.1185  0.1274 -0.1646
 3509TIP3    H132086   2.869   4.258   0.857 -0.4722  0.2424  1.0584
 3509TIP3    H232087   2.938   4.382   0.910  0.9316  0.4726 -1.1560
 3510TIP3   OH232088   0.531   4.003   6.974 -0.1402  0.0036 -0.3090
 3510TIP3    H132089   0.531   4.054   7.055 -1.3880  0.4219 -0.5572
 3510TIP3    H232090   0.558   4.065   6.907  3.6856 -0.9513  0.0573
 3511TIP3   OH232091   3.729   0.338   0.592  0.2966  0.2696 -0.4573
 3511TIP3    H132092   3.753   0.257   0.637  0.6860  0.2470 -0.6914
 3511TIP3    H232093   3.638   0.325   0.565  0.2085  0.1027 -0.0789
 3512TIP3   OH232094   1.336   1.367   0.146 -0.2877  0.5666 -0.1890
 3512TIP3    H132095   1.291   1.367   0.061 -0.3370  1.6342 -0.1735
 3512TIP3    H232096   1.298   1.292   0.193 -0.3274  0.0214 -1.0664
 3513TIP3   OH232097   3.902   2.490   1.726 -0.6479  0.4768  0.4023
 3513TIP3    H132098   3.866   2.542   1.798 -0.2639  0.0409  0.9247
 3513TIP3    H232099   3.923   2.405   1.767  0.8901  0.6895  0.1164
 3514TIP3   OH232100   3.607   3.154   0.636  0.2135 -0.4939 -0.2645
 3514TIP3    H132101   3.650   3.226   0.590  0.5796  1.3873  2.6992
 3514TIP3    H232102   3.535   3.196   0.684 -0.4600 -2.3586  0.4485
 3515TIP3   OH232103   1.196   2.483   1.725 -0.7202  0.1819 -0.4915
 3515TIP3    H132104   1.241   2.546   1.670  0.5570 -0.4822 -0.2568
 3515TIP3    H232105   1.195   2.402   1.674 -1.5050  0.1261 -0.4128
 3516TIP3   OH232106   3.721   1.449   2.479 -0.3120  0.0777  0.2371
 3516TIP3    H132107   3.702   1.537   2.513 -1.0836 -0.2404  0.6635
 3516TIP3    H232108   3.651   1.432   2.415 -0.0181 -0.1252 -0.0338
 3517TIP3   OH232109   3.408   1.366   1.093  0.7683 -0.3334 -0.0235
 3517TIP3    H132110   3.422   1.308   1.168  0.7122  1.5842  1.5845
 3517TIP3    H232111   3.488   1.357   1.041  1.6549 -0.3612  1.2799
 3518TIP3   OH232112   5.946   5.667   0.368 -0.2565 -0.7898  0.0905
 3518TIP3    H132113   5.864   5.666   0.418 -0.9837 -0.1233 -1.0334
 3518TIP3    H232114   5.991   5.588   0.395 -1.5208 -1.4637  0.3342
 3519TIP3   OH232115   3.093   0.364   1.544 -0.1615  0.6048  0.4902
 3519TIP3    H132116   3.076   0.361   1.638 -1.3795 -0.3669  0.2621
 3519TIP3    H232117   3.028   0.426   1.510  1.2672  2.1553  0.4515
 3520TIP3   OH232118   5.951   4.334   2.239  0.2704 -0.0006 -0.2757
 3520TIP3    H132119   5.944   4.399   2.169 -1.3593 -1.0725 -1.1640
 3520TIP3    H232120   5.863   4.296   2.245  0.8961 -1.3294  1.0052
 3521TIP3   OH232121   6.713   6.428   0.771 -0.0490 -0.3863 -0.0821
 3521TIP3    H132122   6.646   6.485   0.810  0.7173 -0.7022  1.7687
 3521TIP3    H232123   6.795   6.476   0.782  0.6096 -1.7873  1.4996
 3522TIP3   OH232124   4.722   5.646   2.806  0.3120  0.4148 -0.0797
 3522TIP3    H132125   4.723   5.551   2.792  0.9423  0.3063  0.6636
 3522TIP3    H232126   4.642   5.661   2.857 -0.9383  0.5730 -1.9729
 3523TIP3   OH232127   4.560   3.297   2.132  0.4064 -0.8785  0.2828
 3523TIP3    H132128   4.631   3.354   2.103  0.4523  0.9628  3.5155
 3523TIP3    H232129   4.480   3.346   2.112  0.4108  0.0293  2.1881
 3524TIP3   OH232130   3.971   3.365   1.521 -0.0806 -0.0986 -0.6960
 3524TIP3    H132131   4.037   3.429   1.548  0.3285 -0.0485 -1.7817
 3524TIP3    H232132   3.908   3.415   1.470 -1.1191 -0.1031  0.5139
 3525TIP3   OH232133   3.033   2.769   1.145 -0.7111 -0.6609  0.0255
 3525TIP3    H132134   2.987   2.850   1.123 -0.3966 -0.3722  0.4067
 3525TIP3    H232135   2.984   2.733   1.219 -0.3368 -0.3524  0.4330
 3526TIP3   OH232136   5.129   2.971   0.220  0.0211  0.1331  0.1795
 3526TIP3    H132137   5.110   2.897   0.279  0.8696  0.4715  0.8984
 3526TIP3    H232138   5.189   2.934   0.155 -0.8164 -0.2077 -0.4220
 3527TIP3   OH232139   0.994   2.402   1.915 -0.2502  0.0704  0.4878
 3527TIP3    H132140   1.047   2.456   1.856  0.9528  0.3316  1.7685
 3527TIP3    H232141   1.058   2.348   1.962 -1.2479 -0.7350  0.9671
 3528TIP3   OH232142   0.977   1.137   0.039 -0.2133 -0.6684  0.1272
 3528TIP3    H132143   0.928   1.059   0.065 -1.4447 -0.4023 -1.2699
 3528TIP3    H232144   0.926   1.175  -0.032  2.0168 -0.3535 -1.3985
 3529TIP3   OH232145   1.209   0.080   3.082 -0.2253 -0.2660 -0.2771
 3529TIP3    H132146   1.300   0.048   3.085  0.2748  1.1370  0.9841
 3529TIP3    H232147   1.166   0.024   3.018  1.6552 -0.6686 -1.2738
 3530TIP3   OH232148   1.149   2.350   8.709  0.6493 -0.3482 -0.4266
 3530TIP3    H132149   1.209   2.389   8.646  1.1585 -0.4377 -0.0019
 3530TIP3    H232150   1.152   2.256   8.691 -1.1578 -0.1786 -1.9612
 3531TIP3   OH232151   2.891   6.408   1.065 -0.3888  0.1693 -0.3817
 3531TIP3    H132152   2.911   6.395   1.158 -3.6729  4.3637  1.2883
 3531TIP3    H232153   2.814   6.354   1.049 -0.0808 -0.2222 -0.5519
 3532TIP3   OH232154   3.176   1.879   0.445  0.3904 -0.4172 -0.2303
 3532TIP3    H132155   3.236   1.884   0.371  0.6329  0.4503  0.0063
 3532TIP3    H232156   3.160   1.786   0.458  1.0808 -0.6163 -0.7803
 3533TIP3   OH232157   0.022   5.662   7.160 -0.1529  0.2715  0.0890
 3533TIP3    H132158   0.069   5.732   7.113 -0.2118 -1.0010 -1.9778
 3533TIP3    H232159   0.090   5.601   7.186 -0.3360 -0.0883 -0.2631
 3534TIP3   OH232160   0.206   1.686   0.844  0.2717 -0.3596  0.6351
 3534TIP3    H132161   0.210   1.771   0.799 -0.2259 -0.7571 -0.1925
 3534TIP3    H232162   0.127   1.691   0.898 -0.3777 -0.6609 -0.2415
 3535TIP3   OH232163   4.179   6.639   7.620 -0.0667  0.5316  0.7979
 3535TIP3    H132164   4.226   6.556   7.617 -1.0642 -0.2756  3.9235
 3535TIP3    H232165   4.238   6.701   7.576  0.5782 -1.7550 -1.9100
 3536TIP3   OH232166   4.326   0.207   2.711 -0.4514  0.3571  0.5083
 3536TIP3    H132167   4.346   0.209   2.805 -0.9128 -0.6648  0.6413
 3536TIP3    H232168   4.233   0.225   2.706 -0.7658 -1.1367  0.3906
 3537TIP3   OH232169   1.717   0.588   8.526 -0.0910  0.2595  0.0435
 3537TIP3    H132170   1.760   0.558   8.445 -1.2673 -0.5555 -0.3136
 3537TIP3    H232171   1.768   0.548   8.596 -0.1813 -0.6156 -0.3653
 3538TIP3   OH232172   2.322   3.637   8.052  0.6168  0.0358  0.2243
 3538TIP3    H132173   2.364   3.721   8.038  2.9113 -1.2990 -1.6677
 3538TIP3    H232174   2.292   3.610   7.965 -0.4099 -0.9528  0.8564
 3539TIP3   OH232175   3.380   5.382   1.297 -0.1731  0.3446 -0.1275
 3539TIP3    H132176   3.454   5.383   1.357 -0.9097  0.0440  0.8016
 3539TIP3    H232177   3.316   5.440   1.337 -0.3511  0.8136 -1.0605
 3540TIP3   OH232178   6.319   2.264   7.779 -0.1115 -0.3750 -0.5189
 3540TIP3    H132179   6.349   2.181   7.742  1.1626 -0.1785  0.0219
 3540TIP3    H232180   6.276   2.240   7.861 -1.5232 -0.6651 -1.3229
 3541TIP3   OH232181   0.778   1.402   0.133  0.4181  0.0016 -0.4084
 3541TIP3    H132182   0.706   1.352   0.095 -0.4233  1.9265 -1.4979
 3541TIP3    H232183   0.749   1.421   0.223  1.4937 -2.7916  0.6172
 3542TIP3   OH232184   5.722   2.068   7.942 -0.7667  0.5446  0.1161
 3542TIP3    H132185   5.818   2.060   7.934 -0.6746 -0.0545  1.5762
 3542TIP3    H232186   5.688   2.012   7.872 -0.0864  1.8669 -1.3562
 3543TIP3   OH232187   1.753   2.037   1.405 -0.0258  0.0551 -0.0609
 3543TIP3    H132188   1.711   2.065   1.324 -0.1579  0.3026  0.0915
 3543TIP3    H232189   1.843   2.014   1.380  0.3853  1.5408 -0.0253
 3544TIP3   OH232190   1.583   3.915   8.053 -0.6784 -0.4244  0.0121
 3544TIP3    H132191   1.630   3.995   8.077 -2.8742  1.5193 -1.6616
 3544TIP3    H232192   1.575   3.920   7.958 -0.4018 -2.9797 -0.2052
 3545TIP3   OH232193   3.809   4.632   0.381  0.0008 -0.4324 -0.9413
 3545TIP3    H132194   3.849   4.613   0.466 -1.1805 -1.0969 -0.5207
 3545TIP3    H232195   3.813   4.727   0.374 -0.0637 -0.3524 -0.0447
 3546TIP3   OH232196   2.070   5.297   2.516  0.0128  0.2492 -0.0689
 3546TIP3    H132197   2.164   5.311   2.503  0.3313 -0.9474  0.7795
 3546TIP3    H232198   2.054   5.324   2.606  0.0950 -1.9562  0.6638
 3547TIP3   OH232199   2.891   3.632   1.112  0.1993 -0.5322 -0.4115
 3547TIP3    H132200   2.863   3.602   1.198 -2.7308  0.3698 -0.9339
 3547TIP3    H232201   2.828   3.592   1.051 -1.0681  2.8126 -1.5563
 3548TIP3   OH232202   5.279   0.804   1.237  0.5398  0.1041 -0.1023
 3548TIP3    H132203   5.317   0.729   1.283 -0.6001 -0.8247 -0.6042
 3548TIP3    H232204   5.309   0.794   1.146 -0.5687 -0.4527 -0.4311
 3549TIP3   OH232205   2.566   4.533   1.664 -0.1704  0.3155 -0.2399
 3549TIP3    H132206   2.523   4.512   1.581  1.8053 -0.2728 -1.1968
 3549TIP3    H232207   2.651   4.490   1.658 -0.2512 -0.3843  2.4485
 3550TIP3   OH232208   4.852   4.509   2.254  0.3584  0.2048 -0.2870
 3550TIP3    H132209   4.780   4.471   2.304 -0.2171  0.8336 -0.6235
 3550TIP3    H232210   4.927   4.507   2.314  0.0244 -0.2977  0.1246
 3551TIP3   OH232211   3.414   4.913   0.028  0.3521  0.4682 -0.6109
 3551TIP3    H132212   3.377   4.826   0.011  0.9343 -0.0645  0.7366
 3551TIP3    H232213   3.341   4.973   0.017 -0.2851 -0.2946 -0.6028
 3552TIP3   OH232214   6.124   3.754   8.745 -0.0398 -0.1665  0.3162
 3552TIP3    H132215   6.077   3.671   8.745 -2.4324  1.0861  0.6606
 3552TIP3    H232216   6.106   3.792   8.831 -1.0592  1.7397 -0.6598
 3553TIP3   OH232217   6.035   1.398   1.474  0.1294  0.1511  0.3857
 3553TIP3    H132218   5.972   1.332   1.501  0.6499 -1.7147 -2.4890
 3553TIP3    H232219   6.109   1.348   1.438  1.2505  2.2743 -0.4565
 3554TIP3   OH232220   5.030   1.219   8.251 -0.2746  0.0904  0.3778
 3554TIP3    H132221   5.079   1.267   8.185  0.2791  1.0036  1.4106
 3554TIP3    H232222   4.991   1.145   8.204  0.8497  0.1928 -0.7677
 3555TIP3   OH232223   0.478   0.275   0.359  0.2900 -0.0887 -0.2273
 3555TIP3    H132224   0.535   0.231   0.422 -1.2686  0.8334  1.9524
 3555TIP3    H232225   0.433   0.204   0.313  0.8892 -0.7854  0.2484
 3556TIP3   OH232226   1.110   6.153   2.429  0.0674 -0.4204 -0.0359
 3556TIP3    H132227   1.190   6.101   2.439 -0.1101 -0.4369  1.5229
 3556TIP3    H232228   1.039   6.088   2.434 -0.0724 -0.4747 -1.9231
 3557TIP3   OH232229   5.233   1.775   1.680 -0.3990 -0.2749  0.2423
 3557TIP3    H132230   5.233   1.868   1.703 -1.9549 -0.4684  1.2093
 3557TIP3    H232231   5.195   1.772   1.593 -1.0348 -0.0500  0.5066
 3558TIP3   OH232232   2.430   6.589   2.239  0.0481  0.3583  0.4106
 3558TIP3    H132233   2.414   6.679   2.270  0.5723  0.2001  1.1518
 3558TIP3    H232234   2.408   6.592   2.145 -0.7553  1.0486  0.6073
 3559TIP3   OH232235   5.795   5.078   0.388 -0.2513 -0.3150 -0.4934
 3559TIP3    H132236   5.814   5.001   0.334 -1.4947 -0.5066 -0.7060
 3559TIP3    H232237   5.739   5.044   0.458 -0.7530  0.3692 -0.5499
 3560TIP3   OH232238   0.458   0.568   0.631  0.9433  0.0685 -0.1843
 3560TIP3    H132239   0.399   0.522   0.572 -1.9980  0.8241  1.9039
 3560TIP3    H232240   0.546   0.553   0.596 -0.2841 -2.9282 -2.3126
 3561TIP3   OH232241   6.141   3.049   0.136  0.3919 -0.3040  0.2296
 3561TIP3    H132242   6.077   3.037   0.207 -1.0812 -1.7033 -1.2477
 3561TIP3    H232243   6.115   3.131   0.093  0.3119 -0.2755  0.3330
 3562TIP3   OH232244   4.134   5.838   1.224  0.7967 -0.0029 -0.2206
 3562TIP3    H132245   4.098   5.762   1.268 -0.5199 -0.9067 -2.6722
 3562TIP3    H232246   4.133   5.908   1.290 -0.3155 -1.4410  1.3469
 3563TIP3   OH232247   1.725   4.565   8.380 -0.2372  0.0890  0.1353
 3563TIP3    H132248   1.808   4.530   8.411 -0.5879  0.6448  1.7927
 3563TIP3    H232249   1.750   4.636   8.321  0.4524 -0.1309  0.1503
 3564TIP3   OH232250   3.757   2.744   2.922  0.1331 -0.1479  0.2873
 3564TIP3    H132251   3.705   2.705   2.853 -0.0322 -1.9021  1.3465
 3564TIP3    H232252   3.746   2.838   2.910 -1.4231 -0.4413 -0.8904
 3565TIP3   OH232253   4.736   4.891   0.561  0.4991  0.5457  0.0690
 3565TIP3    H132254   4.714   4.848   0.644  0.1740 -0.2989 -0.4474
 3565TIP3    H232255   4.823   4.927   0.575  1.2612 -1.2611  0.1339
 3566TIP3   OH232256   0.383   4.098   2.075 -0.6651 -0.8122 -0.3072
 3566TIP3    H132257   0.395   4.193   2.068  0.3934 -0.9425 -0.5176
 3566TIP3    H232258   0.390   4.080   2.168  0.5257 -0.8286 -0.3806
 3567TIP3   OH232259   1.364   6.255   7.681 -0.8679 -0.0942 -0.4541
 3567TIP3    H132260   1.344   6.246   7.588 -0.4103 -0.1638 -0.5521
 3567TIP3    H232261   1.315   6.331   7.710  0.1195  0.8157 -1.0999
 3568TIP3   OH232262   6.405   0.851   1.402 -0.3248 -0.2899  0.0629
 3568TIP3    H132263   6.420   0.917   1.333  0.8279  0.3482  0.8904
 3568TIP3    H232264   6.393   0.902   1.482 -1.0891 -1.0508  0.4562
 3569TIP3   OH232265   4.307   4.520   8.497 -0.1629  0.0841 -0.1602
 3569TIP3    H132266   4.383   4.576   8.486  0.2273  0.0624  1.9465
 3569TIP3    H232267   4.241   4.556   8.438  0.2856  2.3649  0.6278
 3570TIP3   OH232268   3.307   0.133   6.880  0.4682 -0.3419 -0.2011
 3570TIP3    H132269   3.224   0.176   6.903 -0.7245 -1.9237 -1.3205
 3570TIP3    H232270   3.319   0.066   6.948  0.1354 -0.9587 -0.7370
 3571TIP3   OH232271   2.768   1.140   1.602  0.1174 -0.1474  0.4336
 3571TIP3    H132272   2.765   1.053   1.562  1.0858  0.7780 -1.8383
 3571TIP3    H232273   2.684   1.180   1.576  0.0431 -0.1100  0.7347
 3572TIP3   OH232274   3.224   0.395   1.290 -0.6694 -0.4557 -0.2031
 3572TIP3    H132275   3.156   0.390   1.223 -1.8911  0.0749  0.9556
 3572TIP3    H232276   3.177   0.418   1.370  0.7110 -1.3291  0.9040
 3573TIP3   OH232277   6.807   3.911   7.047  0.1715 -0.1333  0.2044
 3573TIP3    H132278   6.763   3.936   6.966 -1.2303  0.1921  1.0317
 3573TIP3    H232279   6.749   3.942   7.117  1.6691  0.2063  1.3585
 3574TIP3   OH232280   1.290   0.584   2.701 -1.0385  0.1836 -0.0873
 3574TIP3    H132281   1.352   0.616   2.766 -1.9518 -0.5374  1.1754
 3574TIP3    H232282   1.258   0.663   2.658 -0.5667  0.6861  0.4618
 3575TIP3   OH232283   3.836   2.075   8.279  0.2927 -0.5140 -0.2411
 3575TIP3    H132284   3.930   2.074   8.298  0.0980  0.5287  0.8825
 3575TIP3    H232285   3.808   2.163   8.302 -1.3317 -1.3686  1.2580
 3576TIP3   OH232286   3.289   0.847   7.647 -0.5026 -0.1739  0.2493
 3576TIP3    H132287   3.262   0.819   7.735 -1.1522 -0.9692 -0.1985
 3576TIP3    H232288   3.221   0.908   7.619  0.5142  1.3416  0.9100
 3577TIP3   OH232289   1.067   6.681   0.342  0.1023  0.7727  0.6030
 3577TIP3    H132290   1.032   6.613   0.400  0.6965 -0.2798 -0.2219
 3577TIP3    H232291   1.139   6.720   0.392  0.2664  0.2419  0.7970
 3578TIP3   OH232292   1.936   1.493   7.897 -0.0463  0.2746  0.0858
 3578TIP3    H132293   2.031   1.504   7.901 -0.2724  2.5862  0.5626
 3578TIP3    H232294   1.903   1.575   7.860 -1.9241 -0.1069  0.7574
 3579TIP3   OH232295   4.244   2.406   1.449  0.2691  0.1334  0.0717
 3579TIP3    H132296   4.153   2.428   1.429  0.1499 -0.3765  0.0504
 3579TIP3    H232297   4.283   2.386   1.364 -0.2147 -1.9518  0.2958
 3580TIP3   OH232298   2.700   1.445   7.744 -0.2572 -0.3599  0.0766
 3580TIP3    H132299   2.692   1.539   7.730  0.6874 -0.3180 -0.2483
 3580TIP3    H232300   2.666   1.405   7.664 -0.0673 -0.2768 -0.0450
 3581TIP3   OH232301   0.401   1.966   7.083  0.4831  0.4816 -0.4354
 3581TIP3    H132302   0.401   1.919   7.166 -0.7928  0.2596 -0.5505
 3581TIP3    H232303   0.494   1.980   7.064  0.8455 -0.6893  0.3376
 3582TIP3   OH232304   2.568   5.422   2.702  0.3248 -0.2242 -0.5268
 3582TIP3    H132305   2.608   5.504   2.673  1.5599 -1.1287 -1.4888
 3582TIP3    H232306   2.571   5.427   2.798  0.2451  0.9004 -0.5633
 3583TIP3   OH232307   4.711   3.101   8.278  0.1685  0.0699  0.2348
 3583TIP3    H132308   4.654   3.085   8.354 -0.3756  1.2170  0.0961
 3583TIP3    H232309   4.651   3.131   8.210  0.9944  2.1296  0.3341
 3584TIP3   OH232310   6.527   2.345   2.423 -0.3012 -0.2953  0.3540
 3584TIP3    H132311   6.525   2.301   2.338 -0.6578 -1.1481  0.7879
 3584TIP3    H232312   6.620   2.350   2.445  0.0306  2.2952 -1.2361
 3585TIP3   OH232313   0.332   1.705   8.377 -0.2303  0.4558 -1.1164
 3585TIP3    H132314   0.411   1.692   8.429 -0.7736  2.0335  0.1827
 3585TIP3    H232315   0.364   1.710   8.286  1.1432  0.8574 -0.6405
 3586TIP3   OH232316   0.803   2.175   8.374  0.1120  0.4822  0.0694
 3586TIP3    H132317   0.858   2.251   8.392  1.9563 -0.3553 -1.6325
 3586TIP3    H232318   0.824   2.152   8.283 -2.0452 -0.7401 -0.1676
 3587TIP3   OH232319   5.857   2.962   2.308  0.2059 -0.2115 -0.1593
 3587TIP3    H132320   5.831   3.031   2.368  0.8271  0.6633 -0.8792
 3587TIP3    H232321   5.799   2.972   2.232 -0.4327 -1.1746  0.1882
 3588TIP3   OH232322   0.942   0.686   7.763  0.3873  0.1028 -0.3441
 3588TIP3    H132323   0.958   0.598   7.729  0.3674 -0.3626  0.7941
 3588TIP3    H232324   1.002   0.742   7.714  0.4953 -0.5639 -0.9895
 3589TIP3   OH232325   6.609   1.583   7.496 -0.2501  0.0657  0.3072
 3589TIP3    H132326   6.654   1.589   7.412 -0.2036  2.2690  0.4259
 3589TIP3    H232327   6.517   1.572   7.473 -0.1127 -0.4767 -0.0003
 3590TIP3   OH232328   4.969   6.580   0.615 -0.5241 -0.5136  0.4967
 3590TIP3    H132329   5.016   6.657   0.648 -0.6694 -0.4734  0.6147
 3590TIP3    H232330   4.923   6.612   0.538  0.2195 -0.7296 -0.0507
 3591TIP3   OH232331   1.452   3.180   2.413 -0.3322 -0.2324  0.3070
 3591TIP3    H132332   1.359   3.194   2.397 -0.1758  1.6592  0.8492
 3591TIP3    H232333   1.486   3.151   2.328 -0.9799  1.5575 -0.6134
 3592TIP3   OH232334   3.234   1.449   6.743 -0.4041  0.2112  0.0483
 3592TIP3    H132335   3.266   1.361   6.724 -2.3479 -0.5074 -0.1244
 3592TIP3    H232336   3.288   1.478   6.817 -1.5352 -2.2982  2.0130
 3593TIP3   OH232337   1.035   4.904   7.378  0.0635 -0.2163  0.5700
 3593TIP3    H132338   0.986   4.986   7.389  0.8078  0.6261 -1.8523
 3593TIP3    H232339   0.967   4.836   7.383 -0.3778  0.2948  4.1935
 3594TIP3   OH232340   1.139   1.431   8.379 -0.2339 -0.3554 -0.2762
 3594TIP3    H132341   1.069   1.371   8.353 -1.3405  1.0710 -0.6538
 3594TIP3    H232342   1.134   1.503   8.316  1.2596  0.0179 -0.0043
 3595TIP3   OH232343   5.020   6.802   0.974  0.4708 -0.1109 -0.0180
 3595TIP3    H132344   5.056   6.763   0.895 -1.5519  0.9101 -1.5385
 3595TIP3    H232345   5.010   6.895   0.953  2.4719  0.7603  2.4685
 3596TIP3   OH232346   1.022   0.082   8.147 -0.3184 -0.3062  0.1969
 3596TIP3    H132347   1.030  -0.011   8.167  1.4566 -0.1426  0.3885
 3596TIP3    H232348   1.107   0.106   8.111 -0.7364  1.2627  0.1869
 3597TIP3   OH232349   2.405   6.103   8.174  0.2278  0.2829 -0.3293
 3597TIP3    H132350   2.408   6.100   8.270  3.2256 -1.0129 -0.3555
 3597TIP3    H232351   2.437   6.017   8.147 -0.3477  0.7139 -2.5379
 3598TIP3   OH232352   0.322   3.828   2.095 -0.2707 -0.0192 -0.1277
 3598TIP3    H132353   0.361   3.913   2.078 -0.3334 -0.3254 -1.9940
 3598TIP3    H232354   0.253   3.819   2.029 -2.5029 -0.1715  2.0247
 3599TIP3   OH232355   5.554   5.738   8.274  0.2327 -0.5155  0.0789
 3599TIP3    H132356   5.525   5.828   8.263 -0.0835 -0.7353 -0.9420
 3599TIP3    H232357   5.552   5.700   8.186  0.5730 -1.4550  0.4584
 3600TIP3   OH232358   1.916   0.186   1.360 -0.0306  0.6256  0.1457
 3600TIP3    H132359   1.958   0.135   1.429  0.2036 -1.1119 -1.2095
 3600TIP3    H232360   1.949   0.275   1.372  0.8816  0.1258  1.5538
 3601TIP3   OH232361   2.727   3.621   7.976 -0.1213 -0.0026 -0.6399
 3601TIP3    H132362   2.770   3.657   7.898 -0.3970 -0.8447 -1.1913
 3601TIP3    H232363   2.650   3.678   7.989  0.5130  0.8018 -0.3281
 3602TIP3   OH232364   1.445   5.417   7.157  0.2328 -0.9432  0.1766
 3602TIP3    H132365   1.509   5.401   7.226 -0.7676 -2.6615  0.7609
 3602TIP3    H232366   1.388   5.340   7.158 -0.3109 -0.6493 -2.0378
 3603TIP3   OH232367   3.771   4.417   1.189  0.6652 -0.4868 -0.4004
 3603TIP3    H132368   3.775   4.471   1.110  0.0228 -0.8769 -0.7086
 3603TIP3    H232369   3.692   4.447   1.235  0.9939 -0.3105  0.0642
 3604TIP3   OH232370   3.957   5.831   7.728  0.4847 -0.5137 -0.0722
 3604TIP3    H132371   3.956   5.770   7.655  0.4177 -1.4416  0.6854
 3604TIP3    H232372   3.895   5.900   7.703  0.7875 -0.5935 -1.0658
 3605TIP3   OH232373   4.185   5.958   0.413 -0.0232  0.0936 -0.0735
 3605TIP3    H132374   4.169   6.051   0.395 -0.4648 -0.0029 -0.1841
 3605TIP3    H232375   4.146   5.944   0.500 -1.1751 -0.3007 -0.6322
 3606TIP3   OH232376   2.765   3.236   1.965 -0.0404 -0.5082 -0.0823
 3606TIP3    H132377   2.720   3.154   1.943 -0.4648 -0.7266  1.4660
 3606TIP3    H232378   2.728   3.301   1.906 -0.1421 -1.3057 -0.9163
 3607TIP3   OH232379   0.850   0.048   0.395  0.1763  0.0755  0.2910
 3607TIP3    H132380   0.914   0.098   0.445  0.9175 -0.8003  0.2360
 3607TIP3    H232381   0.901  -0.022   0.353 -0.4926  0.5359 -1.3464
 3608TIP3   OH232382   2.919   4.720   0.919  0.0858  0.9651  0.7126
 3608TIP3    H132383   2.998   4.768   0.895 -0.1296  0.9498 -0.0565
 3608TIP3    H232384   2.951   4.641   0.963  0.4622  1.4537  1.3339
 3609TIP3   OH232385   2.112   1.877   2.696 -0.3657 -0.0548 -0.6879
 3609TIP3    H132386   2.028   1.847   2.662 -0.3374  0.3258 -1.1009
 3609TIP3    H232387   2.121   1.833   2.781 -0.9273 -0.1841 -0.6950
 3610TIP3   OH232388   5.413   5.210   1.963 -0.2831 -0.1239  0.1355
 3610TIP3    H132389   5.397   5.295   2.005 -2.2942 -0.5119  0.2363
 3610TIP3    H232390   5.365   5.215   1.880 -0.9659 -1.3778  0.4355
 3611TIP3   OH232391   1.680   6.058   2.445 -0.1246 -0.1637 -0.4278
 3611TIP3    H132392   1.650   6.147   2.424 -1.1477 -0.9659 -2.7403
 3611TIP3    H232393   1.761   6.047   2.396 -0.1506 -0.5988 -0.3819
 3612TIP3   OH232394   0.651   3.158   0.114  0.2384 -0.2890 -0.5004
 3612TIP3    H132395   0.619   3.184   0.028  3.5769  1.2913 -1.3953
 3612TIP3    H232396   0.685   3.238   0.153  0.3006 -1.2842  1.6429
 3613TIP3   OH232397   2.148   1.538   0.915  0.4551 -0.2719  0.4935
 3613TIP3    H132398   2.099   1.580   0.985 -3.7669 -1.6191 -1.3274
 3613TIP3    H232399   2.147   1.601   0.843 -0.6633 -1.0958 -0.2650
 3614TIP3   OH232400   0.732   3.935   1.538  0.8529 -0.2529  0.0628
 3614TIP3    H132401   0.789   3.970   1.471 -0.9351 -0.8269 -1.8704
 3614TIP3    H232402   0.658   3.996   1.542 -0.0378 -1.2888  0.0174
 3615TIP3   OH232403   6.544   1.852   2.543  0.5993  0.3785  0.1800
 3615TIP3    H132404   6.453   1.828   2.527  0.7637  0.0248 -0.2082
 3615TIP3    H232405   6.547   1.872   2.637  0.2047  0.0517  0.2617
 3616TIP3   OH232406   1.458   1.710   8.314  0.7769  0.1997 -0.7665
 3616TIP3    H132407   1.536   1.694   8.366  1.5304  0.5306 -1.7626
 3616TIP3    H232408   1.481   1.680   8.226  1.0132  3.2624 -1.8912
 3617TIP3   OH232409   1.643   3.549   2.526  0.1860  0.2151  0.2120
 3617TIP3    H132410   1.628   3.620   2.588  0.3327 -0.1276  0.6451
 3617TIP3    H232411   1.556   3.529   2.492 -0.2309 -0.9478  1.8173
 3618TIP3   OH232412   2.029   3.090   7.908 -0.2925 -0.4020  0.0906
 3618TIP3    H132413   2.031   3.162   7.970  0.8807  0.4763 -0.9250
 3618TIP3    H232414   1.942   3.051   7.919 -0.8382  0.9769  0.8721
 3619TIP3   OH232415   6.058   0.436   7.889 -0.3598  0.5123 -0.7370
 3619TIP3    H132416   5.983   0.474   7.934  0.4511  2.4873 -0.9258
 3619TIP3    H232417   6.133   0.456   7.945  0.0994 -1.1613 -0.6882
 3620TIP3   OH232418   0.431   5.539   0.207 -0.6193 -1.0098 -0.4024
 3620TIP3    H132419   0.391   5.452   0.213  1.4172 -1.9252  1.1017
 3620TIP3    H232420   0.464   5.556   0.296  1.1306  0.2342 -1.2397
 3621TIP3   OH232421   1.967   0.397   1.832  0.2725  0.8737 -0.4201
 3621TIP3    H132422   1.903   0.396   1.904  1.3289  2.4987  0.6128
 3621TIP3    H232423   1.916   0.372   1.755 -1.1767  0.2675  0.6744
 3622TIP3   OH232424   3.405   6.343   1.642  0.6736 -0.1578  0.4984
 3622TIP3    H132425   3.346   6.419   1.644  1.4504  0.4568  2.3665
 3622TIP3    H232426   3.380   6.295   1.563 -0.2240  1.7275 -0.4166
 3623TIP3   OH232427   3.625   1.742   0.154 -0.1429 -0.3137 -0.3226
 3623TIP3    H132428   3.618   1.811   0.088 -0.0388  1.5964  1.5604
 3623TIP3    H232429   3.570   1.671   0.121 -1.3208  1.1781 -1.7314
 3624TIP3   OH232430   5.505   5.384   0.812 -0.3746 -0.0802 -0.2611
 3624TIP3    H132431   5.553   5.356   0.733 -1.8368 -0.9061 -0.9071
 3624TIP3    H232432   5.467   5.468   0.788  1.1979  0.8917  0.4763
 3625TIP3   OH232433   2.994   2.340   0.385  0.0122 -0.3295  0.4600
 3625TIP3    H132434   2.941   2.410   0.348 -0.1815 -1.0490 -0.6832
 3625TIP3    H232435   3.074   2.339   0.332 -0.1296 -1.1756  0.2492
 3626TIP3   OH232436   1.596   6.658   8.530  0.3645  0.3200 -0.4809
 3626TIP3    H132437   1.668   6.700   8.577  0.9036  0.6031 -1.5189
 3626TIP3    H232438   1.558   6.597   8.593  0.8370  0.9403  0.4216
 3627TIP3   OH232439   6.689   0.029   1.281 -0.1029  0.1986  0.0319
 3627TIP3    H132440   6.609  -0.015   1.309 -0.0658  0.5730  0.7506
 3627TIP3    H232441   6.693   0.107   1.335  0.0091  0.9215 -0.9930
 3628TIP3   OH232442   3.618   6.060   3.087  0.0534  0.0542  0.0808
 3628TIP3    H132443   3.589   5.999   3.155 -0.4372  0.8444  0.5965
 3628TIP3    H232444   3.685   6.113   3.130  0.3422  0.0071 -0.3106
 3629TIP3   OH232445   2.840   4.587   1.225  0.8042 -0.2087  0.1173
 3629TIP3    H132446   2.770   4.575   1.162  1.0029  1.7256 -0.5426
 3629TIP3    H232447   2.912   4.532   1.193 -0.0999 -1.5991  0.3772
 3630TIP3   OH232448   6.211   6.495   0.104 -0.5731  0.3580 -0.1247
 3630TIP3    H132449   6.119   6.515   0.089 -1.0708 -0.5754  1.4117
 3630TIP3    H232450   6.233   6.434   0.034 -1.5928 -0.6137  0.3572
 3631TIP3   OH232451   1.250   3.905   0.752  0.2724  0.2697 -0.3841
 3631TIP3    H132452   1.157   3.900   0.773  0.6868 -1.7352  1.2536
 3631TIP3    H232453   1.252   3.926   0.658 -1.8338 -0.7331 -0.7191
 3632TIP3   OH232454   3.518   3.562   7.816 -0.2255 -0.1045 -0.0908
 3632TIP3    H132455   3.463   3.599   7.746  1.4154  1.4514 -0.6198
 3632TIP3    H232456   3.597   3.616   7.815  0.7567 -1.4482  1.5373
 3633TIP3   OH232457   1.558   4.084   1.707  0.3391  0.4087 -0.5897
 3633TIP3    H132458   1.537   4.008   1.653 -1.7927  0.2591  0.3482
 3633TIP3    H232459   1.610   4.048   1.779 -0.7402 -0.2222 -0.0989
 3634TIP3   OH232460   0.441   5.254   0.441  0.1534 -0.1836  0.5509
 3634TIP3    H132461   0.422   5.166   0.472 -2.1073 -0.0691 -0.3507
 3634TIP3    H232462   0.479   5.298   0.517  0.1007 -1.5344  1.4029
 3635TIP3   OH232463   0.702   4.777   1.970  0.0133  0.2032 -0.3300
 3635TIP3    H132464   0.714   4.746   2.060 -0.6640 -0.0640 -0.3253
 3635TIP3    H232465   0.716   4.699   1.916  2.5696  0.7719 -0.6458
 3636TIP3   OH232466   0.153   2.051   0.036 -0.3172 -0.1830 -0.1302
 3636TIP3    H132467   0.234   2.023  -0.007 -0.1524  0.5730 -0.3260
 3636TIP3    H232468   0.084   2.032  -0.028 -0.0459  1.1588 -0.8540
 3637TIP3   OH232469   4.742   5.163   8.137 -0.4822  0.0852  0.7593
 3637TIP3    H132470   4.804   5.219   8.183 -0.8510  1.1915 -0.0540
 3637TIP3    H232471   4.717   5.097   8.201  1.2657 -0.1866  1.2109
 3638TIP3   OH232472   3.679   6.652   8.162 -0.5393  1.0310 -0.1043
 3638TIP3    H132473   3.711   6.742   8.169  1.1845  0.3169  2.2504
 3638TIP3    H232474   3.685   6.617   8.251  1.2355 -2.1840 -1.3454
 3639TIP3   OH232475   4.569   5.954   0.682 -0.0864  0.3151 -0.2706
 3639TIP3    H132476   4.587   6.024   0.619 -0.2144 -0.7673 -1.5560
 3639TIP3    H232477   4.494   5.907   0.645  1.0160 -1.4997 -0.3415
 3640TIP3   OH232478   5.447   1.200   8.487 -0.4756  0.2808 -0.8143
 3640TIP3    H132479   5.471   1.166   8.573 -1.3271  0.7723 -0.3641
 3640TIP3    H232480   5.471   1.292   8.490 -0.3314  0.2571 -1.1763
 3641TIP3   OH232481   4.897   4.238   2.051 -0.4418  0.1315  0.5339
 3641TIP3    H132482   4.980   4.284   2.038 -0.3993 -0.0508  0.1539
 3641TIP3    H232483   4.830   4.305   2.041 -0.5277 -0.2540 -2.3492
 3642TIP3   OH232484   5.652   2.946   8.150  0.1525 -0.2016 -0.1335
 3642TIP3    H132485   5.728   2.977   8.201  0.7735 -0.4700 -0.8782
 3642TIP3    H232486   5.635   3.015   8.087  0.2642 -0.4830 -0.4734
 3643TIP3   OH232487   1.208   4.095   7.880  0.0232 -0.3498  0.3110
 3643TIP3    H132488   1.277   4.071   7.818  0.2559  0.0092  0.4224
 3643TIP3    H232489   1.155   4.159   7.833  0.4217  0.2108  0.6002
 3644TIP3   OH232490   3.112   4.876   8.321 -0.3579  0.2077  0.0552
 3644TIP3    H132491   3.207   4.887   8.319 -0.4646  1.1179 -0.0505
 3644TIP3    H232492   3.089   4.850   8.232 -0.2368  0.1538  0.0388
 3645TIP3   OH232493   5.468   1.843   1.043  0.2387  0.4740  0.1458
 3645TIP3    H132494   5.490   1.758   1.004  0.3256  0.3893  0.3777
 3645TIP3    H232495   5.547   1.870   1.089  0.8057  1.4939 -1.3319
 3646TIP3   OH232496   1.013   5.265   7.236  0.1356  0.1738  0.4088
 3646TIP3    H132497   1.094   5.215   7.240 -0.4376 -0.8563 -0.2476
 3646TIP3    H232498   0.990   5.281   7.327 -0.5567 -2.3105  0.7388
 3647TIP3   OH232499   2.861   3.437   0.889 -0.3095 -0.4447  0.4712
 3647TIP3    H132500   2.846   3.343   0.885 -1.2689 -0.3208  0.8563
 3647TIP3    H232501   2.827   3.470   0.806  0.7874 -0.5183 -0.0276
 3648TIP3   OH232502   6.324   6.106   1.027 -1.4304  0.0261 -0.2060
 3648TIP3    H132503   6.259   6.126   0.960 -1.0504  1.4739 -0.1677
 3648TIP3    H232504   6.404   6.148   0.996 -1.1490  0.3720  0.9620
 3649TIP3   OH232505   1.179   2.416   7.840  0.5279 -0.0269  0.8596
 3649TIP3    H132506   1.106   2.478   7.836  0.7699  0.2893  1.3459
 3649TIP3    H232507   1.241   2.447   7.773  0.4728  0.0275  0.8341
 3650TIP3   OH232508   1.108   5.842   0.908  0.0902  0.0788 -0.2824
 3650TIP3    H132509   1.077   5.932   0.917 -2.9151 -0.8783 -0.0596
 3650TIP3    H232510   1.115   5.828   0.813 -1.9514 -0.1469 -0.4464
 3651TIP3   OH232511   0.644   3.886   0.209  0.0424 -0.3999  0.4898
 3651TIP3    H132512   0.602   3.806   0.242 -0.1796  0.0174  1.2255
 3651TIP3    H232513   0.661   3.867   0.116  0.1337 -1.3626  0.6868
 3652TIP3   OH232514   2.723   2.907   8.111  0.1223  0.3315  0.1843
 3652TIP3    H132515   2.742   2.826   8.063 -1.5824  0.5895 -1.0506
 3652TIP3    H232516   2.687   2.877   8.194  2.9506 -0.1273  1.3325
 3653TIP3   OH232517   4.038   6.595   0.385  0.0354  0.4481 -0.2493
 3653TIP3    H132518   4.047   6.541   0.464  0.2646 -0.9543 -1.1920
 3653TIP3    H232519   4.083   6.545   0.317 -1.3096  0.9863 -1.5776
 3654TIP3   OH232520   6.720   3.718   8.342 -0.0451  0.3902 -0.3734
 3654TIP3    H132521   6.630   3.744   8.358 -1.1012 -1.9890 -1.9675
 3654TIP3    H232522   6.753   3.689   8.428 -0.9479  0.7834  0.1160
 3655TIP3   OH232523   2.593   5.294   1.698 -0.9996  0.0032 -0.3437
 3655TIP3    H132524   2.589   5.219   1.757  1.8559 -1.3829 -1.7273
 3655TIP3    H232525   2.686   5.309   1.684 -1.3801  4.4611  0.5377
 3656TIP3   OH232526   5.130   5.004   1.511 -0.2593  0.2592  0.6819
 3656TIP3    H132527   5.115   5.097   1.494  0.1854  0.0481 -0.9580
 3656TIP3    H232528   5.217   4.986   1.476 -1.1605 -1.2270 -0.9706
 3657TIP3   OH232529   1.206   4.826   7.784 -0.0516 -0.4388 -0.0877
 3657TIP3    H132530   1.177   4.765   7.716  1.6228 -0.5592 -0.7599
 3657TIP3    H232531   1.253   4.772   7.847 -2.5429 -0.4981  1.8431
 3658TIP3   OH232532   4.371   0.892   0.318 -0.3924  0.1738 -0.2688
 3658TIP3    H132533   4.465   0.908   0.329 -0.1554 -0.5338 -1.1481
 3658TIP3    H232534   4.358   0.805   0.354 -1.0848  0.9693  1.5572
 3659TIP3   OH232535   4.139   6.037   8.485 -0.0787  0.3460 -0.9537
 3659TIP3    H132536   4.073   6.033   8.555  1.9060 -4.2370  1.0844
 3659TIP3    H232537   4.208   6.093   8.521 -0.8090  1.4122 -1.1438
 3660TIP3   OH232538   1.556   0.053   1.504  0.1938  0.3574  0.1487
 3660TIP3    H132539   1.602   0.062   1.588  0.3728 -0.2898  0.1254
 3660TIP3    H232540   1.548  -0.042   1.491 -0.9393  0.4537  0.0319
 3661TIP3   OH232541   4.969   5.682   8.627  0.2247 -0.1231 -0.0733
 3661TIP3    H132542   4.990   5.590   8.643  0.1399 -0.3963 -1.4033
 3661TIP3    H232543   4.873   5.685   8.629  0.1763 -0.3239 -1.2129
 3662TIP3   OH232544   6.087   6.739   1.684 -0.2405 -0.4391  0.2011
 3662TIP3    H132545   6.031   6.676   1.638 -0.6010  1.2167 -1.7534
 3662TIP3    H232546   6.175   6.720   1.651 -0.4818  0.6651 -1.1458
 3663TIP3   OH232547   0.674   5.270   8.401  0.3625  0.0471 -0.3197
 3663TIP3    H132548   0.606   5.337   8.393  0.1540 -0.2634 -1.2724
 3663TIP3    H232549   0.626   5.188   8.413  0.5331 -0.2396 -1.4779
 3664TIP3   OH232550   1.816   4.682   7.433  0.7352  0.2869  0.4960
 3664TIP3    H132551   1.838   4.594   7.401 -2.1733  0.0121 -1.1290
 3664TIP3    H232552   1.797   4.732   7.353  0.1242  1.7279  1.5059
 3665TIP3   OH232553   2.630   3.067   7.749  1.4121 -0.1359  0.1619
 3665TIP3    H132554   2.568   3.077   7.821  2.3531 -0.1405  1.0100
 3665TIP3    H232555   2.618   3.145   7.695  2.4751  1.2270  1.7882
 3666TIP3   OH232556   3.519   2.959   7.976  0.1378 -0.0821  0.2724
 3666TIP3    H132557   3.555   3.025   7.916  0.4041 -0.6008 -0.1438
 3666TIP3    H232558   3.586   2.950   8.044  0.2220 -0.1291  0.1820
 3667TIP3   OH232559   6.480   0.019   0.728  0.1769  0.5040  0.0029
 3667TIP3    H132560   6.473   0.114   0.722  0.0656  0.5945  1.2127
 3667TIP3    H232561   6.398  -0.008   0.769  0.6210 -0.0008  0.5846
 3668TIP3   OH232562   1.744   0.485   0.841  0.1404  0.1940 -0.3242
 3668TIP3    H132563   1.826   0.445   0.812  0.4413  0.0037  0.7268
 3668TIP3    H232564   1.738   0.462   0.934 -0.7738  0.7719 -0.2266
 3669TIP3   OH232565   5.221   3.174   1.554  0.0331  0.3785 -0.0737
 3669TIP3    H132566   5.315   3.193   1.552  0.7942 -2.5748  0.8254
 3669TIP3    H232567   5.215   3.082   1.526 -2.5333  0.3383  0.3492
 3670TIP3   OH232568   0.220   4.595   0.589 -0.0177  0.1096 -0.9507
 3670TIP3    H132569   0.125   4.604   0.596  0.1822  1.9703 -0.1999
 3670TIP3    H232570   0.232   4.515   0.537 -1.9570 -0.6545 -0.3305
 3671TIP3   OH232571   5.245   6.493   1.791  0.2975 -0.5208  0.3230
 3671TIP3    H132572   5.235   6.452   1.705 -0.6480  1.0550 -0.3593
 3671TIP3    H232573   5.325   6.454   1.827  0.1559 -1.9483 -0.8283
 3672TIP3   OH232574   0.931   1.772   1.555  0.0831  0.4110 -0.1870
 3672TIP3    H132575   0.954   1.683   1.526  0.5018  0.5512 -0.2912
 3672TIP3    H232576   0.874   1.758   1.631 -1.7803  0.0087 -1.5816
 3673TIP3   OH232577   2.245   0.506   1.547  0.1715 -0.2981  0.1690
 3673TIP3    H132578   2.330   0.540   1.517  0.5525 -1.5627 -0.2448
 3673TIP3    H232579   2.262   0.475   1.636 -0.2266  0.7351  0.6227
 3674TIP3   OH232580   3.209   0.712   3.153 -0.4545 -0.3581  0.0660
 3674TIP3    H132581   3.283   0.674   3.200 -0.7561  1.0024  1.7603
 3674TIP3    H232582   3.149   0.639   3.139  0.4842 -1.1560  0.1254
 3675TIP3   OH232583   1.893   1.041   1.987  0.2668 -0.3893  0.6023
 3675TIP3    H132584   1.887   0.975   1.918 -1.2413 -0.8700  1.1580
 3675TIP3    H232585   1.908   1.123   1.941 -0.0742 -0.7947 -0.2571
 3676TIP3   OH232586   0.200   2.819   1.415  0.7380 -0.3725 -0.3630
 3676TIP3    H132587   0.272   2.758   1.433  0.8247 -0.1448  0.0819
 3676TIP3    H232588   0.163   2.839   1.501  0.4397 -0.1213 -0.5449
 3677TIP3   OH232589   4.410   6.011   2.385  0.0032 -0.2287 -0.4636
 3677TIP3    H132590   4.466   5.969   2.320  0.9862  0.2383  0.0759
 3677TIP3    H232591   4.458   6.003   2.467  0.5919  2.5916 -0.4532
 3678TIP3   OH232592   6.432   2.630   7.552 -0.0134 -0.2202 -0.5594
 3678TIP3    H132593   6.446   2.537   7.539  1.9719 -0.0346 -0.0226
 3678TIP3    H232594   6.442   2.669   7.466  1.2365 -0.2911 -0.4572
 3679TIP3   OH232595   2.572   1.186   0.788 -0.3282 -0.1869 -0.1892
 3679TIP3    H132596   2.544   1.152   0.873 -1.7447  0.9653 -0.1459
 3679TIP3    H232597   2.493   1.222   0.749  0.3754 -0.3351 -1.8438
 3680TIP3   OH232598   1.645   3.351   8.637  0.0242  0.0390  0.3995
 3680TIP3    H132599   1.575   3.304   8.681 -0.3491  0.9486  0.8136
 3680TIP3    H232600   1.600   3.417   8.584  0.5423  0.2468  0.2029
 3681TIP3   OH232601   3.658   2.215   2.710  0.1057 -0.9397  0.5559
 3681TIP3    H132602   3.727   2.242   2.770  0.1321  0.1698  0.0529
 3681TIP3    H232603   3.601   2.291   2.702  0.4453 -0.8278 -1.3056
 3682TIP3   OH232604   4.398   3.881   8.189  0.0488 -0.6982 -0.3534
 3682TIP3    H132605   4.342   3.837   8.253  0.0753 -0.9372 -0.4924
 3682TIP3    H232606   4.431   3.810   8.134  0.4014 -0.5439 -0.3403
 3683TIP3   OH232607   0.134   6.161   0.648  0.0407 -0.8856 -0.6493
 3683TIP3    H132608   0.202   6.219   0.681 -1.8549  1.2995 -0.3182
 3683TIP3    H232609   0.121   6.096   0.717  0.7525 -0.4204 -0.0642
 3684TIP3   OH232610   5.063   4.461   0.557 -0.0287  0.4282  0.4111
 3684TIP3    H132611   5.027   4.380   0.595  0.6209  0.0940  0.3301
 3684TIP3    H232612   5.129   4.489   0.620  0.9019 -0.0083 -0.3434
 3685TIP3   OH232613   6.526   1.778   2.816  0.5049  0.3003 -0.0757
 3685TIP3    H132614   6.517   1.867   2.851  0.0103 -0.1908  1.0966
 3685TIP3    H232615   6.546   1.724   2.892 -1.4649 -0.9369 -0.3610
 3686TIP3   OH232616   5.137   4.348   8.015 -0.4635  0.5022  0.0217
 3686TIP3    H132617   5.121   4.343   8.110  0.1669 -1.1490  0.0832
 3686TIP3    H232618   5.050   4.339   7.976 -0.6106 -0.0781  0.4515
 3687TIP3   OH232619   1.932   4.372   0.166  0.1170  0.1968 -0.2889
 3687TIP3    H132620   1.960   4.305   0.230 -1.0725 -0.3882 -0.3494
 3687TIP3    H232621   1.978   4.348   0.086 -2.4596 -2.3969 -1.1578
 3688TIP3   OH232622   0.515   1.490   1.749 -0.0360 -0.3750 -0.1903
 3688TIP3    H132623   0.601   1.475   1.709 -0.0156 -0.0430 -0.2750
 3688TIP3    H232624   0.520   1.447   1.834  0.0499 -0.7671 -0.3914
 3689TIP3   OH232625   4.779   1.241   2.478 -0.6455 -0.0684 -0.2541
 3689TIP3    H132626   4.775   1.334   2.499  1.5707  0.1128 -0.4054
 3689TIP3    H232627   4.803   1.238   2.385  2.8783 -0.6274  0.5074
 3690TIP3   OH232628   2.746   2.296   0.793 -0.4823  0.5376 -0.6564
 3690TIP3    H132629   2.682   2.284   0.863  0.7666  0.4503  0.5116
 3690TIP3    H232630   2.813   2.352   0.832  0.8149 -0.4494 -1.3859
 3691TIP3   OH232631   1.260   3.184   0.873  0.5207  0.2052  0.7609
 3691TIP3    H132632   1.175   3.229   0.869  1.2018  1.4530 -0.5679
 3691TIP3    H232633   1.238   3.092   0.880 -0.9988  0.3568 -1.1249
 3692TIP3   OH232634   2.306   6.446   1.666  0.3415  0.7021 -0.6403
 3692TIP3    H132635   2.376   6.446   1.601 -0.4549  1.2460 -1.5279
 3692TIP3    H232636   2.243   6.511   1.634 -1.8833 -1.6111 -1.3513
 3693TIP3   OH232637   6.295   1.657   1.335  0.5327 -0.2926  0.6093
 3693TIP3    H132638   6.334   1.684   1.417  0.9297 -0.7832  0.5832
 3693TIP3    H232639   6.361   1.602   1.293 -0.1359 -1.0578  0.5266
 3694TIP3   OH232640   3.186   6.310   8.725  0.4444  0.0902 -0.1120
 3694TIP3    H132641   3.277   6.339   8.721  1.1500 -1.7317  1.3422
 3694TIP3    H232642   3.165   6.283   8.636  1.3596  0.4577 -0.4433
 3695TIP3   OH232643   3.060   0.526   0.243  0.6034  0.2901  0.4953
 3695TIP3    H132644   3.139   0.501   0.195  0.1240  0.4065 -0.3801
 3695TIP3    H232645   3.077   0.616   0.271 -0.1489  1.2629 -1.8475
 3696TIP3   OH232646   5.810   4.291   1.113 -0.5369  0.3965  0.5746
 3696TIP3    H132647   5.851   4.336   1.187  0.4483 -0.5617  0.6317
 3696TIP3    H232648   5.736   4.245   1.151 -0.2769  0.2418  0.8979
 3697TIP3   OH232649   5.761   3.658   0.744 -0.0768  0.4713 -0.1096
 3697TIP3    H132650   5.767   3.608   0.826  1.8976  1.2521  0.2900
 3697TIP3    H232651   5.851   3.684   0.725 -0.4615  0.2197 -2.6299
 3698TIP3   OH232652   2.436   5.317   0.278  0.1218  0.5536 -0.3627
 3698TIP3    H132653   2.348   5.297   0.246  0.5583  0.6470 -1.6736
 3698TIP3    H232654   2.428   5.317   0.374 -0.8367 -1.5659 -0.3977
 3699TIP3   OH232655   2.133   1.502   0.372  0.1858 -0.1116 -0.3806
 3699TIP3    H132656   2.185   1.476   0.448 -1.1982  1.2055  1.0954
 3699TIP3    H232657   2.135   1.598   0.373 -2.4383  0.0122 -0.0564
 3700TIP3   OH232658   5.670   1.451   2.636  0.0486 -0.1971  0.1709
 3700TIP3    H132659   5.731   1.499   2.691  0.3351 -0.0592 -0.2665
 3700TIP3    H232660   5.613   1.518   2.598  0.6331 -0.1496 -0.6722
 3701TIP3   OH232661   0.303   3.772   2.377  0.1476 -0.0891 -0.1277
 3701TIP3    H132662   0.370   3.709   2.351 -1.6448 -1.4473 -1.6801
 3701TIP3    H232663   0.304   3.838   2.308  2.5979  2.2552  1.8962
 3702TIP3   OH232664   0.597   5.182   0.903  0.0616  0.2215 -0.3841
 3702TIP3    H132665   0.637   5.267   0.885 -0.3976  0.2014 -1.5615
 3702TIP3    H232666   0.644   5.150   0.980  1.1080  0.9790 -0.6776
 3703TIP3   OH232667   0.132   1.344   7.920  0.2613 -0.2629 -0.2202
 3703TIP3    H132668   0.154   1.302   7.836 -2.3875 -0.5959 -0.8411
 3703TIP3    H232669   0.085   1.423   7.895 -1.2871 -0.7827  0.9038
 3704TIP3   OH232670   4.893   5.857   2.867 -0.1508  0.1541 -0.1450
 3704TIP3    H132671   4.845   5.781   2.833 -1.5639  1.1415 -0.4723
 3704TIP3    H232672   4.946   5.822   2.938 -2.5130 -0.7904  1.2569
 3705TIP3   OH232673   3.439   2.012   8.177 -0.1952 -0.0433  0.1781
 3705TIP3    H132674   3.407   1.985   8.091  1.9239  0.4920 -0.8459
 3705TIP3    H232675   3.484   1.935   8.212 -1.0532 -0.2608  0.8335
 3706TIP3   OH232676   5.942   0.205   2.255 -0.0322  0.5846 -0.6531
 3706TIP3    H132677   6.031   0.175   2.236 -1.1284 -3.6338 -0.2912
 3706TIP3    H232678   5.909   0.236   2.171  1.7869  2.4907 -0.7328
 3707TIP3   OH232679   5.291   0.826   0.098  0.1767 -0.3488  0.1873
 3707TIP3    H132680   5.276   0.802   0.007  0.5570  0.3833 -0.0675
 3707TIP3    H232681   5.214   0.878   0.122  0.2010 -0.3254  0.2136
 3708TIP3   OH232682   0.218   1.235   8.330 -0.1222  0.2892 -0.5075
 3708TIP3    H132683   0.297   1.232   8.276 -0.2304 -0.8287 -0.6185
 3708TIP3    H232684   0.250   1.221   8.419 -0.1301  0.4249 -0.4834
 3709TIP3   OH232685   5.754   3.810   8.118  0.3227 -0.1182 -0.0827
 3709TIP3    H132686   5.757   3.748   8.045  1.8917  0.4166 -0.5216
 3709TIP3    H232687   5.842   3.807   8.156 -0.2927  0.0445  1.4409
 3710TIP3   OH232688   3.572   2.434   0.356 -0.5534 -0.1015  0.6788
 3710TIP3    H132689   3.624   2.374   0.410 -0.2560 -0.9713 -0.5224
 3710TIP3    H232690   3.573   2.516   0.404  1.8960 -0.0934  0.7573
 3711TIP3   OH232691   2.344   5.277   0.971 -0.6507 -0.0707 -0.0282
 3711TIP3    H132692   2.350   5.230   0.888 -1.8091  1.6078 -1.1219
 3711TIP3    H232693   2.352   5.369   0.947 -1.6299  0.4912  1.6394
 3712TIP3   OH232694   1.274   4.052   1.750 -0.5862  0.2069  0.3064
 3712TIP3    H132695   1.295   4.107   1.826  0.7781 -1.1673  0.9841
 3712TIP3    H232696   1.356   4.046   1.701 -0.7411 -1.0587  0.1632
 3713TIP3   OH232697   2.108   5.529   8.570  0.2456  0.3878 -0.0792
 3713TIP3    H132698   2.199   5.547   8.590  0.9039 -1.5807 -1.0277
 3713TIP3    H232699   2.096   5.562   8.481 -0.4385  2.0177  0.5838
 3714TIP3   OH232700   6.425   0.622   2.156 -0.7049  0.1998  0.5799
 3714TIP3    H132701   6.378   0.664   2.228 -0.0073  1.0937  0.5239
 3714TIP3    H232702   6.474   0.551   2.198  1.0058  1.7338  1.2796
 3715TIP3   OH232703   4.880   4.110   8.351 -0.4073  0.1817  0.1416
 3715TIP3    H132704   4.787   4.088   8.346 -0.2837 -0.1053 -1.5045
 3715TIP3    H232705   4.912   4.059   8.425 -1.9958  2.1333  2.3474
 3716TIP3   OH232706   3.463   4.337   8.625  0.0760 -0.2377 -0.3699
 3716TIP3    H132707   3.551   4.374   8.638 -1.4352  2.8520  2.8120
 3716TIP3    H232708   3.410   4.412   8.599 -1.7235 -2.0402 -2.2408
 3717TIP3   OH232709   2.458   2.531   8.254  0.0649  0.0175 -0.0854
 3717TIP3    H132710   2.509   2.545   8.334 -0.7928  0.2071  0.4377
 3717TIP3    H232711   2.415   2.614   8.237 -0.7912 -0.3954 -0.0000
 3718TIP3   OH232712   1.825   1.564   1.649 -0.1892 -0.0740  0.1967
 3718TIP3    H132713   1.916   1.591   1.634 -0.5242  1.2366  0.3939
 3718TIP3    H232714   1.821   1.547   1.743 -0.3849  0.8280  0.3548
 3719TIP3   OH232715   5.179   6.726   7.183  0.7487  1.0036  0.0726
 3719TIP3    H132716   5.200   6.639   7.149  1.0307  0.7007  0.9817
 3719TIP3    H232717   5.257   6.779   7.165  0.2047  1.3651 -1.3773
 3720TIP3   OH232718   0.219   2.827   0.830 -0.0879  0.6179 -0.0905
 3720TIP3    H132719   0.295   2.874   0.865  0.7180 -1.7698  1.6012
 3720TIP3    H232720   0.251   2.786   0.749 -0.2197  1.3129 -0.5045
 3721TIP3   OH232721   3.812   4.029   0.571  0.0156 -0.0113  0.2346
 3721TIP3    H132722   3.886   4.046   0.630  0.6873 -1.3559 -0.1761
 3721TIP3    H232723   3.851   4.028   0.484 -0.7773  0.8191 -0.1433
 3722TIP3   OH232724   0.793   5.831   0.484  0.2445  0.1666 -0.4426
 3722TIP3    H132725   0.837   5.748   0.502 -1.3043 -1.4507 -3.3294
 3722TIP3    H232726   0.709   5.824   0.528  0.1772  0.2424 -0.5571
 3723TIP3   OH232727   1.393   3.015   2.083  0.2342  0.0043  0.1052
 3723TIP3    H132728   1.477   2.972   2.070 -0.2790 -0.5481 -1.8023
 3723TIP3    H232729   1.329   2.944   2.078 -0.5826  0.7878 -2.4949
 3724TIP3   OH232730   5.549   2.752   1.160  0.3276 -0.0802 -0.2801
 3724TIP3    H132731   5.607   2.807   1.107 -1.0629 -0.2778 -2.1209
 3724TIP3    H232732   5.472   2.806   1.176  1.2089  0.4289  2.7464
 3725TIP3   OH232733   6.254   1.423   8.455  0.1678 -0.3722  0.3965
 3725TIP3    H132734   6.211   1.508   8.466  0.2411  0.2058 -2.8187
 3725TIP3    H232735   6.184   1.359   8.466  0.1355 -0.0003  2.9899
 3726TIP3   OH232736   1.398   4.690   0.942  0.4849  0.0931 -0.6586
 3726TIP3    H132737   1.367   4.780   0.932  0.1925 -0.0183 -0.7549
 3726TIP3    H232738   1.493   4.699   0.953  0.4944  0.3952 -0.9515
 3727TIP3   OH232739   5.969   4.078   7.606 -0.1373  0.1120  0.8617
 3727TIP3    H132740   5.989   4.166   7.636  1.1754  0.3122 -0.4798
 3727TIP3    H232741   5.878   4.083   7.577  0.3013  1.4134 -0.4194
 3728TIP3   OH232742   5.806   1.477   0.556  0.1234  0.6820 -0.0167
 3728TIP3    H132743   5.806   1.548   0.620 -2.4299  1.8998 -1.2146
 3728TIP3    H232744   5.795   1.398   0.608 -3.7485  1.7552  1.1783
 3729TIP3   OH232745   2.386   3.497   2.442  0.0013  0.2961  0.0495
 3729TIP3    H132746   2.311   3.471   2.389  0.6996  0.8229 -1.2335
 3729TIP3    H232747   2.433   3.560   2.388  1.2628  0.1360  0.9218
 3730TIP3   OH232748   5.586   1.915   8.170  0.0789 -0.1058  0.2259
 3730TIP3    H132749   5.643   1.838   8.165  2.2063  1.4579 -0.7782
 3730TIP3    H232750   5.633   1.977   8.224 -1.2156  0.8381  0.3124
 3731TIP3   OH232751   6.247   4.635   2.235  0.0644  0.4903 -0.1905
 3731TIP3    H132752   6.171   4.628   2.294 -0.8064 -0.5420 -1.3939
 3731TIP3    H232753   6.299   4.557   2.255 -0.4264 -0.0628 -1.0251
 3732TIP3   OH232754   6.614   1.855   7.148 -0.0673 -0.1078  0.2175
 3732TIP3    H132755   6.609   1.933   7.204  0.9079  0.1576 -0.0414
 3732TIP3    H232756   6.650   1.888   7.065 -2.3145 -0.3210 -0.9042
 3733TIP3   OH232757   1.459   0.714   0.701  0.7114 -0.3124 -0.1086
 3733TIP3    H132758   1.426   0.714   0.791  1.1234  0.7247  0.0563
 3733TIP3    H232759   1.471   0.622   0.680  0.9933 -0.5570  1.0452
 3734TIP3   OH232760   4.411   1.166   0.344 -0.2553 -0.2809 -0.1910
 3734TIP3    H132761   4.355   1.170   0.421  0.8317 -0.8788  0.6454
 3734TIP3    H232762   4.404   1.075   0.314 -1.4301  0.1640 -1.4118
 3735TIP3   OH232763   3.120   3.636   1.284  0.0379  0.0910  0.1269
 3735TIP3    H132764   3.082   3.636   1.197  0.1185 -0.9660  0.0808
 3735TIP3    H232765   3.059   3.584   1.337  1.0000 -0.9884  0.2215
 3736TIP3   OH232766   0.246   2.541   2.149  0.2447  0.3125 -0.5991
 3736TIP3    H132767   0.223   2.456   2.188  0.9141  1.4320  2.5340
 3736TIP3    H232768   0.324   2.523   2.098  0.5499 -0.9469  0.2551
 3737TIP3   OH232769   4.666   6.348   0.806  0.0126 -0.0270 -0.2455
 3737TIP3    H132770   4.670   6.442   0.793 -0.8963 -0.1528 -1.6995
 3737TIP3    H232771   4.635   6.337   0.896  0.5992  1.0450  0.0905
 3738TIP3   OH232772   2.163   0.346   2.027  0.1044  0.1202 -0.0145
 3738TIP3    H132773   2.100   0.303   2.086  0.7662  0.9277  1.3388
 3738TIP3    H232774   2.108   0.390   1.962 -0.6520 -0.8814 -0.0796
 3739TIP3   OH232775   3.970   2.964   7.533 -0.7548  0.1452  0.5679
 3739TIP3    H132776   3.967   2.947   7.439  1.1587  0.1976  0.4533
 3739TIP3    H232777   3.879   2.959   7.562 -1.3283 -0.2482 -1.2142
 3740TIP3   OH232778   1.164   3.143   1.413 -0.4980  0.0312  0.1848
 3740TIP3    H132779   1.181   3.095   1.332  1.9282 -1.6436  1.5466
 3740TIP3    H232780   1.213   3.225   1.402 -1.6628  0.6435 -0.6992
 3741TIP3   OH232781   1.117   5.026   0.709 -0.5556  0.4237 -0.0870
 3741TIP3    H132782   1.159   4.965   0.649 -1.2512 -0.8604  0.6933
 3741TIP3    H232783   1.025   5.000   0.710 -0.7550  1.1187  0.7109
 3742TIP3   OH232784   3.307   2.285   8.216 -0.3139  0.2324  0.3312
 3742TIP3    H132785   3.395   2.320   8.202 -0.2871  0.7464  1.6114
 3742TIP3    H232786   3.321   2.192   8.232 -0.0456  0.2303  0.0939
 3743TIP3   OH232787   5.566   5.575   2.492 -0.1332 -0.3570 -0.2441
 3743TIP3    H132788   5.492   5.630   2.465 -1.4220 -1.6442  0.4859
 3743TIP3    H232789   5.635   5.595   2.429 -0.4318  2.2708  0.1684
 3744TIP3   OH232790   4.867   1.127   7.921 -0.3251 -0.3543 -0.0285
 3744TIP3    H132791   4.952   1.097   7.889  0.3811  1.2120  0.2980
 3744TIP3    H232792   4.811   1.125   7.843  0.4069 -0.0421 -0.5844
 3745TIP3   OH232793   6.316   1.154   2.179  0.0761  0.5769 -0.2842
 3745TIP3    H132794   6.270   1.153   2.095 -2.3139  0.9202  0.9228
 3745TIP3    H232795   6.272   1.224   2.228  1.2623  0.2259  1.3307
 3746TIP3   OH232796   3.653   6.470   2.145  0.0595 -0.5318  0.8103
 3746TIP3    H132797   3.724   6.535   2.140 -0.7801  0.3230 -0.6202
 3746TIP3    H232798   3.615   6.484   2.232  0.4276  0.3192  0.8468
 3747TIP3   OH232799   5.960   2.817   1.761  0.2520  0.1572 -0.0088
 3747TIP3    H132800   6.023   2.866   1.814  0.4696 -0.9838  0.8177
 3747TIP3    H232801   5.903   2.775   1.825 -0.0281 -0.5343 -0.7045
 3748TIP3   OH232802   6.664   4.358   1.359  0.2356  0.8178 -0.1216
 3748TIP3    H132803   6.593   4.363   1.295  1.2221  1.7773 -1.1945
 3748TIP3    H232804   6.633   4.410   1.433 -0.6999  0.1510 -0.0317
 3749TIP3   OH232805   1.232   2.233   7.409 -0.0970 -0.5654 -0.2601
 3749TIP3    H132806   1.168   2.237   7.480  0.7886  0.4857  0.5290
 3749TIP3    H232807   1.304   2.182   7.444  0.3120 -0.1129 -0.4202
 3750TIP3   OH232808   2.266   3.223   8.262  0.6117 -0.0406  0.9117
 3750TIP3    H132809   2.200   3.292   8.253  1.2523  0.4496 -0.1487
 3750TIP3    H232810   2.332   3.243   8.196  2.0737 -0.2653  2.2255
 3751TIP3   OH232811   1.251   6.481   7.762 -0.6865  0.5940  0.3635
 3751TIP3    H132812   1.327   6.537   7.779 -0.7010  0.5107  0.7198
 3751TIP3    H232813   1.186   6.541   7.726 -0.0044  0.4185 -1.2356
 3752TIP3   OH232814   5.746   1.537   1.810  0.2608  0.4707 -0.7188
 3752TIP3    H132815   5.735   1.442   1.809 -1.2891  0.6255 -1.5950
 3752TIP3    H232816   5.831   1.551   1.851  0.9749 -1.3420 -1.4830
 3753TIP3   OH232817   5.584   1.161   3.404  0.3223 -0.2939  0.1957
 3753TIP3    H132818   5.498   1.180   3.367  0.5378 -1.5764 -1.0537
 3753TIP3    H232819   5.631   1.245   3.399 -0.7664  0.3591  0.6755
 3754TIP3   OH232820   1.774   6.398   2.440 -0.3745  0.0090 -0.0204
 3754TIP3    H132821   1.695   6.401   2.494  0.9319 -0.4600  2.0368
 3754TIP3    H232822   1.815   6.484   2.454  1.0910 -0.8892  1.6143
 3755TIP3   OH232823   1.825   2.051   2.493 -0.1607  0.2599 -0.2212
 3755TIP3    H132824   1.853   2.133   2.453  3.3410 -0.1444  1.0551
 3755TIP3    H232825   1.884   1.985   2.455 -1.9447 -1.4398 -0.1652
 3756TIP3   OH232826   4.357   4.322   1.175  0.0858 -0.6629  0.2059
 3756TIP3    H132827   4.262   4.313   1.169 -0.0207  0.3326  0.1313
 3756TIP3    H232828   4.391   4.273   1.101 -0.2720 -2.2917  1.0768
 3757TIP3   OH232829   2.296   2.958   7.925 -0.4126 -0.1075 -0.2651
 3757TIP3    H132830   2.205   2.986   7.931 -0.1874  0.6096 -0.1702
 3757TIP3    H232831   2.347   3.038   7.938  0.2280 -0.3279 -1.3309
 3758TIP3   OH232832   3.038   4.390   2.189  1.0451 -0.1504  0.1071
 3758TIP3    H132833   3.069   4.369   2.101  1.6180 -0.6017  0.4106
 3758TIP3    H232834   3.040   4.306   2.235  5.0594  0.7070  1.8945
 3759TIP3   OH232835   5.716   2.779   1.395  0.4650  0.2015 -0.0168
 3759TIP3    H132836   5.664   2.766   1.315 -2.6445  0.2704  1.8286
 3759TIP3    H232837   5.743   2.690   1.419 -0.3690 -0.0748 -0.0596
 3760TIP3   OH232838   0.957   1.452   1.975  0.4553 -0.5886  0.3071
 3760TIP3    H132839   0.938   1.366   2.013  1.9914 -1.6190 -1.1281
 3760TIP3    H232840   0.905   1.456   1.895  1.6299 -0.9075 -0.4953
 3761TIP3   OH232841   1.793   0.631   8.231 -0.7766 -0.2979  0.1524
 3761TIP3    H132842   1.866   0.689   8.248 -0.7025 -0.4940  0.5094
 3761TIP3    H232843   1.718   0.690   8.220 -0.2554  0.0283 -2.0635
 3762TIP3   OH232844   4.213   4.690   2.267  0.3847  0.3079 -0.5199
 3762TIP3    H132845   4.177   4.603   2.284  0.4928  0.1949 -0.8669
 3762TIP3    H232846   4.137   4.749   2.270  0.3280  0.2195 -0.1705
 3763TIP3   OH232847   2.990   3.981   0.830 -0.2489 -0.6364  0.3857
 3763TIP3    H132848   2.978   3.959   0.738 -0.1788 -1.2708  0.5188
 3763TIP3    H232849   3.080   4.015   0.835  0.7717 -3.0884  0.6188
 3764TIP3   OH232850   4.922   3.455   0.307  0.1411  0.2593 -0.2676
 3764TIP3    H132851   4.839   3.500   0.320 -0.8824 -1.3575 -0.8645
 3764TIP3    H232852   4.898   3.368   0.276  2.0754 -0.1696 -0.7342
 3765TIP3   OH232853   0.569   1.923   8.186 -0.1973 -0.0826 -0.0016
 3765TIP3    H132854   0.497   1.894   8.129 -1.5158  0.6954  1.1987
 3765TIP3    H232855   0.596   2.007   8.149 -0.1608 -0.1913 -0.2261
 3766TIP3   OH232856   4.343   6.397   1.265  0.5276 -0.0937  0.1056
 3766TIP3    H132857   4.271   6.335   1.279  0.1740  0.1833 -0.4596
 3766TIP3    H232858   4.308   6.461   1.204  0.4577  1.3789  1.6055
 3767TIP3   OH232859   6.376   3.030   2.281  0.0068 -0.3560 -0.2346
 3767TIP3    H132860   6.403   3.068   2.365  0.0640 -1.7472  0.4093
 3767TIP3    H232861   6.430   2.952   2.272 -0.3251 -0.4675 -1.3579
 3768TIP3   OH232862   2.298   2.445   0.828  0.7595  0.5496 -0.5427
 3768TIP3    H132863   2.207   2.472   0.813 -0.3637 -0.6505  3.0319
 3768TIP3    H232864   2.341   2.524   0.864  0.5022  0.5370 -0.2021
 3769TIP3   OH232865   5.847   6.604   0.547 -0.8473  0.3633 -0.3612
 3769TIP3    H132866   5.845   6.612   0.451 -1.7730 -0.2441 -0.3952
 3769TIP3    H232867   5.898   6.524   0.563 -1.8645 -0.3008 -0.3960
 3770TIP3   OH232868   5.087   6.213   8.710 -0.0934  0.2924  0.2909
 3770TIP3    H132869   5.084   6.259   8.626  1.1352 -0.2946 -0.1001
 3770TIP3    H232870   4.999   6.178   8.721  0.0157 -0.5906 -1.3400
 3771TIP3   OH232871   1.606   1.540   0.967 -0.3801 -0.5777 -0.0482
 3771TIP3    H132872   1.701   1.524   0.965 -0.6726 -2.9593  0.8720
 3771TIP3    H232873   1.575   1.511   0.882 -0.2044  1.1929 -0.7508
 3772TIP3   OH232874   2.230   4.540   0.707  0.3588 -0.3294  0.6017
 3772TIP3    H132875   2.275   4.611   0.751 -0.2239  0.5447 -0.1693
 3772TIP3    H232876   2.152   4.580   0.670  0.7026 -1.0651 -1.0244
 3773TIP3   OH232877   4.410   0.668   1.587  0.4757  0.2402  0.0536
 3773TIP3    H132878   4.405   0.738   1.653 -0.7911  0.1980  0.0313
 3773TIP3    H232879   4.363   0.703   1.512  0.1268 -0.5039 -0.0836
 3774TIP3   OH232880   2.519   6.593   0.674 -0.4490 -0.1768 -0.3871
 3774TIP3    H132881   2.583   6.624   0.739 -0.0618  1.8294 -1.6267
 3774TIP3    H232882   2.559   6.613   0.589 -1.8263 -0.8220 -1.2295
 3775TIP3   OH232883   5.387   0.543   1.367 -0.6705  0.0374  0.1951
 3775TIP3    H132884   5.381   0.458   1.323 -0.8207 -0.2205  0.7103
 3775TIP3    H232885   5.336   0.533   1.447 -1.6550  0.9739 -0.2852
 3776TIP3   OH232886   6.479   2.636   8.704  0.2950  0.6972 -0.1778
 3776TIP3    H132887   6.458   2.618   8.612 -1.6687 -0.8319  0.5005
 3776TIP3    H232888   6.568   2.671   8.701  0.1160  1.1783 -2.6972
 3777TIP3   OH232889   1.768   4.080   0.389  0.0560  0.4447 -0.1571
 3777TIP3    H132890   1.710   4.023   0.439 -0.9440  1.5196 -0.0560
 3777TIP3    H232891   1.754   4.055   0.298 -0.5509  0.6716 -0.1311
 3778TIP3   OH232892   5.473   0.504   8.687 -0.3843 -0.9648 -0.0586
 3778TIP3    H132893   5.398   0.559   8.667  0.6224  0.0447 -1.2309
 3778TIP3    H232894   5.529   0.512   8.610  2.6611  1.2690  2.1585
 3779TIP3   OH232895   1.908   5.743   0.976  0.9315  0.0885 -0.7706
 3779TIP3    H132896   1.871   5.688   1.045 -0.7589 -0.2651 -1.8986
 3779TIP3    H232897   1.922   5.828   1.019  1.2282 -0.5136  0.3491
 3780TIP3   OH232898   3.233   6.402   0.299  0.1567  0.1555 -0.0047
 3780TIP3    H132899   3.158   6.359   0.341  0.8052  0.4144  1.4833
 3780TIP3    H232900   3.272   6.333   0.245 -1.9534  0.3939 -2.0204
 3781TIP3   OH232901   3.040   5.997   1.322  0.2149 -0.2399 -0.6311
 3781TIP3    H132902   3.036   6.009   1.417 -0.0230 -0.2348 -0.6400
 3781TIP3    H232903   3.133   5.994   1.302  0.2704  0.4303 -0.4816
 3782TIP3   OH232904   1.785   5.565   1.942  0.1078  0.2553 -0.0510
 3782TIP3    H132905   1.766   5.601   1.855  1.6338  1.7082  0.1686
 3782TIP3    H232906   1.804   5.473   1.925 -0.5998  0.2836 -1.1177
 3783TIP3   OH232907   1.785   0.308   7.698  0.7522  0.1644  0.1900
 3783TIP3    H132908   1.864   0.253   7.697  1.3171  0.9500 -0.8792
 3783TIP3    H232909   1.759   0.314   7.606 -1.9362 -1.9454  0.7051
 3784TIP3   OH232910   5.776   1.462   7.986 -0.3514  0.6439  0.2521
 3784TIP3    H132911   5.781   1.555   7.963  0.1138  0.2935 -1.2271
 3784TIP3    H232912   5.701   1.429   7.936 -0.0308  0.0743  0.1381
 3785TIP3   OH232913   4.901   1.969   2.268 -0.9017 -0.2667 -0.3969
 3785TIP3    H132914   4.996   1.962   2.278 -1.0367 -0.1783  1.0558
 3785TIP3    H232915   4.882   2.061   2.286 -1.1655 -0.0430 -1.7253
 3786TIP3   OH232916   6.407   3.180   7.995 -0.4642 -0.2248  0.3023
 3786TIP3    H132917   6.403   3.086   8.010  4.2187 -0.8744 -1.0602
 3786TIP3    H232918   6.410   3.189   7.900  0.3889  1.2021  0.4441
 3787TIP3   OH232919   0.162   4.742   2.635  0.1749 -0.6311 -0.1087
 3787TIP3    H132920   0.215   4.666   2.614  0.9616 -0.0262 -0.3569
 3787TIP3    H232921   0.221   4.801   2.682 -0.6206 -0.4825  0.7238
 3788TIP3   OH232922   2.731   2.221   0.352  0.1854 -0.0378 -0.1776
 3788TIP3    H132923   2.764   2.220   0.262 -1.2033 -0.0254 -0.7174
 3788TIP3    H232924   2.795   2.273   0.401  1.0688 -0.2228 -1.1060
 3789TIP3   OH232925   2.540   2.564   8.520  0.2309  0.4125 -0.0300
 3789TIP3    H132926   2.557   2.658   8.526  0.1361  0.3872  0.7786
 3789TIP3    H232927   2.626   2.524   8.507  0.3201  0.5841  0.0317
 3790TIP3   OH232928   5.855   0.446   1.689  0.1705  0.5582 -0.6502
 3790TIP3    H132929   5.790   0.403   1.633 -0.0185  0.6399 -0.4936
 3790TIP3    H232930   5.823   0.536   1.697 -0.1241  0.3951  0.0760
 3791TIP3   OH232931   5.003   5.194   6.986 -0.3270  0.1286 -0.5480
 3791TIP3    H132932   5.052   5.185   7.069 -2.3100  0.6490  0.7461
 3791TIP3    H232933   4.996   5.289   6.973 -1.8980  0.0959 -0.1068
 3792TIP3   OH232934   1.400   3.397   1.043  0.2173  0.1781 -0.3342
 3792TIP3    H132935   1.372   3.331   0.981 -1.1706  1.5364 -1.2194
 3792TIP3    H232936   1.409   3.477   0.992  0.6433  0.9771  0.9229
 3793TIP3   OH232937   4.606   0.086   7.665  0.0779  0.1466 -0.6344
 3793TIP3    H132938   4.678   0.127   7.713 -0.5695  1.0404 -0.4030
 3793TIP3    H232939   4.599   0.138   7.584  1.2202 -1.3966 -1.7943
 3794TIP3   OH232940   1.240   1.038   0.042 -0.2884 -0.0185  0.2650
 3794TIP3    H132941   1.266   0.978  -0.027  1.3662  0.7854  0.1340
 3794TIP3    H232942   1.147   1.054   0.026 -0.5955 -1.9411 -0.1139
 3795TIP3   OH232943   3.657   3.392   2.183 -0.1210 -0.2537  0.0846
 3795TIP3    H132944   3.601   3.320   2.211 -0.5222  0.5872  1.5639
 3795TIP3    H232945   3.744   3.369   2.215 -0.5170  0.5499  1.8361
 3796TIP3   OH232946   4.245   0.202   2.973  1.0457 -0.5650  0.1387
 3796TIP3    H132947   4.155   0.232   2.961  0.8973 -1.1630 -0.2961
 3796TIP3    H232948   4.238   0.106   2.977  1.7123 -0.6370 -0.3172
 3797TIP3   OH232949   3.919   3.804   1.109  0.0891  0.0726 -0.6663
 3797TIP3    H132950   3.828   3.773   1.103 -0.0535  0.2450  0.3200
 3797TIP3    H232951   3.972   3.725   1.108 -0.2545 -0.2620  1.5579
 3798TIP3   OH232952   2.185   6.600   0.391 -0.1500 -0.3037  0.2457
 3798TIP3    H132953   2.238   6.545   0.449  0.5321 -1.5799 -1.5061
 3798TIP3    H232954   2.097   6.563   0.396 -0.0236 -0.6081  0.2095
 3799TIP3   OH232955   6.174   6.437   7.726  0.4315  0.4178  0.7618
 3799TIP3    H132956   6.223   6.377   7.783  1.4477  0.3473 -0.1369
 3799TIP3    H232957   6.226   6.440   7.646  0.5699  2.7308  0.8795
 3800TIP3   OH232958   3.782   3.757   0.095  0.6646  0.0032  0.6048
 3800TIP3    H132959   3.782   3.830   0.033 -0.3033 -1.0633 -0.6991
 3800TIP3    H232960   3.711   3.777   0.156  1.0451  0.6197  0.8572
 3801TIP3   OH232961   6.084   0.140   1.275  0.5927 -0.2515  0.7699
 3801TIP3    H132962   6.055   0.185   1.354 -0.2774 -0.5020  0.6033
 3801TIP3    H232963   6.073   0.047   1.294  1.4471 -0.3641  0.7563
 3802TIP3   OH232964   3.108   2.527   1.687  0.0424 -0.3417 -0.1632
 3802TIP3    H132965   3.185   2.499   1.737  0.7472  0.0614 -0.9932
 3802TIP3    H232966   3.124   2.494   1.599  0.4526  1.8014 -0.9542
 3803TIP3   OH232967   2.194   0.210   0.674 -0.2390 -0.1545 -0.7212
 3803TIP3    H132968   2.255   0.147   0.635 -1.5732 -1.0783 -1.3939
 3803TIP3    H232969   2.245   0.254   0.741  0.5720 -2.4839  0.2934
 3804TIP3   OH232970   5.971   1.455   7.470  0.0783  0.5247 -0.2738
 3804TIP3    H132971   5.907   1.527   7.467  0.3139  0.7097 -1.0988
 3804TIP3    H232972   6.031   1.474   7.397  0.2794 -0.3788 -0.3442
 3805TIP3   OH232973   6.751   0.443   1.675  0.2805 -0.3337 -0.0155
 3805TIP3    H132974   6.692   0.482   1.739  1.6316  0.7046  0.6413
 3805TIP3    H232975   6.824   0.409   1.726  0.4277 -1.3100 -0.8379
 3806TIP3   OH232976   0.510   2.257   8.383  0.3110 -0.1153  0.2316
 3806TIP3    H132977   0.492   2.328   8.321 -0.2274 -0.7606 -0.3658
 3806TIP3    H232978   0.605   2.248   8.382  0.3599  0.3879  0.0773
 3807TIP3   OH232979   0.530   1.599   1.482 -0.3445  0.4205 -0.2123
 3807TIP3    H132980   0.563   1.689   1.478  2.6377 -0.5184  0.7767
 3807TIP3    H232981   0.513   1.584   1.575  1.4111 -0.6984 -0.0268
 3808TIP3   OH232982   1.228   1.830   1.786 -0.1151 -0.7453 -0.2693
 3808TIP3    H132983   1.252   1.748   1.743 -1.2283 -1.2934  0.1256
 3808TIP3    H232984   1.142   1.814   1.823 -0.2508  0.5339  0.0290
 3809TIP3   OH232985   2.204   6.086   1.851 -0.5237  0.0628 -0.3996
 3809TIP3    H132986   2.255   6.081   1.770 -0.9038 -1.2852 -0.5911
 3809TIP3    H232987   2.261   6.044   1.916 -0.4778  0.5705 -0.1138
 3810TIP3   OH232988   2.247   5.256   1.788  0.3995  0.3559  0.3759
 3810TIP3    H132989   2.251   5.187   1.723 -1.0886  1.8355 -1.4016
 3810TIP3    H232990   2.154   5.274   1.799  0.7038  1.3777  1.5490
 3811TIP3   OH232991   0.742   5.510   1.354 -0.0197  0.4906  0.2964
 3811TIP3    H132992   0.758   5.450   1.281  1.5093 -1.7564  2.3342
 3811TIP3    H232993   0.651   5.496   1.377 -0.1550  0.2743 -0.3436
 3812TIP3   OH232994   3.979   0.675   7.910  0.2970 -0.5151 -0.5063
 3812TIP3    H132995   4.018   0.763   7.916 -0.5104  0.0408 -2.4959
 3812TIP3    H232996   3.884   0.691   7.918  0.0877 -1.0621 -1.6047
 3813TIP3   OH232997   4.356   6.524   3.322  0.5271 -0.0450  0.7645
 3813TIP3    H132998   4.339   6.539   3.229  0.3252  1.7868  1.0545
 3813TIP3    H232999   4.442   6.483   3.324  0.4270 -0.3379 -0.2372
 3814TIP3   OH233000   4.808   0.603   3.134  0.1788 -0.6492  0.6042
 3814TIP3    H133001   4.826   0.652   3.214 -1.1711 -1.5720  1.5166
 3814TIP3    H233002   4.739   0.652   3.090  1.6289  0.4185 -0.5641
 3815TIP3   OH233003   6.014   4.555   1.089 -0.2624  0.5557  0.1374
 3815TIP3    H133004   5.922   4.580   1.085  0.2398  2.7243  1.0758
 3815TIP3    H233005   6.062   4.633   1.060  1.2898 -0.8854 -1.4956
 3816TIP3   OH233006   4.929   4.519   8.466  0.1559 -0.9852  0.2533
 3816TIP3    H133007   4.981   4.595   8.493 -1.3196 -0.3029  1.3267
 3816TIP3    H233008   4.984   4.473   8.403  1.3347  0.6468  0.0393
 3817TIP3   OH233009   3.277   1.046   0.076 -0.2268  0.2491 -0.8677
 3817TIP3    H133010   3.318   1.116   0.026  0.6714 -0.6612 -1.4610
 3817TIP3    H233011   3.296   0.966   0.026 -1.9000 -0.3344 -0.6388
 3818TIP3   OH233012   4.638   3.868   7.788 -0.5593  0.3841 -0.0776
 3818TIP3    H133013   4.617   3.835   7.701  2.1825 -0.9313 -0.3286
 3818TIP3    H233014   4.557   3.908   7.818 -2.2435 -1.1388 -2.2917
 3819TIP3   OH233015   2.914   4.769   7.760  0.1093  0.0320 -0.3387
 3819TIP3    H133016   2.983   4.812   7.710  1.0425 -0.3798  0.5519
 3819TIP3    H233017   2.935   4.789   7.851 -0.3477 -0.9788  0.0035
 3820TIP3   OH233018   1.648   5.097   1.520  0.2407  0.1327  0.3358
 3820TIP3    H133019   1.612   5.174   1.564  0.9802 -0.2742  1.7169
 3820TIP3    H233020   1.573   5.039   1.508  0.0796  0.0854  1.4632
 3821TIP3   OH233021   5.574   6.596   0.099  0.1089  0.2326 -0.0645
 3821TIP3    H133022   5.548   6.608   0.190  0.2984 -0.0664  0.0311
 3821TIP3    H233023   5.557   6.504   0.081 -1.1189  0.5667 -0.7202
 3822TIP3   OH233024   6.558   4.526   8.372  0.0874 -0.5917  0.5075
 3822TIP3    H133025   6.614   4.527   8.450  0.7466  2.7985  0.1382
 3822TIP3    H233026   6.599   4.461   8.315  1.2030 -1.1557  1.8785
 3823TIP3   OH233027   0.869   0.818   2.230 -0.3320  0.3885  0.0051
 3823TIP3    H133028   0.869   0.894   2.289  0.7428 -0.4192  1.0896
 3823TIP3    H233029   0.960   0.812   2.199  0.1162 -1.5674  1.4767
 3824TIP3   OH233030   2.380   0.631   2.994 -0.7286  0.1341 -0.8350
 3824TIP3    H133031   2.315   0.655   2.927 -0.2387  1.8390 -0.7462
 3824TIP3    H233032   2.338   0.654   3.077  1.0082  4.3253 -0.8715
 3825TIP3   OH233033   1.530   1.223   0.946 -0.7541  0.3315 -0.6193
 3825TIP3    H133034   1.518   1.291   0.880 -1.7694 -0.7345 -1.5837
 3825TIP3    H233035   1.482   1.147   0.912  0.5846 -0.9757  0.2585
 3826TIP3   OH233036   0.782   1.859   3.311  0.0803  0.2229 -0.4003
 3826TIP3    H133037   0.839   1.923   3.353 -0.3109  0.1765  0.2240
 3826TIP3    H233038   0.832   1.826   3.237  0.5571  0.7423 -0.3115
 3827TIP3   OH233039   3.012   2.120   1.940  0.2459 -0.0085 -0.4643
 3827TIP3    H133040   3.070   2.135   2.014 -0.7423  1.6971  0.0294
 3827TIP3    H233041   3.064   2.147   1.863  0.2895  1.1015 -0.0719
 3828TIP3   OH233042   1.287   6.801   8.127  0.1219 -0.7241 -0.0809
 3828TIP3    H133043   1.340   6.812   8.048  0.9766 -0.6895  0.4849
 3828TIP3    H233044   1.349   6.809   8.200 -0.6832 -0.5212  0.6099
 3829TIP3   OH233045   2.052   1.127   2.999 -0.1463 -0.3225 -0.1096
 3829TIP3    H133046   2.073   1.042   2.960 -0.2707 -0.8829  1.0185
 3829TIP3    H233047   2.107   1.132   3.077 -1.3327 -0.0773  0.7317
 3830TIP3   OH233048   6.646   4.491   2.452 -0.1942 -0.5066  0.0802
 3830TIP3    H133049   6.583   4.440   2.504  0.1880 -1.3529 -0.2728
 3830TIP3    H233050   6.730   4.474   2.493  0.1231 -1.2388 -0.8523
 3831TIP3   OH233051   6.726   4.619   2.930 -0.2062  0.5902 -0.4706
 3831TIP3    H133052   6.682   4.563   2.994 -0.0799  0.6723 -0.3120
 3831TIP3    H233053   6.804   4.570   2.905 -1.0063 -0.1149 -1.6709
 3832TIP3   OH233054   1.341   0.046   0.176 -0.1949 -0.5915 -0.2048
 3832TIP3    H133055   1.277  -0.014   0.214  0.1058 -2.1726 -2.0486
 3832TIP3    H233056   1.424  -0.001   0.177  1.2359  1.6537  2.6991
 3833TIP3   OH233057   6.561   3.340   7.334 -0.2852  0.0713  0.4045
 3833TIP3    H133058   6.587   3.334   7.242 -0.6269  1.1893  0.2081
 3833TIP3    H233059   6.465   3.338   7.332 -0.3025  0.4414  0.6996
 3834TIP3   OH233060   2.523   0.281   1.675 -0.7923 -0.2780 -0.4498
 3834TIP3    H133061   2.561   0.367   1.691 -1.1206 -0.5753  2.4715
 3834TIP3    H233062   2.532   0.235   1.758 -2.5740 -2.3137 -1.2820
 3835TIP3   OH233063   3.332   4.651   1.146 -0.7770  0.3876 -0.3356
 3835TIP3    H133064   3.314   4.736   1.105  0.1054  0.1617 -1.2260
 3835TIP3    H233065   3.255   4.597   1.126 -0.9338  0.6907 -0.5504
 3836TIP3   OH233066   4.947   6.134   2.377  0.9321 -0.3843  0.2458
 3836TIP3    H133067   4.853   6.154   2.376  0.5858 -1.8900  0.2645
 3836TIP3    H233068   4.980   6.180   2.454  0.0629 -0.4475  0.6685
 3837TIP3   OH233069   1.879   1.566   1.286  0.7226 -0.3189 -0.0184
 3837TIP3    H133070   1.795   1.523   1.272  1.1675 -1.4572  0.6758
 3837TIP3    H233071   1.938   1.495   1.313  2.3417  0.1180 -2.0887
 3838TIP3   OH233072   1.399   0.284   1.712  0.1516 -0.2602  0.4231
 3838TIP3    H133073   1.397   0.226   1.636  1.8004  1.2140 -0.8269
 3838TIP3    H233074   1.325   0.343   1.700  1.0823  0.7170 -0.7104
 3839TIP3   OH233075   2.935   2.213   8.593 -0.4631 -0.5545 -0.0034
 3839TIP3    H133076   2.909   2.121   8.596  0.6056 -1.0269 -2.5725
 3839TIP3    H233077   2.894   2.247   8.514  0.9725  0.5430 -0.3280
 3840TIP3   OH233078   4.544   6.061   8.334 -0.2180 -0.0507 -0.1639
 3840TIP3    H133079   4.634   6.041   8.306 -0.0513  0.1992  0.1892
 3840TIP3    H233080   4.490   5.997   8.288  0.2202 -0.7128  0.2409
 3841TIP3   OH233081   6.700   2.775   8.118  0.2058  0.4724  0.0585
 3841TIP3    H133082   6.710   2.817   8.033 -1.6584 -0.3391 -0.6261
 3841TIP3    H233083   6.663   2.689   8.098 -0.3167  0.2715  1.6872
 3842TIP3   OH233084   5.939   3.027   0.315  0.2100 -0.1779  0.7070
 3842TIP3    H133085   5.875   2.984   0.258 -0.2074  1.8360 -0.4689
 3842TIP3    H233086   5.886   3.080   0.374  0.7169 -0.7591  1.6973
 3843TIP3   OH233087   4.487   3.218   1.081 -0.1047  0.4828  0.1592
 3843TIP3    H133088   4.574   3.180   1.077  0.5496  2.0180 -1.2604
 3843TIP3    H233089   4.429   3.148   1.052  0.0873 -1.8233  4.5638
 3844TIP3   OH233090   4.068   4.516   8.351  0.3793  0.2302  0.0615
 3844TIP3    H133091   4.040   4.454   8.418 -0.4516 -1.2563 -1.5920
 3844TIP3    H233092   4.059   4.602   8.393 -1.5526 -0.5444  1.3837
 3845TIP3   OH233093   1.803   1.862   1.724 -0.0226  0.1963  0.0559
 3845TIP3    H133094   1.858   1.821   1.657 -2.5447 -3.7272  0.0416
 3845TIP3    H233095   1.848   1.842   1.806 -0.2059 -0.9450 -0.1005
 3846TIP3   OH233096   6.401   2.211   0.960  0.4513 -0.0517 -0.4259
 3846TIP3    H133097   6.387   2.151   1.033  0.6967 -0.9110 -1.0746
 3846TIP3    H233098   6.320   2.262   0.955  0.0892 -0.5947 -0.1198
 3847TIP3   OH233099   6.507   6.311   7.665 -0.4211  0.2069 -0.5098
 3847TIP3    H133100   6.454   6.266   7.730 -1.4509  0.0776 -1.3994
 3847TIP3    H233101   6.556   6.241   7.622  0.5360  0.3311  0.3421
 3848TIP3   OH233102   3.390   0.088   0.843  0.1876  0.0330 -0.6013
 3848TIP3    H133103   3.340   0.007   0.830 -0.1966  0.1688  0.0059
 3848TIP3    H233104   3.324   0.156   0.848  0.4790  0.3070 -0.4737
 3849TIP3   OH233105   2.648   1.366   7.453 -0.5045  0.7206  0.6448
 3849TIP3    H133106   2.562   1.326   7.442 -0.7856  1.4862 -0.0003
 3849TIP3    H233107   2.710   1.297   7.431 -0.9863  0.7952 -1.0831
 3850TIP3   OH233108   5.632   1.481   1.246 -0.1820  0.1111  0.6944
 3850TIP3    H133109   5.639   1.537   1.323  1.7499 -0.7190  1.1941
 3850TIP3    H233110   5.702   1.511   1.187 -0.7328 -0.1587 -0.1229
 3851TIP3   OH233111   2.866   0.667   8.328 -0.2711 -0.3116  0.0268
 3851TIP3    H133112   2.824   0.614   8.260 -0.0610  2.2113 -2.2014
 3851TIP3    H233113   2.938   0.711   8.283 -0.4776  1.9281  1.7409
 3852TIP3   OH233114   3.382   1.564   0.359 -0.3898  0.3552 -0.6940
 3852TIP3    H133115   3.399   1.565   0.264  0.3881 -0.2811 -0.5655
 3852TIP3    H233116   3.336   1.482   0.374  2.9911 -1.6063  0.0260
 3853TIP3   OH233117   6.139   2.254   0.404 -0.5223 -0.0410  0.1327
 3853TIP3    H133118   6.222   2.300   0.417 -0.2912 -0.1953 -0.7661
 3853TIP3    H233119   6.079   2.294   0.468  0.1079  0.4049  0.4509
 3854TIP3   OH233120   1.176   0.675   3.136  1.2148 -0.0547 -0.2328
 3854TIP3    H133121   1.248   0.708   3.083  0.9635  1.0448  0.0706
 3854TIP3    H233122   1.194   0.582   3.148  2.6922  0.2455  0.0181
 3855TIP3   OH233123   2.902   2.435   7.925 -0.2773 -0.4164 -0.0674
 3855TIP3    H133124   2.968   2.436   7.994 -0.0026  0.8087 -0.3225
 3855TIP3    H233125   2.938   2.377   7.858  0.5778  0.2512 -0.2138
 3856TIP3   OH233126   3.673   1.170   1.279 -0.3660  0.2366 -0.0614
 3856TIP3    H133127   3.673   1.075   1.271 -1.0502  0.1255  1.1024
 3856TIP3    H233128   3.605   1.189   1.343 -1.2716  1.6157 -1.3685
 3857TIP3   OH233129   2.880   3.703   0.198  0.4138  0.2309 -0.1298
 3857TIP3    H133130   2.869   3.778   0.140 -2.0928  0.0087 -0.0555
 3857TIP3    H233131   2.791   3.681   0.227  1.2996 -1.3111  1.7153
 3858TIP3   OH233132   4.939   0.166   2.495  0.0621 -0.1783  0.0555
 3858TIP3    H133133   4.947   0.242   2.554 -2.1970 -0.3844  0.7209
 3858TIP3    H233134   5.024   0.122   2.502  0.8619  1.3763  0.9233
 3859TIP3   OH233135   6.588   1.035   0.535  0.0900  0.6176  0.0538
 3859TIP3    H133136   6.604   1.078   0.619  0.2477 -0.4928  0.6113
 3859TIP3    H233137   6.591   0.942   0.555 -0.8657  0.3407 -1.0108
 3860TIP3   OH233138   6.492   3.996   7.952 -0.3503 -0.4382 -0.1689
 3860TIP3    H133139   6.532   3.912   7.976 -3.4400 -1.7820  0.7834
 3860TIP3    H233140   6.480   3.990   7.857 -0.2272 -0.9476 -0.1572
 3861TIP3   OH233141   2.944   0.386   6.818  0.2101 -0.1798  0.3999
 3861TIP3    H133142   2.941   0.466   6.765  1.5980 -0.5480 -0.2841
 3861TIP3    H233143   3.024   0.393   6.869  0.5403 -1.2633  0.0764
 3862TIP3   OH233144   4.343   5.009   8.138 -0.0519 -0.0578 -0.1069
 3862TIP3    H133145   4.319   5.087   8.187  0.3794  0.1275 -0.1860
 3862TIP3    H233146   4.427   4.981   8.175  1.2148  1.1351 -1.9007
 3863TIP3   OH233147   5.089   5.475   0.835  0.3618  0.4101 -0.1148
 3863TIP3    H133148   5.168   5.511   0.876  1.1660 -1.6992  0.3113
 3863TIP3    H233149   5.017   5.521   0.879  1.2940  0.9464  0.9214
 3864TIP3   OH233150   2.251   1.881   7.141  0.2548  0.2768 -0.0468
 3864TIP3    H133151   2.215   1.858   7.226 -0.4371  0.3439 -0.3176
 3864TIP3    H233152   2.346   1.877   7.153  0.1823 -1.8045  0.1569
 3865TIP3   OH233153   0.836   3.263   8.361 -1.0810  0.0255  0.5472
 3865TIP3    H133154   0.836   3.350   8.401 -1.0755 -0.3724  1.4344
 3865TIP3    H233155   0.916   3.260   8.308 -0.7953  0.3603  0.9608
 3866TIP3   OH233156   6.743   5.124   0.286 -0.1752  0.2175 -0.4203
 3866TIP3    H133157   6.691   5.204   0.296 -0.3892 -0.0083  0.3724
 3866TIP3    H233158   6.687   5.066   0.234 -0.2080  0.4259 -0.6163
 3867TIP3   OH233159   0.140   4.428   1.325 -0.1101 -0.6729  0.2514
 3867TIP3    H133160   0.188   4.375   1.261 -0.3558  0.1999 -0.6764
 3867TIP3    H233161   0.049   4.426   1.296 -0.0400  0.7097 -0.1447
 3868TIP3   OH233162   0.562   4.654   0.749 -0.2524 -0.6522 -0.0402
 3868TIP3    H133163   0.509   4.734   0.752 -1.0701 -1.1290 -1.0040
 3868TIP3    H233164   0.505   4.586   0.787 -0.0178 -1.0021 -0.3095
 3869TIP3   OH233165   3.870   2.352   8.337  0.1905  0.8366  0.6261
 3869TIP3    H133166   3.911   2.401   8.266 -0.1251  1.3678  0.8064
 3869TIP3    H233167   3.941   2.335   8.399  0.6822 -0.4856 -0.2630
 3870TIP3   OH233168   1.328   1.938   2.267  0.5512  0.0533  0.1254
 3870TIP3    H133169   1.294   1.854   2.236 -0.9336  0.6549  0.0280
 3870TIP3    H233170   1.412   1.947   2.223 -1.1094  0.5324 -3.3163
 3871TIP3   OH233171   1.659   4.316   0.021 -0.1792  0.3285  0.0992
 3871TIP3    H133172   1.749   4.337   0.044  0.0524 -0.6312  0.0848
 3871TIP3    H233173   1.628   4.394  -0.026  1.3241 -0.1481 -1.8083
 3872TIP3   OH233174   5.249   5.773   8.417 -0.0517  0.2801  0.1927
 3872TIP3    H133175   5.208   5.830   8.482 -1.1769 -0.8805  0.5542
 3872TIP3    H233176   5.292   5.705   8.469 -0.2761 -0.2063 -0.2424
 3873TIP3   OH233177   0.329   0.481   7.661 -0.0977  0.4364  0.4775
 3873TIP3    H133178   0.368   0.395   7.673 -0.5054  0.0641 -0.7590
 3873TIP3    H233179   0.254   0.466   7.605  0.6462  1.7948 -0.9559
 3874TIP3   OH233180   5.026   3.334   2.552 -0.0992  0.0807  0.1612
 3874TIP3    H133181   4.987   3.247   2.551  0.0237  0.0354 -0.6443
 3874TIP3    H233182   4.952   3.393   2.568 -0.4355 -0.0487 -0.8521
 3875TIP3   OH233183   2.461   2.942   8.297 -0.1552  0.2213  0.1448
 3875TIP3    H133184   2.372   2.912   8.279  0.4661 -1.5435 -0.1063
 3875TIP3    H233185   2.452   2.996   8.376 -1.1205 -2.1161  1.7626
 3876TIP3   OH233186   6.518   6.252   0.516  0.4777 -0.0144  0.4574
 3876TIP3    H133187   6.489   6.338   0.487  0.2556 -0.3226 -0.2666
 3876TIP3    H233188   6.455   6.191   0.477  1.1541 -0.5697  0.2138
 3877TIP3   OH233189   1.602   4.355   1.664 -0.3922 -0.1095  0.1400
 3877TIP3    H133190   1.612   4.260   1.675  0.3900 -0.0197  0.2651
 3877TIP3    H233191   1.649   4.393   1.739  0.3339  0.3922 -0.5498
 3878TIP3   OH233192   2.251   6.227   1.386  0.2345 -0.6581  0.1111
 3878TIP3    H133193   2.287   6.138   1.392 -2.4497 -1.7533  2.3517
 3878TIP3    H233194   2.203   6.239   1.468 -0.0146  2.6823 -0.3841
 3879TIP3   OH233195   3.440   6.651   0.199  0.5014 -0.3613 -0.3270
 3879TIP3    H133196   3.524   6.694   0.215  0.9353 -0.9448 -0.9634
 3879TIP3    H233197   3.421   6.604   0.280  0.6235  0.0371 -0.0659
 3880TIP3   OH233198   5.057   3.938   8.508  0.1159  0.6523 -0.5176
 3880TIP3    H133199   5.061   3.918   8.602 -0.5880 -0.6892 -0.7441
 3880TIP3    H233200   5.100   3.863   8.466  0.2566  1.1504 -1.2798
 3881TIP3   OH233201   4.157   4.939   1.373 -0.2721  0.4597 -0.8129
 3881TIP3    H133202   4.102   4.891   1.311 -0.5650  0.8485 -0.8566
 3881TIP3    H233203   4.210   4.871   1.415 -0.4244  0.1376 -1.1313
 3882TIP3   OH233204   2.747   3.553   2.448  0.4878 -1.0819  0.2266
 3882TIP3    H133205   2.819   3.580   2.504  2.5091 -3.3636 -1.1020
 3882TIP3    H233206   2.697   3.634   2.432  1.6838  0.2221  2.5904
 3883TIP3   OH233207   6.286   0.409   2.345 -0.4357  0.2916  0.5464
 3883TIP3    H133208   6.359   0.461   2.378  0.9447  1.5742 -3.8843
 3883TIP3    H233209   6.225   0.474   2.310 -1.2885 -0.9431 -0.3098
 3884TIP3   OH233210   1.513   5.552   0.281 -0.0296 -0.6514  0.1446
 3884TIP3    H133211   1.537   5.548   0.373 -0.2777 -1.6659  0.1779
 3884TIP3    H233212   1.428   5.597   0.280  0.8269  1.0306  0.2181
 3885TIP3   OH233213   5.850   1.011   2.663  0.4089 -0.6572 -0.0369
 3885TIP3    H133214   5.878   0.921   2.650 -0.2126 -1.3976  2.9923
 3885TIP3    H233215   5.813   1.012   2.751  0.9303  2.6902  0.2822
 3886TIP3   OH233216   5.228   2.884   8.742 -0.0090  0.3926  0.3581
 3886TIP3    H133217   5.272   2.963   8.712  0.3586  0.5768  1.3621
 3886TIP3    H233218   5.221   2.830   8.663  2.0412  0.3491  0.1451
 3887TIP3   OH233219   1.132   0.385   0.429  0.6025 -0.0026  0.2489
 3887TIP3    H133220   1.116   0.309   0.484 -1.8419 -0.5154 -1.0228
 3887TIP3    H233221   1.224   0.377   0.404  1.5524 -0.2377  3.3772
 3888TIP3   OH233222   2.635   4.903   1.453  0.2336 -0.0600  0.1689
 3888TIP3    H133223   2.645   4.992   1.420 -0.7739 -0.3466 -0.9718
 3888TIP3    H233224   2.716   4.859   1.427  0.6858  0.4732  0.6327
 3889TIP3   OH233225   2.859   3.979   2.010 -0.5135 -0.3507 -0.1550
 3889TIP3    H133226   2.888   3.912   2.071 -0.1790 -1.8717 -1.9158
 3889TIP3    H233227   2.939   4.011   1.970 -0.5275  2.0668  1.5037
 3890TIP3   OH233228   2.822   3.173   8.071 -0.1112  0.9494 -0.0418
 3890TIP3    H133229   2.917   3.182   8.081 -0.4025  2.8718  1.4989
 3890TIP3    H233230   2.806   3.079   8.083  1.3451  0.9297  2.5837
 3891TIP3   OH233231   2.599   5.333   1.237 -0.5724  0.1644  0.3998
 3891TIP3    H133232   2.651   5.396   1.187 -1.0906 -0.5890 -1.1347
 3891TIP3    H233233   2.589   5.258   1.179  0.9593 -1.8685  2.5784
 3892TIP3   OH233234   1.595   5.337   1.662  0.2943 -0.2754  0.3025
 3892TIP3    H133235   1.504   5.309   1.666  0.7632 -2.0904 -0.6097
 3892TIP3    H233236   1.592   5.422   1.617 -1.0238  0.3724  1.5142
 3893TIP3   OH233237   3.959   4.359   8.547  0.3789  0.7103 -0.1359
 3893TIP3    H133238   4.024   4.310   8.596 -0.0173  0.0614 -0.2503
 3893TIP3    H233239   3.900   4.394   8.613 -0.6996 -0.9468 -0.1771
 3894TIP3   OH233240   0.491   5.652   0.504  0.2441 -0.2102 -0.5024
 3894TIP3    H133241   0.398   5.654   0.523  0.0932 -2.0906 -0.8287
 3894TIP3    H233242   0.527   5.727   0.550 -1.0934 -0.7600  1.5563
 3895TIP3   OH233243   0.372   6.637   1.690 -0.1303 -0.4346  0.5503
 3895TIP3    H133244   0.464   6.640   1.666 -0.1362  0.2481  0.6079
 3895TIP3    H233245   0.348   6.544   1.681 -0.2683 -0.2068 -2.6604
 3896TIP3   OH233246   6.702   0.308   0.710 -0.0031  0.0289  0.0074
 3896TIP3    H133247   6.694   0.394   0.752  0.1033  1.0173 -1.8603
 3896TIP3    H233248   6.645   0.251   0.761 -1.6098  1.6830  0.1765
 3897TIP3   OH233249   3.326   1.415   2.026 -0.0141  0.1295  0.5293
 3897TIP3    H133250   3.355   1.432   2.115  0.8998  0.2733  0.2145
 3897TIP3    H233251   3.238   1.451   2.022 -0.3261 -0.4965  1.5702
 3898TIP3   OH233252   4.271   6.274   8.518 -0.4772 -0.1112 -0.0581
 3898TIP3    H133253   4.212   6.325   8.464 -0.2984 -0.8178 -0.9378
 3898TIP3    H233254   4.357   6.283   8.476 -0.3279 -0.6466  0.1166
 3899TIP3   OH233255   4.490   4.442   1.390 -0.2530  0.0340  0.2457
 3899TIP3    H133256   4.449   4.464   1.473 -1.1351 -0.1043 -0.1398
 3899TIP3    H233257   4.421   4.399   1.339  0.8929 -2.0006  0.2961
 3900TIP3   OH233258   3.168   6.547   2.296  0.1287  0.4716  0.0082
 3900TIP3    H133259   3.073   6.549   2.280 -0.0751  3.7476  0.9587
 3900TIP3    H233260   3.177   6.568   2.388  1.8230  1.0651 -0.2716
 3901TIP3   OH233261   2.202   5.081   2.031 -0.4042 -0.4453 -0.1511
 3901TIP3    H133262   2.218   5.158   2.084 -0.5393 -1.6514  1.7468
 3901TIP3    H233263   2.107   5.080   2.018 -0.3799 -0.1895 -0.3504
 3902TIP3   OH233264   2.522   6.277   7.437  0.2505  0.4357 -0.0578
 3902TIP3    H133265   2.599   6.237   7.477  1.0133  2.4485  0.6302
 3902TIP3    H233266   2.552   6.309   7.352 -0.0512  0.4583 -0.1571
 3903TIP3   OH233267   4.554   6.631   7.864  0.2669  0.7195  0.3554
 3903TIP3    H133268   4.494   6.561   7.839  2.0078 -0.3754 -1.0356
 3903TIP3    H233269   4.558   6.627   7.960 -1.5265  0.5829  0.4574
 3904TIP3   OH233270   2.290   4.585   8.367  0.0132 -0.2478 -0.0960
 3904TIP3    H133271   2.292   4.492   8.389 -1.9368 -0.4521 -0.6289
 3904TIP3    H233272   2.352   4.595   8.295 -0.5058 -1.3476 -0.7120
 3905TIP3   OH233273   3.533   0.594   1.348 -0.2459  0.3786 -0.0615
 3905TIP3    H133274   3.593   0.545   1.292 -0.6151  0.8072 -0.8453
 3905TIP3    H233275   3.590   0.646   1.404  0.1924 -1.4675  1.3222
 3906TIP3   OH233276   3.105   4.041   1.905 -0.1323 -0.5130 -0.0157
 3906TIP3    H133277   3.197   4.052   1.927  0.0988  0.8704 -1.5023
 3906TIP3    H233278   3.096   4.078   1.817 -2.0837 -0.6966  0.0521
 3907TIP3   OH233279   1.849   0.297   2.172 -0.0941 -0.0107 -0.1597
 3907TIP3    H133280   1.775   0.349   2.140  0.9370  0.1702 -2.4352
 3907TIP3    H233281   1.853   0.222   2.113  1.1856 -0.3333  0.2994
 3908TIP3   OH233282   3.680   6.773   7.679 -0.3516  0.2242 -0.1357
 3908TIP3    H133283   3.757   6.717   7.668  0.0349  0.6161  0.5427
 3908TIP3    H233284   3.650   6.757   7.768 -2.6294 -1.8582 -1.1548
 3909TIP3   OH233285   1.739   3.180   2.195 -0.0111 -0.3876 -0.4997
 3909TIP3    H133286   1.708   3.140   2.114  0.5171 -0.5701 -0.6166
 3909TIP3    H233287   1.767   3.107   2.249 -1.4007 -0.3447  0.3027
 3910TIP3   OH233288   1.524   0.438   0.664 -0.1919 -0.6898 -0.1563
 3910TIP3    H133289   1.613   0.469   0.683  0.4428 -1.7715 -1.2453
 3910TIP3    H233290   1.527   0.407   0.574 -2.5322  2.1685 -1.3864
 3911TIP3   OH233291   2.298   0.506   1.813 -0.5104 -0.4134  0.2199
 3911TIP3    H133292   2.315   0.576   1.876 -0.6044  0.0608 -0.2756
 3911TIP3    H233293   2.301   0.426   1.865  0.5081 -0.1192  0.6336
 3912TIP3   OH233294   1.961   1.295   1.040  0.2380 -0.0976 -0.2473
 3912TIP3    H133295   1.909   1.309   0.960  1.4270 -0.1698 -1.0696
 3912TIP3    H233296   2.006   1.379   1.053 -0.7390  0.2652  0.9775
 3913TIP3   OH233297   0.972   2.999   3.095  0.0955 -0.0561  0.4807
 3913TIP3    H133298   0.882   2.980   3.122 -0.1361  0.2394 -0.0575
 3913TIP3    H233299   1.025   2.978   3.172 -0.5443  0.8131  1.1860
 3914TIP3   OH233300   4.403   1.556   0.358 -0.3785 -0.5658 -0.7260
 3914TIP3    H133301   4.465   1.510   0.301 -1.2168 -3.0854  0.2553
 3914TIP3    H233302   4.397   1.502   0.436 -0.6735  1.8317  1.0266
 3915TIP3   OH233303   4.936   4.276   8.679  0.1341  0.1867  0.2584
 3915TIP3    H133304   5.014   4.311   8.721  0.1736  0.3452  0.0521
 3915TIP3    H233305   4.940   4.308   8.589  1.0166 -1.6523 -0.4054
 3916TIP3   OH233306   5.554   6.802   7.879  0.5090 -0.5795  0.2328
 3916TIP3    H133307   5.643   6.775   7.902  0.9081  0.9540  0.5776
 3916TIP3    H233308   5.558   6.825   7.786  0.6305  0.0524  0.3885
 3917TIP3   OH233309   5.562   3.058   2.532  0.2836 -0.0177  0.3373
 3917TIP3    H133310   5.600   3.145   2.524  0.7481 -0.1859  0.6787
 3917TIP3    H233311   5.544   3.048   2.625  1.6802 -0.8689  0.5557
 3918TIP3   OH233312   4.667   1.534   1.625 -0.5472  0.1651  0.8237
 3918TIP3    H133313   4.663   1.585   1.706  0.4226  0.0258  0.9652
 3918TIP3    H233314   4.759   1.511   1.615 -0.5895  0.4735 -0.5092
 3919TIP3   OH233315   4.904   6.045   0.622  0.2083 -1.0822 -0.4594
 3919TIP3    H133316   4.876   5.960   0.658  0.6758 -1.2766 -0.5546
 3919TIP3    H233317   4.859   6.110   0.677  0.2552 -1.3872 -0.0552
 3920TIP3   OH233318   6.689   2.072   0.166  0.1080  0.3161 -0.2907
 3920TIP3    H133319   6.762   2.085   0.105  0.0078  0.4211 -0.3887
 3920TIP3    H233320   6.616   2.044   0.110  0.1217  0.0378 -0.1716
 3921TIP3   OH233321   6.665   6.028   0.745 -0.7963  0.2892 -0.3135
 3921TIP3    H133322   6.579   5.992   0.767 -1.3995  1.4211 -0.7453
 3921TIP3    H233323   6.727   5.970   0.788 -1.7985 -0.1898  0.5178
 3922TIP3   OH233324   1.735   2.169   8.559  0.0022  0.2954 -0.2498
 3922TIP3    H133325   1.688   2.251   8.576  2.2574  1.7455 -0.5280
 3922TIP3    H233326   1.666   2.105   8.542 -1.8627  2.5577 -1.9694
 3923TIP3   OH233327   6.746   5.506   3.205  0.6422  0.0039 -0.1077
 3923TIP3    H133328   6.652   5.526   3.202  0.4301 -0.9522 -2.9505
 3923TIP3    H233329   6.787   5.587   3.235 -1.0999  0.1826  2.0649
 3924TIP3   OH233330   3.268   1.600   8.322 -0.3048  0.5772 -0.4854
 3924TIP3    H133331   3.327   1.634   8.389 -0.1161  1.4626 -1.0750
 3924TIP3    H233332   3.324   1.588   8.245 -0.8568  1.3156 -1.0187
 3925TIP3   OH233333   1.564   6.397   1.242 -0.3279  0.0336 -0.4217
 3925TIP3    H133334   1.637   6.338   1.224  1.4097  1.6314  0.9215
 3925TIP3    H233335   1.493   6.339   1.271  0.1462 -1.6243 -2.3703
 3926TIP3   OH233336   6.482   1.553   8.485  0.0096  1.1661  0.5762
 3926TIP3    H133337   6.451   1.610   8.415  0.2745 -1.0671 -1.5024
 3926TIP3    H233338   6.408   1.496   8.505  0.2252  1.1890  1.4899
 3927TIP3   OH233339   4.738   4.988   1.836 -0.2594  0.0752 -0.5224
 3927TIP3    H133340   4.648   4.956   1.839 -0.2958  0.2157 -0.0764
 3927TIP3    H233341   4.744   5.051   1.908  0.3519 -0.3306 -0.2029
 3928TIP3   OH233342   1.813   4.266   7.816 -0.3478 -0.1698 -0.1966
 3928TIP3    H133343   1.828   4.172   7.829  0.9981 -0.0266 -0.5520
 3928TIP3    H233344   1.900   4.301   7.793 -1.0000  1.0067 -0.9593
 3929TIP3   OH233345   4.736   1.156   8.457 -0.3473  0.0878 -0.0079
 3929TIP3    H133346   4.782   1.234   8.489  0.0289 -1.1365  2.6972
 3929TIP3    H233347   4.750   1.158   8.362  0.7563  2.5851  0.1083
 3930TIP3   OH233348   3.332   4.290   0.996 -0.3106 -0.6528  0.9599
 3930TIP3    H133349   3.399   4.358   1.003  0.3254 -0.7810 -2.4058
 3930TIP3    H233350   3.249   4.337   1.003  0.0714  0.8831 -2.8034
 3931TIP3   OH233351   6.480   0.873   8.243  0.0298  0.3135 -0.6329
 3931TIP3    H133352   6.465   0.779   8.250 -3.2845  0.7913  0.4038
 3931TIP3    H233353   6.455   0.895   8.153  0.6176  0.2414 -0.8158
 3932TIP3   OH233354   6.414   5.404   8.649 -0.1799  0.8758 -0.3628
 3932TIP3    H133355   6.371   5.382   8.567  0.5893  1.8188 -1.0359
 3932TIP3    H233356   6.473   5.476   8.627 -0.5332  1.6786  1.1743
 3933TIP3   OH233357   5.832   2.514   1.233  0.2125  0.4969 -0.1623
 3933TIP3    H133358   5.813   2.524   1.326 -1.7930  0.4293 -0.5161
 3933TIP3    H233359   5.788   2.432   1.209  2.5998 -0.7105 -0.7288
 3934TIP3   OH233360   1.726   0.399   7.940 -0.5362 -0.1988  0.1490
 3934TIP3    H133361   1.646   0.451   7.933  0.2310  1.2268  1.5471
 3934TIP3    H233362   1.741   0.367   7.850 -2.5067 -0.2946 -0.1858
 3935TIP3   OH233363   2.317   5.131   0.750  0.2997  0.0594 -0.3755
 3935TIP3    H133364   2.356   5.052   0.712 -0.0054 -0.9417  1.2845
 3935TIP3    H233365   2.223   5.117   0.743  0.2441  0.4318 -0.3840
 3936TIP3   OH233366   6.136   4.750   8.596 -0.5881  0.2770  0.1586
 3936TIP3    H133367   6.148   4.690   8.669 -1.8312 -0.3676 -0.1471
 3936TIP3    H233368   6.223   4.758   8.557 -0.5541 -2.1476 -0.4063
 3937TIP3   OH233369   1.865   1.703   7.736 -0.3956  0.0607  0.2282
 3937TIP3    H133370   1.865   1.756   7.657  1.0330 -1.8472 -1.1526
 3937TIP3    H233371   1.773   1.684   7.753 -0.7678  1.0889 -0.5465
 3938TIP3   OH233372   0.319   0.998   0.094 -0.1300  0.3134  0.1551
 3938TIP3    H133373   0.382   1.000   0.023  0.2331  1.6317  0.4836
 3938TIP3    H233374   0.254   1.065   0.072 -0.7893 -0.2260  0.3912
 3939TIP3   OH233375   5.074   2.233   7.709  0.2138  0.2880 -0.1938
 3939TIP3    H133376   4.989   2.189   7.705  1.2390 -1.9722  1.0902
 3939TIP3    H233377   5.103   2.236   7.617 -0.9944  0.5695 -0.5798
 3940TIP3   OH233378   0.249   2.757   8.218  0.1074 -0.3720  0.4787
 3940TIP3    H133379   0.173   2.810   8.241  0.3543 -0.2825  1.1037
 3940TIP3    H233380   0.318   2.785   8.279  0.2102 -1.4869  0.9062
 3941TIP3   OH233381   3.846   6.073   1.399  0.1993 -0.2314 -0.3253
 3941TIP3    H133382   3.781   6.010   1.430 -0.4983  0.7931  0.3654
 3941TIP3    H233383   3.845   6.064   1.303 -3.3079  1.8813 -0.6727
 3942TIP3   OH233384   6.324   5.414   0.944 -0.3639  0.0521  0.1063
 3942TIP3    H133385   6.349   5.327   0.913 -1.0082 -0.6170  1.3486
 3942TIP3    H233386   6.229   5.411   0.951 -0.3096  0.4519  1.2581
 3943TIP3   OH233387   6.224   3.983   8.045  0.1450 -0.3806  0.5716
 3943TIP3    H133388   6.237   3.962   7.953  1.5884 -0.2069  0.7165
 3943TIP3    H233389   6.311   3.976   8.084 -0.2083  0.8384  1.6564
 3944TIP3   OH233390   1.730   3.570   7.154  0.1868 -0.5649  0.1518
 3944TIP3    H133391   1.733   3.638   7.086  2.4039 -1.9890 -1.2959
 3944TIP3    H233392   1.639   3.571   7.185 -0.3252  1.7131 -1.1662
 3945TIP3   OH233393   6.430   5.604   2.646 -0.4006 -0.1908  0.8101
 3945TIP3    H133394   6.459   5.525   2.603  0.2776  0.7575 -0.5431
 3945TIP3    H233395   6.351   5.630   2.598 -0.3880  0.1720  0.9810
 3946TIP3   OH233396   0.566   5.418   0.625 -0.7188  0.0389  0.0276
 3946TIP3    H133397   0.585   5.507   0.595 -1.6818 -0.3896 -2.0645
 3946TIP3    H233398   0.611   5.411   0.709  1.3740  1.7012 -0.8473
 3947TIP3   OH233399   4.408   6.774   7.489  0.0191 -0.0581  0.4729
 3947TIP3    H133400   4.471   6.809   7.552 -0.0970 -1.0955  1.1861
 3947TIP3    H233401   4.418   6.831   7.412  3.1657 -1.1963 -0.1554
 3948TIP3   OH233402   6.359   4.963   8.039 -0.1827 -0.4065  0.2503
 3948TIP3    H133403   6.438   4.931   8.084  0.2872  0.1028 -0.1947
 3948TIP3    H233404   6.366   4.926   7.951 -0.5453 -0.5175  0.2689
 3949TIP3   OH233405   5.777   1.643   8.485 -0.7198  0.3259 -0.0254
 3949TIP3    H133406   5.812   1.687   8.562  0.8376  0.7085 -0.9200
 3949TIP3    H233407   5.682   1.648   8.496 -0.5379  1.2658  1.3527
 3950TIP3   OH233408   4.458   2.943   7.739  0.3732 -0.2705  0.6753
 3950TIP3    H133409   4.444   3.038   7.738  0.1638 -0.2971  0.9084
 3950TIP3    H233410   4.386   2.908   7.686 -0.0602 -0.3590  1.3123
 3951TIP3   OH233411   6.714   2.361   1.808 -0.1547  0.1311 -0.6696
 3951TIP3    H133412   6.676   2.421   1.744 -1.9571 -1.6527 -1.4164
 3951TIP3    H233413   6.720   2.412   1.889  1.3173  2.1647 -2.0008
 3952TIP3   OH233414   2.475   4.453   7.494  0.0110 -0.3799  0.2873
 3952TIP3    H133415   2.535   4.466   7.421 -1.5135 -0.2479 -0.9876
 3952TIP3    H233416   2.403   4.401   7.458 -3.2127  3.6192  0.2195
 3953TIP3   OH233417   5.270   1.645   0.257 -0.7808  0.5817 -0.0192
 3953TIP3    H133418   5.280   1.557   0.220 -2.5518 -0.6786  2.1450
 3953TIP3    H233419   5.342   1.653   0.319  0.7756  1.7027 -1.8888
 3954TIP3   OH233420   2.895   4.080   7.773 -0.7356  0.1929  0.2654
 3954TIP3    H133421   2.938   4.023   7.837  0.8136  1.0062 -0.0180
 3954TIP3    H233422   2.887   4.026   7.694  0.6509  0.2999  0.0241
 3955TIP3   OH233423   2.532   5.658   2.908 -0.3116  0.4626  0.3671
 3955TIP3    H133424   2.446   5.687   2.940 -0.6892 -0.0349 -0.1770
 3955TIP3    H233425   2.535   5.565   2.930 -0.3960  0.2136 -0.6516
 3956TIP3   OH233426   1.163   0.665   0.529 -0.8387 -0.4643 -0.0257
 3956TIP3    H133427   1.191   0.668   0.620 -2.4385 -0.6812  0.4966
 3956TIP3    H233428   1.135   0.574   0.515 -1.5454 -0.1871 -0.4377
 3957TIP3   OH233429   3.711   4.993   8.770  0.5791 -0.3681  0.1963
 3957TIP3    H133430   3.711   5.087   8.789 -0.6042  0.7238 -4.2100
 3957TIP3    H233431   3.630   4.960   8.808  1.2610  0.1906  2.2520
 3958TIP3   OH233432   1.266   2.558   7.319  0.4713 -0.2542 -0.4140
 3958TIP3    H133433   1.355   2.572   7.349  0.5326 -0.4345 -0.5066
 3958TIP3    H233434   1.210   2.593   7.389  0.6113  1.5436 -1.1637
 3959TIP3   OH233435   5.765   5.753   7.989  0.2375  0.2226  0.3553
 3959TIP3    H133436   5.733   5.830   8.036 -1.2409  1.2100 -2.1139
 3959TIP3    H233437   5.689   5.695   7.984  0.2903  0.2583 -1.0191
 3960TIP3   OH233438   5.969   4.506   0.339  0.3381 -0.2053 -0.7919
 3960TIP3    H133439   5.968   4.593   0.379  2.3542  0.3471 -1.7776
 3960TIP3    H233440   6.049   4.465   0.375 -0.1217 -1.3208 -1.0049
 3961TIP3   OH233441   1.670   4.723   0.653 -0.3839  0.1606  0.2811
 3961TIP3    H133442   1.628   4.798   0.697  1.0808  0.9638  0.3725
 3961TIP3    H233443   1.692   4.663   0.725 -2.8465 -1.1118  0.0923
 3962TIP3   OH233444   5.980   1.041   7.106  0.6958 -0.2585 -1.0804
 3962TIP3    H133445   5.936   1.097   7.171  0.4560  0.4033 -1.7984
 3962TIP3    H233446   6.067   1.028   7.142  0.0246 -1.3668  0.2393
 3963TIP3   OH233447   5.699   4.216   3.243  0.1364 -0.3632 -0.3702
 3963TIP3    H133448   5.626   4.156   3.257  0.0134 -0.4134 -1.1763
 3963TIP3    H233449   5.777   4.161   3.252  0.0189 -0.7079 -1.3352
 3964TIP3   OH233450   3.209   1.063   7.096 -0.2688 -0.5875  0.2987
 3964TIP3    H133451   3.146   1.072   7.024  0.4266  1.5307 -0.1212
 3964TIP3    H233452   3.291   1.096   7.059  0.3137 -0.3168  1.7946
 3965TIP3   OH233453   0.681   4.424   8.564 -0.2148 -0.5974  0.3686
 3965TIP3    H133454   0.701   4.370   8.641  0.5155 -0.3205  0.3770
 3965TIP3    H233455   0.610   4.481   8.593  0.3948 -0.1457  1.0052
 3966TIP3   OH233456   6.554   1.106   7.203 -0.7222  0.1788 -0.1253
 3966TIP3    H133457   6.480   1.073   7.253 -0.0192 -0.4513  0.5155
 3966TIP3    H233458   6.569   1.194   7.239  0.1070 -0.4637  1.1687
 3967TIP3   OH233459   6.009   0.050   2.915  0.1851 -0.3127  0.5247
 3967TIP3    H133460   6.048   0.135   2.897  0.2105 -0.2449  0.8840
 3967TIP3    H233461   6.013   0.003   2.832 -0.9745  0.4892 -0.0191
 3968TIP3   OH233462   5.706   1.386   3.283  0.4127 -0.1423  0.2278
 3968TIP3    H133463   5.765   1.450   3.244 -1.5713  1.3493 -0.4917
 3968TIP3    H233464   5.659   1.434   3.351 -1.5864 -0.5727 -0.7725
 3969TIP3   OH233465   1.401   4.365   8.485  0.1409  0.2829 -0.1333
 3969TIP3    H133466   1.308   4.347   8.471  0.1676  0.4250 -0.4983
 3969TIP3    H233467   1.432   4.292   8.539  0.3055 -0.8818 -1.7443
 3970TIP3   OH233468   4.892   4.580   1.720 -0.3713  0.6578 -0.1393
 3970TIP3    H133469   4.845   4.621   1.646 -0.7270 -0.5009 -0.5702
 3970TIP3    H233470   4.926   4.498   1.684  1.8591  1.3445  0.2099
 3971TIP3   OH233471   4.491   2.213   1.820  0.4299 -0.2439  0.5819
 3971TIP3    H133472   4.563   2.172   1.772  1.5984  2.0640  0.2362
 3971TIP3    H233473   4.521   2.214   1.911  0.2586 -0.4021  0.6420
 3972TIP3   OH233474   0.658   4.355   1.671 -0.9268 -0.9202  0.1881
 3972TIP3    H133475   0.659   4.334   1.577  1.9524  0.7488 -0.2841
 3972TIP3    H233476   0.745   4.328   1.702 -0.5935  1.5460  1.5884
 3973TIP3   OH233477   1.496   2.617   1.098  0.0706  0.5549 -0.5383
 3973TIP3    H133478   1.507   2.540   1.042  0.1378  0.5568 -0.5280
 3973TIP3    H233479   1.585   2.643   1.121  0.0122 -0.1302  0.5099
 3974TIP3   OH233480   1.255   6.018   7.775  0.0592  0.2750 -0.2773
 3974TIP3    H133481   1.163   6.044   7.785  0.6112  1.7067  2.0463
 3974TIP3    H233482   1.299   6.097   7.744  0.2160 -1.1482 -4.2663
 3975TIP3   OH233483   4.419   0.558   2.553  0.0102 -0.6091  0.3881
 3975TIP3    H133484   4.482   0.606   2.606 -0.3232 -0.2675  0.4798
 3975TIP3    H233485   4.408   0.611   2.475 -0.8998 -0.1625  0.8067
 3976TIP3   OH233486   3.240   5.974   0.068 -0.0131  0.3721 -0.0217
 3976TIP3    H133487   3.238   6.046   0.131 -0.6469 -0.2618  0.7064
 3976TIP3    H233488   3.157   5.980   0.021  1.1045  1.8096 -1.9679
 3977TIP3   OH233489   6.635   3.627   1.939  1.0851  0.3478  0.3112
 3977TIP3    H133490   6.587   3.558   1.895 -0.4308  0.8068  1.1746
 3977TIP3    H233491   6.685   3.582   2.007  1.5343 -0.0808 -0.2962
 3978TIP3   OH233492   3.842   5.850   2.532 -0.1108 -0.1192  0.1706
 3978TIP3    H133493   3.933   5.828   2.511  1.2496  3.0361  1.9826
 3978TIP3    H233494   3.841   5.859   2.628 -1.9816  1.2302  0.0817
 3979TIP3   OH233495   6.344   3.683   1.631 -0.2227 -0.2821  0.0379
 3979TIP3    H133496   6.381   3.771   1.627  0.8514 -0.7255 -0.3980
 3979TIP3    H233497   6.255   3.695   1.663 -0.2078  0.9894 -0.3476
 3980TIP3   OH233498   2.402   0.515   2.284 -0.8477 -0.6618 -0.5126
 3980TIP3    H133499   2.414   0.508   2.189 -0.8650 -0.6747 -0.5139
 3980TIP3    H233500   2.483   0.480   2.321 -0.2190  0.7303 -0.5427
 3981TIP3   OH233501   1.734   3.944   1.876 -0.7285 -0.7007  0.3500
 3981TIP3    H133502   1.687   3.946   1.959 -1.1712 -2.0044  0.1661
 3981TIP3    H233503   1.826   3.946   1.900 -0.8350  1.0023  0.7579
 3982TIP3   OH233504   4.693   6.202   2.316  0.3719  0.5612  0.3311
 3982TIP3    H133505   4.640   6.258   2.373 -0.4431  0.3415 -0.1911
 3982TIP3    H233506   4.650   6.208   2.231  0.0338 -1.1621  0.3427
 3983TIP3   OH233507   3.355   4.284   1.990  0.1303 -0.6506 -0.4760
 3983TIP3    H133508   3.445   4.313   1.978 -0.0577  0.2406  0.1747
 3983TIP3    H233509   3.352   4.247   2.078  0.3832 -2.8326 -1.2994
 3984TIP3   OH233510   6.644   0.021   8.257  0.1011 -0.1133  0.6542
 3984TIP3    H133511   6.564  -0.017   8.294  0.9331 -1.5625  1.0351
 3984TIP3    H233512   6.642  -0.005   8.164 -0.6201  1.1838  0.2842
 3985TIP3   OH233513   2.355   5.402   8.386  0.0104  0.0864  0.5515
 3985TIP3    H133514   2.356   5.476   8.325  0.0725 -0.3386  0.0223
 3985TIP3    H233515   2.287   5.344   8.351 -0.5230  0.2184  1.3569
 3986TIP3   OH233516   5.436   4.035   0.264  0.7221  0.5979 -0.1488
 3986TIP3    H133517   5.432   3.943   0.238 -1.5054  0.4248  0.5765
 3986TIP3    H233518   5.477   4.033   0.351 -1.4533 -0.0507  0.9407
 3987TIP3   OH233519   2.847   1.361   2.070  0.7336  0.3172  0.2844
 3987TIP3    H133520   2.904   1.316   2.007 -1.3253 -0.1131 -1.3872
 3987TIP3    H233521   2.866   1.319   2.154  2.5535 -0.0767 -0.2859
 3988TIP3   OH233522   1.416   3.315   2.658  0.8309  0.0595 -0.6553
 3988TIP3    H133523   1.462   3.391   2.694 -1.8200  1.4482 -0.0041
 3988TIP3    H233524   1.433   3.319   2.564 -1.2014  2.9614 -1.0091
 3989TIP3   OH233525   1.326   6.084   0.724  0.1860  0.6314  0.0991
 3989TIP3    H133526   1.410   6.060   0.685  0.6409  0.8284  0.9528
 3989TIP3    H233527   1.318   6.178   0.706 -0.7231  0.2804 -1.5861
 3990TIP3   OH233528   1.308   1.922   2.637 -0.3195 -0.4220 -0.2126
 3990TIP3    H133529   1.291   1.972   2.717  1.0737 -0.0115 -0.1419
 3990TIP3    H233530   1.250   1.847   2.642 -0.3118 -0.3528  1.1480
 3991TIP3   OH233531   5.524   5.651   1.157 -1.2938 -0.8598 -0.3952
 3991TIP3    H133532   5.578   5.665   1.079 -0.2911  0.3690  0.4772
 3991TIP3    H233533   5.464   5.725   1.158  0.0230  0.2682  1.0113
 3992TIP3   OH233534   4.925   1.841   1.626 -0.2531 -0.0287  0.1154
 3992TIP3    H133535   4.951   1.927   1.660 -1.0239 -0.0272  0.7376
 3992TIP3    H233536   4.865   1.862   1.554 -2.1486  0.0029  1.6111
 3993TIP3   OH233537   6.746   4.687   7.119  0.1756  0.2062 -0.1248
 3993TIP3    H133538   6.701   4.613   7.159  0.5923 -1.4162 -2.4593
 3993TIP3    H233539   6.838   4.660   7.114  0.2034  0.4664 -1.7771
 3994TIP3   OH233540   3.486   2.858   2.150 -0.5325  0.0956  0.0670
 3994TIP3    H133541   3.568   2.887   2.110 -0.9253  2.0115  0.5292
 3994TIP3    H233542   3.497   2.876   2.243 -1.1268 -0.5494  0.2680
 3995TIP3   OH233543   3.829   0.670   2.810  0.1021 -0.1272 -0.1877
 3995TIP3    H133544   3.864   0.753   2.841 -0.6925  0.2881 -0.3868
 3995TIP3    H233545   3.900   0.632   2.758  0.2930  0.6466 -0.5014
 3996TIP3   OH233546   4.125   5.148   8.603 -0.0932 -0.0158  0.1079
 3996TIP3    H133547   4.121   5.234   8.561 -1.1945 -0.0987 -0.0095
 3996TIP3    H233548   4.164   5.165   8.688 -0.1438  0.5741  0.0210
 3997TIP3   OH233549   6.549   5.104   3.068  0.3425 -0.4810  0.1518
 3997TIP3    H133550   6.467   5.100   3.020  0.5271  0.4494 -0.2760
 3997TIP3    H233551   6.592   5.021   3.049 -0.3039 -0.7899  0.0203
 3998TIP3   OH233552   0.066   3.293   0.224 -0.1246  0.1485  0.3217
 3998TIP3    H133553   0.061   3.232   0.297  0.3644  1.1391  1.2224
 3998TIP3    H233554   0.106   3.244   0.153  2.8648  0.1517  1.8805
 3999TIP3   OH233555   5.420   3.045   3.166  0.0912  0.2107 -0.1016
 3999TIP3    H133556   5.406   2.959   3.204 -0.9124  0.0322 -0.8266
 3999TIP3    H233557   5.380   3.106   3.228  0.5215  0.1383  0.2548
 4000TIP3   OH233558   4.777   0.519   7.729 -0.3452  0.5695  0.2592
 4000TIP3    H133559   4.739   0.519   7.641 -1.4468 -1.6469  0.6487
 4000TIP3    H233560   4.734   0.446   7.773  2.1494 -0.1055  1.7829
 4001TIP3   OH233561   4.072   6.708   1.250  0.2457 -0.1251 -0.5802
 4001TIP3    H133562   4.079   6.741   1.161  0.3005 -1.8335 -1.2435
 4001TIP3    H233563   4.159   6.675   1.271  0.2592  0.3457  0.1562
 4002TIP3   OH233564   2.342   0.888   7.635 -0.2543 -1.0302 -0.3895
 4002TIP3    H133565   2.344   0.920   7.545 -0.7661  0.7126  0.1853
 4002TIP3    H233566   2.428   0.910   7.671 -0.3371 -0.9868 -0.2174
 4003TIP3   OH233567   2.378   3.765   0.623  0.0661  0.5159 -0.5897
 4003TIP3    H133568   2.387   3.750   0.529 -0.8373 -1.9781 -0.3543
 4003TIP3    H233569   2.353   3.857   0.630  4.2992  2.0633 -2.4400
 4004TIP3   OH233570   5.414   3.777   1.056 -0.4059  0.0578  0.3653
 4004TIP3    H133571   5.332   3.811   1.019 -0.6600  0.0160  0.8837
 4004TIP3    H233572   5.386   3.724   1.131  0.1756  1.0057  1.2688
 4005TIP3   OH233573   0.353   0.232   2.606 -0.1066  0.4381  0.6705
 4005TIP3    H133574   0.359   0.148   2.559  0.6813  0.9510 -0.1657
 4005TIP3    H233575   0.370   0.209   2.697  1.4791 -0.1339  0.2583
 4006TIP3   OH233576   5.320   4.618   0.045  0.2122  0.2396 -0.0098
 4006TIP3    H133577   5.401   4.665   0.024 -1.0021  2.1667 -0.7117
 4006TIP3    H233578   5.257   4.688   0.065 -1.4687 -1.1546 -0.2218
 4007TIP3   OH233579   5.950   3.458   7.549 -0.3460 -0.2575  0.4629
 4007TIP3    H133580   5.856   3.442   7.551 -0.9518  2.7102  2.1891
 4007TIP3    H233581   5.964   3.506   7.468 -0.6006  0.4831  0.8463
 4008TIP3   OH233582   5.095   3.371   2.283  0.0595 -0.2844 -0.5575
 4008TIP3    H133583   5.093   3.362   2.378  1.4761 -0.6964 -0.5350
 4008TIP3    H233584   5.005   3.388   2.258 -0.2354  0.4900  0.9244
 4009TIP3   OH233585   4.722   4.488   8.273  0.0925 -0.7861  0.5463
 4009TIP3    H133586   4.787   4.511   8.206 -0.7641  0.1043 -0.0079
 4009TIP3    H233587   4.773   4.478   8.353  1.0418 -1.0931 -0.0762
 4010TIP3   OH233588   5.106   6.540   8.055  0.2321 -0.0702  0.1865
 4010TIP3    H133589   5.146   6.601   7.993  0.3666 -2.2385 -1.9643
 4010TIP3    H233590   5.171   6.472   8.069 -0.1725 -0.1503  2.0073
 4011TIP3   OH233591   4.457   6.306   0.638  0.1883 -0.1086  0.3884
 4011TIP3    H133592   4.395   6.237   0.660  0.8710 -1.3340 -1.3351
 4011TIP3    H233593   4.526   6.298   0.704 -0.3963 -0.1579  1.0072
 4012TIP3   OH233594   5.398   1.050   1.326  0.9180 -0.5027 -0.2509
 4012TIP3    H133595   5.377   0.970   1.277  0.9408 -0.7320  0.1124
 4012TIP3    H233596   5.432   1.019   1.410 -0.5777 -0.1029  0.5266
 4013TIP3   OH233597   6.713   5.855   1.231 -0.0611  0.2019 -0.3856
 4013TIP3    H133598   6.768   5.781   1.208 -0.6028 -0.1382 -0.6037
 4013TIP3    H233599   6.750   5.929   1.181  2.4118  0.8563  2.1643
 4014TIP3   OH233600   1.640   6.262   1.577  0.1573  0.4884 -0.0165
 4014TIP3    H133601   1.701   6.320   1.622 -1.0629  2.0496 -0.2555
 4014TIP3    H233602   1.568   6.320   1.550 -0.6634 -0.9822 -1.1323
 4015TIP3   OH233603   0.773   3.572   0.003  0.4977  0.2219  0.6199
 4015TIP3    H133604   0.821   3.647  -0.032  0.0925  0.7222  1.1278
 4015TIP3    H233605   0.686   3.607   0.024  0.8232  0.0210  2.4225
 4016TIP3   OH233606   4.436   2.750   8.031  0.2049  0.2119 -0.1942
 4016TIP3    H133607   4.518   2.764   7.983  0.2511 -2.6197 -1.1742
 4016TIP3    H233608   4.459   2.684   8.097 -1.3161 -0.9055 -0.7340
 4017TIP3   OH233609   5.366   6.315   0.332  0.9476 -0.4007 -0.6277
 4017TIP3    H133610   5.381   6.405   0.362 -0.1470 -0.0236 -1.1391
 4017TIP3    H233611   5.313   6.275   0.401  2.2298 -0.9761  0.0548
 4018TIP3   OH233612   5.156   3.101   8.207 -0.1348  0.4461  0.1371
 4018TIP3    H133613   5.173   3.008   8.192  0.5267  0.7590 -1.1897
 4018TIP3    H233614   5.105   3.103   8.288 -0.3249 -1.0759  0.0856
 4019TIP3   OH233615   6.547   4.001   8.408  0.4133 -0.5117 -0.0282
 4019TIP3    H133616   6.536   3.925   8.466  2.2577 -2.2234 -1.7711
 4019TIP3    H233617   6.562   4.074   8.468 -0.9705 -1.5459  1.7059
 4020TIP3   OH233618   1.719   4.005   1.217  0.4503 -0.2081 -0.5955
 4020TIP3    H133619   1.654   4.075   1.213  1.0858  0.5942  1.4990
 4020TIP3    H233620   1.796   4.042   1.175  0.7136  0.2928  0.3053
 4021TIP3   OH233621   2.791   4.164   1.751 -0.2064 -0.4481  0.0310
 4021TIP3    H133622   2.801   4.101   1.679 -1.3638  0.8193 -1.3083
 4021TIP3    H233623   2.812   4.114   1.830  0.5990 -2.0327 -1.1307
 4022TIP3   OH233624   6.505   5.647   8.510 -0.2706 -0.0807  0.1837
 4022TIP3    H133625   6.542   5.717   8.563 -1.6213 -0.1766  1.3178
 4022TIP3    H233626   6.437   5.690   8.458  0.8358 -0.0441 -1.2983
 4023TIP3   OH233627   3.626   5.683   1.560  0.1762  0.8397  0.0475
 4023TIP3    H133628   3.653   5.712   1.473 -0.0954 -0.1704 -0.3840
 4023TIP3    H233629   3.701   5.706   1.616  0.6399  0.8799 -0.5721
 4024TIP3   OH233630   0.590   1.809   2.479 -0.1425  0.4374  0.6560
 4024TIP3    H133631   0.499   1.781   2.489 -0.0313 -0.4046 -0.4861
 4024TIP3    H233632   0.584   1.891   2.430 -0.3246  1.0224  1.6186
 4025TIP3   OH233633   2.581   4.165   0.692 -0.3705  0.2813 -0.5946
 4025TIP3    H133634   2.629   4.112   0.756 -0.4733 -1.1872 -1.6766
 4025TIP3    H233635   2.542   4.235   0.744 -1.8312 -1.7746  1.2571
 4026TIP3   OH233636   5.339   1.877   0.756 -0.0300  0.1007  0.0465
 4026TIP3    H133637   5.419   1.833   0.728  0.4473  1.0045 -0.0465
 4026TIP3    H233638   5.368   1.943   0.819 -1.0476 -1.7167  2.6005
 4027TIP3   OH233639   3.012   4.073   0.491  0.4314 -0.2753 -0.3828
 4027TIP3    H133640   3.095   4.117   0.477 -0.6758  1.6232 -1.4734
 4027TIP3    H233641   2.956   4.105   0.420 -1.8101  0.1149  1.4475
 4028TIP3   OH233642   3.067   4.113   2.219 -0.0164  0.6803 -0.1569
 4028TIP3    H133643   3.094   4.080   2.134 -2.5970 -0.2999 -0.6672
 4028TIP3    H233644   3.072   4.038   2.278  0.9358  1.1550  0.4100
 4029TIP3   OH233645   4.264   6.264   0.983 -0.8253  0.2179 -0.4123
 4029TIP3    H133646   4.280   6.239   0.892  0.0758  1.3174 -0.5909
 4029TIP3    H233647   4.275   6.359   0.983  1.9709  0.0189  1.3174
 4030TIP3   OH233648   6.320   0.974   8.020 -0.0298 -0.2747 -0.2702
 4030TIP3    H133649   6.245   0.971   7.961 -0.1443 -0.9257 -0.1018
 4030TIP3    H233650   6.317   1.061   8.060  0.0325  0.1638 -1.1970
 4031TIP3   OH233651   4.696   2.767   7.956 -0.5002  0.2030 -0.2292
 4031TIP3    H133652   4.697   2.683   8.001 -3.2116 -0.2693 -0.9009
 4031TIP3    H233653   4.763   2.819   8.001  0.0660 -1.7206  1.3004
 4032TIP3   OH233654   4.731   1.168   8.194 -0.5055  0.4898 -0.2214
 4032TIP3    H133655   4.651   1.161   8.143 -0.2831 -1.2382 -0.3922
 4032TIP3    H233656   4.790   1.219   8.140 -1.7460  2.5982  0.2936
 4033TIP3   OH233657   2.822   4.446   0.607  0.1752 -0.9840  0.6572
 4033TIP3    H133658   2.771   4.527   0.609 -0.3253 -1.2419 -0.4842
 4033TIP3    H233659   2.832   4.421   0.698  3.4881  2.2687  1.4244
 4034TIP3   OH233660   4.349   2.261   1.096 -0.5405  0.0073 -0.6684
 4034TIP3    H133661   4.391   2.335   1.140  1.2619 -1.4321  0.1682
 4034TIP3    H233662   4.293   2.302   1.029  0.4185  2.1006 -0.2905
 4035TIP3   OH233663   5.981   4.636   7.623  0.6490 -0.6630  0.2021
 4035TIP3    H133664   6.016   4.547   7.628  1.1115 -0.4701  0.4289
 4035TIP3    H233665   6.023   4.675   7.547  0.8714 -0.4533  0.4331
 4036TIP3   OH233666   5.551   1.322   7.254  0.3225  0.2654  0.5422
 4036TIP3    H133667   5.462   1.319   7.219  0.7374 -0.3798 -0.4966
 4036TIP3    H233668   5.571   1.416   7.261 -0.2852  0.4085  0.3840
 4037TIP3   OH233669   4.583   0.145   2.093 -0.4677 -0.3755 -0.4115
 4037TIP3    H133670   4.621   0.057   2.085 -1.7146 -0.8381 -1.8736
 4037TIP3    H233671   4.490   0.132   2.071 -0.6894  1.2840 -0.5258
 4038TIP3   OH233672   4.631   6.580   8.124  0.2368  0.5089 -0.1516
 4038TIP3    H133673   4.720   6.547   8.117  0.9650  2.0729  1.0705
 4038TIP3    H233674   4.615   6.585   8.219 -0.7327  1.2923 -0.3430
 4039TIP3   OH233675   1.027   3.431   0.087  0.0687  0.4644  0.2294
 4039TIP3    H133676   1.090   3.500   0.068 -0.0639  0.7380  0.7622
 4039TIP3    H233677   0.958   3.443   0.022  0.2392  0.5813  0.0690
 4040TIP3   OH233678   1.885   2.131   7.720  0.3034 -0.0140  0.1065
 4040TIP3    H133679   1.801   2.175   7.722  0.0751 -0.4070 -0.4407
 4040TIP3    H233680   1.873   2.059   7.658  1.0789  0.0123 -0.0911
 4041TIP3   OH233681   6.444   2.870   1.319 -0.0161  0.1717 -0.2501
 4041TIP3    H133682   6.359   2.842   1.285  0.8465 -1.4137 -1.2328
 4041TIP3    H233683   6.480   2.927   1.250  0.8019 -1.2922 -1.0911
 4042TIP3   OH233684   3.679   2.619   0.175  0.2699  0.5218 -0.2942
 4042TIP3    H133685   3.611   2.610   0.108  0.7587 -1.2648 -0.6088
 4042TIP3    H233686   3.634   2.603   0.258  0.2148 -0.2536 -0.4682
 4043TIP3   OH233687   2.113   0.467   8.423 -0.1120  0.0395 -0.2495
 4043TIP3    H133688   2.160   0.432   8.498  0.2750  2.9044  0.9522
 4043TIP3    H233689   2.114   0.562   8.436 -2.2052  0.4767 -2.6035
 4044TIP3   OH233690   4.231   6.524   1.010  0.4835 -0.2024  0.9768
 4044TIP3    H133691   4.143   6.509   1.042 -1.0128 -0.5261 -2.7317
 4044TIP3    H233692   4.225   6.603   0.957  2.3538 -0.3256  0.4814
 4045TIP3   OH233693   4.223   4.192   8.357 -0.6963  0.4420 -0.3931
 4045TIP3    H133694   4.168   4.254   8.308 -0.8481  1.3560  0.8982
 4045TIP3    H233695   4.313   4.219   8.338 -0.6965 -0.2223 -1.4349
 4046TIP3   OH233696   1.358   0.038   1.838  0.3322  0.0839  0.6319
 4046TIP3    H133697   1.385   0.062   1.750 -2.3804  0.2580 -0.2445
 4046TIP3    H233698   1.297   0.107   1.865 -0.3359 -0.9368  1.8658
 4047TIP3   OH233699   0.878   2.051   1.812 -0.3178  0.3120  0.0139
 4047TIP3    H133700   0.944   2.034   1.744 -0.3921  0.1879 -0.0278
 4047TIP3    H233701   0.830   2.127   1.780  1.2550  1.8408  1.1014
 4048TIP3   OH233702   5.654   5.743   0.319 -0.2475 -0.4794 -0.0136
 4048TIP3    H133703   5.735   5.775   0.279 -0.8459  0.7571 -0.2467
 4048TIP3    H233704   5.586   5.762   0.255 -0.7707 -1.3112  0.2800
 4049TIP3   OH233705   4.217   0.320   1.946 -0.3455 -0.1680  0.1147
 4049TIP3    H133706   4.225   0.381   1.872  0.7421  0.7214  0.9366
 4049TIP3    H233707   4.193   0.237   1.905 -1.3747  0.6700 -1.0871
 4050TIP3   OH233708   6.271   5.224   1.248 -0.1735 -0.1795  0.5602
 4050TIP3    H133709   6.342   5.287   1.258  0.5149 -0.3406 -2.4493
 4050TIP3    H233710   6.191   5.276   1.264  0.4802  0.2776  2.7211
 4051TIP3   OH233711   5.687   1.268   1.785  0.0911 -0.3101  0.2289
 4051TIP3    H133712   5.726   1.223   1.710  1.0559 -1.3465  1.3009
 4051TIP3    H233713   5.623   1.206   1.818 -0.5198  0.2551  0.1088
 4052TIP3   OH233714   5.641   0.259   8.332 -0.1587  0.5799  0.1593
 4052TIP3    H133715   5.562   0.217   8.298  0.6070 -0.3054 -0.5917
 4052TIP3    H233716   5.617   0.351   8.342 -1.8885  0.0025  1.8416
 4053TIP3   OH233717   5.843   4.281   0.044 -0.4500  0.1097  0.2347
 4053TIP3    H133718   5.880   4.278   0.133  0.3105 -0.5356 -0.0903
 4053TIP3    H233719   5.830   4.190   0.021 -2.1517  0.3095  0.2684
 4054TIP3   OH233720   1.317   5.721   2.444  0.8365 -0.1227 -0.0541
 4054TIP3    H133721   1.348   5.727   2.354 -0.2075 -0.4573 -0.4486
 4054TIP3    H233722   1.326   5.629   2.467 -0.2286 -0.3099 -0.3263
 4055TIP3   OH233723   4.634   0.975   0.291 -0.3921  0.2779 -0.3651
 4055TIP3    H133724   4.687   0.895   0.295  0.0274  0.5072 -1.0899
 4055TIP3    H233725   4.646   1.007   0.201 -1.5968  0.4559 -0.4826
 4056TIP3   OH233726   4.543   2.240   2.091 -0.0601 -0.1483 -0.2843
 4056TIP3    H133727   4.530   2.322   2.139 -0.2548 -0.0647 -0.4772
 4056TIP3    H233728   4.626   2.206   2.124 -0.4910 -0.4024  0.5479
 4057TIP3   OH233729   1.925   6.058   1.804  0.0940 -0.0903 -0.3602
 4057TIP3    H133730   1.922   5.983   1.744 -0.2410 -1.3848  1.1889
 4057TIP3    H233731   2.018   6.077   1.814  0.1761 -0.2068 -0.8940
 4058TIP3   OH233732   6.747   0.880   1.329 -0.0260 -0.1341  0.1117
 4058TIP3    H133733   6.833   0.913   1.354 -1.3954  3.6850  0.4410
 4058TIP3    H233734   6.727   0.814   1.395  2.1058 -0.1711  0.7977
 4059TIP3   OH233735   1.065   3.190   0.194 -0.2408  0.0834  0.1131
 4059TIP3    H133736   1.097   3.197   0.284  0.6991 -1.5224 -0.0599
 4059TIP3    H233737   1.060   3.280   0.164  3.0840  0.5470  0.5608
 4060TIP3   OH233738   0.523   6.090   0.300  0.2275 -0.4090 -0.2931
 4060TIP3    H133739   0.598   6.032   0.285 -0.6649 -1.6670 -0.1000
 4060TIP3    H233740   0.527   6.154   0.229 -0.0099 -2.0873 -1.9066
 4061TIP3   OH233741   1.544   6.732   7.935  0.1437  0.2751  0.3059
 4061TIP3    H133742   1.567   6.649   7.977  0.1882 -0.6132 -1.3906
 4061TIP3    H233743   1.512   6.707   7.848 -1.6881  1.9133  0.4510
 4062TIP3   OH233744   5.200   1.377   8.729 -0.0054  0.0028 -0.3583
 4062TIP3    H133745   5.228   1.304   8.673 -1.3930 -0.3491 -0.6478
 4062TIP3    H233746   5.269   1.386   8.794  0.8094 -0.7278 -1.1008
 4063TIP3   OH233747   4.671   4.299   0.554 -0.1982 -0.7742  0.6946
 4063TIP3    H133748   4.595   4.266   0.505 -0.5413  3.3121 -1.9626
 4063TIP3    H233749   4.746   4.278   0.498  0.1689 -1.1216  1.3043
 4064TIP3   OH233750   0.150   0.242   8.458  0.3401  0.0120  0.3311
 4064TIP3    H133751   0.241   0.269   8.460  0.2369  0.3704  0.3115
 4064TIP3    H233752   0.144   0.181   8.385  0.2821  1.0317 -0.5454
 4065TIP3   OH233753   2.545   4.800   1.690  0.0041 -0.4706 -0.8830
 4065TIP3    H133754   2.563   4.708   1.668 -1.1861 -0.7940 -0.5915
 4065TIP3    H233755   2.537   4.843   1.605 -0.2644 -0.8145 -1.0364
 4066TIP3   OH233756   5.790   5.090   2.253  0.1152 -0.6707 -0.1809
 4066TIP3    H133757   5.798   5.155   2.184 -0.4166  1.0212  1.2836
 4066TIP3    H233758   5.855   5.116   2.318 -2.0082  0.1551  1.7412
 4067TIP3   OH233759   5.769   6.079   1.934 -0.0869 -0.4716 -0.3404
 4067TIP3    H133760   5.730   6.145   1.878 -0.0380 -0.4587 -0.3602
 4067TIP3    H233761   5.827   6.030   1.876 -0.6928 -1.0148 -0.4941
 4068TIP3   OH233762   1.642   1.732   7.892 -0.0928 -0.7402  0.5815
 4068TIP3    H133763   1.646   1.827   7.902  0.0973 -0.8221  1.2880
 4068TIP3    H233764   1.617   1.698   7.978 -3.9862 -1.1249 -0.5291
 4069TIP3   OH233765   4.796   5.822   0.715  0.5120  0.6411 -0.0673
 4069TIP3    H133766   4.807   5.765   0.640  0.3989 -1.1422  1.1962
 4069TIP3    H233767   4.707   5.856   0.706  0.9375  1.4712 -1.3706
 4070TIP3   OH233768   1.757   4.915   7.639  0.2440  0.2937  0.4613
 4070TIP3    H133769   1.668   4.895   7.609  0.5919  1.8077 -1.8964
 4070TIP3    H233770   1.814   4.860   7.584  0.8094  0.4926  0.8355
 4071TIP3   OH233771   3.825   6.389   0.501 -0.2143  0.2158  0.6848
 4071TIP3    H133772   3.766   6.317   0.525 -1.2355  0.4977 -0.8108
 4071TIP3    H233773   3.815   6.453   0.571 -1.0006 -0.1329  0.8987
 4072TIP3   OH233774   4.922   1.716   1.257 -0.1767  0.2418  0.2742
 4072TIP3    H133775   4.872   1.771   1.316  0.5366  1.3391 -0.1167
 4072TIP3    H233776   4.971   1.656   1.314 -1.8119 -0.7822  0.6604
 4073TIP3   OH233777   3.693   1.389   7.506  0.3837  0.4114 -0.0418
 4073TIP3    H133778   3.715   1.313   7.560 -1.0294  0.2210  0.2940
 4073TIP3    H233779   3.771   1.444   7.510  0.7406 -0.1486  1.2599
 4074TIP3   OH233780   2.174   3.430   0.091 -0.2583 -0.2990  0.3805
 4074TIP3    H133781   2.171   3.475   0.007 -1.3028  0.4897  0.8158
 4074TIP3    H233782   2.251   3.373   0.085 -0.8805 -1.0137 -1.4773
 4075TIP3   OH233783   3.582   3.503   8.205 -0.4267  0.3013 -0.6772
 4075TIP3    H133784   3.635   3.523   8.127  2.7464 -1.7033  0.7652
 4075TIP3    H233785   3.549   3.588   8.233  0.5573  1.4397 -2.7217
 4076TIP3   OH233786   2.285   4.458   8.753  0.2984  0.3473  0.0623
 4076TIP3    H133787   2.272   4.548   8.782 -2.7684 -0.4148  1.4460
 4076TIP3    H233788   2.343   4.420   8.819 -0.0171  0.8021  0.6123
 4077TIP3   OH233789   5.677   6.659   2.476 -0.8520 -0.5779 -0.0684
 4077TIP3    H133790   5.641   6.747   2.485  1.3434  0.3201  0.7283
 4077TIP3    H233791   5.656   6.615   2.559 -1.2416 -0.5178 -0.1365
 4078TIP3   OH233792   1.109   3.867   2.676 -0.2376  0.3437  0.5712
 4078TIP3    H133793   1.167   3.873   2.600 -0.9640  2.1217  0.1110
 4078TIP3    H233794   1.147   3.796   2.729  2.5905  1.6407  0.4910
 4079TIP3   OH233795   4.276   2.521   0.486 -0.1009 -0.2243 -0.0844
 4079TIP3    H133796   4.352   2.470   0.514  0.5419  0.8649  0.1980
 4079TIP3    H233797   4.202   2.461   0.496  0.9752 -2.1688 -2.7465
 4080TIP3   OH233798   5.460   3.763   0.203  0.2325 -0.2563  0.8640
 4080TIP3    H133799   5.546   3.791   0.172  0.1184  0.7361  1.4012
 4080TIP3    H233800   5.399   3.792   0.135  0.2706 -0.6005  0.6782
 4081TIP3   OH233801   5.875   4.857   0.199 -0.1705  0.3350  0.0035
 4081TIP3    H133802   5.944   4.878   0.135 -0.0751  0.8721  0.2775
 4081TIP3    H233803   5.794   4.879   0.154 -0.2155 -0.9243 -0.5664
 4082TIP3   OH233804   5.427   1.714   1.455 -0.3997  0.9336 -0.2403
 4082TIP3    H133805   5.497   1.673   1.505 -1.9328  0.9360  2.0212
 4082TIP3    H233806   5.423   1.663   1.374  1.2214  0.0131  0.2086
 4083TIP3   OH233807   0.623   4.854   7.745  0.1825 -0.2199 -0.6123
 4083TIP3    H133808   0.718   4.844   7.748  0.0535 -2.2674 -1.4948
 4083TIP3    H233809   0.601   4.850   7.652 -0.7196  1.0540 -0.4771
 4084TIP3   OH233810   0.901   6.485   2.289 -0.3124  0.2701 -0.1403
 4084TIP3    H133811   0.838   6.476   2.217  0.7409  0.2893 -1.0933
 4084TIP3    H233812   0.883   6.410   2.346 -0.2247 -0.5625 -1.1787
 4085TIP3   OH233813   3.236   0.461   8.044  0.4795  0.3184 -0.2890
 4085TIP3    H133814   3.202   0.502   7.965  1.2063 -0.1586 -0.8709
 4085TIP3    H233815   3.174   0.390   8.063  0.4518  0.2555 -0.6014
 4086TIP3   OH233816   0.162   1.391   1.216  0.1218 -0.4067 -0.2028
 4086TIP3    H133817   0.230   1.457   1.198  0.6107 -0.4648  1.2807
 4086TIP3    H233818   0.084   1.442   1.237  0.3100 -0.3101  0.2632
 4087TIP3   OH233819   2.227   3.662   8.334 -0.2328 -0.5345  1.0776
 4087TIP3    H133820   2.263   3.627   8.253 -0.6331  1.4383 -0.0246
 4087TIP3    H233821   2.304   3.686   8.386  0.0584 -0.1394  0.4799
 4088TIP3   OH233822   3.897   2.656   7.645  0.2988  0.3954 -0.1988
 4088TIP3    H133823   3.933   2.649   7.557  0.9777  0.1421  0.0920
 4088TIP3    H233824   3.961   2.613   7.701 -0.3306  0.1791  0.3726
 4089TIP3   OH233825   0.207   0.890   8.475 -0.6208  0.1545 -0.4254
 4089TIP3    H133826   0.177   0.893   8.384 -0.5218  2.2553 -0.4331
 4089TIP3    H233827   0.221   0.981   8.499  1.8260 -0.4675  0.8906
 4090TIP3   OH233828   4.137   0.125   2.493  0.5695 -0.2053 -0.1520
 4090TIP3    H133829   4.059   0.127   2.438  0.8620  0.3310 -0.5633
 4090TIP3    H233830   4.118   0.186   2.564  0.5825 -0.1361 -0.2078
 4091TIP3   OH233831   4.196   5.112   0.816  0.4197 -0.1263 -0.5820
 4091TIP3    H133832   4.290   5.105   0.801 -0.0444 -2.2647 -3.0494
 4091TIP3    H233833   4.180   5.058   0.894  0.9059 -2.4732 -2.0169
 4092TIP3   OH233834   4.166   6.658   2.224  0.7813  0.0128  0.5863
 4092TIP3    H133835   4.138   6.574   2.190  1.4402  0.5221 -1.3763
 4092TIP3    H233836   4.224   6.636   2.298 -0.2202 -1.1675  1.0541
 4093TIP3   OH233837   3.714   2.171   1.479  0.1477 -0.1632 -0.3985
 4093TIP3    H133838   3.675   2.137   1.399  0.0041  2.8706 -1.7273
 4093TIP3    H233839   3.640   2.186   1.538 -0.3514  1.8769 -1.4608
 4094TIP3   OH233840   3.727   0.581   7.683  0.6627 -0.4656  0.3009
 4094TIP3    H133841   3.690   0.654   7.732  0.8709  0.7267 -1.2487
 4094TIP3    H233842   3.703   0.599   7.592  0.2036 -2.6594 -0.0592
 4095TIP3   OH233843   0.274   4.364   8.139 -0.2077  0.0529 -0.6879
 4095TIP3    H133844   0.316   4.329   8.218  0.4816 -0.6567 -1.3445
 4095TIP3    H233845   0.214   4.432   8.171 -0.3829 -0.6325  0.4853
 4096TIP3   OH233846   0.802   0.819   1.595 -0.5493  0.2926  0.0383
 4096TIP3    H133847   0.859   0.769   1.653 -0.0885  1.4467  0.5960
 4096TIP3    H233848   0.857   0.891   1.563 -0.7801 -0.3085 -1.8484
 4097TIP3   OH233849   4.924   1.382   8.623  0.2467 -0.5515  0.1499
 4097TIP3    H133850   5.006   1.353   8.664 -1.5157  0.1741  4.7643
 4097TIP3    H233851   4.934   1.477   8.615 -0.4591 -0.2926  1.8617
 4098TIP3   OH233852   1.493   1.804   1.892 -0.0635 -0.4366  0.2714
 4098TIP3    H133853   1.521   1.728   1.841  2.4438  1.5077 -1.4626
 4098TIP3    H233854   1.426   1.846   1.839  0.1910 -0.2125  0.1231
 4099TIP3   OH233855   5.241   4.881   0.488 -0.0494 -0.6496 -0.2971
 4099TIP3    H133856   5.298   4.881   0.565  0.0148 -0.5632 -0.3453
 4099TIP3    H233857   5.235   4.973   0.461 -1.6802 -0.3849  0.7953
 4100TIP3   OH233858   0.020   6.738   7.818 -0.2606  0.2464  0.2544
 4100TIP3    H133859   0.011   6.831   7.797 -1.3433  0.9041  3.1455
 4100TIP3    H233860   0.111   6.729   7.847 -0.1111  0.3583 -0.1735
 4101TIP3   OH233861   6.267   1.263   7.803  0.3682  0.1724 -0.4070
 4101TIP3    H133862   6.196   1.309   7.846 -0.1961 -0.5908 -0.4941
 4101TIP3    H233863   6.342   1.273   7.862 -0.0930  0.0969  0.2043
 4102TIP3   OH233864   2.689   4.685   8.016 -0.1379  0.5304 -0.0371
 4102TIP3    H133865   2.753   4.754   7.996  0.7014 -0.3916 -0.6704
 4102TIP3    H233866   2.668   4.647   7.930 -0.9284  0.2910  0.2561
 4103TIP3   OH233867   4.847   2.920   8.125 -0.1715  0.5304 -0.4072
 4103TIP3    H133868   4.863   2.849   8.187 -1.6572 -0.6677 -1.3229
 4103TIP3    H233869   4.795   2.983   8.174 -1.4550 -0.4710 -0.4510
 4104TIP3   OH233870   1.796   3.376   0.778  0.0416  0.6904  0.1459
 4104TIP3    H133871   1.749   3.294   0.762  1.2055  0.0357 -0.0234
 4104TIP3    H233872   1.860   3.355   0.846 -0.1542  1.6641  0.6493
 4105TIP3   OH233873   5.580   0.529   2.184  0.3690  0.9791  0.4729
 4105TIP3    H133874   5.654   0.489   2.230 -0.3365  1.2366  1.8789
 4105TIP3    H233875   5.503   0.496   2.231 -0.2860  2.9056  0.8068
 4106TIP3   OH233876   6.094   5.260   8.325  0.2431 -0.2430  0.0550
 4106TIP3    H133877   6.166   5.200   8.307  0.1504  0.1574 -1.7752
 4106TIP3    H233878   6.088   5.315   8.247 -1.1131  0.6836  0.7726
 4107TIP3   OH233879   0.528   3.637   0.283 -0.2083 -0.1897  0.0528
 4107TIP3    H133880   0.447   3.688   0.274  0.8767  1.4778 -0.7160
 4107TIP3    H233881   0.504   3.548   0.257 -1.9116  0.1558  0.3554
 4108TIP3   OH233882   0.664   1.805   0.905  0.2069  0.8541 -0.2184
 4108TIP3    H133883   0.641   1.820   0.996  0.5032 -0.2327  0.0438
 4108TIP3    H233884   0.603   1.737   0.876  0.3952  0.8932 -0.7120
 4109TIP3   OH233885   0.946   2.002   0.632 -0.4038 -0.4334 -0.2852
 4109TIP3    H133886   0.981   1.969   0.549 -1.1958  1.5619 -1.4977
 4109TIP3    H233887   0.993   1.953   0.699  2.8497  0.2744 -1.8275
 4110TIP3   OH233888   5.881   3.358   1.879  0.2715  0.4596 -0.2699
 4110TIP3    H133889   5.808   3.395   1.928  1.4580  0.8999  1.2238
 4110TIP3    H233890   5.921   3.295   1.938  1.9743  1.2719 -0.4890
 4111TIP3   OH233891   4.331   0.667   1.992  0.1111 -0.0468  0.1812
 4111TIP3    H133892   4.238   0.671   2.013 -0.2818 -2.1485 -0.8840
 4111TIP3    H233893   4.340   0.725   1.916 -0.1446  0.7692  0.7524
 4112TIP3   OH233894   1.389   4.567   0.018 -0.0344 -0.1897  0.6504
 4112TIP3    H133895   1.423   4.567  -0.072 -0.5608 -0.0853  0.4442
 4112TIP3    H233896   1.406   4.479   0.051  1.9551  0.3419  1.1494
 4113TIP3   OH233897   5.663   2.048   3.175 -0.3007  0.1813 -0.2475
 4113TIP3    H133898   5.600   2.120   3.177  1.3012  1.6104  0.7376
 4113TIP3    H233899   5.610   1.971   3.154 -2.0066  1.6696 -1.7308
 4114TIP3   OH233900   2.992   3.348   0.407 -0.2117  0.0888  0.2640
 4114TIP3    H133901   3.059   3.350   0.476 -0.4648 -1.5250  0.5944
 4114TIP3    H233902   2.926   3.288   0.440 -1.3849  0.9249 -0.4822
 4115TIP3   OH233903   3.759   1.391   0.265  0.4589 -0.4880  0.3030
 4115TIP3    H133904   3.719   1.472   0.295  1.9032  0.6886 -0.8358
 4115TIP3    H233905   3.687   1.340   0.228 -0.1934  1.0723 -0.6418
 4116TIP3   OH233906   0.713   0.685   7.594 -0.0773 -0.2803  0.3762
 4116TIP3    H133907   0.791   0.641   7.560  0.6834  2.6521 -2.0344
 4116TIP3    H233908   0.652   0.688   7.520 -1.4297 -0.1400  1.4468
 4117TIP3   OH233909   2.281   6.417   7.545 -0.1167 -0.1034 -0.0992
 4117TIP3    H133910   2.273   6.495   7.490 -1.0464 -0.5754 -0.6543
 4117TIP3    H233911   2.363   6.376   7.516  0.0811  0.3524 -0.2023
 4118TIP3   OH233912   3.826   5.392   1.080  0.5924  0.5535 -0.2296
 4118TIP3    H133913   3.840   5.436   0.996  1.8818  1.1472  0.2548
 4118TIP3    H233914   3.868   5.306   1.070 -0.5958  0.0141 -0.6801
 4119TIP3   OH233915   1.155   5.344   8.044  0.7129  0.0806  0.1435
 4119TIP3    H133916   1.083   5.391   8.087  1.8139  1.8081  0.1816
 4119TIP3    H233917   1.114   5.304   7.967 -0.7035 -0.7758  1.2835
 4120TIP3   OH233918   1.302   5.206   7.480  0.1597  0.1342 -0.6033
 4120TIP3    H133919   1.358   5.282   7.466  1.1286  0.1380  2.4621
 4120TIP3    H233920   1.215   5.242   7.493  0.8927  1.0740  2.6356
 4121TIP3   OH233921   0.493   0.182   2.303  0.0532 -0.4638  0.1652
 4121TIP3    H133922   0.522   0.188   2.394  0.9957 -2.9638  0.1066
 4121TIP3    H233923   0.571   0.203   2.251 -0.4818  0.9579 -0.1029
 4122TIP3   OH233924   3.004   4.830   0.600  0.7397 -0.3297  0.6193
 4122TIP3    H133925   3.037   4.741   0.594 -1.9100 -1.4322  1.0976
 4122TIP3    H233926   2.909   4.820   0.611  0.3843  2.5413  0.9341
 4123TIP3   OH233927   3.594   3.794   8.175 -0.5040 -0.2910  0.0299
 4123TIP3    H133928   3.584   3.858   8.105 -0.0126  0.9541  1.0421
 4123TIP3    H233929   3.601   3.847   8.255  1.0558 -1.5441  0.7956
 4124TIP3   OH233930   4.255   3.623   0.009  0.0642  0.0646 -0.3219
 4124TIP3    H133931   4.276   3.698   0.064 -1.0003  2.1140 -2.5170
 4124TIP3    H233932   4.161   3.609   0.024 -0.0235  0.0419 -0.8531
 4125TIP3   OH233933   3.851   5.220   1.548  0.0860  0.3628 -0.0262
 4125TIP3    H133934   3.798   5.287   1.592  0.8682 -0.0667  1.6605
 4125TIP3    H233935   3.797   5.142   1.550 -0.0271  0.4383 -0.1537
 4126TIP3   OH233936   4.704   0.944   7.657 -0.2690 -0.2610  0.1391
 4126TIP3    H133937   4.796   0.937   7.682  0.2123  0.4771 -1.2957
 4126TIP3    H233938   4.669   0.856   7.669  0.4439 -0.4126  1.2921
 4127TIP3   OH233939   6.148   5.175   8.641 -0.2312  0.1067  0.4214
 4127TIP3    H133940   6.101   5.122   8.577 -1.4739  1.0724  0.4949
 4127TIP3    H233941   6.137   5.265   8.610  2.3079  0.3291 -0.0064
 4128TIP3   OH233942   4.663   2.353   2.681 -0.3499  0.6760 -0.1091
 4128TIP3    H133943   4.734   2.294   2.706  1.1400  1.5992 -1.8812
 4128TIP3    H233944   4.632   2.391   2.764  0.4973 -0.5424  0.7872
 4129TIP3   OH233945   1.656   0.728   2.819 -0.5247  0.7745 -0.1133
 4129TIP3    H133946   1.700   0.689   2.744  0.1459  1.5803 -0.1570
 4129TIP3    H233947   1.726   0.746   2.882 -1.1449 -0.3445  0.9264
 4130TIP3   OH233948   6.039   2.186   2.563 -0.0107 -0.5129  0.0858
 4130TIP3    H133949   6.117   2.239   2.546  1.6311 -2.2698  1.6368
 4130TIP3    H233950   5.975   2.217   2.499  0.1587  4.4571  1.9208
 4131TIP3   OH233951   3.569   3.527   0.075  0.3181  0.1214  0.3983
 4131TIP3    H133952   3.631   3.526   0.002  0.6926  1.1888  0.6864
 4131TIP3    H233953   3.621   3.551   0.151  0.2325 -2.4316  1.3479
 4132TIP3   OH233954   3.156   5.830   7.512  0.8201 -0.0680 -0.2363
 4132TIP3    H133955   3.225   5.864   7.455 -0.6078  0.1716 -1.9273
 4132TIP3    H233956   3.149   5.737   7.488  1.4372 -0.4206  0.8936
 4133TIP3   OH233957   0.652   2.748   3.072  0.3010 -0.2234  0.0380
 4133TIP3    H133958   0.667   2.831   3.117  0.2061 -0.5333  0.6518
 4133TIP3    H233959   0.562   2.725   3.095  0.1594 -0.2586 -0.5307
 4134TIP3   OH233960   2.661   2.812   1.115  0.5559  0.1628  0.0195
 4134TIP3    H133961   2.592   2.783   1.175 -1.7963  2.5357 -1.3170
 4134TIP3    H233962   2.640   2.768   1.032  0.7110  0.7842 -0.3541
 4135TIP3   OH233963   4.199   6.372   8.769  0.6458  0.2109 -0.0976
 4135TIP3    H133964   4.231   6.460   8.754  1.6152  0.0058  0.6747
 4135TIP3    H233965   4.211   6.327   8.685  1.6856  0.3622 -0.0464
 4136TIP3   OH233966   4.275   5.182   8.335  0.1346  0.3918 -0.5672
 4136TIP3    H133967   4.211   5.111   8.343 -1.2406  1.6126 -0.2551
 4136TIP3    H233968   4.305   5.197   8.424  1.2658 -0.5086 -0.7776
 4137TIP3   OH233969   2.351   3.631   1.116 -0.2032  0.3465 -0.1832
 4137TIP3    H133970   2.422   3.693   1.133  0.8022 -0.9442  0.5295
 4137TIP3    H233971   2.274   3.671   1.158  0.7783  0.3776  1.6870
 4138TIP3   OH233972   5.552   2.581   8.401 -0.0734 -0.0756  0.4875
 4138TIP3    H133973   5.568   2.649   8.466  0.7914  0.4514 -0.2548
 4138TIP3    H233974   5.554   2.626   8.317  0.7987 -1.0421 -0.0460
 4139TIP3   OH233975   5.018   3.275   3.114 -0.1370  0.0661  0.3230
 4139TIP3    H133976   4.995   3.293   3.205 -2.0098 -0.5722  0.0211
 4139TIP3    H233977   5.037   3.361   3.076 -0.0568  0.4094  1.1313
 4140TIP3   OH233978   1.413   5.408   1.183 -0.3943  0.5343 -0.1706
 4140TIP3    H133979   1.374   5.333   1.226  1.2272 -0.1948  0.0820
 4140TIP3    H233980   1.348   5.478   1.192 -0.5247  0.1367  2.5819
 4141TIP3   OH233981   0.982   1.192   8.371  0.5681  0.1016  0.2210
 4141TIP3    H133982   0.926   1.226   8.441  2.4140  1.1430  1.2777
 4141TIP3    H233983   1.010   1.106   8.401 -0.6285 -0.5535 -0.4466
 4142TIP3   OH233984   0.457   4.847   0.126  0.2739 -0.3350  0.0724
 4142TIP3    H133985   0.428   4.877   0.040 -0.3432 -0.3418  0.2787
 4142TIP3    H233986   0.378   4.817   0.169  0.7617 -1.5860  0.1463
 4143TIP3   OH233987   0.239   5.580   1.547 -0.1172 -0.0478  0.5172
 4143TIP3    H133988   0.191   5.660   1.572 -0.4923 -0.5741  1.5436
 4143TIP3    H233989   0.193   5.548   1.470  0.4649  1.0939 -0.3379
 4144TIP3   OH233990   6.302   2.727   1.679  0.1700  0.0788  0.2209
 4144TIP3    H133991   6.347   2.651   1.643  1.3878  1.7000 -1.8639
 4144TIP3    H233992   6.254   2.764   1.605  0.9250  2.2530  0.7471
 4145TIP3   OH233993   4.006   0.307   7.762 -0.0222 -0.6173 -0.4355
 4145TIP3    H133994   3.956   0.258   7.696 -0.5864  0.0786 -0.5432
 4145TIP3    H233995   3.944   0.372   7.795  0.7490  0.1023 -0.3814
 4146TIP3   OH233996   3.703   4.013   1.645 -0.6157 -0.2147 -0.3648
 4146TIP3    H133997   3.730   4.083   1.586 -0.9050  0.3356  0.1442
 4146TIP3    H233998   3.658   4.058   1.716 -0.6308 -0.9046  0.0686
 4147TIP3   OH233999   0.586   6.541   2.622  0.0164  0.8132 -0.2334
 4147TIP3    H134000   0.531   6.543   2.544  0.4202 -1.2393 -0.6224
 4147TIP3    H234001   0.538   6.485   2.684  0.9414  0.2269 -0.0257
 4148TIP3   OH234002   4.282   2.728   0.742  0.5227 -0.2393 -0.2908
 4148TIP3    H134003   4.259   2.654   0.798  1.3022 -0.2747 -0.0184
 4148TIP3    H234004   4.269   2.694   0.653 -1.2145 -0.0234 -0.1693
 4149TIP3   OH234005   6.415   2.855   0.257 -0.5021 -0.3059  0.4095
 4149TIP3    H134006   6.384   2.911   0.186  1.5691  0.3674 -0.0388
 4149TIP3    H234007   6.501   2.825   0.228  0.4076 -0.0273  2.5889
 4150TIP3   OH234008   3.645   0.714   1.054 -0.4198 -0.5526  0.6951
 4150TIP3    H134009   3.637   0.645   0.988  0.0715 -1.0271  1.1229
 4150TIP3    H234010   3.737   0.741   1.049  0.0962 -1.8299  2.3893
 4151TIP3   OH234011   1.639   6.347   0.894 -0.5786  0.0421 -0.2724
 4151TIP3    H134012   1.551   6.308   0.897 -0.8584  0.7279  0.7335
 4151TIP3    H234013   1.678   6.325   0.978 -0.4250  1.2059 -0.0373
 4152TIP3   OH234014   3.814   3.568   7.797  0.2741  0.1388 -0.9097
 4152TIP3    H134015   3.825   3.565   7.702 -1.0108  0.0144 -1.0815
 4152TIP3    H234016   3.853   3.652   7.823  0.1067  0.4505 -1.6294
 4153TIP3   OH234017   2.858   1.277   2.359  0.2537 -0.2167  0.8384
 4153TIP3    H134018   2.802   1.338   2.407 -1.0885 -0.1324 -0.7246
 4153TIP3    H234019   2.814   1.192   2.366 -0.1661 -0.1344 -0.4674
 4154TIP3   OH234020   1.942   5.190   8.004  0.1278  0.2111 -0.8002
 4154TIP3    H134021   1.999   5.266   8.015  0.8819 -0.4659  0.1999
 4154TIP3    H234022   1.925   5.160   8.094 -0.0564 -0.8657 -1.1756
 4155TIP3   OH234023   2.133   0.697   7.641  0.0478  0.0472  0.1093
 4155TIP3    H134024   2.218   0.740   7.647  0.3695 -0.7082  1.1423
 4155TIP3    H234025   2.119   0.686   7.547 -0.4239  3.0983 -0.2825
 4156TIP3   OH234026   0.829   5.377   1.103  0.1306 -0.1781 -0.2133
 4156TIP3    H134027   0.916   5.386   1.064 -0.0810 -1.4196 -1.0493
 4156TIP3    H234028   0.831   5.291   1.145 -0.9554 -0.5994 -0.9785
 4157TIP3   OH234029   0.609   3.001   7.057 -0.1218  0.3648 -0.2041
 4157TIP3    H134030   0.547   3.000   6.984 -0.6027  1.8750  0.1679
 4157TIP3    H234031   0.601   2.914   7.096 -0.5461 -0.1370 -1.3566
 4158TIP3   OH234032   3.808   2.616   1.106 -0.0825  0.3750  0.8005
 4158TIP3    H134033   3.760   2.672   1.167  1.7380 -0.6803  3.3516
 4158TIP3    H234034   3.814   2.531   1.150  3.7810  0.3432  0.5789
 4159TIP3   OH234035   5.026   4.218   0.692 -0.2910 -0.3984 -0.2567
 4159TIP3    H134036   4.971   4.243   0.766 -0.6392 -0.2462 -0.5670
 4159TIP3    H234037   4.976   4.150   0.646 -0.5939  0.3157 -1.0032
 4160TIP3   OH234038   4.963   1.431   0.582  0.5104 -0.1175  0.4846
 4160TIP3    H134039   4.965   1.512   0.531 -1.8947  0.1212  0.6456
 4160TIP3    H234040   4.870   1.406   0.583  0.6511 -0.9395  3.4127
 4161TIP3   OH234041   0.769   0.746   7.116 -0.7086 -0.1697  0.2488
 4161TIP3    H134042   0.733   0.795   7.190  0.1218  0.9705 -0.0737
 4161TIP3    H234043   0.814   0.812   7.063  0.0976 -1.2227 -0.4199
 4162TIP3   OH234044   6.744   0.890   0.073 -0.1225  0.9455  0.5638
 4162TIP3    H134045   6.742   0.948  -0.002 -0.7154  0.0592 -0.1250
 4162TIP3    H234046   6.703   0.809   0.042  1.6980 -0.2618  1.1340
 4163TIP3   OH234047   5.497   5.474   1.577 -0.6303  0.3999  0.6347
 4163TIP3    H134048   5.455   5.533   1.515  0.0913 -0.2187 -0.4635
 4163TIP3    H234049   5.496   5.388   1.534 -1.3161 -0.3380  2.0378
 4164TIP3   OH234050   1.783   0.158   1.056  0.2826 -0.3996  0.6252
 4164TIP3    H134051   1.832   0.108   0.991  0.4918 -0.3358  0.7291
 4164TIP3    H234052   1.768   0.096   1.127 -0.6024 -0.6815  0.2015
 4165TIP3   OH234053   6.099   6.129   2.991  0.0001 -0.1515 -0.1124
 4165TIP3    H134054   6.187   6.154   3.022 -0.3835  1.0650  0.0414
 4165TIP3    H234055   6.062   6.078   3.063  0.0448  0.5614  0.4199
 4166TIP3   OH234056   3.680   1.045   0.174 -0.1803  0.4421  0.8290
 4166TIP3    H134057   3.775   1.045   0.165 -0.0026 -0.7462  2.3211
 4166TIP3    H234058   3.649   0.994   0.100  0.2892  1.1579  0.1135
 4167TIP3   OH234059   2.880   2.703   2.958  0.1615  0.0788 -0.5746
 4167TIP3    H134060   2.950   2.753   2.999 -0.4411  2.8384 -2.6252
 4167TIP3    H234061   2.924   2.642   2.899  0.8829  1.2824 -1.3045
 4168TIP3   OH234062   3.573   1.945   2.095  0.6367  0.1830 -0.4863
 4168TIP3    H134063   3.493   1.899   2.121  1.2269 -0.2809  0.5738
 4168TIP3    H234064   3.554   1.980   2.008 -0.6266 -0.1336 -0.3489
 4169TIP3   OH234065   4.602   3.105   1.761  0.3844 -0.0554  0.2222
 4169TIP3    H134066   4.654   3.135   1.686  1.8335  0.1199  1.2510
 4169TIP3    H234067   4.651   3.030   1.795 -0.0557  0.0921  1.2148
 4170TIP3   OH234068   3.330   5.839   2.981 -0.3574  0.1309  0.1300
 4170TIP3    H134069   3.250   5.822   2.933 -1.2637 -1.6346  2.1277
 4170TIP3    H234070   3.302   5.885   3.060  0.6407 -0.1352  0.6646
 4171TIP3   OH234071   1.255   5.533   1.824 -0.3729  0.4988  0.5338
 4171TIP3    H134072   1.301   5.500   1.747 -3.1092 -0.9057 -0.6810
 4171TIP3    H234073   1.254   5.459   1.885  0.1802  0.9883  1.1479
 4172TIP3   OH234074   1.135   1.000   1.169  0.0346  0.3370  0.2465
 4172TIP3    H134075   1.174   1.032   1.250 -1.6517  0.1463  1.1844
 4172TIP3    H234076   1.208   0.960   1.121  0.8403 -0.7519  2.2666
 4173TIP3   OH234077   2.612   0.107   1.476 -0.0577 -0.3396  0.4602
 4173TIP3    H134078   2.609   0.163   1.553  1.4795 -1.0036  1.0302
 4173TIP3    H234079   2.560   0.030   1.500  0.5138 -0.5976  0.8986
 4174TIP3   OH234080   3.993   3.498   8.618 -0.1580  0.5175  0.0303
 4174TIP3    H134081   3.915   3.454   8.584  0.9380 -1.3028 -0.2688
 4174TIP3    H234082   3.984   3.588   8.589 -0.8579 -0.2350 -2.3486
 4175TIP3   OH234083   0.582   6.294   1.883  0.5490 -0.0849  0.6469
 4175TIP3    H134084   0.607   6.342   1.963  0.6469 -0.6924  0.9883
 4175TIP3    H234085   0.630   6.211   1.889 -0.4606 -0.6907  0.6193
 4176TIP3   OH234086   5.181   1.667   7.949  0.2005 -0.2422  0.4080
 4176TIP3    H134087   5.262   1.616   7.948  0.1635 -0.2920  0.0532
 4176TIP3    H234088   5.172   1.700   7.860  0.2436  0.4163  0.6386
 4177TIP3   OH234089   6.593   3.410   0.616 -0.4066  0.1702 -0.0091
 4177TIP3    H134090   6.537   3.456   0.553 -0.9487 -0.1961  0.1990
 4177TIP3    H234091   6.651   3.478   0.650  0.8310  0.1399 -1.8846
 4178TIP3   OH234092   4.747   1.541   2.222  0.2691 -0.1543 -0.1052
 4178TIP3    H134093   4.779   1.523   2.311  0.6874  1.1847  0.0394
 4178TIP3    H234094   4.652   1.528   2.228  0.4688 -1.8668  0.0486
 4179TIP3   OH234095   5.045   5.447   0.006 -0.8230  0.1866  0.9480
 4179TIP3    H134096   5.108   5.503   0.052 -0.4945  0.0487  0.6656
 4179TIP3    H234097   4.986   5.416   0.075 -1.2293  1.1580  1.0642
 4180TIP3   OH234098   3.658   1.066   8.408  0.5050  0.0272  0.3333
 4180TIP3    H134099   3.673   1.093   8.499  0.4322 -0.0033  0.3552
 4180TIP3    H234100   3.563   1.065   8.399  0.5097 -0.0809  0.2906
 4181TIP3   OH234101   1.450   2.744   8.195 -0.1196  0.0663  0.1054
 4181TIP3    H134102   1.426   2.700   8.277 -1.0414 -0.7768 -0.6003
 4181TIP3    H234103   1.383   2.811   8.184 -1.6302 -1.6179 -1.3428
 4182TIP3   OH234104   2.239   2.872   7.345  0.1151  0.0160 -0.1819
 4182TIP3    H134105   2.312   2.881   7.406  0.3118  0.1527 -0.4370
 4182TIP3    H234106   2.249   2.785   7.307 -0.9793 -0.7730  1.2319
 4183TIP3   OH234107   2.227   5.151   1.295 -0.1560  0.0806 -0.1917
 4183TIP3    H134108   2.220   5.246   1.303 -0.3883 -0.0767  4.1659
 4183TIP3    H234109   2.320   5.132   1.312 -0.2233 -0.4873 -0.4310
 4184TIP3   OH234110   6.064   0.887   0.094 -0.3461 -0.5946 -0.3734
 4184TIP3    H134111   6.025   0.808   0.130  0.6518 -1.4445 -1.0911
 4184TIP3    H234112   6.159   0.874   0.105 -0.1514  0.3310 -0.8368
 4185TIP3   OH234113   5.307   1.965   8.290  0.0158 -0.1932  0.1051
 4185TIP3    H134114   5.227   1.943   8.241  0.0430  0.0049 -0.0330
 4185TIP3    H234115   5.356   2.022   8.230 -0.3651  0.7964  0.7059
 4186TIP3   OH234116   0.915   0.333   0.998 -0.4502 -0.4072  0.2827
 4186TIP3    H134117   0.828   0.363   0.970 -0.7585 -1.1523  0.4274
 4186TIP3    H234118   0.925   0.368   1.087  0.0470  0.9740 -0.2862
 4187TIP3   OH234119   0.123   3.926   1.101  0.3039  0.3039 -0.2347
 4187TIP3    H134120   0.039   3.961   1.129  0.9972  0.8814  1.2091
 4187TIP3    H234121   0.101   3.866   1.030 -1.4249 -0.2266  0.6847
 4188TIP3   OH234122   0.638   1.145   1.368 -0.2628  0.4324 -0.0666
 4188TIP3    H134123   0.688   1.063   1.368 -2.0543 -0.7064  0.3772
 4188TIP3    H234124   0.666   1.189   1.288  1.3023 -0.2308  0.0628
 4189TIP3   OH234125   4.047   2.037   0.931  0.0299 -0.2093 -0.4428
 4189TIP3    H134126   4.006   1.978   0.995 -2.2769  0.1607 -1.4653
 4189TIP3    H234127   4.126   1.990   0.903  1.2596 -0.2950  2.7204
 4190TIP3   OH234128   0.715   3.618   7.523  0.1337 -0.1176  0.3712
 4190TIP3    H134129   0.675   3.669   7.593  1.9591  0.7705  0.8326
 4190TIP3    H234130   0.776   3.559   7.567  2.0431  1.1302 -0.4557
 4191TIP3   OH234131   0.984   3.655   8.057 -0.0088 -0.2832 -0.7031
 4191TIP3    H134132   0.988   3.751   8.057 -0.3463 -0.2598 -0.1644
 4191TIP3    H234133   0.898   3.635   8.019  0.0198 -0.3655 -0.7242
 4192TIP3   OH234134   6.696   0.723   1.057  0.1705 -0.6732  0.2525
 4192TIP3    H134135   6.725   0.776   1.131 -0.0296  0.7100 -0.6212
 4192TIP3    H234136   6.669   0.640   1.096  0.9243 -0.3091  1.6112
 4193TIP3   OH234137   3.301   3.637   7.983 -0.6892 -0.0755  0.2906
 4193TIP3    H134138   3.269   3.705   7.924  1.0725 -0.1825 -0.8905
 4193TIP3    H234139   3.394   3.629   7.961 -0.7386 -2.5803  0.6672
 4194TIP3   OH234140   5.229   1.530   3.184  0.1184 -0.4435  0.0898
 4194TIP3    H134141   5.278   1.581   3.120 -0.4404  0.3892  0.3122
 4194TIP3    H234142   5.156   1.586   3.210 -0.8910 -1.6103 -0.1303
 4195TIP3   OH234143   4.545   2.439   1.308 -0.1099 -0.2863 -0.7221
 4195TIP3    H134144   4.499   2.494   1.245  0.8241  1.5494  0.1358
 4195TIP3    H234145   4.638   2.457   1.293  0.1382  1.7753  2.3992
 4196TIP3   OH234146   6.018   1.370   0.147  0.4260 -0.0210  0.1939
 4196TIP3    H134147   5.963   1.441   0.115  0.9075  0.3089  0.0866
 4196TIP3    H234148   6.011   1.375   0.243 -0.6898 -0.7520  0.1712
 4197TIP3   OH234149   5.573   5.451   7.739  0.3906 -0.0275 -0.3780
 4197TIP3    H134150   5.583   5.423   7.830 -0.9839  1.4833  0.2809
 4197TIP3    H234151   5.662   5.471   7.710  0.6419  1.8209  1.4360
 4198TIP3   OH234152   6.487   3.470   2.467  0.3983  0.8317  0.1445
 4198TIP3    H134153   6.483   3.564   2.485  1.2777  0.9262 -0.1108
 4198TIP3    H234154   6.525   3.432   2.546 -0.2126  0.6586  0.3533
 4199TIP3   OH234155   4.273   6.273   2.939 -0.4685 -0.6132 -0.1293
 4199TIP3    H134156   4.287   6.355   2.986 -1.8030  0.1487 -0.9806
 4199TIP3    H234157   4.239   6.212   3.005 -0.1364 -0.2803  0.3543
 4200TIP3   OH234158   1.115   3.012   2.640  0.5066  0.0952  0.4829
 4200TIP3    H134159   1.079   3.086   2.592 -1.8842 -1.1291  0.2694
 4200TIP3    H234160   1.053   2.997   2.711  0.3387 -2.3660 -0.1170
 4201TIP3   OH234161   4.019   3.549   8.048  0.9210 -1.0268  0.0502
 4201TIP3    H134162   4.105   3.589   8.040  0.7179 -0.5351  0.2709
 4201TIP3    H234163   3.995   3.561   8.140  0.2902 -0.4708 -0.1732
 4202TIP3   OH234164   0.995   1.016   1.543 -0.0844 -0.1053  0.4371
 4202TIP3    H134165   1.050   0.990   1.617  1.6780  0.6241 -0.5555
 4202TIP3    H234166   1.054   1.062   1.484 -1.2139 -1.3723 -1.8361
 4203TIP3   OH234167   6.461   6.245   2.620 -0.2331 -0.4341 -0.5146
 4203TIP3    H134168   6.402   6.230   2.546  2.3499 -0.6751 -2.6889
 4203TIP3    H234169   6.526   6.308   2.586 -0.8717  2.2389  2.7314
 4204TIP3   OH234170   6.049   4.298   7.228  0.1356 -0.1078 -0.6450
 4204TIP3    H134171   5.965   4.316   7.270  0.0948  0.3476 -0.9112
 4204TIP3    H234172   6.073   4.381   7.186  0.3301 -0.4598 -1.2430
 4205TIP3   OH234173   5.075   5.698   1.092 -0.2753  0.8941  0.3322
 4205TIP3    H134174   5.004   5.649   1.050 -0.7178  1.5231  0.3293
 4205TIP3    H234175   5.102   5.762   1.026  1.8372 -0.7585 -0.5247
 4206TIP3   OH234176   4.009   0.848   8.763 -0.5097  0.2006  0.0351
 4206TIP3    H134177   3.994   0.839   8.669 -0.9316 -0.3942  0.1564
 4206TIP3    H234178   4.096   0.809   8.777 -0.0175  1.1613 -0.2447
 4207TIP3   OH234179   5.049   5.804   2.403 -0.8981  0.5911  0.3058
 4207TIP3    H134180   5.023   5.894   2.422  1.4972  0.9401  2.4792
 4207TIP3    H234181   5.017   5.753   2.477  1.3694  0.4639  1.2759
 4208TIP3   OH234182   2.156   6.018   0.711 -0.2596 -0.3851  0.2016
 4208TIP3    H134183   2.106   6.063   0.778 -2.3540 -0.9902 -0.8824
 4208TIP3    H234184   2.113   5.934   0.701  1.6157 -1.3539 -0.0902
 4209TIP3   OH234185   3.557   6.750   0.548 -0.2470  0.2208 -0.4808
 4209TIP3    H134186   3.471   6.709   0.554 -0.5437  0.7390 -1.1119
 4209TIP3    H234187   3.616   6.686   0.587 -0.9739  0.0545  0.3900
 4210TIP3   OH234188   5.476   1.011   2.196  0.1879  0.3952 -0.2395
 4210TIP3    H134189   5.391   0.977   2.226  0.0361  0.0323 -1.0632
 4210TIP3    H234190   5.525   0.934   2.170 -0.0078  0.7561 -1.7339
 4211TIP3   OH234191   4.050   6.696   1.665  0.1238 -0.4738 -0.0028
 4211TIP3    H134192   3.990   6.711   1.592  0.6934  0.9884 -0.2079
 4211TIP3    H234193   4.015   6.618   1.710 -0.6549 -0.9462 -1.3805
 4212TIP3   OH234194   3.238   0.081   2.683  0.0234  0.2380  0.2755
 4212TIP3    H134195   3.305   0.030   2.636  1.1459  0.2379  1.7853
 4212TIP3    H234196   3.233   0.163   2.634  2.0532  0.7286  0.7654
 4213TIP3   OH234197   3.820   6.578   0.180  0.0866  0.0581  0.6256
 4213TIP3    H134198   3.868   6.573   0.263  1.3279  1.3814  0.0347
 4213TIP3    H234199   3.802   6.672   0.170  0.6142  0.0127 -0.9498
 4214TIP3   OH234200   5.900   5.322   1.662 -0.1750 -0.1467  0.2238
 4214TIP3    H134201   5.863   5.310   1.750  1.3169 -1.5831  0.7220
 4214TIP3    H234202   5.991   5.294   1.671  0.2762  0.6248 -1.5772
 4215TIP3   OH234203   2.310   4.430   2.175  0.0237 -0.3072  0.2869
 4215TIP3    H134204   2.364   4.484   2.117 -1.8482 -0.2557 -1.5192
 4215TIP3    H234205   2.331   4.340   2.151  1.7761 -0.4427  2.0212
 4216TIP3   OH234206   5.846   6.289   8.418 -0.4968 -0.3835  0.2979
 4216TIP3    H134207   5.778   6.265   8.481 -1.6879  1.2221 -0.2897
 4216TIP3    H234208   5.820   6.245   8.337  0.1424 -1.1620  0.5096
 4217TIP3   OH234209   3.654   4.946   1.103 -0.2847 -0.0336 -0.0289
 4217TIP3    H134210   3.736   4.957   1.151 -0.8229 -0.5774  1.0518
 4217TIP3    H234211   3.652   5.019   1.042  1.0554 -0.0743 -0.1623
 4218TIP3   OH234212   0.186   0.635   7.924 -0.2664 -0.0578 -0.1754
 4218TIP3    H134213   0.259   0.594   7.879  1.0317  0.3521  1.4482
 4218TIP3    H234214   0.198   0.729   7.910  0.1331  0.0734  0.9342
 4219TIP3   OH234215   3.145   6.211   7.768 -0.1229  1.1833  0.4701
 4219TIP3    H134216   3.057   6.239   7.794 -1.0760 -2.3949  1.7272
 4219TIP3    H234217   3.138   6.115   7.761  3.4020  0.8759 -0.5860
 4220TIP3   OH234218   0.522   6.303   0.522 -0.2506  0.1119  0.0448
 4220TIP3    H134219   0.588   6.242   0.555 -0.7005 -1.0191 -1.0471
 4220TIP3    H234220   0.490   6.262   0.441 -0.9668  1.5406 -0.4355
 4221TIP3   OH234221   1.802   5.659   7.906  0.0654 -0.0693 -0.0999
 4221TIP3    H134222   1.839   5.617   7.829  1.9164 -0.5614  0.9946
 4221TIP3    H234223   1.853   5.740   7.916 -1.2389  0.8025 -0.2875
 4222TIP3   OH234224   2.068   0.659   7.389 -0.3555  0.0563  0.4678
 4222TIP3    H134225   2.117   0.731   7.349  1.9184 -1.4455  0.3778
 4222TIP3    H234226   2.016   0.622   7.318 -0.2451  0.5523  0.1239
 4223TIP3   OH234227   2.185   2.835   0.847 -0.0836 -0.1273 -0.3659
 4223TIP3    H134228   2.097   2.810   0.877  0.8057 -1.0898  1.6770
 4223TIP3    H234229   2.218   2.757   0.802 -0.6875  0.6541 -2.2400
 4224TIP3   OH234230   3.023   3.232   1.821 -0.0513  0.6585  0.3143
 4224TIP3    H134231   2.932   3.214   1.798 -0.2728  1.8136  0.2311
 4224TIP3    H234232   3.047   3.162   1.881 -0.8638  0.1194  0.0247
 4225TIP3   OH234233   6.064   0.724   8.052  0.1786  1.0541  0.3310
 4225TIP3    H134234   6.103   0.804   8.018  0.6866  0.4984 -0.4360
 4225TIP3    H234235   5.974   0.725   8.017  1.0087 -0.0484 -2.1000
 4226TIP3   OH234236   6.128   1.589   0.741  0.0244 -0.2786 -0.1207
 4226TIP3    H134237   6.130   1.517   0.678 -2.0007  0.4707 -1.1690
 4226TIP3    H234238   6.219   1.604   0.764  0.7047 -1.5871 -1.7434
 4227TIP3   OH234239   1.097   4.355   1.901  0.1015 -0.2180  0.4196
 4227TIP3    H134240   1.155   4.431   1.896 -0.4018  0.1464 -0.0171
 4227TIP3    H234241   1.120   4.313   1.984  1.9590 -0.8783 -0.3558
 4228TIP3   OH234242   3.969   4.851   8.126 -0.0411 -0.6089 -0.2044
 4228TIP3    H134243   3.996   4.904   8.201 -0.4150 -0.6783 -0.0163
 4228TIP3    H234244   3.876   4.872   8.114 -0.3904 -1.7981  0.3532
 4229TIP3   OH234245   2.882   4.742   2.091 -0.2554  0.1180 -0.6759
 4229TIP3    H134246   2.923   4.738   2.005 -0.2323  1.5565 -0.7501
 4229TIP3    H234247   2.790   4.759   2.073 -0.2295  0.5503 -0.4189
 4230TIP3   OH234248   5.335   5.893   0.446 -0.1319  0.0293  0.0650
 4230TIP3    H134249   5.241   5.880   0.452 -0.0290 -0.8867 -0.1287
 4230TIP3    H234250   5.364   5.899   0.537 -0.7863  3.8426  0.1644
 4231TIP3   OH234251   6.807   5.718   8.315 -0.3081 -0.1408  0.1559
 4231TIP3    H134252   6.782   5.804   8.281  0.6033  0.5434  1.1380
 4231TIP3    H234253   6.819   5.732   8.409  1.1896 -1.0263  0.1221
 4232TIP3   OH234254   2.124   0.752   1.441 -0.0950 -0.2099  0.3018
 4232TIP3    H134255   2.137   0.815   1.512  1.5718  0.9519 -0.9552
 4232TIP3    H234256   2.189   0.684   1.457  0.8684  0.4810 -0.5065
 4233TIP3   OH234257   3.529   1.503   7.820  0.3527 -0.1481  0.0586
 4233TIP3    H134258   3.622   1.482   7.835  0.3634  0.7486  1.4232
 4233TIP3    H234259   3.530   1.596   7.797 -0.2179 -0.1295  0.1131
 4234TIP3   OH234260   0.899   3.817   2.522 -0.7007  0.8948  0.0805
 4234TIP3    H134261   0.981   3.802   2.570 -0.0826  0.0721 -1.2082
 4234TIP3    H234262   0.839   3.852   2.589  0.3049  0.3266  1.3229
 4235TIP3   OH234263   5.649   6.310   2.557  0.2006  0.3817 -0.7582
 4235TIP3    H134264   5.648   6.223   2.597 -0.7579  0.1337 -1.2964
 4235TIP3    H234265   5.581   6.358   2.603  0.5894  0.7767 -0.6023
 4236TIP3   OH234266   0.770   1.476   1.669  0.2201 -0.1516 -0.1051
 4236TIP3    H134267   0.811   1.391   1.680  1.3712  0.2114 -1.4442
 4236TIP3    H234268   0.797   1.506   1.583 -2.2291  0.4737 -0.7521
 4237TIP3   OH234269   5.607   2.435   2.100 -0.1667 -0.4930 -0.1133
 4237TIP3    H134270   5.638   2.506   2.156 -0.2040 -1.1505  0.7623
 4237TIP3    H234271   5.639   2.356   2.143 -0.2406 -1.0101 -1.0049
 4238TIP3   OH234272   0.592   3.313   0.492 -0.1401  0.4088 -0.0581
 4238TIP3    H134273   0.540   3.244   0.451  0.7688 -1.0597  1.1370
 4238TIP3    H234274   0.528   3.378   0.521 -0.9614  0.4772 -1.8896
 4239TIP3   OH234275   1.474   1.437   8.615  0.1729 -0.4225 -0.5425
 4239TIP3    H134276   1.399   1.493   8.638  0.7018  0.7601 -1.5699
 4239TIP3    H234277   1.435   1.353   8.592 -0.5217 -1.1954  2.8738
 4240TIP3   OH234278   3.842   5.803   0.774  0.0906  0.1664 -0.3878
 4240TIP3    H134279   3.822   5.760   0.691  0.3633 -0.1056 -0.3115
 4240TIP3    H234280   3.776   5.873   0.781  0.2131  0.3413 -0.9430
 4241TIP3   OH234281   2.183   6.393   1.038  0.8976 -0.1429 -0.1106
 4241TIP3    H134282   2.192   6.450   0.962  0.3047 -2.0998 -1.7328
 4241TIP3    H234283   2.172   6.453   1.112  2.8099  1.8484 -1.3358
 4242TIP3   OH234284   3.493   2.085   0.376  0.2750  0.1567  0.1035
 4242TIP3    H134285   3.415   2.126   0.412  0.7826  0.5317  0.8008
 4242TIP3    H234286   3.565   2.123   0.426  0.9740  0.4115 -1.0501
 4243TIP3   OH234287   0.601   1.174   1.659 -0.7668  0.1562 -0.4387
 4243TIP3    H134288   0.692   1.182   1.689 -0.6485 -2.6676  0.2711
 4243TIP3    H234289   0.608   1.173   1.563 -0.1028  0.5420 -0.3988
 4244TIP3   OH234290   5.675   3.346   0.087 -0.0236 -0.8491 -0.0943
 4244TIP3    H134291   5.631   3.413   0.140 -0.3483 -0.4536 -0.8442
 4244TIP3    H234292   5.750   3.391   0.049 -1.0203 -0.4904 -1.7230
 4245TIP3   OH234293   0.671   0.918   7.339  0.6478 -0.2377 -0.3363
 4245TIP3    H134294   0.757   0.920   7.380  0.4818 -0.4972  0.0368
 4245TIP3    H234295   0.625   0.993   7.377  0.7163 -0.0863 -0.5517
 4246TIP3   OH234296   5.305   0.666   7.801 -0.0049 -0.8833  0.1437
 4246TIP3    H134297   5.243   0.605   7.762  0.3610 -0.4486 -1.1541
 4246TIP3    H234298   5.373   0.610   7.839 -0.6699 -1.3278  0.7030
 4247TIP3   OH234299   5.330   4.251   0.665  0.1757  0.2009 -0.1679
 4247TIP3    H134300   5.304   4.339   0.690  1.5949  0.5472  0.1950
 4247TIP3    H234301   5.253   4.197   0.682  0.2180  0.8603  2.5373
 4248TIP3   OH234302   2.284   1.005   0.915  0.2302  0.8923 -0.5475
 4248TIP3    H134303   2.318   0.915   0.917  0.4801  0.9895 -0.3445
 4248TIP3    H234304   2.200   1.000   0.960  1.1357  1.1284  1.2792
 4249TIP3   OH234305   1.959   4.623   0.320 -0.2040 -0.1892 -0.4153
 4249TIP3    H134306   1.959   4.550   0.258  0.4972 -1.2180  0.7461
 4249TIP3    H234307   1.868   4.627   0.351 -0.3092 -0.3790 -0.6911
 4250TIP3   OH234308   1.723   0.309   7.446  0.0778 -0.1032  0.7126
 4250TIP3    H134309   1.692   0.381   7.392  0.3392 -0.1095  0.5489
 4250TIP3    H234310   1.728   0.234   7.386  0.3687 -0.1102  0.7446
 4251TIP3   OH234311   3.324   5.548   0.907  0.2100  0.2238 -0.3082
 4251TIP3    H134312   3.289   5.618   0.852  1.7394  1.0836 -0.2616
 4251TIP3    H234313   3.400   5.515   0.858  0.1160 -0.7022  0.1471
 4252TIP3   OH234314   5.465   6.600   3.202  0.1608  0.7379  0.0713
 4252TIP3    H134315   5.470   6.506   3.218 -0.2724  0.6286 -0.4355
 4252TIP3    H234316   5.420   6.635   3.280 -1.6064  0.2482 -0.6852
 4253TIP3   OH234317   1.263   6.736   7.465 -0.2388  0.1890  0.1670
 4253TIP3    H134318   1.192   6.690   7.510 -0.0845 -0.0339  0.1831
 4253TIP3    H234319   1.233   6.827   7.461 -0.5342  0.0953  0.1599
 4254TIP3   OH234320   4.873   5.994   2.620 -0.7251  0.1539 -0.1800
 4254TIP3    H134321   4.850   5.923   2.560  1.5772 -0.1826 -0.7498
 4254TIP3    H234322   4.863   5.956   2.707  0.0590 -0.7359 -0.4678
 4255TIP3   OH234323   4.087   4.662   3.012  0.5286 -0.0642 -0.5998
 4255TIP3    H134324   4.020   4.664   3.080  1.3487 -0.0509  0.2272
 4255TIP3    H234325   4.082   4.748   2.970  1.2561  0.6486  0.6966
 4256TIP3   OH234326   2.915   5.356   2.174 -0.1809  0.0419  0.1349
 4256TIP3    H134327   2.841   5.410   2.147  0.5204  0.8759 -0.1694
 4256TIP3    H234328   2.880   5.267   2.179 -1.1788  0.4144 -0.0683
 4257TIP3   OH234329   3.403   0.495   0.993 -0.0936 -0.2145 -0.0472
 4257TIP3    H134330   3.437   0.414   1.032 -2.4187 -2.5235 -2.3906
 4257TIP3    H234331   3.478   0.532   0.946  1.0207 -0.9763  1.0551
 4258TIP3   OH234332   2.747   1.923   1.743 -0.4601  0.0045  0.6073
 4258TIP3    H134333   2.668   1.948   1.695  0.1286  1.4267  0.3368
 4258TIP3    H234334   2.754   1.985   1.815  1.6528  1.4833 -0.7452
 4259TIP3   OH234335   2.050   1.812   8.170  0.5934 -0.0737 -0.2396
 4259TIP3    H134336   2.035   1.799   8.077 -3.0386  0.9349  0.0840
 4259TIP3    H234337   2.108   1.888   8.174 -0.8409  1.1745 -1.7135
 4260TIP3   OH234338   4.936   3.421   8.361  0.1534 -0.2225 -0.3015
 4260TIP3    H134339   4.921   3.404   8.268 -1.0761 -0.3717 -0.0911
 4260TIP3    H234340   4.962   3.337   8.397  1.9883  0.1105 -0.7354
 4261TIP3   OH234341   6.063   3.028   0.639  0.4946 -0.3611 -0.1814
 4261TIP3    H134342   6.122   2.991   0.704  0.4248 -1.4637 -0.7132
 4261TIP3    H234343   6.115   3.030   0.558 -0.0684 -1.0367 -0.5770
 4262TIP3   OH234344   3.325   0.759   2.651 -0.5484 -0.1063 -0.0233
 4262TIP3    H134345   3.278   0.729   2.729 -1.9539  0.0424 -0.7806
 4262TIP3    H234346   3.307   0.853   2.647 -1.5765 -0.3197 -1.1935
 4263TIP3   OH234347   0.998   3.384   8.147 -0.1175 -0.6662  0.3957
 4263TIP3    H134348   1.092   3.373   8.134 -0.3844 -1.3157 -1.2275
 4263TIP3    H234349   0.986   3.479   8.154  0.6016 -0.5487  0.1051
 4264TIP3   OH234350   6.007   3.792   8.187 -0.5695  0.2003 -0.4123
 4264TIP3    H134351   6.039   3.702   8.191  0.6294  0.6440  1.8583
 4264TIP3    H234352   6.065   3.836   8.125  0.7272  0.0414  0.6455
 4265TIP3   OH234353   6.688   3.457   8.682  0.2491  0.1241 -0.5165
 4265TIP3    H134354   6.607   3.463   8.631  0.4729 -0.3830 -0.9438
 4265TIP3    H234355   6.659   3.448   8.772 -0.1699  0.0661 -0.6551
 4266TIP3   OH234356   2.233   2.688   1.533  0.1266 -0.1778 -0.3783
 4266TIP3    H134357   2.230   2.661   1.624  0.6174  1.1317  0.0511
 4266TIP3    H234358   2.141   2.704   1.509 -0.0867 -1.3772 -0.4021
 4267TIP3   OH234359   4.455   1.240   6.948  0.1259 -0.3510 -0.4577
 4267TIP3    H134360   4.472   1.316   7.004  0.2312 -1.8728  1.6656
 4267TIP3    H234361   4.360   1.241   6.935 -0.2081 -1.1272  1.5640
 4268TIP3   OH234362   2.603   1.675   8.325 -0.0773 -0.3618 -0.8092
 4268TIP3    H134363   2.635   1.620   8.253 -1.6768 -1.0828 -1.0048
 4268TIP3    H234364   2.543   1.618   8.373  0.5836  0.2738  0.8222
 4269TIP3   OH234365   0.248   6.514   7.180  0.1245  0.1218 -0.1854
 4269TIP3    H134366   0.339   6.531   7.154 -0.1531  1.2384 -0.4849
 4269TIP3    H234367   0.245   6.539   7.272  0.0416  0.4133 -0.2663
 4270TIP3   OH234368   3.832   1.789   1.146  0.2904 -0.1542 -0.0358
 4270TIP3    H134369   3.913   1.778   1.196 -0.7690  0.8713  2.0317
 4270TIP3    H234370   3.859   1.780   1.055  2.2656 -2.5685  0.6618
 4271TIP3   OH234371   0.245   2.152   1.161 -0.3738  0.1768  0.2486
 4271TIP3    H134372   0.283   2.191   1.082 -1.4336  0.9964  0.1294
 4271TIP3    H234373   0.292   2.194   1.233  1.1708 -1.1679  0.0743
 4272TIP3   OH234374   2.537   4.446   0.791 -0.6191 -0.0970  0.3238
 4272TIP3    H134375   2.625   4.443   0.754 -0.0227  1.6126  1.4921
 4272TIP3    H234376   2.496   4.523   0.751 -1.0496 -0.0138  0.9015
 4273TIP3   OH234377   2.828   1.097   7.642  0.3159  0.0187 -0.2204
 4273TIP3    H134378   2.829   1.181   7.595 -0.6642  0.3616  0.3383
 4273TIP3    H234379   2.885   1.040   7.591  0.5980  0.8830 -0.8907
 4274TIP3   OH234380   0.411   2.938   0.638 -0.3136 -0.0358 -0.3880
 4274TIP3    H134381   0.407   2.849   0.601 -1.4804 -1.7501  3.3563
 4274TIP3    H234382   0.478   2.932   0.706 -0.2878  2.0900 -0.1639
 4275TIP3   OH234383   1.806   2.609   3.033 -0.2206  0.3461  0.5301
 4275TIP3    H134384   1.877   2.584   3.093 -2.5190 -0.7348  3.0051
 4275TIP3    H234385   1.800   2.704   3.041 -0.1993  0.2593  1.7172
 4276TIP3   OH234386   3.678   2.286   8.667 -0.1344 -0.5221 -0.2168
 4276TIP3    H134387   3.675   2.270   8.762  2.1915  1.0982  0.2183
 4276TIP3    H234388   3.689   2.200   8.628 -0.5673 -1.1565  1.0040
 4277TIP3   OH234389   5.400   4.418   7.952 -0.1013 -0.6733  0.0725
 4277TIP3    H134390   5.456   4.343   7.973 -1.9725 -2.1996 -0.1149
 4277TIP3    H234391   5.312   4.381   7.946 -0.9302  1.3634 -1.1879
 4278TIP3   OH234392   6.315   5.402   2.266 -0.3160 -0.0872 -0.1670
 4278TIP3    H134393   6.311   5.307   2.281  2.0683 -0.4523 -1.2602
 4278TIP3    H234394   6.409   5.420   2.259 -0.6804  1.4857 -4.8088
 4279TIP3   OH234395   6.056   2.262   1.767  0.5535 -0.6751  0.3547
 4279TIP3    H134396   6.096   2.218   1.692  0.7826  1.0168 -0.5624
 4279TIP3    H234397   6.128   2.273   1.829  1.0986  0.6542 -0.4870
 4280TIP3   OH234398   4.075   4.580   1.464 -0.8046  0.4971 -0.2166
 4280TIP3    H134399   4.165   4.581   1.498 -1.4270 -2.8721  2.1054
 4280TIP3    H234400   4.083   4.542   1.376  0.0453 -0.1107  0.1110
 4281TIP3   OH234401   0.661   5.623   8.356 -0.2686  0.0860  0.1305
 4281TIP3    H134402   0.707   5.655   8.434 -0.6026  1.0016 -0.0350
 4281TIP3    H234403   0.722   5.641   8.284 -0.2376 -0.1537  0.0954
 4282TIP3   OH234404   1.269   0.565   8.660  0.3182  0.4757  0.0784
 4282TIP3    H134405   1.268   0.472   8.636 -1.0456  0.2670  0.8412
 4282TIP3    H234406   1.331   0.570   8.732  0.5072  0.1830 -0.0602
 4283TIP3   OH234407   0.266   2.123   7.251  0.3370 -0.9115 -0.7325
 4283TIP3    H134408   0.281   2.208   7.211  1.9797 -0.0085  1.6067
 4283TIP3    H234409   0.313   2.061   7.196 -0.2263 -0.2366 -2.0121
 4284TIP3   OH234410   1.576   4.874   8.668 -0.0476  0.5780 -0.0010
 4284TIP3    H134411   1.483   4.880   8.647 -0.0671  1.0031  0.2108
 4284TIP3    H234412   1.583   4.909   8.756  0.1489 -0.4865  0.4290
 4285TIP3   OH234413   6.538   3.416   0.138  0.0701  0.6957  0.4480
 4285TIP3    H134414   6.549   3.479   0.209 -0.3803  0.2837  0.8889
 4285TIP3    H234415   6.560   3.332   0.177  0.4933  0.5483 -0.0906
 4286TIP3   OH234416   1.808   2.955   8.048 -0.5344  0.2379 -0.2724
 4286TIP3    H134417   1.718   2.962   8.016 -0.2040  1.2259 -1.0393
 4286TIP3    H234418   1.810   3.013   8.125 -0.6763 -0.1742  0.0447
 4287TIP3   OH234419   3.660   2.019   8.598  0.7301 -0.3565  0.1126
 4287TIP3    H134420   3.660   1.930   8.563  0.3255 -0.5923  0.6954
 4287TIP3    H234421   3.587   2.020   8.661 -0.7957  1.0449 -1.5754
 4288TIP3   OH234422   3.357   3.681   1.144  0.5391  0.4112 -0.5850
 4288TIP3    H134423   3.280   3.624   1.140  0.6360  0.3199 -1.3986
 4288TIP3    H234424   3.331   3.761   1.098  0.3535  1.1070  0.6900
 4289TIP3   OH234425   4.819   0.784   0.292 -0.4711  0.0151 -0.0896
 4289TIP3    H134426   4.805   0.735   0.211 -0.8786 -2.2500  1.2491
 4289TIP3    H234427   4.909   0.817   0.285 -0.6577  0.2820 -1.6328
 4290TIP3   OH234428   1.615   2.292   7.683 -0.0545  0.3712  0.2695
 4290TIP3    H134429   1.683   2.357   7.702 -1.2212  1.5844  0.4994
 4290TIP3    H234430   1.541   2.344   7.652 -0.1509 -1.0817 -2.2310
 4291TIP3   OH234431   2.824   5.162   1.654 -0.5500  0.0771 -0.3131
 4291TIP3    H134432   2.880   5.195   1.584 -0.1362  1.0848  0.4695
 4291TIP3    H234433   2.799   5.074   1.625  0.4703  0.0649 -1.2248
 4292TIP3   OH234434   1.486   4.870   7.661  0.3155  0.4863 -0.0540
 4292TIP3    H134435   1.452   4.821   7.736  0.4005 -0.5096 -0.6607
 4292TIP3    H234436   1.421   4.857   7.592  1.4957 -0.7641 -0.9756
 4293TIP3   OH234437   4.426   2.960   0.768 -0.7402  0.5608 -0.6952
 4293TIP3    H134438   4.386   3.019   0.832 -0.8244  1.8023 -1.8371
 4293TIP3    H234439   4.376   2.879   0.775 -0.2986  0.4205  1.2641
 4294TIP3   OH234440   2.338   1.084   0.628 -0.5567  0.2382  0.4366
 4294TIP3    H134441   2.384   1.025   0.568  1.9753  1.4825  1.0247
 4294TIP3    H234442   2.334   1.035   0.711  1.9729  0.9189  1.0646
 4295TIP3   OH234443   3.748   6.321   1.396  0.0283 -0.2339 -0.3187
 4295TIP3    H134444   3.783   6.233   1.385 -0.0472 -0.1880 -0.9696
 4295TIP3    H234445   3.775   6.347   1.484  1.2763 -0.3625 -0.6490
 4296TIP3   OH234446   2.756   4.079   2.232  0.6349  0.5467  0.6098
 4296TIP3    H134447   2.804   4.084   2.149  2.2911  0.2171  1.4845
 4296TIP3    H234448   2.825   4.066   2.298 -0.7087 -0.2798  1.9218
 4297TIP3   OH234449   6.057   6.164   8.763  0.1381  0.9072  0.0336
 4297TIP3    H134450   5.962   6.153   8.753  0.1255  2.2757 -1.7250
 4297TIP3    H234451   6.068   6.186   8.856 -1.4419  2.0941 -0.0132
 4298TIP3   OH234452   3.859   2.428   2.382  0.3322  0.0519 -0.1627
 4298TIP3    H134453   3.912   2.355   2.351  0.5002  0.5264 -1.0003
 4298TIP3    H234454   3.778   2.386   2.413  0.7965 -0.5748  0.2284
 4299TIP3   OH234455   0.109   0.244   0.035  0.0605  0.1649 -0.2960
 4299TIP3    H134456   0.183   0.193   0.069 -0.5647 -1.2733 -0.9895
 4299TIP3    H234457   0.146   0.295  -0.036  0.7240  0.7774  0.4686
 4300TIP3   OH234458   0.585   1.447   7.754 -0.1118  0.3523  0.4168
 4300TIP3    H134459   0.630   1.472   7.673 -0.8253  2.7179  0.6652
 4300TIP3    H234460   0.538   1.367   7.732  2.6085 -1.1129 -0.3918
 4301TIP3   OH234461   3.621   0.660   7.402 -0.3182  0.0304 -0.2568
 4301TIP3    H134462   3.615   0.732   7.340 -1.8499  0.2683  0.1320
 4301TIP3    H234463   3.531   0.640   7.425  0.1307 -1.2797  0.4981
 4302TIP3   OH234464   1.133   2.263   0.788 -0.0398  0.2328  0.3218
 4302TIP3    H134465   1.169   2.261   0.699 -0.5086  1.6119  0.0745
 4302TIP3    H234466   1.039   2.247   0.775 -0.1572  0.7425  0.5267
 4303TIP3   OH234467   2.566   0.588   0.707 -0.9420  0.5425  0.2152
 4303TIP3    H134468   2.628   0.563   0.775  0.1496 -1.5313 -1.4001
 4303TIP3    H234469   2.559   0.683   0.714 -0.2270  0.4934  2.6121
 4304TIP3   OH234470   5.965   5.676   2.399  0.1433 -0.1286 -0.3314
 4304TIP3    H134471   5.930   5.588   2.413 -1.6080  0.6284  0.2721
 4304TIP3    H234472   5.970   5.685   2.304  0.5101 -0.9305 -0.3986
 4305TIP3   OH234473   0.915   3.531   8.442 -0.1496  0.0549  0.0932
 4305TIP3    H134474   0.936   3.568   8.356  0.3409  0.8869  0.5592
 4305TIP3    H234475   0.836   3.578   8.469  0.2871  0.5313  0.5453
 4306TIP3   OH234476   5.298   3.476   1.231 -0.9410 -0.0406 -0.0532
 4306TIP3    H134477   5.323   3.564   1.259 -2.7382  1.1132 -1.8531
 4306TIP3    H234478   5.251   3.440   1.306  0.0780  0.3778  0.8165
 4307TIP3   OH234479   6.014   3.705   0.638 -0.1147 -0.2224  0.1816
 4307TIP3    H134480   6.090   3.648   0.628 -0.3309 -0.5384  0.3136
 4307TIP3    H234481   6.050   3.791   0.658  0.2156 -0.3080 -0.0428
 4308TIP3   OH234482   2.187   2.363   1.274  0.0276 -0.3623 -0.8339
 4308TIP3    H134483   2.120   2.301   1.303  0.8676 -1.4048 -1.0456
 4308TIP3    H234484   2.227   2.322   1.197  1.8446 -0.4488  0.0930
 4309TIP3   OH234485   4.343   1.041   1.939  0.0232 -0.3194 -0.1247
 4309TIP3    H134486   4.374   1.105   1.874  1.5414 -1.5419 -0.6701
 4309TIP3    H234487   4.283   1.090   1.994 -0.0419  1.1809 -1.4661
 4310TIP3   OH234488   3.293   2.856   1.095 -0.1832  0.0123 -0.0013
 4310TIP3    H134489   3.207   2.818   1.109  0.4353 -2.3073 -1.7077
 4310TIP3    H234490   3.347   2.821   1.166 -0.1507 -0.4018 -0.2272
 4311TIP3   OH234491   2.557   0.311   1.275  0.3054 -0.5010 -0.2037
 4311TIP3    H134492   2.630   0.291   1.215  1.2170  1.2412  0.2365
 4311TIP3    H234493   2.568   0.250   1.348  1.7339  0.1124  0.1412
 4312TIP3   OH234494   2.649   6.193   0.205 -0.0466  0.1726  0.5629
 4312TIP3    H134495   2.571   6.194   0.149 -0.1052 -0.7054  0.6176
 4312TIP3    H234496   2.624   6.140   0.280  0.7672 -0.5494  0.3314
 4313TIP3   OH234497   5.625   6.554   2.727 -0.3031  0.0209  0.2453
 4313TIP3    H134498   5.539   6.515   2.747 -0.4029 -0.5644 -1.1883
 4313TIP3    H234499   5.663   6.573   2.812 -1.4730 -0.5830  0.9284
 4314TIP3   OH234500   6.023   5.648   0.059 -0.2140 -0.1524  0.1841
 4314TIP3    H134501   5.989   5.590   0.127  1.4966 -1.5443 -0.1024
 4314TIP3    H234502   5.977   5.731   0.074 -0.7467 -0.7727  2.2730
 4315TIP3   OH234503   1.183   6.400   2.533 -0.3213  0.3471  0.0962
 4315TIP3    H134504   1.150   6.313   2.512  0.4144  0.0255  0.2611
 4315TIP3    H234505   1.142   6.421   2.617 -1.3483  0.6228 -0.4532
 4316TIP3   OH234506   1.211   5.751   0.344  0.4910 -0.0309 -0.5450
 4316TIP3    H134507   1.151   5.772   0.272  0.3357  0.2519 -0.3335
 4316TIP3    H234508   1.233   5.659   0.330  0.0636 -0.1184 -0.6676
 4317TIP3   OH234509   5.427   6.108   2.315 -0.6831  0.0262  0.4492
 4317TIP3    H134510   5.352   6.090   2.259 -1.6189 -0.7049  1.8520
 4317TIP3    H234511   5.498   6.057   2.277 -1.3532 -0.6435  0.0590
 4318TIP3   OH234512   3.109   6.801   2.945 -0.2731 -0.1319  0.7233
 4318TIP3    H134513   3.158   6.850   2.880 -0.3709  0.0966  0.8211
 4318TIP3    H234514   3.036   6.762   2.897  0.0809 -0.5844  0.5508
 4319TIP3   OH234515   3.978   0.895   2.854 -0.7637  0.1491  0.0564
 4319TIP3    H134516   4.065   0.930   2.869 -0.3546 -1.4277  1.9158
 4319TIP3    H234517   3.919   0.956   2.900 -0.3166 -0.2442  1.1964
 4320TIP3   OH234518   1.609   1.369   1.783 -0.1271 -0.1954  0.7876
 4320TIP3    H134519   1.677   1.319   1.739  1.7015  0.4357  2.7429
 4320TIP3    H234520   1.544   1.304   1.810 -1.1158 -0.6426 -2.3144
 4321TIP3   OH234521   2.712   1.084   1.204  0.3544  0.1574 -0.0830
 4321TIP3    H134522   2.629   1.045   1.175  0.4226 -0.9140  1.0320
 4321TIP3    H234523   2.748   1.019   1.264  1.5612  1.0256  0.1599
 4322TIP3   OH234524   5.326   3.113   8.663  0.3572  0.2358  0.1003
 4322TIP3    H134525   5.252   3.152   8.710  0.4666  0.0834  0.4014
 4322TIP3    H234526   5.361   3.184   8.610 -0.4159  0.1385 -0.5512
 4323TIP3   OH234527   1.588   5.567   1.533 -0.0389 -0.1790  0.3790
 4323TIP3    H134528   1.620   5.512   1.462 -1.8918  0.1254 -0.7578
 4323TIP3    H234529   1.536   5.635   1.489 -1.8057 -0.3733  2.0464
 4324TIP3   OH234530   2.033   3.664   2.731  0.1898 -0.7733  0.5283
 4324TIP3    H134531   1.958   3.624   2.776  0.3558 -1.9747 -0.2080
 4324TIP3    H234532   2.017   3.646   2.639  0.3341  0.8250  0.1667
 4325TIP3   OH234533   6.074   5.348   0.449 -0.2285 -0.4138 -0.5679
 4325TIP3    H134534   6.060   5.320   0.358  1.6506 -0.0192 -1.0204
 4325TIP3    H234535   6.132   5.281   0.486  2.5908  1.5948 -1.0319
 4326TIP3   OH234536   1.590   4.561   8.030  0.0123 -0.6667 -0.6504
 4326TIP3    H134537   1.676   4.533   8.061  0.1941  0.0307 -0.5089
 4326TIP3    H234538   1.543   4.588   8.109 -0.7106 -1.9898 -0.6024
 4327TIP3   OH234539   1.248   4.433   3.151 -0.8039 -0.2517  0.2564
 4327TIP3    H134540   1.306   4.380   3.205 -0.7515  0.1384  0.5919
 4327TIP3    H234541   1.302   4.462   3.078 -0.2204  1.0861  1.1770
 4328TIP3   OH234542   4.505   1.351   0.178 -0.0334 -0.1359 -0.4435
 4328TIP3    H134543   4.464   1.277   0.223  0.5364  0.4440  1.0787
 4328TIP3    H234544   4.598   1.332   0.179  0.2210  0.9655  0.7565
 4329TIP3   OH234545   6.550   5.161   8.515 -0.6620  0.3544 -0.1957
 4329TIP3    H134546   6.514   5.233   8.463  0.3274  0.6508 -0.4788
 4329TIP3    H234547   6.613   5.119   8.457 -0.7669 -0.3421  0.1956
 4330TIP3   OH234548   3.390   5.239   1.014 -0.5798  0.2158  0.1216
 4330TIP3    H134549   3.419   5.304   1.079  0.0616 -1.4126  1.5588
 4330TIP3    H234550   3.464   5.230   0.955 -1.7181  2.8371 -1.8996
 4331TIP3   OH234551   0.920   5.424   1.944  0.1875 -0.7747  0.0807
 4331TIP3    H134552   0.941   5.419   2.038 -0.0582 -0.5524  0.1472
 4331TIP3    H234553   1.002   5.453   1.904  0.0267  0.0757  0.3423
 4332TIP3   OH234554   1.727   5.008   0.359 -0.1713 -0.3700  0.4141
 4332TIP3    H134555   1.647   5.057   0.381  0.1185  2.0074 -2.9774
 4332TIP3    H234556   1.699   4.949   0.289  0.7939 -0.4722  0.1102
 4333TIP3   OH234557   1.879   4.662   1.878 -0.4339 -0.2226 -0.5508
 4333TIP3    H134558   1.943   4.621   1.935 -0.5896  0.3335  0.0396
 4333TIP3    H234559   1.929   4.730   1.831  0.0827 -1.7780 -2.3651
 4334TIP3   OH234560   4.785   1.305   0.090 -0.2563  0.0545 -0.5651
 4334TIP3    H134561   4.839   1.235   0.126 -0.0362  0.0331 -0.9381
 4334TIP3    H234562   4.828   1.329   0.008  0.7475  1.9003  0.4373
 4335TIP3   OH234563   0.990   4.493   7.901 -0.4521 -0.1365 -0.2269
 4335TIP3    H134564   0.969   4.451   7.818 -0.0810  0.6783 -0.7527
 4335TIP3    H234565   0.926   4.458   7.963  0.5708 -2.3467 -0.3396
 4336TIP3   OH234566   5.390   1.111   8.014 -0.1106 -0.5965  0.3819
 4336TIP3    H134567   5.474   1.126   8.055  0.1802  0.6997 -0.6232
 4336TIP3    H234568   5.400   1.145   7.925 -1.5979 -0.6747  0.1524
 4337TIP3   OH234569   3.497   0.122   8.076 -0.2653  0.3088 -0.0058
 4337TIP3    H134570   3.578   0.090   8.115  1.4960 -0.0593 -3.5847
 4337TIP3    H234571   3.520   0.207   8.038 -2.4113  1.5933  1.3430
 4338TIP3   OH234572   0.290   3.853   8.699  0.3406  0.3640 -0.2260
 4338TIP3    H134573   0.211   3.896   8.665  0.6830  0.9750 -0.2618
 4338TIP3    H234574   0.354   3.924   8.706  0.5595  0.0797  0.8101
 4339TIP3   OH234575   0.398   3.054   1.557 -0.0455  0.6218  0.1357
 4339TIP3    H134576   0.375   3.071   1.648 -1.9912 -0.2324 -0.1572
 4339TIP3    H234577   0.474   2.996   1.561 -1.0190 -0.6275  1.2613
 4340TIP3   OH234578   0.974   4.958   8.612  0.3836  0.4474 -0.0642
 4340TIP3    H134579   0.962   4.915   8.696  0.3307  2.7084  1.1480
 4340TIP3    H234580   0.891   5.001   8.594 -0.0886 -1.1281 -2.0112
 4341TIP3   OH234581   1.994   6.807   1.560  0.3766 -0.3763  1.0412
 4341TIP3    H134582   2.024   6.730   1.512  1.2960  0.8860 -0.5370
 4341TIP3    H234583   2.051   6.811   1.637  3.8762  1.3421 -1.3306
 4342TIP3   OH234584   0.052   1.469   0.947 -0.3288 -0.5056 -0.2180
 4342TIP3    H134585   0.113   1.431   1.009  2.8980  0.4588 -2.5509
 4342TIP3    H234586   0.057   1.413   0.870 -0.1660  1.1659 -1.4871
 4343TIP3   OH234587   0.905   3.838   0.255  0.5117  0.3155  0.0433
 4343TIP3    H134588   0.842   3.815   0.186  0.7337 -1.6739  0.4374
 4343TIP3    H234589   0.868   3.799   0.334  0.4985  2.1656  0.9923
 4344TIP3   OH234590   6.503   0.274   7.946 -0.0520 -0.6578  0.1126
 4344TIP3    H134591   6.497   0.354   7.998  1.7701 -0.9809  0.9058
 4344TIP3    H234592   6.526   0.304   7.858  2.3356 -0.3197  0.7816
 4345TIP3   OH234593   4.392   0.735   2.343 -0.1724 -0.3528 -0.0875
 4345TIP3    H134594   4.388   0.783   2.426 -0.8116  0.2697 -0.4590
 4345TIP3    H234595   4.415   0.802   2.279 -2.3097 -0.2405 -0.8190
 4346TIP3   OH234596   2.199   5.734   8.412 -0.7208  0.6243  0.4621
 4346TIP3    H134597   2.222   5.799   8.479  0.1374 -0.2762  1.0932
 4346TIP3    H234598   2.284   5.709   8.374 -1.1766  0.8982 -0.7510
 4347TIP3   OH234599   3.034   6.298   1.284 -0.1231 -0.0168 -0.4518
 4347TIP3    H134600   3.043   6.214   1.239 -1.8242 -0.4909  0.0182
 4347TIP3    H234601   3.111   6.348   1.257  1.0379 -1.7828 -0.6054
 4348TIP3   OH234602   6.600   0.325   1.913 -0.3476  0.3739  0.1305
 4348TIP3    H134603   6.581   0.419   1.915 -0.8867  0.3258 -1.6130
 4348TIP3    H234604   6.519   0.284   1.943 -0.1275  0.4552  0.8490
 4349TIP3   OH234605   2.061   2.758   7.826  0.9392 -0.2981  0.0702
 4349TIP3    H134606   2.148   2.798   7.818  1.1183 -0.1663  2.1497
 4349TIP3    H234607   2.052   2.738   7.919 -1.5417  0.3100  0.0334
 4350TIP3   OH234608   6.259   2.735   0.597  0.7043 -0.5542 -0.0034
 4350TIP3    H134609   6.223   2.755   0.511 -0.2553  0.0383  0.5166
 4350TIP3    H234610   6.210   2.658   0.627  1.0230 -0.7501  0.0207
 4351TIP3   OH234611   6.008   3.118   2.088 -0.4028 -0.1114  0.1261
 4351TIP3    H134612   6.087   3.104   2.035  0.9291 -2.3995  2.4868
 4351TIP3    H234613   6.035   3.181   2.155 -0.7367 -0.5383  0.6638
 4352TIP3   OH234614   2.992   6.665   0.974 -0.0119 -0.0114 -0.2334
 4352TIP3    H134615   2.970   6.596   0.911  3.2429 -1.1569 -0.2685
 4352TIP3    H234616   2.960   6.631   1.058 -0.8067 -0.3062 -0.6457
 4353TIP3   OH234617   5.756   1.834   1.635 -0.6611 -0.2560  0.6623
 4353TIP3    H134618   5.800   1.751   1.655 -0.4547 -0.3473 -0.1206
 4353TIP3    H234619   5.697   1.812   1.563  0.8072  0.6652 -0.9029
 4354TIP3   OH234620   3.945   5.119   7.207  0.0420  0.2207 -0.4440
 4354TIP3    H134621   4.034   5.138   7.237  0.0425 -0.2391 -0.1460
 4354TIP3    H234622   3.920   5.196   7.155 -0.4058  1.5955  1.6887
 4355TIP3   OH234623   0.543   6.225   8.517  0.0999  0.4184  0.1250
 4355TIP3    H134624   0.568   6.291   8.452  1.5706  0.3755  0.6125
 4355TIP3    H234625   0.508   6.276   8.590  1.6488  0.7215  0.6833
 4356TIP3   OH234626   4.508   6.521   2.931 -0.3613  0.3869  0.0910
 4356TIP3    H134627   4.536   6.612   2.920 -0.6354  0.5348  0.6160
 4356TIP3    H234628   4.425   6.527   2.979  1.8673 -0.3284  4.4423
 4357TIP3   OH234629   0.148   6.386   1.317  0.0867 -0.4646 -0.9252
 4357TIP3    H134630   0.151   6.478   1.342 -1.5081 -0.5518 -0.3056
 4357TIP3    H234631   0.060   6.357   1.341  0.4909 -2.1068 -1.2794
 4358TIP3   OH234632   0.161   4.974   0.109  0.1429 -0.1186  0.0031
 4358TIP3    H134633   0.089   4.949   0.166 -0.3618 -0.2903 -0.6984
 4358TIP3    H234634   0.119   5.006   0.029  0.8065  1.1535  0.1232
 4359TIP3   OH234635   1.142   4.153   1.510  0.3134  0.3563 -0.4560
 4359TIP3    H134636   1.145   4.248   1.520  0.6733  0.2510  0.6072
 4359TIP3    H234637   1.197   4.120   1.581  1.7127 -0.5974 -1.9198
 4360TIP3   OH234638   4.121   3.227   2.155  0.2153  0.3221 -0.3141
 4360TIP3    H134639   4.157   3.145   2.189 -0.5495  0.0647 -0.1280
 4360TIP3    H234640   4.180   3.251   2.083  0.4458 -0.3830 -0.3634
 4361TIP3   OH234641   5.615   0.489   1.121 -0.1947 -0.2136  0.6247
 4361TIP3    H134642   5.649   0.412   1.165  0.0999 -0.4726 -0.0390
 4361TIP3    H234643   5.533   0.509   1.167 -0.4040 -1.0707  0.6475
 4362TIP3   OH234644   2.144   5.989   3.011  0.5069  1.0112  0.6824
 4362TIP3    H134645   2.226   6.033   2.987  0.4711  1.6976  1.7335
 4362TIP3    H234646   2.145   5.988   3.107 -0.8644  1.2994  0.7201
 4363TIP3   OH234647   5.070   4.683   1.461 -0.4990  0.2407  0.2724
 4363TIP3    H134648   5.154   4.648   1.429 -0.3247  1.3369 -0.5118
 4363TIP3    H234649   5.087   4.708   1.551 -0.9002 -2.5810  1.2560
 4364TIP3   OH234650   2.841   0.496   1.176 -0.1538  0.0173  0.0684
 4364TIP3    H134651   2.886   0.579   1.191  1.3012 -0.7402  0.1486
 4364TIP3    H234652   2.908   0.430   1.194 -2.0395 -1.2989  2.8990
 4365TIP3   OH234653   2.146   4.457   1.327 -0.0008  0.2953  0.1192
 4365TIP3    H134654   2.124   4.474   1.235 -2.5952  1.0616  0.7926
 4365TIP3    H234655   2.175   4.365   1.328  0.1844  0.3080 -1.4685
 4366TIP3   OH234656   4.502   1.078   8.557 -0.0833 -0.2919  0.4417
 4366TIP3    H134657   4.499   0.994   8.510  1.0825 -0.0483 -0.1132
 4366TIP3    H234658   4.584   1.118   8.529 -0.4456  0.8809  0.9881
 4367TIP3   OH234659   1.124   3.150   2.118 -0.3529 -0.0632 -0.3342
 4367TIP3    H134660   1.070   3.138   2.040  0.1615 -0.2918 -0.6579
 4367TIP3    H234661   1.197   3.090   2.107 -0.3727 -0.2413  0.4206
 4368TIP3   OH234662   5.755   6.568   8.626  0.2208 -0.2822  0.7536
 4368TIP3    H134663   5.680   6.627   8.633  0.4292  0.1068 -0.1045
 4368TIP3    H234664   5.778   6.571   8.533 -0.5179 -2.6555  0.4239
 4369TIP3   OH234665   0.475   0.650   2.678 -0.4518 -0.1199  0.0599
 4369TIP3    H134666   0.478   0.591   2.753 -2.1716 -2.4415 -1.5645
 4369TIP3    H234667   0.437   0.731   2.712 -0.3945 -0.8206  1.8557
 4370TIP3   OH234668   2.383   1.691   8.100 -0.4292  0.1216 -0.4491
 4370TIP3    H134669   2.355   1.636   8.173  1.0398  0.3911  0.3512
 4370TIP3    H234670   2.351   1.779   8.122 -0.6626  0.0536 -0.5177
 4371TIP3   OH234671   4.350   0.567   3.032  0.3711  0.4100  0.0391
 4371TIP3    H134672   4.304   0.632   2.979  0.5299  1.1993  0.8376
 4371TIP3    H234673   4.290   0.548   3.104  1.4588  1.8709  1.4040
 4372TIP3   OH234674   3.595   1.891   1.582  0.1825  0.7468  0.1374
 4372TIP3    H134675   3.624   1.915   1.494  0.8817  0.8593  0.3972
 4372TIP3    H234676   3.503   1.866   1.570  0.8708 -1.5288 -1.0408
 4373TIP3   OH234677   0.288   0.458   0.400  0.0341 -0.4630  0.3208
 4373TIP3    H134678   0.220   0.392   0.414 -0.9554  0.2055 -1.0712
 4373TIP3    H234679   0.357   0.412   0.352 -1.1425 -0.2727 -1.6484
 4374TIP3   OH234680   3.702   2.556   7.468  0.4569  0.1566 -0.0045
 4374TIP3    H134681   3.636   2.564   7.399 -0.1049  1.4213  0.6543
 4374TIP3    H234682   3.752   2.638   7.464  1.5210 -0.4681  0.0023
 4375TIP3   OH234683   4.514   6.024   0.946  0.3365  0.4340  0.8753
 4375TIP3    H134684   4.543   5.976   0.868 -1.2013  1.0649 -0.1489
 4375TIP3    H234685   4.457   5.962   0.992 -1.2128  0.9956 -0.1647
 4376TIP3   OH234686   2.107   4.738   8.033  0.1698 -0.0712  0.1177
 4376TIP3    H134687   2.192   4.731   7.990  0.3272  0.0231  0.4078
 4376TIP3    H234688   2.048   4.773   7.966  0.3336 -0.2450 -0.1162
 4377TIP3   OH234689   0.094   2.376   7.848 -0.2319 -0.2469 -0.3984
 4377TIP3    H134690   0.182   2.340   7.838 -0.0194  0.2212 -0.2498
 4377TIP3    H234691   0.036   2.300   7.842  0.2269 -0.6616  0.2999
 4378TIP3   OH234692   1.436   4.858   2.060  0.5086  0.3108  0.2303
 4378TIP3    H134693   1.352   4.835   2.022  1.2292 -0.4285 -0.9893
 4378TIP3    H234694   1.459   4.784   2.116  1.0397 -0.1966 -0.6426
 4379TIP3   OH234695   5.408   6.129   6.845  0.4676  0.5532  0.8405
 4379TIP3    H134696   5.411   6.041   6.809 -1.2376  0.1685  1.5243
 4379TIP3    H234697   5.415   6.187   6.769  1.5497 -0.1560  0.3830
 4380TIP3   OH234698   0.752   2.047   0.108 -0.0717 -0.0604  0.3663
 4380TIP3    H134699   0.826   2.091   0.149  0.1429  1.5664 -1.6050
 4380TIP3    H234700   0.679   2.059   0.169  0.2660  2.1050  0.4186
 4381TIP3   OH234701   3.178   2.141   1.703 -0.2397 -0.3351  0.3117
 4381TIP3    H134702   3.267   2.125   1.671 -0.1921 -0.6156  0.5783
 4381TIP3    H234703   3.122   2.103   1.636 -0.1847  0.6877 -0.3281
 4382TIP3   OH234704   2.303   6.416   0.567  0.0278  0.7163 -0.2169
 4382TIP3    H134705   2.399   6.415   0.570 -0.0062  0.6522  1.0406
 4382TIP3    H234706   2.276   6.433   0.657 -1.1164  3.9229 -1.0270
 4383TIP3   OH234707   0.173   5.877   2.081 -0.6945  0.0689 -0.1216
 4383TIP3    H134708   0.134   5.869   1.994  1.6224  0.6161 -1.2823
 4383TIP3    H234709   0.206   5.789   2.101 -0.1986  0.2016 -0.3348
 4384TIP3   OH234710   2.818   0.968   2.990 -0.0100 -0.4752  0.0731
 4384TIP3    H134711   2.741   0.922   3.023 -0.0695  0.4899  1.3523
 4384TIP3    H234712   2.879   0.970   3.064  0.2661  0.8663 -0.1638
 4385TIP3   OH234713   1.516   6.386   0.268  0.2544  0.7021 -0.5676
 4385TIP3    H134714   1.451   6.376   0.199 -1.0434  2.5128  0.2981
 4385TIP3    H234715   1.523   6.481   0.281 -0.3635  0.4157  2.4839
 4386TIP3   OH234716   6.328   5.474   0.141  0.1737  0.1056 -0.3675
 4386TIP3    H134717   6.352   5.448   0.052 -0.3930  0.6361 -0.6851
 4386TIP3    H234718   6.233   5.462   0.145 -0.0989  1.8989 -0.4810
 4387TIP3   OH234719   4.331   2.476   7.983  0.0158  0.6768 -0.4775
 4387TIP3    H134720   4.356   2.566   8.005 -0.0543  0.2455  1.5503
 4387TIP3    H234721   4.347   2.427   8.064 -0.4380 -1.0399 -1.3972
 4388TIP3   OH234722   2.039   6.176   7.929  0.3056  0.3804  0.1664
 4388TIP3    H134723   1.955   6.190   7.886  0.0359 -1.2331  0.1129
 4388TIP3    H234724   2.037   6.234   8.005 -1.7136 -1.0525  1.2881
 4389TIP3   OH234725   2.256   5.071   2.352 -0.2651 -0.0172  0.1670
 4389TIP3    H134726   2.349   5.058   2.333 -0.6281 -2.9455 -0.0511
 4389TIP3    H234727   2.252   5.077   2.448  0.1159 -0.6449  0.2321
 4390TIP3   OH234728   4.771   2.253   2.255 -0.0090 -0.7156 -0.2802
 4390TIP3    H134729   4.854   2.294   2.278 -0.2055  1.3620 -2.7733
 4390TIP3    H234730   4.709   2.326   2.252 -1.4083 -1.8835 -0.6791
 4391TIP3   OH234731   5.396   0.157   0.307 -0.4061 -0.2459  0.0036
 4391TIP3    H134732   5.333   0.148   0.378 -0.7249 -0.1544 -0.2680
 4391TIP3    H234733   5.417   0.250   0.306  0.2374 -0.3777  0.5244
 4392TIP3   OH234734   1.627   1.088   2.202  0.8792 -0.5485 -0.1202
 4392TIP3    H134735   1.628   1.143   2.280 -1.5995  3.0356 -2.2928
 4392TIP3    H234736   1.538   1.052   2.200 -0.0459  1.5931 -2.4712
 4393TIP3   OH234737   4.745   1.484   0.953  0.3026 -0.1783  0.6763
 4393TIP3    H134738   4.832   1.522   0.947  0.2791 -0.3034 -1.0898
 4393TIP3    H234739   4.690   1.539   0.897  0.1471 -2.3451 -1.5288
 4394TIP3   OH234740   2.321   2.633   0.605 -0.0496  0.1893  0.1935
 4394TIP3    H134741   2.414   2.613   0.616 -0.5711 -1.3706  2.6813
 4394TIP3    H234742   2.316   2.686   0.526  2.7024 -1.5381 -1.2566
 4395TIP3   OH234743   5.550   3.541   0.979 -0.2738 -0.4436  0.3506
 4395TIP3    H134744   5.582   3.503   1.061  0.0378 -0.0136  0.4358
 4395TIP3    H234745   5.505   3.621   1.006  0.1495 -0.1077  0.0755
 4396TIP3   OH234746   5.249   3.942   7.562 -0.6684 -0.2077 -0.7088
 4396TIP3    H134747   5.256   3.869   7.500 -2.0815 -1.5773  0.6688
 4396TIP3    H234748   5.251   3.901   7.648  0.1540  1.5624  0.1698
 4397TIP3   OH234749   1.704   3.267   1.390 -0.4168 -0.0948 -0.6258
 4397TIP3    H134750   1.724   3.184   1.346 -2.6246 -0.3284 -1.2794
 4397TIP3    H234751   1.662   3.241   1.472  1.1593  0.3897  0.3857
 4398TIP3   OH234752   5.297   2.083   7.527  0.6707 -0.2137 -0.5704
 4398TIP3    H134753   5.299   2.177   7.508  0.4001 -0.0480  0.1947
 4398TIP3    H234754   5.248   2.045   7.454  0.0157  0.3553 -0.4383
 4399TIP3   OH234755   5.996   2.008   1.626 -0.1639 -0.1907 -0.4672
 4399TIP3    H134756   5.981   1.945   1.556  0.0355  0.7859 -1.4233
 4399TIP3    H234757   5.909   2.024   1.662 -0.0884 -1.7734  0.5045
 4400TIP3   OH234758   3.104   6.164   1.046 -0.4964  0.2052 -0.5183
 4400TIP3    H134759   3.138   6.077   1.067 -1.5385  0.1161  0.9850
 4400TIP3    H234760   3.014   6.149   1.018 -0.5614  0.7692 -0.6289
 4401TIP3   OH234761   0.098   5.109   8.595  0.6565 -0.4807  0.4852
 4401TIP3    H134762   0.172   5.166   8.576 -0.6361  0.9081 -0.6162
 4401TIP3    H234763   0.030   5.167   8.629 -0.9371 -1.2074 -1.3033
 4402TIP3   OH234764   6.487   1.181   0.323 -0.1268 -0.2550 -0.9889
 4402TIP3    H134765   6.459   1.241   0.392 -0.0113 -0.5754 -0.6578
 4402TIP3    H234766   6.533   1.111   0.370 -0.5312 -0.7630 -1.3375
 4403TIP3   OH234767   3.744   0.955   8.165 -0.6762 -0.2242 -0.5571
 4403TIP3    H134768   3.838   0.944   8.150 -0.8584 -0.0753 -1.9735
 4403TIP3    H234769   3.738   1.025   8.230  0.1905  0.7015 -1.4243
 4404TIP3   OH234770   1.245   5.430   7.749 -0.2069 -0.4330  0.2220
 4404TIP3    H134771   1.288   5.462   7.828 -2.1414  0.6509  0.9038
 4404TIP3    H234772   1.305   5.453   7.678  0.2566  1.2617  1.1011
 4405TIP3   OH234773   3.731   0.800   7.949  0.1003  0.1176  0.0866
 4405TIP3    H134774   3.649   0.807   7.899 -0.1370  0.9282  0.5574
 4405TIP3    H234775   3.722   0.866   8.018  1.4259  0.6802 -0.2462
 4406TIP3   OH234776   4.794   6.735   8.326 -0.4300 -0.4645  0.7107
 4406TIP3    H134777   4.863   6.671   8.311  1.1699  1.1619  0.8119
 4406TIP3    H234778   4.825   6.788   8.398 -0.6684  1.7559 -0.7275
 4407TIP3   OH234779   1.493   0.418   8.493  0.1965  0.0494 -0.2012
 4407TIP3    H134780   1.529   0.507   8.489 -0.6174  0.4182  0.4428
 4407TIP3    H234781   1.553   0.371   8.551  0.2634  0.3603 -0.0139
 4408TIP3   OH234782   4.530   6.586   2.282  0.6347  1.0115 -0.3587
 4408TIP3    H134783   4.548   6.498   2.315  2.7142  1.6069  0.2781
 4408TIP3    H234784   4.559   6.645   2.352 -1.3785  2.2354 -0.4699
 4409TIP3   OH234785   3.186   6.611   8.582  0.4858  0.5996 -0.1401
 4409TIP3    H134786   3.262   6.602   8.639 -0.8427  1.0723  1.7895
 4409TIP3    H234787   3.197   6.697   8.541  1.2505  0.4252 -0.3257
 4410TIP3   OH234788   2.964   2.803   0.817  0.0182  0.5921  0.2438
 4410TIP3    H134789   3.026   2.730   0.829  1.8754  2.1833  0.8862
 4410TIP3    H234790   2.994   2.870   0.879 -2.2677  1.5245  0.4226
 4411TIP3   OH234791   3.545   3.938   2.722 -0.2651  0.0529 -1.2205
 4411TIP3    H134792   3.451   3.953   2.727 -0.2182 -0.1193  1.9996
 4411TIP3    H234793   3.553   3.845   2.700 -1.0535 -0.9181  1.9786
 4412TIP3   OH234794   5.752   0.955   8.326  0.1777  0.1369 -0.4583
 4412TIP3    H134795   5.746   0.948   8.421  1.1996  1.8207 -0.2358
 4412TIP3    H234796   5.662   0.944   8.296 -0.1219 -0.7202  0.6488
 4413TIP3   OH234797   6.717   5.343   7.625  0.2494 -0.0465 -0.1598
 4413TIP3    H134798   6.724   5.435   7.650 -1.3708 -0.0755  0.5499
 4413TIP3    H234799   6.744   5.340   7.534  1.0630  1.0009  0.0359
 4414TIP3   OH234800   5.796   4.680   7.288 -0.5138  0.3492 -0.4370
 4414TIP3    H134801   5.746   4.710   7.364 -0.6753 -0.0283 -0.3900
 4414TIP3    H234802   5.880   4.725   7.294 -0.7504  0.7867 -0.3701
 4415TIP3   OH234803   6.050   5.341   0.930 -0.0593  0.1857 -0.5131
 4415TIP3    H134804   6.016   5.256   0.901 -2.0740  0.4928  0.7475
 4415TIP3    H234805   6.000   5.405   0.879 -0.0887  0.6344  0.0660
 4416TIP3   OH234806   6.084   5.388   1.366 -0.9956  0.3378  0.2669
 4416TIP3    H134807   6.032   5.467   1.349  0.8198  1.3385 -0.9526
 4416TIP3    H234808   6.130   5.407   1.448 -1.8931 -0.2221  0.9215
 4417TIP3   OH234809   0.920   6.710   0.779  0.3145 -0.1893  0.7645
 4417TIP3    H134810   0.831   6.687   0.805 -0.1941  0.5638 -0.2447
 4417TIP3    H234811   0.917   6.803   0.758  0.6907 -0.6551 -1.7069
 4418TIP3   OH234812   5.083   1.895   8.130  0.5736 -0.2085 -0.3674
 4418TIP3    H134813   4.988   1.896   8.115  0.7345 -2.3635 -2.0557
 4418TIP3    H234814   5.118   1.844   8.058  3.1333  1.0007 -0.0925
 4419TIP3   OH234815   5.310   5.409   2.864 -0.2073 -0.2721  0.6415
 4419TIP3    H134816   5.217   5.417   2.885 -0.3840 -1.0736  0.1949
 4419TIP3    H234817   5.346   5.352   2.932 -0.0456  0.0029  0.7898
 4420TIP3   OH234818   4.772   4.126   7.759 -0.0039  0.2993  0.1272
 4420TIP3    H134819   4.751   4.158   7.671  0.1037 -0.4542 -0.1820
 4420TIP3    H234820   4.735   4.038   7.762 -0.4555  0.5099  1.0274
 4421TIP3   OH234821   2.800   3.190   1.543  0.0239 -0.1742  0.4107
 4421TIP3    H134822   2.747   3.268   1.558 -1.4237 -0.5544 -2.1647
 4421TIP3    H234823   2.821   3.193   1.450 -0.3042 -2.9953  0.1661
 4422TIP3   OH234824   1.672   0.374   0.385 -0.1078  0.0910  0.2750
 4422TIP3    H134825   1.665   0.361   0.291  0.8787  0.1901  0.1801
 4422TIP3    H234826   1.694   0.467   0.395 -0.8541  0.2376  0.6388
 4423TIP3   OH234827   5.104   2.091   8.701 -0.5249 -0.2399 -0.2413
 4423TIP3    H134828   5.107   2.135   8.616 -1.0116 -0.6750 -0.4893
 4423TIP3    H234829   5.196   2.090   8.730 -0.5360  1.1807 -0.0908
 4424TIP3   OH234830   2.352   1.521   7.680  0.3084  0.0384 -0.5480
 4424TIP3    H134831   2.285   1.552   7.619  2.5932 -0.5156 -3.5936
 4424TIP3    H234832   2.391   1.601   7.715  0.5616  0.4649 -1.7630
 4425TIP3   OH234833   2.647   0.650   1.548  0.5658 -0.3622  0.3791
 4425TIP3    H134834   2.576   0.609   1.500  1.6550 -0.3975 -1.2828
 4425TIP3    H234835   2.690   0.579   1.595  4.1178 -2.0399 -4.5432
 4426TIP3   OH234836   2.419   6.174   0.058 -0.3805 -0.6465  0.5851
 4426TIP3    H134837   2.368   6.226   0.121  0.4071  0.1232  0.6040
 4426TIP3    H234838   2.421   6.228  -0.021  0.4272 -0.6575  0.5933
 4427TIP3   OH234839   4.880   0.581   0.752  0.1761  0.2502  0.0294
 4427TIP3    H134840   4.847   0.566   0.840 -1.3857 -2.9205 -0.9518
 4427TIP3    H234841   4.809   0.624   0.706  0.2008  0.0271 -0.2191
 4428TIP3   OH234842   4.494   2.010   8.222 -0.3893 -0.3769 -0.0611
 4428TIP3    H134843   4.456   2.052   8.145 -2.7710 -0.0670  1.2072
 4428TIP3    H234844   4.429   1.944   8.248  0.9217 -1.3176  1.0077
 4429TIP3   OH234845   5.898   0.738   2.724 -0.4988  0.0784 -0.7116
 4429TIP3    H134846   5.960   0.686   2.775  0.3871  0.7229 -1.1219
 4429TIP3    H234847   5.819   0.739   2.778  0.6480  1.3660  1.0610
 4430TIP3   OH234848   2.609   4.891   3.125  0.3063  0.0453 -0.2727
 4430TIP3    H134849   2.604   4.983   3.152  0.5090 -0.0095 -0.0396
 4430TIP3    H234850   2.518   4.865   3.110  0.0591 -0.2577  1.5437
 4431TIP3   OH234851   4.573   0.241   7.427 -0.2181  0.4739  0.0215
 4431TIP3    H134852   4.581   0.187   7.348  1.2546  0.6203  0.0317
 4431TIP3    H234853   4.489   0.285   7.418  0.6660  1.8546 -2.3674
 4432TIP3   OH234854   2.976   1.531   3.019  0.2478 -0.0677  0.0722
 4432TIP3    H134855   3.036   1.561   3.088 -0.8316 -0.2374  1.1130
 4432TIP3    H234856   2.911   1.601   3.013 -0.8938 -1.0323  0.7806
 4433TIP3   OH234857   2.009   0.273   0.446  0.5296  0.2851  0.3432
 4433TIP3    H134858   2.078   0.224   0.491  0.8454 -1.1124 -1.5167
 4433TIP3    H234859   1.928   0.246   0.490  0.7536 -1.5759 -0.2608
 4434TIP3   OH234860   3.650   2.485   8.473 -0.2408 -0.2652 -0.0964
 4434TIP3    H134861   3.706   2.445   8.407  0.2331  0.8204 -0.3738
 4434TIP3    H234862   3.659   2.427   8.550  2.0269  0.3657  0.1879
 4435TIP3   OH234863   6.669   5.657   7.368  0.3196 -0.0029 -0.4080
 4435TIP3    H134864   6.721   5.618   7.438  0.2720 -0.7880 -0.8050
 4435TIP3    H234865   6.734   5.698   7.311  0.3446  0.8156  0.1891
 4436TIP3   OH234866   3.724   5.945   0.098 -0.4671  0.0371  0.5118
 4436TIP3    H134867   3.719   6.015   0.163 -0.0693 -1.0043  1.7309
 4436TIP3    H234868   3.667   5.973   0.027 -0.4017  1.5284  1.0110
 4437TIP3   OH234869   2.086   3.092   1.312  0.1447 -0.1494  0.2826
 4437TIP3    H134870   2.008   3.037   1.307  1.2438 -1.6849 -0.8010
 4437TIP3    H234871   2.156   3.039   1.275  1.4548  1.6856 -0.0320
 4438TIP3   OH234872   1.545   2.146   0.551  0.1430 -0.7305  0.1577
 4438TIP3    H134873   1.512   2.094   0.624  1.6490 -2.2840 -0.2078
 4438TIP3    H234874   1.591   2.219   0.592 -0.3435 -0.7289  0.7094
 4439TIP3   OH234875   2.731   6.350   1.754 -0.0712 -0.0546 -0.5161
 4439TIP3    H134876   2.645   6.358   1.796  1.0703  1.4158  1.7124
 4439TIP3    H234877   2.754   6.258   1.765 -0.1553  0.1255  1.4626
 4440TIP3   OH234878   3.092   3.469   0.708 -0.5083  0.2302 -0.2703
 4440TIP3    H134879   3.010   3.518   0.703 -0.7734 -0.1024  0.6190
 4440TIP3    H234880   3.157   3.527   0.668 -0.7128  1.5535  1.2333
 4441TIP3   OH234881   2.384   1.568   8.585 -0.0137 -0.2616 -0.3136
 4441TIP3    H134882   2.339   1.619   8.652 -2.7248 -1.7854 -0.8378
 4441TIP3    H234883   2.424   1.496   8.633  0.5074  0.2083 -0.0313
 4442TIP3   OH234884   5.915   2.632   0.532  0.1638  0.0476  0.3255
 4442TIP3    H134885   5.983   2.680   0.486  1.1365 -0.6015  1.0513
 4442TIP3    H234886   5.835   2.682   0.516  0.7526  0.6733 -0.7657
 4443TIP3   OH234887   1.175   2.176   7.700  0.2820  0.3955 -0.2662
 4443TIP3    H134888   1.247   2.113   7.701  0.7135  0.7846  2.1977
 4443TIP3    H234889   1.193   2.232   7.776 -2.6218  0.5009  0.4432
 4444TIP3   OH234890   4.298   1.823   7.593  0.0902 -0.4192 -0.8696
 4444TIP3    H134891   4.390   1.797   7.591 -0.2405 -1.7416 -0.2857
 4444TIP3    H234892   4.256   1.766   7.528 -0.5654 -1.0057  0.0372
 4445TIP3   OH234893   6.502   6.554   7.859  0.1615 -0.3860  0.3428
 4445TIP3    H134894   6.473   6.635   7.900 -2.1216 -0.4259 -1.0386
 4445TIP3    H234895   6.487   6.567   7.766  0.6056 -2.0750 -0.0011
 4446TIP3   OH234896   0.484   4.352   0.617  0.1303  0.2713  0.3513
 4446TIP3    H134897   0.431   4.309   0.550 -0.3453 -2.7614  2.4502
 4446TIP3    H234898   0.420   4.398   0.672  0.2909  1.0127 -0.0733
 4447TIP3   OH234899   3.853   6.258   8.536  0.2287  0.5411  0.2028
 4447TIP3    H134900   3.794   6.191   8.571 -0.6080  1.1590  0.0221
 4447TIP3    H234901   3.864   6.320   8.608  1.4999 -0.0869  0.5781
 4448TIP3   OH234902   3.580   6.452   1.227  0.3761 -0.1114 -0.2616
 4448TIP3    H134903   3.655   6.419   1.276 -0.1773 -0.4538  0.3635
 4448TIP3    H234904   3.595   6.546   1.221  0.7635 -0.1549  0.0174
 4449TIP3   OH234905   2.202   4.260   0.751  0.4982  0.0300 -0.5924
 4449TIP3    H134906   2.120   4.259   0.801  0.9988  0.9063  0.2774
 4449TIP3    H234907   2.209   4.348   0.716  1.4722  0.2241  0.0476
 4450TIP3   OH234908   5.320   0.707   7.180 -0.2468 -0.3669 -0.1384
 4450TIP3    H134909   5.301   0.767   7.108 -2.3283 -0.6426  0.1168
 4450TIP3    H234910   5.378   0.757   7.237  0.6583  0.2051 -1.4979
 4451TIP3   OH234911   6.577   6.401   7.399  0.1751  0.4416 -0.4631
 4451TIP3    H134912   6.671   6.408   7.412  0.6303 -0.3915 -2.8061
 4451TIP3    H234913   6.545   6.356   7.477  1.7055  0.6588  0.3267
 4452TIP3   OH234914   4.157   2.988   0.015  0.7488 -0.3035 -0.5365
 4452TIP3    H134915   4.242   2.962   0.050  0.5731 -1.0276 -0.6250
 4452TIP3    H234916   4.177   3.023  -0.072  0.8889 -1.2005 -0.8813
 4453TIP3   OH234917   3.987   1.271   1.611 -0.2042 -0.0192 -0.5813
 4453TIP3    H134918   3.900   1.286   1.649  0.5099  0.7361  0.8367
 4453TIP3    H234919   3.996   1.176   1.610 -1.4597 -0.1595 -1.7813
 4454TIP3   OH234920   0.707   3.870   3.101 -0.2896  0.3857  0.5442
 4454TIP3    H134921   0.662   3.860   3.185  0.5036  0.5174  1.0016
 4454TIP3    H234922   0.754   3.953   3.109  1.2807 -0.4850  0.7069
 4455TIP3   OH234923   4.387   3.724   0.364 -0.2266 -0.0827  0.2960
 4455TIP3    H134924   4.435   3.728   0.447  0.2395  0.2006  0.0201
 4455TIP3    H234925   4.316   3.787   0.375  0.1767  0.3855  0.2714
 4456TIP3   OH234926   5.782   6.131   0.702  0.0836  0.2098 -0.0361
 4456TIP3    H134927   5.709   6.141   0.763 -1.9451 -4.0269 -1.3809
 4456TIP3    H234928   5.855   6.102   0.756 -0.2860  0.9775  0.9006
 4457TIP3   OH234929   3.252   2.955   7.938 -0.1223  0.0357  0.3649
 4457TIP3    H134930   3.206   3.036   7.963  0.5777 -0.0848  2.2018
 4457TIP3    H234931   3.341   2.967   7.970 -0.1477 -1.6904  1.1902
 4458TIP3   OH234932   6.029   0.472   0.868  0.1461 -0.6296 -0.0002
 4458TIP3    H134933   6.029   0.563   0.896  1.3489 -0.9270  1.0679
 4458TIP3    H234934   6.025   0.476   0.772 -0.1241  0.5309  0.0486
 4459TIP3   OH234935   6.116   3.884   2.550  0.0992 -0.1175  0.1067
 4459TIP3    H134936   6.067   3.894   2.468 -0.1876 -3.1035 -0.1974
 4459TIP3    H234937   6.204   3.858   2.522  0.2196 -0.4249  0.7556
 4460TIP3   OH234938   1.637   0.827   7.974 -0.4045 -0.1501  0.1889
 4460TIP3    H134939   1.566   0.771   8.005 -1.6042  0.5384 -1.2359
 4460TIP3    H234940   1.665   0.875   8.052 -2.1829  0.2898  0.6009
 4461TIP3   OH234941   6.728   2.044   8.627 -0.1722 -0.2049  0.1223
 4461TIP3    H134942   6.725   2.134   8.594  1.3631 -0.3975 -0.5965
 4461TIP3    H234943   6.751   1.991   8.551  2.9509 -0.7169  1.2775
 4462TIP3   OH234944   5.359   0.137   0.999  0.8466  0.1683 -0.8474
 4462TIP3    H134945   5.269   0.158   0.977  1.1187 -0.2285 -2.4916
 4462TIP3    H234946   5.412   0.200   0.949  1.5082 -0.3824 -0.8596
 4463TIP3   OH234947   5.802   3.785   1.776  0.3317 -0.4088  0.1810
 4463TIP3    H134948   5.756   3.722   1.722  0.9874 -0.1974 -0.6463
 4463TIP3    H234949   5.873   3.818   1.720  0.4784  0.4769  0.8601
 4464TIP3   OH234950   2.698   0.562   8.563  0.1745  0.6802  0.7643
 4464TIP3    H134951   2.669   0.522   8.644 -0.1480  3.8408  2.3710
 4464TIP3    H234952   2.621   0.561   8.506  0.3452 -1.3513  0.5151
 4465TIP3   OH234953   0.025   2.826   1.622 -0.2226 -0.3801  0.5585
 4465TIP3    H134954  -0.030   2.860   1.551 -1.7148  0.5892  2.0911
 4465TIP3    H234955  -0.037   2.788   1.684  0.6894  1.6353  2.8443
 4466TIP3   OH234956   3.575   6.141   8.244 -0.8132 -0.1659 -0.0588
 4466TIP3    H134957   3.585   6.158   8.338  1.1671 -1.2568 -0.0177
 4466TIP3    H234958   3.651   6.088   8.221 -0.7496  0.8575 -2.4841
 4467TIP3   OH234959   3.320   5.215   2.419  0.0422 -0.1788  0.0628
 4467TIP3    H134960   3.341   5.215   2.513  0.3631  1.5702  0.0145
 4467TIP3    H234961   3.383   5.153   2.382  0.1615 -0.6133  0.9462
 4468TIP3   OH234962   0.821   4.597   1.803 -0.5448  0.4341 -0.0583
 4468TIP3    H134963   0.830   4.678   1.752 -0.4431  1.5454  1.6275
 4468TIP3    H234964   0.795   4.531   1.739 -0.2565  1.7056 -1.5623
 4469TIP3   OH234965   1.129   4.224   2.177  0.5636  0.5332 -0.0748
 4469TIP3    H134966   1.187   4.299   2.162  0.7752  0.8500  2.0652
 4469TIP3    H234967   1.092   4.239   2.264 -1.5406 -0.4695 -0.7392
 4470TIP3   OH234968   0.065   0.304   0.486 -0.2685 -0.4027  0.0691
 4470TIP3    H134969   0.004   0.309   0.560 -0.2916  1.0923 -0.0336
 4470TIP3    H234970   0.017   0.255   0.419 -0.7476 -0.6044  0.5526
 4471TIP3   OH234971   1.589   6.563   0.557  0.8381  0.2293 -0.0664
 4471TIP3    H134972   1.672   6.561   0.605  1.1239 -0.1328 -0.5779
 4471TIP3    H234973   1.611   6.601   0.472  0.5153 -0.0612 -0.2780
 4472TIP3   OH234974   4.767   0.914   1.220 -0.0304  0.4022  0.1679
 4472TIP3    H134975   4.859   0.890   1.206 -0.6234 -2.0369  0.0490
 4472TIP3    H234976   4.768   0.969   1.299  1.2520 -2.0129  1.9501
 4473TIP3   OH234977   2.806   0.839   0.899  0.0862  0.2656 -0.3778
 4473TIP3    H134978   2.885   0.892   0.905  0.0451  0.2644  0.3682
 4473TIP3    H234979   2.828   0.768   0.840  0.9217 -0.1862  0.4475
 4474TIP3   OH234980   3.348   5.577   1.652 -0.2339  0.9218  0.3009
 4474TIP3    H134981   3.362   5.500   1.709 -0.0340  0.5816 -0.2033
 4474TIP3    H234982   3.424   5.633   1.670  0.6502  0.1107 -0.7506
 4475TIP3   OH234983   4.913   2.611   7.792 -0.3479 -0.1647 -0.1856
 4475TIP3    H134984   4.944   2.575   7.709 -0.1110 -3.2423  1.0948
 4475TIP3    H234985   4.818   2.615   7.784 -0.2826  0.1852 -0.8130
 4476TIP3   OH234986   2.714   4.837   1.889 -0.1421  0.3505 -0.4965
 4476TIP3    H134987   2.645   4.818   1.826 -0.0741 -0.6023 -0.3027
 4476TIP3    H234988   2.793   4.848   1.836 -0.1889  0.1086 -0.6165
 4477TIP3   OH234989   4.251   5.889   7.629 -1.0305  0.0905  0.0780
 4477TIP3    H134990   4.311   5.830   7.674  0.0490  0.8354 -0.3254
 4477TIP3    H234991   4.164   5.864   7.659 -0.4766 -0.7090  1.0478
 4478TIP3   OH234992   2.905   3.646   8.610  0.7607 -0.1524  0.6733
 4478TIP3    H134993   2.894   3.683   8.698  1.0105 -1.3516  1.2215
 4478TIP3    H234994   2.958   3.711   8.564  1.2308  0.1617  1.6272
 4479TIP3   OH234995   6.630   1.580   0.417 -0.0311  0.3762  0.3836
 4479TIP3    H134996   6.694   1.614   0.478  0.8147 -0.3584 -0.0781
 4479TIP3    H234997   6.681   1.539   0.347 -0.9907 -0.5447  0.1813
 4480TIP3   OH234998   2.410   0.550   7.592  0.4501 -0.6002  0.2431
 4480TIP3    H134999   2.317   0.559   7.615  0.5802  1.0157  0.2649
 4480TIP3    H235000   2.410   0.490   7.517 -0.5512 -1.0569  0.5829
 4481TIP3   OH235001   4.731   0.201   1.133  0.1442 -0.5554  0.6910
 4481TIP3    H135002   4.820   0.183   1.164  0.9902  1.8166 -0.0811
 4481TIP3    H235003   4.700   0.271   1.191  0.1120  0.9256 -1.0068
 4482TIP3   OH235004   1.587   5.868   8.701 -0.4836  0.0516 -0.0931
 4482TIP3    H135005   1.579   5.865   8.796  1.7649 -2.2376  0.1593
 4482TIP3    H235006   1.509   5.823   8.668 -0.0710 -1.4592  0.8683
 4483TIP3   OH235007   2.465   4.945   8.288 -0.4377 -0.0722  0.6931
 4483TIP3    H135008   2.377   4.929   8.322 -0.2894  1.8212  2.0729
 4483TIP3    H235009   2.522   4.889   8.341 -0.8185 -1.8587 -0.6825
 4484TIP3   OH235010   5.569   2.544   0.133  0.2706  0.5008  0.1938
 4484TIP3    H135011   5.534   2.631   0.114  0.7232  0.7276  0.3662
 4484TIP3    H235012   5.644   2.561   0.191  0.7433  0.0515 -0.2689
 4485TIP3   OH235013   0.137   1.405   0.196 -0.5552 -0.3586  0.4410
 4485TIP3    H135014   0.067   1.342   0.214  0.2106 -0.4274  4.0513
 4485TIP3    H235015   0.098   1.490   0.216 -0.1044 -0.2355  0.8073
 4486TIP3   OH235016   2.027   4.557   1.560 -0.2218 -0.1883  0.0741
 4486TIP3    H135017   1.968   4.485   1.582 -0.3687  0.2419  1.1325
 4486TIP3    H235018   2.079   4.523   1.487 -1.4332 -0.7514 -0.5708
 4487TIP3   OH235019   0.348   6.405   8.000  0.0730  0.3199  0.0790
 4487TIP3    H135020   0.365   6.419   7.907  1.2108 -0.6252  0.1290
 4487TIP3    H235021   0.431   6.424   8.043 -0.3905  0.5714  0.9034
 4488TIP3   OH235022   0.028   1.286   2.181  0.1695  0.6243  0.7597
 4488TIP3    H135023  -0.062   1.301   2.207  0.0149  0.0311  0.5841
 4488TIP3    H235024   0.073   1.261   2.262 -0.4442 -1.8328  0.4282
 4489TIP3   OH235025   6.710   4.596   7.738 -0.2857 -0.8153  0.2611
 4489TIP3    H135026   6.684   4.521   7.684  0.8196 -1.3752  0.4912
 4489TIP3    H235027   6.802   4.580   7.759 -0.4003 -0.0505  1.4139
 4490TIP3   OH235028   5.509   0.301   0.824  0.2380 -0.5369 -0.3621
 4490TIP3    H135029   5.590   0.313   0.873  1.6079  0.7586 -2.7589
 4490TIP3    H235030   5.506   0.376   0.764 -2.0852 -1.2406 -1.2317
 4491TIP3   OH235031   4.130   3.163   7.625 -0.5329 -0.2835 -0.2661
 4491TIP3    H135032   4.110   3.235   7.565  1.2465  0.6218  0.1555
 4491TIP3    H235033   4.101   3.085   7.579 -0.1202  0.4719 -1.8824
 4492TIP3   OH235034   6.377   1.090   0.079 -0.7382  0.6371 -0.0601
 4492TIP3    H135035   6.296   1.140   0.068  0.0875  1.8618 -0.7606
 4492TIP3    H235036   6.423   1.135   0.150 -0.0024  0.8561 -0.6737
 4493TIP3   OH235037   2.332   1.162   8.526 -0.0531 -0.2113 -0.5073
 4493TIP3    H135038   2.408   1.124   8.570  1.2189  1.1992 -1.3717
 4493TIP3    H235039   2.369   1.208   8.450 -2.0054 -1.4397 -2.3399
 4494TIP3   OH235040   4.914   2.877   7.686  0.1178 -0.2125  0.9820
 4494TIP3    H135041   4.940   2.952   7.633 -1.9503 -0.2968 -0.2722
 4494TIP3    H235042   4.952   2.801   7.642  0.8966 -0.0536  1.3607
 4495TIP3   OH235043   1.863   3.519   8.615  0.5027  0.9193  0.3567
 4495TIP3    H135044   1.889   3.534   8.524 -0.1015  3.3136  0.5006
 4495TIP3    H235045   1.773   3.487   8.609  0.5773  0.7528  0.1027
 4496TIP3   OH235046   0.847   6.015   2.659 -0.1032 -0.2454 -0.1751
 4496TIP3    H135047   0.785   6.064   2.713  1.0811 -0.6077  1.5957
 4496TIP3    H235048   0.845   5.926   2.695  0.4496 -0.5954 -0.9690
 4497TIP3   OH235049   6.244   4.388   8.218 -0.2230 -0.1066  0.7599
 4497TIP3    H135050   6.318   4.346   8.175  0.1079 -0.3393  1.5460
 4497TIP3    H235051   6.236   4.472   8.173 -1.1627 -1.1206 -1.1226
 4498TIP3   OH235052   4.229   4.470   2.901  0.1365  0.1514  0.0075
 4498TIP3    H135053   4.320   4.501   2.901 -0.3918  2.2507 -2.9526
 4498TIP3    H235054   4.179   4.546   2.930 -0.6914 -1.4271  3.0072
 4499TIP3   OH235055   1.530   5.900   0.206 -0.0150  0.0583  0.0885
 4499TIP3    H135056   1.486   5.891   0.291 -1.6613 -3.5877 -0.9629
 4499TIP3    H235057   1.464   5.940   0.149  0.3006  0.4455 -0.0073
 4500TIP3   OH235058   0.276   0.546   2.123  0.6724 -0.4853 -0.3652
 4500TIP3    H135059   0.235   0.630   2.107  1.5937  0.0096 -0.2098
 4500TIP3    H235060   0.271   0.534   2.218  0.7161 -0.5053 -0.3650
 4501TIP3   OH235061   3.720   4.709   8.194 -0.4031  0.1128 -0.2333
 4501TIP3    H135062   3.703   4.794   8.237 -0.4179 -0.2545  0.5104
 4501TIP3    H235063   3.743   4.651   8.266  0.8726 -0.2070 -0.8852
 4502TIP3   OH235064   4.199   4.962   2.544  0.1245  0.1314  0.2985
 4502TIP3    H135065   4.166   5.003   2.463  0.8250  0.2866  0.0831
 4502TIP3    H235066   4.285   5.003   2.558  0.2709 -0.3344  0.7934
 4503TIP3   OH235067   3.565   2.780   1.165  0.1857 -0.2926  0.1732
 4503TIP3    H135068   3.581   2.780   1.070 -0.5615 -1.3776  0.0287
 4503TIP3    H235069   3.579   2.871   1.191 -0.0804  0.1293 -1.0691
 4504TIP3   OH235070   6.062   0.007   2.634 -0.7676 -0.2335  0.3039
 4504TIP3    H135071   6.026  -0.015   2.548  0.7770  0.1115 -0.4601
 4504TIP3    H235072   6.138   0.062   2.615 -1.9713  2.2040  1.9919
 4505TIP3   OH235073   3.938   1.240   2.123  0.2458  0.3281 -0.4694
 4505TIP3    H135074   3.886   1.188   2.184 -1.5673  1.9081 -0.5585
 4505TIP3    H235075   3.920   1.330   2.147  2.0375  0.9640 -1.3251
 4506TIP3   OH235076   1.669   4.769   0.986 -0.4032  0.2820 -0.7960
 4506TIP3    H135077   1.686   4.863   0.980 -0.5008  0.2018 -4.1048
 4506TIP3    H235078   1.755   4.730   1.004 -0.6381  0.9754  2.5801
 4507TIP3   OH235079   1.370   3.558   2.478  0.1559 -0.4459 -0.8290
 4507TIP3    H135080   1.383   3.652   2.490  1.1205 -0.5745 -0.8098
 4507TIP3    H235081   1.277   3.549   2.459 -0.2789  0.3599  0.7206
 4508TIP3   OH235082   2.453   0.370   7.395 -0.2136 -0.1614  0.4677
 4508TIP3    H135083   2.436   0.278   7.374 -1.3488  0.1470 -0.0355
 4508TIP3    H235084   2.523   0.395   7.334  1.3006 -1.1171  1.7370
 4509TIP3   OH235085   0.602   5.121   1.970  0.1565  0.0852  0.2771
 4509TIP3    H135086   0.644   5.166   1.897  0.0244 -0.2539 -0.0106
 4509TIP3    H235087   0.562   5.192   2.022  1.1204  0.4169  0.5908
 4510TIP3   OH235088   2.949   0.742   8.018  0.1394 -0.1964  0.4579
 4510TIP3    H135089   2.889   0.667   8.023  0.5448 -0.7347 -1.7289
 4510TIP3    H235090   2.910   0.799   7.952  1.6741 -0.2730 -0.5706
 4511TIP3   OH235091   2.286   3.085   2.386  0.6169 -0.2484  0.0980
 4511TIP3    H135092   2.264   3.107   2.476  0.1501  1.5337 -0.4102
 4511TIP3    H235093   2.311   3.168   2.346 -0.5985 -0.7235 -1.7969
 4512TIP3   OH235094   3.912   1.744   0.890  0.2541 -0.3869 -0.4916
 4512TIP3    H135095   3.887   1.749   0.798 -0.2595  0.6595 -0.3129
 4512TIP3    H235096   4.007   1.750   0.890  0.1463  3.5990 -0.7985
 4513TIP3   OH235097   4.917   0.163   2.158 -0.0426 -0.2154 -0.0638
 4513TIP3    H135098   4.890   0.213   2.234  0.7361  0.5485 -0.2725
 4513TIP3    H235099   4.960   0.085   2.195 -0.7425 -0.4587  0.2602
 4514TIP3   OH235100   4.429   6.376   0.363 -0.0108 -0.3128 -0.4983
 4514TIP3    H135101   4.491   6.449   0.369  0.7277 -1.0318  1.2271
 4514TIP3    H235102   4.447   6.322   0.440 -1.6768 -1.4375 -0.8303
 4515TIP3   OH235103   6.138   4.800   0.980 -0.0363 -0.5810 -0.0724
 4515TIP3    H135104   6.140   4.883   1.027  0.1556 -1.5515  1.7209
 4515TIP3    H235105   6.124   4.824   0.889 -0.9424  1.3636  0.5365
 4516TIP3   OH235106   6.394   2.113   8.321 -0.4543  0.3957 -0.4557
 4516TIP3    H135107   6.393   2.045   8.388 -1.3060  0.4435 -0.4057
 4516TIP3    H235108   6.486   2.137   8.311 -0.2837  0.0971  0.3952
 4517TIP3   OH235109   6.112   6.645   1.112  0.3538 -0.0479  0.5109
 4517TIP3    H135110   6.087   6.555   1.091  1.0856 -0.7839  2.5219
 4517TIP3    H235111   6.202   6.653   1.079  0.6430 -0.3963  1.2039
 4518TIP3   OH235112   2.247   4.059   2.905  0.4320 -0.5203  0.4321
 4518TIP3    H135113   2.319   4.045   2.843  0.9410 -1.8365  1.2656
 4518TIP3    H235114   2.187   4.118   2.860  0.7814 -1.4322 -1.3240
 4519TIP3   OH235115   2.043   1.611   2.172  0.4472 -0.3328  0.4231
 4519TIP3    H135116   2.060   1.575   2.259  0.2192 -2.4321 -0.3466
 4519TIP3    H235117   1.954   1.646   2.177 -0.0005 -1.4928  0.7253
 4520TIP3   OH235118   5.987   1.176   1.084 -0.3061  0.0554  0.2032
 4520TIP3    H135119   5.988   1.104   1.147  1.3051  0.5380  0.8030
 4520TIP3    H235120   6.065   1.228   1.107 -0.1210  0.6801 -1.6954
 4521TIP3   OH235121   0.310   2.340   6.839 -0.0106  0.3517  0.2273
 4521TIP3    H135122   0.320   2.258   6.791 -2.3629  0.2786 -0.2297
 4521TIP3    H235123   0.321   2.408   6.772 -0.8418  0.3126  0.0403
 4522TIP3   OH235124   1.606   2.149   1.221  0.1119  0.1321  0.0030
 4522TIP3    H135125   1.516   2.160   1.253  0.4684 -0.6174  1.3683
 4522TIP3    H235126   1.610   2.203   1.142 -1.3305  0.7372  0.2986
 4523TIP3   OH235127   4.974   6.511   2.481  0.2595 -0.0694  0.0208
 4523TIP3    H135128   5.068   6.526   2.473  0.0755  0.8864 -0.5354
 4523TIP3    H235129   4.961   6.498   2.575  1.0391 -0.9385  0.0208
 4524TIP3   OH235130   1.126   6.197   1.378 -0.0284 -0.4526  0.2236
 4524TIP3    H135131   1.086   6.269   1.426 -1.3842 -0.7950 -0.3559
 4524TIP3    H235132   1.123   6.123   1.438  0.9586 -0.1679  0.6536
 4525TIP3   OH235133   5.576   1.421   7.778  0.3903  0.3014 -0.3244
 4525TIP3    H135134   5.538   1.341   7.742  0.2915 -0.2673  0.9985
 4525TIP3    H235135   5.574   1.483   7.705  0.6011 -0.9302 -1.4149
 4526TIP3   OH235136   3.266   3.384   8.055 -0.1119 -0.1549  0.5418
 4526TIP3    H135137   3.347   3.340   8.031 -0.1558 -1.2628  2.2793
 4526TIP3    H235138   3.282   3.476   8.036  1.2935 -0.4499  0.1989
 4527TIP3   OH235139   5.457   6.412   2.273 -0.5479  0.0532 -0.0194
 4527TIP3    H135140   5.443   6.481   2.338 -0.6409 -0.9118  1.0219
 4527TIP3    H235141   5.417   6.334   2.312 -0.0772 -0.6868 -0.9780
 4528TIP3   OH235142   0.833   0.410   2.676 -0.3257  0.0956 -0.3896
 4528TIP3    H135143   0.926   0.415   2.697 -0.8310 -0.1800  2.2877
 4528TIP3    H235144   0.791   0.471   2.736 -2.0198 -0.9828 -0.3960
 4529TIP3   OH235145   2.607   5.909   2.860 -0.0159 -0.4001 -0.3000
 4529TIP3    H135146   2.605   5.813   2.859 -1.6163 -0.4105 -1.4470
 4529TIP3    H235147   2.683   5.932   2.913 -2.0989 -2.2563  3.9372
 4530TIP3   OH235148   5.670   0.237   7.997 -0.4904 -0.0614 -0.2229
 4530TIP3    H135149   5.638   0.148   8.014 -0.3777 -0.1712 -0.5767
 4530TIP3    H235150   5.594   0.283   7.962 -1.5152  0.9345  2.9750
 4531TIP3   OH235151   3.115   5.525   2.204 -0.0362 -0.3144 -0.4497
 4531TIP3    H135152   3.070   5.609   2.197  0.4725 -0.1420 -2.4312
 4531TIP3    H235153   3.045   5.460   2.200 -0.3730 -0.0080  0.3066
 4532TIP3   OH235154   4.573   0.951   7.948 -0.2526 -0.1317  0.4789
 4532TIP3    H135155   4.668   0.950   7.937 -0.3617 -0.2244 -0.5649
 4532TIP3    H235156   4.546   0.861   7.933 -0.4335 -0.2736  1.5943
 4533TIP3   OH235157   1.069   4.432   1.526 -0.8354 -0.3746  0.2628
 4533TIP3    H135158   0.984   4.459   1.493 -1.0837 -0.6127  0.6925
 4533TIP3    H235159   1.052   4.407   1.617 -0.6955 -2.3212 -0.1942
 4534TIP3   OH235160   5.038   2.680   7.524  0.5383 -0.0132  0.0367
 4534TIP3    H135161   5.084   2.752   7.479 -0.0302  1.1028  1.1817
 4534TIP3    H235162   5.108   2.624   7.558  1.0572  1.0056  0.6977
 4535TIP3   OH235163   2.403   0.366   0.321  0.2736  0.5256  0.2249
 4535TIP3    H135164   2.417   0.311   0.244  1.2664 -0.0604  0.7914
 4535TIP3    H235165   2.382   0.452   0.286 -2.2852 -0.3838 -0.7038
 4536TIP3   OH235166   1.782   0.139   0.532  0.2987 -0.0443  0.0288
 4536TIP3    H135167   1.728   0.197   0.478  1.0498  1.0904  0.4816
 4536TIP3    H235168   1.794   0.061   0.477 -3.0518 -1.0444  0.4852
 4537TIP3   OH235169   3.233   1.408   0.156  0.1600  0.0138  0.0032
 4537TIP3    H135170   3.138   1.407   0.164  0.0798 -1.2873 -0.7421
 4537TIP3    H235171   3.260   1.318   0.176  1.1103  0.0716 -0.8700
 4538TIP3   OH235172   1.920   5.179   0.251 -0.0041 -0.6848  0.3249
 4538TIP3    H135173   1.870   5.110   0.295 -1.4755  0.3188  0.2973
 4538TIP3    H235174   1.859   5.252   0.244  1.3246  0.4215 -0.1934
 4539TIP3   OH235175   0.306   4.736   0.349 -0.1754 -0.2751  0.6993
 4539TIP3    H135176   0.227   4.785   0.327 -0.6819  0.0793  3.0869
 4539TIP3    H235177   0.283   4.684   0.426  0.8718 -3.0099 -0.6691
 4540TIP3   OH235178   0.189   5.503   1.286 -0.3259 -0.1168 -0.2680
 4540TIP3    H135179   0.256   5.459   1.234  1.6929  0.3654  1.7885
 4540TIP3    H235180   0.189   5.593   1.255 -0.8994 -0.3766 -1.0634
 4541TIP3   OH235181   4.534   5.898   2.633  0.0003  0.1992 -0.3566
 4541TIP3    H135182   4.528   5.922   2.725 -1.0230  0.1545 -0.4028
 4541TIP3    H235183   4.463   5.836   2.619  0.0971  0.2618 -1.2000
 4542TIP3   OH235184   2.614   0.249   0.823  1.1452 -0.0509 -0.4798
 4542TIP3    H135185   2.547   0.183   0.807  1.2519 -0.4999  0.7646
 4542TIP3    H235186   2.677   0.238   0.752  0.5767 -0.5134 -0.9181
 4543TIP3   OH235187   5.936   3.809   7.703 -0.0417 -0.1055  0.4282
 4543TIP3    H135188   5.945   3.726   7.656 -0.1477 -0.2723  0.7037
 4543TIP3    H235189   5.982   3.873   7.648 -1.0319 -0.0994 -0.4315
 4544TIP3   OH235190   2.830   5.585   1.548  0.5098  0.4892  0.1499
 4544TIP3    H135191   2.841   5.497   1.512 -1.1018  0.5007 -0.4316
 4544TIP3    H235192   2.799   5.570   1.637 -0.5555  0.4519 -0.2171
 4545TIP3   OH235193   2.217   5.206   8.263  0.1898 -0.3262 -0.2423
 4545TIP3    H135194   2.131   5.167   8.248  0.5548 -0.8030 -1.1454
 4545TIP3    H235195   2.246   5.234   8.176  1.2516 -0.8112 -0.0536
 4546TIP3   OH235196   1.837   1.895   7.540 -0.3829 -0.2311  0.3193
 4546TIP3    H135197   1.872   1.825   7.485 -0.1961 -0.6140  0.9123
 4546TIP3    H235198   1.742   1.892   7.525 -0.5956 -1.8205  1.6856
 4547TIP3   OH235199   6.089   5.838   8.505  0.3839  0.2696  0.1285
 4547TIP3    H135200   6.108   5.757   8.457 -0.8412 -0.5772  0.9829
 4547TIP3    H235201   5.999   5.860   8.478  1.0196  1.8799 -0.7797
 4548TIP3   OH235202   4.726   4.150   0.781 -0.4244 -0.1478  0.3641
 4548TIP3    H135203   4.698   4.214   0.716  0.8910  1.4408  1.3006
 4548TIP3    H235204   4.750   4.072   0.729 -0.7738  0.5667 -0.9097
 4549TIP3   OH235205   0.091   4.669   1.956  0.2392 -0.1679  0.7420
 4549TIP3    H135206   0.098   4.619   2.038 -1.4965  0.6701  1.4453
 4549TIP3    H235207   0.182   4.678   1.926  1.0483  0.3701  3.1256
 4550TIP3   OH235208   0.652   6.117   0.683  0.2747  0.3528 -0.2131
 4550TIP3    H135209   0.576   6.070   0.649  0.8138  0.6473 -1.8992
 4550TIP3    H235210   0.687   6.060   0.751 -2.1538  0.7570  1.5152
 4551TIP3   OH235211   1.081   1.754   0.384 -0.2356 -0.2841 -0.6500
 4551TIP3    H135212   1.024   1.698   0.331 -0.8688  1.0266 -1.4020
 4551TIP3    H235213   1.145   1.694   0.422 -0.6977 -1.4699 -1.6791
 4552TIP3   OH235214   3.626   6.284   1.009  0.1934 -0.4580 -0.0743
 4552TIP3    H135215   3.540   6.248   1.031  1.0092 -0.9887  2.6571
 4552TIP3    H235216   3.636   6.359   1.067  0.7412  0.9200 -1.8843
 4553TIP3   OH235217   5.131   3.251   7.116  0.6052 -0.3809  0.4138
 4553TIP3    H135218   5.221   3.261   7.087  0.4569  0.7428  0.2782
 4553TIP3    H235219   5.138   3.218   7.205  1.1062 -1.6404 -0.0661
 4554TIP3   OH235220   5.084   6.205   1.624 -0.0426 -0.4045 -0.1573
 4554TIP3    H135221   5.064   6.254   1.704  1.4919 -0.5704  0.3590
 4554TIP3    H235222   5.000   6.170   1.596 -1.2123  2.3765 -0.4845
 4555TIP3   OH235223   4.844   2.655   8.239 -0.1148 -0.1429 -0.5626
 4555TIP3    H135224   4.838   2.571   8.193 -1.0009  0.8558 -2.3836
 4555TIP3    H235225   4.842   2.632   8.332 -0.5931 -2.1073 -1.0170
 4556TIP3   OH235226   2.849   1.569   0.622 -0.1875  0.2488  0.0699
 4556TIP3    H135227   2.892   1.632   0.680 -0.7039  0.9070 -0.2435
 4556TIP3    H235228   2.859   1.606   0.534 -1.1609  0.3051 -0.0366
 4557TIP3   OH235229   6.340   3.507   1.213 -0.1132  0.2924 -0.5769
 4557TIP3    H135230   6.403   3.436   1.201  0.1862  0.2604  0.9258
 4557TIP3    H235231   6.394   3.582   1.238 -0.4847  0.8952 -1.5274
 4558TIP3   OH235232   5.931   6.215   1.414  0.6258  0.0464  0.1779
 4558TIP3    H135233   5.905   6.124   1.397 -0.3125  0.3565 -0.0760
 4558TIP3    H235234   6.022   6.219   1.384 -0.0608 -0.1838 -2.1398
 4559TIP3   OH235235   0.648   6.096   7.616  0.0780 -0.0984  0.0934
 4559TIP3    H135236   0.597   6.161   7.663  1.7823  1.9524 -0.7444
 4559TIP3    H235237   0.612   6.096   7.527 -1.1546 -1.7699  0.5319
 4560TIP3   OH235238   3.242   2.339   2.864  0.2465  0.0123  0.0851
 4560TIP3    H135239   3.299   2.414   2.850  1.1197 -0.9610 -2.2815
 4560TIP3    H235240   3.302   2.266   2.878 -0.5525 -0.4255  1.3702
 4561TIP3   OH235241   5.812   1.799   2.506  0.5424  0.5195 -0.0645
 4561TIP3    H135242   5.743   1.804   2.571  1.2874  3.6162  0.6661
 4561TIP3    H235243   5.828   1.706   2.494 -1.1289 -0.1834  2.5436
 4562TIP3   OH235244   2.254   6.180   0.417  0.5197  0.3161 -0.1946
 4562TIP3    H135245   2.161   6.164   0.432  0.4060  0.7244 -0.4644
 4562TIP3    H235246   2.282   6.233   0.492  0.3608  0.8276 -0.4909
 4563TIP3   OH235247   6.148   1.830   0.562  0.1751 -0.4513 -0.0121
 4563TIP3    H135248   6.143   1.921   0.591  1.4460 -0.5707  0.6419
 4563TIP3    H235249   6.182   1.782   0.637 -0.3057 -1.4472 -0.4097
 4564TIP3   OH235250   1.902   3.641   2.504 -0.4095 -0.1211  0.4485
 4564TIP3    H135251   1.815   3.603   2.516 -0.7155  0.2568 -0.4781
 4564TIP3    H235252   1.924   3.620   2.413  0.9481 -1.1814  0.9832
 4565TIP3   OH235253   3.938   0.458   0.126  0.1214 -0.1672  0.0730
 4565TIP3    H135254   3.865   0.400   0.150 -0.5371  0.6896  0.1943
 4565TIP3    H235255   4.012   0.426   0.178 -0.6478  0.1130  1.4037
 4566TIP3   OH235256   2.515   3.254   2.537 -0.3716 -0.0904 -0.1520
 4566TIP3    H135257   2.434   3.214   2.569 -0.6014  0.2984 -0.2428
 4566TIP3    H235258   2.486   3.327   2.482  0.0466  0.5253  0.4219
 4567TIP3   OH235259   3.986   6.624   8.064 -0.2274  0.0343 -0.4607
 4567TIP3    H135260   4.007   6.547   8.117  0.8818  1.6684  1.6210
 4567TIP3    H235261   3.892   6.616   8.048 -0.2488 -1.4535  0.1767
 4568TIP3   OH235262   1.224   3.691   0.538 -0.1735 -0.0366 -0.0892
 4568TIP3    H135263   1.165   3.760   0.509 -1.6800 -1.1693  0.1804
 4568TIP3    H235264   1.312   3.724   0.517 -0.9252  1.3514 -1.2108
 4569TIP3   OH235265   2.242   4.697   0.084 -0.0642  0.3288 -0.4586
 4569TIP3    H135266   2.239   4.743   0.000 -0.0903  0.2107 -0.5228
 4569TIP3    H235267   2.159   4.718   0.126  0.7684  2.0492  0.4274
 4570TIP3   OH235268   0.015   2.504   8.303 -0.3863 -0.0534 -0.2968
 4570TIP3    H135269   0.002   2.416   8.267  2.7839 -1.4203  1.5012
 4570TIP3    H235270  -0.021   2.562   8.235 -0.8854 -2.6291 -2.4440
 4571TIP3   OH235271   0.185   5.978   2.637  0.0811 -0.5810  0.2147
 4571TIP3    H135272   0.198   5.901   2.581 -0.1603 -0.7182  0.3438
 4571TIP3    H235273   0.092   5.976   2.659  0.1196 -0.3758  0.4006
 4572TIP3   OH235274   1.773   2.301   1.744  0.5768  0.1712 -0.1137
 4572TIP3    H135275   1.713   2.229   1.725 -0.3364  1.1208 -0.9925
 4572TIP3    H235276   1.860   2.262   1.737  0.0982 -1.0390  0.3230
 4573TIP3   OH235277   1.884   6.097   1.432  0.2889 -0.1501  0.0230
 4573TIP3    H135278   1.937   6.167   1.471 -0.1520  0.3751 -0.3115
 4573TIP3    H235279   1.806   6.094   1.487  0.3872 -0.5000  0.1422
 4574TIP3   OH235280   3.150   1.306   0.971 -0.2519  0.2675 -0.1807
 4574TIP3    H135281   3.123   1.247   1.042  1.3173 -3.7737 -2.5463
 4574TIP3    H235282   3.241   1.328   0.992  0.2207 -0.9492 -0.8153
 4575TIP3   OH235283   3.509   4.459   2.904  0.3320  0.1759 -0.0400
 4575TIP3    H135284   3.434   4.450   2.844 -1.4088  0.8888  1.8899
 4575TIP3    H235285   3.563   4.383   2.886 -1.8203 -1.4039 -0.2779
 4576TIP3   OH235286   4.384   6.583   0.712 -0.2366 -0.2208 -0.3055
 4576TIP3    H135287   4.362   6.493   0.689  0.2712 -0.8046  1.3676
 4576TIP3    H235288   4.480   6.585   0.714 -0.2405 -0.1814  1.5237
 4577TIP3   OH235289   2.564   3.712   7.628 -0.6034  0.2720  0.9210
 4577TIP3    H135290   2.556   3.629   7.675 -0.6407 -0.0058  0.4382
 4577TIP3    H235291   2.536   3.691   7.538  3.2354 -0.2619 -0.3375
 4578TIP3   OH235292   0.923   1.913   1.302 -0.3607  0.0530 -0.1423
 4578TIP3    H135293   0.874   1.858   1.241  0.4382 -1.0256  0.1616
 4578TIP3    H235294   0.925   1.863   1.384  2.9619 -0.9850 -0.6818
 4579TIP3   OH235295   5.168   4.404   0.026  0.6944  0.4634 -0.2420
 4579TIP3    H135296   5.216   4.486   0.015  1.3072  0.2761  0.9038
 4579TIP3    H235297   5.234   4.340   0.054  0.0129 -0.1190  0.0921
 4580TIP3   OH235298   3.316   5.115   0.419  0.0360  0.7891  0.3177
 4580TIP3    H135299   3.305   5.066   0.500  1.6830 -0.1457  0.0265
 4580TIP3    H235300   3.237   5.170   0.413 -1.0412 -0.5291  1.5479
 4581TIP3   OH235301   6.190   4.524   7.055 -0.7955  0.1471 -0.4645
 4581TIP3    H135302   6.198   4.618   7.070 -0.4534  0.0579 -0.0728
 4581TIP3    H235303   6.111   4.515   7.002  0.7671  0.9002 -3.0462
 4582TIP3   OH235304   0.544   0.969   2.381  0.0776 -0.3814 -0.0718
 4582TIP3    H135305   0.542   0.874   2.389 -0.5514 -0.4689 -1.0867
 4582TIP3    H235306   0.637   0.991   2.376  0.2757 -0.8107  1.4260
 4583TIP3   OH235307   0.213   3.056   3.047 -0.1692 -0.8330 -0.0872
 4583TIP3    H135308   0.252   3.004   2.977 -0.7009  0.1392 -1.1252
 4583TIP3    H235309   0.187   3.138   3.005  0.8154  0.3744  1.5479
 4584TIP3   OH235310   4.459   4.416   0.384 -0.0292 -0.2251 -0.3638
 4584TIP3    H135311   4.398   4.347   0.408  0.2463 -0.5347 -0.5450
 4584TIP3    H235312   4.470   4.406   0.289 -1.4264  1.2423 -0.7232
 4585TIP3   OH235313   3.764   3.557   1.413  0.3000 -0.4173  0.2328
 4585TIP3    H135314   3.717   3.561   1.330  0.3684  0.1082  0.2178
 4585TIP3    H235315   3.706   3.507   1.471 -0.1313 -0.0564  0.1168
 4586TIP3   OH235316   4.199   2.807   7.586  0.2631  0.0153 -0.6999
 4586TIP3    H135317   4.240   2.811   7.499  0.8312  0.7583 -0.4112
 4586TIP3    H235318   4.112   2.844   7.573  0.4316  0.3460 -0.9150
 4587TIP3   OH235319   2.470   0.986   0.394 -0.1903 -0.3802  0.1113
 4587TIP3    H135320   2.532   1.053   0.423 -0.3646 -0.3157  0.3491
 4587TIP3    H235321   2.522   0.924   0.343 -0.0955  0.1342 -0.4206
 4588TIP3   OH235322   2.363   5.122   8.695  0.1351 -0.6394 -0.9812
 4588TIP3    H135323   2.403   5.205   8.670 -2.8242  0.6661 -1.7680
 4588TIP3    H235324   2.312   5.096   8.619 -0.4675 -2.2402 -0.0685
 4589TIP3   OH235325   2.424   3.598   0.310  0.6023 -0.1936  0.2211
 4589TIP3    H135326   2.467   3.516   0.289 -0.7739 -0.6114 -1.1522
 4589TIP3    H235327   2.493   3.664   0.302  1.6444 -1.1646  1.0210
 4590TIP3   OH235328   3.599   6.585   1.564 -0.2738  0.6527  0.0856
 4590TIP3    H135329   3.563   6.504   1.529 -0.6243  0.6765  0.3869
 4590TIP3    H235330   3.694   6.571   1.562 -0.3217  0.3403 -0.1119
 4591TIP3   OH235331   6.240   2.317   1.964 -0.6225  0.2892  0.0995
 4591TIP3    H135332   6.297   2.240   1.966  2.0181  2.0494 -1.2364
 4591TIP3    H235333   6.224   2.337   2.057  3.5388  1.3696  0.7983
 4592TIP3   OH235334   3.677   1.864   2.343 -0.0152 -0.0631  0.5043
 4592TIP3    H135335   3.753   1.812   2.314 -1.0489 -0.8613 -0.8987
 4592TIP3    H235336   3.635   1.891   2.262 -1.5788 -0.1356  1.2639
 4593TIP3   OH235337   0.266   2.159   1.546  0.1315  0.4995  0.1133
 4593TIP3    H135338   0.344   2.148   1.491 -0.5824  0.3988 -0.9017
 4593TIP3    H235339   0.252   2.073   1.586 -2.0111 -0.8649 -3.2007
 4594TIP3   OH235340   4.244   0.864   8.307  0.1797  0.3736 -0.1568
 4594TIP3    H135341   4.256   0.786   8.361  0.4017  0.5974  0.1238
 4594TIP3    H235342   4.319   0.864   8.247 -1.7930 -1.7657 -2.9011
 4595TIP3   OH235343   2.943   2.945   1.913  0.1773 -0.8286 -0.5869
 4595TIP3    H135344   2.901   2.927   1.997  0.1686 -1.2547 -0.6830
 4595TIP3    H235345   2.871   2.973   1.856 -0.1684 -2.5750 -1.0572
 4596TIP3   OH235346   3.316   4.393   0.429  0.2308  0.4739  0.0375
 4596TIP3    H135347   3.294   4.418   0.339  0.2241  0.1994 -0.0399
 4596TIP3    H235348   3.411   4.402   0.434  0.2974 -0.0617 -0.1750
 4597TIP3   OH235349   2.267   4.327   8.467 -0.6972 -0.0880  0.0861
 4597TIP3    H135350   2.293   4.237   8.446 -1.1998 -0.1030 -0.4837
 4597TIP3    H235351   2.277   4.332   8.562  1.2183 -0.1467 -0.0590
 4598TIP3   OH235352   6.282   3.678   8.183  0.1945 -0.6732 -0.8022
 4598TIP3    H135353   6.299   3.672   8.089  1.7298 -3.6722 -0.4446
 4598TIP3    H235354   6.250   3.591   8.207 -0.4155  0.1108  1.4357
 4599TIP3   OH235355   4.796   4.734   1.515 -0.1954  0.2422  0.1617
 4599TIP3    H135356   4.879   4.712   1.471  0.3912 -0.1016  1.3976
 4599TIP3    H235357   4.731   4.731   1.445  0.5120 -1.4605 -0.4891
 4600TIP3   OH235358   4.107   2.838   8.254  0.0856  0.2314 -0.3632
 4600TIP3    H135359   4.037   2.879   8.304  0.2926  1.8632 -1.2960
 4600TIP3    H235360   4.138   2.766   8.308  0.1849  1.7788  1.7908
 4601TIP3   OH235361   4.849   6.514   1.419  0.5531  0.6177  0.8427
 4601TIP3    H135362   4.809   6.439   1.375 -0.4890  0.7286  1.5656
 4601TIP3    H235363   4.843   6.585   1.355  0.0292  0.5033  0.7545
 4602TIP3   OH235364   0.348   5.231   1.759  0.2846 -0.3085  0.5762
 4602TIP3    H135365   0.420   5.189   1.713  0.3245  1.1622 -0.7965
 4602TIP3    H235366   0.275   5.226   1.697 -0.1238  0.2944  1.0031
 4603TIP3   OH235367   2.396   5.298   0.535  0.4176  0.0626 -0.2670
 4603TIP3    H135368   2.370   5.222   0.587  0.5681  1.4305  1.9661
 4603TIP3    H235369   2.476   5.330   0.577 -0.2410  2.0618 -0.3991
 4604TIP3   OH235370   1.556   0.224   1.289 -0.1293  0.0566  0.0282
 4604TIP3    H135371   1.539   0.172   1.211  2.1687  0.2094 -0.6497
 4604TIP3    H235372   1.567   0.160   1.359 -1.5655 -0.1122  0.1224
 4605TIP3   OH235373   2.688   5.663   0.417  0.3228 -0.5240 -0.0600
 4605TIP3    H135374   2.600   5.701   0.418  0.7432  0.4839 -0.1549
 4605TIP3    H235375   2.743   5.731   0.379  1.1526 -1.1383  0.0117
 4606TIP3   OH235376   6.756   1.874   2.369 -0.3329  0.2428 -0.2389
 4606TIP3    H135377   6.688   1.877   2.436 -1.2717  0.5199 -1.1739
 4606TIP3    H235378   6.726   1.809   2.306  0.6580 -0.1980 -0.2721
 4607TIP3   OH235379   3.238   1.050   1.535  0.0699 -0.3564  0.2541
 4607TIP3    H135380   3.224   1.028   1.627  0.3647  1.7089  0.8427
 4607TIP3    H235381   3.192   0.982   1.487 -2.0018 -0.2783  1.9678
 4608TIP3   OH235382   1.744   4.612   1.343  0.5690 -0.0630 -0.0391
 4608TIP3    H135383   1.792   4.686   1.381  1.5438 -0.5070 -0.3886
 4608TIP3    H235384   1.656   4.646   1.330  1.3185  1.4830 -1.4456
 4609TIP3   OH235385   1.239   2.181   1.036  0.5178 -0.1414  0.4490
 4609TIP3    H135386   1.158   2.161   1.082 -0.0748  2.5321  0.7357
 4609TIP3    H235387   1.212   2.203   0.947  1.1070 -0.6076  0.1445
 4610TIP3   OH235388   3.774   4.636   2.735  0.3538  0.2683 -0.2714
 4610TIP3    H135389   3.803   4.545   2.737  1.0450  0.2848 -3.8655
 4610TIP3    H235390   3.845   4.683   2.692 -0.9246  2.1001 -0.4935
 4611TIP3   OH235391   6.365   0.196   3.380 -0.6011  0.4551 -0.1061
 4611TIP3    H135392   6.447   0.244   3.370  0.1250 -0.9551 -1.3760
 4611TIP3    H235393   6.309   0.229   3.309  0.1358 -0.9574 -1.3997
 4612TIP3   OH235394   1.067   4.324   1.255 -0.0307 -0.6046 -0.3080
 4612TIP3    H135395   1.087   4.387   1.324  1.3636 -1.0998 -0.2445
 4612TIP3    H235396   1.146   4.319   1.202 -0.4753 -1.5413 -0.9247
 4613TIP3   OH235397   5.991   1.469   0.960 -0.0362 -0.4770 -0.0526
 4613TIP3    H135398   6.040   1.505   0.886 -0.5560  0.9641  0.2838
 4613TIP3    H235399   6.053   1.409   1.002  0.8458 -0.0162 -0.6629
 4614TIP3   OH235400   3.362   3.313   0.507  0.4118  0.5467 -0.2374
 4614TIP3    H135401   3.356   3.226   0.469  2.6005  0.4075 -0.4205
 4614TIP3    H235402   3.364   3.298   0.602 -1.3402  0.6115 -0.1536
 4615TIP3   OH235403   3.230   6.239   8.460 -0.0169 -0.1415 -0.6964
 4615TIP3    H135404   3.158   6.176   8.452 -1.9667  1.8855 -0.0789
 4615TIP3    H235405   3.243   6.272   8.372 -0.5212  0.1609 -0.6640
 4616TIP3   OH235406   3.020   6.437   0.801 -0.3812 -0.2095 -0.2702
 4616TIP3    H135407   3.115   6.444   0.799 -0.2383 -1.4980 -2.8624
 4616TIP3    H235408   2.999   6.410   0.891  1.8037 -0.9958  0.0476
 4617TIP3   OH235409   1.012   4.601   0.249 -0.0476  0.1415  0.3002
 4617TIP3    H135410   0.986   4.510   0.263 -0.2791  0.1514 -0.0534
 4617TIP3    H235411   1.074   4.619   0.320  0.8684 -0.6324 -0.2823
 4618TIP3   OH235412   3.907   5.314   7.487 -0.0906 -0.6055 -0.6444
 4618TIP3    H135413   3.829   5.288   7.439 -0.5387 -0.5089  0.0193
 4618TIP3    H235414   3.921   5.406   7.462 -2.1867  0.5041  1.7548
 4619TIP3   OH235415   1.809   6.643   2.994  0.0528 -0.4607  0.0843
 4619TIP3    H135416   1.773   6.673   2.910  2.8068  0.2129 -0.9781
 4619TIP3    H235417   1.755   6.686   3.060 -0.5697  1.1205 -1.3777
 4620TIP3   OH235418   6.065   5.669   0.642  0.0408  0.1996 -0.2405
 4620TIP3    H135419   6.134   5.652   0.706 -2.0577  0.1730  2.1812
 4620TIP3    H235420   6.086   5.754   0.604  1.8969 -0.2657 -0.3414
 4621TIP3   OH235421   2.106   2.543   7.617 -0.2714 -0.5114 -0.2968
 4621TIP3    H135422   2.103   2.622   7.671  0.7461 -1.0955  0.6384
 4621TIP3    H235423   2.093   2.575   7.528  1.4999  0.8948 -0.0974
 4622TIP3   OH235424   6.145   2.935   8.376 -1.2360  0.3704  0.5927
 4622TIP3    H135425   6.158   3.029   8.383 -1.8131  0.4467  0.6943
 4622TIP3    H235426   6.170   2.913   8.287 -0.7654  0.5619  0.6749
 4623TIP3   OH235427   3.723   1.158   7.695  0.2632 -0.2520 -0.2981
 4623TIP3    H135428   3.647   1.123   7.741  0.8671 -1.4113 -0.1336
 4623TIP3    H235429   3.745   1.089   7.632  0.6208  0.4784 -0.9880
 4624TIP3   OH235430   3.547   4.772   1.461 -0.0583 -0.4382  0.0761
 4624TIP3    H135431   3.579   4.726   1.538  0.6798 -1.3553 -0.7630
 4624TIP3    H235432   3.452   4.779   1.474  0.1086 -0.2028  1.2476
 4625TIP3   OH235433   6.261   3.460   0.947 -0.3152  0.2653  0.0866
 4625TIP3    H135434   6.300   3.497   1.026 -1.3410  1.7621 -0.0701
 4625TIP3    H235435   6.312   3.381   0.929  1.1238  0.9232  1.1698
 4626TIP3   OH235436   3.657   6.178   7.955 -0.4244 -0.2104 -0.1023
 4626TIP3    H135437   3.575   6.226   7.949 -1.0435 -1.3387 -0.8701
 4626TIP3    H235438   3.670   6.164   8.049 -1.1181 -0.0434  0.0185
 4627TIP3   OH235439   5.515   2.489   3.137  1.0895 -0.5503  0.2099
 4627TIP3    H135440   5.499   2.468   3.045 -2.7182 -0.7435  0.7541
 4627TIP3    H235441   5.564   2.572   3.134  1.6597 -0.8948 -1.9308
 4628TIP3   OH235442   5.066   3.931   3.181  0.2074  0.1851 -0.2695
 4628TIP3    H135443   5.079   3.836   3.189 -0.8888  0.0176 -0.3998
 4628TIP3    H235444   5.026   3.956   3.264 -0.0989  0.4229 -0.4865
 4629TIP3   OH235445   6.478   6.454   1.085  0.9163  0.1462 -0.2934
 4629TIP3    H135446   6.527   6.378   1.053  1.7714 -0.2986  1.9016
 4629TIP3    H235447   6.533   6.491   1.154 -1.7839 -0.5079  2.4606
 4630TIP3   OH235448   6.417   3.778   1.252 -0.0864 -0.0048  0.2056
 4630TIP3    H135449   6.377   3.843   1.194 -1.6074  0.2644  1.4728
 4630TIP3    H235450   6.470   3.830   1.313 -0.6477 -0.0115  0.7091
 4631TIP3   OH235451   6.322   4.152   7.388  0.2069 -0.3904 -0.0121
 4631TIP3    H135452   6.344   4.230   7.439 -0.7814  0.1446 -0.3702
 4631TIP3    H235453   6.390   4.088   7.410  0.1149  0.0056  1.5495
 4632TIP3   OH235454   5.169   6.762   2.247  0.4478 -0.2153 -0.0402
 4632TIP3    H135455   5.180   6.723   2.160 -1.3987 -0.6015 -0.1339
 4632TIP3    H235456   5.205   6.696   2.307  1.3462 -0.1270 -0.4739
 4633TIP3   OH235457   6.722   6.329   1.128 -0.0285 -0.0536  0.3054
 4633TIP3    H135458   6.817   6.341   1.121 -0.1195  0.4919 -0.1065
 4633TIP3    H235459   6.710   6.276   1.207  0.5400  1.0895  1.1851
 4634TIP3   OH235460   0.492   5.428   2.816 -0.6741  0.1476 -0.5589
 4634TIP3    H135461   0.526   5.517   2.814  0.8471 -0.3595  0.8715
 4634TIP3    H235462   0.562   5.376   2.854 -0.9688 -1.9533 -2.6650
 4635TIP3   OH235463   1.591   1.834   0.971 -0.0768  0.3024  0.0629
 4635TIP3    H135464   1.592   1.738   0.964 -0.7489  0.2756  0.2733
 4635TIP3    H235465   1.565   1.851   1.061  0.7749  0.6880  0.2399
 4636TIP3   OH235466   3.971   2.547   1.459  0.3759  0.5590 -0.3815
 4636TIP3    H135467   3.941   2.500   1.536 -1.3112  1.4721 -0.4503
 4636TIP3    H235468   3.920   2.511   1.387 -0.6524  2.1480 -0.4964
 4637TIP3   OH235469   2.788   0.534   8.044 -0.0883 -0.2346 -0.6979
 4637TIP3    H135470   2.720   0.478   8.081  0.7155 -1.0051 -0.3382
 4637TIP3    H235471   2.823   0.484   7.970 -1.0282  0.8784 -1.9469
 4638TIP3   OH235472   1.830   2.744   8.696  0.1361 -0.3664 -0.4680
 4638TIP3    H135473   1.788   2.797   8.763  1.1389 -0.1154 -0.0105
 4638TIP3    H235474   1.848   2.660   8.739 -0.7326 -0.8162 -0.9497
 4639TIP3   OH235475   2.643   5.446   0.569  0.2367  0.4945 -0.4709
 4639TIP3    H135476   2.660   5.472   0.659 -1.7367  1.7333 -0.3954
 4639TIP3    H235477   2.652   5.527   0.518 -0.5475  0.2187 -1.0785
 4640TIP3   OH235478   2.587   5.088   0.250  0.5303  0.2222 -0.2436
 4640TIP3    H135479   2.519   5.154   0.259  1.6672  1.5087 -0.8500
 4640TIP3    H235480   2.555   5.030   0.181 -1.2325 -0.9034  1.3838
 4641TIP3   OH235481   5.656   4.184   2.254  0.2011  0.3135 -0.3347
 4641TIP3    H135482   5.680   4.093   2.271  0.9473  0.2581 -1.6470
 4641TIP3    H235483   5.666   4.195   2.160  0.0813  1.7546 -0.1973
 4642TIP3   OH235484   1.101   5.334   1.049 -0.1206 -0.4201 -0.4080
 4642TIP3    H135485   1.137   5.312   0.963  0.2790 -0.6614 -0.1832
 4642TIP3    H235486   1.129   5.262   1.105 -0.0642 -0.0767  0.0038
 4643TIP3   OH235487   3.865   5.520   8.350 -0.9638  0.2332  0.8155
 4643TIP3    H135488   3.882   5.430   8.377  1.3778  0.7660  1.3993
 4643TIP3    H235489   3.927   5.536   8.279 -1.9007  1.1475  0.1723
 4644TIP3   OH235490   0.190   6.782   2.040  0.0435  0.3334  0.0237
 4644TIP3    H135491   0.227   6.807   1.955 -0.9048 -1.2625 -0.8940
 4644TIP3    H235492   0.096   6.800   2.031 -0.3518 -1.5299  0.0510
 4645TIP3   OH235493   1.145   6.204   8.067  0.2592 -0.3646  0.1031
 4645TIP3    H135494   1.139   6.245   7.980 -3.1933 -0.4889  0.1630
 4645TIP3    H235495   1.150   6.110   8.048 -1.6595 -0.4699 -0.0063
 4646TIP3   OH235496   1.400   3.711   0.144 -0.5406 -0.8004 -0.0664
 4646TIP3    H135497   1.465   3.640   0.146  0.1396 -0.1947 -0.1779
 4646TIP3    H235498   1.324   3.675   0.190 -0.5454 -1.9212 -0.8993
 4647TIP3   OH235499   4.692   4.020   3.126  0.0352  0.3981  0.5090
 4647TIP3    H135500   4.694   4.115   3.133 -2.0791  1.0196 -3.8490
 4647TIP3    H235501   4.770   3.998   3.075 -1.2560  0.4188 -1.6326
 4648TIP3   OH235502   4.942   3.166   0.264  0.1431 -0.7875 -0.1848
 4648TIP3    H135503   5.006   3.098   0.286  1.4378  0.2723 -0.5467
 4648TIP3    H235504   4.935   3.162   0.169  1.4702  0.6131 -0.3796
 4649TIP3   OH235505   0.602   6.443   8.096 -0.1107 -0.0970  0.6844
 4649TIP3    H135506   0.647   6.526   8.080 -2.5706  0.9949 -1.2407
 4649TIP3    H235507   0.660   6.376   8.059  0.5201  1.1054 -0.5528
 4650TIP3   OH235508   5.515   4.919   0.294  0.0971 -0.3113  0.3539
 4650TIP3    H135509   5.569   4.923   0.215 -1.8380  2.1058 -1.0078
 4650TIP3    H235510   5.535   5.000   0.341 -3.0496  1.3752 -0.8788
 4651TIP3   OH235511   0.110   2.641   8.511 -0.0941  0.2065 -0.1705
 4651TIP3    H135512   0.081   2.614   8.424  1.0054  1.0651 -0.8443
 4651TIP3    H235513   0.204   2.622   8.511  0.0839  1.0361  0.4864
 4652TIP3   OH235514   0.464   2.383   2.240 -0.0705  0.4955  0.4697
 4652TIP3    H135515   0.396   2.345   2.296 -0.3143 -1.7573 -1.2515
 4652TIP3    H235516   0.545   2.339   2.265 -0.1848 -0.5574 -0.8930
 4653TIP3   OH235517   5.439   2.227   3.156  0.4180  0.1834 -0.1627
 4653TIP3    H135518   5.481   2.310   3.135 -0.9054  0.1457 -3.3987
 4653TIP3    H235519   5.355   2.251   3.194 -1.3471  0.5607 -3.9197
 4654TIP3   OH235520   1.814   0.013   7.937 -0.4477 -0.7960  0.4258
 4654TIP3    H135521   1.806   0.051   8.025  0.9428 -0.4929  0.4332
 4654TIP3    H235522   1.738  -0.046   7.931  0.1463 -1.8791  2.3726
 4655TIP3   OH235523   2.447   3.428   8.198  0.9228 -0.2355 -0.4341
 4655TIP3    H135524   2.535   3.411   8.166  1.2876  0.6044  0.0935
 4655TIP3    H235525   2.408   3.486   8.132  0.9258 -0.2341 -0.4347
 4656TIP3   OH235526   3.592   5.118   0.889 -0.1465 -0.8706 -0.0969
 4656TIP3    H135527   3.534   5.073   0.828  0.3074 -1.0494 -0.4051
 4656TIP3    H235528   3.663   5.152   0.834 -0.6211  0.4696  0.0859
 4657TIP3   OH235529   5.461   2.869   8.488 -0.2387  0.4524  0.6325
 4657TIP3    H135530   5.408   2.944   8.517 -1.6521 -0.7961  1.4367
 4657TIP3    H235531   5.500   2.898   8.405 -1.3398  1.8183  0.5482
 4658TIP3   OH235532   5.950   5.890   1.826  0.5100 -0.6658  1.1191
 4658TIP3    H135533   5.957   5.862   1.735  0.9321 -2.3199  1.6234
 4658TIP3    H235534   6.040   5.891   1.859  0.4608  0.8767  1.2760
 4659TIP3   OH235535   5.576   6.228   1.769  0.3937  0.1998 -0.5317
 4659TIP3    H135536   5.586   6.246   1.675  0.9124 -1.2079 -0.7751
 4659TIP3    H235537   5.492   6.182   1.775 -0.1281  1.1834 -0.1544
 4660TIP3   OH235538   4.545   3.678   1.523  0.0844 -0.1083  0.7017
 4660TIP3    H135539   4.540   3.583   1.509  0.7553 -0.3301  1.7838
 4660TIP3    H235540   4.471   3.697   1.580 -0.5497  0.1764 -0.2000
 4661TIP3   OH235541   3.997   6.230   0.362  0.1681 -0.1143 -0.1579
 4661TIP3    H135542   4.071   6.286   0.337  0.1977 -0.0183  0.1439
 4661TIP3    H235543   3.942   6.286   0.416 -1.2277  0.4820 -2.0986
 4662TIP3   OH235544   3.609   0.596   1.817 -0.0059  0.6810 -0.0193
 4662TIP3    H135545   3.621   0.665   1.881  1.6751 -0.6196  1.1413
 4662TIP3    H235546   3.565   0.526   1.865  0.6586 -0.0421 -0.4364
 4663TIP3   OH235547   0.087   1.327   7.358  0.1094 -0.3760  0.5685
 4663TIP3    H135548   0.161   1.268   7.373  0.7337  0.5721  1.2973
 4663TIP3    H235549   0.070   1.321   7.264  1.5061 -0.1406  0.2846
 4664TIP3   OH235550   3.247   1.430   2.933 -0.3999  0.7565 -0.0731
 4664TIP3    H135551   3.161   1.470   2.946  0.2004  2.5017 -1.1264
 4664TIP3    H235552   3.235   1.373   2.857 -0.8561  0.2137  0.3969
 4665TIP3   OH235553   2.257   0.290   2.386  0.4374 -0.1637  0.0858
 4665TIP3    H135554   2.188   0.355   2.388  0.9953  0.5599 -1.7470
 4665TIP3    H235555   2.335   0.338   2.357  1.5021 -1.1246  1.2465
 4666TIP3   OH235556   1.115   2.815   2.891 -0.3171  0.6572  0.6236
 4666TIP3    H135557   1.146   2.769   2.813 -1.0227  1.2974 -0.0514
 4666TIP3    H235558   1.029   2.776   2.910 -0.3197  0.7730  0.8554
 4667TIP3   OH235559   6.096   1.315   2.242  0.1287  0.3044 -0.1941
 4667TIP3    H135560   6.141   1.347   2.320  0.5237 -1.5231  0.3889
 4667TIP3    H235561   6.060   1.393   2.201 -1.9262  1.1870  2.9474
 4668TIP3   OH235562   3.167   6.495   7.535  0.0489  0.0337  0.2024
 4668TIP3    H135563   3.098   6.561   7.527  0.5880  0.5821 -0.1085
 4668TIP3    H235564   3.162   6.445   7.453 -1.6957 -1.6811  1.3010
 4669TIP3   OH235565   0.053   3.452   1.820 -0.1835  0.0053 -0.2809
 4669TIP3    H135566  -0.033   3.411   1.826 -1.0046  1.6509 -0.2952
 4669TIP3    H235567   0.044   3.517   1.751  1.1277  0.0800 -0.3965
 4670TIP3   OH235568   3.397   6.161   0.308  0.1356 -0.2261 -0.2721
 4670TIP3    H135569   3.445   6.182   0.389  0.0926  1.4702 -0.6474
 4670TIP3    H235570   3.451   6.095   0.265  0.6190 -0.4926  0.7009
 4671TIP3   OH235571   6.018   6.155   7.770  0.1898 -0.2003  0.2659
 4671TIP3    H135572   6.058   6.115   7.693 -1.1566 -0.8142 -0.1334
 4671TIP3    H235573   5.936   6.193   7.739 -0.1235  0.0043  1.2911
 4672TIP3   OH235574   3.473   1.046   0.543  0.7405  0.2093 -0.2209
 4672TIP3    H135575   3.493   1.122   0.489 -1.1343 -0.4261 -1.9577
 4672TIP3    H235576   3.538   1.048   0.613  2.7518  1.5887 -1.9960
 4673TIP3   OH235577   5.262   4.467   0.348  0.1262  0.0849  0.3162
 4673TIP3    H135578   5.238   4.512   0.267  0.0526 -1.9907 -0.8853
 4673TIP3    H235579   5.185   4.477   0.404  0.9840  3.4740  1.1347
 4674TIP3   OH235580   6.157   1.372   0.584  0.1518 -0.2112 -0.6436
 4674TIP3    H135581   6.079   1.340   0.538  0.8280 -1.9472 -0.6679
 4674TIP3    H235582   6.207   1.293   0.604  2.3362  0.8921 -1.3635
 4675TIP3   OH235583   4.294   3.049   0.976 -0.2797 -0.1919 -0.1313
 4675TIP3    H135584   4.223   3.007   0.927  0.7175 -0.8055 -1.1033
 4675TIP3    H235585   4.274   3.030   1.068 -0.2135 -2.2924 -0.4983
 4676TIP3   OH235586   1.462   2.706   0.105  0.1422 -0.3301 -0.2369
 4676TIP3    H135587   1.402   2.678   0.175  1.1041 -0.3687  0.5846
 4676TIP3    H235588   1.503   2.785   0.139  0.6382 -0.3611 -0.7577
 4677TIP3   OH235589   5.599   1.537   1.566 -0.5763 -0.2864  0.0545
 4677TIP3    H135590   5.526   1.475   1.562 -1.1187  0.2443  1.3193
 4677TIP3    H235591   5.641   1.519   1.650 -0.3866  0.6628  0.1691
 4678TIP3   OH235592   2.804   0.832   2.300  0.7666  0.1912 -0.3935
 4678TIP3    H135593   2.869   0.896   2.270  1.0018  0.1104 -0.0553
 4678TIP3    H235594   2.766   0.871   2.378  0.3818  0.2531 -0.6094
 4679TIP3   OH235595   1.996   2.947   8.566 -0.1446  0.4156 -0.1115
 4679TIP3    H135596   1.939   2.879   8.601  1.4071 -0.6054  0.5198
 4679TIP3    H235597   1.965   3.028   8.607 -0.9465 -0.1527  0.4190
 4680TIP3   OH235598   1.533   6.406   2.579 -0.1595 -0.6694 -0.5737
 4680TIP3    H135599   1.509   6.399   2.672  1.4614 -1.1170 -0.1629
 4680TIP3    H235600   1.517   6.498   2.557 -1.0934 -0.6846 -0.0161
 4681TIP3   OH235601   0.529   0.084   1.334  0.1919 -0.4937 -0.3540
 4681TIP3    H135602   0.564   0.172   1.330 -0.4456 -0.2875 -2.2946
 4681TIP3    H235603   0.604   0.027   1.319  0.3872 -0.2426 -0.3354
 4682TIP3   OH235604   4.560   6.322   8.459 -0.0156 -0.0995  0.6781
 4682TIP3    H135605   4.627   6.294   8.397 -0.9026  0.2490 -0.4684
 4682TIP3    H235606   4.603   6.319   8.544  1.1068 -0.9746  0.0968
 4683TIP3   OH235607   1.013   1.884   2.222 -0.3459 -0.7506 -0.2752
 4683TIP3    H135608   1.099   1.846   2.205  0.1928  0.2396  0.1523
 4683TIP3    H235609   1.011   1.897   2.317 -0.6009  0.0522 -0.3819
 4684TIP3   OH235610   3.638   3.968   0.788  0.2733  0.3395 -0.1894
 4684TIP3    H135611   3.626   4.057   0.822 -0.7814  0.2247 -0.2370
 4684TIP3    H235612   3.698   3.979   0.714 -1.3050  1.3085 -1.4013
 4685TIP3   OH235613   5.737   0.035   1.012  0.3695 -0.2808 -0.5705
 4685TIP3    H135614   5.647   0.004   1.020  0.7840 -1.3478  0.2905
 4685TIP3    H235615   5.788  -0.045   0.996  1.4797 -0.1075  1.6470
 4686TIP3   OH235616   5.288   2.654   0.244 -0.0984 -0.0455  0.1831
 4686TIP3    H135617   5.345   2.582   0.273  1.2129  1.5317  1.6902
 4686TIP3    H235618   5.349   2.719   0.207 -1.0574  1.1009  0.5740
 4687TIP3   OH235619   6.568   6.276   1.699 -0.0704  0.5047  0.0837
 4687TIP3    H135620   6.563   6.184   1.727  0.1623  0.3740 -0.2963
 4687TIP3    H235621   6.503   6.282   1.629  0.2463  0.5116 -0.2105
 4688TIP3   OH235622   0.555   1.671   8.520 -0.8087 -0.1249  0.3072
 4688TIP3    H135623   0.558   1.736   8.590  0.9248 -0.8918  0.9891
 4688TIP3    H235624   0.633   1.688   8.467 -2.1416  0.5336 -1.5848
 4689TIP3   OH235625   0.959   5.619   0.496 -0.0396 -0.4815  0.0256
 4689TIP3    H135626   0.901   5.577   0.433  0.8300  0.7677 -1.7168
 4689TIP3    H235627   1.044   5.620   0.453  0.8446 -0.5124  1.6964
 4690TIP3   OH235628   0.388   3.977   0.367 -0.8175  0.8368  0.1992
 4690TIP3    H135629   0.430   3.926   0.298  1.1326 -0.2329  2.0427
 4690TIP3    H235630   0.320   4.027   0.322 -2.0595 -2.4194 -1.9258
 4691TIP3   OH235631   1.844   0.599   2.628  0.0690  0.1647 -0.3607
 4691TIP3    H135632   1.921   0.654   2.620  0.9824 -1.1827 -1.5348
 4691TIP3    H235633   1.821   0.577   2.537 -1.2047 -0.1106  0.0048
 4692TIP3   OH235634   6.538   2.240   2.171 -0.4491  0.0387 -0.0030
 4692TIP3    H135635   6.620   2.191   2.173 -0.0973  0.6420  1.9213
 4692TIP3    H235636   6.483   2.191   2.110  1.7068  0.3201 -2.3709
 4693TIP3   OH235637   2.973   0.347   1.789  0.2626 -0.4650 -0.0457
 4693TIP3    H135638   2.948   0.372   1.878  3.7436  0.2054  0.8787
 4693TIP3    H235639   2.996   0.254   1.795 -0.8083 -0.7841 -0.6143
 4694TIP3   OH235640   2.338   6.626   1.983 -0.0957  0.4458 -0.4031
 4694TIP3    H135641   2.358   6.714   2.016 -1.1513 -0.1098  1.9397
 4694TIP3    H235642   2.337   6.636   1.888  1.0845  2.6633 -0.2656
 4695TIP3   OH235643   2.049   2.238   1.688  0.5973  0.2319  0.2713
 4695TIP3    H135644   2.137   2.209   1.714 -0.0483 -2.8442 -0.5762
 4695TIP3    H235645   2.037   2.201   1.600 -0.7907  2.3903 -0.5052
 4696TIP3   OH235646   6.300   5.143   2.272  0.9080 -0.1577  0.0292
 4696TIP3    H135647   6.314   5.057   2.232  2.5086 -0.3790  0.9896
 4696TIP3    H235648   6.226   5.129   2.331  0.2202 -0.4800 -0.8656
 4697TIP3   OH235649   1.109   5.414   0.065 -0.6975 -0.2784  0.1672
 4697TIP3    H135650   1.024   5.443   0.034 -0.9639  0.1978  1.3012
 4697TIP3    H235651   1.105   5.318   0.059 -1.3471 -0.2627  0.2943
 4698TIP3   OH235652   0.080   5.997   1.076  0.1973 -0.1324  0.0357
 4698TIP3    H135653   0.105   5.936   1.006 -0.9272 -1.2056  0.5226
 4698TIP3    H235654   0.140   6.071   1.066  1.1517 -1.0056 -1.0186
 4699TIP3   OH235655   0.915   0.890   8.465 -0.3415 -0.1022  0.7930
 4699TIP3    H135656   0.824   0.920   8.464  0.5970  3.1327 -0.7179
 4699TIP3    H235657   0.909   0.794   8.461 -3.6678  0.0428 -0.9887
 4700TIP3   OH235658   3.631   4.677   1.204  0.1517 -0.0378 -0.4033
 4700TIP3    H135659   3.582   4.714   1.277 -2.4067 -0.9126 -1.5659
 4700TIP3    H235660   3.655   4.752   1.151  1.8377  0.5877  1.1332
 4701TIP3   OH235661   5.257   5.789   1.668 -0.1005  0.3077 -0.0498
 4701TIP3    H135662   5.313   5.833   1.731  0.4653 -0.1621 -0.2119
 4701TIP3    H235663   5.208   5.725   1.720  0.1898  0.0857 -0.0485
 4702TIP3   OH235664   2.410   2.200   0.735 -0.3807  0.2792 -0.2608
 4702TIP3    H135665   2.496   2.178   0.770  0.1886  0.6569 -1.3544
 4702TIP3    H235666   2.395   2.291   0.762 -0.6281  0.0816  0.2781
 4703TIP3   OH235667   5.015   2.390   6.913 -0.6504 -0.0112  0.4510
 4703TIP3    H135668   5.070   2.468   6.909 -0.3764 -0.0386  2.5826
 4703TIP3    H235669   4.927   2.422   6.893 -0.2230  0.3924 -0.9348
 4704TIP3   OH235670   6.151   5.242   1.678  0.3734  0.0638 -0.3337
 4704TIP3    H135671   6.188   5.233   1.765 -0.5701  1.3158  0.2272
 4704TIP3    H235672   6.211   5.300   1.631 -0.9770  2.4536  0.7117
 4705TIP3   OH235673   1.793   1.109   2.698 -0.0727  0.0920  0.3250
 4705TIP3    H135674   1.714   1.058   2.679 -0.0087  0.1719 -0.1799
 4705TIP3    H235675   1.781   1.141   2.788 -1.1140  0.9979 -0.1184
 4706TIP3   OH235676   2.180   1.663   1.409  0.1235  0.1902  0.6952
 4706TIP3    H135677   2.203   1.575   1.380 -0.0425  0.1076  0.8074
 4706TIP3    H235678   2.161   1.711   1.328 -2.6667 -0.7005  0.7187
 4707TIP3   OH235679   2.427   4.550   1.409  0.0495  0.1169 -0.1230
 4707TIP3    H135680   2.337   4.531   1.382 -0.3868  1.7945  0.0320
 4707TIP3    H235681   2.477   4.473   1.382 -1.3378 -0.6212 -0.6903
 4708TIP3   OH235682   4.154   1.518   7.889  0.0657  0.4349  0.3281
 4708TIP3    H135683   4.151   1.608   7.923  1.7226  0.2207  1.1299
 4708TIP3    H235684   4.127   1.464   7.963  0.5597  0.1826  0.3305
 4709TIP3   OH235685   6.394   3.019   0.031  0.1704 -0.0339 -0.5602
 4709TIP3    H135686   6.383   2.961  -0.045 -0.7653  1.6762 -1.8009
 4709TIP3    H235687   6.306   3.026   0.068 -0.3372  2.6443 -2.0557
 4710TIP3   OH235688   6.578   5.462   2.249 -0.5104 -0.0456 -0.2083
 4710TIP3    H135689   6.667   5.433   2.267 -0.8578 -0.7988  0.3607
 4710TIP3    H235690   6.588   5.552   2.218  0.3374  0.4562  1.3904
 4711TIP3   OH235691   1.383   2.295   2.414 -0.2395  0.0226  0.0782
 4711TIP3    H135692   1.340   2.355   2.475  2.1996  0.2533  1.7037
 4711TIP3    H235693   1.385   2.343   2.331  0.0017  1.4641  0.8733
 4712TIP3   OH235694   1.555   0.718   1.419  0.2740 -0.7580  0.0883
 4712TIP3    H135695   1.555   0.630   1.381  0.1992 -0.6976 -0.0489
 4712TIP3    H235696   1.573   0.703   1.512 -0.6653 -0.9900  0.2362
 4713TIP3   OH235697   3.550   2.492   1.970  0.3214  0.2852 -0.1148
 4713TIP3    H135698   3.627   2.545   1.949  1.6154 -2.0059 -1.5698
 4713TIP3    H235699   3.586   2.406   1.991 -1.7792 -0.4483  0.6765
 4714TIP3   OH235700   6.243   1.997   0.285  0.3146  0.2879 -0.3057
 4714TIP3    H135701   6.261   2.083   0.322  1.8543 -0.0206 -0.2726
 4714TIP3    H235702   6.186   1.955   0.349  1.4947  0.4217  0.8870
 4715TIP3   OH235703   1.210   1.501   0.650 -0.3132  0.2142  0.4059
 4715TIP3    H135704   1.146   1.492   0.721 -4.1429  1.1730 -2.5750
 4715TIP3    H235705   1.171   1.454   0.577  2.3417  1.0931 -1.7232
 4716TIP3   OH235706   3.217   4.267   0.663  0.3184  0.2399  0.0281
 4716TIP3    H135707   3.199   4.334   0.730 -0.1420  0.2886 -0.1443
 4716TIP3    H235708   3.239   4.318   0.585  0.8655  0.1825  0.1384
 4717TIP3   OH235709   0.095   2.294   1.414  0.0205 -0.1093  0.7731
 4717TIP3    H135710   0.056   2.214   1.379  0.3028  0.9222 -2.1499
 4717TIP3    H235711   0.167   2.264   1.470  0.9022 -1.9423 -1.2130
 4718TIP3   OH235712   5.979   0.973   1.455 -0.3575  0.6117 -0.2525
 4718TIP3    H135713   5.985   0.971   1.359 -1.2834  1.5570 -0.3368
 4718TIP3    H235714   6.039   0.904   1.483 -1.3272 -0.8230 -1.5617
 4719TIP3   OH235715   4.143   3.137   8.542 -0.6542  0.8305  0.4649
 4719TIP3    H135716   4.234   3.166   8.537 -1.4182  4.0519  2.4349
 4719TIP3    H235717   4.092   3.213   8.515 -2.8417 -0.8759 -0.5614
 4720TIP3   OH235718   0.159   1.508   8.187 -0.9152  0.1367 -0.1423
 4720TIP3    H135719   0.248   1.474   8.202 -0.3080  2.5975  2.8149
 4720TIP3    H235720   0.143   1.492   8.094  2.0104 -1.7188 -0.4781
 4721TIP3   OH235721   5.828   3.268   0.947 -0.1553  0.8156  0.0230
 4721TIP3    H135722   5.863   3.357   0.944 -1.6224  1.4138  0.0729
 4721TIP3    H235723   5.819   3.242   0.856  0.5266  0.6060  0.0111
 4722TIP3   OH235724   4.620   4.004   8.349  0.0292 -0.2661  0.7270
 4722TIP3    H135725   4.653   3.927   8.395  0.3683 -1.0948 -0.8577
 4722TIP3    H235726   4.561   3.969   8.282 -0.2644  0.8992  0.3529
 4723TIP3   OH235727   5.372   5.000   2.156 -0.0612  0.0483 -0.3961
 4723TIP3    H135728   5.392   5.063   2.086 -0.7895  1.6510  0.7750
 4723TIP3    H235729   5.358   4.917   2.110 -0.0331  0.9399 -2.1019
 4724TIP3   OH235730   4.247   2.052   1.219 -0.3193  0.4531  0.3477
 4724TIP3    H135731   4.289   2.116   1.161 -1.5335 -1.7750 -3.2679
 4724TIP3    H235732   4.161   2.089   1.237  0.5839  1.8635  2.2108
 4725TIP3   OH235733   5.208   6.595   2.034  0.0977 -0.0564  0.0697
 4725TIP3    H135734   5.209   6.587   1.938 -2.5055 -0.1722 -0.0018
 4725TIP3    H235735   5.225   6.507   2.065  0.4975 -0.1067 -0.2762
 4726TIP3   OH235736   4.594   6.698   2.612 -0.7906 -0.4721 -0.8472
 4726TIP3    H135737   4.504   6.719   2.639 -0.1375  1.7299 -0.1791
 4726TIP3    H235738   4.585   6.620   2.557 -2.7641 -2.0757  1.5363
 4727TIP3   OH235739   3.121   0.103   1.781 -0.4526  0.5511 -0.1914
 4727TIP3    H135740   3.176   0.180   1.764 -1.3348  1.0391 -0.9337
 4727TIP3    H235741   3.127   0.051   1.700  0.4731 -0.3969  0.4541
 4728TIP3   OH235742   0.855   3.792   8.258  0.0251  0.1545  0.0650
 4728TIP3    H135743   0.801   3.723   8.219  2.1770 -0.7333 -1.5616
 4728TIP3    H235744   0.853   3.863   8.193 -0.5562  0.8255  0.8004
 4729TIP3   OH235745   2.366   2.441   1.487 -0.7716 -0.1788  0.0679
 4729TIP3    H135746   2.355   2.530   1.518  0.3021 -0.7533  2.3212
 4729TIP3    H235747   2.313   2.436   1.407 -2.0533  2.0045  0.7114
 4730TIP3   OH235748   4.056   0.364   7.459  0.4108 -0.2819  0.5814
 4730TIP3    H135749   4.053   0.406   7.373  5.2728  0.8647  0.6958
 4730TIP3    H235750   3.988   0.409   7.509  0.6902  2.5706 -1.3243
 4731TIP3   OH235751   0.984   3.317   2.895 -0.1203 -0.8118  0.1120
 4731TIP3    H135752   0.952   3.227   2.897 -0.4649 -0.8118 -2.4587
 4731TIP3    H235753   1.048   3.318   2.824 -1.5011  1.3621 -1.2145
 4732TIP3   OH235754   5.736   3.933   2.420 -0.4094 -0.1875 -0.3552
 4732TIP3    H135755   5.752   3.844   2.449  0.3413  0.5189  1.5068
 4732TIP3    H235756   5.821   3.965   2.391 -0.2023  0.6049  1.0376
 4733TIP3   OH235757   3.938   5.735   1.633  0.6483 -0.2730 -0.6690
 4733TIP3    H135758   3.922   5.665   1.695 -0.4578 -0.0149 -0.6474
 4733TIP3    H235759   3.902   5.813   1.674 -0.6709 -0.2081 -1.8738
 4734TIP3   OH235760   4.764   5.971   1.694  0.1161  0.1204 -0.3464
 4734TIP3    H135761   4.690   6.012   1.738 -1.1291 -2.2901 -0.0785
 4734TIP3    H235762   4.773   5.885   1.734  2.7128  0.0849 -0.7893
 4735TIP3   OH235763   3.871   4.930   0.725  0.1859 -0.3234  0.1229
 4735TIP3    H135764   3.927   4.887   0.789  0.7873  0.2357 -0.0102
 4735TIP3    H235765   3.793   4.876   0.720 -0.0972 -0.0861  1.7075
 4736TIP3   OH235766   3.084   6.269   3.258  0.2387  0.3701  0.4902
 4736TIP3    H135767   2.995   6.270   3.295  0.4923 -1.1140  1.2225
 4736TIP3    H235768   3.090   6.350   3.208 -2.7566 -0.9810 -2.4575
 4737TIP3   OH235769   6.737   1.519   8.438 -0.1013 -0.3287 -0.3119
 4737TIP3    H135770   6.762   1.427   8.447 -0.4718 -0.3482  0.6635
 4737TIP3    H235771   6.656   1.527   8.490 -0.0228  0.5639 -0.3097
 4738TIP3   OH235772   0.155   2.282   1.801 -0.0735 -0.1043 -0.3507
 4738TIP3    H135773   0.062   2.303   1.797  0.4544  2.4798 -0.8655
 4738TIP3    H235774   0.180   2.268   1.709  0.0448 -0.9376 -0.2016
 4739TIP3   OH235775   2.418   1.742   7.818  0.0251 -0.2399 -0.2236
 4739TIP3    H135776   2.423   1.714   7.910 -1.1866  1.2089  0.3303
 4739TIP3    H235777   2.509   1.755   7.792  0.4186 -1.1894  0.5890
 4740TIP3   OH235778   4.758   0.609   7.191  0.3509 -0.2702 -0.1500
 4740TIP3    H135779   4.800   0.567   7.115 -0.7868  0.1203 -1.0196
 4740TIP3    H235780   4.784   0.701   7.184  0.3375 -0.2548  0.0083
 4741TIP3   OH235781   1.432   5.888   7.608 -0.3256  0.1175 -0.3047
 4741TIP3    H135782   1.402   5.922   7.524 -0.1816  1.0800  0.0217
 4741TIP3    H235783   1.378   5.932   7.673 -0.2894 -0.4579  0.1219
 4742TIP3   OH235784   6.557   1.115   8.620 -0.0417  0.5575 -0.7909
 4742TIP3    H135785   6.536   1.029   8.583 -2.0725  1.5803 -2.2334
 4742TIP3    H235786   6.504   1.120   8.700 -0.1186  0.5793 -0.8442
 4743TIP3   OH235787   2.291   4.058   8.545 -0.2180 -0.0542 -0.1591
 4743TIP3    H135788   2.351   3.989   8.572  1.5182  1.4735  0.0210
 4743TIP3    H235789   2.206   4.014   8.536  0.7156 -2.0704  0.4982
 4744TIP3   OH235790   4.960   1.520   2.030 -0.3837  0.0173  0.2717
 4744TIP3    H135791   5.002   1.603   2.006 -0.3254 -0.3094 -0.7877
 4744TIP3    H235792   4.893   1.545   2.093 -0.6669  0.9366 -0.3776
 4745TIP3   OH235793   5.763   6.380   1.908 -0.2727 -0.1187  0.7467
 4745TIP3    H135794   5.782   6.472   1.889 -1.0905 -0.1022 -0.0472
 4745TIP3    H235795   5.692   6.357   1.848  0.0395 -1.3192  0.8092
 4746TIP3   OH235796   3.074   5.005   1.264 -0.6347  0.3099  0.3632
 4746TIP3    H135797   3.096   5.044   1.348  0.8783  3.5118 -1.3653
 4746TIP3    H235798   3.078   4.911   1.280  0.9707  0.7818  3.5007
 4747TIP3   OH235799   4.789   2.395   0.647 -0.0821 -0.3305 -0.1353
 4747TIP3    H135800   4.758   2.315   0.604  0.6498 -1.1532  0.8058
 4747TIP3    H235801   4.711   2.433   0.687 -0.2148 -1.3578  0.6114
 4748TIP3   OH235802   1.001   0.774   2.765 -0.1115 -0.3947 -0.4674
 4748TIP3    H135803   1.089   0.797   2.795  0.2457 -2.8935  0.6982
 4748TIP3    H235804   0.999   0.800   2.673  0.8853  2.0930  0.1450
 4749TIP3   OH235805   3.904   3.484   2.884 -0.0218 -0.3620 -0.5649
 4749TIP3    H135806   3.901   3.399   2.926 -1.8685 -0.0322  0.0716
 4749TIP3    H235807   3.997   3.502   2.872  0.4063 -2.3357 -0.4933
 4750TIP3   OH235808   3.368   4.140   8.439  0.0355  0.9769  0.0437
 4750TIP3    H135809   3.380   4.213   8.500  3.0863  2.2390 -1.8201
 4750TIP3    H235810   3.447   4.087   8.449 -1.8625 -1.8879  0.9311
 4751TIP3   OH235811   0.540   6.751   8.228 -0.0888 -0.3854 -0.0092
 4751TIP3    H135812   0.451   6.741   8.192  0.0304  1.5398 -0.9971
 4751TIP3    H235813   0.531   6.820   8.294  0.4866 -0.9644  0.6828
 4752TIP3   OH235814   3.979   2.947   8.490  0.6389 -0.3302 -0.6735
 4752TIP3    H135815   4.024   3.027   8.516  1.3410 -0.6735 -0.8125
 4752TIP3    H235816   3.887   2.972   8.484  0.1290 -0.4448  3.3954
 4753TIP3   OH235817   1.667   5.473   8.043 -0.0184 -0.1516  0.2972
 4753TIP3    H135818   1.737   5.413   8.069  0.0123  0.0710  0.7379
 4753TIP3    H235819   1.708   5.531   7.980  0.1369 -0.1593  0.3899
 4754TIP3   OH235820   1.178   4.395   7.615  0.3392 -0.4307  0.3030
 4754TIP3    H135821   1.100   4.339   7.617  1.7463 -2.4816  2.3594
 4754TIP3    H235822   1.205   4.394   7.523 -2.2363  0.7521 -0.5687
 4755TIP3   OH235823   4.301   0.561   0.876 -0.2149  0.0195 -0.4690
 4755TIP3    H135824   4.231   0.529   0.819 -0.2360 -1.9145  0.5790
 4755TIP3    H235825   4.359   0.609   0.817  0.4861 -3.0104 -2.4823
 4756TIP3   OH235826   1.582   5.446   2.367  0.2561 -0.0702  0.7765
 4756TIP3    H135827   1.619   5.527   2.402 -0.1245  0.1505  0.6674
 4756TIP3    H235828   1.659   5.396   2.339  0.4626  0.5472  0.1993
 4757TIP3   OH235829   4.409   2.947   1.613  0.8217  0.2425  0.7699
 4757TIP3    H135830   4.444   2.988   1.691 -1.0746  0.2853  1.6511
 4757TIP3    H235831   4.398   3.018   1.550  0.6950  0.5113  1.0961
 4758TIP3   OH235832   2.536   5.034   2.317  0.0205 -0.2414  0.4814
 4758TIP3    H135833   2.559   5.003   2.404  1.2511 -1.5028 -0.2532
 4758TIP3    H235834   2.616   5.075   2.284 -0.1365 -0.6237 -0.4093
 4759TIP3   OH235835   4.320   5.167   1.777 -0.0980  0.7012  0.1489
 4759TIP3    H135836   4.347   5.253   1.746  0.6634  0.2016 -0.6400
 4759TIP3    H235837   4.247   5.143   1.721 -0.0579  0.6739  0.1079
 4760TIP3   OH235838   3.676   3.276   7.259  0.2724  0.1506 -0.2659
 4760TIP3    H135839   3.726   3.273   7.341  1.7575 -0.2664 -1.1448
 4760TIP3    H235840   3.710   3.353   7.214 -0.6012  0.4278 -0.4591
 4761TIP3   OH235841   2.580   4.971   0.749  0.2361  0.1564  0.0791
 4761TIP3    H135842   2.534   4.965   0.665 -0.0115  0.7841  0.1623
 4761TIP3    H235843   2.668   4.938   0.731 -0.4788 -1.8812  0.1160
 4762TIP3   OH235844   6.414   6.607   2.922  0.1312 -0.1903  0.1254
 4762TIP3    H135845   6.442   6.567   3.004 -0.1744 -1.6565 -0.4590
 4762TIP3    H235846   6.372   6.536   2.873 -1.7080  1.1727 -0.3832
 4763TIP3   OH235847   3.141   2.913   1.433  0.6367 -0.5882  0.5634
 4763TIP3    H135848   3.051   2.924   1.403  1.6817  3.2815 -1.9161
 4763TIP3    H235849   3.133   2.898   1.527 -2.5914  0.0359  0.5026
 4764TIP3   OH235850   4.033   1.502   0.414 -0.1202  0.2842  0.3200
 4764TIP3    H135851   3.952   1.467   0.377  0.7371  0.1317 -1.4979
 4764TIP3    H235852   4.082   1.536   0.339  0.6366  2.2251  1.6011
 4765TIP3   OH235853   5.667   3.566   2.377 -0.3642 -0.1040  0.7698
 4765TIP3    H135854   5.757   3.599   2.386 -0.4626  0.4591 -0.1608
 4765TIP3    H235855   5.617   3.643   2.349 -0.7485 -0.8773 -0.7408
 4766TIP3   OH235856   1.934   1.731   1.068 -0.1011  0.0127 -0.5398
 4766TIP3    H135857   1.892   1.694   1.146  1.1842  0.1530  0.2492
 4766TIP3    H235858   1.883   1.810   1.049  1.3329  1.7438  2.0601
 4767TIP3   OH235859   3.021   3.746   1.927 -0.5195 -0.0832  0.4524
 4767TIP3    H135860   3.018   3.836   1.896  0.1083 -0.6598 -1.4222
 4767TIP3    H235861   3.114   3.729   1.942 -0.3608 -1.0636 -1.3726
 4768TIP3   OH235862   3.852   4.585   7.991 -0.3856 -0.8625  0.4296
 4768TIP3    H135863   3.819   4.635   8.066  0.4440 -1.1717  1.0251
 4768TIP3    H235864   3.938   4.554   8.020 -0.0661 -1.0190 -0.6437
 4769TIP3   OH235865   2.052   5.292   2.228 -0.4655 -0.0414  0.4995
 4769TIP3    H135866   2.120   5.360   2.227  0.1882 -0.6795 -0.4326
 4769TIP3    H235867   2.049   5.262   2.319 -1.4144  1.8443  1.1369
 4770TIP3   OH235868   1.435   4.682   7.851 -0.0423  0.3286  0.1876
 4770TIP3    H135869   1.398   4.595   7.867 -1.3253  0.8424  0.1279
 4770TIP3    H235870   1.501   4.692   7.919  0.9722 -1.1543 -0.5251
 4771TIP3   OH235871   0.906   2.908   0.955  0.5109 -1.2089 -0.7043
 4771TIP3    H135872   0.999   2.920   0.939  0.3099  0.3477 -0.8367
 4771TIP3    H235873   0.900   2.823   0.999  2.2056 -0.4904  1.0403
 4772TIP3   OH235874   3.457   1.545   0.080  0.2153 -0.5755 -0.0454
 4772TIP3    H135875   3.464   1.516  -0.010 -1.4311 -0.9672 -0.0751
 4772TIP3    H235876   3.366   1.527   0.105 -0.2750  2.3641  0.6880
 4773TIP3   OH235877   2.705   3.632   8.437  0.5574 -0.3104  0.4235
 4773TIP3    H135878   2.777   3.626   8.499  1.3698  1.2808 -0.3075
 4773TIP3    H235879   2.741   3.602   8.354  0.4630  0.6834  0.0071
 4774TIP3   OH235880   5.468   3.017   2.787 -0.4220  0.1208  0.3230
 4774TIP3    H135881   5.381   2.980   2.799 -0.3739 -0.4192 -0.8879
 4774TIP3    H235882   5.524   2.969   2.848 -0.8988  0.2429  0.8640
 4775TIP3   OH235883   4.739   0.259   7.841  0.1904 -0.6066  0.8059
 4775TIP3    H135884   4.649   0.292   7.842 -0.5148 -2.3274 -0.5686
 4775TIP3    H235885   4.737   0.182   7.897  0.5753 -1.1307  0.1192
 4776TIP3   OH235886   2.479   5.389   2.293  0.5140  0.5789 -0.2969
 4776TIP3    H135887   2.451   5.352   2.209 -2.3864 -0.6400  1.0365
 4776TIP3    H235888   2.407   5.447   2.318  0.8005  0.1017  1.8062
 4777TIP3   OH235889   3.359   0.123   0.188 -0.0037  0.0361  0.4803
 4777TIP3    H135890   3.330   0.032   0.182  0.4228 -0.0845  0.2131
 4777TIP3    H235891   3.340   0.148   0.278 -3.2032  0.7399 -0.2501
 4778TIP3   OH235892   5.620   0.998   1.050 -0.0780 -0.1538  0.3639
 4778TIP3    H135893   5.696   1.029   1.000 -1.1424 -1.3408 -2.2007
 4778TIP3    H235894   5.556   1.069   1.043 -0.2339 -0.3269 -0.0587
 4779TIP3   OH235895   6.156   5.048   1.088  0.0487  0.2224  0.4255
 4779TIP3    H135896   6.076   5.080   1.047  0.9670 -0.0275 -1.7011
 4779TIP3    H235897   6.189   5.122   1.137  0.1025  1.3451 -1.2248
 4780TIP3   OH235898   4.492   3.415   1.560 -0.3249 -0.4856  0.2637
 4780TIP3    H135899   4.525   3.342   1.507 -0.8797  0.6281 -1.6986
 4780TIP3    H235900   4.399   3.395   1.573 -0.3516 -0.4070  0.1984
 4781TIP3   OH235901   4.540   4.429   2.986  0.2569 -0.6273 -0.0968
 4781TIP3    H135902   4.535   4.335   3.002  1.5025 -0.9314 -1.2997
 4781TIP3    H235903   4.572   4.466   3.068  1.6380 -1.5050 -0.2076
 4782TIP3   OH235904   4.186   1.818   2.334  0.1172  0.1101 -0.4293
 4782TIP3    H135905   4.102   1.776   2.351 -0.2431  1.3534  1.0405
 4782TIP3    H235906   4.175   1.907   2.365  2.0401  0.2512 -0.0413
 4783TIP3   OH235907   0.198   1.547   7.160 -0.1257  0.3374  0.4710
 4783TIP3    H135908   0.169   1.483   7.095 -1.0094  0.6074  0.5842
 4783TIP3    H235909   0.118   1.572   7.206 -0.2054  3.0385 -0.9331
 4784TIP3   OH235910   1.148   3.855   0.020  0.4443 -0.2851 -0.1693
 4784TIP3    H135911   1.138   3.932   0.077 -1.8012 -1.7436  1.6008
 4784TIP3    H235912   1.167   3.783   0.081  2.1261 -1.2462 -1.7426
 4785TIP3   OH235913   5.010   3.297   0.681  0.2551 -0.0015  0.2271
 4785TIP3    H135914   4.951   3.268   0.611 -0.3091  0.0654  0.6731
 4785TIP3    H235915   5.095   3.261   0.656  0.1419  0.3467 -0.6966
 4786TIP3   OH235916   6.602   3.660   0.273 -0.1375  0.4519  0.0003
 4786TIP3    H135917   6.550   3.658   0.354  0.8287 -0.2990  0.6170
 4786TIP3    H235918   6.677   3.605   0.291  0.9487  1.6010 -0.8476
 4787TIP3   OH235919   4.128   1.268   0.124 -0.7082  0.0886  0.1458
 4787TIP3    H135920   4.061   1.260   0.056 -0.1787  0.3049 -0.4123
 4787TIP3    H235921   4.149   1.361   0.126  0.0860 -0.0689 -0.2011
 4788TIP3   OH235922   6.685   3.686   1.157  0.3991  0.0770  0.0244
 4788TIP3    H135923   6.616   3.750   1.168  0.2471 -0.2576  1.2190
 4788TIP3    H235924   6.705   3.656   1.246  0.2625 -1.7438 -0.5068
 4789TIP3   OH235925   3.953   4.121   0.345 -0.2650 -0.3852 -0.4825
 4789TIP3    H135926   3.862   4.125   0.316 -0.7877 -1.0179  0.9589
 4789TIP3    H235927   4.002   4.094   0.267 -1.4412 -0.9472 -1.0570
 4790TIP3   OH235928   0.947   5.855   7.920 -0.1915 -0.3445  0.3062
 4790TIP3    H135929   1.021   5.799   7.898  1.2916  1.4859  0.4489
 4790TIP3    H235930   0.905   5.874   7.836  2.2053  2.1651 -0.4751
 4791TIP3   OH235931   0.374   3.948   8.390  0.5002  0.7187  0.3398
 4791TIP3    H135932   0.278   3.951   8.389  0.4008 -0.9934  1.1385
 4791TIP3    H235933   0.396   3.867   8.344  1.6063  1.3522 -0.2951
 4792TIP3   OH235934   2.019   5.072   0.783  0.2308 -0.2521 -0.4218
 4792TIP3    H135935   1.972   5.155   0.785 -0.2173 -0.5121 -0.1516
 4792TIP3    H235936   1.967   5.017   0.725 -0.9718 -1.2379  1.5152
 4793TIP3   OH235937   2.787   5.926   8.015  0.3116  0.2694 -0.4444
 4793TIP3    H135938   2.871   5.932   8.059  0.1280  0.6570 -0.1356
 4793TIP3    H235939   2.742   5.853   8.057 -0.9893  2.3014  2.0337
 4794TIP3   OH235940   1.185   0.577   0.798  0.6773  0.6903 -0.9907
 4794TIP3    H135941   1.183   0.491   0.840 -0.6435  2.1497  2.2725
 4794TIP3    H235942   1.101   0.617   0.820  1.4625  3.0466 -1.9341
 4795TIP3   OH235943   2.189   0.059   1.736  0.1680 -0.0602  0.4455
 4795TIP3    H135944   2.256  -0.010   1.740  1.3486  1.1313  2.5923
 4795TIP3    H235945   2.219   0.118   1.667  0.8437 -0.0306  0.7619
 4796TIP3   OH235946   5.661   3.823   7.665  0.6544  0.2459 -0.5934
 4796TIP3    H135947   5.754   3.839   7.648  1.2550  0.7004  2.4232
 4796TIP3    H235948   5.616   3.885   7.608  2.3349  1.6344 -0.5241
 4797TIP3   OH235949   5.633   1.961   7.293 -0.1146  0.4724  0.6093
 4797TIP3    H135950   5.611   2.023   7.363  0.9532  1.4642  0.1093
 4797TIP3    H235951   5.655   1.880   7.339 -4.8064 -0.7805  1.1744
 4798TIP3   OH235952   1.266   1.019   8.259 -0.1432 -0.2644  0.2437
 4798TIP3    H135953   1.245   1.042   8.349  3.1432  0.8752  0.8486
 4798TIP3    H235954   1.221   1.085   8.206 -1.3480 -0.3922  1.0594
 4799TIP3   OH235955   5.684   4.062   1.802 -0.2366  0.1600 -0.0883
 4799TIP3    H135956   5.760   4.008   1.782  0.7458  1.4939 -0.1034
 4799TIP3    H235957   5.613   4.000   1.816  0.8247 -1.1121 -0.1881
 4800TIP3   OH235958   2.968   3.379   8.735  0.1563  0.3808  0.2062
 4800TIP3    H135959   2.981   3.322   8.660  0.2667  2.8453 -1.7688
 4800TIP3    H235960   2.894   3.341   8.782  0.0457 -1.1978 -1.1723
 4801TIP3   OH235961   1.933   5.973   7.632 -0.1146  0.2173 -0.1114
 4801TIP3    H135962   1.995   5.906   7.603 -1.9866 -0.6646 -2.4263
 4801TIP3    H235963   1.847   5.939   7.607 -1.3640  2.4100  0.8593
 4802TIP3   OH235964   5.398   6.671   2.940  0.1030 -0.1366  0.6041
 4802TIP3    H135965   5.419   6.652   3.031  0.2330 -0.5465  0.4927
 4802TIP3    H235966   5.452   6.746   2.917  1.8261 -1.4480  0.1802
 4803TIP3   OH235967   5.326   1.910   2.073 -0.3821 -0.1222 -0.2680
 4803TIP3    H135968   5.327   1.948   2.160 -0.2912  0.9812 -0.7409
 4803TIP3    H235969   5.246   1.944   2.032 -0.0460 -0.0418 -0.8714
 4804TIP3   OH235970   1.228   6.330   2.209 -0.0887 -0.4260  0.0129
 4804TIP3    H135971   1.173   6.263   2.248 -0.9571 -0.1931 -0.7756
 4804TIP3    H235972   1.202   6.412   2.251  0.3183 -0.4510  0.3140
 4805TIP3   OH235973   4.342   6.721   2.682  0.0314  0.1861  0.3208
 4805TIP3    H135974   4.304   6.674   2.757 -0.0472  0.6086  0.5527
 4805TIP3    H235975   4.346   6.812   2.712 -1.2472  0.5983 -0.6744
 4806TIP3   OH235976   0.544   4.493   8.132  1.0410 -0.2115 -0.8313
 4806TIP3    H135977   0.500   4.415   8.163 -0.1542  0.7536 -0.0054
 4806TIP3    H235978   0.630   4.491   8.174  0.8737 -0.8687 -0.5218
 4807TIP3   OH235979   1.258   0.102   1.518 -0.0356 -0.5282 -0.6527
 4807TIP3    H135980   1.220   0.170   1.462 -1.0526 -1.2398 -0.8589
 4807TIP3    H235981   1.281   0.031   1.458 -0.9374 -1.2101 -0.2110
 4808TIP3   OH235982   1.719   1.300   8.718 -0.2919 -0.3417 -0.2030
 4808TIP3    H135983   1.642   1.357   8.722  0.7973  1.1517  0.7975
 4808TIP3    H235984   1.786   1.353   8.674  0.8810 -0.6312  1.1257
 4809TIP3   OH235985   4.509   4.445   0.119 -0.2151  0.4991  0.0112
 4809TIP3    H135986   4.426   4.421   0.079  0.4992  0.0753 -1.3120
 4809TIP3    H235987   4.572   4.384   0.080  0.6966  0.7327  1.0642
 4810TIP3   OH235988   2.616   4.696   0.977  0.2453 -0.0813  0.1919
 4810TIP3    H135989   2.703   4.735   0.972  1.1371 -2.0714 -0.5695
 4810TIP3    H235990   2.583   4.720   1.064  2.3726 -1.0028  1.2971
 4811TIP3   OH235991   4.350   3.203   0.328 -0.4149  0.5807  0.5435
 4811TIP3    H135992   4.275   3.201   0.386 -0.9038  2.2614  0.0241
 4811TIP3    H235993   4.333   3.276   0.268  0.8797  0.0051 -0.6042
 4812TIP3   OH235994   3.568   5.491   0.783  0.6388 -0.5628  0.6652
 4812TIP3    H135995   3.661   5.481   0.800  0.4430 -3.0335  0.6092
 4812TIP3    H235996   3.539   5.405   0.754 -1.1716  0.7251 -1.8366
 4813TIP3   OH235997   2.194   6.733   7.791 -0.4893 -0.2273 -0.0530
 4813TIP3    H135998   2.264   6.669   7.782 -2.2579 -2.6335  1.9093
 4813TIP3    H235999   2.145   6.728   7.709  0.4585  0.0431 -0.6488
 4814TIP3   OH236000   3.296   4.807   0.447  0.2232  0.1021 -0.5233
 4814TIP3    H136001   3.269   4.793   0.356  2.2771  1.7080 -1.4685
 4814TIP3    H236002   3.250   4.888   0.472 -1.1486 -0.8811  0.2843
 4815TIP3   OH236003   2.019   3.537   0.955  0.5601 -0.1154 -0.0922
 4815TIP3    H136004   2.087   3.589   0.911 -0.2939 -0.9205 -2.5288
 4815TIP3    H236005   2.009   3.579   1.040  3.3143  0.6958 -0.0609
 4816TIP3   OH236006   3.397   0.969   1.159  0.3365  0.2982  0.2474
 4816TIP3    H136007   3.367   0.878   1.152 -0.3696  0.4984  0.6331
 4816TIP3    H236008   3.483   0.962   1.199  1.7220 -0.4300 -2.5793
 4817TIP3   OH236009   0.725   1.494   0.408 -0.1510  0.2605  0.4111
 4817TIP3    H136010   0.718   1.418   0.466 -1.9793 -2.1054 -2.6370
 4817TIP3    H236011   0.638   1.535   0.411  0.2349  1.0995  0.5242
 4818TIP3   OH236012   5.734   0.578   0.867  0.0417 -0.4165 -0.4741
 4818TIP3    H136013   5.801   0.510   0.877  2.1588  1.5285 -0.4269
 4818TIP3    H236014   5.678   0.568   0.943  1.3203 -1.0740  0.4251
 4819TIP3   OH236015   2.078   2.088   2.357 -0.1305  0.1444  0.3432
 4819TIP3    H136016   2.150   2.151   2.352  0.3452 -0.4629 -1.5435
 4819TIP3    H236017   2.005   2.133   2.315  0.3172 -0.6349 -1.3572
 4820TIP3   OH236018   0.852   6.315   8.471 -0.1339 -0.2143 -0.3240
 4820TIP3    H136019   0.847   6.345   8.380  1.3337  1.7748  0.1579
 4820TIP3    H236020   0.908   6.238   8.467  0.4439  0.2154 -1.0744
 4821TIP3   OH236021   2.194   3.515   8.610  0.1309  0.4019  0.2685
 4821TIP3    H136022   2.201   3.429   8.569 -0.3860  1.4942 -2.2490
 4821TIP3    H236023   2.258   3.569   8.565 -0.7924  1.7989  0.5545
 4822TIP3   OH236024   1.628   3.798   7.043 -0.5677 -0.3055  0.3910
 4822TIP3    H136025   1.548   3.754   7.074 -1.4213  0.9992  0.1267
 4822TIP3    H236026   1.618   3.889   7.073 -0.5150  0.5570 -1.9972
 4823TIP3   OH236027   0.069   4.958   2.210  0.2001 -0.4250 -0.7208
 4823TIP3    H136028   0.125   4.885   2.237 -0.1448 -0.5841 -0.4313
 4823TIP3    H236029   0.113   5.036   2.244  0.0617 -0.5781 -0.1909
 4824TIP3   OH236030   0.781   3.447   1.103 -0.0735  0.3896  0.1964
 4824TIP3    H136031   0.710   3.406   1.152 -1.0079 -1.4506 -2.4552
 4824TIP3    H236032   0.848   3.379   1.098  0.5808  1.0371  0.0906
 4825TIP3   OH236033   5.993   2.737   0.876 -0.5911  0.2872 -0.5482
 4825TIP3    H136034   6.044   2.818   0.869 -0.7005  0.3595 -0.5090
 4825TIP3    H236035   5.941   2.735   0.796 -0.7378  0.3575 -0.4543
 4826TIP3   OH236036   1.669   5.321   1.952 -0.4226 -0.0067 -0.1501
 4826TIP3    H136037   1.636   5.293   1.866 -0.1701 -1.5826  0.2458
 4826TIP3    H236038   1.598   5.372   1.989 -0.3421  1.1577 -1.5003
 4827TIP3   OH236039   5.753   5.978   0.473 -0.3116  0.5900 -0.2040
 4827TIP3    H136040   5.757   6.028   0.555  0.2837 -0.0747  0.1853
 4827TIP3    H236041   5.699   6.032   0.415 -0.4390  1.2481  0.5016
 4828TIP3   OH236042   4.587   6.746   8.596  0.4583 -0.1005 -0.1435
 4828TIP3    H136043   4.549   6.711   8.516  2.3908 -2.4915 -0.1219
 4828TIP3    H236044   4.666   6.793   8.567  0.7995 -0.3947  0.2897
 4829TIP3   OH236045   1.472   0.034   2.078 -0.0087  0.0734  0.5457
 4829TIP3    H136046   1.468  -0.059   2.100  2.3690 -0.3795 -0.5192
 4829TIP3    H236047   1.437   0.039   1.989  0.9878 -0.0563  0.1263
 4830TIP3   OH236048   3.875   4.514   1.923 -0.2771  1.1669  0.2186
 4830TIP3    H136049   3.937   4.458   1.877  0.2934 -0.4422  2.7365
 4830TIP3    H236050   3.790   4.493   1.884  0.3045  0.7611 -0.8681
 4831TIP3   OH236051   6.354   6.294   7.228  0.3484  0.6953 -0.3181
 4831TIP3    H136052   6.345   6.266   7.137  0.3812  0.0899 -0.1391
 4831TIP3    H236053   6.449   6.295   7.243  0.3231 -1.7691  0.4657
 4832TIP3   OH236054   4.658   0.118   0.856 -0.5260  0.5449 -0.4179
 4832TIP3    H136055   4.597   0.180   0.817 -0.7103  0.3542 -0.4337
 4832TIP3    H236056   4.688   0.162   0.936 -0.8687  0.5406 -0.2839
 4833TIP3   OH236057   1.250   3.461   8.155 -0.3037 -0.5312  0.0069
 4833TIP3    H136058   1.332   3.413   8.171 -0.3611 -0.9181 -0.8415
 4833TIP3    H236059   1.276   3.553   8.155  0.3461 -0.6931 -1.4084
 4834TIP3   OH236060   1.948   6.449   0.496  0.1917 -0.2255 -0.0922
 4834TIP3    H136061   1.902   6.459   0.579  1.9238 -0.5838  0.9678
 4834TIP3    H236062   1.982   6.360   0.499  1.5054  0.2456 -0.5096
 4835TIP3   OH236063   1.060   2.479   8.319 -0.2733  0.2042 -0.5016
 4835TIP3    H136064   1.031   2.432   8.241 -0.1271  0.0216 -0.4438
 4835TIP3    H236065   1.149   2.507   8.299 -0.1460 -0.0582 -0.3011
 4836TIP3   OH236066   5.925   2.719   7.851 -0.1368 -0.7546  0.1196
 4836TIP3    H136067   5.873   2.682   7.921 -0.8945 -1.5817 -0.8529
 4836TIP3    H236068   6.011   2.678   7.860 -0.7193 -2.1348 -0.4289
 4837TIP3   OH236069   2.809   3.969   2.522  0.4890 -0.0189 -0.2838
 4837TIP3    H136070   2.903   3.982   2.527  0.2953  1.1722  0.7741
 4837TIP3    H236071   2.792   3.890   2.573  0.7829  0.4728  0.5812
 4838TIP3   OH236072   2.915   3.781   2.205 -0.2969 -0.6434 -0.1372
 4838TIP3    H136073   2.937   3.701   2.156 -0.6159 -2.7297  2.8326
 4838TIP3    H236074   2.993   3.801   2.256 -0.3739  0.7355 -0.5149
 4839TIP3   OH236075   6.070   2.020   8.368  0.1173  0.2018 -0.6237
 4839TIP3    H136076   6.028   2.105   8.352 -1.9919 -0.5126  0.7136
 4839TIP3    H236077   6.097   2.024   8.460  1.4418 -0.0313 -0.9778
 4840TIP3   OH236078   6.218   1.223   1.388  0.4904 -0.6712 -0.6104
 4840TIP3    H136079   6.239   1.151   1.330  2.6996 -0.0267 -0.7203
 4840TIP3    H236080   6.302   1.246   1.429 -0.8410 -0.7523  2.4754
 4841TIP3   OH236081   0.115   1.713   8.587 -0.3784  0.0721  0.3622
 4841TIP3    H136082   0.149   1.681   8.671  1.9035  1.3075 -0.0300
 4841TIP3    H236083   0.159   1.796   8.573 -0.5000 -0.2163 -2.1865
 4842TIP3   OH236084   6.788   5.910   2.903 -0.7018  0.6785  0.2736
 4842TIP3    H136085   6.748   5.945   2.824 -2.3939  0.4991  0.9954
 4842TIP3    H236086   6.742   5.954   2.975  0.9268  0.9891  1.1697
 4843TIP3   OH236087   0.631   6.455   1.658 -0.4592  0.4639  0.1999
 4843TIP3    H136088   0.726   6.441   1.656 -0.5525 -0.2727 -1.9841
 4843TIP3    H236089   0.604   6.425   1.745  1.0647 -1.2896  0.1284
 4844TIP3   OH236090   4.684   5.207   0.559 -0.4142 -0.3448 -0.1220
 4844TIP3    H136091   4.656   5.138   0.498  0.0345  0.8446 -1.7204
 4844TIP3    H236092   4.776   5.221   0.539 -1.4268  3.8054 -3.1046
 4845TIP3   OH236093   3.690   6.157   0.282 -0.0672  0.7119  0.0797
 4845TIP3    H136094   3.772   6.203   0.299  1.8620 -1.4621 -2.4378
 4845TIP3    H236095   3.651   6.144   0.369  1.6015  2.8255  1.2490
 4846TIP3   OH236096   6.765   1.533   1.682  0.5520  0.1021 -0.3777
 4846TIP3    H136097   6.815   1.511   1.603  0.1019  0.2752 -0.7134
 4846TIP3    H236098   6.694   1.469   1.684 -0.1437  0.8420 -0.7801
 4847TIP3   OH236099   4.864   5.358   0.208  0.5059 -0.6584  0.3819
 4847TIP3    H136100   4.792   5.368   0.146 -0.7166  1.1575  1.9676
 4847TIP3    H236101   4.850   5.274   0.249  1.1450 -1.7391 -1.4728
 4848TIP3   OH236102   2.054   4.315   8.708  0.2246  0.0015  0.4264
 4848TIP3    H136103   2.145   4.341   8.716  0.2104  0.0138  0.5637
 4848TIP3    H236104   2.057   4.222   8.686  0.2716  0.0351  0.2941
 4849TIP3   OH236105   5.256   6.037   7.909 -0.4695 -0.2722  0.0776
 4849TIP3    H136106   5.313   5.968   7.876 -0.2586  0.1939 -0.5486
 4849TIP3    H236107   5.168   6.009   7.884 -0.4819 -0.7532  0.6231
 4850TIP3   OH236108   4.314   5.091   2.268 -0.2594  0.2005  0.0517
 4850TIP3    H136109   4.320   5.065   2.176  1.3998 -0.4840  0.3040
 4850TIP3    H236110   4.221   5.110   2.282 -0.5057  0.5736 -1.8144
 4851TIP3   OH236111   3.897   2.073   2.139  0.1806 -0.1646  0.5780
 4851TIP3    H136112   3.965   2.017   2.100  0.3360  1.4519 -1.6303
 4851TIP3    H236113   3.941   2.116   2.212  0.5172 -1.6826  1.3056
 4852TIP3   OH236114   1.700   3.488   1.079 -0.4083 -0.7289 -0.5111
 4852TIP3    H136115   1.712   3.476   0.985 -0.2614 -0.9336 -0.4659
 4852TIP3    H236116   1.700   3.583   1.091  1.1007 -0.7011 -0.5280
 4853TIP3   OH236117   0.719   5.046   8.640 -0.5354 -0.3530 -0.2904
 4853TIP3    H136118   0.658   5.108   8.681 -1.8106 -1.4035 -0.5488
 4853TIP3    H236119   0.690   5.041   8.549  2.4398  2.1803 -1.5632
 4854TIP3   OH236120   1.319   4.816   7.452 -0.1165 -0.1715  0.0375
 4854TIP3    H136121   1.297   4.881   7.385  0.7549 -0.5013 -0.5902
 4854TIP3    H236122   1.236   4.773   7.472 -0.1951 -0.9874 -1.8172
 4855TIP3   OH236123   4.686   0.153   2.738 -0.1343 -0.5301 -0.0040
 4855TIP3    H136124   4.752   0.206   2.782 -0.2864  0.4041 -0.8639
 4855TIP3    H236125   4.657   0.090   2.804 -1.4011  1.7107  1.6941
 4856TIP3   OH236126   0.038   5.344   7.393  0.4097  0.2039  0.0220
 4856TIP3    H136127   0.018   5.279   7.325  0.4598  0.2532 -0.0400
 4856TIP3    H236128   0.092   5.409   7.349  0.1891  0.3940  0.0347
 4857TIP3   OH236129   5.689   0.741   0.075 -0.1961 -0.2305  0.0003
 4857TIP3    H136130   5.610   0.716   0.124  0.3287  1.0702  1.6010
 4857TIP3    H236131   5.761   0.703   0.125  0.3407  0.8126  0.0424
 4858TIP3   OH236132   4.696   6.688   1.992  0.2326 -0.2107  0.2399
 4858TIP3    H136133   4.719   6.750   1.923 -1.5341  1.2218  0.8491
 4858TIP3    H236134   4.777   6.674   2.040  0.6452  1.8708  0.2382
 4859TIP3   OH236135   4.146   3.915   1.562 -0.5175  0.2305  0.7964
 4859TIP3    H136136   4.144   4.010   1.574 -1.1399  0.6768 -2.1522
 4859TIP3    H236137   4.058   3.893   1.531  0.3687 -0.8640 -1.1116
 4860TIP3   OH236138   2.049   4.262   1.969 -0.5998 -0.4607  0.1251
 4860TIP3    H136139   2.140   4.244   1.943 -0.2918 -0.2960  1.0525
 4860TIP3    H236140   2.048   4.356   1.985 -0.5797 -0.6510  1.3878
 4861TIP3   OH236141   2.582   6.103   7.906 -0.2695  0.0847  0.3109
 4861TIP3    H136142   2.632   6.023   7.923 -0.5718 -0.0473  0.5976
 4861TIP3    H236143   2.648   6.173   7.907 -0.1156 -0.0560  0.9346
 4862TIP3   OH236144   2.023   3.974   8.519  0.3308  0.5532  0.8115
 4862TIP3    H136145   2.053   3.892   8.558  1.1047  0.3517 -0.1785
 4862TIP3    H236146   1.940   3.993   8.564  0.2496 -0.6487  1.2072
 4863TIP3   OH236147   4.087   3.213   8.142 -0.2879  0.1503  0.2243
 4863TIP3    H136148   4.157   3.150   8.129 -0.7093 -0.0944 -0.9796
 4863TIP3    H236149   4.009   3.170   8.108 -0.3099  1.9056 -2.2335
 4864TIP3   OH236150   3.587   6.754   1.216  0.3142  0.0862 -0.3454
 4864TIP3    H136151   3.590   6.775   1.309  1.1370 -0.0542 -0.3322
 4864TIP3    H236152   3.495   6.759   1.193 -0.0090 -0.8519  0.7046
 4865TIP3   OH236153   5.370   4.224   2.385 -0.1736  0.0698  0.1804
 4865TIP3    H136154   5.402   4.136   2.366 -0.3724 -0.0522  0.4043
 4865TIP3    H236155   5.325   4.216   2.469  1.6390  0.8297  1.2786
 4866TIP3   OH236156   5.338   4.672   1.347  0.2732  0.7659 -0.0951
 4866TIP3    H136157   5.341   4.764   1.374  1.6134  0.6202  0.3431
 4866TIP3    H236158   5.380   4.625   1.419 -1.5703 -0.3759  0.3052
 4867TIP3   OH236159   4.157   4.622   0.318 -0.0999  0.1859  0.4993
 4867TIP3    H136160   4.198   4.681   0.255  0.1068 -0.8083 -0.3126
 4867TIP3    H236161   4.121   4.680   0.385 -0.0737  1.2483 -0.3832
 4868TIP3   OH236162   3.773   1.193   2.348 -0.1842 -0.3683  0.0964
 4868TIP3    H136163   3.745   1.130   2.414  0.6221 -0.5855  0.2467
 4868TIP3    H236164   3.799   1.270   2.399  1.4207 -0.8988  0.1480
 4869TIP3   OH236165   0.807   4.728   1.269  0.2411  0.0456 -0.5950
 4869TIP3    H136166   0.715   4.712   1.289  0.9291 -0.8779  2.2271
 4869TIP3    H236167   0.825   4.814   1.306  1.2685 -1.2031  1.9880
 4870TIP3   OH236168   4.820   6.674   7.781 -0.0987 -0.0171  0.1248
 4870TIP3    H136169   4.732   6.690   7.815 -0.0311 -0.3696  0.4615
 4870TIP3    H236170   4.831   6.742   7.713 -1.1876 -0.8535 -0.9460
 4871TIP3   OH236171   5.245   5.845   7.674 -0.0313 -0.0598 -0.7429
 4871TIP3    H136172   5.226   5.756   7.701 -2.5329 -0.4246 -3.2242
 4871TIP3    H236173   5.312   5.837   7.607 -1.6030 -0.3825 -2.3550
 4872TIP3   OH236174   2.667   4.236   2.542 -0.2447  0.2669 -0.7372
 4872TIP3    H136175   2.585   4.207   2.501 -0.5194  1.0388 -0.7528
 4872TIP3    H236176   2.728   4.164   2.527 -0.3267  0.5242 -2.5450
 4873TIP3   OH236177   4.483   4.338   8.275 -0.4871 -0.2604 -0.2582
 4873TIP3    H136178   4.512   4.282   8.203 -0.2501 -1.2810  0.6103
 4873TIP3    H236179   4.562   4.384   8.303  0.0299 -1.8926  1.0987
 4874TIP3   OH236180   2.724   0.478   1.729 -0.2010 -0.0228  0.1952
 4874TIP3    H136181   2.798   0.418   1.741  0.3620  0.8323  1.1590
 4874TIP3    H236182   2.740   0.548   1.791 -0.3385  1.6360 -1.5413
 4875TIP3   OH236183   0.915   4.921   7.685 -0.1731  0.3232  0.0841
 4875TIP3    H136184   0.860   4.987   7.642 -0.1928  0.8189  0.8655
 4875TIP3    H236185   0.993   4.915   7.629 -1.2967 -0.9343 -1.4691
 4876TIP3   OH236186   4.803   1.730   0.448 -0.1495 -0.3414 -0.7730
 4876TIP3    H136187   4.800   1.670   0.374 -1.2111  0.0602 -1.0830
 4876TIP3    H236188   4.713   1.763   0.455  0.5355  1.7120 -1.0505
 4877TIP3   OH236189   0.623   3.399   7.807 -0.2692  0.0896 -0.2384
 4877TIP3    H136190   0.630   3.494   7.816 -0.6097  0.0449  0.5907
 4877TIP3    H236191   0.709   3.367   7.834  0.5692  0.2425 -2.4540
 4878TIP3   OH236192   0.637   5.416   2.558 -0.3461  0.5281 -0.3405
 4878TIP3    H136193   0.620   5.391   2.467  0.5779 -2.1466  0.1353
 4878TIP3    H236194   0.619   5.337   2.608  3.2857  0.5477  1.3090
 4879TIP3   OH236195   0.584   6.356   2.297  0.0147 -0.2482 -0.3296
 4879TIP3    H136196   0.643   6.333   2.369 -0.3477 -0.6642 -0.1608
 4879TIP3    H236197   0.555   6.272   2.262  0.5533 -0.0545 -1.2754
 4880TIP3   OH236198   0.986   6.551   1.184  0.5213  0.6350  0.2062
 4880TIP3    H136199   0.940   6.502   1.116 -0.2755 -1.0073  1.8380
 4880TIP3    H236200   1.007   6.635   1.143 -1.8203  0.5389 -1.3873
 4881TIP3   OH236201   6.150   1.077   7.601  0.1177  0.3269 -0.3222
 4881TIP3    H136202   6.062   1.114   7.599 -0.7623 -1.6130  0.0559
 4881TIP3    H236203   6.189   1.112   7.681 -0.9314 -0.0742  0.3904
 4882TIP3   OH236204   3.207   3.728   2.242  0.5367 -0.1276  0.0059
 4882TIP3    H136205   3.206   3.646   2.292  1.4517 -0.1224  0.0342
 4882TIP3    H236206   3.273   3.714   2.174  1.7029  1.0803  0.8529
 4883TIP3   OH236207   6.773   2.149   7.799 -0.3410 -0.0184 -0.1243
 4883TIP3    H136208   6.725   2.071   7.825  0.8663 -0.6437  0.2953
 4883TIP3    H236209   6.764   2.152   7.704  0.2605 -1.1322 -0.2326
 4884TIP3   OH236210   5.571   3.515   7.346  0.2850 -0.1734 -0.0527
 4884TIP3    H136211   5.615   3.550   7.269  0.4208  1.3192  0.6617
 4884TIP3    H236212   5.478   3.518   7.324  0.2469  1.2582  0.2010
 4885TIP3   OH236213   3.263   1.346   0.528  0.4977  0.0337  0.0523
 4885TIP3    H136214   3.188   1.345   0.588  1.1714  0.5956  0.9286
 4885TIP3    H236215   3.248   1.272   0.470 -1.8286  1.3289 -1.1543
 4886TIP3   OH236216   1.647   0.910   2.625  0.4741  0.3711 -0.1731
 4886TIP3    H136217   1.631   0.861   2.706 -1.7323  0.3294 -0.5712
 4886TIP3    H236218   1.624   0.849   2.555  2.2630  0.4431 -0.8862
 4887TIP3   OH236219   5.019   0.549   2.529 -0.0714  0.8816  0.2075
 4887TIP3    H136220   5.097   0.505   2.564 -0.7183 -1.8905 -1.4913
 4887TIP3    H236221   5.053   0.627   2.485  1.4289  1.0497  1.5599
 4888TIP3   OH236222   2.148   2.199   7.716  0.0257  0.1269  0.2882
 4888TIP3    H136223   2.058   2.169   7.729  0.0382 -0.1024 -0.1425
 4888TIP3    H236224   2.202   2.123   7.734  0.1502  0.3479  0.8438
 4889TIP3   OH236225   1.177   2.085   8.651  0.1590 -0.3406  0.2548
 4889TIP3    H136226   1.128   2.118   8.576  0.7625 -0.3788 -0.1644
 4889TIP3    H236227   1.152   1.993   8.658 -2.0362  0.2962  1.8316
 4890TIP3   OH236228   0.173   5.769   7.494  0.1480 -0.1573  1.3437
 4890TIP3    H136229   0.225   5.800   7.420 -0.4349  0.1492  1.0473
 4890TIP3    H236230   0.131   5.848   7.528 -1.5638 -0.6106  0.4099
 4891TIP3   OH236231   3.128   2.721   0.488 -0.4881  0.1018 -0.0505
 4891TIP3    H136232   3.046   2.734   0.440 -0.7621 -0.1853  0.3372
 4891TIP3    H236233   3.195   2.755   0.429 -0.9215  0.7093 -0.2058
 4892TIP3   OH236234   3.634   4.774   0.734 -0.1733  0.4216 -0.4623
 4892TIP3    H136235   3.592   4.712   0.674  1.5923  0.5158 -1.8830
 4892TIP3    H236236   3.563   4.834   0.760 -1.3480 -0.6422 -1.0925
 4893TIP3   OH236237   0.323   1.269   1.938 -0.4919  0.4378  0.0141
 4893TIP3    H136238   0.382   1.342   1.958  0.5451 -0.0979 -1.0249
 4893TIP3    H236239   0.381   1.197   1.914 -1.5459 -0.4143 -0.0296
 4894TIP3   OH236240   6.550   0.818   1.713 -0.0728 -0.0199  0.3653
 4894TIP3    H136241   6.502   0.881   1.658 -1.1278 -0.1692  1.0900
 4894TIP3    H236242   6.572   0.868   1.792  1.3519  0.1633 -0.1193
 4895TIP3   OH236243   5.189   3.093   2.680 -0.0343  0.2752 -0.2151
 4895TIP3    H136244   5.110   3.132   2.718  1.3142  2.0262  0.9372
 4895TIP3    H236245   5.227   3.042   2.750  1.8273  2.5506  0.5590
 4896TIP3   OH236246   5.445   4.146   8.407  0.0839  0.3594  0.0612
 4896TIP3    H136247   5.461   4.091   8.331 -0.2867 -0.0243  0.2535
 4896TIP3    H236248   5.413   4.086   8.474 -1.6041  0.9719 -0.1310
 4897TIP3   OH236249   1.744   2.686   1.167  0.8730 -0.7103  0.2365
 4897TIP3    H136250   1.739   2.776   1.200 -1.3046 -0.8625  0.4756
 4897TIP3    H236251   1.826   2.652   1.202  1.2861  0.8856  0.9074
 4898TIP3   OH236252   4.189   1.215   2.429 -0.3128  0.2358  0.1479
 4898TIP3    H136253   4.274   1.258   2.436 -0.1670 -0.0202 -0.0070
 4898TIP3    H236254   4.159   1.205   2.519 -0.4720  0.9009  0.1723
 4899TIP3   OH236255   3.538   6.533   2.423 -0.1278  0.2873 -0.4421
 4899TIP3    H136256   3.468   6.567   2.478  1.9516 -0.6170  3.1199
 4899TIP3    H236257   3.593   6.609   2.404 -0.8489  0.6011 -1.3564
 4900TIP3   OH236258   1.421   4.318   0.152 -0.4890 -0.0134  0.3712
 4900TIP3    H136259   1.416   4.308   0.248 -1.8298 -2.3403  0.1259
 4900TIP3    H236260   1.510   4.290   0.130  0.3579  1.9890  1.0197
 4901TIP3   OH236261   3.183   5.511   1.414 -0.0612 -0.1397 -0.3528
 4901TIP3    H136262   3.132   5.592   1.411  1.7449  1.0499 -0.6819
 4901TIP3    H236263   3.219   5.508   1.503 -0.0487 -0.5478 -0.3681
 4902TIP3   OH236264   0.239   2.277   7.495  0.2044 -0.5714  0.6924
 4902TIP3    H136265   0.150   2.311   7.502  0.4193  0.7554 -1.7244
 4902TIP3    H236266   0.253   2.266   7.401  1.8331 -2.9572  1.1391
 4903TIP3   OH236267   6.446   5.614   7.169  0.6097 -0.2469  0.2373
 4903TIP3    H136268   6.451   5.677   7.097  1.0098 -0.6054 -0.0545
 4903TIP3    H236269   6.528   5.625   7.216  0.5040 -0.2681  0.4250
 4904TIP3   OH236270   3.344   3.275   0.146 -0.0626  0.3319  0.0530
 4904TIP3    H136271   3.270   3.225   0.179 -0.1722  0.3110 -0.2177
 4904TIP3    H236272   3.399   3.211   0.101 -0.2235  0.4594 -0.3284
 4905TIP3   OH236273   5.803   4.414   7.336 -0.0950  0.1108 -0.3603
 4905TIP3    H136274   5.726   4.426   7.391  0.6571  0.8096  0.5566
 4905TIP3    H236275   5.830   4.502   7.312  0.5676 -0.1175 -0.4755
 4906TIP3   OH236276   4.543   3.207   2.561 -0.1047  0.2118  0.8963
 4906TIP3    H136277   4.471   3.260   2.526 -0.4288 -1.1635 -0.6370
 4906TIP3    H236278   4.528   3.205   2.655 -0.1534  2.6877  0.9992
 4907TIP3   OH236279   0.033   4.092   8.627 -0.0522 -0.2295  0.0015
 4907TIP3    H136280   0.042   4.051   8.541  2.6045  2.4110 -1.1993
 4907TIP3    H236281  -0.043   4.149   8.619  0.1134 -0.0858 -0.5815
 4908TIP3   OH236282   6.404   4.779   0.343 -0.0662 -0.6049 -0.2039
 4908TIP3    H136283   6.365   4.751   0.260  0.6016  1.4109 -1.2718
 4908TIP3    H236284   6.497   4.760   0.334  0.4600  1.9960 -1.0908
 4909TIP3   OH236285   5.241   3.603   0.676  0.2195 -0.6561 -0.7354
 4909TIP3    H136286   5.296   3.529   0.702  0.4717  0.1291  1.0963
 4909TIP3    H236287   5.202   3.576   0.593 -0.3571 -3.1899  0.2750
 4910TIP3   OH236288   0.899   0.188   0.751  0.7679  0.3752 -0.1341
 4910TIP3    H136289   0.933   0.261   0.804  2.8972  0.7111 -1.7924
 4910TIP3    H236290   0.844   0.230   0.685  0.7143  0.3132 -0.1285
 4911TIP3   OH236291   5.620   4.430   0.984  0.4065 -0.3957  0.4094
 4911TIP3    H136292   5.563   4.420   1.060  1.2157 -0.0437  1.0854
 4911TIP3    H236293   5.693   4.371   1.001  0.1677 -0.9804 -0.5322
 4912TIP3   OH236294   0.552   0.377   7.986  0.3842 -0.0084 -0.4878
 4912TIP3    H136295   0.640   0.413   7.977  0.0923  0.8214 -0.0774
 4912TIP3    H236296   0.494   0.443   7.950 -0.1244 -0.2631 -0.1541
 4913TIP3   OH236297   2.877   5.341   1.401  0.2515  0.5101  0.5507
 4913TIP3    H136298   2.847   5.270   1.344  0.2198  0.6099  0.4415
 4913TIP3    H236299   2.972   5.341   1.393  0.1536  1.8830 -1.1696
 4914TIP3   OH236300   3.779   4.566   0.953 -0.1159  1.3584 -0.5505
 4914TIP3    H136301   3.729   4.640   0.918 -1.4431  0.8489  0.1883
 4914TIP3    H236302   3.786   4.505   0.880  1.7492  2.5397 -1.4273
 4915TIP3   OH236303   5.677   0.208   8.765 -0.5207 -0.1366  0.2679
 4915TIP3    H136304   5.726   0.152   8.706 -0.0216  0.3978  0.1746
 4915TIP3    H236305   5.722   0.292   8.763 -0.3894 -0.1570  1.5373
 4916TIP3   OH236306   0.004   6.813   3.031 -0.0602  0.3419 -0.3730
 4916TIP3    H136307   0.066   6.875   2.994  0.9260 -0.2101  0.3110
 4916TIP3    H236308  -0.061   6.867   3.076 -0.7129  0.9680 -2.0154
 4917TIP3   OH236309   3.395   1.281   2.702  0.2704 -0.0461  0.1492
 4917TIP3    H136310   3.405   1.247   2.791  1.8744  0.7554  0.3194
 4917TIP3    H236311   3.447   1.221   2.648  0.3835  0.2273 -0.0477
 4918TIP3   OH236312   3.845   3.687   2.728 -0.4801  0.4878  0.1893
 4918TIP3    H136313   3.866   3.605   2.773 -1.3018 -1.1896 -2.2379
 4918TIP3    H236314   3.750   3.687   2.720 -0.3579 -0.4627 -3.2172
 4919TIP3   OH236315   3.645   1.091   0.756  0.1397 -0.5677  0.4599
 4919TIP3    H136316   3.715   1.044   0.710  2.1195  2.2973  0.2225
 4919TIP3    H236317   3.601   1.024   0.808  1.1488 -3.0310 -1.6453
 4920TIP3   OH236318   2.023   1.613   8.356  0.3101 -0.3052  0.1758
 4920TIP3    H136319   2.022   1.665   8.276 -0.7136 -0.6429 -0.0430
 4920TIP3    H236320   1.934   1.577   8.363  1.2083 -2.7574 -0.1383
 4921TIP3   OH236321   2.207   5.507   2.930  0.3476  0.0625 -0.4110
 4921TIP3    H136322   2.237   5.597   2.943  0.6115 -0.0357 -0.3392
 4921TIP3    H236323   2.139   5.495   2.997  0.1193  0.2953 -0.5965
 4922TIP3   OH236324   3.255   0.032   8.442  0.0697 -0.2453 -0.3984
 4922TIP3    H136325   3.176  -0.001   8.400 -1.0167  0.0875  1.2939
 4922TIP3    H236326   3.225   0.106   8.495  1.9190  1.4684 -1.5890
 4923TIP3   OH236327   2.539   5.910   8.524 -0.0150  0.0117  0.0626
 4923TIP3    H136328   2.504   5.997   8.505 -2.8578 -0.6815  1.5918
 4923TIP3    H236329   2.567   5.877   8.438 -1.3469  1.4141 -0.9742
 4924TIP3   OH236330   6.715   4.054   8.177 -0.2569  0.0611 -0.1633
 4924TIP3    H136331   6.648   4.027   8.240 -1.5111 -0.5630 -1.6905
 4924TIP3    H236332   6.722   3.981   8.117  0.6556  0.7821 -0.9684
 4925TIP3   OH236333   1.114   4.653   7.589 -0.1124 -0.0437 -0.1914
 4925TIP3    H136334   1.128   4.560   7.603  2.0796  0.1453 -0.8641
 4925TIP3    H236335   1.035   4.657   7.535  1.4484 -1.7520 -2.8248
 4926TIP3   OH236336   5.255   0.413   2.599  0.5742  0.1967  0.1184
 4926TIP3    H136337   5.346   0.431   2.620  0.9285  0.4118 -1.4941
 4926TIP3    H236338   5.238   0.326   2.636  0.4780  1.3818  3.1248
 4927TIP3   OH236339   5.095   2.035   2.009 -0.3058 -0.3789  0.6734
 4927TIP3    H136340   4.999   2.030   1.999 -0.1341 -0.9332 -1.0438
 4927TIP3    H236341   5.110   2.124   2.040 -1.4208 -0.5466  1.8041
 4928TIP3   OH236342   2.243   1.187   2.151 -0.2889  0.6040  0.3254
 4928TIP3    H136343   2.313   1.237   2.193 -0.7389 -0.4744  2.4915
 4928TIP3    H236344   2.198   1.143   2.223 -1.7738 -0.5514 -1.2240
 4929TIP3   OH236345   4.779   0.406   1.700 -0.2086 -0.0454  0.1800
 4929TIP3    H136346   4.815   0.318   1.694  0.2499  0.1526 -0.0065
 4929TIP3    H236347   4.740   0.411   1.788  0.5308 -0.1468  0.5184
 4930TIP3   OH236348   3.366   2.693   1.949  0.4320 -0.6147  0.1678
 4930TIP3    H136349   3.433   2.626   1.962 -1.4965 -2.4513  1.2953
 4930TIP3    H236350   3.390   2.763   2.010  2.2950 -0.3604 -0.7766
 4931TIP3   OH236351   5.531   2.928   2.092 -0.6583  0.1204 -0.1815
 4931TIP3    H136352   5.619   2.963   2.078 -0.9804  1.7371  1.3618
 4931TIP3    H236353   5.483   2.952   2.013  0.0348  0.0705 -0.6314
 4932TIP3   OH236354   2.329   4.727   8.595  0.1614  1.1630 -0.8293
 4932TIP3    H136355   2.311   4.663   8.525  2.0072 -1.3290  0.8077
 4932TIP3    H236356   2.420   4.754   8.579  1.6136 -1.5387  1.9823
 4933TIP3   OH236357   2.795   2.262   2.942 -0.3769 -0.0351 -0.1507
 4933TIP3    H136358   2.746   2.344   2.952 -0.2606  0.1144 -0.7590
 4933TIP3    H236359   2.874   2.274   2.994 -0.6250  0.0189  0.2184
 4934TIP3   OH236360   5.555   0.662   8.454 -0.9199 -0.1715  0.7079
 4934TIP3    H136361   5.537   0.752   8.480  0.1403 -0.0994  1.2275
 4934TIP3    H236362   5.510   0.652   8.370  0.9410  1.6238 -0.5957
 4935TIP3   OH236363   0.506   5.003   8.137 -0.3367 -0.1472 -0.1957
 4935TIP3    H136364   0.489   5.048   8.054  0.0797 -0.7048 -0.5889
 4935TIP3    H236365   0.583   4.950   8.120 -0.5198 -0.6193  0.4153
 4936TIP3   OH236366   0.336   4.854   0.687  0.0052  0.7687 -0.1858
 4936TIP3    H136367   0.301   4.943   0.684  0.1620  0.8235 -0.3578
 4936TIP3    H236368   0.259   4.798   0.677 -0.0907  0.8841 -0.0973
 4937TIP3   OH236369   1.779   3.345   8.280  0.1393 -0.9249  0.8105
 4937TIP3    H136370   1.761   3.345   8.186  1.1357 -1.1544  0.6010
 4937TIP3    H236371   1.702   3.384   8.320  0.5079  1.0458 -0.2667
 4938TIP3   OH236372   2.414   2.616   1.896  0.1646 -0.0222  0.0702
 4938TIP3    H136373   2.346   2.676   1.926 -0.1193  0.5700 -1.5955
 4938TIP3    H236374   2.496   2.660   1.917  0.0112 -0.1941  1.0405
 4939TIP3   OH236375   0.773   3.912   2.731 -0.0144 -0.4514 -0.1057
 4939TIP3    H136376   0.847   3.926   2.790 -1.2721 -0.1427  1.4642
 4939TIP3    H236377   0.735   3.829   2.758 -0.6083 -0.3170 -0.4948
 4940TIP3   OH236378   5.843   0.285   0.646  0.3153  0.0822  0.0971
 4940TIP3    H136379   5.830   0.366   0.597 -0.9596 -1.0123 -1.4533
 4940TIP3    H236380   5.798   0.299   0.729 -2.2220  0.0618 -1.1935
 4941TIP3   OH236381   2.639   0.005   8.731 -0.0664 -0.9783  0.6032
 4941TIP3    H136382   2.733   0.015   8.748  0.0913  0.6898 -1.0202
 4941TIP3    H236383   2.618  -0.082   8.765  2.2788 -1.7853  0.1482
 4942TIP3   OH236384   4.342   3.434   2.237 -0.0376  0.0124 -0.4663
 4942TIP3    H136385   4.273   3.485   2.196 -0.4013  0.3939  0.5770
 4942TIP3    H236386   4.397   3.498   2.281 -0.1277 -0.4332  0.3161
 4943TIP3   OH236387   2.845   4.322   0.104  0.2773  0.5966  0.4481
 4943TIP3    H136388   2.755   4.340   0.076  0.5184  0.1604 -0.6438
 4943TIP3    H236389   2.855   4.372   0.185 -0.3467  2.2157 -0.4183
 4944TIP3   OH236390   4.980   4.443   0.213 -0.4945 -0.3373  0.2357
 4944TIP3    H136391   5.035   4.435   0.135 -0.1639  1.2026  0.2665
 4944TIP3    H236392   4.978   4.537   0.230 -3.1980 -0.3118  0.2052
 4945TIP3   OH236393   0.694   3.770   1.345  0.7485 -0.6959 -0.3363
 4945TIP3    H136394   0.715   3.684   1.382  1.2427 -0.3186  0.2768
 4945TIP3    H236395   0.709   3.831   1.417  0.6388 -0.0647 -0.8431
 4946TIP3   OH236396   1.696   6.266   1.911  0.0771 -0.1076 -0.4438
 4946TIP3    H136397   1.773   6.209   1.903 -0.9184 -1.4532 -0.9318
 4946TIP3    H236398   1.650   6.255   1.828 -1.1899 -0.1811  0.2391
 4947TIP3   OH236399   6.074   1.887   7.895  0.0111 -0.7651  0.6242
 4947TIP3    H136400   6.108   1.823   7.957  0.2850 -0.3191  0.9403
 4947TIP3    H236401   6.082   1.971   7.941  0.2618 -0.4231 -0.0366
 4948TIP3   OH236402   1.767   1.184   1.572 -0.0565  0.2011 -0.0660
 4948TIP3    H136403   1.828   1.147   1.508  3.0591 -0.1439  2.8261
 4948TIP3    H236404   1.721   1.108   1.608 -1.5427  0.3632 -1.4850
 4949TIP3   OH236405   2.794   6.114   1.571  0.1555 -0.2114  0.3434
 4949TIP3    H136406   2.879   6.140   1.609  0.6093 -1.7274  0.4016
 4949TIP3    H236407   2.760   6.048   1.631 -0.0243 -1.2195 -0.8360
 4950TIP3   OH236408   0.897   5.411   1.602  0.4306  0.0378  0.0927
 4950TIP3    H136409   0.898   5.493   1.653 -0.4804  0.5136 -0.6180
 4950TIP3    H236410   0.848   5.433   1.523 -0.6101 -1.4221  0.2801
 4951TIP3   OH236411   1.497   4.619   2.230 -0.0335 -0.9634 -0.4462
 4951TIP3    H136412   1.570   4.665   2.190 -0.6784  2.8294  2.1541
 4951TIP3    H236413   1.537   4.557   2.291  1.3034  2.4590  2.4495
 4952TIP3   OH236414   4.545   4.871   7.473  0.5838 -0.0473 -0.5858
 4952TIP3    H136415   4.548   4.890   7.380  1.8683  1.4819 -0.2634
 4952TIP3    H236416   4.459   4.903   7.501 -0.1480 -1.2512 -1.3539
 4953TIP3   OH236417   4.429   1.752   0.044  0.1822 -0.3029  0.2943
 4953TIP3    H136418   4.438   1.793   0.130  2.7792  0.6690 -0.3524
 4953TIP3    H236419   4.431   1.658   0.062  1.5505 -0.1106  1.2533
 4954TIP3   OH236420   6.745   6.761   2.524  0.0393  0.1865  0.3082
 4954TIP3    H136421   6.817   6.701   2.541 -0.2076  0.3197  1.9245
 4954TIP3    H236422   6.669   6.719   2.565 -0.0788  1.7223  1.7415
 4955TIP3   OH236423   4.106   5.409   8.607 -0.1793  0.2442 -0.5134
 4955TIP3    H136424   4.027   5.457   8.581  0.2999  1.1294 -0.3595
 4955TIP3    H236425   4.106   5.413   8.703  0.1605  0.4188 -0.5191
 4956TIP3   OH236426   6.800   4.164   1.511 -0.0459  0.1724  0.0978
 4956TIP3    H136427   6.878   4.208   1.545  1.0120 -1.0229 -0.6972
 4956TIP3    H236428   6.757   4.229   1.455  0.0628  1.0166  0.9683
 4957TIP3   OH236429   2.311   0.642   8.227 -0.2841 -0.1833 -0.6095
 4957TIP3    H136430   2.335   0.733   8.244 -1.9252 -0.0812  1.4896
 4957TIP3    H236431   2.235   0.648   8.168 -0.3319 -0.1989 -0.5494
 4958TIP3   OH236432   1.693   3.424   1.634  0.4875  0.0474 -0.1463
 4958TIP3    H136433   1.784   3.427   1.603  0.2954  3.7881 -0.8290
 4958TIP3    H236434   1.647   3.486   1.578 -1.1738  2.8386  3.8395
 4959TIP3   OH236435   2.145   6.464   2.157 -0.4878  0.1316 -0.4520
 4959TIP3    H136436   2.104   6.541   2.195 -0.2338 -0.5502  1.3068
 4959TIP3    H236437   2.197   6.497   2.084  0.2954  1.7656  0.7829
 4960TIP3   OH236438   4.906   0.076   7.612 -0.0903 -0.4337  0.7489
 4960TIP3    H136439   4.989   0.068   7.659  0.5458 -0.8143 -0.3857
 4960TIP3    H236440   4.927   0.048   7.523 -1.0649  0.9692  0.0380
 4961TIP3   OH236441   6.059   1.362   7.037 -0.1680 -0.6285 -0.3130
 4961TIP3    H136442   6.070   1.286   6.979 -0.0875  0.6148 -2.0183
 4961TIP3    H236443   6.009   1.330   7.111 -0.5260 -2.2376 -1.2201
 4962TIP3   OH236444   0.183   2.270   2.198  0.1156  0.1655 -0.6167
 4962TIP3    H136445   0.088   2.269   2.210  0.4210  0.1623  2.4434
 4962TIP3    H236446   0.212   2.182   2.223  1.0763  0.6711  0.1042
 4963TIP3   OH236447   4.231   0.319   8.474 -0.4354 -0.8642 -0.0126
 4963TIP3    H136448   4.171   0.391   8.492  0.4525  0.1139 -0.8604
 4963TIP3    H236449   4.262   0.335   8.385  0.6263 -1.6704  0.1932
 4964TIP3   OH236450   4.696   0.349   1.964 -0.4908 -0.2274  0.2662
 4964TIP3    H136451   4.700   0.431   2.014  1.3013  0.2786 -0.6032
 4964TIP3    H236452   4.663   0.285   2.026  0.1881  0.7057  1.6514
 4965TIP3   OH236453   3.662   3.100   1.102  0.5179  1.2268  0.2604
 4965TIP3    H136454   3.739   3.051   1.074  1.1330  1.0983  2.0049
 4965TIP3    H236455   3.668   3.100   1.198 -1.4521  1.5508  0.4249
 4966TIP3   OH236456   2.379   5.152   2.839 -0.0061 -0.3114 -0.4386
 4966TIP3    H136457   2.318   5.103   2.784 -0.2994 -0.7609  0.2830
 4966TIP3    H236458   2.439   5.193   2.777 -1.5176  0.8161 -1.2426
 4967TIP3   OH236459   1.057   4.428   2.902  0.3323  0.1243 -0.6161
 4967TIP3    H136460   0.966   4.403   2.917  0.3028  0.0845 -0.8586
 4967TIP3    H236461   1.101   4.410   2.985  0.2608 -0.5045 -0.7049
 4968TIP3   OH236462   0.405   6.059   1.621 -0.4817 -0.1868 -0.5971
 4968TIP3    H136463   0.407   6.027   1.711  1.0804 -0.5236 -0.7222
 4968TIP3    H236464   0.322   6.027   1.585 -1.8196  1.1751  1.1215
 4969TIP3   OH236465   2.174   1.760   0.363  0.1150 -0.4993  0.2775
 4969TIP3    H136466   2.107   1.792   0.303 -0.3888 -2.0516 -0.0424
 4969TIP3    H236467   2.256   1.773   0.315 -0.1965 -0.8534 -0.3728
 4970TIP3   OH236468   6.601   2.692   2.628  0.5991 -0.2161  0.6423
 4970TIP3    H136469   6.531   2.628   2.615  0.9405 -0.6678  0.9747
 4970TIP3    H236470   6.564   2.755   2.690  0.2667 -0.0956  0.3267
 4971TIP3   OH236471   5.286   3.052   2.422 -0.3883 -0.3534 -0.5344
 4971TIP3    H136472   5.290   3.095   2.508 -0.5005 -0.1461 -0.6312
 4971TIP3    H236473   5.373   3.067   2.385 -0.9095  1.1866 -1.2256
 4972TIP3   OH236474   3.473   0.043   1.897  0.1084  0.4464  0.4653
 4972TIP3    H136475   3.439   0.016   1.982  1.1299  0.1392  0.7883
 4972TIP3    H236476   3.444   0.133   1.887  0.4092  0.6467  1.3624
 4973TIP3   OH236477   5.913   4.260   7.917 -0.4813 -0.4490 -0.9843
 4973TIP3    H136478   5.920   4.199   7.991  0.6778  0.8102  0.0014
 4973TIP3    H236479   6.003   4.272   7.887 -0.4193  2.0110 -0.0593
 4974TIP3   OH236480   5.138   0.449   1.102  0.0477  0.0676 -0.6538
 4974TIP3    H136481   5.175   0.534   1.078  2.5660  0.0682  2.5466
 4974TIP3    H236482   5.059   0.470   1.151  0.0732  0.5279 -0.8094
 4975TIP3   OH236483   5.329   0.825   8.042 -0.3122 -0.2039 -0.5197
 4975TIP3    H136484   5.334   0.809   7.948 -0.6736  2.0092 -0.9870
 4975TIP3    H236485   5.333   0.921   8.049 -1.0658 -0.2942  1.6653
 4976TIP3   OH236486   5.226   4.296   8.472  0.0454 -0.1807 -0.1269
 4976TIP3    H136487   5.248   4.366   8.534  1.1915  0.8238 -1.5808
 4976TIP3    H236488   5.308   4.247   8.462 -0.1204 -0.3196 -0.8351
 4977TIP3   OH236489   4.850   3.421   1.039  0.2111 -0.1196  0.6562
 4977TIP3    H136490   4.802   3.462   1.111  0.1425  0.2622  0.3937
 4977TIP3    H236491   4.884   3.494   0.988  0.7298 -0.3877  0.6126
 4978TIP3   OH236492   0.552   3.015   1.217 -0.3899 -0.3447  0.6511
 4978TIP3    H136493   0.479   3.004   1.278  0.4085  0.9741  1.9079
 4978TIP3    H236494   0.569   3.109   1.217  1.6613 -0.6671  0.8518
 4979TIP3   OH236495   1.943   0.845   7.939 -0.4527  0.2934 -0.0411
 4979TIP3    H136496   1.864   0.791   7.929 -0.0274 -0.8539  2.1043
 4979TIP3    H236497   1.914   0.919   7.993  0.0310 -0.5170  1.3931
 4980TIP3   OH236498   2.007   0.895   1.231 -0.0230 -0.1160  0.1710
 4980TIP3    H136499   2.070   0.854   1.290 -1.4825  0.3152  2.1236
 4980TIP3    H236500   1.923   0.857   1.256 -1.2898  3.0979  1.3047
 4981TIP3   OH236501   1.194   1.393   1.362  0.9977 -0.4016 -0.0880
 4981TIP3    H136502   1.250   1.372   1.436  0.9309  2.1753  0.7942
 4981TIP3    H236503   1.240   1.462   1.315 -0.5592  0.5462 -0.3304
 4982TIP3   OH236504   6.287   6.486   2.320 -1.0573  0.3152  0.3041
 4982TIP3    H136505   6.250   6.505   2.234 -1.5202 -0.5895  0.2959
 4982TIP3    H236506   6.368   6.537   2.323 -0.2195 -0.8598 -1.2803
 4983TIP3   OH236507   0.642   5.786   2.257 -0.4987  0.3309 -0.3889
 4983TIP3    H136508   0.671   5.724   2.324 -1.6275 -2.0050 -1.9307
 4983TIP3    H236509   0.551   5.763   2.241 -0.4021  1.1528 -2.3502
 4984TIP3   OH236510   5.912   1.575   2.775  0.0575  0.0505  0.1154
 4984TIP3    H136511   5.924   1.491   2.819  1.2962  0.2164  0.1246
 4984TIP3    H236512   6.001   1.605   2.757 -0.3597  1.5155  0.4073
 4985TIP3   OH236513   2.898   5.631   0.007 -0.3537 -0.4339 -0.3054
 4985TIP3    H136514   2.829   5.592  -0.046 -0.9932  1.1356 -0.6705
 4985TIP3    H236515   2.945   5.688  -0.054  1.1641 -1.3106 -0.0169
 4986TIP3   OH236516   0.618   3.339   8.195  0.5170 -0.6964 -0.2858
 4986TIP3    H136517   0.587   3.417   8.241  3.2506 -0.2708  1.0131
 4986TIP3    H236518   0.698   3.314   8.241  1.9608 -1.8723 -3.2057
 4987TIP3   OH236519   0.378   4.519   1.476 -0.0929 -0.2986 -0.2134
 4987TIP3    H136520   0.311   4.456   1.503 -0.6725 -0.0005 -0.9473
 4987TIP3    H236521   0.425   4.539   1.557  1.6344 -3.4038 -0.2828
 4988TIP3   OH236522   0.824   4.120   3.135 -0.1474  0.1910 -0.1225
 4988TIP3    H136523   0.902   4.113   3.191 -0.7024 -3.5105  0.3859
 4988TIP3    H236524   0.757   4.158   3.192  0.0646 -0.9233  0.9099
 4989TIP3   OH236525   5.071   0.739   7.502  0.4793  0.2239  0.5826
 4989TIP3    H136526   5.079   0.655   7.456  0.9791 -0.6444  2.1679
 4989TIP3    H236527   5.143   0.738   7.566 -0.8054  0.8777  2.1021
 4990TIP3   OH236528   3.697   6.772   2.374  0.5209  0.4579 -0.5888
 4990TIP3    H136529   3.714   6.820   2.455  0.6733  1.0520 -0.9702
 4990TIP3    H236530   3.780   6.727   2.356  0.2724 -0.2480 -0.0470
 4991TIP3   OH236531   0.799   1.190   0.913 -0.0066 -0.1449  0.3346
 4991TIP3    H136532   0.761   1.235   0.988  1.9721 -1.1662  2.0433
 4991TIP3    H236533   0.724   1.151   0.868 -1.2487  0.4047  1.8508
 4992TIP3   OH236534   3.469   3.176   2.173  0.2311 -0.7776  0.2373
 4992TIP3    H136535   3.430   3.117   2.108 -1.2795  0.4536 -0.0287
 4992TIP3    H236536   3.476   3.123   2.253 -1.7607 -1.1454  0.2034
 4993TIP3   OH236537   3.052   5.120   7.764 -0.5394  0.1951  0.0943
 4993TIP3    H136538   3.079   5.204   7.726 -1.1560  0.5876  0.5010
 4993TIP3    H236539   3.019   5.070   7.690  0.5995 -0.0154 -0.2879
 4994TIP3   OH236540   2.347   6.376   0.260  0.2523  0.5625 -0.7535
 4994TIP3    H136541   2.309   6.454   0.301 -0.5036  0.2052 -0.7552
 4994TIP3    H236542   2.318   6.303   0.315  0.0902  0.1798 -1.3320
 4995TIP3   OH236543   5.547   6.323   8.159  0.1189  0.0003 -0.0400
 4995TIP3    H136544   5.614   6.263   8.189  0.3903 -0.7435 -1.9751
 4995TIP3    H236545   5.595   6.393   8.114 -0.2142  1.5364  1.8691
 4996TIP3   OH236546   4.108   5.936   0.756  0.2807  0.1600 -0.2458
 4996TIP3    H136547   4.134   5.959   0.845 -0.3764 -0.4945  0.1229
 4996TIP3    H236548   4.018   5.905   0.764  0.0647  0.5077 -1.2051
 4997TIP3   OH236549   2.345   0.638   0.464  0.5163 -0.1251 -0.0253
 4997TIP3    H136550   2.407   0.675   0.400  0.0713 -2.9351 -2.3019
 4997TIP3    H236551   2.386   0.653   0.549  2.5627  1.2873 -1.1819
 4998TIP3   OH236552   2.400   5.607   8.195 -0.2224 -0.1897 -0.4389
 4998TIP3    H136553   2.433   5.540   8.134  0.8001 -2.1810  2.1208
 4998TIP3    H236554   2.479   5.656   8.221 -0.6832  0.7952 -0.8675
 4999TIP3   OH236555   6.318   1.706   1.998  0.0036  0.2363  0.2271
 4999TIP3    H136556   6.377   1.770   1.958  0.3361 -0.3288 -0.2067
 4999TIP3    H236557   6.245   1.758   2.033  1.1518  1.0242  1.5139
 5000TIP3   OH236558   5.991   5.959   0.342 -0.2946 -0.1628  0.1751
 5000TIP3    H136559   5.996   5.865   0.322 -1.1087 -0.7194  2.3036
 5000TIP3    H236560   5.900   5.972   0.370 -0.2387  1.3333 -0.2726
 5001TIP3   OH236561   5.728   5.202   8.733 -0.5135  0.9018  0.0042
 5001TIP3    H136562   5.805   5.221   8.679 -0.5232  1.0149  0.0300
 5001TIP3    H236563   5.758   5.214   8.823 -1.2875  3.8360 -0.0259
 5002TIP3   OH236564   4.534   2.287   2.461 -0.2679 -0.0298  0.1381
 5002TIP3    H136565   4.538   2.349   2.387  0.0938 -0.8405 -0.5394
 5002TIP3    H236566   4.595   2.324   2.525  0.7272 -0.1959 -0.6774
 5003TIP3   OH236567   3.590   2.345   7.013  0.2260  0.3727  0.2868
 5003TIP3    H136568   3.605   2.341   6.918 -0.7758 -0.7217  0.1522
 5003TIP3    H236569   3.501   2.378   7.021 -0.0782 -0.5734  0.8178
 5004TIP3   OH236570   4.475   0.630   7.278 -0.6632 -0.2498  0.5915
 5004TIP3    H136571   4.561   0.598   7.250 -0.8296  0.5169 -0.9117
 5004TIP3    H236572   4.421   0.627   7.198 -1.1046  2.2805  0.7041
 5005TIP3   OH236573   1.452   5.788   2.223 -0.0528 -0.4887  0.7027
 5005TIP3    H136574   1.450   5.741   2.140 -0.9667  1.4757 -0.4585
 5005TIP3    H236575   1.545   5.799   2.242  0.1707 -0.8783 -0.1166
 5006TIP3   OH236576   3.878   6.203   2.267 -0.3219 -0.0735 -0.0056
 5006TIP3    H136577   3.842   6.119   2.294  0.1255 -1.6402 -3.6592
 5006TIP3    H236578   3.961   6.210   2.314  0.2676 -2.3936 -0.6004
 5007TIP3   OH236579   3.759   0.826   2.332  0.1854 -0.3237  0.0393
 5007TIP3    H136580   3.768   0.851   2.424  1.3120 -0.5706  0.0165
 5007TIP3    H236581   3.811   0.891   2.285 -1.3887  0.5514 -0.5662
 5008TIP3   OH236582   2.424   6.567   7.785  0.2234 -0.3237 -0.2771
 5008TIP3    H136583   2.403   6.500   7.850 -1.2429 -0.1245 -0.5024
 5008TIP3    H236584   2.440   6.517   7.704  0.1371 -0.4644 -0.2079
 5009TIP3   OH236585   4.658   0.997   0.571 -0.3033 -0.0964 -0.2933
 5009TIP3    H136586   4.748   0.986   0.601 -0.6835  0.2762  1.0800
 5009TIP3    H236587   4.663   0.992   0.476  1.3223  0.9201 -0.3002
 5010TIP3   OH236588   0.264   2.893   2.490  0.0583 -0.0457 -0.3064
 5010TIP3    H136589   0.221   2.964   2.538 -0.9872 -0.3350 -0.7883
 5010TIP3    H236590   0.315   2.937   2.423  1.3368  0.3538  0.8879
 5011TIP3   OH236591   1.155   3.591   2.797  0.0220  0.0005  0.0020
 5011TIP3    H136592   1.202   3.588   2.880  1.4381  0.0477 -0.7551
 5011TIP3    H236593   1.170   3.505   2.757 -0.3930  0.0782 -0.3332
 5012TIP3   OH236594   3.150   6.721   0.588 -0.3236 -0.7760 -0.5747
 5012TIP3    H136595   3.161   6.629   0.562  1.1396 -0.4413 -1.2525
 5012TIP3    H236596   3.174   6.722   0.681  2.9436 -0.6067 -1.2919
 5013TIP3   OH236597   3.274   2.185   0.517 -0.5372 -0.1571  0.0985
 5013TIP3    H136598   3.249   2.116   0.579 -1.1332  0.4957  0.5944
 5013TIP3    H236599   3.199   2.243   0.513  0.5587  1.3909  0.9630
 5014TIP3   OH236600   0.543   5.171   7.617  0.5115  0.6353  0.0580
 5014TIP3    H136601   0.548   5.119   7.537  0.2732  0.3089  0.2531
 5014TIP3    H236602   0.627   5.217   7.621  1.1474 -0.5064  0.4028
 5015TIP3   OH236603   6.789   3.966   1.703  0.7411  0.4797 -0.2831
 5015TIP3    H136604   6.792   4.030   1.631  0.0169  1.6695  0.6881
 5015TIP3    H236605   6.865   3.987   1.757  0.3521  0.7208  0.1828
 5016TIP3   OH236606   5.325   2.261   1.144  0.1768  0.0026 -0.0946
 5016TIP3    H136607   5.379   2.184   1.159 -0.5440 -0.4255  0.3388
 5016TIP3    H236608   5.369   2.331   1.192  0.4574 -0.2942  0.0822
 5017TIP3   OH236609   3.504   0.231   0.516  0.5790  0.3086 -0.0943
 5017TIP3    H136610   3.409   0.219   0.518  0.2123  2.3983 -1.1320
 5017TIP3    H236611   3.540   0.146   0.539 -1.5383 -0.3405  1.1118
 5018TIP3   OH236612   5.505   3.387   3.260  0.0067  0.1976 -0.7045
 5018TIP3    H136613   5.413   3.368   3.280 -0.4428  2.2370 -0.6625
 5018TIP3    H236614   5.548   3.390   3.345 -0.0002 -0.1312 -0.6857
 5019TIP3   OH236615   5.123   5.499   7.198  0.0375 -0.3201  0.4313
 5019TIP3    H136616   5.173   5.553   7.260  1.3109 -0.9026 -0.0377
 5019TIP3    H236617   5.143   5.409   7.223  2.7615 -0.6689 -2.3057
 5020TIP3   OH236618   4.526   5.124   1.252  0.4612 -0.2535  0.1154
 5020TIP3    H136619   4.433   5.143   1.252  0.4040 -0.2778 -2.2949
 5020TIP3    H236620   4.568   5.210   1.257  0.3259 -0.2068  0.5282
 5021TIP3   OH236621   5.101   2.475   1.206 -0.1590 -0.6447  0.4175
 5021TIP3    H136622   5.012   2.497   1.231 -0.1620 -2.2730  2.1155
 5021TIP3    H236623   5.156   2.514   1.273  0.3170 -0.5541 -0.0160
 5022TIP3   OH236624   4.365   1.898   7.276  0.2141  0.1550  0.3029
 5022TIP3    H136625   4.330   1.959   7.211 -0.6682 -1.8669 -1.2556
 5022TIP3    H236626   4.458   1.891   7.254  0.6939  2.0229  1.4922
 5023TIP3   OH236627   2.420   1.351   2.262 -0.3387  0.3292 -0.5371
 5023TIP3    H136628   2.395   1.419   2.324  0.9749 -0.4883  0.9770
 5023TIP3    H236629   2.501   1.382   2.223  1.1171 -0.9316  1.2850
 5024TIP3   OH236630   6.664   1.871   0.706 -0.8260  0.4159  0.2634
 5024TIP3    H136631   6.578   1.855   0.668 -0.4544  0.4429 -0.6167
 5024TIP3    H236632   6.687   1.959   0.677  0.4727 -0.4289 -1.4713
 5025TIP3   OH236633   5.457   3.946   2.474 -0.1248  0.5729 -0.1843
 5025TIP3    H136634   5.489   3.882   2.411  0.2287  0.1905  0.3772
 5025TIP3    H236635   5.531   4.006   2.487  0.1379  0.1024  0.5709
 5026TIP3   OH236636   2.132   4.399   3.211  0.3029 -0.0785  0.1631
 5026TIP3    H136637   2.071   4.456   3.258  2.1456  0.7974  1.6382
 5026TIP3    H236638   2.112   4.311   3.242 -1.2230 -0.0181 -0.5846
 5027TIP3   OH236639   4.650   3.316   0.140 -0.5115 -0.4844 -0.4996
 5027TIP3    H136640   4.567   3.338   0.182 -0.9959 -1.4119 -0.9511
 5027TIP3    H236641   4.672   3.229   0.174 -0.1691 -0.6196 -1.0490
 5028TIP3   OH236642   1.241   0.768   0.267 -0.1505 -0.2474  0.0629
 5028TIP3    H136643   1.199   0.710   0.331  0.3866  0.3767  1.0076
 5028TIP3    H236644   1.300   0.823   0.319 -1.5124  1.9843 -0.5829
 5029TIP3   OH236645   6.643   3.431   8.315 -0.4279 -0.2772 -0.0215
 5029TIP3    H136646   6.608   3.459   8.399 -1.8375 -0.0003 -0.6688
 5029TIP3    H236647   6.566   3.403   8.265  0.4833 -1.3878 -0.8687
 5030TIP3   OH236648   1.209   1.563   1.763 -0.3693  0.3141  0.0593
 5030TIP3    H136649   1.120   1.584   1.788 -1.0763 -1.8242 -0.4536
 5030TIP3    H236650   1.255   1.548   1.845 -0.4556  1.3821  0.3221
 5031TIP3   OH236651   6.360   6.751   8.292  0.1444 -0.4550  0.0639
 5031TIP3    H136652   6.324   6.755   8.203 -0.5498 -0.5577  0.3326
 5031TIP3    H236653   6.363   6.658   8.313  0.2122 -0.4261  0.1832
 5032TIP3   OH236654   4.292   2.910   2.901  0.4610 -0.2485 -0.2753
 5032TIP3    H136655   4.213   2.863   2.875  0.1667  0.4358 -0.6312
 5032TIP3    H236656   4.363   2.858   2.863  0.2222 -1.1019  0.4008
 5033TIP3   OH236657   4.290   4.762   0.764  0.2783 -0.5209 -0.2940
 5033TIP3    H136658   4.313   4.669   0.770  1.5750 -0.2291 -0.4385
 5033TIP3    H236659   4.203   4.768   0.805  0.6144 -1.6285  0.6331
 5034TIP3   OH236660   5.404   6.373   2.715  0.1461 -0.0591 -0.3672
 5034TIP3    H136661   5.354   6.340   2.639 -2.5049  0.5416  0.9929
 5034TIP3    H236662   5.356   6.339   2.791  1.1587  1.5497  1.0499
 5035TIP3   OH236663   1.410   3.347   1.412  0.0595  0.3316  0.0332
 5035TIP3    H136664   1.330   3.400   1.408 -0.0435  0.3629  1.9218
 5035TIP3    H236665   1.391   3.280   1.478  0.9964 -0.7180 -0.7149
 5036TIP3   OH236666   4.365   1.994   0.350  0.1328  1.0967  0.2244
 5036TIP3    H136667   4.285   2.026   0.309  0.5469  1.0938 -0.5975
 5036TIP3    H236668   4.430   2.062   0.333  0.5747  0.6174 -0.0382
 5037TIP3   OH236669   1.414   2.863   0.644  0.4642  0.0278 -0.4434
 5037TIP3    H136670   1.398   2.935   0.584  1.3374  0.0748 -0.6366
 5037TIP3    H236671   1.443   2.905   0.725  2.3705 -0.1205 -1.0006
 5038TIP3   OH236672   5.009   5.410   1.957 -0.2052  0.5567  0.5833
 5038TIP3    H136673   4.920   5.384   1.978  0.4053 -1.8751  0.3767
 5038TIP3    H236674   5.053   5.417   2.042  0.4536 -2.4506  0.5831
 5039TIP3   OH236675   3.115   1.257   7.317 -0.4289  0.1714  0.0156
 5039TIP3    H136676   3.158   1.187   7.268 -0.0792  0.5164 -0.1729
 5039TIP3    H236677   3.166   1.336   7.297 -0.6339  0.4250  0.4697
 5040TIP3   OH236678   2.401   4.721   0.800 -0.2953 -0.2973  0.2384
 5040TIP3    H136679   2.477   4.698   0.854 -0.8643  0.6963  1.5112
 5040TIP3    H236680   2.419   4.811   0.772 -0.4487 -0.4826 -0.4925
 5041TIP3   OH236681   5.310   6.100   1.071 -0.3830 -0.1331  0.3108
 5041TIP3    H136682   5.241   6.166   1.067 -0.5058 -0.2794 -0.1090
 5041TIP3    H236683   5.330   6.081   0.979 -0.5379 -0.8706  0.4248
 5042TIP3   OH236684   2.699   3.208   0.924 -0.0438  0.0542 -0.0553
 5042TIP3    H136685   2.669   3.193   0.834  0.7872 -1.0462 -0.1708
 5042TIP3    H236686   2.697   3.121   0.965  0.0427  0.4639  0.8530
 5043TIP3   OH236687   4.949   3.635   8.534 -0.0752 -0.1223  0.2386
 5043TIP3    H136688   4.941   3.545   8.501 -0.6495  0.0001  0.0347
 5043TIP3    H236689   4.965   3.624   8.628 -2.4600 -0.4463  0.6941
 5044TIP3   OH236690   5.557   6.679   8.211  0.1322  0.4000 -0.2253
 5044TIP3    H136691   5.608   6.632   8.145 -0.4624  0.2863 -0.6174
 5044TIP3    H236692   5.622   6.728   8.262  0.5131  1.7269 -1.8768
 5045TIP3   OH236693   4.438   4.247   2.182 -0.0045 -0.3468 -0.1212
 5045TIP3    H136694   4.384   4.188   2.234  1.2649 -2.7048 -1.3179
 5045TIP3    H236695   4.519   4.200   2.168 -0.0885  0.2945 -3.8022
 5046TIP3   OH236696   6.392   0.963   8.481  0.0524 -0.2800 -0.3256
 5046TIP3    H136697   6.334   1.035   8.456 -0.5749 -0.5423  0.3273
 5046TIP3    H236698   6.444   0.945   8.402 -1.3368 -0.5936 -1.2044
 5047TIP3   OH236699   4.817   4.813   0.271  0.0364  0.5126  0.4236
 5047TIP3    H136700   4.878   4.756   0.318 -0.0787  0.5956  0.6794
 5047TIP3    H236701   4.831   4.794   0.179  0.1723  0.2490  0.4991
 5048TIP3   OH236702   6.279   0.495   8.090 -0.2008  0.3936  0.1168
 5048TIP3    H136703   6.217   0.518   8.159  0.7889 -0.0409  1.1745
 5048TIP3    H236704   6.346   0.564   8.093  0.4218 -0.2103  0.3248
 5049TIP3   OH236705   0.018   1.193   2.837 -0.0452 -0.1575  0.4070
 5049TIP3    H136706   0.096   1.150   2.871  0.6509  2.1428  1.9493
 5049TIP3    H236707  -0.053   1.165   2.896  0.2240  0.0823  0.8512
 5050TIP3   OH236708   4.337   3.270   0.744 -0.7009 -0.2728  0.4373
 5050TIP3    H136709   4.294   3.332   0.684  0.7318 -1.2025 -1.6448
 5050TIP3    H236710   4.274   3.259   0.815 -2.3388  1.1606 -0.7006
 5051TIP3   OH236711   5.215   2.837   8.133  0.6749  0.2949 -0.3083
 5051TIP3    H136712   5.237   2.868   8.045 -0.0301 -1.0517 -0.9963
 5051TIP3    H236713   5.158   2.762   8.118  0.1105  0.3564  1.3206
 5052TIP3   OH236714   1.762   0.517   0.012  0.0336  0.1755 -0.4807
 5052TIP3    H136715   1.707   0.467   0.072  0.7124  0.2899  0.2605
 5052TIP3    H236716   1.820   0.568   0.069 -0.2697  1.3952 -1.2121
 5053TIP3   OH236717   0.653   5.017   0.182  0.0074  0.1466 -0.4994
 5053TIP3    H136718   0.672   5.019   0.088 -0.6505  0.0458 -0.6430
 5053TIP3    H236719   0.589   4.946   0.192  1.0314 -0.6998  0.2211
 5054TIP3   OH236720   2.942   1.391   2.795  0.4554 -0.5718 -0.1093
 5054TIP3    H136721   2.882   1.317   2.808 -0.0539 -0.1702 -0.1554
 5054TIP3    H236722   2.952   1.430   2.882  1.2152 -1.0640  0.0307
 5055TIP3   OH236723   0.933   6.597   1.989 -0.0440  0.6822 -0.5049
 5055TIP3    H136724   0.977   6.656   2.050  0.4323  0.0041 -0.1708
 5055TIP3    H236725   0.845   6.585   2.026  0.6477 -0.7381  0.7988
 5056TIP3   OH236726   5.649   0.742   7.528  0.4657  0.0943  0.5241
 5056TIP3    H136727   5.617   0.810   7.468 -1.5247 -2.0736 -1.0249
 5056TIP3    H236728   5.571   0.691   7.552  1.8874 -1.7615  1.5003
 5057TIP3   OH236729   6.381   1.025   7.404 -0.7731 -0.4381  0.3810
 5057TIP3    H136730   6.364   1.097   7.466 -0.3805  0.5419 -0.6290
 5057TIP3    H236731   6.294   0.995   7.379 -0.9395 -0.4361  0.9333
 5058TIP3   OH236732   6.501   2.950   8.185 -0.0828  0.1982  0.2246
 5058TIP3    H136733   6.567   2.884   8.164 -0.6939 -0.9335  1.6899
 5058TIP3    H236734   6.419   2.912   8.156 -0.5831 -0.2068  2.0742
 5059TIP3   OH236735   1.438   2.656   1.976  0.6080 -0.3611  0.3881
 5059TIP3    H136736   1.469   2.745   1.989  0.6262 -0.4674  1.1316
 5059TIP3    H236737   1.369   2.663   1.911  1.3110  0.0514 -0.3337
 5060TIP3   OH236738   5.173   5.357   8.113  0.0056  0.3625  0.6682
 5060TIP3    H136739   5.122   5.387   8.038 -0.3264  1.0672  1.1754
 5060TIP3    H236740   5.108   5.328   8.177  0.3012 -2.0081  0.0023
 5061TIP3   OH236741   0.954   3.746   2.243  0.0823  0.1361  0.0512
 5061TIP3    H136742   0.924   3.756   2.333 -0.2070  0.4908 -0.0817
 5061TIP3    H236743   0.928   3.828   2.200 -0.8299 -0.5022 -0.6516
 5062TIP3   OH236744   2.406   1.278   0.253 -0.3678  0.9010 -0.3322
 5062TIP3    H136745   2.456   1.339   0.307 -1.0638  2.9334 -1.8400
 5062TIP3    H236746   2.397   1.200   0.307  2.5746  1.2150  0.7997
 5063TIP3   OH236747   1.183   4.545   0.518  0.5025 -0.3078  0.4352
 5063TIP3    H136748   1.103   4.567   0.567  0.3907 -0.6589  0.4180
 5063TIP3    H236749   1.251   4.542   0.585  0.4547 -0.2347  0.4874
 5064TIP3   OH236750   2.541   4.176   8.287 -0.2084 -0.5147  0.4016
 5064TIP3    H136751   2.551   4.123   8.366 -0.2355 -1.4615 -0.2194
 5064TIP3    H236752   2.630   4.204   8.266 -0.0728 -1.0951  0.2006
 5065TIP3   OH236753   1.953   2.234   0.836  0.0509  0.1627 -0.1088
 5065TIP3    H136754   1.950   2.191   0.922 -1.5320  0.3441 -0.0405
 5065TIP3    H236755   1.935   2.326   0.854 -0.9225  0.0995 -0.6749
 5066TIP3   OH236756   0.676   0.530   8.305  0.3475 -0.6140  0.2354
 5066TIP3    H136757   0.646   0.559   8.219 -0.6050 -1.9496  0.0860
 5066TIP3    H236758   0.771   0.534   8.300  0.2913  1.4032 -0.1149
 5067TIP3   OH236759   3.055   3.209   1.149  0.1505  0.5240 -0.4553
 5067TIP3    H136760   3.068   3.231   1.056  0.7270 -2.3146 -1.1362
 5067TIP3    H236761   2.967   3.241   1.168 -1.0801 -1.0917 -2.8175
 5068TIP3   OH236762   6.516   6.307   8.321  0.3944  0.4853  0.2252
 5068TIP3    H136763   6.482   6.221   8.347  0.4234  0.4553  0.1639
 5068TIP3    H236764   6.588   6.324   8.382  0.2997  0.5283  0.3240
 5069TIP3   OH236765   4.350   3.308   8.319  0.0680  0.0341 -0.5195
 5069TIP3    H136766   4.256   3.324   8.324 -0.3287 -1.7285 -1.5906
 5069TIP3    H236767   4.386   3.390   8.284 -0.7947  1.3925  1.5922
 5070TIP3   OH236768   5.591   4.450   7.501 -0.3505  0.0309  0.1904
 5070TIP3    H136769   5.526   4.518   7.519  0.4274  0.7927  0.1635
 5070TIP3    H236770   5.625   4.426   7.587  0.0408  0.3392  0.1211
 5071TIP3   OH236771   0.339   1.129   1.533 -0.3610  0.2323 -0.4632
 5071TIP3    H136772   0.355   1.083   1.450 -0.2523 -0.6911  0.0571
 5071TIP3    H236773   0.419   1.114   1.584 -0.6804  0.2620  0.0487
 5072TIP3   OH236774   0.247   6.711   2.798  0.3735  0.4610  0.6901
 5072TIP3    H136775   0.230   6.791   2.848 -0.2616  0.4271  0.5353
 5072TIP3    H236776   0.277   6.648   2.863 -0.3078  0.4608  1.0210
 5073TIP3   OH236777   2.664   0.673   7.705 -0.6615 -0.1375 -0.3427
 5073TIP3    H136778   2.597   0.640   7.646 -1.9241  2.0869 -0.2601
 5073TIP3    H236779   2.615   0.710   7.779  0.7818 -0.7259  0.9677
 5074TIP3   OH236780   6.357   1.235   1.820  0.0574  0.1481 -0.3559
 5074TIP3    H136781   6.341   1.329   1.818  0.7031  0.3183  1.0558
 5074TIP3    H236782   6.288   1.201   1.877  0.9914  0.0628  0.7682
 5075TIP3   OH236783   3.012   5.612   0.531 -0.1903 -0.5837  0.6587
 5075TIP3    H136784   2.979   5.574   0.449 -0.3411 -0.3950  0.6305
 5075TIP3    H236785   2.955   5.575   0.599  0.0847 -0.9239  0.7057
 5076TIP3   OH236786   4.635   1.602   1.271  0.3272 -0.2885 -0.3781
 5076TIP3    H136787   4.557   1.624   1.219  0.2570  1.7324  0.4989
 5076TIP3    H236788   4.707   1.602   1.208  0.1962  1.8338 -0.5716
 5077TIP3   OH236789   3.429   4.421   8.230 -0.6153 -0.0246 -0.1405
 5077TIP3    H136790   3.456   4.473   8.154  0.4743  1.0767  0.9621
 5077TIP3    H236791   3.431   4.330   8.198  0.1858  0.3800 -1.3239
 5078TIP3   OH236792   0.145   3.076   6.951 -0.1965 -0.2679 -0.2138
 5078TIP3    H136793   0.061   3.058   6.994  0.7901 -2.7846  0.8729
 5078TIP3    H236794   0.191   3.133   7.012 -0.7503  0.4085 -0.4097
 5079TIP3   OH236795   6.598   1.714   2.209  0.1978  0.7929 -0.3144
 5079TIP3    H136796   6.505   1.733   2.203  0.1640  1.0813  0.9406
 5079TIP3    H236797   6.611   1.640   2.149 -0.9574  0.3222 -0.0127
 5080TIP3   OH236798   3.993   3.591   0.138  0.4385  0.3306  0.0740
 5080TIP3    H136799   3.987   3.513   0.082  0.6399 -0.1332  0.6867
 5080TIP3    H236800   3.922   3.648   0.107  1.1299  0.4903 -1.2586
 5081TIP3   OH236801   4.113   3.286   7.378  0.5243 -0.1445  0.3304
 5081TIP3    H136802   4.176   3.358   7.377  0.4597 -0.0692 -1.4899
 5081TIP3    H236803   4.132   3.235   7.299 -0.5283 -1.1626  0.6909
 5082TIP3   OH236804   1.877   1.898   8.671 -0.2577  0.1365 -0.5877
 5082TIP3    H136805   1.941   1.945   8.618 -0.0950 -1.5158 -1.9163
 5082TIP3    H236806   1.827   1.846   8.608 -3.0663  1.4521  0.3573
 5083TIP3   OH236807   4.782   5.386   7.700 -0.2816 -0.0450 -0.2798
 5083TIP3    H136808   4.776   5.314   7.763  0.5862 -0.1854 -0.3385
 5083TIP3    H236809   4.787   5.343   7.614 -3.6037  0.1718 -0.7153
 5084TIP3   OH236810   0.742   0.190   3.374 -0.4713  0.3143 -0.4182
 5084TIP3    H136811   0.815   0.130   3.386 -1.2590 -1.1717 -2.4222
 5084TIP3    H236812   0.675   0.158   3.435 -1.0568 -1.2466 -1.7863
 5085TIP3   OH236813   3.920   5.540   1.814 -0.5590  0.0896 -0.1555
 5085TIP3    H136814   3.892   5.449   1.819 -0.7541  0.0529 -1.5143
 5085TIP3    H236815   3.889   5.579   1.895 -1.1556 -0.8744  0.0946
 5086TIP3   OH236816   4.068   6.324   2.437 -0.2218 -0.4991  0.0286
 5086TIP3    H136817   4.022   6.408   2.441 -0.3720 -0.6229  1.1431
 5086TIP3    H236818   4.136   6.337   2.371 -0.6168  0.3136 -0.2270
 5087TIP3   OH236819   3.675   0.790   7.132  0.3114 -0.7850  0.0235
 5087TIP3    H136820   3.750   0.729   7.135  0.3696 -0.7052  0.2019
 5087TIP3    H236821   3.713   0.875   7.153  0.4289 -0.4836 -1.3125
 5088TIP3   OH236822   4.797   1.995   1.134 -0.4274  0.5021 -0.0766
 5088TIP3    H136823   4.818   1.947   1.053 -0.5518  0.7645 -0.2639
 5088TIP3    H236824   4.705   2.019   1.125  0.1556  2.6721 -0.9822
 5089TIP3   OH236825   1.926   0.864   7.541 -0.4349  0.6912  0.0737
 5089TIP3    H136826   1.877   0.878   7.460 -1.4658  0.6428  0.6640
 5089TIP3    H236827   1.955   0.773   7.536  0.1636  0.9053 -0.5663
 5090TIP3   OH236828   2.862   2.670   7.031  0.1663 -0.2133 -0.2436
 5090TIP3    H136829   2.844   2.602   7.095  2.5546 -0.6462  0.0866
 5090TIP3    H236830   2.781   2.721   7.024 -0.8507 -1.5592  1.3776
 5091TIP3   OH236831   6.051   4.229   2.506  0.4028 -0.5439  0.2576
 5091TIP3    H136832   6.097   4.148   2.486 -0.5321 -0.5698 -2.1858
 5091TIP3    H236833   6.007   4.252   2.424 -0.2170  1.8771  1.1823
 5092TIP3   OH236834   0.326   1.162   8.582  0.1925  0.5738  0.6124
 5092TIP3    H136835   0.353   1.254   8.585 -3.2260  1.7337  0.5640
 5092TIP3    H236836   0.255   1.156   8.647 -1.5920 -1.2768 -1.3434
 5093TIP3   OH236837   6.099   1.539   7.243  0.4761 -0.3364  0.4028
 5093TIP3    H136838   6.094   1.515   7.151  1.4430  1.0171 -0.0420
 5093TIP3    H236839   6.096   1.635   7.243 -1.8732 -0.3342  1.9684
 5094TIP3   OH236840   5.028   3.099   1.988 -0.3238 -0.0196 -0.2730
 5094TIP3    H136841   5.007   3.154   2.063  0.4486  0.9034 -0.7163
 5094TIP3    H236842   4.943   3.081   1.947 -0.9537 -1.7145  1.5664
 5095TIP3   OH236843   5.376   4.680   8.029  0.4415 -0.1807 -0.1150
 5095TIP3    H136844   5.388   4.587   8.012 -0.5985 -0.2845 -0.3876
 5095TIP3    H236845   5.281   4.690   8.040  0.5879  0.7710  0.3491
 5096TIP3   OH236846   3.092   4.337   8.725 -0.2602 -0.1822  0.0089
 5096TIP3    H136847   3.155   4.278   8.766 -0.4752 -1.7967 -1.8853
 5096TIP3    H236848   3.007   4.309   8.760 -0.3330 -0.8297 -0.6691
 5097TIP3   OH236849   3.121   5.946   7.767 -0.2357  0.2005  0.1755
 5097TIP3    H136850   3.093   5.918   7.680 -2.4652  3.4044 -0.3142
 5097TIP3    H236851   3.216   5.949   7.762 -0.2261 -1.1975 -1.5964
 5098TIP3   OH236852   2.016   3.571   2.278  0.1861  0.2539  0.6617
 5098TIP3    H136853   1.996   3.486   2.318 -0.4253  0.9073  1.7793
 5098TIP3    H236854   2.050   3.549   2.191 -2.3098 -1.0859 -0.0859
 5099TIP3   OH236855   5.413   5.049   7.489 -0.1841 -0.2578 -0.1178
 5099TIP3    H136856   5.335   5.097   7.462 -0.2506 -0.8947 -1.1104
 5099TIP3    H236857   5.477   5.117   7.509 -0.8723  0.2646  0.3817
 5100TIP3   OH236858   3.334   3.796   2.012  0.1676  0.0341 -0.0410
 5100TIP3    H136859   3.363   3.881   1.979  0.7491 -0.8936 -2.0892
 5100TIP3    H236860   3.415   3.743   2.016 -0.1086 -0.3249  1.6250
 5101TIP3   OH236861   6.674   4.075   1.088 -0.0188 -0.0874  0.9139
 5101TIP3    H136862   6.627   4.040   1.013 -0.0849 -0.8611  1.3077
 5101TIP3    H236863   6.667   4.170   1.079 -0.8730 -0.1840  0.4769
 5102TIP3   OH236864   5.302   4.749   2.109 -0.4620  0.7284  0.3094
 5102TIP3    H136865   5.268   4.764   2.197 -0.9950 -0.1615  0.2701
 5102TIP3    H236866   5.353   4.668   2.116 -1.2639  0.1430 -0.3755
 5103TIP3   OH236867   4.505   0.990   1.075 -0.0199 -0.4211  0.3461
 5103TIP3    H136868   4.454   1.060   1.117  0.7738  0.6834 -0.4775
 5103TIP3    H236869   4.587   0.987   1.125  0.7390  0.5817 -0.7981
 5104TIP3   OH236870   6.700   3.806   8.045  0.3761  0.2159  0.1026
 5104TIP3    H136871   6.674   3.732   7.989 -0.1818  0.6576 -0.2339
 5104TIP3    H236872   6.685   3.776   8.134 -0.0939  0.0144 -0.0451
 5105TIP3   OH236873   0.019   3.135   1.671  0.2329  0.2132 -0.3870
 5105TIP3    H136874   0.045   3.044   1.685 -0.7973 -0.1257 -0.6173
 5105TIP3    H236875   0.049   3.182   1.749 -0.6394 -0.6204  0.4580
 5106TIP3   OH236876   5.720   6.498   8.020 -0.3910  0.2113 -0.4043
 5106TIP3    H136877   5.802   6.448   8.021 -0.5335 -0.0507  1.3263
 5106TIP3    H236878   5.741   6.577   7.969  0.8377 -0.0200 -0.2844
 5107TIP3   OH236879   2.378   4.964   7.139 -0.7122  0.1348  0.1444
 5107TIP3    H136880   2.396   5.058   7.130 -2.2973  0.9233  3.6505
 5107TIP3    H236881   2.295   4.950   7.094 -0.6263  0.4777 -0.1206
 5108TIP3   OH236882   3.390   1.133   8.344  0.1002 -0.0590 -0.3467
 5108TIP3    H136883   3.329   1.106   8.275  0.1448  1.3101 -0.9494
 5108TIP3    H236884   3.351   1.213   8.380  0.6624 -0.1288  0.4358
 5109TIP3   OH236885   4.036   4.672   7.580 -0.0025 -0.4562  0.3338
 5109TIP3    H136886   4.090   4.626   7.644  1.3591  0.8723  0.1942
 5109TIP3    H236887   3.975   4.724   7.633 -0.8401 -1.5752  0.4966
 5110TIP3   OH236888   5.740   4.157   7.490  0.1059 -0.2330  0.1609
 5110TIP3    H136889   5.656   4.111   7.489 -0.5797  0.9215  1.3585
 5110TIP3    H236890   5.746   4.200   7.404 -1.0279  0.5198  0.4444
 5111TIP3   OH236891   4.918   3.644   2.125  0.1576  0.4740 -0.0856
 5111TIP3    H136892   4.913   3.611   2.035  3.5165 -0.1919 -0.1611
 5111TIP3    H236893   4.874   3.577   2.178 -1.8099  0.8491 -1.1611
 5112TIP3   OH236894   1.086   5.694   1.659  0.6157  0.3867 -0.4337
 5112TIP3    H136895   1.133   5.694   1.743 -0.8345  4.3438  0.6311
 5112TIP3    H236896   0.997   5.667   1.682  0.5189  0.2453 -0.9638
 5113TIP3   OH236897   4.442   1.666   0.767 -0.1961 -0.4737  0.0773
 5113TIP3    H136898   4.458   1.578   0.732  0.9149 -0.2004 -0.1248
 5113TIP3    H236899   4.524   1.713   0.753 -1.1062  0.9168 -0.7293
 5114TIP3   OH236900   3.744   2.670   1.902  0.3125  0.4246 -0.2463
 5114TIP3    H136901   3.742   2.746   1.844 -1.2997  1.2816  0.8562
 5114TIP3    H236902   3.772   2.705   1.987 -1.5287  0.0731  0.5711
 5115TIP3   OH236903   6.786   0.135   2.331 -0.7110  0.7712  0.3890
 5115TIP3    H136904   6.879   0.125   2.309 -0.6872  1.6846  0.0225
 5115TIP3    H236905   6.765   0.057   2.382 -0.3447 -0.6455 -1.4997
 5116TIP3   OH236906   0.920   5.453   0.700  0.5684  0.1012 -0.5703
 5116TIP3    H136907   0.948   5.524   0.642 -0.9977  1.1552 -0.1157
 5116TIP3    H236908   0.927   5.489   0.788 -3.6618  1.2008 -0.4406
 5117TIP3   OH236909   5.314   2.428   2.601  0.0493  0.1445 -0.5171
 5117TIP3    H136910   5.237   2.449   2.547 -1.0773  0.1262  1.0006
 5117TIP3    H236911   5.314   2.333   2.608  0.0115  0.1624 -0.2521
 5118TIP3   OH236912   6.190   3.502   0.627 -0.2088  0.2541  0.0975
 5118TIP3    H136913   6.198   3.487   0.722  1.9957  1.2574  0.1232
 5118TIP3    H236914   6.216   3.418   0.588 -0.8751 -0.0842  0.3629
 5119TIP3   OH236915   2.160   3.583   2.020  0.3903  0.2553 -0.4045
 5119TIP3    H136916   2.228   3.528   2.058 -0.1250 -0.3463 -0.3394
 5119TIP3    H236917   2.161   3.560   1.927  1.2261  1.2742 -0.6724
 5120TIP3   OH236918   0.406   4.675   1.890 -0.1882 -0.3512  0.1205
 5120TIP3    H136919   0.427   4.738   1.821  1.6864  1.1531  1.9663
 5120TIP3    H236920   0.409   4.590   1.846  0.8564  0.5601 -1.6771
 5121TIP3   OH236921   5.967   6.080   2.545  0.3195  0.6565 -0.3044
 5121TIP3    H136922   6.001   6.142   2.609 -0.7733  0.9826 -0.0202
 5121TIP3    H236923   5.982   6.122   2.461  0.3264  0.9366 -0.1649
 5122TIP3   OH236924   5.517   0.669   8.172  0.2926  1.0493 -0.0684
 5122TIP3    H136925   5.514   0.642   8.080  0.0694  1.6805 -0.2545
 5122TIP3    H236926   5.456   0.743   8.177 -2.2737 -0.9912  1.2827
 5123TIP3   OH236927   2.257   6.103   7.298  0.8388 -0.6024 -0.3204
 5123TIP3    H136928   2.285   6.019   7.335  0.5309 -0.2206  0.8201
 5123TIP3    H236929   2.303   6.168   7.351 -1.0910  0.0084  0.6640
 5124TIP3   OH236930   5.651   0.310   1.552 -0.0525  0.8296  0.1266
 5124TIP3    H136931   5.647   0.307   1.456  0.3444 -0.7615  0.1203
 5124TIP3    H236932   5.657   0.218   1.578 -1.3256  1.1610  1.7539
 5125TIP3   OH236933   5.781   5.562   3.109  0.1663  0.7200  0.0361
 5125TIP3    H136934   5.817   5.485   3.065  0.3674  0.8959 -0.1049
 5125TIP3    H236935   5.687   5.554   3.097  0.2558  1.1086 -0.9870
 5126TIP3   OH236936   5.328   5.696   2.040 -0.3041  0.0966 -0.9764
 5126TIP3    H136937   5.345   5.609   2.076  1.4282  0.6346 -0.4142
 5126TIP3    H236938   5.240   5.717   2.070 -1.0723 -1.7548 -1.7653
 5127TIP3   OH236939   4.906   0.533   1.190  0.4227 -0.4544 -0.1170
 5127TIP3    H136940   4.831   0.552   1.133  0.4146 -0.5928 -0.1512
 5127TIP3    H236941   4.868   0.527   1.278  0.4023 -0.4696 -0.1268
 5128TIP3   OH236942   4.225   2.145   1.529  0.1708  0.1929 -0.5918
 5128TIP3    H136943   4.256   2.222   1.482  1.0075 -0.5295 -1.2784
 5128TIP3    H236944   4.130   2.154   1.532  0.3448  2.0762  0.8297
 5129TIP3   OH236945   0.465   3.259   1.999  0.0673 -0.4929  0.3240
 5129TIP3    H136946   0.458   3.243   2.093 -0.4872 -1.0507  0.1939
 5129TIP3    H236947   0.558   3.276   1.984 -0.2366  2.9361  1.4728
 5130TIP3   OH236948   0.907   0.623   8.657 -0.6908 -0.1298  0.2549
 5130TIP3    H136949   0.963   0.687   8.702  0.1389  1.8687 -3.2123
 5130TIP3    H236950   0.827   0.672   8.637 -1.1019 -0.9873 -0.2426
 5131TIP3   OH236951   3.333   3.976   1.174 -0.3288 -0.3455  0.1781
 5131TIP3    H136952   3.277   3.955   1.099  0.8674  0.9712 -1.1673
 5131TIP3    H236953   3.422   3.968   1.140  0.2782 -0.4634  1.7077
 5132TIP3   OH236954   5.031   1.272   1.010 -0.2563 -0.1772  0.1329
 5132TIP3    H136955   5.125   1.282   1.027 -0.1085 -1.1927 -0.0443
 5132TIP3    H236956   5.000   1.362   0.998  0.9749  0.1024 -1.3054
 5133TIP3   OH236957   1.191   5.944   7.027 -0.0500 -0.1155 -0.2591
 5133TIP3    H136958   1.205   6.029   7.069  0.4218 -0.1705 -0.3031
 5133TIP3    H236959   1.269   5.930   6.974  0.1136 -0.8129  0.1494
 5134TIP3   OH236960   5.117   6.710   3.041 -0.1693  0.0068  0.5153
 5134TIP3    H136961   5.204   6.696   3.004 -0.8633  0.3166 -1.3397
 5134TIP3    H236962   5.125   6.682   3.132  1.7716 -0.2852  0.3027
 5135TIP3   OH236963   6.017   5.098   2.800 -0.4408 -0.2475  0.2416
 5135TIP3    H136964   6.024   5.128   2.710  0.5270  0.2808  0.4875
 5135TIP3    H236965   5.923   5.082   2.812 -1.1104  2.8240  0.1170
 5136TIP3   OH236966   4.100   4.179   1.227 -0.6349 -0.1313  0.1579
 5136TIP3    H136967   4.063   4.102   1.270 -1.0915  0.2989  0.5420
 5136TIP3    H236968   4.124   4.147   1.139 -0.1181 -0.8940  0.5618
 5137TIP3   OH236969   4.476   5.631   8.424  0.3416 -0.1819 -0.3904
 5137TIP3    H136970   4.436   5.562   8.370  0.9831 -0.2196 -0.8263
 5137TIP3    H236971   4.422   5.708   8.407 -0.4783 -0.5989  0.2180
 5138TIP3   OH236972   6.504   2.406   0.584  0.0361 -0.0212  0.5583
 5138TIP3    H136973   6.502   2.310   0.578  0.2623  0.0387 -0.8758
 5138TIP3    H236974   6.577   2.425   0.643  0.1245 -0.7305  0.6852
 5139TIP3   OH236975   4.235   6.662   7.912  0.5660 -0.2555 -0.7080
 5139TIP3    H136976   4.215   6.639   7.822 -1.6394  0.7861 -0.5331
 5139TIP3    H236977   4.163   6.625   7.963  1.2899 -0.0163  0.5373
 5140TIP3   OH236978   0.039   5.694   8.589  0.4247  0.0402 -0.0352
 5140TIP3    H136979   0.075   5.611   8.622  1.7927 -0.2325 -2.0558
 5140TIP3    H236980   0.026   5.747   8.667  1.7972 -1.2132  1.0954
 5141TIP3   OH236981   6.064   6.229   2.723 -0.7228 -0.6965 -0.6886
 5141TIP3    H136982   6.075   6.313   2.767 -0.7851 -1.1277  0.1872
 5141TIP3    H236983   6.063   6.165   2.794  0.8953 -1.6035 -1.4114
 5142TIP3   OH236984   1.999   6.652   0.859 -0.1817  0.4809 -0.0108
 5142TIP3    H136985   2.089   6.649   0.893 -0.2359  1.8083  0.2740
 5142TIP3    H236986   1.989   6.741   0.826 -1.2854  0.2322 -0.3659
 5143TIP3   OH236987   6.742   0.568   0.813 -0.8293  0.3196  0.5821
 5143TIP3    H136988   6.783   0.645   0.852  1.5134 -0.7502  0.3986
 5143TIP3    H236989   6.654   0.596   0.791 -0.7572  2.2852  2.4946
 5144TIP3   OH236990   5.591   5.083   7.814 -0.1517  0.1360 -0.4559
 5144TIP3    H136991   5.590   4.989   7.833 -0.8072  0.0939 -0.6912
 5144TIP3    H236992   5.636   5.090   7.730  1.4891  0.2011  0.3782
 5145TIP3   OH236993   0.416   2.015   0.914 -0.3109  0.1157 -0.8097
 5145TIP3    H136994   0.473   2.015   0.838 -0.0016  1.5328 -0.5985
 5145TIP3    H236995   0.395   2.107   0.929 -2.1607 -0.2992 -0.5101
 5146TIP3   OH236996   3.639   0.742   2.604  0.0476  0.2396  0.2260
 5146TIP3    H136997   3.685   0.820   2.637 -0.6327  0.6057  0.3219
 5146TIP3    H236998   3.613   0.695   2.683 -0.7333  0.6189  0.1997
 5147TIP3   OH236999   5.088   2.290   8.495  0.3286 -0.0977 -0.3046
 5147TIP3    H137000   5.065   2.340   8.417 -1.4901 -0.2339  0.0897
 5147TIP3    H237001   5.143   2.349   8.547 -1.0612  1.2199 -0.2469
 5148TIP3   OH237002   1.733   2.921   2.335  0.0682 -0.2729  0.4867
 5148TIP3    H137003   1.793   2.847   2.346 -0.7708 -1.1375 -0.5225
 5148TIP3    H237004   1.649   2.887   2.365 -0.2525  0.4032  0.3602
 5149TIP3   OH237005   1.643   6.256   7.981  0.0956  0.0695  0.4356
 5149TIP3    H137006   1.576   6.206   8.027 -0.1646  1.9745  2.3177
 5149TIP3    H237007   1.720   6.254   8.039  1.8670 -2.2564 -1.7701
 5150TIP3   OH237008   5.584   5.291   2.411  0.6497  0.2489  0.0496
 5150TIP3    H137009   5.628   5.247   2.484 -0.0900  0.4288  0.6055
 5150TIP3    H237010   5.508   5.333   2.450  1.0947  1.6692 -0.5451
 5151TIP3   OH237011   6.138   0.084   0.330 -0.1972 -0.1939  0.0764
 5151TIP3    H137012   6.093   0.096   0.413 -2.3070  0.1274 -1.0426
 5151TIP3    H237013   6.075   0.039   0.274  1.0031 -0.0382 -1.4957
 5152TIP3   OH237014   1.678   6.676   0.885 -0.5792 -0.6400 -0.3676
 5152TIP3    H137015   1.753   6.668   0.943  0.3823  0.2469 -1.4287
 5152TIP3    H237016   1.615   6.612   0.917  0.3763 -0.9668  0.9262
 5153TIP3   OH237017   4.771   5.177   7.879  0.5837  0.1858  0.0250
 5153TIP3    H137018   4.728   5.094   7.860  0.8796  0.2862 -1.1398
 5153TIP3    H237019   4.759   5.189   7.974 -1.3765 -0.1132 -0.1339
 5154TIP3   OH237020   1.532   5.744   3.211 -0.5564  0.2123 -0.3120
 5154TIP3    H137021   1.597   5.741   3.282  0.1924 -1.1754 -1.0044
 5154TIP3    H237022   1.546   5.828   3.169  1.5065 -0.4192 -1.0390
 5155TIP3   OH237023   2.324   5.561   3.465 -0.0969 -0.4406  0.4005
 5155TIP3    H137024   2.234   5.563   3.434 -0.1129  0.3864  0.4781
 5155TIP3    H237025   2.321   5.509   3.546 -0.4800 -0.4956  0.3489
 5156TIP3   OH237026   4.415   6.239   1.641 -0.5672  0.1792 -0.3174
 5156TIP3    H137027   4.332   6.280   1.664 -0.3379  1.0342 -0.9975
 5156TIP3    H237028   4.448   6.205   1.724 -0.3104  2.1845  0.4519
 5157TIP3   OH237029   6.186   2.589   7.908 -0.3547  0.3680  0.2412
 5157TIP3    H137030   6.188   2.665   7.849 -0.4191  0.0349 -0.1915
 5157TIP3    H237031   6.172   2.514   7.850  2.9565 -0.3955  0.2605
 5158TIP3   OH237032   2.356   2.199   8.429  0.4008 -0.4573 -0.2310
 5158TIP3    H137033   2.270   2.230   8.459  0.9898 -0.5772  1.7660
 5158TIP3    H237034   2.377   2.127   8.489  1.2908 -1.3557 -1.5776
 5159TIP3   OH237035   1.454   0.663   0.994  0.2438  0.3880 -0.1614
 5159TIP3    H137036   1.448   0.569   0.979 -1.2816  0.6827 -1.8744
 5159TIP3    H237037   1.377   0.684   1.046  1.0925  0.5809  1.0476
 5160TIP3   OH237038   4.424   1.787   1.758  0.0640 -0.0251  0.4994
 5160TIP3    H137039   4.413   1.844   1.682  0.1336  0.9968  1.2364
 5160TIP3    H237040   4.518   1.788   1.775 -0.0063  0.1230  0.8801
 5161TIP3   OH237041   2.877   0.543   0.478 -0.4043 -0.1936 -0.1084
 5161TIP3    H137042   2.911   0.530   0.389 -0.6788  0.4579 -0.3095
 5161TIP3    H237043   2.797   0.490   0.480  0.8001 -2.1257  0.5179
 5162TIP3   OH237044   2.623   3.985   7.693  0.3939 -0.2489  0.3896
 5162TIP3    H137045   2.713   3.979   7.662  0.9065  0.4823  1.6311
 5162TIP3    H237046   2.600   3.895   7.717  0.9536 -0.3776  0.4591
 5163TIP3   OH237047   0.809   0.599   2.416  0.5506 -0.0552 -0.1285
 5163TIP3    H137048   0.781   0.678   2.463  0.0266 -0.3598  0.0753
 5163TIP3    H237049   0.869   0.631   2.349  0.3072  0.5216 -0.0740
 5164TIP3   OH237050   2.901   2.884   0.566 -0.3322  0.3125  0.0320
 5164TIP3    H137051   2.838   2.819   0.534 -0.5727  0.1776  0.7712
 5164TIP3    H237052   2.933   2.849   0.649  0.4705  0.5454 -0.1642
 5165TIP3   OH237053   0.174   3.318   0.533  0.2854 -0.2246  0.0813
 5165TIP3    H137054   0.183   3.357   0.620 -0.4627  0.3357 -0.0827
 5165TIP3    H237055   0.245   3.359   0.481  0.2247  0.0545  0.2152
 5166TIP3   OH237056   6.134   2.475   1.532 -0.4570  0.2129  0.0036
 5166TIP3    H137057   6.073   2.425   1.586 -0.5778  0.1798 -0.1634
 5166TIP3    H237058   6.100   2.565   1.533 -0.7635  0.1050 -0.4580
 5167TIP3   OH237059   5.804   1.999   0.006 -0.1468 -0.2040  0.1196
 5167TIP3    H137060   5.842   2.073   0.054  1.3128 -0.7993 -0.0619
 5167TIP3    H237061   5.711   2.020  -0.001 -0.2991  0.2545  2.5620
 5168TIP3   OH237062   3.701   2.135   0.878  0.5594  0.6305 -0.2363
 5168TIP3    H137063   3.617   2.138   0.924  0.7601 -0.4306  0.2287
 5168TIP3    H237064   3.763   2.174   0.940  0.5790  0.5050 -0.1759
 5169TIP3   OH237065   1.128   4.636   2.300  0.2682  0.4334 -0.2790
 5169TIP3    H137066   1.130   4.626   2.395 -0.0943  1.5789 -0.1349
 5169TIP3    H237067   1.041   4.604   2.275  1.2030 -2.0734 -0.5319
 5170TIP3   OH237068   3.496   2.890   3.321  0.2398  0.1155 -0.1231
 5170TIP3    H137069   3.583   2.856   3.301  0.8902  2.1036 -0.8881
 5170TIP3    H237070   3.509   2.953   3.391 -0.7623 -0.3214  0.4864
 5171TIP3   OH237071   0.160   5.830   2.409  0.1482 -0.7584  0.2888
 5171TIP3    H137072   0.251   5.852   2.388 -0.2869  0.6260 -0.2258
 5171TIP3    H237073   0.120   5.808   2.325 -0.0509 -1.1861  0.4904
 5172TIP3   OH237074   5.475   0.003   7.340 -0.4463  0.0202  0.1060
 5172TIP3    H137075   5.546  -0.050   7.303 -0.3094 -0.7791  1.4467
 5172TIP3    H237076   5.482   0.087   7.295 -1.1920 -1.3178 -2.7029
 5173TIP3   OH237077   6.248   0.450   8.753  0.4829 -0.3729 -0.3191
 5173TIP3    H137078   6.226   0.359   8.769  0.3437 -0.3156 -0.1813
 5173TIP3    H237079   6.344   0.452   8.753  0.5121 -0.7373 -1.5672
 5174TIP3   OH237080   6.684   3.417   1.010 -0.5204 -0.2681  0.0301
 5174TIP3    H137081   6.694   3.495   1.064  1.0322 -0.1019 -0.4717
 5174TIP3    H237082   6.627   3.359   1.062  0.1519  0.2708  1.4114
 5175TIP3   OH237083   0.296   3.037   1.256 -0.2497  0.3168  0.3990
 5175TIP3    H137084   0.279   2.963   1.315  0.7403  0.3219  0.7060
 5175TIP3    H237085   0.226   3.099   1.274  0.7302  0.8951  2.5215
 5176TIP3   OH237086   1.609   0.895   1.970  0.2409  0.4403  0.2598
 5176TIP3    H137087   1.604   0.967   2.033 -1.5110 -1.4328  2.4361
 5176TIP3    H237088   1.697   0.859   1.983  0.3344  0.8190  0.7450
 5177TIP3   OH237089   4.325   4.868   2.949  0.7289 -0.1785  0.3012
 5177TIP3    H137090   4.230   4.860   2.949  0.8038 -1.8575  2.5414
 5177TIP3    H237091   4.344   4.935   3.014  1.0950  0.1438 -0.1300
 5178TIP3   OH237092   0.721   1.791   1.894 -0.2025 -0.5623  0.1481
 5178TIP3    H137093   0.729   1.886   1.887 -0.8642 -0.4250  1.0802
 5178TIP3    H237094   0.644   1.769   1.841 -0.0324 -0.5891 -0.0910
 5179TIP3   OH237095   3.815   1.436   7.851 -0.0805 -0.2156  0.2166
 5179TIP3    H137096   3.823   1.355   7.801  2.3989 -0.7192  1.2602
 5179TIP3    H237097   3.801   1.407   7.942  2.3803  0.3699  0.8642
 5180TIP3   OH237098   0.861   5.264   0.518  0.0807 -0.1284  0.5790
 5180TIP3    H137099   0.850   5.336   0.579  1.7513  1.2005 -0.5933
 5180TIP3    H237100   0.807   5.193   0.554 -0.8764  1.3726  2.2560
 5181TIP3   OH237101   0.338   1.429   0.832 -0.8905  0.2722 -0.3688
 5181TIP3    H137102   0.312   1.520   0.816  1.9171  1.2037 -0.1416
 5181TIP3    H237103   0.375   1.430   0.920  0.9454 -0.6488 -1.0936
 5182TIP3   OH237104   4.309   6.541   8.168  0.4312  0.5744  0.3446
 5182TIP3    H137105   4.334   6.573   8.081  3.4230  0.8671  1.1823
 5182TIP3    H237106   4.324   6.447   8.165 -1.4538  0.2546 -0.0110
 5183TIP3   OH237107   5.145   0.398   8.050  0.2284  0.2186 -0.0309
 5183TIP3    H137108   5.141   0.342   8.127 -1.5590 -0.4732 -0.5848
 5183TIP3    H237109   5.176   0.341   7.980  0.6000  0.5222 -0.1207
 5184TIP3   OH237110   1.351   2.316   7.113 -0.2261  0.0901  0.0608
 5184TIP3    H137111   1.422   2.380   7.105  0.6513 -0.8628  0.0039
 5184TIP3    H237112   1.382   2.239   7.064 -0.7165 -0.8286  1.1356
 5185TIP3   OH237113   4.109   5.339   0.942  0.4220 -0.7870 -0.8640
 5185TIP3    H137114   4.136   5.283   0.870  0.2750 -1.5032 -0.3732
 5185TIP3    H237115   4.057   5.282   0.999 -1.0296  0.2400 -1.1165
 5186TIP3   OH237116   1.432   5.734   1.338 -0.5361  0.0729 -0.1003
 5186TIP3    H137117   1.362   5.669   1.326 -0.1195  0.0679 -3.3925
 5186TIP3    H237118   1.389   5.818   1.328 -0.6150  0.2780  1.5743
 5187TIP3   OH237119   5.236   1.190   2.512  0.2815  0.0121 -0.3983
 5187TIP3    H137120   5.191   1.261   2.558 -0.8893 -0.9096 -0.0853
 5187TIP3    H237121   5.304   1.234   2.461 -0.2598  1.3335 -0.0210
 5188TIP3   OH237122   2.086   1.471   2.404 -0.6179  0.5048  0.0839
 5188TIP3    H137123   2.062   1.381   2.380 -0.8776  0.3440  0.8962
 5188TIP3    H237124   2.176   1.464   2.435 -0.7078  0.4898  0.3403
 5189TIP3   OH237125   6.428   4.801   2.561  0.9053  0.1741 -0.4269
 5189TIP3    H137126   6.409   4.725   2.506  0.4988  0.7971 -1.1807
 5189TIP3    H237127   6.465   4.765   2.641 -1.9437 -1.0059  0.4631
 5190TIP3   OH237128   5.730   5.294   1.910 -0.1190 -0.2685 -0.2829
 5190TIP3    H137129   5.690   5.207   1.910 -0.8632  0.0640 -0.5231
 5190TIP3    H237130   5.729   5.321   2.002 -0.6716 -0.1739 -0.3099
 5191TIP3   OH237131   2.997   4.377   3.102  0.1351 -0.1958 -0.4331
 5191TIP3    H137132   2.943   4.448   3.136  1.3605  0.3884  0.3561
 5191TIP3    H237133   3.049   4.418   3.033 -0.7236 -0.8679 -1.5316
 5192TIP3   OH237134   5.578   2.801   2.424  0.0502 -0.0014  0.1779
 5192TIP3    H137135   5.582   2.896   2.434 -0.3359 -0.0591  0.9184
 5192TIP3    H237136   5.538   2.770   2.505  0.6972 -0.8464  0.1879
 5193TIP3   OH237137   4.991   1.582   1.023 -0.4579  0.6621 -0.4734
 5193TIP3    H137138   4.953   1.622   1.102  0.1142 -1.2861  0.8684
 5193TIP3    H237139   5.071   1.633   1.007  1.0774 -0.7273  2.0923
 5194TIP3   OH237140   1.408   4.228   1.927 -0.2864 -0.0770  0.3172
 5194TIP3    H137141   1.468   4.210   1.855 -0.6096  0.8187 -0.1937
 5194TIP3    H237142   1.450   4.299   1.976 -0.5616  0.0333  0.3956
 5195TIP3   OH237143   5.928   3.558   7.298 -0.2067  0.7163 -0.1810
 5195TIP3    H137144   5.872   3.540   7.223 -0.7530  0.3890  0.2942
 5195TIP3    H237145   5.909   3.649   7.321  0.1714  0.9063 -0.6070
 5196TIP3   OH237146   5.656   4.025   7.906  0.8219 -0.5133 -0.4319
 5196TIP3    H137147   5.650   3.942   7.954  1.0192 -0.9718 -1.1733
 5196TIP3    H237148   5.655   3.999   7.814  1.4156  0.2674 -0.6712
 5197TIP3   OH237149   3.860   1.802   1.888  0.7222  0.1626 -0.0422
 5197TIP3    H137150   3.940   1.849   1.912  0.8915  0.0666 -0.4108
 5197TIP3    H237151   3.859   1.724   1.945  0.1857  0.8502  0.9209
 5198TIP3   OH237152   5.701   2.022   8.479 -0.4172  0.1343  0.3590
 5198TIP3    H137153   5.792   2.028   8.509 -0.5824 -0.0994  0.9330
 5198TIP3    H237154   5.649   2.045   8.556 -0.8370  0.7097 -0.0897
 5199TIP3   OH237155   5.810   5.542   7.654 -0.4054 -0.4646  0.0026
 5199TIP3    H137156   5.835   5.551   7.562  0.2439 -1.0167  0.1165
 5199TIP3    H237157   5.862   5.608   7.699 -1.8244  0.8521 -0.1851
 5200TIP3   OH237158   1.955   4.656   0.976  0.7664  0.0484 -0.1522
 5200TIP3    H137159   2.030   4.598   0.988  0.0738 -0.9306 -0.4749
 5200TIP3    H237160   1.994   4.740   0.951  1.7942 -0.1532  0.7244
 5201TIP3   OH237161   3.413   3.493   1.836 -0.1695 -0.0929 -0.5518
 5201TIP3    H137162   3.448   3.561   1.779 -2.3438  1.5164 -0.0815
 5201TIP3    H237163   3.404   3.416   1.779  0.9592  0.4250 -1.4562
 5202TIP3   OH237164   3.949   4.917   0.132  0.5326  0.2705 -0.3987
 5202TIP3    H137165   3.937   4.924   0.227 -0.5786  0.2143 -0.5163
 5202TIP3    H237166   3.922   5.003   0.098  0.3152  0.0778 -0.7139
 5203TIP3   OH237167   4.847   0.069   8.531  0.3439 -0.0098 -0.0027
 5203TIP3    H137168   4.850   0.161   8.557 -3.9390  0.2805  0.2155
 5203TIP3    H237169   4.939   0.042   8.529  1.7869  4.0631  0.4280
 5204TIP3   OH237170   4.125   1.971   0.178  0.6999  0.2008  0.2336
 5204TIP3    H137171   4.136   1.884   0.216  0.7997  0.6360  1.2381
 5204TIP3    H237172   4.049   1.963   0.120  0.7535 -0.5670  0.2630
 5205TIP3   OH237173   6.044   6.030   2.103 -0.4450 -0.2984 -0.3709
 5205TIP3    H137174   6.112   5.966   2.122  1.3989  1.1652 -1.5798
 5205TIP3    H237175   5.980   5.982   2.050  0.0378 -1.5361  0.1398
 5206TIP3   OH237176   1.712   3.347   8.017  0.7515 -0.1237 -0.4950
 5206TIP3    H137177   1.654   3.311   7.950 -0.1529 -0.1549  0.2805
 5206TIP3    H237178   1.774   3.401   7.968 -0.1990  0.2617 -1.3104
 5207TIP3   OH237179   0.210   0.722   1.373 -0.0961  0.1106  0.6194
 5207TIP3    H137180   0.140   0.690   1.430 -2.1520  0.2674 -1.6612
 5207TIP3    H237181   0.285   0.667   1.395 -0.2854  1.0781  4.3890
 5208TIP3   OH237182   0.221   0.188   7.997 -0.2954 -0.2436 -0.0493
 5208TIP3    H137183   0.239   0.273   8.037 -0.0141  0.5126 -1.7047
 5208TIP3    H237184   0.257   0.195   7.909 -1.3272 -1.6611 -0.6209
 5209TIP3   OH237185   0.615   1.826   8.739  0.0209  0.2703 -0.4320
 5209TIP3    H137186   0.619   1.769   8.815  0.8006 -1.6331 -1.8006
 5209TIP3    H237187   0.693   1.881   8.746  0.8961 -0.9052 -0.5435
 5210TIP3   OH237188   4.382   5.856   1.115 -0.1084  0.0699 -0.1049
 5210TIP3    H137189   4.292   5.824   1.117 -0.1813  0.2630 -0.2481
 5210TIP3    H237190   4.431   5.792   1.166 -0.0797 -0.8012 -1.1711
 5211TIP3   OH237191   2.215   1.419   1.294 -0.0455 -0.1021  1.0713
 5211TIP3    H137192   2.219   1.341   1.237  0.6839 -0.2563  1.3181
 5211TIP3    H237193   2.148   1.397   1.359 -2.5633  0.9655 -0.9738
 5212TIP3   OH237194   4.758   0.891   7.136  0.4372  0.0617 -0.6779
 5212TIP3    H137195   4.663   0.900   7.134  0.4782  0.8350  0.2318
 5212TIP3    H237196   4.781   0.890   7.229  1.0699 -3.2961 -0.7500
 5213TIP3   OH237197   0.138   3.487   1.402 -1.0713  0.7475 -0.2742
 5213TIP3    H137198   0.187   3.494   1.321  0.5173  2.5737  0.7672
 5213TIP3    H237199   0.152   3.397   1.431  0.4767  0.8015 -0.7651
 5214TIP3   OH237200   0.172   0.856   8.206  0.2102 -0.3481  0.0737
 5214TIP3    H137201   0.134   0.939   8.176 -0.4503  0.0377  1.8874
 5214TIP3    H237202   0.101   0.792   8.197  0.6537 -0.7106 -1.1155
 5215TIP3   OH237203   4.033   6.799   8.587 -0.3499 -0.0501  0.3935
 5215TIP3    H137204   3.955   6.838   8.547  0.2891  2.1508  1.1323
 5215TIP3    H237205   4.105   6.824   8.529 -0.0942 -1.6171 -0.0050
 5216TIP3   OH237206   4.360   2.767   7.373  0.4709 -0.4820 -0.1253
 5216TIP3    H137207   4.310   2.704   7.321 -0.6938  1.4114 -1.4299
 5216TIP3    H237208   4.361   2.846   7.319  1.4515  0.7852  1.6601
 5217TIP3   OH237209   3.883   1.084   0.460  0.0905 -0.4091 -0.1041
 5217TIP3    H137210   3.832   1.009   0.492 -0.8234  0.2664  0.0619
 5217TIP3    H237211   3.909   1.060   0.371 -0.2778 -0.8800 -0.0854
 5218TIP3   OH237212   4.214   4.835   2.031  0.0850 -0.0211 -0.2514
 5218TIP3    H137213   4.240   4.775   2.101  0.3497  0.0320 -0.3051
 5218TIP3    H237214   4.172   4.779   1.966 -0.2650 -0.0565 -0.0008
 5219TIP3   OH237215   6.417   2.428   0.140  0.1122 -0.0531 -0.0729
 5219TIP3    H137216   6.405   2.350   0.085 -0.3674  0.2574 -0.4146
 5219TIP3    H237217   6.419   2.501   0.078  1.7449  0.1203  0.1376
 5220TIP3   OH237218   5.720   3.782   0.077 -0.5087  0.2762  0.1970
 5220TIP3    H137219   5.771   3.832   0.013 -0.5138  1.3889  1.0233
 5220TIP3    H237220   5.779   3.713   0.107 -0.1404  0.4026 -0.2377
 5221TIP3   OH237221   1.268   2.972   1.216  0.6725 -0.9731 -1.1307
 5221TIP3    H137222   1.249   2.911   1.145  3.2727 -2.2592 -0.8170
 5221TIP3    H237223   1.279   2.916   1.293  3.4910 -0.2168 -0.9073
 5222TIP3   OH237224   2.705   3.964   1.541  0.4703 -0.6400  0.0212
 5222TIP3    H137225   2.645   4.027   1.582  0.0499 -0.5787 -0.6694
 5222TIP3    H237226   2.727   4.003   1.456 -0.5988 -1.8650 -0.8671
 5223TIP3   OH237227   3.968   0.063   2.252  0.2496 -0.1026  0.0906
 5223TIP3    H137228   4.009   0.122   2.189  0.0408 -0.1051 -0.0475
 5223TIP3    H237229   4.030  -0.010   2.260  0.7438  0.3578  0.6329
 5224TIP3   OH237230   0.285   5.570   3.209  0.0312  0.1034 -0.0272
 5224TIP3    H137231   0.370   5.611   3.195  0.2506 -0.5632 -0.7181
 5224TIP3    H237232   0.264   5.528   3.126 -0.5555 -0.4914  0.4060
 5225TIP3   OH237233   6.243   0.746   2.320 -0.5083  0.0757  0.2749
 5225TIP3    H137234   6.188   0.765   2.244  0.3613 -0.2914 -0.4603
 5225TIP3    H237235   6.182   0.714   2.387 -1.3591  0.9660 -0.0553
 5226TIP3   OH237236   5.939   6.337   0.576  0.0117  0.1056  0.6950
 5226TIP3    H137237   5.891   6.272   0.525  1.5853 -1.1064  0.7152
 5226TIP3    H237238   5.940   6.302   0.665  1.3362 -0.1255  0.5962
 5227TIP3   OH237239   4.932   2.222   1.131  0.3201 -0.5035  0.1677
 5227TIP3    H137240   4.987   2.228   1.209  1.9933 -0.5996 -0.9426
 5227TIP3    H237241   4.894   2.135   1.135 -0.3185 -0.1915  1.3004
 5228TIP3   OH237242   4.716   3.087   1.051  0.3870 -0.0188 -0.6402
 5228TIP3    H137243   4.780   3.135   0.998 -0.0953 -0.4108 -1.5991
 5228TIP3    H237244   4.698   3.007   1.001  0.0797 -0.5030  0.2260
 5229TIP3   OH237245   6.307   5.947   2.349  0.0838 -0.0919 -0.4082
 5229TIP3    H137246   6.314   6.043   2.355  1.0916 -0.1807  0.1073
 5229TIP3    H237247   6.241   5.924   2.415 -0.1636  0.2504 -0.5353
 5230TIP3   OH237248   4.023   3.090   1.480 -0.3212 -0.2169  0.5409
 5230TIP3    H137249   4.110   3.129   1.493 -0.8585  0.3499  3.0688
 5230TIP3    H237250   3.966   3.138   1.540 -2.0624 -1.6209  0.1002
 5231TIP3   OH237251   1.933   2.203   6.847 -0.4334 -0.0256  0.1741
 5231TIP3    H137252   2.016   2.186   6.892  0.9605 -0.1272 -2.2288
 5231TIP3    H237253   1.928   2.298   6.840 -0.9389  0.0147  1.0150
 5232TIP3   OH237254   4.920   2.624   0.580  0.2335  0.3205  0.2442
 5232TIP3    H137255   4.917   2.678   0.659 -0.5232  0.7951 -0.0906
 5232TIP3    H237256   4.854   2.556   0.595  1.1284 -0.4884  0.6314
 5233TIP3   OH237257   2.596   3.384   0.295 -0.0218 -0.2187 -0.3949
 5233TIP3    H137258   2.660   3.429   0.350  1.2547 -1.6205 -0.6870
 5233TIP3    H237259   2.562   3.314   0.350 -0.3798 -0.2655 -0.6716
 5234TIP3   OH237260   2.118   6.417   7.766 -0.0968  0.0805 -0.2051
 5234TIP3    H137261   2.162   6.430   7.682 -1.0413  2.4883 -0.4113
 5234TIP3    H237262   2.042   6.362   7.745  0.1431 -0.0410 -0.7764
 5235TIP3   OH237263   3.142   2.579   0.735  0.4692  0.2771  0.0712
 5235TIP3    H137264   3.238   2.573   0.736  0.5416  1.1947 -0.1769
 5235TIP3    H237265   3.123   2.647   0.671 -0.4222 -0.8779 -0.9368
 5236TIP3   OH237266   1.182   0.381   3.130 -0.3059 -0.0956 -0.0390
 5236TIP3    H137267   1.093   0.415   3.122 -0.5316 -0.3638  1.2288
 5236TIP3    H237268   1.171   0.286   3.141  0.1596 -0.1643 -0.1256
 5237TIP3   OH237269   2.636   2.408   1.839  0.1384  0.3078 -0.1793
 5237TIP3    H137270   2.709   2.470   1.829  0.7835 -0.6367 -1.6283
 5237TIP3    H237271   2.560   2.464   1.859  0.8542  1.4842 -0.6255
 5238TIP3   OH237272   5.201   2.259   2.121  0.0672 -1.1197 -0.2899
 5238TIP3    H137273   5.139   2.279   2.191  0.5268 -0.2007 -0.1330
 5238TIP3    H237274   5.286   2.262   2.163  0.2930 -1.3429 -0.7266
 5239TIP3   OH237275   0.782   2.254   7.852  0.2609  0.3153 -0.5228
 5239TIP3    H137276   0.872   2.284   7.855  0.5228 -0.4768 -0.1892
 5239TIP3    H237277   0.771   2.219   7.764  0.2298  0.5599 -0.6154
 5240TIP3   OH237278   5.793   6.125   8.775  0.2789  0.2681 -0.0245
 5240TIP3    H137279   5.781   6.191   8.707  0.3127  1.7584  1.3714
 5240TIP3    H237280   5.705   6.104   8.806  0.1935 -1.0212 -1.0326
 5241TIP3   OH237281   1.552   2.858   1.773  0.1391 -0.0475 -0.2412
 5241TIP3    H137282   1.480   2.797   1.764 -0.4855  0.7627 -0.8964
 5241TIP3    H237283   1.609   2.840   1.698  1.0539 -1.2235  0.7050
 5242TIP3   OH237284   5.354   1.988   1.476  0.3022  0.2770  0.1402
 5242TIP3    H137285   5.385   1.898   1.468 -0.4926 -0.1297  1.3159
 5242TIP3    H237286   5.316   1.993   1.564  0.8209  1.9160  0.3166
 5243TIP3   OH237287   0.870   0.394   0.364  0.1168 -0.1254 -0.2008
 5243TIP3    H137288   0.854   0.396   0.270  1.1957 -2.0479 -0.4570
 5243TIP3    H237289   0.963   0.372   0.373 -0.3049 -1.5019  1.2876
 5244TIP3   OH237290   4.556   6.321   1.426  0.2952 -0.7035 -0.9114
 5244TIP3    H137291   4.489   6.313   1.359 -0.2641  0.2403 -0.4979
 5244TIP3    H237292   4.517   6.281   1.504 -0.6200  1.5155 -0.1399
 5245TIP3   OH237293   6.752   2.246   7.222 -0.4869  0.0957 -0.4976
 5245TIP3    H137294   6.680   2.185   7.234  0.2657 -0.3798  2.5353
 5245TIP3    H237295   6.750   2.268   7.129 -2.1093 -2.8781 -1.2966
 5246TIP3   OH237296   0.663   2.412   8.209  0.0241  0.0642  0.6913
 5246TIP3    H137297   0.696   2.485   8.262  1.2643  0.2548 -0.2923
 5246TIP3    H237298   0.631   2.453   8.129 -0.3270 -0.3760  0.6019
 5247TIP3   OH237299   0.080   1.809   6.999 -0.1842 -0.5456  0.0035
 5247TIP3    H137300   0.134   1.781   7.073 -2.3892  0.3704  2.0733
 5247TIP3    H237301   0.077   1.905   7.007  2.1847 -0.0249 -3.2958
 5248TIP3   OH237302   6.582   6.666   7.331  0.1787  0.2064  0.5079
 5248TIP3    H137303   6.593   6.571   7.334  0.5177  0.2386  0.4067
 5248TIP3    H237304   6.553   6.684   7.241 -0.6542  0.1293  0.7523
 5249TIP3   OH237305   2.453   4.505   1.924 -0.1005  0.1342 -0.4735
 5249TIP3    H137306   2.447   4.537   1.834  2.8133  0.1481 -0.7463
 5249TIP3    H237307   2.505   4.425   1.918 -1.0477 -0.6598  1.0766
 5250TIP3   OH237308   5.519   0.904   7.748  0.2016 -0.2108  0.0824
 5250TIP3    H137309   5.445   0.844   7.737 -0.6296  0.9133 -0.5879
 5250TIP3    H237310   5.481   0.991   7.740  1.3892  0.4303  1.0507
 5251TIP3   OH237311   2.305   5.750   2.988  0.2124 -0.0928 -0.3515
 5251TIP3    H137312   2.312   5.749   3.084 -2.5419 -0.7248 -0.0900
 5251TIP3    H237313   2.266   5.835   2.967 -0.7447 -0.6204 -0.7480
 5252TIP3   OH237314   5.038   6.251   7.696  0.3724  0.1290  0.2650
 5252TIP3    H137315   4.998   6.333   7.666  0.5283 -0.1144 -0.6288
 5252TIP3    H237316   5.124   6.250   7.655  0.4275 -0.4161  0.3907
 5253TIP3   OH237317   5.038   5.788   7.344  0.3636 -0.2573  0.4951
 5253TIP3    H137318   5.105   5.855   7.344  2.2377 -2.0156  1.3992
 5253TIP3    H237319   4.988   5.803   7.263  0.4843  2.3310  0.8197
 5254TIP3   OH237320   5.629   4.806   7.820  0.5323 -0.4251 -0.3790
 5254TIP3    H137321   5.567   4.738   7.847  1.3760 -0.9736  0.2297
 5254TIP3    H237322   5.703   4.795   7.880 -1.2962  4.2702  3.4136
 5255TIP3   OH237323   0.747   2.938   1.924  0.7949 -0.0268  0.6089
 5255TIP3    H137324   0.782   2.870   1.867  2.3059 -0.2165  1.7193
 5255TIP3    H237325   0.665   2.901   1.958  1.2010 -0.9818  0.5815
 5256TIP3   OH237326   5.241   5.201   8.360  0.7488  0.1886  0.0409
 5256TIP3    H137327   5.160   5.186   8.409  0.6820  0.0098 -0.1236
 5256TIP3    H237328   5.305   5.228   8.426  0.0866  2.1349 -0.0744
 5257TIP3   OH237329   3.968   0.298   2.106  0.1805  0.1393 -0.1696
 5257TIP3    H137330   4.028   0.331   2.039  1.0180 -0.8003  0.0755
 5257TIP3    H237331   3.882   0.300   2.065  0.7815 -1.2033 -1.6174
 5258TIP3   OH237332   2.386   6.082   2.939 -0.2252  0.2630  0.0831
 5258TIP3    H137333   2.456   6.023   2.909 -0.9543 -2.0327  2.5017
 5258TIP3    H237334   2.425   6.132   3.010 -0.7386 -0.3708  0.8322
 5259TIP3   OH237335   3.379   5.280   8.304  0.1145 -0.3840  0.3765
 5259TIP3    H137336   3.349   5.292   8.214 -0.9058 -1.0414  0.6187
 5259TIP3    H237337   3.424   5.362   8.326 -1.2165  0.5029 -0.1096
 5260TIP3   OH237338   2.552   4.196   8.721  0.6724  0.2085 -0.4239
 5260TIP3    H137339   2.607   4.275   8.723 -1.1074  1.5244 -1.2196
 5260TIP3    H237340   2.538   4.179   8.628  0.7595 -0.8795 -0.2500
 5261TIP3   OH237341   3.946   3.985   3.022  0.9374  0.2510 -0.3901
 5261TIP3    H137342   3.974   3.975   2.930 -1.4160  0.4381 -1.1892
 5261TIP3    H237343   3.852   3.970   3.020  0.5961  1.6571  1.7863
 5262TIP3   OH237344   1.636   1.455   1.450  0.0023  0.0975  0.3687
 5262TIP3    H137345   1.712   1.428   1.502 -0.0922 -0.4088  0.2460
 5262TIP3    H237346   1.639   1.400   1.372 -1.1833 -0.8026  0.9236
 5263TIP3   OH237347   5.754   2.223   2.199 -0.4126 -0.1759  0.2770
 5263TIP3    H137348   5.841   2.185   2.192  0.0734  1.0604 -0.8475
 5263TIP3    H237349   5.696   2.149   2.217  0.7081 -1.1849 -0.1628
 5264TIP3   OH237350   5.521   0.486   0.625  0.5164  1.0120  0.3268
 5264TIP3    H137351   5.603   0.497   0.576  0.5957 -1.3377 -0.2081
 5264TIP3    H237352   5.454   0.475   0.557  0.1806  0.4124  0.7431
 5265TIP3   OH237353   3.596   5.976   2.061 -0.1550  0.1205 -0.0430
 5265TIP3    H137354   3.637   5.956   2.145 -1.6210  0.9305  0.9070
 5265TIP3    H237355   3.669   6.000   2.004  0.8657 -0.4225  0.9949
 5266TIP3   OH237356   3.919   1.507   8.237 -0.5663  0.2590 -0.2531
 5266TIP3    H137357   3.975   1.512   8.314 -0.7841 -1.6135  0.0710
 5266TIP3    H237358   3.949   1.428   8.191 -1.8900  0.1186 -0.9203
 5267TIP3   OH237359   6.346   5.384   1.506 -0.3939 -0.1128 -0.3942
 5267TIP3    H137360   6.415   5.375   1.572 -0.2716 -2.3158 -0.7446
 5267TIP3    H237361   6.376   5.456   1.450  0.1006  0.9715  1.1896
 5268TIP3   OH237362   6.315   6.733   8.768  0.0928  0.1314 -0.0744
 5268TIP3    H137363   6.305   6.719   8.674 -1.7643  1.2900 -0.0938
 5268TIP3    H237364   6.292   6.648   8.808 -1.6100  0.3054 -0.5883
 5269TIP3   OH237365   2.067   2.506   1.721  0.3002 -0.4977  0.1235
 5269TIP3    H137366   2.072   2.418   1.684  2.3440  0.9777 -3.7598
 5269TIP3    H237367   1.984   2.540   1.690  0.6424 -0.2835 -0.5926
 5270TIP3   OH237368   5.393   5.149   0.807 -0.0040  0.4303  0.0087
 5270TIP3    H137369   5.388   5.111   0.895 -0.1381  0.6356  0.0911
 5270TIP3    H237370   5.398   5.243   0.823  1.2832  0.4063 -0.1545
 5271TIP3   OH237371   0.984   3.093   1.898 -0.0645 -0.0372  0.4419
 5271TIP3    H137372   0.929   3.023   1.933 -1.6024  0.3128 -1.1372
 5271TIP3    H237373   0.986   3.077   1.803  1.5481  0.7022  0.3062
 5272TIP3   OH237374   5.513   6.761   6.666  1.3939  0.5178 -0.6242
 5272TIP3    H137375   5.449   6.724   6.604 -2.8654  2.6780  2.0180
 5272TIP3    H237376   5.526   6.692   6.731  1.8475  0.0784 -1.1611
 5273TIP3   OH237377   1.768   2.666   0.830  0.2079 -0.2318  0.1036
 5273TIP3    H137378   1.817   2.674   0.748  1.7687 -2.6464  0.7100
 5273TIP3    H237379   1.682   2.636   0.804 -0.2621  1.7498 -0.8062
 5274TIP3   OH237380   2.328   5.814   7.328 -0.2000  0.0440 -0.6952
 5274TIP3    H137381   2.412   5.788   7.365  1.2494  1.6302 -2.6582
 5274TIP3    H237382   2.264   5.759   7.373  2.1043 -3.1849 -1.0726
 5275TIP3   OH237383   1.589   2.371   0.701 -0.3015 -0.1124  0.0585
 5275TIP3    H137384   1.560   2.462   0.697  0.2449  0.1609  1.6522
 5275TIP3    H237385   1.680   2.373   0.670 -0.8290 -0.4290 -1.6191
 5276TIP3   OH237386   2.776   5.621   1.063  0.1475 -0.4444 -0.1432
 5276TIP3    H137387   2.846   5.686   1.053  0.1531 -0.3648  0.4102
 5276TIP3    H237388   2.819   5.547   1.107  0.0255 -0.6368 -0.3465
 5277TIP3   OH237389   0.002   2.535   2.028 -0.1172 -0.6228  0.3007
 5277TIP3    H137390   0.083   2.536   2.079 -0.4878  0.3005  0.9163
 5277TIP3    H237391  -0.006   2.625   1.995 -0.3025 -1.0108 -0.7104
 5278TIP3   OH237392   3.214   1.295   1.764  0.7239  0.2450 -0.2148
 5278TIP3    H137393   3.180   1.206   1.752  0.2079  0.4885 -0.5814
 5278TIP3    H237394   3.157   1.350   1.710  1.2786  0.7515 -0.2934
 5279TIP3   OH237395   6.375   4.312   7.107  0.0525  0.0781  0.9789
 5279TIP3    H137396   6.320   4.258   7.163 -1.9051 -0.6253 -1.4839
 5279TIP3    H237397   6.320   4.385   7.081  0.6862  0.0766 -0.4875
 5280TIP3   OH237398   2.734   5.989   2.373 -0.1226  0.5308  0.2382
 5280TIP3    H137399   2.804   5.970   2.435 -0.0009 -2.3828 -0.6409
 5280TIP3    H237400   2.659   5.938   2.406 -0.6741  0.6145 -0.8525
 5281TIP3   OH237401   3.718   1.598   8.085 -0.7555 -0.2121 -0.0129
 5281TIP3    H137402   3.799   1.553   8.110 -1.4760 -0.3967  2.2102
 5281TIP3    H237403   3.733   1.689   8.110 -0.8011  0.0043 -0.7423
 5282TIP3   OH237404   5.298   3.564   1.738 -0.4698  0.1130 -0.1086
 5282TIP3    H137405   5.374   3.515   1.707 -0.0497  1.1403 -0.7511
 5282TIP3    H237406   5.226   3.501   1.736  0.3245 -0.8233  0.3358
 5283TIP3   OH237407   6.749   4.259   1.791 -0.1329  0.6828  0.8801
 5283TIP3    H137408   6.837   4.230   1.770 -0.4080 -0.0162  0.6679
 5283TIP3    H237409   6.692   4.192   1.754 -0.7497  1.0710  1.1088
 5284TIP3   OH237410   2.757   4.186   2.824  0.2207 -0.1517 -0.0898
 5284TIP3    H137411   2.759   4.220   2.734  1.1044 -1.5835 -0.6480
 5284TIP3    H237412   2.847   4.195   2.855  0.1118 -0.4743  0.3293
 5285TIP3   OH237413   2.134   1.702   7.650 -0.0071  0.0888  0.1885
 5285TIP3    H137414   2.072   1.714   7.721 -2.1787  0.0835 -1.5824
 5285TIP3    H237415   2.084   1.721   7.571  2.1789 -0.2568 -1.3879
 5286TIP3   OH237416   3.682   0.815   1.957 -0.3003 -0.3935  0.0926
 5286TIP3    H137417   3.751   0.819   2.023  1.1823  1.2572 -1.4374
 5286TIP3    H237418   3.640   0.902   1.961 -0.1840 -0.2647 -1.1016
 5287TIP3   OH237419   6.424   5.449   1.195 -0.0208 -0.2513  0.1664
 5287TIP3    H137420   6.417   5.436   1.100  0.3376 -1.8257  0.3200
 5287TIP3    H237421   6.517   5.466   1.210  0.0259 -0.6008  0.2870
 5288TIP3   OH237422   0.127   2.450   0.912 -0.3312 -0.0204 -0.2909
 5288TIP3    H137423   0.082   2.530   0.888 -1.2467 -0.1505  0.9263
 5288TIP3    H237424   0.132   2.452   1.007 -0.1548 -1.2893 -0.2490
 5289TIP3   OH237425   0.424   3.611   0.932  0.4120 -0.0257  0.0138
 5289TIP3    H137426   0.486   3.651   0.993 -0.1685  0.1686  0.4832
 5289TIP3    H237427   0.424   3.670   0.856 -0.7389  1.1049  0.8697
 5290TIP3   OH237428   1.987   5.526   1.694 -0.4314  0.0284  0.1469
 5290TIP3    H137429   2.000   5.480   1.611  0.6728  1.0958 -0.3184
 5290TIP3    H237430   1.972   5.457   1.758 -0.1313 -0.8893 -0.7396
 5291TIP3   OH237431   1.300   0.571   8.213  0.1912  0.2418 -0.1297
 5291TIP3    H137432   1.227   0.626   8.185 -0.3147 -0.6860 -0.6856
 5291TIP3    H237433   1.330   0.611   8.295 -1.5144  0.1392  0.5864
 5292TIP3   OH237434   2.902   2.660   7.340 -0.4584 -0.1779 -0.6904
 5292TIP3    H137435   2.974   2.599   7.351 -0.2747 -0.0178 -0.9838
 5292TIP3    H237436   2.841   2.615   7.281  0.1074  0.2809 -1.6459
 5293TIP3   OH237437   6.201   1.864   1.736 -0.3150 -0.3043  0.1396
 5293TIP3    H137438   6.140   1.928   1.698 -0.0283 -0.4001 -0.4917
 5293TIP3    H237439   6.287   1.895   1.709 -0.2003 -1.2885 -0.7130
 5294TIP3   OH237440   4.148   3.778   0.822  0.6544 -0.3229 -0.2258
 5294TIP3    H137441   4.198   3.757   0.901  0.6453 -0.4189 -0.2458
 5294TIP3    H237442   4.154   3.873   0.815  1.4148 -0.3932 -0.6067
 5295TIP3   OH237443   6.239   4.783   1.502 -0.4804  0.6314 -0.3106
 5295TIP3    H137444   6.166   4.831   1.541 -1.4095 -2.1425  1.6557
 5295TIP3    H237445   6.280   4.737   1.575  1.9998  0.4804 -1.6841
 5296TIP3   OH237446   5.216   3.428   0.932  0.1041  0.1898 -0.1627
 5296TIP3    H137447   5.228   3.441   1.026 -1.0537  0.8426 -0.0922
 5296TIP3    H237448   5.122   3.419   0.921  0.2576 -0.2387 -1.2277
 5297TIP3   OH237449   0.913   0.440   1.243 -0.3919 -0.3087 -0.3110
 5297TIP3    H137450   0.891   0.529   1.215 -1.7409 -0.4286  0.2727
 5297TIP3    H237451   0.906   0.443   1.338  0.0058 -0.9264 -0.2625
 5298TIP3   OH237452   4.467   1.247   2.317  0.4786  0.0015  0.1336
 5298TIP3    H137453   4.550   1.273   2.277 -1.1942  3.0942 -1.7065
 5298TIP3    H237454   4.446   1.317   2.378 -1.7957  0.5026 -1.1119
 5299TIP3   OH237455   6.744   0.150   1.002  0.1406  0.1492 -0.0380
 5299TIP3    H137456   6.754   0.127   1.094  0.2441 -1.4147 -0.4102
 5299TIP3    H237457   6.779   0.074   0.954  1.7881  1.6625 -1.3833
 5300TIP3   OH237458   0.098   1.961   0.334  0.8982 -0.5019 -0.2399
 5300TIP3    H137459   0.013   2.003   0.324  0.4581 -1.2508  0.2876
 5300TIP3    H237460   0.160   2.034   0.338  0.3716  0.0231 -1.3724
 5301TIP3   OH237461   3.467   1.310   8.004  0.3415 -0.1378 -0.2461
 5301TIP3    H137462   3.486   1.375   7.936  2.2189 -0.7135 -0.3249
 5301TIP3    H237463   3.544   1.312   8.061  0.2196 -1.9297  0.0314
 5302TIP3   OH237464   1.911   3.001   0.722  0.0845  0.0461 -0.0784
 5302TIP3    H137465   1.852   2.984   0.795 -1.6062  2.4547 -0.7425
 5302TIP3    H237466   1.973   3.066   0.756  0.2700 -0.0047 -0.3194
 5303TIP3   OH237467   0.870   4.628   7.438  0.5779  0.0482  0.0426
 5303TIP3    H137468   0.869   4.548   7.490  3.1143 -0.4142 -0.5190
 5303TIP3    H237469   0.785   4.669   7.456 -0.1941 -2.0143  1.4670
 5304TIP3   OH237470   5.361   5.105   1.073  1.1413 -0.1126  0.2838
 5304TIP3    H137471   5.307   5.149   1.138  0.0409  0.0436 -0.7042
 5304TIP3    H237472   5.450   5.137   1.090  0.7163  0.7046  1.0510
 5305TIP3   OH237473   1.813   1.529   8.170 -0.3404 -0.2969  0.2228
 5305TIP3    H137474   1.723   1.507   8.146  0.0625 -0.6108 -1.1129
 5305TIP3    H237475   1.865   1.497   8.096  0.8435  0.0959  0.8677
 5306TIP3   OH237476   3.317   0.281   1.686 -0.2589 -0.3556  0.0775
 5306TIP3    H137477   3.276   0.346   1.629 -2.8352 -3.6428 -2.2100
 5306TIP3    H237478   3.360   0.221   1.625  1.0241 -1.4701  1.9954
 5307TIP3   OH237479   2.867   2.127   8.138 -0.3982  0.0566  0.5042
 5307TIP3    H137480   2.903   2.039   8.146  3.2661  1.3921  0.8081
 5307TIP3    H237481   2.774   2.118   8.158 -0.5743 -3.9717 -1.3464
 5308TIP3   OH237482   3.801   5.946   1.781  0.2509 -0.0280 -0.4662
 5308TIP3    H137483   3.739   6.018   1.772 -1.3109 -0.9398  1.9870
 5308TIP3    H237484   3.881   5.987   1.816 -0.6487  0.5538  0.9969
 5309TIP3   OH237485   3.992   3.679   7.072 -0.5260  0.0434  1.5044
 5309TIP3    H137486   3.966   3.721   6.990 -0.5429 -0.9055  1.0092
 5309TIP3    H237487   4.087   3.674   7.068 -0.6183 -1.9969  0.4880
 5310TIP3   OH237488   0.864   3.654   0.758  0.5662 -0.3996 -0.4622
 5310TIP3    H137489   0.832   3.565   0.769 -2.8762  0.8524  1.1121
 5310TIP3    H237490   0.803   3.708   0.809  2.1731  2.9275 -1.7477
 5311TIP3   OH237491   3.358   0.601   1.557  0.8639 -0.1490  0.3078
 5311TIP3    H137492   3.300   0.670   1.525 -0.8996 -1.1485  1.2352
 5311TIP3    H237493   3.434   0.604   1.498 -0.7435  0.2802 -1.8316
 5312TIP3   OH237494   1.816   3.558   7.878 -0.1803 -0.0714  0.0417
 5312TIP3    H137495   1.740   3.583   7.825 -0.4758 -0.6571  0.1837
 5312TIP3    H237496   1.878   3.630   7.867 -0.4084  0.0062 -0.7667
 5313TIP3   OH237497   6.440   6.528   8.154 -0.6147 -0.2768 -0.3580
 5313TIP3    H137498   6.490   6.542   8.073 -0.4376  0.9857 -0.0541
 5313TIP3    H237499   6.487   6.458   8.200  0.7648  0.7258 -0.1937
 5314TIP3   OH237500   4.769   4.871   7.607  0.2032  0.1005  0.8277
 5314TIP3    H137501   4.781   4.939   7.540  1.4681 -0.3712  0.5348
 5314TIP3    H237502   4.675   4.872   7.626 -0.2786 -0.0007 -1.2533
 5315TIP3   OH237503   6.571   5.221   7.857  0.4758  0.2243  0.5350
 5315TIP3    H137504   6.603   5.280   7.789  0.5625 -1.1890 -0.7100
 5315TIP3    H237505   6.525   5.152   7.809 -1.4276  0.3463  2.0599
 5316TIP3   OH237506   4.848   2.595   8.524  0.5535  0.3931  0.4600
 5316TIP3    H137507   4.756   2.602   8.549  0.0107 -0.1819 -1.1984
 5316TIP3    H237508   4.888   2.540   8.592 -0.4485  0.2179  0.9277
 5317TIP3   OH237509   2.823   5.190   2.715 -0.1264  0.1895  0.1303
 5317TIP3    H137510   2.896   5.136   2.745 -0.6880 -1.2432 -0.9967
 5317TIP3    H237511   2.795   5.237   2.793  1.2273 -0.1383  0.8493
 5318TIP3   OH237512   6.365   1.225   2.733  0.6039 -0.3033 -0.4676
 5318TIP3    H137513   6.334   1.189   2.650 -0.0154  0.4516 -0.5784
 5318TIP3    H237514   6.355   1.154   2.796 -2.8558  0.3097 -0.1566
 5319TIP3   OH237515   1.045   6.188   7.618  0.3951 -0.3334 -0.6272
 5319TIP3    H137516   0.978   6.152   7.562 -1.7126  1.7640  0.3875
 5319TIP3    H237517   1.120   6.204   7.560  0.7142 -4.0856 -1.5003
 5320TIP3   OH237518   5.819   2.657   1.960 -0.0411  0.7116  0.3215
 5320TIP3    H137519   5.748   2.594   1.951  0.7028  0.1823 -2.8399
 5320TIP3    H237520   5.894   2.605   1.987 -0.0265  0.6729  0.2065
 5321TIP3   OH237521   0.640   4.479   0.989 -0.0959 -0.3874  0.0742
 5321TIP3    H137522   0.581   4.528   1.047 -0.9566 -1.4365  0.0985
 5321TIP3    H237523   0.712   4.540   0.972 -1.7106  1.3514 -0.8787
 5322TIP3   OH237524   6.727   1.361   7.568  0.6258 -0.4308  0.3470
 5322TIP3    H137525   6.783   1.341   7.494 -0.9706 -0.4527 -0.9199
 5322TIP3    H237526   6.702   1.452   7.556 -0.0166 -0.5695  0.5750
 5323TIP3   OH237527   2.529   2.709   7.494 -0.2670 -0.4197 -0.0825
 5323TIP3    H137528   2.514   2.688   7.402 -0.1211  0.1511 -0.2388
 5323TIP3    H237529   2.442   2.714   7.533 -0.4325  1.1363 -0.5954
 5324TIP3   OH237530   2.371   6.465   1.321 -0.1541 -0.3950 -0.2755
 5324TIP3    H137531   2.334   6.376   1.323  0.4225 -0.6314  1.2270
 5324TIP3    H237532   2.457   6.454   1.280 -0.6256 -0.3014 -1.2984
 5325TIP3   OH237533   0.659   3.637   8.131 -0.2253 -0.1718  0.7010
 5325TIP3    H137534   0.625   3.699   8.067 -1.5599 -0.3850  1.1708
 5325TIP3    H237535   0.628   3.552   8.102  0.5916 -0.4805  0.7116
 5326TIP3   OH237536   4.857   3.982   7.485 -0.0704 -0.5088  0.2618
 5326TIP3    H137537   4.833   4.072   7.509  0.5056  0.0330 -1.1034
 5326TIP3    H237538   4.773   3.936   7.484 -0.3773 -0.0055  0.9756
 5327TIP3   OH237539   2.750   4.692   0.705 -0.0002 -0.5000 -0.0690
 5327TIP3    H137540   2.829   4.680   0.758  0.3298 -0.6585 -0.5791
 5327TIP3    H237541   2.683   4.721   0.766  0.6646  0.4115  0.2410
 5328TIP3   OH237542   6.659   1.612   0.995 -0.1404  0.1714  0.3041
 5328TIP3    H137543   6.723   1.544   0.973  0.6661  0.6156  1.2159
 5328TIP3    H237544   6.701   1.694   0.972 -0.6433  0.4350  0.3012
 5329TIP3   OH237545   3.768   0.867   0.617  0.4959  0.5547  0.0963
 5329TIP3    H137546   3.811   0.814   0.684  1.9690  2.2892  0.6114
 5329TIP3    H237547   3.687   0.820   0.597  0.1916 -0.2588  2.8068
 5330TIP3   OH237548   2.743   2.116   1.950  0.0595 -0.1368  0.1464
 5330TIP3    H137549   2.837   2.120   1.971  0.1762  0.1796 -0.4220
 5330TIP3    H237550   2.715   2.207   1.953 -0.6818 -0.3714  2.2526
 5331TIP3   OH237551   4.592   6.776   2.916 -0.2476 -0.2229  0.2334
 5331TIP3    H137552   4.536   6.801   2.989 -0.1798 -0.1467  0.2594
 5331TIP3    H237553   4.681   6.776   2.953 -0.4336 -2.9108  0.9111
 5332TIP3   OH237554   1.020   1.664   8.242 -0.1030 -0.1665 -0.0364
 5332TIP3    H137555   0.982   1.725   8.304 -2.1322 -0.8652 -0.5245
 5332TIP3    H237556   1.067   1.719   8.179  0.6389  0.6416  1.1754
 5333TIP3   OH237557   6.352   1.507   7.405 -0.0678 -0.0846 -0.4682
 5333TIP3    H137558   6.355   1.427   7.457 -1.0649  0.1551 -0.0170
 5333TIP3    H237559   6.287   1.488   7.337  0.3875  0.0155 -0.9449
 5334TIP3   OH237560   6.140   0.716   1.190  0.0733 -0.4828 -0.0561
 5334TIP3    H137561   6.166   0.759   1.108  2.6900 -1.0205  0.4027
 5334TIP3    H237562   6.217   0.723   1.246 -0.5963 -2.7879  1.2731
 5335TIP3   OH237563   4.334   2.550   7.655 -0.3903 -0.8014 -0.7355
 5335TIP3    H137564   4.312   2.642   7.638 -1.6949 -0.8146  0.6687
 5335TIP3    H237565   4.271   2.523   7.722  0.5783 -2.4619 -0.4636
 5336TIP3   OH237566   3.447   6.290   2.993  0.0905 -0.5906  0.3566
 5336TIP3    H137567   3.356   6.289   3.021  0.2654 -1.3892  0.9519
 5336TIP3    H237568   3.485   6.211   3.032  0.7936 -0.7999 -0.6902
 5337TIP3   OH237569   3.297   2.620   0.185  0.5220  0.3179  0.6684
 5337TIP3    H137570   3.347   2.569   0.121 -0.3470  0.6399 -0.2808
 5337TIP3    H237571   3.295   2.564   0.263 -1.5470 -1.7487 -0.7392
 5338TIP3   OH237572   4.426   3.120   1.342  0.5172 -0.8316 -0.1313
 5338TIP3    H137573   4.508   3.078   1.367  1.1448  0.6079  0.3642
 5338TIP3    H237574   4.438   3.140   1.248  0.7231 -0.6748 -0.0738
 5339TIP3   OH237575   2.197   4.840   8.283  0.1205 -0.0967  0.3308
 5339TIP3    H137576   2.152   4.829   8.200  1.5587  0.7695 -0.6117
 5339TIP3    H237577   2.241   4.757   8.299  0.7005  0.0738 -0.3332
 5340TIP3   OH237578   1.182   2.885   0.831  0.4536  0.5951 -0.2815
 5340TIP3    H137579   1.215   2.837   0.907 -1.4895 -2.7924 -1.3284
 5340TIP3    H237580   1.241   2.860   0.759  0.7841  1.7174 -0.4142
 5341TIP3   OH237581   5.812   0.450   0.060 -0.0828  0.2032 -0.5499
 5341TIP3    H137582   5.890   0.452   0.116 -1.0982  0.2941  0.9256
 5341TIP3    H237583   5.763   0.528   0.086 -1.0302 -0.2648 -0.8944
 5342TIP3   OH237584   0.977   3.917   0.799  0.3341 -0.1828 -0.1309
 5342TIP3    H137585   0.920   3.979   0.755  0.0145 -0.8908 -0.7238
 5342TIP3    H237586   0.932   3.833   0.792 -0.2023 -0.1756  2.3818
 5343TIP3   OH237587   6.756   6.511   8.026 -0.3333  0.3744  0.0966
 5343TIP3    H137588   6.710   6.554   7.954 -0.7240  0.0193  0.1351
 5343TIP3    H237589   6.788   6.583   8.080 -0.2978  0.6349 -0.2634
 5344TIP3   OH237590   6.648   6.254   7.915 -0.1220  0.3478  0.2127
 5344TIP3    H137591   6.705   6.314   7.964  0.1170 -0.3808  0.8472
 5344TIP3    H237592   6.648   6.289   7.826  0.3714  1.0336  0.4694
 5345TIP3   OH237593   0.602   4.194   0.964 -0.1110 -0.4272 -0.8694
 5345TIP3    H137594   0.594   4.288   0.948 -0.7886 -0.6202 -1.7438
 5345TIP3    H237595   0.631   4.158   0.880  1.4698 -0.8549 -0.1890
 5346TIP3   OH237596   4.836   5.511   2.464  0.3383 -0.2537 -0.0639
 5346TIP3    H137597   4.786   5.460   2.528 -0.3482 -2.2341 -2.0515
 5346TIP3    H237598   4.925   5.514   2.500 -0.2945 -0.2377  1.5545
 5347TIP3   OH237599   2.735   5.885   0.681 -0.3163  0.7836 -0.2434
 5347TIP3    H137600   2.804   5.827   0.650  1.7479  2.1394  1.4998
 5347TIP3    H237601   2.669   5.827   0.718  0.9692 -0.5155  0.0907
 5348TIP3   OH237602   2.619   0.671   1.141 -0.2912 -0.4018 -0.4367
 5348TIP3    H137603   2.678   0.598   1.124  0.3659  0.0341 -0.0513
 5348TIP3    H237604   2.594   0.702   1.054 -2.3015 -2.4114 -0.6818
 5349TIP3   OH237605   3.570   1.907   7.902  0.3748  0.1621  0.0299
 5349TIP3    H137606   3.483   1.903   7.861 -0.1354 -0.9413  1.1669
 5349TIP3    H237607   3.618   1.834   7.862 -0.2600 -1.1879  1.6018
 5350TIP3   OH237608   5.871   2.458   7.356 -0.1602  0.3833  0.1564
 5350TIP3    H137609   5.807   2.388   7.370  1.2905 -1.0507 -0.1189
 5350TIP3    H237610   5.955   2.413   7.351  0.6580  1.9847 -1.6507
 5351TIP3   OH237611   4.212   6.037   3.081 -0.2612 -0.0552 -0.5274
 5351TIP3    H137612   4.145   6.048   3.148 -0.2036 -1.5485 -0.2055
 5351TIP3    H237613   4.294   6.029   3.130 -0.0660  0.0329 -0.8357
 5352TIP3   OH237614   5.529   4.553   7.772 -0.0663 -0.0992 -0.8345
 5352TIP3    H137615   5.608   4.500   7.781 -0.6887 -1.3757 -2.4242
 5352TIP3    H237616   5.464   4.508   7.825  0.3411  1.2052  0.8480
 5353TIP3   OH237617   5.096   2.946   2.274  0.0990  0.5185 -0.6574
 5353TIP3    H137618   5.034   3.015   2.250 -1.5010  0.3310  2.4831
 5353TIP3    H237619   5.169   2.993   2.315  0.1445  0.4624 -0.6735
 5354TIP3   OH237620   4.013   0.266   1.089 -0.0461  0.1217 -0.0334
 5354TIP3    H137621   4.072   0.191   1.082 -1.5647 -1.0043 -1.6618
 5354TIP3    H237622   3.927   0.228   1.108 -0.5711  1.5801  0.6843
 5355TIP3   OH237623   6.116   0.747   1.565 -0.5199  0.4890  0.3952
 5355TIP3    H137624   6.170   0.727   1.642  0.9297 -0.6104 -0.8336
 5355TIP3    H237625   6.117   0.666   1.514 -3.3292  0.4588  0.2519
 5356TIP3   OH237626   5.059   6.277   8.439  0.0843 -0.0900 -0.6326
 5356TIP3    H137627   5.092   6.254   8.353 -0.8024  0.8945 -1.2666
 5356TIP3    H237628   5.045   6.372   8.435  0.6719  0.0859  0.8258
 5357TIP3   OH237629   0.673   2.787   7.655 -0.0708  0.5877 -0.0484
 5357TIP3    H137630   0.747   2.815   7.600  0.2270  0.9306  0.5212
 5357TIP3    H237631   0.666   2.692   7.640  1.5418  0.2412  1.1353
 5358TIP3   OH237632   1.856   1.546   2.796  0.0789 -0.3029 -0.3612
 5358TIP3    H137633   1.781   1.591   2.835  1.0843  0.3966  0.8740
 5358TIP3    H237634   1.819   1.488   2.730 -1.6530 -0.8065  0.9862
 5359TIP3   OH237635   0.500   4.298   8.337  0.0731  0.7404  0.6683
 5359TIP3    H137636   0.515   4.205   8.352  1.4704  0.9903  0.9077
 5359TIP3    H237637   0.548   4.342   8.407  0.8698  1.7049 -0.4433
 5360TIP3   OH237638   1.806   2.581   1.618  0.3561  0.1597  0.6116
 5360TIP3    H137639   1.774   2.536   1.540  1.4783  2.8960 -1.5951
 5360TIP3    H237640   1.735   2.571   1.682 -1.6999 -0.1448 -1.5869
 5361TIP3   OH237641   0.250   3.288   2.272 -0.6185 -0.5393 -0.5195
 5361TIP3    H137642   0.179   3.310   2.333  0.9325  0.3225  1.0863
 5361TIP3    H237643   0.227   3.333   2.191 -1.7533 -0.0406  0.0599
 5362TIP3   OH237644   5.565   2.425   1.821 -0.1839 -0.0521 -0.3503
 5362TIP3    H137645   5.649   2.408   1.780 -0.7309 -0.8620 -1.1851
 5362TIP3    H237646   5.584   2.433   1.915  1.2446  2.8356 -0.7911
 5363TIP3   OH237647   6.371   4.566   7.890  0.2913 -0.3860  0.4567
 5363TIP3    H137648   6.285   4.554   7.930  0.4235 -0.1853  0.8041
 5363TIP3    H237649   6.405   4.477   7.879  0.5562 -0.4288  1.4606
 5364TIP3   OH237650   5.348   2.676   1.703 -0.2146 -0.4177  0.1057
 5364TIP3    H137651   5.405   2.657   1.628  0.7539  1.5786  0.2640
 5364TIP3    H237652   5.362   2.603   1.763  0.9328 -0.7862 -0.5751
 5365TIP3   OH237653   1.687   0.166   1.963  0.2896  0.1053 -0.3971
 5365TIP3    H137654   1.702   0.117   1.883  0.1072  0.1324 -0.4494
 5365TIP3    H237655   1.619   0.117   2.009  0.2242  0.2174 -0.3726
 5366TIP3   OH237656   5.399   6.688   0.984 -0.1459 -0.3359  0.3137
 5366TIP3    H137657   5.372   6.664   0.896  1.3081  2.8689 -1.1699
 5366TIP3    H237658   5.389   6.783   0.987 -0.2473 -0.3414  3.6770
 5367TIP3   OH237659   3.052   0.950   3.148 -0.4937 -0.2725 -0.2959
 5367TIP3    H137660   3.113   1.024   3.152 -0.5630 -0.2578  1.7385
 5367TIP3    H237661   3.108   0.873   3.143 -0.3450 -0.1646 -0.3083
 5368TIP3   OH237662   2.367   0.087   2.075 -0.4548 -0.6533  0.4711
 5368TIP3    H137663   2.275   0.104   2.096 -0.3897  1.1327 -0.5311
 5368TIP3    H237664   2.415   0.106   2.155 -0.8627 -0.7927  0.7524
 5369TIP3   OH237665   4.203   0.183   8.051  0.5394 -0.4920  0.1948
 5369TIP3    H137666   4.176   0.142   7.968  0.8443 -2.2701  0.9163
 5369TIP3    H237667   4.135   0.247   8.070 -2.3071 -3.5320  1.0539
 5370TIP3   OH237668   5.699   0.162   6.617 -0.2759  0.2060 -0.5774
 5370TIP3    H137669   5.653   0.090   6.661 -0.1941  0.6309  0.2174
 5370TIP3    H237670   5.685   0.145   6.524 -2.4229  0.5355 -0.3762
 5371TIP3   OH237671   2.290   6.801   0.240  0.0005  0.0801 -0.4747
 5371TIP3    H137672   2.292   6.747   0.320 -1.1135  0.8575  0.1083
 5371TIP3    H237673   2.235   6.751   0.179  1.5198 -0.9130 -1.0948
 5372TIP3   OH237674   1.951   2.021   1.927  0.3411 -0.2055  0.0284
 5372TIP3    H137675   1.963   1.966   2.005  0.2965 -1.2975 -0.7252
 5372TIP3    H237676   2.014   1.988   1.864  0.7223  0.9960 -0.2597
 5373TIP3   OH237677   4.224   4.039   3.107 -0.0304 -0.4135 -0.1407
 5373TIP3    H137678   4.139   4.007   3.078 -1.1894  3.2645 -1.3701
 5373TIP3    H237679   4.211   4.067   3.197  0.0447 -0.5176 -0.0986
 5374TIP3   OH237680   6.445   3.529   8.519  0.4111  0.0111  0.0319
 5374TIP3    H137681   6.402   3.612   8.537  2.2033  0.8559  0.6793
 5374TIP3    H237682   6.394   3.464   8.567 -1.4250  0.5939 -1.0467
 5375TIP3   OH237683   4.139   0.451   0.692 -0.2192  0.3391  0.1832
 5375TIP3    H137684   4.057   0.413   0.723 -1.1250  0.6881 -1.6794
 5375TIP3    H237685   4.127   0.463   0.598  1.5867  1.3708  0.0286
 5376TIP3   OH237686   1.366   1.390   1.578  0.3589  0.1905  0.4143
 5376TIP3    H137687   1.448   1.430   1.553 -0.0622  0.7322 -0.1200
 5376TIP3    H237688   1.319   1.458   1.627 -0.8056  0.7604 -1.4037
 5377TIP3   OH237689   5.149   5.214   7.736  0.4216  0.6401  0.2111
 5377TIP3    H137690   5.137   5.124   7.765 -0.2190  0.6586  0.0086
 5377TIP3    H237691   5.133   5.210   7.641  0.2173  0.9976  0.2314
 5378TIP3   OH237692   4.199   4.096   8.049  0.1454  0.4579  0.1484
 5378TIP3    H137693   4.160   4.180   8.072 -0.6141 -0.1526  1.2238
 5378TIP3    H237694   4.246   4.069   8.128 -0.6502 -0.6742  0.2740
 5379TIP3   OH237695   4.111   2.934   0.822 -0.4065 -0.3938  0.1895
 5379TIP3    H137696   4.168   2.907   0.750  0.3058  0.2353  0.5051
 5379TIP3    H237697   4.073   2.852   0.854 -1.3674 -0.6018 -1.4126
 5380TIP3   OH237698   1.144   2.234   1.542 -0.7656 -0.5834  0.6596
 5380TIP3    H137699   1.103   2.154   1.573 -2.7603  0.4014  0.7149
 5380TIP3    H237700   1.095   2.258   1.463 -1.1191  1.2490  1.3712
 5381TIP3   OH237701   6.432   2.345   1.315  0.2123 -0.5390  0.1016
 5381TIP3    H137702   6.417   2.320   1.406  0.1272 -0.2401  0.1719
 5381TIP3    H237703   6.344   2.356   1.279  0.2219 -1.6840 -0.3119
 5382TIP3   OH237704   4.887   0.878   2.534  0.5728 -0.0465  0.5562
 5382TIP3    H137705   4.834   0.856   2.457 -0.1669  0.4605  0.9054
 5382TIP3    H237706   4.978   0.866   2.505  0.3310  0.6750 -0.5690
 5383TIP3   OH237707   3.642   6.008   0.772 -0.1036 -0.5613  0.1069
 5383TIP3    H137708   3.583   6.036   0.842 -0.7448  1.1133 -1.0458
 5383TIP3    H237709   3.622   6.066   0.698  1.5227 -1.3408 -1.0196
 5384TIP3   OH237710   4.417   4.011   7.869 -0.0668 -0.1737 -0.2241
 5384TIP3    H137711   4.335   3.991   7.913  0.3084 -0.4677  0.3455
 5384TIP3    H237712   4.422   4.107   7.869  0.2116 -0.1756  0.9151
 5385TIP3   OH237713   1.610   6.536   7.044  0.6562 -0.6789 -0.1382
 5385TIP3    H137714   1.538   6.500   7.097 -0.8901  2.0028 -0.2474
 5385TIP3    H237715   1.582   6.522   6.954 -0.2550  1.2023 -0.1848
 5386TIP3   OH237716   4.425   6.027   2.886  0.0273  0.6142 -0.4107
 5386TIP3    H137717   4.341   6.053   2.925  0.0974  0.5580 -0.2163
 5386TIP3    H237718   4.434   5.935   2.911  0.4273  0.7802  0.0853
 5387TIP3   OH237719   5.970   4.071   8.129 -0.0111 -0.5926  0.3663
 5387TIP3    H137720   6.062   4.065   8.103 -0.2641 -0.8723 -0.5061
 5387TIP3    H237721   5.949   3.984   8.164 -0.1782 -0.8174 -0.2735
 5388TIP3   OH237722   4.338   1.276   8.423 -0.1121  0.2931  0.2096
 5388TIP3    H137723   4.388   1.228   8.490 -1.0270 -0.7151  0.1977
 5388TIP3    H237724   4.399   1.343   8.391  0.5229  0.4361  1.6565
 5389TIP3   OH237725   5.583   6.545   7.684 -0.1813 -0.1311 -0.6010
 5389TIP3    H137726   5.545   6.553   7.771 -0.6539 -0.5646 -0.7665
 5389TIP3    H237727   5.648   6.475   7.692  0.9914  0.9646 -0.1856
 5390TIP3   OH237728   0.121   5.835   0.239 -0.8230 -0.1241 -0.0890
 5390TIP3    H137729   0.095   5.744   0.227 -0.4624 -0.3669  0.8782
 5390TIP3    H237730   0.217   5.832   0.237 -0.8130  0.3073 -0.4836
 5391TIP3   OH237731   5.172   1.984   2.376 -0.5148 -0.0767 -0.5391
 5391TIP3    H137732   5.247   2.043   2.377 -0.0470 -0.6686 -0.1978
 5391TIP3    H237733   5.103   2.032   2.422 -0.1924  0.2679 -0.4049
 5392TIP3   OH237734   0.762   0.084   1.815 -0.3653  0.2518 -0.5456
 5392TIP3    H137735   0.811   0.041   1.745 -3.1500  1.6884 -3.6373
 5392TIP3    H237736   0.811   0.165   1.833  0.4271 -0.1770 -0.7065
 5393TIP3   OH237737   2.476   1.748   2.909 -0.0239  0.6359  0.4462
 5393TIP3    H137738   2.466   1.829   2.858  1.2266  1.1902  1.0522
 5393TIP3    H237739   2.435   1.681   2.854 -2.2173  1.8511  0.4852
 5394TIP3   OH237740   0.349   1.829   8.034 -0.2351  0.0007  0.1744
 5394TIP3    H137741   0.375   1.769   7.965  0.1987 -1.6975  1.7431
 5394TIP3    H237742   0.280   1.882   7.995 -0.3153 -1.2129 -1.4146
 5395TIP3   OH237743   2.516   6.617   7.425  0.2675 -0.3358  0.2523
 5395TIP3    H137744   2.421   6.627   7.424  0.3214  0.1713  0.1304
 5395TIP3    H237745   2.544   6.643   7.337  0.5294 -0.3955  0.3159
 5396TIP3   OH237746   6.017   6.333   3.274 -0.8554 -0.2165  0.0936
 5396TIP3    H137747   6.112   6.321   3.275 -0.8892 -0.5437 -0.4338
 5396TIP3    H237748   6.005   6.424   3.300 -0.3412  0.1530 -0.9336
 5397TIP3   OH237749   3.632   0.768   8.439 -0.6281  0.1667  0.1708
 5397TIP3    H137750   3.672   0.855   8.451 -0.1955 -0.2110  1.7907
 5397TIP3    H237751   3.658   0.719   8.517 -0.0948 -1.7446 -1.1452
 5398TIP3   OH237752   4.454   1.974   1.519  0.2957  0.5429  0.0553
 5398TIP3    H137753   4.428   1.939   1.434  2.2008 -1.0434  0.0502
 5398TIP3    H237754   4.400   2.052   1.530 -1.0952 -0.0558 -1.8991
 5399TIP3   OH237755   2.554   3.685   1.588  0.7290  0.1308  0.2284
 5399TIP3    H137756   2.547   3.776   1.559  2.2564 -0.0969 -0.9305
 5399TIP3    H237757   2.466   3.649   1.574  0.3760  1.1388 -0.2733
 5400TIP3   OH237758   1.437   2.611   1.607  0.3204 -0.2814  0.0481
 5400TIP3    H137759   1.435   2.562   1.525  0.3969  0.2261 -0.2626
 5400TIP3    H237760   1.490   2.558   1.666  2.1434  0.3757 -0.9229
 5401TIP3   OH237761   2.471   4.033   7.440 -0.3404 -0.1215 -0.0599
 5401TIP3    H137762   2.528   3.996   7.508 -1.0327 -0.8963  0.1255
 5401TIP3    H237763   2.384   3.997   7.460 -0.6526  0.0490 -1.0564
 5402TIP3   OH237764   0.688   1.302   1.143  0.7493  0.6146 -0.1564
 5402TIP3    H137765   0.760   1.359   1.170  0.8699  0.2489  0.3060
 5402TIP3    H237766   0.611   1.359   1.141  0.5938  0.5409  1.6311
 5403TIP3   OH237767   5.322   1.085   2.850  0.0266 -0.3004 -0.3739
 5403TIP3    H137768   5.333   1.024   2.923 -1.3579  1.0453  1.0168
 5403TIP3    H237769   5.408   1.125   2.839  1.3683 -3.3189 -2.1941
 5404TIP3   OH237770   3.534   5.673   8.602  0.4559 -0.0032  0.4768
 5404TIP3    H137771   3.608   5.621   8.634  0.1413 -1.1060 -0.5611
 5404TIP3    H237772   3.559   5.699   8.514  0.0352  0.4871  0.4992
 5405TIP3   OH237773   1.271   1.410   2.279 -0.2674  0.6331  0.6645
 5405TIP3    H137774   1.230   1.452   2.355 -1.6612 -0.5907  0.6217
 5405TIP3    H237775   1.364   1.408   2.301 -0.5407  1.0786  1.9585
 5406TIP3   OH237776   5.330   4.818   8.554 -0.3227 -0.0883  0.6724
 5406TIP3    H137777   5.411   4.870   8.549 -0.5989  0.4824  1.6884
 5406TIP3    H237778   5.329   4.767   8.474  0.9575  0.0411  0.5518
 5407TIP3   OH237779   5.837   0.746   1.651 -0.5494 -0.4712  0.3057
 5407TIP3    H137780   5.917   0.795   1.669  0.3407 -1.3819 -1.0084
 5407TIP3    H237781   5.779   0.768   1.724  0.5806  0.8542  0.8582
 5408TIP3   OH237782   6.087   3.986   3.086 -0.4316 -0.0614 -0.1709
 5408TIP3    H137783   6.068   3.976   2.993 -2.6560  0.6092  0.1624
 5408TIP3    H237784   6.176   4.022   3.088 -0.4345  0.1666 -2.0350
 5409TIP3   OH237785   4.035   4.437   1.247 -0.1641 -0.2596 -0.3152
 5409TIP3    H137786   3.947   4.445   1.210  0.4479 -0.4286 -1.8800
 5409TIP3    H237787   4.053   4.343   1.247 -0.0090 -0.2325  0.0610
 5410TIP3   OH237788   4.835   2.988   1.864  0.4094  0.0880  0.3508
 5410TIP3    H137789   4.832   2.893   1.853 -0.9732  0.1865 -0.3033
 5410TIP3    H237790   4.765   3.007   1.926  0.6004  0.6983  0.3862
 5411TIP3   OH237791   1.792   3.573   2.854  0.5819 -0.0452  0.4952
 5411TIP3    H137792   1.743   3.649   2.887 -0.3219  0.1038 -1.0881
 5411TIP3    H237793   1.726   3.517   2.814  1.4233 -1.0027  0.4003
 5412TIP3   OH237794   4.023   6.028   7.472 -0.3887 -0.5337 -0.1834
 5412TIP3    H137795   4.091   6.029   7.540 -1.2573 -1.4082  0.7300
 5412TIP3    H237796   4.006   5.935   7.456 -1.0058 -0.3294 -0.7791
 5413TIP3   OH237797   1.520   3.730   1.877  0.1214  0.5426  0.0197
 5413TIP3    H137798   1.555   3.686   1.954  0.5939  1.1900  0.1837
 5413TIP3    H237799   1.572   3.810   1.869 -0.4684  0.8865 -0.4907
 5414TIP3   OH237800   6.233   2.097   3.606 -0.0858  0.0647  0.5825
 5414TIP3    H137801   6.325   2.069   3.615 -0.0135  0.0860 -0.0749
 5414TIP3    H237802   6.198   2.042   3.536 -1.0807 -1.1842  1.9970
 5415TIP3   OH237803   4.095   6.109   8.230  0.5928  0.2037 -0.3471
 5415TIP3    H137804   4.184   6.107   8.195  1.1226  0.0735  0.9292
 5415TIP3    H237805   4.102   6.067   8.316 -0.8572 -0.4939 -0.5432
 5416TIP3   OH237806   4.239   3.326   8.695 -0.4453 -0.4988  0.3970
 5416TIP3    H137807   4.197   3.286   8.771  0.3738 -2.2170  0.0060
 5416TIP3    H237808   4.190   3.407   8.680 -2.1301 -1.2944  1.3078
 5417TIP3   OH237809   4.389   3.112   1.934  0.6849 -0.0079  0.1132
 5417TIP3    H137810   4.434   3.138   2.014  1.7163 -1.1629 -0.0611
 5417TIP3    H237811   4.457   3.111   1.867 -0.1666  0.9695 -0.8067
 5418TIP3   OH237812   1.353   1.223   8.478  0.1692 -0.3497 -0.5495
 5418TIP3    H137813   1.281   1.182   8.526  0.5303  0.5417  0.8131
 5418TIP3    H237814   1.312   1.294   8.430  0.1674  0.4475  0.5858
 5419TIP3   OH237815   3.618   2.793   0.887  0.1179  0.0556  0.3047
 5419TIP3    H137816   3.580   2.833   0.809  0.7929 -0.3647 -0.2533
 5419TIP3    H237817   3.711   2.817   0.883  0.4200 -1.0759  0.2636
 5420TIP3   OH237818   4.053   4.855   0.489 -0.3051  0.0322  0.2184
 5420TIP3    H137819   3.976   4.902   0.520  0.3724  1.7252 -0.5499
 5420TIP3    H237820   4.115   4.924   0.464 -0.2334 -1.1984 -3.5107
 5421TIP3   OH237821   0.886   6.277   0.284 -0.6648 -0.6115 -0.3539
 5421TIP3    H137822   0.964   6.332   0.275 -0.9396 -0.2704 -0.7053
 5421TIP3    H237823   0.813   6.338   0.272 -0.9883 -0.9060  0.0971
 5422TIP3   OH237824   2.036   4.216   2.889 -0.4873 -0.3500  0.2441
 5422TIP3    H137825   1.942   4.209   2.909 -0.2045  1.2735  2.5174
 5422TIP3    H237826   2.046   4.304   2.851  0.0121 -0.8696 -0.8713
 5423TIP3   OH237827   0.585   4.448   2.269  0.1333  0.4138 -0.0553
 5423TIP3    H137828   0.543   4.401   2.341  0.8311 -0.2844 -0.0890
 5423TIP3    H237829   0.553   4.405   2.190 -0.9517  1.4430 -0.2041
 5424TIP3   OH237830   2.978   5.060   8.504 -0.3213  0.4437 -0.4173
 5424TIP3    H137831   3.010   5.122   8.569  0.2484  0.1766 -0.4367
 5424TIP3    H237832   3.051   5.050   8.443 -1.0429  1.1234 -1.4236
 5425TIP3   OH237833   3.423   4.892   7.755 -0.8560 -0.0892 -0.1093
 5425TIP3    H137834   3.366   4.838   7.701 -0.4038 -0.5416 -0.1414
 5425TIP3    H237835   3.392   4.982   7.741 -0.9634 -0.2385 -0.8394
 5426TIP3   OH237836   1.781   1.691   2.135  0.2940 -0.2260  0.1780
 5426TIP3    H137837   1.735   1.774   2.122 -0.1723 -0.2629  1.4019
 5426TIP3    H237838   1.740   1.653   2.214  1.7097 -0.7593  0.6940
 5427TIP3   OH237839   1.516   0.545   7.828 -0.0985  0.1054  0.0079
 5427TIP3    H137840   1.460   0.472   7.851  0.1068 -0.2582 -0.6289
 5427TIP3    H237841   1.462   0.623   7.843 -1.6116 -0.2965 -2.7268
 5428TIP3   OH237842   6.777   3.022   2.257  0.3539 -0.0129 -0.4224
 5428TIP3    H137843   6.808   2.934   2.236 -2.1039 -0.9982 -0.3352
 5428TIP3    H237844   6.797   3.034   2.349  1.6746  0.0043 -0.6873
 5429TIP3   OH237845   5.743   2.899   7.606  0.2564 -0.4521 -0.4657
 5429TIP3    H137846   5.775   2.972   7.552  0.2980  0.1357  0.3298
 5429TIP3    H237847   5.803   2.827   7.587  1.6338  0.4025  0.4140
 5430TIP3   OH237848   5.523   2.296   1.490 -0.1646  0.1031  0.2671
 5430TIP3    H137849   5.508   2.259   1.403  0.5380  1.2263 -0.3538
 5430TIP3    H237850   5.571   2.228   1.538  0.1068 -0.2285 -0.4719
 5431TIP3   OH237851   2.281   0.887   2.303  0.0085 -0.0371 -0.0572
 5431TIP3    H137852   2.215   0.956   2.310 -1.0406 -0.9101 -0.9547
 5431TIP3    H237853   2.365   0.933   2.302 -0.7183  1.3199 -1.8070
 5432TIP3   OH237854   0.094   0.684   8.688  0.2781  0.9957  0.1807
 5432TIP3    H137855   0.013   0.733   8.699 -0.4360  0.0887 -0.7854
 5432TIP3    H237856   0.127   0.709   8.602  0.8371  1.0909  0.4174
 5433TIP3   OH237857   2.616   0.798   2.072 -0.1236  0.4066 -0.4140
 5433TIP3    H137858   2.670   0.789   2.150  0.0512  0.5926 -0.5118
 5433TIP3    H237859   2.589   0.890   2.071 -0.7274  0.2376 -0.1807
 5434TIP3   OH237860   3.342   6.706   2.097  0.4955 -0.0758 -0.4255
 5434TIP3    H137861   3.386   6.630   2.057 -1.4853 -0.7013 -1.5460
 5434TIP3    H237862   3.351   6.692   2.191  2.0384 -0.5388 -0.6110
 5435TIP3   OH237863   6.094   4.419   8.693  0.1834 -0.2038 -0.3411
 5435TIP3    H137864   6.128   4.430   8.604 -1.4763  0.8113 -0.8961
 5435TIP3    H237865   6.007   4.381   8.681  0.3302 -0.9875  0.9178
 5436TIP3   OH237866   0.887   3.078   7.834 -0.2663 -0.5196  0.2150
 5436TIP3    H137867   0.980   3.072   7.857 -0.2317 -2.0855 -0.1782
 5436TIP3    H237868   0.854   3.151   7.886  1.3309  0.5291 -0.1797
 5437TIP3   OH237869   2.850   1.210   7.385  0.2370  0.7277 -0.1430
 5437TIP3    H137870   2.792   1.178   7.316 -0.1023 -0.6326  0.7222
 5437TIP3    H237871   2.935   1.219   7.343  0.6277 -2.4080 -0.2707
 5438TIP3   OH237872   5.177   4.374   1.415  0.3800 -0.1444  0.1003
 5438TIP3    H137873   5.223   4.364   1.498  3.2006 -1.2798 -1.4519
 5438TIP3    H237874   5.244   4.360   1.348 -2.0819 -1.1313 -2.4043
 5439TIP3   OH237875   1.759   6.293   0.263  0.2247  0.3710 -0.2619
 5439TIP3    H137876   1.785   6.306   0.354  0.7776  0.8786 -0.4894
 5439TIP3    H237877   1.667   6.320   0.260  0.2633  0.5435  0.1042
 5440TIP3   OH237878   6.436   4.327   7.818 -0.1552 -0.0318 -0.2673
 5440TIP3    H137879   6.503   4.297   7.757 -1.7823 -2.0117 -1.2227
 5440TIP3    H237880   6.470   4.302   7.904  0.2747 -1.1570 -0.7453
 5441TIP3   OH237881   4.407   6.489   7.561 -0.3497  0.0806  0.3168
 5441TIP3    H137882   4.485   6.447   7.524 -0.4913  0.1048 -0.0188
 5441TIP3    H237883   4.398   6.570   7.510 -0.5284  0.1311  0.4304
 5442TIP3   OH237884   6.500   5.564   3.265  0.2886  0.3913  0.3217
 5442TIP3    H137885   6.458   5.630   3.321  0.6971  0.6357  0.3471
 5442TIP3    H237886   6.466   5.481   3.297  0.7288  0.5092  1.1322
 5443TIP3   OH237887   6.301   1.056   1.197  0.0371  0.8087 -0.0618
 5443TIP3    H137888   6.322   1.127   1.137  0.3199  1.8868  1.2502
 5443TIP3    H237889   6.296   0.978   1.142  0.9592  1.6280 -1.3600
 5444TIP3   OH237890   3.269   4.547   0.794  0.5544 -0.1371 -0.1457
 5444TIP3    H137891   3.236   4.555   0.883  1.1124  4.1899 -0.1026
 5444TIP3    H237892   3.192   4.564   0.738  0.8609  0.7445 -0.3210
 5445TIP3   OH237893   1.575   5.494   0.995 -0.3029 -0.6692 -0.2319
 5445TIP3    H137894   1.527   5.454   1.067  2.2534 -0.2809  1.8393
 5445TIP3    H237895   1.665   5.463   1.006  0.5397  0.8124 -2.2444
 5446TIP3   OH237896   5.304   4.380   1.046 -0.6843  0.0039  0.2168
 5446TIP3    H137897   5.264   4.330   0.974 -1.1065  0.0316  0.4335
 5446TIP3    H237898   5.334   4.313   1.108  0.6963 -0.0881 -0.4904
 5447TIP3   OH237899   2.235   1.724   8.747  0.7683  0.1134 -0.2588
 5447TIP3    H137900   2.276   1.801   8.786  0.3012 -0.5132  1.5725
 5447TIP3    H237901   2.214   1.668   8.822 -2.2121 -0.1772 -1.2177
 5448TIP3   OH237902   6.402   6.599   7.110  0.1311 -0.1124  0.2885
 5448TIP3    H137903   6.308   6.585   7.116 -0.1307  0.0686 -2.4305
 5448TIP3    H237904   6.414   6.693   7.120 -0.1769  0.0793 -1.0478
 5449TIP3   OH237905   1.365   2.652   8.431  0.0668 -0.4938  0.1001
 5449TIP3    H137906   1.309   2.673   8.506 -0.4710 -0.5624 -0.2740
 5449TIP3    H237907   1.451   2.686   8.455 -0.3147  0.3254  0.3590
 5450TIP3   OH237908   3.573   0.567   2.803 -0.1015 -0.4231 -0.0576
 5450TIP3    H137909   3.535   0.587   2.889  1.9417 -1.1941  1.0905
 5450TIP3    H237910   3.667   0.584   2.814  0.3109 -1.2824 -1.9183
 5451TIP3   OH237911   2.057   3.745   8.662 -0.3821 -0.6326  0.4495
 5451TIP3    H137912   1.969   3.706   8.660 -1.0429  0.8080  0.3608
 5451TIP3    H237913   2.115   3.670   8.676 -1.6778 -1.5100  1.4480
 5452TIP3   OH237914   2.364   4.127   1.145 -0.2049  0.4252  0.7125
 5452TIP3    H137915   2.343   4.200   1.087 -1.1625  0.6835  1.3726
 5452TIP3    H237916   2.296   4.129   1.212 -1.3366 -2.1974 -0.2436
 5453TIP3   OH237917   6.474   4.435   0.629  0.8021  0.2675 -0.3445
 5453TIP3    H137918   6.562   4.398   0.642  0.5688 -1.2659 -2.6526
 5453TIP3    H237919   6.453   4.416   0.538 -1.9212  0.6532  0.1326
 5454TIP3   OH237920   3.679   1.861   8.197 -0.2540  0.1658  0.3179
 5454TIP3    H137921   3.659   1.879   8.105 -0.3443 -0.4217  0.2193
 5454TIP3    H237922   3.726   1.939   8.227  0.3448  0.0939 -0.3999
 5455TIP3   OH237923   0.637   3.286   7.509 -0.0182 -0.4081 -0.0110
 5455TIP3    H137924   0.668   3.310   7.597 -2.1122  0.2212  0.6319
 5455TIP3    H237925   0.658   3.362   7.455 -1.9263  0.8236  0.8370
 5456TIP3   OH237926   3.404   5.565   7.637 -0.0021 -0.2618  0.1777
 5456TIP3    H137927   3.400   5.500   7.707 -0.6807 -1.4927 -0.9741
 5456TIP3    H237928   3.322   5.554   7.590 -0.0996  1.3980 -0.1006
 5457TIP3   OH237929   0.423   1.007   2.673  0.1455  0.0769 -0.2535
 5457TIP3    H137930   0.346   0.954   2.696  0.4404 -0.3521 -0.2533
 5457TIP3    H237931   0.429   1.001   2.577  0.6256 -0.5176 -0.1905
 5458TIP3   OH237932   4.738   1.068   1.460  0.0024 -0.5192  0.1976
 5458TIP3    H137933   4.788   1.136   1.415 -0.4591  0.1304  0.6487
 5458TIP3    H237934   4.694   1.114   1.532  1.7094 -1.7027  2.1286
 5459TIP3   OH237935   0.864   3.428   1.580 -0.5834  0.2192  0.0811
 5459TIP3    H137936   0.831   3.492   1.643 -2.7151 -3.0367  2.5974
 5459TIP3    H237937   0.959   3.434   1.587 -0.7169  2.3419  0.9117
 5460TIP3   OH237938   0.167   4.942   1.135 -0.0214  0.2330  0.7001
 5460TIP3    H137939   0.163   4.855   1.174  0.5551 -0.1442 -0.0618
 5460TIP3    H237940   0.166   4.927   1.041  2.7461  0.8401  0.4835
 5461TIP3   OH237941   2.233   5.060   0.373  0.0557  0.1003  0.8267
 5461TIP3    H137942   2.222   5.087   0.282 -0.9891 -0.6402  0.7121
 5461TIP3    H237943   2.146   5.066   0.411  0.1399 -1.2403  1.3030
 5462TIP3   OH237944   5.364   6.069   8.228  0.6541 -0.1013 -0.3121
 5462TIP3    H137945   5.283   6.071   8.177  1.5531  1.7628 -1.8028
 5462TIP3    H237946   5.340   6.105   8.314 -0.3427 -0.7940 -0.2963
 5463TIP3   OH237947   3.000   6.745   7.752  0.1679 -0.2489  0.7254
 5463TIP3    H137948   2.980   6.817   7.692 -0.1721 -1.1976 -0.3121
 5463TIP3    H237949   2.917   6.727   7.796  0.2451 -0.0360  0.9611
 5464TIP3   OH237950   3.018   2.106   0.798  0.4017 -0.2120 -0.2785
 5464TIP3    H137951   3.108   2.082   0.779  0.5779  0.4065 -0.2302
 5464TIP3    H237952   3.003   2.186   0.747  0.1272  0.1142  0.3058
 5465TIP3   OH237953   3.214   0.067   8.032 -0.1028 -0.4528  0.4314
 5465TIP3    H137954   3.170   0.143   8.071  0.2938 -0.0981  0.1928
 5465TIP3    H237955   3.302   0.068   8.069  0.2061 -0.2435 -0.2863
 5466TIP3   OH237956   3.242   1.002   0.717  0.1003 -0.7841  0.6396
 5466TIP3    H137957   3.201   1.083   0.685 -0.5887 -1.3717 -0.0198
 5466TIP3    H237958   3.336   1.020   0.715 -0.0308 -0.0883  0.2625
 5467TIP3   OH237959   6.104   2.733   1.494  0.0898 -0.4495 -0.1290
 5467TIP3    H137960   6.054   2.750   1.574 -0.6814 -0.8883 -0.5021
 5467TIP3    H237961   6.053   2.775   1.425  0.5814 -0.3481 -0.4354
 5468TIP3   OH237962   6.502   1.259   8.319 -0.2503  0.1777 -0.0730
 5468TIP3    H137963   6.416   1.263   8.362 -0.2668  0.0255 -0.0932
 5468TIP3    H237964   6.534   1.171   8.337  0.3059  0.5243  0.7149
 5469TIP3   OH237965   3.863   6.358   8.108  0.3121  0.4135 -0.8735
 5469TIP3    H137966   3.884   6.265   8.115  1.1487  0.7063  1.2050
 5469TIP3    H237967   3.795   6.373   8.173  0.9019  1.4261 -0.4628
 5470TIP3   OH237968   0.927   2.837   0.665 -0.7398  0.0784 -0.6074
 5470TIP3    H137969   0.885   2.922   0.676  1.6396  1.4712 -1.5548
 5470TIP3    H237970   0.976   2.823   0.745  0.7385  0.7636 -1.3573
 5471TIP3   OH237971   0.151   6.405   8.414 -0.6583 -0.2279  0.1622
 5471TIP3    H137972   0.121   6.495   8.425  1.5328  0.6136 -0.2484
 5471TIP3    H237973   0.143   6.388   8.320  0.1706  0.0400  0.0333
 5472TIP3   OH237974   1.406   2.842   8.633  0.0136 -0.2503  0.0549
 5472TIP3    H137975   1.439   2.774   8.693  1.3398  0.6598  0.3962
 5472TIP3    H237976   1.318   2.861   8.665 -0.1044 -1.2931  0.3911
 5473TIP3   OH237977   4.407   5.316   7.600  0.0137  0.0863 -0.1424
 5473TIP3    H137978   4.372   5.335   7.513  1.0740 -2.8911 -1.3829
 5473TIP3    H237979   4.498   5.291   7.584  0.9332  1.5744  2.1721
 5474TIP3   OH237980   5.506   4.074   7.608 -0.1848  0.1573  0.4551
 5474TIP3    H137981   5.512   4.139   7.678  0.3634  2.1463 -1.3460
 5474TIP3    H237982   5.412   4.059   7.598 -0.2476 -1.1751  2.4329
 5475TIP3   OH237983   2.912   0.572   1.440 -0.1119  0.6221 -0.0521
 5475TIP3    H137984   2.944   0.646   1.492 -0.2372  0.2190  0.6199
 5475TIP3    H237985   2.820   0.592   1.424 -0.1167  0.6726  0.0349
 5476TIP3   OH237986   1.602   1.480   0.183  0.1495  0.1265 -0.4947
 5476TIP3    H137987   1.513   1.466   0.150 -0.9994  0.5492  2.1508
 5476TIP3    H237988   1.637   1.551   0.129 -0.9594 -0.2974 -1.8280
 5477TIP3   OH237989   1.913   5.915   7.912 -0.4551  0.1126  0.2079
 5477TIP3    H137990   1.944   5.999   7.946  2.3393 -1.0313  0.7004
 5477TIP3    H237991   1.904   5.931   7.817 -0.2580  1.0492  0.3283
 5478TIP3   OH237992   3.951   6.018   8.707  0.3558 -0.3832 -0.2433
 5478TIP3    H137993   3.909   5.975   8.782  0.6789  0.0822  0.2088
 5478TIP3    H237994   3.890   6.005   8.634  0.4004 -1.5193 -0.0943
 5479TIP3   OH237995   5.671   5.592   2.746 -0.6206 -0.2470  0.0592
 5479TIP3    H137996   5.658   5.588   2.652 -0.7566  0.2915  0.0550
 5479TIP3    H237997   5.685   5.501   2.772  0.6126 -0.2906 -0.6495
 5480TIP3   OH237998   5.663   4.938   0.049  0.3610 -0.0484 -0.3475
 5480TIP3    H137999   5.629   4.874  -0.014  0.2681  0.5502 -0.9061
 5480TIP3    H238000   5.683   5.015  -0.003  1.3700  0.0600  0.1788
 5481TIP3   OH238001   1.086   1.799   8.715 -0.4402 -0.1715 -0.2571
 5481TIP3    H138002   1.129   1.766   8.636  0.2889  1.6276 -0.6648
 5481TIP3    H238003   1.007   1.843   8.683 -0.0199  0.7682 -0.0282
 5482TIP3   OH238004   5.991   0.175   7.989 -0.0695  0.0342  0.4045
 5482TIP3    H138005   6.009   0.261   7.951  1.6525  2.0433  4.9726
 5482TIP3    H238006   6.078   0.136   7.998 -0.8036 -2.1453 -1.2192
 5483TIP3   OH238007   3.131   0.687   7.829 -0.3271 -0.2597 -0.5934
 5483TIP3    H138008   3.091   0.705   7.914  2.0502  0.2150  0.5059
 5483TIP3    H238009   3.063   0.639   7.780 -2.8179  1.9303  0.4446
 5484TIP3   OH238010   2.758   1.154   7.123 -0.2967 -0.3892 -0.4453
 5484TIP3    H138011   2.690   1.205   7.078 -1.7042 -1.2031  0.6566
 5484TIP3    H238012   2.709   1.091   7.176  1.3205 -0.3152  1.2103
 5485TIP3   OH238013   4.519   2.345   8.288 -0.3835 -0.4247 -0.1091
 5485TIP3    H138014   4.493   2.436   8.271  0.1453 -0.0915  0.8203
 5485TIP3    H238015   4.614   2.347   8.283 -0.1755 -0.3349  2.6073
 5486TIP3   OH238016   2.849   3.161   0.531 -0.2271  0.0488  0.2076
 5486TIP3    H138017   2.870   3.067   0.533  0.0107  0.0336 -1.4577
 5486TIP3    H238018   2.755   3.165   0.547 -0.1237 -0.4170  0.9700
 5487TIP3   OH238019   5.708   0.308   0.326 -0.1063 -0.5027  0.1740
 5487TIP3    H138020   5.637   0.318   0.262 -1.5104 -0.1575  1.7233
 5487TIP3    H238021   5.710   0.215   0.345 -0.9967 -0.3680  1.0160
 5488TIP3   OH238022   1.091   4.835   8.370 -0.4309 -0.5946 -0.0736
 5488TIP3    H138023   1.057   4.924   8.375 -0.0696 -0.4995  0.8111
 5488TIP3    H238024   1.086   4.801   8.459 -0.2707 -1.3530 -0.3383
 5489TIP3   OH238025   5.450   0.944   8.362 -0.2943 -0.2945 -0.1056
 5489TIP3    H138026   5.356   0.932   8.376 -0.6798  1.6735 -0.7303
 5489TIP3    H238027   5.470   1.027   8.405  1.0055 -0.3100 -0.6324
 5490TIP3   OH238028   3.785   4.017   8.674 -0.1269 -0.5563 -0.5003
 5490TIP3    H138029   3.698   3.999   8.709  0.7564 -1.6121  1.3237
 5490TIP3    H238030   3.789   4.112   8.668 -1.0904 -0.4454  0.2974
 5491TIP3   OH238031   2.979   2.705   8.370  0.5389 -0.4580  0.3283
 5491TIP3    H138032   2.913   2.774   8.368 -1.7804 -2.5605 -0.4572
 5491TIP3    H238033   3.030   2.718   8.291  0.6475  0.7690  0.5726
 5492TIP3   OH238034   5.987   5.306   2.187  0.6177  0.3589  0.2181
 5492TIP3    H138035   6.021   5.277   2.271  0.1505  1.0602  0.6580
 5492TIP3    H238036   6.029   5.391   2.172 -0.4042  0.9214  0.4459
 5493TIP3   OH238037   4.565   0.096   8.368  0.5119  0.6753 -0.4396
 5493TIP3    H138038   4.646   0.047   8.356  0.6221  0.0369  2.1385
 5493TIP3    H238039   4.589   0.187   8.355  1.5773  0.4609 -0.0849
 5494TIP3   OH238040   2.652   0.996   7.300  0.4640 -0.2378  0.2271
 5494TIP3    H138041   2.562   1.012   7.330  1.5156  1.0213  3.1294
 5494TIP3    H238042   2.683   0.925   7.357  1.3031 -0.6965 -0.7837
 5495TIP3   OH238043   1.502   4.736   8.219  0.2430 -0.2646 -0.3260
 5495TIP3    H138044   1.412   4.761   8.196  0.8630  0.1299 -2.6153
 5495TIP3    H238045   1.497   4.709   8.311 -2.4409 -1.3182 -0.6789
 5496TIP3   OH238046   3.720   4.490   8.680 -0.0786 -0.0939  0.4979
 5496TIP3    H138047   3.729   4.572   8.728  1.1090 -0.2615  0.5714
 5496TIP3    H238048   3.713   4.517   8.588  1.0014  0.0734  0.4512
 5497TIP3   OH238049   4.725   5.533   2.193 -0.1920  0.4959 -0.1005
 5497TIP3    H138050   4.637   5.553   2.226  0.3178  1.1129  0.9289
 5497TIP3    H238051   4.769   5.492   2.268  0.3967  0.1737 -0.6190
 5498TIP3   OH238052   5.425   1.460   0.127  0.0710  0.2200 -0.5201
 5498TIP3    H138053   5.456   1.521   0.060  0.9668  0.5808  0.2094
 5498TIP3    H238054   5.469   1.487   0.207 -0.9338 -0.2510  0.2135
 5499TIP3   OH238055   6.195   2.271   2.229 -0.2257 -0.2901  0.3507
 5499TIP3    H138056   6.171   2.185   2.261  2.9218 -1.4590 -0.0644
 5499TIP3    H238057   6.225   2.319   2.306 -1.1706  0.1657  0.4502
 5500TIP3   OH238058   3.095   5.885   0.317  0.2659  0.6126 -0.1608
 5500TIP3    H138059   3.065   5.887   0.226  1.5010  0.1665 -0.6037
 5500TIP3    H238060   3.019   5.856   0.367 -0.4744  0.9927 -1.0246
 5501TIP3   OH238061   1.933   0.014   8.289 -0.4051 -0.0309  0.0444
 5501TIP3    H138062   1.929  -0.081   8.287  1.4040 -0.1309 -1.1061
 5501TIP3    H238063   2.003   0.034   8.352  1.1987  0.3727 -1.7513
 5502TIP3   OH238064   5.728   3.068   8.714  0.1915  0.3208  0.0617
 5502TIP3    H138065   5.641   3.046   8.678  0.5466 -0.9806 -0.0608
 5502TIP3    H238066   5.717   3.155   8.751 -0.8143  0.7549 -1.1578
 5503TIP3   OH238067   0.054   1.830   2.044  0.5017  0.4004  0.4792
 5503TIP3    H138068   0.118   1.901   2.043  1.6871 -0.6184 -1.3961
 5503TIP3    H238069   0.064   1.791   2.131  2.9783 -0.1571  0.0250
 5504TIP3   OH238070   6.540   0.166   2.221 -0.1436 -0.1870  0.1469
 5504TIP3    H138071   6.630   0.167   2.252 -0.2599 -1.0579  0.5503
 5504TIP3    H238072   6.520   0.258   2.202  0.5024  0.1440  1.0012
 5505TIP3   OH238073   0.805   4.252   8.408 -0.5301  0.0793 -0.0483
 5505TIP3    H138074   0.836   4.222   8.494 -0.8514  1.4147  0.5735
 5505TIP3    H238075   0.757   4.333   8.428 -1.4101 -0.0889 -1.3926
 5506TIP3   OH238076   0.162   2.402   0.366 -0.3327  0.2934 -0.1538
 5506TIP3    H138077   0.076   2.389   0.327 -1.3219  0.9482  1.6762
 5506TIP3    H238078   0.162   2.493   0.396  1.2273  0.4835 -0.6152
 5507TIP3   OH238079   6.688   5.695   0.940  0.0036  0.6946  0.3055
 5507TIP3    H138080   6.772   5.740   0.928  1.4225 -0.6798  3.6695
 5507TIP3    H238081   6.625   5.764   0.957  1.2622  1.6228  1.3421
 5508TIP3   OH238082   2.233   1.972   8.545 -0.6545  0.4671 -0.1899
 5508TIP3    H138083   2.164   2.027   8.508 -0.1565  0.5296 -1.0574
 5508TIP3    H238084   2.188   1.890   8.567 -0.9521  0.3699 -1.0877
 5509TIP3   OH238085   6.214   0.231   0.910  0.1977 -0.1226 -0.3889
 5509TIP3    H138086   6.241   0.242   1.001  1.9214  1.4736 -1.0444
 5509TIP3    H238087   6.140   0.291   0.900  2.8822  3.4073 -1.1307
 5510TIP3   OH238088   5.143   6.198   6.929  0.2498 -0.3595  0.1525
 5510TIP3    H138089   5.233   6.195   6.896 -0.4529 -2.5172 -1.8302
 5510TIP3    H238090   5.089   6.201   6.850 -1.4815 -3.4956  1.0433
 5511TIP3   OH238091   1.832   6.414   8.580  0.2067 -0.4360  0.3411
 5511TIP3    H138092   1.839   6.348   8.650  1.6887 -1.7326 -0.9541
 5511TIP3    H238093   1.839   6.364   8.499  2.3660  1.3823 -0.7056
 5512TIP3   OH238094   0.098   3.998   7.761  0.5744 -0.0307 -0.2087
 5512TIP3    H138095   0.123   3.997   7.854  0.9397  0.4657 -0.2948
 5512TIP3    H238096   0.070   3.909   7.742  1.2770 -0.3358  0.1696
 5513TIP3   OH238097   0.364   2.321   7.102  0.1253 -0.8297 -0.3587
 5513TIP3    H138098   0.404   2.408   7.112 -1.9930  0.0897  1.0099
 5513TIP3    H238099   0.356   2.309   7.008 -0.5142  0.9865 -0.5785
 5514TIP3   OH238100   4.062   4.706   1.843 -0.0363  0.1788  0.0077
 5514TIP3    H138101   3.979   4.667   1.870 -0.3667  0.1561 -0.9752
 5514TIP3    H238102   4.063   4.695   1.748  0.6578  1.0349 -0.0961
 5515TIP3   OH238103   4.958   6.363   1.802  0.0952  0.0427 -0.7990
 5515TIP3    H138104   4.977   6.445   1.847 -1.7112 -0.2717  0.6413
 5515TIP3    H238105   4.879   6.381   1.750 -0.2404 -0.7192 -0.5806
 5516TIP3   OH238106   5.511   2.859   7.744 -0.0163 -0.6588  0.1472
 5516TIP3    H138107   5.467   2.942   7.764  0.7291 -0.0495 -0.6735
 5516TIP3    H238108   5.602   2.883   7.729  0.0530 -1.5069 -0.9161
 5517TIP3   OH238109   4.295   1.186   1.048  0.5183  0.4832  0.5889
 5517TIP3    H138110   4.269   1.257   0.990 -0.8921  1.0989  1.9298
 5517TIP3    H238111   4.275   1.106   0.998  0.6184  0.9982 -0.2929
 5518TIP3   OH238112   3.800   2.356   0.696 -0.5481  0.2205  0.1222
 5518TIP3    H138113   3.829   2.273   0.733  1.0752  0.6431 -0.1211
 5518TIP3    H238114   3.739   2.391   0.761 -1.2071 -1.1127  0.2508
 5519TIP3   OH238115   0.734   6.111   2.148 -0.0091  0.2111 -0.0229
 5519TIP3    H138116   0.642   6.089   2.164 -0.2169  0.7959 -0.3813
 5519TIP3    H238117   0.777   6.095   2.232 -0.1136 -1.6265 -0.2846
 5520TIP3   OH238118   1.242   6.229   1.777  0.1646 -0.6556  0.6545
 5520TIP3    H138119   1.148   6.220   1.795  0.4448  0.1938  2.8532
 5520TIP3    H238120   1.279   6.144   1.800  0.0081 -0.8222  0.2957
 5521TIP3   OH238121   1.882   6.472   1.466  0.0355  0.0080  0.2909
 5521TIP3    H138122   1.860   6.547   1.410  0.2960 -0.5185 -0.5386
 5521TIP3    H238123   1.829   6.484   1.545 -3.0393 -0.9996 -1.4605
 5522TIP3   OH238124   1.527   3.226   7.314 -0.3177  0.3749  0.1727
 5522TIP3    H138125   1.531   3.142   7.270 -0.7462 -0.2247  1.2298
 5522TIP3    H238126   1.618   3.256   7.317  0.0815 -0.8464  1.2283
 5523TIP3   OH238127   3.860   1.566   1.725 -0.0251 -0.3479 -0.0776
 5523TIP3    H138128   3.766   1.567   1.710  0.4519  0.6122 -3.9547
 5523TIP3    H238129   3.881   1.655   1.754 -0.0005  0.5409 -2.5944
 5524TIP3   OH238130   4.192   1.501   1.233  0.6813 -0.1475 -0.2603
 5524TIP3    H138131   4.262   1.502   1.299  2.0328  0.0483 -1.6551
 5524TIP3    H238132   4.148   1.586   1.243  1.2127  0.0960  0.0150
 5525TIP3   OH238133   4.209   1.823   8.503 -0.3751 -0.0767  0.5260
 5525TIP3    H138134   4.145   1.766   8.545 -0.7819 -0.0299 -0.0285
 5525TIP3    H238135   4.217   1.789   8.414  1.8666 -1.3401  1.1210
 5526TIP3   OH238136   5.657   4.273   8.049 -0.2855  0.0441  0.6830
 5526TIP3    H138137   5.670   4.186   8.013  1.2545  1.8303 -3.7488
 5526TIP3    H238138   5.744   4.312   8.052 -1.0484  1.8471  1.3007
 5527TIP3   OH238139   2.745   3.259   0.083 -0.7309  0.1408  0.3427
 5527TIP3    H138140   2.679   3.282   0.149 -3.1209  0.3155 -1.9426
 5527TIP3    H238141   2.741   3.164   0.078  1.6854 -0.1916  2.4690
 5528TIP3   OH238142   3.332   6.354   2.151 -0.6321 -0.3463  0.2772
 5528TIP3    H138143   3.391   6.309   2.211 -0.0720  1.8317  1.4465
 5528TIP3    H238144   3.264   6.392   2.207  0.5242  2.7277 -0.1969
 5529TIP3   OH238145   5.898   2.702   7.506  0.0139 -0.2802 -0.2614
 5529TIP3    H138146   5.876   2.625   7.452 -0.2303 -1.1893  1.0754
 5529TIP3    H238147   5.989   2.721   7.483  0.0745 -0.9633 -0.6397
 5530TIP3   OH238148   2.437   4.914   2.028  0.1625  0.0551  0.1683
 5530TIP3    H138149   2.351   4.948   2.001 -0.2562 -0.6861  0.5501
 5530TIP3    H238150   2.460   4.967   2.104 -0.0551  0.1098  0.1965
 5531TIP3   OH238151   6.281   5.840   0.220  0.5441  0.2956 -0.5732
 5531TIP3    H138152   6.356   5.781   0.215  0.4229  0.1356 -0.5244
 5531TIP3    H238153   6.210   5.792   0.178  0.3951  0.3260 -0.3590
 5532TIP3   OH238154   6.225   2.777   7.731  0.3157  0.1787 -0.0305
 5532TIP3    H138155   6.190   2.750   7.646  0.0438 -0.0199  0.1443
 5532TIP3    H238156   6.287   2.847   7.710  1.3812 -0.8876 -0.5262
 5533TIP3   OH238157   1.368   1.980   7.705 -0.0874 -0.1445 -0.2750
 5533TIP3    H138158   1.413   1.996   7.622  0.5652  0.3468  0.1633
 5533TIP3    H238159   1.437   1.983   7.771 -0.4192 -1.7077  0.1732
 5534TIP3   OH238160   5.667   1.087   7.584 -0.4158 -0.1213 -0.1744
 5534TIP3    H138161   5.629   1.009   7.625 -0.4047  0.3742  0.7915
 5534TIP3    H238162   5.594   1.127   7.537 -0.7639  0.0477  0.4967
 5535TIP3   OH238163   1.266   0.713   1.446  0.0263 -0.1355 -0.0609
 5535TIP3    H138164   1.359   0.693   1.433 -0.0238 -0.2237 -0.2978
 5535TIP3    H238165   1.247   0.782   1.382 -0.9960 -2.7722 -2.8400
 5536TIP3   OH238166   4.557   4.283   0.966 -0.1063 -0.2878 -0.3161
 5536TIP3    H138167   4.615   4.234   0.908  0.7968  0.5662 -0.1656
 5536TIP3    H238168   4.613   4.310   1.039 -1.0872 -0.8493  0.6736
 5537TIP3   OH238169   6.286   5.721   1.193 -0.4375  0.1456 -0.3657
 5537TIP3    H138170   6.309   5.628   1.193 -1.3458 -0.0986  0.1031
 5537TIP3    H238171   6.331   5.757   1.269  0.3663  0.2174 -0.8677
 5538TIP3   OH238172   2.629   3.847   0.311 -0.2787  0.1421  0.5449
 5538TIP3    H138173   2.645   3.882   0.398  0.7314  0.9546  0.0610
 5538TIP3    H238174   2.600   3.923   0.259 -0.1311 -0.1725 -0.0114
 5539TIP3   OH238175   5.792   1.064   1.643 -0.3997 -0.1862 -0.7702
 5539TIP3    H138176   5.748   0.984   1.671 -1.7656  0.0627 -2.0743
 5539TIP3    H238177   5.870   1.034   1.596  0.1157 -0.6689  0.3463
 5540TIP3   OH238178   0.745   3.140   7.248 -0.1295 -0.1634  0.4688
 5540TIP3    H138179   0.685   3.114   7.178 -1.9002  1.3523  1.3274
 5540TIP3    H238180   0.787   3.220   7.215 -2.0814  1.4264  1.6151
 5541TIP3   OH238181   1.690   5.654   2.456 -0.3093 -0.3407 -0.2897
 5541TIP3    H138182   1.723   5.692   2.375 -0.2239 -1.0875 -0.6167
 5541TIP3    H238183   1.699   5.723   2.521 -0.1429  0.1825 -0.8612
 5542TIP3   OH238184   3.608   2.185   7.950  0.0009 -0.1183  0.2138
 5542TIP3    H138185   3.604   2.089   7.951  0.5912 -0.1809  2.6817
 5542TIP3    H238186   3.516   2.212   7.947 -0.2305 -0.8050  0.7160
 5543TIP3   OH238187   3.367   3.553   0.361  0.4209 -0.1965  0.6586
 5543TIP3    H138188   3.300   3.602   0.409  1.2332  2.1619 -0.4262
 5543TIP3    H238189   3.378   3.472   0.410 -3.7533 -1.1013  0.4382
 5544TIP3   OH238190   5.319   6.337   1.549 -0.0503  0.9299 -0.1258
 5544TIP3    H138191   5.252   6.379   1.495  1.2985  1.8515 -1.1528
 5544TIP3    H238192   5.276   6.260   1.585 -1.9945  2.0778  0.1526
 5545TIP3   OH238193   5.706   5.697   2.259 -0.2953 -0.0313  0.6194
 5545TIP3    H138194   5.785   5.707   2.206 -0.7819  2.6634  0.2581
 5545TIP3    H238195   5.649   5.641   2.206  0.6562 -0.4775  0.0407
 5546TIP3   OH238196   4.560   2.955   0.528  0.4466  0.0677  0.7355
 5546TIP3    H138197   4.554   3.051   0.526 -2.4643 -0.0129 -0.5135
 5546TIP3    H238198   4.501   2.929   0.598  1.0030 -0.8175  0.8865
 5547TIP3   OH238199   0.386   1.402   0.057 -0.2906 -0.0423  0.6212
 5547TIP3    H138200   0.309   1.371   0.105  1.2951  0.0299  3.4442
 5547TIP3    H238201   0.358   1.485   0.018 -1.9761 -0.6281  0.4992
 5548TIP3   OH238202   5.411   6.234   0.739 -0.6743 -0.5603  0.0544
 5548TIP3    H138203   5.422   6.312   0.793  2.5328 -1.0209  0.2483
 5548TIP3    H238204   5.360   6.264   0.664 -0.8307  1.3381  0.8681
 5549TIP3   OH238205   0.732   1.048   0.484  0.1884 -0.1271 -0.0008
 5549TIP3    H138206   0.754   0.959   0.457 -2.8267 -1.3216  1.0389
 5549TIP3    H238207   0.804   1.074   0.543 -0.2663 -3.1255  2.0777
 5550TIP3   OH238208   1.877   3.250   1.061  0.5231  0.1700  0.6211
 5550TIP3    H138209   1.870   3.186   1.132 -1.0491 -1.7095 -1.0829
 5550TIP3    H238210   1.794   3.298   1.065 -0.8027 -1.7204 -1.3845
 5551TIP3   OH238211   3.752   2.921   2.076 -0.2727  0.3130  0.6312
 5551TIP3    H138212   3.813   2.964   2.016  1.5922 -0.1159  2.0979
 5551TIP3    H238213   3.766   2.966   2.160 -0.9485 -0.7370  1.3234
 5552TIP3   OH238214   3.071   0.780   2.499  0.3008 -0.6069  0.5207
 5552TIP3    H138215   3.140   0.766   2.564 -1.2269 -1.5118  2.0370
 5552TIP3    H238216   3.053   0.693   2.463  0.2795 -0.3075 -0.1989
 5553TIP3   OH238217   5.637   3.416   8.544 -0.0655  0.4086  0.5437
 5553TIP3    H138218   5.701   3.438   8.476 -0.0630  3.0411  1.3082
 5553TIP3    H238219   5.675   3.451   8.625 -1.9372  1.0061  1.1996
 5554TIP3   OH238220   3.223   3.234   1.374  0.8286 -0.5331  0.1343
 5554TIP3    H138221   3.220   3.213   1.280  0.1276 -0.8215  0.2141
 5554TIP3    H238222   3.131   3.231   1.402  1.0662 -0.7814  0.9007
 5555TIP3   OH238223   4.157   1.001   1.552  0.0495  0.0484 -0.7477
 5555TIP3    H138224   4.184   0.936   1.616 -0.2172  1.2053  0.5782
 5555TIP3    H238225   4.229   1.004   1.489  0.6113 -0.6284 -0.1536
 5556TIP3   OH238226   3.006   2.502   2.816 -0.1033  0.2841  0.0455
 5556TIP3    H138227   3.076   2.443   2.840 -0.0094  0.0735 -0.7147
 5556TIP3    H238228   3.001   2.496   2.720  0.0138  1.6157 -0.0620
 5557TIP3   OH238229   4.580   0.220   0.475  0.0743  0.4572  0.3726
 5557TIP3    H138230   4.521   0.261   0.539  0.1140  0.2198  0.5623
 5557TIP3    H238231   4.525   0.201   0.399 -0.6116 -1.7479  1.3434
 5558TIP3   OH238232   0.878   6.681   8.371  0.1217  0.0461 -0.2405
 5558TIP3    H138233   0.807   6.735   8.337 -0.6172  0.8866  2.3848
 5558TIP3    H238234   0.887   6.610   8.308 -2.1946  0.6017 -1.2979
 5559TIP3   OH238235   1.990   5.330   1.440 -0.3640 -0.2551 -0.2712
 5559TIP3    H138236   1.957   5.278   1.367  1.1068 -1.8125  0.1102
 5559TIP3    H238237   2.078   5.355   1.414  0.8700 -2.3327  1.6249
 5560TIP3   OH238238   6.085   0.991   7.875  0.1045  0.0311  0.4517
 5560TIP3    H138239   6.078   1.086   7.890  1.6060  0.3557 -0.7135
 5560TIP3    H238240   5.997   0.966   7.846  0.1115  1.4139 -0.9322
 5561TIP3   OH238241   6.439   0.586   2.482 -0.0538 -0.0957 -0.3325
 5561TIP3    H138242   6.376   0.586   2.554 -0.3263 -1.9924 -0.5217
 5561TIP3    H238243   6.456   0.679   2.466 -0.4800  0.4029  1.7270
 5562TIP3   OH238244   2.071   2.138   8.198 -0.3025  0.3350  0.6344
 5562TIP3    H138245   2.089   2.231   8.202 -0.7469  0.4599 -0.0112
 5562TIP3    H238246   2.039   2.124   8.109 -0.3097 -0.4187  0.7485
 5563TIP3   OH238247   4.671   5.746   8.270 -0.1725  0.1769  0.1431
 5563TIP3    H138248   4.619   5.695   8.332 -0.5184  0.4761  0.1020
 5563TIP3    H238249   4.637   5.721   8.184 -0.6510  0.8026  0.1431
 5564TIP3   OH238250   3.347   3.756   0.102 -0.1494 -0.1289  0.1184
 5564TIP3    H138251   3.428   3.804   0.086 -0.7049  0.3689 -1.3242
 5564TIP3    H238252   3.277   3.819   0.082 -0.8898 -1.3013 -1.1189
 5565TIP3   OH238253   0.922   1.978   8.580 -0.1218  0.1997  0.9395
 5565TIP3    H138254   0.902   2.018   8.495 -1.5273 -1.8260  0.2218
 5565TIP3    H238255   0.887   2.040   8.644 -0.6463  0.9488 -0.0395
 5566TIP3   OH238256   3.215   1.601   1.698  0.3044 -0.6431 -0.8032
 5566TIP3    H138257   3.201   1.627   1.607 -0.4469  0.8320 -0.2998
 5566TIP3    H238258   3.288   1.656   1.727 -0.8417  0.4736  0.0787
 5567TIP3   OH238259   4.224   5.181   7.818  0.1230  0.5507  0.3444
 5567TIP3    H138260   4.298   5.181   7.756  0.2377 -0.2592  0.4748
 5567TIP3    H238261   4.210   5.089   7.838  0.1687  0.8153  1.6354
 5568TIP3   OH238262   1.830   1.048   8.081 -0.4572  0.2707 -0.5227
 5568TIP3    H138263   1.883   1.095   8.145  0.9862 -1.3250 -0.4792
 5568TIP3    H238264   1.798   1.116   8.022  1.3529  1.3499 -0.3425
 5569TIP3   OH238265   5.065   1.111   1.914 -0.4525  0.1113 -0.7992
 5569TIP3    H138266   5.078   1.067   1.830  1.5029 -1.4264  0.2344
 5569TIP3    H238267   5.125   1.185   1.912 -1.6000  1.0573 -1.3643
 5570TIP3   OH238268   3.475   5.962   6.879 -0.1403 -0.2447  0.0568
 5570TIP3    H138269   3.547   5.986   6.938 -0.4632  1.0386 -0.0543
 5570TIP3    H238270   3.411   6.032   6.889 -1.9632 -1.9572  1.0458
 5571TIP3   OH238271   3.852   6.727   1.435 -0.8202  0.9900  0.2879
 5571TIP3    H138272   3.820   6.814   1.411 -0.2985  1.1665  0.2168
 5571TIP3    H238273   3.914   6.704   1.365 -1.9436 -0.0138 -0.4235
 5572TIP3   OH238274   6.605   6.666   0.901 -0.2121  0.0159  0.0889
 5572TIP3    H138275   6.547   6.677   0.976  0.0067  0.6444  0.1720
 5572TIP3    H238276   6.566   6.719   0.832 -1.6493 -2.2952 -0.9835
 5573TIP3   OH238277   4.699   0.010   1.416 -0.2735  0.2895  0.3004
 5573TIP3    H138278   4.630  -0.044   1.379  0.5730 -1.5161  1.2214
 5573TIP3    H238279   4.656   0.091   1.443 -1.8549 -0.4839  0.1533
 5574TIP3   OH238280   2.011   5.367   0.006  0.3838  0.2072  0.4427
 5574TIP3    H138281   2.022   5.411  -0.078 -0.3128  0.8803  0.6900
 5574TIP3    H238282   1.932   5.406   0.043  0.2477 -0.6366  1.0675
 5575TIP3   OH238283   3.963   3.510   1.143  0.7196 -0.0471 -0.1978
 5575TIP3    H138284   3.959   3.431   1.197 -0.2464 -0.5229 -0.9198
 5575TIP3    H238285   3.993   3.479   1.058 -0.1858  0.2654 -0.6417
 5576TIP3   OH238286   0.652   1.269   8.359 -0.1785  0.3571  0.4631
 5576TIP3    H138287   0.574   1.305   8.402 -0.1605  1.0333 -0.0475
 5576TIP3    H238288   0.654   1.313   8.274  1.0025  0.6757  0.6360
 5577TIP3   OH238289   5.532   1.466   8.534  0.2504 -0.0458 -0.3029
 5577TIP3    H138290   5.512   1.545   8.585 -2.2244 -0.8118  0.0711
 5577TIP3    H238291   5.621   1.443   8.559  1.1394  2.7131 -0.5742
 5578TIP3   OH238292   6.759   4.550   8.100  0.0499 -0.1284 -0.1035
 5578TIP3    H138293   6.743   4.510   8.014  0.1077 -0.2160 -0.0732
 5578TIP3    H238294   6.761   4.476   8.161 -2.7310  0.0820  0.3991
 5579TIP3   OH238295   6.320   4.540   2.503 -0.2667 -0.3632  0.5480
 5579TIP3    H138296   6.396   4.495   2.542 -0.6805 -0.4608  1.2614
 5579TIP3    H238297   6.279   4.473   2.448 -1.4122 -1.2042  2.3236
 5580TIP3   OH238298   6.567   1.210   1.296 -0.5806  0.0764 -0.0678
 5580TIP3    H138299   6.658   1.182   1.305 -0.0558  1.5531 -0.4165
 5580TIP3    H238300   6.548   1.197   1.203 -0.9914 -0.9276  0.1429
 5581TIP3   OH238301   1.842   5.554   1.149  0.9184 -0.3097 -0.2382
 5581TIP3    H138302   1.813   5.472   1.109 -0.4017  0.4938 -0.9926
 5581TIP3    H238303   1.852   5.534   1.242 -2.1386 -0.6685  0.0837
 5582TIP3   OH238304   6.635   4.474   1.606 -0.0967 -0.6037  0.0503
 5582TIP3    H138305   6.594   4.560   1.607 -0.3433 -0.7193  0.7405
 5582TIP3    H238306   6.623   4.441   1.696 -0.1140 -1.3979 -0.2378
 5583TIP3   OH238307   0.391   5.359   1.154 -0.3696  0.1031  0.1908
 5583TIP3    H138308   0.453   5.431   1.163  2.1737 -2.1671  2.7966
 5583TIP3    H238309   0.367   5.359   1.061  0.7517  3.2443 -0.2143
 5584TIP3   OH238310   3.329   0.065   3.073  0.6683  0.3554  0.2743
 5584TIP3    H138311   3.264  -0.001   3.047  1.3433 -0.3260  0.3048
 5584TIP3    H238312   3.289   0.148   3.046 -1.7367  0.3385  3.2480
 5585TIP3   OH238313   5.326   3.014   0.834 -0.4272 -0.0196 -0.6058
 5585TIP3    H138314   5.252   3.018   0.894  0.1785  0.1641  0.1408
 5585TIP3    H238315   5.293   3.052   0.753 -0.5306  2.1410  0.3858
 5586TIP3   OH238316   2.733   6.617   7.824 -0.5476  0.3533 -0.3630
 5586TIP3    H138317   2.671   6.579   7.762 -3.5466  2.1588  1.3294
 5586TIP3    H238318   2.680   6.648   7.897  2.3822  1.9799  1.2932
 5587TIP3   OH238319   6.711   0.166   3.244  0.1566 -0.2077  0.1723
 5587TIP3    H138320   6.629   0.117   3.240  0.0404  0.0482 -1.3505
 5587TIP3    H238321   6.684   0.257   3.258  0.2622 -0.2828  0.9126
 5588TIP3   OH238322   6.119   3.447   8.199 -1.1789 -0.0264 -0.8238
 5588TIP3    H138323   6.098   3.371   8.252  0.4458  0.2089  0.2196
 5588TIP3    H238324   6.050   3.451   8.133 -1.7948 -1.8450 -0.3188
 5589TIP3   OH238325   0.071   4.041   0.104  0.2453  0.6325  0.2613
 5589TIP3    H138326   0.034   3.952   0.109 -1.9268  1.5604  2.8595
 5589TIP3    H238327   0.042   4.073   0.018 -1.5367 -0.1542  0.5262
 5590TIP3   OH238328   0.992   5.253   1.395 -0.0264 -1.0968  0.2563
 5590TIP3    H138329   0.942   5.171   1.387  0.1447 -1.1092 -0.9256
 5590TIP3    H238330   0.953   5.297   1.470  0.3450 -2.5688  1.3540
 5591TIP3   OH238331   3.733   2.341   7.237  0.0633 -0.1953 -0.4807
 5591TIP3    H138332   3.820   2.379   7.227 -0.2146  0.7791  0.7183
 5591TIP3    H238333   3.693   2.351   7.150  0.3363  1.4058 -0.4524
 5592TIP3   OH238334   0.556   2.904   0.257 -0.0373  0.0985  0.6540
 5592TIP3    H138335   0.483   2.880   0.200 -1.2299 -1.3368  2.6722
 5592TIP3    H238336   0.593   2.983   0.216 -1.3380 -0.3664 -1.5943
 5593TIP3   OH238337   4.553   3.401   2.857  0.0137  0.2974  0.2266
 5593TIP3    H138338   4.487   3.378   2.923  0.2482  1.8887  1.0846
 5593TIP3    H238339   4.502   3.433   2.782 -0.2349 -0.5517  0.0315
 5594TIP3   OH238340   1.886   5.100   2.459  0.2176 -0.0420 -0.4979
 5594TIP3    H138341   1.967   5.140   2.492 -0.2417  0.1480  0.4231
 5594TIP3    H238342   1.916   5.032   2.398  1.0729 -0.0972 -0.0271
 5595TIP3   OH238343   0.803   2.239   0.482 -0.3003 -0.5975  0.3314
 5595TIP3    H138344   0.835   2.150   0.469 -0.8190 -0.5920 -1.2726
 5595TIP3    H238345   0.880   2.290   0.505  0.7437 -0.7956 -2.3699
 5596TIP3   OH238346   0.824   0.156   7.908 -0.2932  0.5007  0.2775
 5596TIP3    H138347   0.900   0.141   7.963 -1.1273  0.7523  1.5504
 5596TIP3    H238348   0.805   0.249   7.918  0.5029  0.9287 -1.7701
 5597TIP3   OH238349   3.997   5.679   8.625  0.1680 -0.0803  0.1527
 5597TIP3    H138350   4.045   5.740   8.681 -0.2104 -0.4919  0.9253
 5597TIP3    H238351   4.002   5.719   8.538 -1.7082  2.0778  0.9252
 5598TIP3   OH238352   5.115   5.926   7.021 -0.2590  0.1312 -0.5835
 5598TIP3    H138353   5.188   5.918   7.083  0.3069 -0.3996 -1.2972
 5598TIP3    H238354   5.108   6.020   7.004  1.1940  0.0871 -1.5721
 5599TIP3   OH238355   4.525   0.426   1.584 -0.3718 -0.2617 -0.3461
 5599TIP3    H138356   4.485   0.513   1.577 -0.1294 -0.1953 -0.9646
 5599TIP3    H238357   4.554   0.421   1.675 -1.1826 -0.0489 -0.0679
 5600TIP3   OH238358   0.129   0.329   1.837 -0.4260  0.3801 -0.4269
 5600TIP3    H138359   0.140   0.234   1.848 -0.4915  0.4520  0.3875
 5600TIP3    H238360   0.111   0.360   1.926 -1.9360  0.9565 -0.9027
 5601TIP3   OH238361   4.537   6.620   6.544 -0.0878  0.1186  0.1538
 5601TIP3    H138362   4.562   6.531   6.518 -0.8438  0.2972 -1.2954
 5601TIP3    H238363   4.606   6.649   6.603  0.7093 -1.0453 -0.1843
 5602TIP3   OH238364   2.101   1.607   1.666  0.5313 -0.1172 -0.4461
 5602TIP3    H138365   2.160   1.532   1.669 -0.7815 -1.2345 -1.3304
 5602TIP3    H238366   2.119   1.648   1.581 -1.0389 -1.4257 -1.4631
 5603TIP3   OH238367   5.430   3.379   0.761  0.3666 -0.1001 -0.5157
 5603TIP3    H138368   5.341   3.375   0.794  0.4557  0.1406 -0.2444
 5603TIP3    H238369   5.481   3.417   0.833  0.7116 -0.3650 -0.6135
 5604TIP3   OH238370   4.339   3.773   1.035 -0.2735 -0.2465 -0.2684
 5604TIP3    H138371   4.283   3.769   1.113  1.0298 -0.4718  0.6815
 5604TIP3    H238372   4.349   3.866   1.017 -0.5898 -0.1937 -0.1762
 5605TIP3   OH238373   5.898   1.941   0.366 -0.5599 -0.2100  0.1840
 5605TIP3    H138374   5.885   1.967   0.457 -4.2048 -2.5344  0.5681
 5605TIP3    H238375   5.878   1.847   0.365  0.3238 -0.4754 -2.8789
 5606TIP3   OH238376   5.704   3.372   7.530  0.0406  0.6411  0.3058
 5606TIP3    H138377   5.622   3.357   7.576 -0.1749 -0.5407 -0.4012
 5606TIP3    H238378   5.681   3.432   7.459 -0.3592 -0.1528 -0.2498
 5607TIP3   OH238379   6.425   0.412   3.112  0.5209  0.4319 -0.1093
 5607TIP3    H138380   6.417   0.507   3.100  0.0680  0.2585 -1.3499
 5607TIP3    H238381   6.510   0.400   3.153  0.6905  1.3552 -0.1623
 5608TIP3   OH238382   1.385   0.398   1.031  0.2497  0.0165  0.0111
 5608TIP3    H138383   1.451   0.329   1.026  1.1318  0.9467 -1.9891
 5608TIP3    H238384   1.317   0.371   0.969 -0.1683  0.1698  0.3984
 5609TIP3   OH238385   1.295   6.217   1.143 -0.5369  0.0897  0.2027
 5609TIP3    H138386   1.235   6.197   1.216 -1.6434 -1.6864 -1.0896
 5609TIP3    H238387   1.322   6.131   1.112  0.2906  0.8312 -1.1798
 5610TIP3   OH238388   1.182   4.453   8.125 -0.0966  0.1922  0.3761
 5610TIP3    H138389   1.220   4.455   8.037 -0.5505  0.8962  0.1831
 5610TIP3    H238390   1.208   4.368   8.160 -0.7420 -0.5226 -0.8039
 5611TIP3   OH238391   2.731   4.515   8.243  0.4118  0.3892  0.4176
 5611TIP3    H138392   2.636   4.519   8.250  0.2746 -1.5016  0.1473
 5611TIP3    H238393   2.752   4.565   8.164 -0.2298  1.6851  1.0326
 5612TIP3   OH238394   4.698   3.106   7.532  0.4026  0.1166  0.3469
 5612TIP3    H138395   4.776   3.059   7.500 -0.1416  0.3705 -1.4945
 5612TIP3    H238396   4.734   3.177   7.586  1.2397 -2.2114  3.0297
 5613TIP3   OH238397   4.094   6.402   3.282  0.1306 -0.1982 -0.0067
 5613TIP3    H138398   4.049   6.487   3.282  0.4187  0.0583 -2.8426
 5613TIP3    H238399   4.184   6.423   3.308 -0.0881  0.1553  0.4847
 5614TIP3   OH238400   0.226   0.962   7.338  0.9846  0.4962  0.0063
 5614TIP3    H138401   0.157   0.997   7.282 -0.2934 -0.1771  1.1034
 5614TIP3    H238402   0.276   1.039   7.366  0.6913  0.9940 -0.8026
 5615TIP3   OH238403   2.807   4.675   1.493  0.1675  0.6518  0.8521
 5615TIP3    H138404   2.783   4.638   1.408  1.6275  0.5651  0.4501
 5615TIP3    H238405   2.821   4.598   1.549  0.2595  0.6733  0.8595
 5616TIP3   OH238406   6.133   4.831   0.702  0.2748 -0.2997  0.0977
 5616TIP3    H138407   6.060   4.774   0.678  0.0016  0.2227 -0.3175
 5616TIP3    H238408   6.156   4.876   0.621  0.4160  0.2651  0.4480
 5617TIP3   OH238409   0.896   4.257   1.751  0.4357 -0.2112 -0.3309
 5617TIP3    H138410   0.902   4.161   1.756 -2.0029 -0.3757  0.7975
 5617TIP3    H238411   0.970   4.289   1.803  0.8574 -1.4776 -0.1095
 5618TIP3   OH238412   0.496   5.187   8.726 -0.2419 -0.4938 -0.3024
 5618TIP3    H138413   0.457   5.209   8.642 -1.1335 -0.1709  0.1853
 5618TIP3    H238414   0.443   5.234   8.790  2.0228  1.4737  0.2892
 5619TIP3   OH238415   0.851   1.702   8.483  0.0154  0.0146  0.3583
 5619TIP3    H138416   0.867   1.646   8.559  1.5741 -0.6062 -0.3877
 5619TIP3    H238417   0.874   1.790   8.512 -0.5375 -0.0272  0.9415
 5620TIP3   OH238418   2.550   6.627   0.406 -0.2805 -0.3750 -0.3218
 5620TIP3    H138419   2.560   6.533   0.417 -0.5239 -0.4004 -0.2981
 5620TIP3    H238420   2.625   6.654   0.354 -1.3680 -0.9526 -2.3109
 5621TIP3   OH238421   2.324   2.566   1.087 -0.3444 -0.2635  0.1604
 5621TIP3    H138422   2.245   2.586   1.138 -0.8472 -0.3161 -0.5867
 5621TIP3    H238423   2.395   2.607   1.136 -0.7751 -0.5741  1.0693
 5622TIP3   OH238424   3.721   3.974   7.367 -0.0072  0.7814  0.3408
 5622TIP3    H138425   3.783   4.026   7.316 -0.1240  0.7778  0.1970
 5622TIP3    H238426   3.702   4.028   7.444 -0.7516  1.2974 -0.2002
 5623TIP3   OH238427   0.665   5.739   8.113 -0.5450  0.0608  0.5875
 5623TIP3    H138428   0.580   5.746   8.156 -0.6966 -1.5694  0.6246
 5623TIP3    H238429   0.672   5.818   8.060 -3.3342 -1.0274 -1.6471
 5624TIP3   OH238430   2.408   3.725   8.520  0.2868  0.2641 -0.4134
 5624TIP3    H138431   2.406   3.778   8.600 -1.7668 -0.5493  0.1326
 5624TIP3    H238432   2.501   3.722   8.496  0.7204  2.2964  0.7198
 5625TIP3   OH238433   1.603   0.493   1.673  0.1352 -0.0326 -0.0815
 5625TIP3    H138434   1.612   0.520   1.764 -1.2187  0.1781  0.0056
 5625TIP3    H238435   1.553   0.411   1.677  3.4518 -2.2812 -0.3910
 5626TIP3   OH238436   4.381   0.001   0.877  0.5087 -0.3589  0.2088
 5626TIP3    H138437   4.391  -0.092   0.857  1.8397 -0.1725 -0.0339
 5626TIP3    H238438   4.466   0.028   0.912  0.3596  0.9251 -0.3513
 5627TIP3   OH238439   6.501   3.919   1.624 -0.1136 -0.1024 -0.1694
 5627TIP3    H138440   6.527   3.948   1.536 -0.0637 -0.7440 -0.3729
 5627TIP3    H238441   6.583   3.914   1.673 -0.1373  0.2234 -0.0966
 5628TIP3   OH238442   1.774   5.212   2.690 -0.1095 -0.2398  0.5656
 5628TIP3    H138443   1.799   5.149   2.622  0.4332  0.8019 -0.2352
 5628TIP3    H238444   1.797   5.170   2.772  2.5691 -0.1272 -0.0367
 5629TIP3   OH238445   3.543   0.112   2.211  0.0264 -0.5063 -0.2616
 5629TIP3    H138446   3.467   0.083   2.262 -0.8288 -0.4239 -1.4453
 5629TIP3    H238447   3.616   0.063   2.247 -0.9514 -2.2344 -0.5101
 5630TIP3   OH238448   3.479   3.602   0.780 -0.1243  0.3514  0.5836
 5630TIP3    H138449   3.466   3.693   0.753  1.0578  0.1761 -0.6938
 5630TIP3    H238450   3.513   3.608   0.869 -0.9465  1.1127  0.8604
 5631TIP3   OH238451   4.530   3.586   8.322  0.0354  0.0419 -0.1725
 5631TIP3    H138452   4.596   3.637   8.370 -0.1270  0.2082 -0.1270
 5631TIP3    H238453   4.462   3.568   8.387  0.0433 -0.1418 -0.2165
 5632TIP3   OH238454   5.587   3.838   1.430  0.4119  0.0976 -0.1285
 5632TIP3    H138455   5.598   3.784   1.509  0.9569  0.0516 -0.2337
 5632TIP3    H238456   5.656   3.808   1.371 -0.5009 -0.4303 -0.9442
 5633TIP3   OH238457   2.639   2.825   7.000  0.1690 -0.1694  0.1020
 5633TIP3    H138458   2.551   2.863   6.998  0.4562  0.6860  1.8634
 5633TIP3    H238459   2.697   2.896   6.971  0.4324 -0.1947  0.5589
 5634TIP3   OH238460   5.124   1.966   3.043 -0.3949 -0.1528  0.6190
 5634TIP3    H138461   5.147   1.942   2.953 -2.2746 -2.2830  0.6217
 5634TIP3    H238462   5.037   2.004   3.035 -0.1745  0.5411  1.4569
 5635TIP3   OH238463   0.862   3.831   8.737 -0.8342 -0.7597  0.0663
 5635TIP3    H138464   0.952   3.852   8.761 -1.0921  0.5806 -0.0206
 5635TIP3    H238465   0.850   3.870   8.650 -1.9011  0.4049  0.6866
 5636TIP3   OH238466   6.793   5.095   7.275 -0.1622 -0.8492 -0.2419
 5636TIP3    H138467   6.782   5.048   7.192 -1.1792 -0.0445 -0.5775
 5636TIP3    H238468   6.721   5.064   7.330 -0.3419 -0.3211 -0.1731
 5637TIP3   OH238469   5.725   1.523   0.119  0.0424  0.3557 -0.1062
 5637TIP3    H138470   5.722   1.597   0.058 -0.8258  0.4787  0.0739
 5637TIP3    H238471   5.740   1.447   0.063  1.2832  0.6894 -0.2623
 5638TIP3   OH238472   2.835   0.401   2.029 -0.1744 -0.1287  0.1891
 5638TIP3    H138473   2.812   0.313   2.059  1.4841 -0.4496  0.6085
 5638TIP3    H238474   2.841   0.453   2.109 -0.7593  0.2919 -0.0286
 5639TIP3   OH238475   4.401   0.203   6.863  0.3427  0.3234 -0.2885
 5639TIP3    H138476   4.395   0.118   6.820  0.7106  1.2216 -2.2455
 5639TIP3    H238477   4.471   0.249   6.816  0.3308  1.6242  0.8834
 5640TIP3   OH238478   0.993   2.421   0.499 -0.4263  0.1160 -0.0659
 5640TIP3    H138479   0.956   2.463   0.421 -0.5151 -1.3197 -0.8365
 5640TIP3    H238480   1.068   2.371   0.465  0.4173  0.6247  1.0088
 5641TIP3   OH238481   3.248   6.042   3.313  0.1569 -0.4408  0.2476
 5641TIP3    H138482   3.202   6.123   3.296  1.9205  0.1201 -2.5092
 5641TIP3    H238483   3.187   5.973   3.287 -0.0554  0.1668 -0.8996
 5642TIP3   OH238484   2.321   2.480   7.416 -0.0379 -0.7704 -0.0212
 5642TIP3    H138485   2.290   2.514   7.332 -0.9741  0.0263  0.6344
 5642TIP3    H238486   2.403   2.434   7.394  1.5677  2.2553 -0.8933
 5643TIP3   OH238487   0.717   0.804   7.863 -0.0605 -0.2005 -0.2310
 5643TIP3    H138488   0.769   0.749   7.803 -0.1384 -0.1657 -0.3300
 5643TIP3    H238489   0.767   0.885   7.870 -1.6724  1.1568 -2.8940
 5644TIP3   OH238490   6.669   4.275   0.757  0.3668 -0.0862 -0.0475
 5644TIP3    H138491   6.631   4.331   0.825  0.6803 -1.1208  1.0179
 5644TIP3    H238492   6.667   4.187   0.795 -1.3113 -1.0604 -2.1493
 5645TIP3   OH238493   4.879   3.394   7.093  0.1056  0.1035  0.7830
 5645TIP3    H138494   4.962   3.348   7.080 -0.3136 -0.1500 -1.5358
 5645TIP3    H238495   4.823   3.330   7.138  0.4540 -0.6174  0.2247
 5646TIP3   OH238496   3.258   6.150   0.640 -0.1778 -0.3198 -0.4578
 5646TIP3    H138497   3.336   6.172   0.590 -0.6357  0.5897 -0.7907
 5646TIP3    H238498   3.191   6.133   0.574 -1.0127  1.7036 -0.2088
 5647TIP3   OH238499   1.523   2.964   0.301 -0.3778  0.1747  0.3581
 5647TIP3    H138500   1.451   2.984   0.241 -1.5584 -2.4570  0.7500
 5647TIP3    H238501   1.484   2.974   0.389 -0.3713 -1.3744  0.5712
 5648TIP3   OH238502   6.788   5.861   1.838 -0.5713 -0.3511  0.3526
 5648TIP3    H138503   6.766   5.768   1.832 -1.8656 -0.2100  1.9498
 5648TIP3    H238504   6.704   5.904   1.854 -0.0214  1.1266 -0.5828
 5649TIP3   OH238505   2.785   2.581   7.671 -0.1941  0.4790  0.8908
 5649TIP3    H138506   2.715   2.603   7.609 -0.1624  2.3566  1.4712
 5649TIP3    H238507   2.749   2.511   7.725 -0.9280  0.1516 -0.0028
 5650TIP3   OH238508   2.129   2.233   7.371  0.7884 -0.5610 -0.3700
 5650TIP3    H138509   2.174   2.204   7.291  0.4361  0.6926 -1.0448
 5650TIP3    H238510   2.079   2.309   7.344 -0.0313 -0.6332  0.8689
 5651TIP3   OH238511   5.085   6.060   3.036  0.1556 -0.0635  0.2356
 5651TIP3    H138512   5.025   6.129   3.006  0.1615  0.3699  1.1889
 5651TIP3    H238513   5.149   6.106   3.090  0.5182 -0.7352  0.3855
 5652TIP3   OH238514   4.845   3.072   2.220  0.6133 -0.3752 -0.1218
 5652TIP3    H138515   4.835   3.096   2.312 -0.1276  1.1997 -0.5812
 5652TIP3    H238516   4.756   3.047   2.192  0.6038  0.2805 -0.6989
 5653TIP3   OH238517   0.037   0.394   2.110  0.2641 -0.2348  0.2859
 5653TIP3    H138518   0.128   0.422   2.118  0.9819 -2.1647 -0.5134
 5653TIP3    H238519   0.037   0.304   2.143 -1.2735 -0.3900 -0.0880
 5654TIP3   OH238520   5.450   1.342   3.099  0.1406 -0.5489  0.1980
 5654TIP3    H138521   5.421   1.431   3.077  1.3041 -0.1163  0.3104
 5654TIP3    H238522   5.375   1.302   3.142 -0.3048  0.4985  0.4305
 5655TIP3   OH238523   1.491   4.161   1.154  0.3791 -0.1215  0.1375
 5655TIP3    H138524   1.436   4.101   1.204 -0.5066  1.6594  1.4212
 5655TIP3    H238525   1.436   4.189   1.080  0.7631 -0.8005 -0.4166
 5656TIP3   OH238526   4.589   1.630   2.487 -0.5815 -0.6312  0.3163
 5656TIP3    H138527   4.534   1.618   2.410  0.4569 -1.3310 -0.3398
 5656TIP3    H238528   4.530   1.668   2.552 -1.3230  0.6206 -1.0162
 5657TIP3   OH238529   1.231   5.615   2.725 -0.2874  0.2493 -0.7467
 5657TIP3    H138530   1.280   5.543   2.686  1.3562  1.5203 -1.1440
 5657TIP3    H238531   1.290   5.690   2.720 -2.4145  1.9849 -1.6407
 5658TIP3   OH238532   4.255   5.790   2.657 -0.3146 -0.2121 -0.0669
 5658TIP3    H138533   4.235   5.708   2.611 -0.0393  0.2897 -1.1358
 5658TIP3    H238534   4.206   5.785   2.739 -0.1591 -1.5151 -0.0375
 5659TIP3   OH238535   0.183   5.743   2.830 -0.4254  0.2433  0.0330
 5659TIP3    H138536   0.262   5.791   2.854  0.4586 -1.1572  0.0249
 5659TIP3    H238537   0.112   5.791   2.873  0.3063  2.0110 -0.6354
 5660TIP3   OH238538   1.410   6.310   0.579 -0.3728  0.6219  0.4027
 5660TIP3    H138539   1.469   6.382   0.601 -1.1294  1.1535  0.7677
 5660TIP3    H238540   1.400   6.316   0.484 -2.3405  2.5990  0.6443
 5661TIP3   OH238541   3.112   3.538   0.210  0.2783  0.4274 -0.4976
 5661TIP3    H138542   3.064   3.617   0.235  1.0581  1.1584 -1.2699
 5661TIP3    H238543   3.061   3.467   0.248  0.3839  1.3613  1.5436
 5662TIP3   OH238544   2.977   4.321   2.724 -0.7787  0.2917 -0.3262
 5662TIP3    H138545   3.041   4.377   2.768 -1.3135  1.9514 -1.5774
 5662TIP3    H238546   3.029   4.258   2.674 -0.1162  1.3461 -0.9854
 5663TIP3   OH238547   4.903   3.942   2.966 -0.9171  0.2693  0.3054
 5663TIP3    H138548   4.978   3.924   3.022 -0.5003  0.5643 -0.1509
 5663TIP3    H238549   4.930   3.914   2.879 -0.9180  1.3866 -0.0727
 5664TIP3   OH238550   3.171   0.559   2.223  0.1928 -0.3530  0.1835
 5664TIP3    H138551   3.189   0.652   2.208  2.1614 -0.3556  2.0314
 5664TIP3    H238552   3.143   0.555   2.315  0.4611 -1.6234  0.2208
 5665TIP3   OH238553   1.246   3.258   8.610  0.3132 -0.2706  0.7063
 5665TIP3    H138554   1.215   3.348   8.603  1.1757  0.0380  0.7662
 5665TIP3    H238555   1.166   3.205   8.614 -0.1925  0.4454  0.1565
 5666TIP3   OH238556   6.017   0.184   1.548  0.4976  0.2664  0.1868
 5666TIP3    H138557   6.073   0.147   1.617 -1.6263  2.0344  3.0732
 5666TIP3    H238558   5.944   0.123   1.540  0.9977 -0.2193 -1.0137
 5667TIP3   OH238559   2.099   2.946   2.189 -0.0589 -0.0974  0.5417
 5667TIP3    H138560   2.132   2.856   2.183  2.6866  0.8642 -0.6236
 5667TIP3    H238561   2.153   2.987   2.257  0.0167  1.1195 -0.2132
 5668TIP3   OH238562   1.340   2.481   0.340  0.1421  0.2008 -0.4655
 5668TIP3    H138563   1.263   2.482   0.284 -0.8526 -0.4791  0.8642
 5668TIP3    H238564   1.399   2.417   0.299 -1.5558 -2.1005  0.5073
 5669TIP3   OH238565   0.465   6.075   2.209 -0.4351  0.0744  0.2222
 5669TIP3    H138566   0.391   6.131   2.234 -0.9102 -1.1758  1.7435
 5669TIP3    H238567   0.471   6.010   2.278  1.3869 -0.5657 -0.4651
 5670TIP3   OH238568   2.791   5.912   0.103  0.4023  0.2357  0.2230
 5670TIP3    H138569   2.710   5.903   0.053  1.0010  0.4985 -0.8319
 5670TIP3    H238570   2.841   5.833   0.082  0.1898 -0.2097  1.3321
 5671TIP3   OH238571   4.821   1.714   8.039 -0.2712  0.4497  0.4887
 5671TIP3    H138572   4.753   1.686   8.100  0.2205 -1.3508  0.2554
 5671TIP3    H238573   4.868   1.634   8.017  0.8277  1.3872 -0.7076
 5672TIP3   OH238574   2.932   4.539   8.444 -0.1843  0.0606  0.3957
 5672TIP3    H138575   3.018   4.517   8.407  0.2610  1.8043  0.2997
 5672TIP3    H238576   2.870   4.519   8.375  0.1595 -1.0702  0.4022
 5673TIP3   OH238577   0.000   3.213   2.485 -0.0310 -0.2716  0.1045
 5673TIP3    H138578   0.085   3.210   2.529 -1.0163 -0.6092  2.0918
 5673TIP3    H238579  -0.053   3.148   2.532 -1.6235  0.5097 -0.5591
 5674TIP3   OH238580   2.736   4.979   2.907  0.1935 -0.2280 -0.3880
 5674TIP3    H138581   2.716   4.960   2.999 -2.5322  2.5046 -0.2725
 5674TIP3    H238582   2.773   5.067   2.908 -0.9780  0.3362 -1.9705
 5675TIP3   OH238583   4.115   5.835   2.922 -0.0924 -0.2658  0.1500
 5675TIP3    H138584   4.148   5.885   2.997 -1.1002 -0.3528  0.6680
 5675TIP3    H238585   4.094   5.749   2.957  1.2273 -0.9652 -0.6557
 5676TIP3   OH238586   6.204   5.535   2.482  0.0467  0.3481 -0.5873
 5676TIP3    H138587   6.227   5.480   2.407  1.0520  0.9305 -0.7143
 5676TIP3    H238588   6.119   5.572   2.459 -0.2370 -0.4559 -0.8806
 5677TIP3   OH238589   4.230   4.825   0.131  0.3509 -0.1504  0.0803
 5677TIP3    H138590   4.227   4.773   0.051  0.0720 -1.0803  0.6736
 5677TIP3    H238591   4.147   4.872   0.133  1.3015  1.6825 -1.3175
 5678TIP3   OH238592   0.396   2.165   0.593  0.2198 -0.0623 -1.0951
 5678TIP3    H138593   0.333   2.200   0.655  1.1516 -0.5567  0.1814
 5678TIP3    H238594   0.354   2.174   0.507 -2.4761 -2.2263 -0.1579
 5679TIP3   OH238595   5.810   0.861   7.798  0.6127  0.0880  0.3413
 5679TIP3    H138596   5.807   0.875   7.893  0.8704  4.4006 -0.0838
 5679TIP3    H238597   5.718   0.866   7.771  0.6610  0.4876  0.2407
 5680TIP3   OH238598   6.475   5.872   0.989 -0.4325  0.1028 -0.4840
 5680TIP3    H138599   6.422   5.794   1.008 -0.9055  0.7136  0.7500
 5680TIP3    H238600   6.420   5.945   1.015  0.9779  0.7661  0.7562
 5681TIP3   OH238601   6.499   0.140   0.168  0.4519 -0.1302 -0.2193
 5681TIP3    H138602   6.488   0.091   0.249  1.4204  0.6661  0.4146
 5681TIP3    H238603   6.416   0.128   0.121 -0.5700  0.3231  1.3968
 5682TIP3   OH238604   4.720   6.062   2.932 -0.0679 -0.0471 -0.6250
 5682TIP3    H138605   4.709   6.018   3.016  0.2133  0.8928 -0.0766
 5682TIP3    H238606   4.781   6.006   2.883  0.7180  0.0078  0.2637
 5683TIP3   OH238607   4.778   3.761   2.689 -0.3980  0.3895 -0.1287
 5683TIP3    H138608   4.767   3.679   2.738 -0.2586  1.9157  2.7011
 5683TIP3    H238609   4.690   3.797   2.681 -0.1861  1.3191  1.3183
 5684TIP3   OH238610   0.933   6.135   1.201  0.5696 -0.0328  0.1506
 5684TIP3    H138611   0.954   6.148   1.109 -1.7150  2.5646 -0.1527
 5684TIP3    H238612   1.005   6.178   1.249  0.0835  1.7104 -0.5881
 5685TIP3   OH238613   2.555   5.573   1.393  0.1446 -0.0864 -0.5464
 5685TIP3    H138614   2.649   5.571   1.410  0.1452  1.4532 -0.2724
 5685TIP3    H238615   2.544   5.517   1.316  1.0125 -1.7837  0.4898
 5686TIP3   OH238616   0.971   2.854   0.386  0.0253 -0.3992 -0.4037
 5686TIP3    H138617   0.992   2.844   0.479  1.0101 -0.2996 -0.6021
 5686TIP3    H238618   0.911   2.928   0.382  0.7191  0.1873  0.0629
 5687TIP3   OH238619   0.701   3.016   8.574  0.5335 -0.0316  0.8848
 5687TIP3    H138620   0.619   2.993   8.618  1.2901 -0.9626  1.8476
 5687TIP3    H238621   0.732   2.934   8.537  0.5875  0.4913 -0.2848
 5688TIP3   OH238622   0.483   0.624   7.876  0.5692  0.1706  0.2528
 5688TIP3    H138623   0.558   0.679   7.854  0.6201 -0.6129 -1.6991
 5688TIP3    H238624   0.454   0.589   7.792  0.1099 -2.2294  1.3513
 5689TIP3   OH238625   5.318   1.454   2.845  0.3669 -0.1684 -0.4012
 5689TIP3    H138626   5.228   1.450   2.813 -0.0559  0.7421  0.5926
 5689TIP3    H238627   5.322   1.537   2.894  0.6238 -1.9079  2.7774
 5690TIP3   OH238628   0.970   1.239   0.297 -0.4668  0.4009  0.2136
 5690TIP3    H138629   0.929   1.264   0.214 -1.4270 -1.7028  0.0041
 5690TIP3    H238630   0.928   1.157   0.321  1.7954 -0.5139  1.3505
 5691TIP3   OH238631   4.202   0.094   1.775 -0.2210  0.1736 -0.2432
 5691TIP3    H138632   4.271   0.125   1.716 -1.3823  0.1033 -1.7054
 5691TIP3    H238633   4.170   0.014   1.734 -1.4269  0.4099  0.2034
 5692TIP3   OH238634   0.819   6.380   0.952  0.5024 -0.2132 -0.3022
 5692TIP3    H138635   0.794   6.336   0.871  0.7458  0.5083 -0.7737
 5692TIP3    H238636   0.736   6.402   0.994  0.3769 -0.6834 -0.2934
 5693TIP3   OH238637   1.826   4.996   0.948 -0.7467  0.2349 -0.1666
 5693TIP3    H138638   1.825   5.004   1.043 -0.9209  0.7875 -0.2097
 5693TIP3    H238639   1.913   5.027   0.922 -0.6276 -0.0989 -0.1781
 5694TIP3   OH238640   2.717   3.431   1.674  0.1551  0.0558 -0.0687
 5694TIP3    H138641   2.628   3.416   1.642 -0.1294 -1.3201  1.2659
 5694TIP3    H238642   2.711   3.514   1.722 -0.4526 -0.0838  0.1043
 5695TIP3   OH238643   0.244   5.519   2.412  0.1778  0.1573  0.1900
 5695TIP3    H138644   0.286   5.460   2.473 -0.0648 -0.9175 -0.6561
 5695TIP3    H238645   0.178   5.565   2.464  0.6683  0.0234  0.9481
 5696TIP3   OH238646   1.131   3.899   8.519  0.0486  0.5390 -0.5513
 5696TIP3    H138647   1.049   3.948   8.514 -0.9877 -1.1900 -1.1609
 5696TIP3    H238648   1.144   3.885   8.613 -1.2520 -0.5679 -0.5030
 5697TIP3   OH238649   3.846   6.055   8.175 -0.2866  0.1690 -0.3268
 5697TIP3    H138650   3.843   5.967   8.138  0.6676  0.1448 -0.3723
 5697TIP3    H238651   3.939   6.072   8.190 -0.3225  1.6533 -1.4840
 5698TIP3   OH238652   0.007   0.477   0.104 -0.7404 -0.5092 -0.0637
 5698TIP3    H138653   0.036   0.392   0.072  1.5567  0.2444 -0.1616
 5698TIP3    H238654   0.062   0.540   0.058 -1.8003  0.9960  0.6395
 5699TIP3   OH238655   3.830   4.812   2.055 -0.0791 -0.0711 -0.2070
 5699TIP3    H138656   3.878   4.824   2.137  1.3437  0.4490 -1.0703
 5699TIP3    H238657   3.820   4.717   2.046  1.5055 -0.2482 -0.3699
 5700TIP3   OH238658   5.195   2.505   1.925 -0.7851  0.2361 -0.2861
 5700TIP3    H138659   5.226   2.588   1.962 -2.6709  0.6951  0.3872
 5700TIP3    H238660   5.134   2.471   1.990 -0.1864 -1.6168 -0.6393
 5701TIP3   OH238661   4.980   2.460   0.896 -0.1903 -0.2897  0.3164
 5701TIP3    H138662   5.008   2.536   0.846  1.2981 -1.4415 -0.7000
 5701TIP3    H238663   4.953   2.396   0.830  0.8801 -1.4862  0.9896
 5702TIP3   OH238664   5.970   1.882   1.322 -0.5559  0.2587 -0.6122
 5702TIP3    H138665   6.020   1.800   1.313  0.8779  0.9335  0.7024
 5702TIP3    H238666   6.024   1.948   1.280 -0.5312  0.9284  0.4174
 5703TIP3   OH238667   6.724   3.650   0.696 -0.3395  0.0952 -0.2915
 5703TIP3    H138668   6.778   3.710   0.644  0.0588 -1.3121 -1.5291
 5703TIP3    H238669   6.641   3.696   0.706 -0.6880  0.1045 -2.8115
 5704TIP3   OH238670   0.078   1.670   0.287 -0.3895  0.3198 -0.0426
 5704TIP3    H138671   0.058   1.763   0.290  3.3355  1.2611  0.6919
 5704TIP3    H238672   0.088   1.644   0.379  3.0576  0.4804 -0.2389
 5705TIP3   OH238673   3.949   5.237   7.759  0.1605  0.6923  0.6087
 5705TIP3    H138674   3.930   5.268   7.670 -1.1505 -1.0257  0.2302
 5705TIP3    H238675   4.041   5.212   7.756 -0.3247 -1.1569 -0.8948
 5706TIP3   OH238676   1.168   1.327   0.454  0.2746  0.7842  0.5514
 5706TIP3    H138677   1.225   1.257   0.421  1.3935  2.5880 -1.6618
 5706TIP3    H238678   1.090   1.322   0.400 -1.2689 -0.8766  2.7493
 5707TIP3   OH238679   2.494   5.378   8.679  0.1122  0.3931  0.1005
 5707TIP3    H138680   2.499   5.395   8.585  0.9850 -0.9986 -0.1242
 5707TIP3    H238681   2.514   5.463   8.720  4.0472  0.1603 -0.9688
 5708TIP3   OH238682   5.631   5.810   8.646 -0.7983  0.2606  0.7683
 5708TIP3    H138683   5.682   5.758   8.584 -0.2728  0.8938  0.6730
 5708TIP3    H238684   5.548   5.761   8.654  0.5481 -1.9273  2.5354
 5709TIP3   OH238685   5.416   3.152   8.314  0.0068  0.1456  0.2181
 5709TIP3    H138686   5.346   3.119   8.258  0.1971 -0.2529  0.2111
 5709TIP3    H238687   5.382   3.233   8.350 -0.0177  0.5511 -0.6832
 5710TIP3   OH238688   0.479   6.702   2.135  0.3938  0.6454 -0.0196
 5710TIP3    H138689   0.461   6.754   2.213  0.0784  0.0414  0.3118
 5710TIP3    H238690   0.477   6.766   2.063 -1.6992  0.8405  0.1482
 5711TIP3   OH238691   0.262   2.639   2.557  0.2042  0.3033  0.0941
 5711TIP3    H138692   0.265   2.731   2.532  1.2296 -0.2333 -1.9683
 5711TIP3    H238693   0.206   2.598   2.491  2.5257 -1.0683 -1.1769
 5712TIP3   OH238694   2.898   4.080   0.241  0.3768  0.3610  0.2054
 5712TIP3    H138695   2.853   4.019   0.183  0.3097  0.6242 -0.0226
 5712TIP3    H238696   2.875   4.166   0.208  0.7701  0.5055  0.2967
 5713TIP3   OH238697   5.712   4.589   8.220  0.5908 -0.4045 -0.1006
 5713TIP3    H138698   5.806   4.579   8.234  0.6062 -3.0692 -1.4676
 5713TIP3    H238699   5.677   4.500   8.228 -1.7619  0.4665 -0.0356
 5714TIP3   OH238700   3.539   3.674   1.606  0.1761  0.3683 -0.1991
 5714TIP3    H138701   3.444   3.664   1.612  0.1584  1.0530  0.7894
 5714TIP3    H238702   3.551   3.728   1.527 -0.3180  1.0668  0.1895
 5715TIP3   OH238703   1.176   0.265   8.609  0.1637 -1.0599  0.1352
 5715TIP3    H138704   1.116   0.196   8.580  0.0685 -0.4301 -1.2230
 5715TIP3    H238705   1.141   0.346   8.570  1.0772 -0.4563  0.5214
 5716TIP3   OH238706   6.586   4.723   1.824 -0.0406  0.0188  0.0648
 5716TIP3    H138707   6.627   4.695   1.906 -1.0727  1.5242  1.1650
 5716TIP3    H238708   6.527   4.794   1.850 -0.1593  0.7714 -2.0375
 5717TIP3   OH238709   6.412   0.336   1.431  0.0976 -0.0267 -0.3186
 5717TIP3    H138710   6.432   0.428   1.448  1.1482 -0.1749 -0.6553
 5717TIP3    H238711   6.413   0.295   1.518  0.5867  0.1123 -0.2544
 5718TIP3   OH238712   5.028   1.791   0.289  0.2509 -0.6161  0.0560
 5718TIP3    H138713   4.968   1.759   0.356  0.4829 -0.1046  0.5093
 5718TIP3    H238714   5.098   1.725   0.287  0.5890 -0.2848  0.7964
 5719TIP3   OH238715   1.494   6.503   3.120  0.2304  0.0831 -0.4090
 5719TIP3    H138716   1.500   6.481   3.213  2.0674  0.3181 -0.4444
 5719TIP3    H238717   1.474   6.597   3.119 -3.5424 -0.5598 -0.2957
 5720TIP3   OH238718   6.407   0.786   0.590  0.6724  0.1767 -0.9017
 5720TIP3    H138719   6.482   0.750   0.544  1.2631 -1.6879  1.3280
 5720TIP3    H238720   6.411   0.747   0.677 -0.6538  3.0901  0.6121
 5721TIP3   OH238721   1.917   3.336   7.508 -0.3634 -0.1615  0.0699
 5721TIP3    H138722   1.971   3.323   7.586  2.1344 -0.0047 -1.5131
 5721TIP3    H238723   1.874   3.420   7.522  0.5198  0.1561  1.0314
 5722TIP3   OH238724   4.407   3.465   0.188 -0.0075 -0.0146 -0.0214
 5722TIP3    H138725   4.360   3.508   0.117  0.8907  0.1288 -0.5418
 5722TIP3    H238726   4.415   3.532   0.256  1.3682  0.6767 -0.8204
 5723TIP3   OH238727   1.701   3.896   8.380 -0.0437  0.0562 -0.0902
 5723TIP3    H138728   1.755   3.896   8.301 -0.7620 -0.0435 -0.5924
 5723TIP3    H238729   1.709   3.984   8.415  1.8209 -0.4209  0.8204
 5724TIP3   OH238730   4.938   5.900   3.286  0.1167 -0.7161  0.5534
 5724TIP3    H138731   4.969   5.952   3.359  0.5265  0.8528 -0.6831
 5724TIP3    H238732   4.994   5.925   3.213 -1.6245 -0.6084 -0.8236
 5725TIP3   OH238733   6.114   2.074   8.644  0.6010 -0.7610  0.1802
 5725TIP3    H138734   6.107   2.157   8.691 -1.3360 -1.2350  0.8081
 5725TIP3    H238735   6.189   2.030   8.685  1.3601  0.4550  0.1475
 5726TIP3   OH238736   6.022   6.554   2.774  0.1839 -0.0854  0.1677
 5726TIP3    H138737   6.075   6.554   2.854  1.2155 -2.1343 -0.4426
 5726TIP3    H238738   6.038   6.640   2.734  0.9845  0.3190  1.3047
 5727TIP3   OH238739   3.589   5.091   2.338 -0.1341  0.1205 -0.0985
 5727TIP3    H138740   3.621   5.081   2.427  0.2361 -0.9062 -0.3316
 5727TIP3    H238741   3.666   5.113   2.286 -0.4060  1.0553 -0.1169
 5728TIP3   OH238742   6.398   3.244   0.804 -0.4102 -0.0279  0.2097
 5728TIP3    H138743   6.433   3.296   0.732 -0.0630  0.1360  0.4962
 5728TIP3    H238744   6.424   3.154   0.783 -1.5938 -0.2039 -0.6415
 5729TIP3   OH238745   2.774   5.942   2.090 -0.2680 -0.0089  0.4039
 5729TIP3    H138746   2.733   6.010   2.144 -0.8352  0.2175 -0.2963
 5729TIP3    H238747   2.839   5.989   2.038 -1.5369  0.2837 -1.0323
 5730TIP3   OH238748   2.572   6.295   0.580 -0.8173  0.2655  0.1143
 5730TIP3    H138749   2.535   6.213   0.550 -0.4007  1.0629 -2.8782
 5730TIP3    H238750   2.652   6.270   0.626 -1.0999 -1.0275 -0.0763
 5731TIP3   OH238751   0.436   2.015   8.715 -0.2073 -0.2419  0.6148
 5731TIP3    H138752   0.427   1.982   8.626  2.8956  1.2198 -0.4147
 5731TIP3    H238753   0.506   1.962   8.753  0.0154  0.5802  1.3920
 5732TIP3   OH238754   5.105   2.405   1.643 -0.1153 -0.1648  0.8087
 5732TIP3    H138755   5.119   2.473   1.708  0.4105  0.3466  0.1720
 5732TIP3    H238756   5.179   2.345   1.654 -0.6936 -0.7741  1.5184
 5733TIP3   OH238757   0.847   5.104   1.143 -0.1938 -0.2599 -0.5029
 5733TIP3    H138758   0.814   5.096   1.233 -0.2918 -0.6749 -0.5746
 5733TIP3    H238759   0.885   5.019   1.123 -0.7358 -0.3778 -1.0767
 5734TIP3   OH238760   5.664   2.087   1.731  0.2108 -0.1122  0.2736
 5734TIP3    H138761   5.601   2.078   1.802 -0.1180 -0.3308 -0.0456
 5734TIP3    H238762   5.690   1.997   1.709  2.6354  0.0232  2.1661
 5735TIP3   OH238763   3.687   5.997   7.464 -0.0790  0.1526  0.0851
 5735TIP3    H138764   3.746   6.016   7.537  0.9660 -0.7921 -0.4844
 5735TIP3    H238765   3.706   5.906   7.440 -3.2673 -0.9565  1.2343
 5736TIP3   OH238766   0.773   2.440   2.617  0.2455  0.5653 -0.4988
 5736TIP3    H138767   0.680   2.451   2.635  0.2449  0.7433 -0.6146
 5736TIP3    H238768   0.814   2.441   2.703  0.1895  0.9312 -0.4774
 5737TIP3   OH238769   4.868   2.977   0.648  0.1545 -0.2938 -0.0508
 5737TIP3    H138770   4.864   3.064   0.608  0.0646 -0.5813 -0.6879
 5737TIP3    H238771   4.820   2.920   0.587  1.1206 -0.9897 -0.1910
 5738TIP3   OH238772   5.891   3.695   2.692  0.8948 -0.3216  0.6014
 5738TIP3    H138773   5.949   3.770   2.707 -0.4098  0.4928  1.8366
 5738TIP3    H238774   5.807   3.721   2.731 -0.7496 -0.9107 -2.2031
 5739TIP3   OH238775   6.070   5.081   1.462 -0.2978 -0.1316  0.0726
 5739TIP3    H138776   6.053   5.162   1.413  3.3787 -0.0759 -1.4987
 5739TIP3    H238777   6.134   5.106   1.528 -0.2917 -1.4889  0.6172
 5740TIP3   OH238778   4.773   3.637   7.009 -0.4286  0.0904  0.5481
 5740TIP3    H138779   4.807   3.549   7.025 -0.4252 -0.0853 -0.3980
 5740TIP3    H238780   4.687   3.637   7.052 -0.0789 -0.0934  1.2704
 5741TIP3   OH238781   4.823   6.044   0.972 -0.1372 -0.7297  0.3529
 5741TIP3    H138782   4.732   6.071   0.959  0.0001  0.0202  0.8964
 5741TIP3    H238783   4.828   5.956   0.935 -0.6556 -0.0965 -1.3111
 5742TIP3   OH238784   1.454   4.099   8.514  0.1131  0.1031 -0.5789
 5742TIP3    H138785   1.493   4.031   8.568  0.3123 -0.1161 -0.9935
 5742TIP3    H238786   1.360   4.081   8.517 -0.0349  0.9815  0.8950
 5743TIP3   OH238787   3.232   0.814   2.164  0.0044  0.8442  0.2915
 5743TIP3    H138788   3.260   0.869   2.237  1.0339 -0.5203  0.9752
 5743TIP3    H238789   3.312   0.800   2.113 -0.3987  0.5844 -0.2763
 5744TIP3   OH238790   4.794   0.740   8.544 -0.0016 -0.2279  0.6233
 5744TIP3    H138791   4.722   0.748   8.481 -0.6542 -0.3597  1.3343
 5744TIP3    H238792   4.834   0.826   8.545  0.5607 -0.4568 -0.6004
 5745TIP3   OH238793   1.329   5.273   1.615  0.1771  0.5560  0.1001
 5745TIP3    H138794   1.321   5.326   1.536  3.0095 -2.4164 -2.4654
 5745TIP3    H238795   1.242   5.235   1.627 -0.4638  1.5344 -1.2103
 5746TIP3   OH238796   4.648   0.748   1.893  0.0764 -0.7990 -0.0906
 5746TIP3    H138797   4.675   0.697   1.969 -0.7721 -1.6490 -0.3441
 5746TIP3    H238798   4.600   0.686   1.838  0.8997 -0.2699 -1.4559
 5747TIP3   OH238799   6.776   0.975   2.699 -0.0510  0.0986 -0.7128
 5747TIP3    H138800   6.682   0.958   2.698 -0.6888  3.0970 -1.2073
 5747TIP3    H238801   6.788   1.037   2.771  1.8405 -1.3575  0.3256
 5748TIP3   OH238802   2.020   6.277   1.602 -0.1607 -0.6341  0.3220
 5748TIP3    H138803   1.981   6.363   1.588  1.3239 -0.2401 -1.8569
 5748TIP3    H238804   2.029   6.271   1.697 -1.3672  1.1133  0.6039
 5749TIP3   OH238805   6.538   5.632   8.026 -0.3041 -0.1959 -0.7642
 5749TIP3    H138806   6.483   5.587   7.961  1.7687  1.9705 -4.4024
 5749TIP3    H238807   6.606   5.568   8.048 -1.9169 -1.5146  0.6862
 5750TIP3   OH238808   1.345   5.262   0.580 -0.4669  0.0860 -0.0037
 5750TIP3    H138809   1.278   5.264   0.648  0.9084  0.7242  1.3858
 5750TIP3    H238810   1.387   5.348   0.585  1.5113 -0.8489  0.2911
 5751TIP3   OH238811   1.047   5.448   2.176  0.3597  0.4572 -0.4223
 5751TIP3    H138812   1.043   5.433   2.271 -0.9307  0.1730 -0.4946
 5751TIP3    H238813   1.139   5.436   2.154  1.2354  3.3044  1.2158
 5752TIP3   OH238814   6.398   6.341   8.679  0.0702 -0.0938  0.0588
 5752TIP3    H138815   6.372   6.264   8.729  0.6556  0.8339  1.8630
 5752TIP3    H238816   6.475   6.313   8.630  1.0778 -0.3245  1.7236
 5753TIP3   OH238817   5.994   3.118   8.548 -0.2872 -0.3267 -0.1183
 5753TIP3    H138818   6.036   3.040   8.511 -1.7005 -0.3075 -1.9011
 5753TIP3    H238819   5.904   3.092   8.565 -0.8445  0.9326 -0.9379
 5754TIP3   OH238820   5.464   5.258   1.413 -0.2159  0.5607 -0.6529
 5754TIP3    H138821   5.372   5.238   1.396 -0.6037 -0.0769  1.8990
 5754TIP3    H238822   5.512   5.181   1.382 -0.7694 -0.0814  0.0690
 5755TIP3   OH238823   5.415   0.291   7.521  0.1943 -0.3625  0.1344
 5755TIP3    H138824   5.330   0.249   7.508 -0.6144  1.8628 -2.6642
 5755TIP3    H238825   5.462   0.275   7.440  0.6211  2.2537 -0.2292
 5756TIP3   OH238826   4.793   5.327   2.940  0.0257 -0.0501 -0.3255
 5756TIP3    H138827   4.883   5.358   2.940  0.0795 -0.1834  0.2277
 5756TIP3    H238828   4.797   5.241   2.982 -0.0604 -1.0328 -2.2365
 5757TIP3   OH238829   0.430   5.808   8.261 -0.0287  0.4808 -1.3329
 5757TIP3    H138830   0.363   5.844   8.203 -1.1110 -0.5520 -0.7578
 5757TIP3    H238831   0.387   5.735   8.306  0.6811  1.3631  0.9447
 5758TIP3   OH238832   2.339   5.754   2.621  0.0087  0.3713 -0.6089
 5758TIP3    H138833   2.253   5.711   2.614  0.1110  0.2810 -1.3980
 5758TIP3    H238834   2.373   5.725   2.705 -1.6819  2.1592  0.8040
 5759TIP3   OH238835   3.745   6.575   7.424 -0.7879  0.3100 -0.0052
 5759TIP3    H138836   3.816   6.593   7.486 -1.0416  1.0816  0.0718
 5759TIP3    H238837   3.789   6.556   7.342 -0.4679 -0.0234  0.2418
 5760TIP3   OH238838   2.738   4.060   0.900  0.2799 -0.0251 -0.1667
 5760TIP3    H138839   2.735   4.031   0.991 -0.6723  2.2927  0.6079
 5760TIP3    H238840   2.818   4.021   0.865 -0.0841 -2.1655  1.1865
 5761TIP3   OH238841   1.550   3.656   8.214  0.9756 -1.2469 -0.5043
 5761TIP3    H138842   1.561   3.751   8.218  2.4678 -1.4284  1.0592
 5761TIP3    H238843   1.467   3.643   8.169  1.1296  0.7676 -1.4771
 5762TIP3   OH238844   2.413   4.129   3.120  0.2922  0.4399  0.6417
 5762TIP3    H138845   2.343   4.097   3.062  0.5338  0.6697  0.2235
 5762TIP3    H238846   2.494   4.099   3.079  0.4697  0.6705  0.8194
 5763TIP3   OH238847   5.586   5.972   8.109  0.0227  0.3955  0.3522
 5763TIP3    H138848   5.542   5.945   8.029 -0.4048 -0.1931  0.7740
 5763TIP3    H238849   5.521   6.026   8.155  0.1831  0.5401  0.4131
 5764TIP3   OH238850   1.174   2.775   0.179  0.1907 -0.2166 -0.0744
 5764TIP3    H138851   1.109   2.803   0.244 -0.0814 -0.5044 -0.2213
 5764TIP3    H238852   1.167   2.680   0.178 -0.3609 -0.1809 -1.0847
 5765TIP3   OH238853   4.832   0.914   1.766 -0.1706 -0.4239  0.1806
 5765TIP3    H138854   4.881   0.895   1.686  1.8562 -2.5019  1.7600
 5765TIP3    H238855   4.783   0.834   1.784 -3.5149  1.2304 -0.7532
 5766TIP3   OH238856   2.500   3.868   8.732  0.1799 -0.2570 -0.0281
 5766TIP3    H138857   2.541   3.793   8.775 -0.1127 -0.7078 -0.5234
 5766TIP3    H238858   2.489   3.932   8.802 -1.9624 -1.6574  1.0605
 5767TIP3   OH238859   2.575   1.520   0.380 -0.4932 -0.3456  0.5698
 5767TIP3    H138860   2.644   1.583   0.399 -0.4415  1.3151 -3.8001
 5767TIP3    H238861   2.515   1.527   0.453  2.1241  0.8227  2.7850
 5768TIP3   OH238862   6.545   5.143   1.551 -0.1233  0.3244 -0.4015
 5768TIP3    H138863   6.531   5.115   1.461  1.6665  0.3960 -0.7448
 5768TIP3    H238864   6.551   5.238   1.546  0.3508  0.3053 -0.2810
 5769TIP3   OH238865   6.706   3.248   2.115 -0.0098 -0.5921  0.0201
 5769TIP3    H138866   6.683   3.205   2.034 -0.1757 -1.6286  0.6037
 5769TIP3    H238867   6.741   3.179   2.171  0.6270  0.1984  0.6389
 5770TIP3   OH238868   3.807   5.739   0.494 -0.6522 -0.5065 -0.4188
 5770TIP3    H138869   3.724   5.780   0.518 -0.2062 -0.4544  1.1358
 5770TIP3    H238870   3.822   5.765   0.403 -1.2852  1.2453 -0.0462
 5771TIP3   OH238871   0.979   2.437   2.822 -0.5128  0.8224  0.4827
 5771TIP3    H138872   1.008   2.346   2.837 -1.6475  0.4579  0.5668
 5771TIP3    H238873   1.057   2.481   2.789 -0.1195 -0.3669 -0.2691
 5772TIP3   OH238874   0.227   3.249   1.517 -0.0038  0.2284  0.1717
 5772TIP3    H138875   0.154   3.216   1.569 -0.7404 -0.3582 -1.1807
 5772TIP3    H238876   0.283   3.173   1.503  0.6358  0.5725  0.8068
 5773TIP3   OH238877   4.673   5.433   1.261  0.3136  0.3297  0.0288
 5773TIP3    H138878   4.643   5.524   1.251 -0.4642  0.2755  1.4990
 5773TIP3    H238879   4.725   5.434   1.341 -1.2385 -0.8532  1.0979
 5774TIP3   OH238880   5.140   1.230   0.623  0.6999  0.1391 -0.2767
 5774TIP3    H138881   5.151   1.198   0.534 -0.5428  1.1514 -0.8374
 5774TIP3    H238882   5.076   1.301   0.615 -0.6288 -0.7480  1.6278
 5775TIP3   OH238883   1.462   1.345   7.168 -0.4612 -0.0550  0.1599
 5775TIP3    H138884   1.377   1.317   7.133 -0.4643  0.8605 -0.5918
 5775TIP3    H238885   1.466   1.439   7.151  1.6364 -0.4254 -1.9092
 5776TIP3   OH238886   6.787   2.489   7.457 -0.1987 -0.2032  0.0734
 5776TIP3    H138887   6.753   2.463   7.543  0.3131 -0.6603  0.1414
 5776TIP3    H238888   6.709   2.493   7.402 -0.3896 -1.0936  0.2657
 5777TIP3   OH238889   6.798   6.061   3.269 -0.6129 -0.3422 -0.0218
 5777TIP3    H138890   6.797   5.965   3.271 -0.0176 -0.3640  2.9842
 5777TIP3    H238891   6.742   6.083   3.195 -0.3091 -2.9872 -1.1766
 5778TIP3   OH238892   1.597   3.588   0.765  0.4109 -0.2877  0.1306
 5778TIP3    H138893   1.671   3.647   0.750 -0.0992  0.3934  0.2472
 5778TIP3    H238894   1.636   3.501   0.764  1.2033  0.0541  0.1057
 5779TIP3   OH238895   3.132   4.041   1.631  0.0692 -0.2755  0.3237
 5779TIP3    H138896   3.207   3.987   1.603  0.4956 -0.3740  1.6176
 5779TIP3    H238897   3.067   3.977   1.662  0.1560 -0.1005  0.8685
 5780TIP3   OH238898   1.509   5.847   2.777 -0.0414 -0.0837 -0.4782
 5780TIP3    H138899   1.547   5.865   2.863  1.2967  1.6146 -1.3600
 5780TIP3    H238900   1.582   5.859   2.716 -0.8146 -1.7967 -1.8373
 5781TIP3   OH238901   5.436   0.436   0.260 -0.0432 -0.0515 -0.4349
 5781TIP3    H138902   5.374   0.437   0.186  0.3092  1.9425 -0.7617
 5781TIP3    H238903   5.498   0.506   0.240  0.6691 -0.1538  1.2688
 5782TIP3   OH238904   3.839   2.977   8.225  0.4616 -0.8202  0.6872
 5782TIP3    H138905   3.896   2.986   8.148 -2.6627 -1.9199 -2.0220
 5782TIP3    H238906   3.780   3.053   8.219  1.1256 -0.0340  3.0481
 5783TIP3   OH238907   5.808   2.576   8.075 -0.4089  0.2022 -0.6002
 5783TIP3    H138908   5.800   2.483   8.097 -0.6694  0.7348  1.7664
 5783TIP3    H238909   5.890   2.603   8.114 -1.0938  1.3234  0.1017
 5784TIP3   OH238910   5.344   6.756   0.121 -0.2066  0.6035 -0.2139
 5784TIP3    H138911   5.413   6.691   0.110 -0.7756  0.2296 -1.8396
 5784TIP3    H238912   5.380   6.820   0.183 -0.3984 -2.2532  3.1088
 5785TIP3   OH238913   1.418   2.813   2.710 -0.4485 -0.3063 -0.5687
 5785TIP3    H138914   1.333   2.773   2.729  0.4852 -2.6452 -0.9926
 5785TIP3    H238915   1.450   2.844   2.795 -0.4560 -2.0832  0.1084
 5786TIP3   OH238916   6.210   4.823   2.911 -0.2111  0.3301  0.6023
 5786TIP3    H138917   6.303   4.812   2.891 -0.5422  0.2703 -1.0902
 5786TIP3    H238918   6.206   4.905   2.960  0.5768  1.2897 -0.8526
 5787TIP3   OH238919   2.179   4.530   1.034 -0.1239 -0.2717  0.8852
 5787TIP3    H138920   2.232   4.459   0.998  0.4713 -0.9756  3.0159
 5787TIP3    H238921   2.242   4.597   1.058 -0.6905  1.0953 -1.2051
 5788TIP3   OH238922   3.582   6.262   1.991  0.1392 -0.5465  0.2049
 5788TIP3    H138923   3.636   6.295   2.062 -1.1375  1.0507  0.4884
 5788TIP3    H238924   3.501   6.311   1.997 -1.5647 -3.1385  0.0444
 5789TIP3   OH238925   4.277   0.190   8.760 -0.1619  0.2623 -0.6707
 5789TIP3    H138926   4.283   0.095   8.749  0.8324  0.2881 -0.4386
 5789TIP3    H238927   4.336   0.226   8.694  2.1010  0.5724  1.3570
 5790TIP3   OH238928   4.150   4.696   1.147 -0.3616  0.1058 -0.4509
 5790TIP3    H138929   4.244   4.675   1.149  0.0708  1.9149  0.0437
 5790TIP3    H238930   4.107   4.612   1.162  1.1455 -0.9068 -1.5211
 5791TIP3   OH238931   5.891   5.296   7.367  0.9839  0.1456 -0.2041
 5791TIP3    H138932   5.918   5.207   7.390 -0.6090 -0.1640  0.5937
 5791TIP3    H238933   5.835   5.285   7.290  1.1731  0.5211 -0.4012
 5792TIP3   OH238934   6.080   3.277   8.773  0.0946 -0.6871  0.0084
 5792TIP3    H138935   6.022   3.353   8.783  1.8394  0.9916 -1.7033
 5792TIP3    H238936   6.041   3.226   8.702 -1.2907 -1.6926  1.4128
 5793TIP3   OH238937   6.696   5.976   7.892 -0.1853 -0.2195  0.1509
 5793TIP3    H138938   6.783   5.962   7.854  1.0901  0.1551  2.7220
 5793TIP3    H238939   6.694   6.070   7.911 -1.9101  0.1262 -1.4678
 5794TIP3   OH238940   3.716   3.513   2.517 -0.1358  0.3265  0.1100
 5794TIP3    H138941   3.649   3.538   2.581 -0.7259 -0.2635 -0.2666
 5794TIP3    H238942   3.668   3.464   2.451  0.7887 -0.7012  0.1820
 5795TIP3   OH238943   4.405   1.836   1.257  0.2734 -0.1768  0.0739
 5795TIP3    H138944   4.376   1.918   1.219 -4.3376 -1.1832  0.9092
 5795TIP3    H238945   4.396   1.772   1.186 -0.0269 -0.6064  0.4925
 5796TIP3   OH238946   2.572   3.907   2.069 -0.4474  0.0713  0.3592
 5796TIP3    H138947   2.611   3.980   2.117  0.5243  0.0156 -0.3251
 5796TIP3    H238948   2.614   3.910   1.983 -1.2942 -0.5547 -0.0883
 5797TIP3   OH238949   1.285   0.051   2.511 -0.6838 -0.0075 -0.4355
 5797TIP3    H138950   1.319   0.074   2.598 -0.0480  2.8157 -1.3191
 5797TIP3    H238951   1.190   0.056   2.520 -0.6006  1.5530 -0.1547
 5798TIP3   OH238952   2.123   5.820   8.180 -0.2329 -0.3954  0.4837
 5798TIP3    H138953   2.211   5.835   8.146 -0.7491  0.1125 -0.7154
 5798TIP3    H238954   2.136   5.792   8.271  1.1358  0.0598  0.4517
 5799TIP3   OH238955   3.146   2.026   7.543 -0.2660 -0.6180 -0.1590
 5799TIP3    H138956   3.141   1.981   7.459 -0.1749 -0.9903  0.0372
 5799TIP3    H238957   3.154   2.119   7.520  0.1776 -0.7565 -0.5666
 5800TIP3   OH238958   2.728   1.501   8.144  0.3946  0.6880 -0.2360
 5800TIP3    H138959   2.757   1.529   8.057  1.3786  3.2102  0.8519
 5800TIP3    H238960   2.798   1.443   8.175  0.2655  0.1589 -0.8847
 5801TIP3   OH238961   0.962   2.441   7.383  0.0150 -0.0758  0.1743
 5801TIP3    H138962   0.982   2.514   7.442 -1.9116  1.5608 -1.0620
 5801TIP3    H238963   0.885   2.399   7.421  0.6147 -0.9634  0.4316
 5802TIP3   OH238964   2.164   6.653   1.157 -0.3915  0.3804 -0.0854
 5802TIP3    H138965   2.119   6.719   1.104 -2.5690  0.5573  1.8092
 5802TIP3    H238966   2.163   6.689   1.246  0.0418 -1.3726  0.6782
 5803TIP3   OH238967   3.982   3.382   8.324 -0.1300  0.3516  0.1889
 5803TIP3    H138968   4.003   3.313   8.261  0.8584 -0.9239  1.8426
 5803TIP3    H238969   3.904   3.350   8.370 -1.7884  1.9657 -1.3012
 5804TIP3   OH238970   2.233   5.572   0.062 -0.4178  0.1341 -0.1766
 5804TIP3    H138971   2.269   5.490   0.094 -1.0653 -0.1688 -0.2149
 5804TIP3    H238972   2.161   5.546   0.004 -0.3158  0.7128 -0.5675
 5805TIP3   OH238973   1.194   0.573   7.566  0.2052  0.2738 -0.3395
 5805TIP3    H138974   1.166   0.664   7.566  0.6300  0.4090 -0.7932
 5805TIP3    H238975   1.183   0.544   7.475 -0.6848 -0.3660 -0.0378
 5806TIP3   OH238976   2.031   4.419   2.633 -0.0635 -0.8916  0.7921
 5806TIP3    H138977   1.979   4.382   2.562 -0.1843 -1.5152  1.2049
 5806TIP3    H238978   2.120   4.387   2.616  0.8753  2.4055 -1.5369
 5807TIP3   OH238979   3.800   0.303   7.598 -0.1852 -0.4285 -0.3994
 5807TIP3    H138980   3.754   0.228   7.637 -0.2221  0.1086  0.6115
 5807TIP3    H238981   3.767   0.379   7.646  1.8112 -0.0345  0.4280
 5808TIP3   OH238982   2.312   6.581   0.852  0.0074 -0.3103 -0.3792
 5808TIP3    H138983   2.371   6.599   0.779 -0.7586  0.0010 -0.9477
 5808TIP3    H238984   2.352   6.625   0.927  0.4321 -0.0141 -0.7749
 5809TIP3   OH238985   2.277   6.114   1.066  0.1954  0.3615 -0.0266
 5809TIP3    H138986   2.257   6.207   1.064 -4.8586 -0.3898  1.2162
 5809TIP3    H238987   2.283   6.093   1.160  0.9574 -0.6215 -0.2842
 5810TIP3   OH238988   6.403   3.935   0.502 -0.0716  0.3298  0.1498
 5810TIP3    H138989   6.470   3.997   0.530  0.4532 -0.2833  0.2703
 5810TIP3    H238990   6.437   3.899   0.420  0.6757 -1.4065  1.1930
 5811TIP3   OH238991   2.862   6.639   1.223  0.1816  0.8881 -0.0351
 5811TIP3    H138992   2.807   6.616   1.298  0.3394  0.8701  0.0776
 5811TIP3    H238993   2.837   6.729   1.201 -0.0450  0.8034 -0.1231
 5812TIP3   OH238994   2.776   6.341   8.428 -0.2124  0.0704  0.4853
 5812TIP3    H138995   2.777   6.293   8.345 -5.4986  1.8743 -1.0243
 5812TIP3    H238996   2.854   6.396   8.425  2.0135 -2.8621 -1.1439
 5813TIP3   OH238997   3.642   0.714   1.559  0.3026 -0.3589 -0.6885
 5813TIP3    H138998   3.701   0.782   1.591 -1.4221  0.5490  0.7399
 5813TIP3    H238999   3.603   0.677   1.638 -0.2558 -1.6771 -1.5400
 5814TIP3   OH239000   4.769   3.586   3.141  0.0817 -0.4117 -0.3421
 5814TIP3    H139001   4.749   3.498   3.172  0.4483  0.3697  2.3478
 5814TIP3    H239002   4.861   3.583   3.118  0.5449 -0.3556  1.3807
 5815TIP3   OH239003   2.908   0.519   7.777 -0.0081 -0.0011 -0.2476
 5815TIP3    H139004   2.883   0.466   7.702 -0.4463 -1.0161  0.5817
 5815TIP3    H239005   2.836   0.582   7.788 -0.2915 -0.3248 -0.2408
 5816TIP3   OH239006   5.808   1.814   2.938  0.5977 -0.2255 -0.3731
 5816TIP3    H139007   5.845   1.731   2.969  1.4222  0.2980  0.0597
 5816TIP3    H239008   5.714   1.805   2.954  0.7525 -0.8159  0.2774
 5817TIP3   OH239009   5.735   2.514   1.507 -0.2438 -0.3477 -0.7993
 5817TIP3    H139010   5.778   2.465   1.578 -1.0242  0.1769  0.0520
 5817TIP3    H239011   5.652   2.469   1.494 -0.3135 -0.1438 -1.0565
 5818TIP3   OH239012   4.825   1.512   2.515  0.6854  0.1079  0.0271
 5818TIP3    H139013   4.736   1.548   2.509  0.7439  0.3666  0.6065
 5818TIP3    H239014   4.882   1.586   2.496  0.7941  0.1797  0.6166
 5819TIP3   OH239015   3.115   5.231   1.103  0.3789  0.1541 -0.1963
 5819TIP3    H139016   3.203   5.254   1.072  0.1456  2.3860  0.6631
 5819TIP3    H239017   3.130   5.160   1.165  1.2352 -1.5937 -2.2660
 5820TIP3   OH239018   1.199   1.875   0.174  0.2024 -0.1687 -0.3024
 5820TIP3    H139019   1.162   1.833   0.096  0.0338  1.7420 -1.3152
 5820TIP3    H239020   1.124   1.887   0.232  0.4569 -2.2786  0.5276
 5821TIP3   OH239021   1.859   6.559   0.190 -0.4861 -0.2193 -0.2614
 5821TIP3    H139022   1.863   6.487   0.253 -0.9387 -1.8817 -2.0452
 5821TIP3    H239023   1.766   6.579   0.182 -0.5046 -0.6285 -1.0675
 5822TIP3   OH239024   0.881   3.607   2.847  0.2410  0.2907 -0.2480
 5822TIP3    H139025   0.970   3.582   2.821  0.5083  0.4484  0.4980
 5822TIP3    H239026   0.831   3.525   2.845  0.0372  0.4152 -2.0350
 5823TIP3   OH239027   4.877   2.844   1.569  0.3213 -0.1475  0.2420
 5823TIP3    H139028   4.965   2.807   1.558  0.3611 -0.4140  1.3421
 5823TIP3    H239029   4.890   2.939   1.567  0.3771 -0.1736 -1.4291
 5824TIP3   OH239030   6.795   5.444   0.861 -0.0096 -0.4279 -0.5931
 5824TIP3    H139031   6.744   5.524   0.874  0.8593  0.0490 -0.0755
 5824TIP3    H239032   6.756   5.403   0.783  0.5908  1.3419 -1.8765
 5825TIP3   OH239033   5.276   0.892   6.977  0.4701  0.5220  0.0078
 5825TIP3    H139034   5.251   0.984   6.990 -1.0130  0.2668 -0.7927
 5825TIP3    H239035   5.353   0.897   6.919  0.3383  1.2517 -0.1242
 5826TIP3   OH239036   5.475   6.516   7.346 -0.0985 -1.0577  0.3126
 5826TIP3    H139037   5.431   6.595   7.377 -0.3468 -1.0319 -0.1013
 5826TIP3    H239038   5.521   6.544   7.267  0.5567 -1.1151  0.6682
 5827TIP3   OH239039   3.725   5.976   8.558  0.6546  0.1907  0.6396
 5827TIP3    H139040   3.665   5.933   8.619 -1.7223  0.7604 -1.1320
 5827TIP3    H239041   3.713   5.929   8.476  0.1450  2.3306 -0.5986
 5828TIP3   OH239042   0.908   1.502   8.704 -0.1793 -0.3264 -0.1135
 5828TIP3    H139043   0.895   1.429   8.644  0.2512  0.1335 -0.7751
 5828TIP3    H239044   0.847   1.485   8.776 -1.9899  0.0189 -1.5105
 5829TIP3   OH239045   6.150   4.632   0.062 -0.8595  0.2076 -0.7238
 5829TIP3    H139046   6.125   4.552   0.014 -1.9703  0.6446 -0.8974
 5829TIP3    H239047   6.115   4.619   0.150  1.5451 -0.7821  0.1797
 5830TIP3   OH239048   3.225   0.292   0.846  0.1672 -0.5073 -0.1666
 5830TIP3    H139049   3.259   0.377   0.876  0.0532 -0.4628 -0.1637
 5830TIP3    H239050   3.145   0.314   0.799  0.3073 -0.5820 -0.4425
 5831TIP3   OH239051   6.075   3.593   1.208 -0.2619  0.1035 -0.3396
 5831TIP3    H139052   6.147   3.534   1.188 -0.4751 -0.0742 -0.5839
 5831TIP3    H239053   6.111   3.654   1.273  0.2483  0.3156 -0.8193
 5832TIP3   OH239054   5.605   3.406   1.994 -0.2624 -0.6116 -0.1841
 5832TIP3    H139055   5.540   3.429   2.060 -0.3183  1.1160 -0.7951
 5832TIP3    H239056   5.559   3.347   1.935 -0.4989 -1.4011  0.7605
 5833TIP3   OH239057   4.460   2.730   1.363 -0.5001  0.1862  0.2079
 5833TIP3    H139058   4.551   2.702   1.365 -0.8714 -1.0888  0.3422
 5833TIP3    H239059   4.430   2.708   1.275 -1.1171 -0.9868  0.6766
 5834TIP3   OH239060   1.202   0.826   2.553 -0.0737  0.0003 -0.0501
 5834TIP3    H139061   1.227   0.799   2.464  1.1560 -1.0180  0.5676
 5834TIP3    H239062   1.208   0.921   2.551 -1.1670  0.0803 -1.3510
 5835TIP3   OH239063   2.909   6.141   2.754  0.3194  0.1323  0.6515
 5835TIP3    H139064   2.859   6.214   2.791  0.5982  1.0162 -0.6485
 5835TIP3    H239065   2.889   6.067   2.811  0.6675  1.3932  2.4985
 5836TIP3   OH239066   0.512   3.324   1.686  0.4763 -0.2877  0.5349
 5836TIP3    H139067   0.504   3.239   1.730  0.0053 -2.3692 -3.1953
 5836TIP3    H239068   0.426   3.364   1.697  0.5353 -0.4863  1.8938
 5837TIP3   OH239069   4.367   1.546   1.418  0.1690 -0.1708 -0.1863
 5837TIP3    H139070   4.388   1.639   1.409 -1.0420 -0.0338 -2.2721
 5837TIP3    H239071   4.304   1.542   1.490 -0.5551  0.7867 -0.7475
 5838TIP3   OH239072   2.778   5.200   8.339 -0.1898 -0.2967  0.1894
 5838TIP3    H139073   2.699   5.190   8.392  1.4051  2.2204  3.4416
 5838TIP3    H239074   2.847   5.159   8.390  1.0394 -0.3360 -1.4044
 5839TIP3   OH239075   4.860   5.604   8.364  0.0896 -0.4028 -0.5963
 5839TIP3    H139076   4.893   5.670   8.424 -0.2772 -0.7494 -0.0072
 5839TIP3    H239077   4.794   5.649   8.312  1.2326  0.2109 -1.5649
 5840TIP3   OH239078   6.759   0.701   1.581 -0.4309 -0.5629  0.8334
 5840TIP3    H139079   6.743   0.610   1.608 -1.5883 -0.5110  0.3688
 5840TIP3    H239080   6.673   0.742   1.583 -0.0229  0.3392  0.3360
 5841TIP3   OH239081   2.691   1.990   2.892  0.4551 -0.0860  0.0406
 5841TIP3    H139082   2.608   2.031   2.868 -0.0567 -0.1494  1.5779
 5841TIP3    H239083   2.744   2.061   2.928  1.4983  0.1621 -1.8417
 5842TIP3   OH239084   0.712   0.255   0.529 -0.0154 -0.1319 -0.4832
 5842TIP3    H139085   0.735   0.171   0.490 -2.5248 -0.2102 -2.0151
 5842TIP3    H239086   0.762   0.319   0.479  1.4138 -0.6052  0.2696
 5843TIP3   OH239087   4.644   6.324   7.964 -0.3705  0.0030  0.0174
 5843TIP3    H139088   4.651   6.419   7.956  0.3883  0.1845  2.2471
 5843TIP3    H239089   4.569   6.310   8.023  1.7273 -0.5152  2.8154
 5844TIP3   OH239090   2.803   1.681   1.599 -0.0913 -0.4467  0.2558
 5844TIP3    H139091   2.809   1.763   1.649 -1.4857 -0.5710  0.6639
 5844TIP3    H239092   2.847   1.701   1.516  0.1253  0.5195  0.5838
 5845TIP3   OH239093   3.675   0.213   8.667  0.1258 -0.2979 -0.6219
 5845TIP3    H139094   3.669   0.207   8.571  1.0975  0.9263 -0.7737
 5845TIP3    H239095   3.764   0.241   8.684  0.8242 -3.0143  0.8146
 5846TIP3   OH239096   6.363   0.162   1.904  0.1844  0.5463 -0.7508
 5846TIP3    H139097   6.286   0.113   1.935  1.8622 -1.1767  0.9702
 5846TIP3    H239098   6.372   0.138   1.812 -0.4175 -0.5199 -0.5452
 5847TIP3   OH239099   1.860   6.282   8.132  0.4599  0.1941  0.6145
 5847TIP3    H139100   1.884   6.356   8.188  0.5132 -0.6750  1.7891
 5847TIP3    H239101   1.896   6.205   8.177  3.2611 -0.3395 -2.1523
 5848TIP3   OH239102   5.309   4.661   1.078  0.5218  0.0874  0.3416
 5848TIP3    H139103   5.313   4.669   1.173 -1.6401  0.6932  0.4397
 5848TIP3    H239104   5.310   4.566   1.062 -2.1014 -0.1632  1.2259
 5849TIP3   OH239105   5.403   2.966   0.549  0.1206  0.5164 -0.1940
 5849TIP3    H139106   5.383   2.874   0.568  1.8218  0.0199 -0.5778
 5849TIP3    H239107   5.466   2.991   0.617  0.5119  1.0446 -0.7378
 5850TIP3   OH239108   2.638   1.175   0.506  0.1304  0.4814 -0.1530
 5850TIP3    H139109   2.731   1.175   0.527 -0.3655 -1.1699  2.7284
 5850TIP3    H239110   2.598   1.229   0.574 -1.1033  0.3430 -0.7314
 5851TIP3   OH239111   3.515   1.102   2.558  0.2864 -0.3353 -1.0802
 5851TIP3    H139112   3.444   1.039   2.563 -0.0196  0.0091 -1.0077
 5851TIP3    H239113   3.575   1.077   2.628 -0.4339  0.1739 -0.2477
 5852TIP3   OH239114   5.294   0.890   3.034  0.0368  0.0151  0.4324
 5852TIP3    H139115   5.291   0.802   2.995 -0.9534  0.4488 -0.5202
 5852TIP3    H239116   5.202   0.908   3.057  0.1221  1.0987 -0.0595
 5853TIP3   OH239117   3.961   4.471   0.183  0.5534 -0.0530  0.3154
 5853TIP3    H139118   3.882   4.468   0.236 -0.2937 -1.4416 -0.9673
 5853TIP3    H239119   4.021   4.527   0.233 -0.8325  0.1494  1.8288
 5854TIP3   OH239120   0.825   0.476   7.911 -0.1564  0.0804 -0.0702
 5854TIP3    H139121   0.851   0.454   7.822 -0.5498 -0.1485 -0.1259
 5854TIP3    H239122   0.825   0.572   7.913 -0.5169  0.0865 -0.4222
 5855TIP3   OH239123   6.075   2.870   8.723 -0.1353 -0.5444 -0.2921
 5855TIP3    H139124   6.109   2.917   8.646 -0.2042  0.4409  0.2723
 5855TIP3    H239125   6.108   2.919   8.798 -1.8624 -0.2416  0.2921
 5856TIP3   OH239126   0.478   4.650   8.511 -0.3546 -0.6038 -0.3721
 5856TIP3    H139127   0.440   4.650   8.423  0.3318  2.0358 -0.7655
 5856TIP3    H239128   0.464   4.739   8.543  3.3044 -0.1282  0.3697
 5857TIP3   OH239129   2.886   0.048   0.658 -0.8916 -0.4241 -0.4073
 5857TIP3    H139130   2.943   0.089   0.592 -0.6519  0.1453  0.1463
 5857TIP3    H239131   2.799   0.049   0.618 -0.6876 -0.4049 -0.8583
 5858TIP3   OH239132   2.449   4.009   2.371 -0.3498  0.6925 -1.0072
 5858TIP3    H139133   2.517   3.941   2.371 -1.7514 -0.7482 -0.8120
 5858TIP3    H239134   2.484   4.078   2.314  2.0562  0.8201  0.4823
 5859TIP3   OH239135   4.842   3.828   1.264  0.1635 -1.0880  0.0965
 5859TIP3    H139136   4.765   3.885   1.267  0.3298 -0.7774 -1.0063
 5859TIP3    H239137   4.890   3.848   1.344 -0.1430 -0.1846  0.0653
 5860TIP3   OH239138   2.309   1.820   7.457  0.1176 -0.4856  0.5070
 5860TIP3    H139139   2.393   1.777   7.446  0.1525 -0.0091 -1.3492
 5860TIP3    H239140   2.254   1.753   7.498  1.3207 -0.8541  1.5844
 5861TIP3   OH239141   0.231   3.116   8.628 -0.0858 -0.1675  1.2589
 5861TIP3    H139142   0.150   3.167   8.629 -1.6038 -2.4118  2.5425
 5861TIP3    H239143   0.250   3.101   8.721  0.0682 -2.2040  0.9372
 5862TIP3   OH239144   6.182   1.280   7.325  0.1051  0.1179  0.1025
 5862TIP3    H139145   6.138   1.235   7.398  1.4757  2.0429  2.2829
 5862TIP3    H239146   6.117   1.341   7.291 -1.2515 -2.2515 -1.8408
 5863TIP3   OH239147   0.760   2.151   1.451  0.2170  0.2545  0.1292
 5863TIP3    H139148   0.783   2.195   1.533 -0.8143  1.6788 -0.3111
 5863TIP3    H239149   0.757   2.221   1.386  2.7836 -1.0763 -1.5678
 5864TIP3   OH239150   6.322   4.158   0.866  0.5409  0.7736  0.0996
 5864TIP3    H139151   6.272   4.173   0.786 -1.6517 -1.8942  0.8230
 5864TIP3    H239152   6.302   4.234   0.921  0.6956  1.7832 -1.1865
 5865TIP3   OH239153   0.606   5.021   2.309 -0.4164 -0.6282  0.1506
 5865TIP3    H139154   0.529   5.059   2.266 -0.0116  1.2154  0.9372
 5865TIP3    H239155   0.571   4.956   2.369 -1.5576  1.1238  1.4930
 5866TIP3   OH239156   0.928   0.987   1.892  0.4004  0.3414 -0.1736
 5866TIP3    H139157   0.856   0.924   1.889  1.1321 -0.6245  1.4285
 5866TIP3    H239158   0.991   0.953   1.829  0.0554  0.4430 -0.5826
 5867TIP3   OH239159   5.614   3.108   0.726  0.2483 -0.6455  0.6485
 5867TIP3    H139160   5.556   3.184   0.727 -0.8059 -1.4092 -0.0255
 5867TIP3    H239161   5.687   3.134   0.671  0.5657  0.3374  1.5084
 5868TIP3   OH239162   3.727   2.833   2.565  1.1602  0.3291  0.0047
 5868TIP3    H139163   3.678   2.780   2.628 -0.9622 -0.8216 -2.4231
 5868TIP3    H239164   3.714   2.923   2.594  1.9652 -0.2103  2.2789
 5869TIP3   OH239165   4.725   2.815   1.323 -0.3948  0.1619  0.6839
 5869TIP3    H139166   4.773   2.794   1.404  1.0267 -0.0100 -0.1750
 5869TIP3    H239167   4.758   2.753   1.259 -0.2982  1.3484 -0.4547
 5870TIP3   OH239168   4.309   0.791   2.857 -0.3915  0.6634  0.1812
 5870TIP3    H139169   4.259   0.872   2.869  0.2530  1.3190 -1.2944
 5870TIP3    H239170   4.337   0.793   2.766  2.8445  0.6599  1.0372
 5871TIP3   OH239171   2.460   4.598   8.146 -0.2287  0.5500 -0.3772
 5871TIP3    H139172   2.526   4.661   8.118  0.8846 -0.2391  0.3516
 5871TIP3    H239173   2.452   4.537   8.073  0.8259 -0.0773 -0.0001
 5872TIP3   OH239174   6.311   5.198   0.605 -0.0374  0.2012 -0.2196
 5872TIP3    H139175   6.307   5.105   0.582 -0.9117 -0.4806  2.3807
 5872TIP3    H239176   6.343   5.199   0.695 -0.0592  2.4466 -0.1792
 5873TIP3   OH239177   6.459   1.377   0.494 -0.7274  0.4445  0.0162
 5873TIP3    H139178   6.376   1.418   0.519 -0.9565 -0.6939  1.2216
 5873TIP3    H239179   6.498   1.438   0.432 -0.8003  2.7871  2.1127
 5874TIP3   OH239180   0.489   3.672   8.743 -0.0626 -0.6714  0.8172
 5874TIP3    H139181   0.451   3.600   8.794  0.1573 -0.3943  1.3769
 5874TIP3    H239182   0.422   3.741   8.746 -0.5193 -1.0406 -0.1942
 5875TIP3   OH239183   0.036   2.771   1.191  0.3198 -0.6539 -0.0866
 5875TIP3    H139184   0.103   2.793   1.256  0.1113 -0.1872 -0.0278
 5875TIP3    H239185   0.047   2.836   1.122 -0.0652 -0.5880 -0.0839
 5876TIP3   OH239186   3.351   5.156   7.590  0.3357 -0.0479 -0.9462
 5876TIP3    H139187   3.282   5.218   7.609 -1.2526 -1.9881 -0.0026
 5876TIP3    H239188   3.332   5.124   7.502 -0.0778 -0.6814 -0.6342
 5877TIP3   OH239189   4.688   4.119   2.213 -0.4105 -0.5864  0.5549
 5877TIP3    H139190   4.767   4.156   2.173 -0.4786 -1.4375 -0.3926
 5877TIP3    H239191   4.700   4.024   2.207 -2.3210 -0.7778 -1.2876
 5878TIP3   OH239192   4.423   0.043   7.932  0.1944 -0.6413  0.4478
 5878TIP3    H139193   4.458   0.046   7.843 -1.5785  2.2869 -0.3271
 5878TIP3    H239194   4.368  -0.035   7.934  0.6199 -1.0023 -0.8755
 5879TIP3   OH239195   3.152   2.016   0.144 -0.1107  0.1003  0.3459
 5879TIP3    H139196   3.216   1.982   0.207 -0.0750  0.6088  0.5917
 5879TIP3    H239197   3.149   2.110   0.162 -0.0811  0.2569 -0.4361
 5880TIP3   OH239198   6.616   0.743   8.645 -0.1487  0.0008 -0.1629
 5880TIP3    H139199   6.521   0.736   8.634 -0.1313  1.1032 -1.3303
 5880TIP3    H239200   6.652   0.670   8.596 -0.3913 -0.3342  0.1584
 5881TIP3   OH239201   3.103   3.636   8.208  0.0033  0.2080  0.4392
 5881TIP3    H139202   3.180   3.679   8.247 -0.3644  0.5409  0.8107
 5881TIP3    H239203   3.122   3.633   8.114  0.7735 -0.3402  0.6027
 5882TIP3   OH239204   5.914   0.627   7.583  0.1852  0.2914  0.4534
 5882TIP3    H139205   5.823   0.607   7.562  0.7952 -1.3450 -0.8735
 5882TIP3    H239206   5.910   0.708   7.633 -2.1139 -0.5525  1.7726
 5883TIP3   OH239207   5.425   0.185   8.145  0.5726  0.1734  0.2221
 5883TIP3    H139208   5.339   0.173   8.186  0.6991 -0.0605  0.4188
 5883TIP3    H239209   5.461   0.097   8.137  0.8565  0.2821  0.2717
 5884TIP3   OH239210   2.266   3.739   1.554  0.2266 -0.1276 -0.1702
 5884TIP3    H139211   2.191   3.696   1.514  0.3934 -0.2327 -0.3663
 5884TIP3    H239212   2.299   3.797   1.486 -0.1081  0.4521  0.1494
 5885TIP3   OH239213   1.944   1.736   0.182  0.8342 -0.1784 -0.9860
 5885TIP3    H139214   1.955   1.805   0.117  1.6451  0.1192 -0.5476
 5885TIP3    H239215   1.872   1.766   0.237  1.4136  0.4829 -0.5858
 5886TIP3   OH239216   3.417   3.552   8.486  0.1224  0.7322 -0.1558
 5886TIP3    H139217   3.378   3.546   8.573  0.4653  0.8511  0.0079
 5886TIP3    H239218   3.361   3.498   8.430  0.7839 -0.6072  0.4422
 5887TIP3   OH239219   0.076   2.881   0.187  0.5100  0.5324 -0.6059
 5887TIP3    H139220   0.061   2.800   0.139  2.6752  0.2737 -0.9331
 5887TIP3    H239221   0.035   2.949   0.133 -2.2469 -0.3784  0.1825
 5888TIP3   OH239222   3.998   4.590   0.637 -0.4511  0.2084  0.2022
 5888TIP3    H139223   4.083   4.559   0.604 -0.2579  0.0817  0.8170
 5888TIP3    H239224   4.009   4.684   0.646 -0.9048  0.4253 -1.2681
 5889TIP3   OH239225   2.544   0.389   8.740 -0.6872  0.0120  0.0624
 5889TIP3    H139226   2.546   0.325   8.669  1.0365 -1.4407  1.3422
 5889TIP3    H239227   2.630   0.380   8.783 -0.9187  2.2419  1.1183
 5890TIP3   OH239228   6.387   5.452   7.601 -0.1029 -0.1205  0.6149
 5890TIP3    H139229   6.442   5.405   7.537  0.8315  0.0307  1.2801
 5890TIP3    H239230   6.330   5.507   7.547  0.2334 -0.4591 -0.1108
 5891TIP3   OH239231   1.321   3.561   1.624 -0.3224 -0.5458 -0.3537
 5891TIP3    H139232   1.415   3.545   1.627  0.1226  1.0789 -2.8836
 5891TIP3    H239233   1.310   3.648   1.664 -0.7987 -0.8147  0.1146
 5892TIP3   OH239234   0.295   4.254   1.636  0.2291  0.1110  0.1504
 5892TIP3    H139235   0.301   4.177   1.692 -0.3252  0.7335  1.0993
 5892TIP3    H239236   0.341   4.230   1.556  2.6583 -0.1936  1.5564
 5893TIP3   OH239237   3.137   3.028   0.674 -0.2869  0.2902 -0.2260
 5893TIP3    H139238   3.060   2.987   0.634 -0.7069 -0.4317  1.2330
 5893TIP3    H239239   3.200   3.034   0.604 -1.0902 -0.6630 -1.0711
 5894TIP3   OH239240   0.382   0.060   8.480  0.0223 -0.1784 -0.1133
 5894TIP3    H139241   0.442   0.115   8.530  0.7005 -1.1476  0.1809
 5894TIP3    H239242   0.297   0.075   8.520  0.3598 -0.0488  0.5668
 5895TIP3   OH239243   4.152   3.133   1.793 -0.5498 -0.4622  0.7253
 5895TIP3    H139244   4.238   3.138   1.837 -0.1867  0.0584 -0.0231
 5895TIP3    H239245   4.168   3.169   1.706 -1.1796 -1.8082  0.0266
 5896TIP3   OH239246   5.357   1.099   3.260 -0.2414  0.3068  0.2207
 5896TIP3    H139247   5.348   1.041   3.184 -0.7703  2.0172 -1.0753
 5896TIP3    H239248   5.280   1.082   3.313  0.9916 -2.2032  1.3913
 5897TIP3   OH239249   3.116   0.729   8.741  0.4975  0.4843 -0.3451
 5897TIP3    H139250   3.025   0.725   8.769  0.0914  1.7741 -1.3861
 5897TIP3    H239251   3.122   0.669   8.667  0.8271 -0.5643  0.5021
 5898TIP3   OH239252   2.010   3.661   0.163 -0.3185  0.3121  0.2866
 5898TIP3    H139253   2.043   3.572   0.152  1.0053  0.9481 -1.1869
 5898TIP3    H239254   2.087   3.713   0.186 -0.6478  1.4548 -1.0474
 5899TIP3   OH239255   0.507   3.365   0.786 -0.1368  0.0195 -0.3371
 5899TIP3    H139256   0.420   3.333   0.766 -0.2121 -0.1750  0.2683
 5899TIP3    H239257   0.497   3.413   0.869  0.3877 -0.3163 -0.0681
 5900TIP3   OH239258   2.519   4.352   2.847  0.5740 -0.1052 -0.3255
 5900TIP3    H139259   2.557   4.404   2.917 -1.7331 -0.2662  1.1628
 5900TIP3    H239260   2.568   4.270   2.848  0.6379 -0.0714  1.0845
 5901TIP3   OH239261   3.960   5.141   1.052  0.1613  0.8968 -0.0245
 5901TIP3    H139262   3.932   5.105   1.137 -1.3831  1.4278 -0.2751
 5901TIP3    H239263   4.022   5.077   1.018 -1.8317 -1.1338 -0.0591
 5902TIP3   OH239264   2.956   1.395   1.575 -0.0905  0.3649 -0.1242
 5902TIP3    H139265   2.884   1.443   1.534  0.1299 -0.7471 -1.9169
 5902TIP3    H239266   2.922   1.306   1.589  1.5545 -0.8923 -3.1880
 5903TIP3   OH239267   4.041   5.046   8.335 -0.2898  0.3522 -0.6285
 5903TIP3    H139268   3.981   5.116   8.308  0.0177  1.1173  0.5982
 5903TIP3    H239269   3.985   4.985   8.383 -0.0953  1.1452  0.6533
 5904TIP3   OH239270   0.596   3.507   7.308  0.3044 -0.1234 -0.2086
 5904TIP3    H139271   0.643   3.560   7.373 -0.3400 -0.5900  0.6581
 5904TIP3    H239272   0.511   3.549   7.300  0.2259 -0.3229 -0.4324
 5905TIP3   OH239273   4.097   5.977   1.491 -0.1598 -0.0326  0.7136
 5905TIP3    H139274   4.108   5.950   1.582 -0.3326 -0.8266  0.5042
 5905TIP3    H239275   4.012   6.021   1.489 -0.6549 -0.9784  0.7176
 5906TIP3   OH239276   4.366   3.767   1.703 -0.0885 -0.0634  0.1776
 5906TIP3    H139277   4.312   3.831   1.657 -2.2099 -1.3890  0.6747
 5906TIP3    H239278   4.417   3.819   1.765 -1.8125  1.1632  0.6431
 5907TIP3   OH239279   4.024   2.759   2.765 -0.4247  0.1120  0.4847
 5907TIP3    H139280   3.946   2.795   2.807 -0.6984 -1.9369  1.8810
 5907TIP3    H239281   3.991   2.684   2.714  0.5413 -0.3556  0.5368
 5908TIP3   OH239282   1.344   5.652   8.408 -0.3309 -0.0793 -0.2913
 5908TIP3    H139283   1.423   5.635   8.357 -0.1987  0.9853 -0.4735
 5908TIP3    H239284   1.347   5.588   8.480  1.2796  0.6550  0.3466
 5909TIP3   OH239285   5.227   1.065   1.656 -0.6223  0.3092  0.0311
 5909TIP3    H139286   5.162   1.021   1.603 -1.2247  0.2712  0.7865
 5909TIP3    H239287   5.293   0.998   1.673 -0.3125  0.3798 -0.8280
 5910TIP3   OH239288   0.936   3.214   2.564  0.7939 -0.2370  0.3597
 5910TIP3    H139289   0.871   3.157   2.606  0.0110 -0.3106 -0.9291
 5910TIP3    H239290   0.907   3.303   2.584  0.8343 -0.2746  0.5886
 5911TIP3   OH239291   6.501   2.493   8.439 -0.1589 -0.1398  0.1153
 5911TIP3    H139292   6.435   2.428   8.464 -0.3655 -0.1461 -0.4137
 5911TIP3    H239293   6.482   2.510   8.346 -0.1782  0.7635  0.2823
 5912TIP3   OH239294   3.807   4.420   0.715  1.0200 -0.7532  0.1052
 5912TIP3    H139295   3.874   4.481   0.684  0.5997 -1.0914 -1.5476
 5912TIP3    H239296   3.742   4.418   0.645 -0.5034 -0.8008  1.4605
 5913TIP3   OH239297   6.509   6.809   3.890  0.0568  0.7613 -0.4777
 5913TIP3    H139298   6.568   6.734   3.882 -0.0004  0.3190  2.1784
 5913TIP3    H239299   6.489   6.835   3.800 -0.6344 -2.9373 -1.5335
 5914TIP3   OH239300   2.244   4.541   7.787  0.1273 -0.0547 -0.1366
 5914TIP3    H139301   2.277   4.627   7.761  0.1116  0.0674  0.2352
 5914TIP3    H239302   2.321   4.492   7.813  0.4345 -0.9828 -2.6051
 5915TIP3   OH239303   3.736   3.155   0.034  0.2604  0.4319  0.0806
 5915TIP3    H139304   3.703   3.118  -0.048  1.0397  0.1988 -0.1355
 5915TIP3    H239305   3.703   3.096   0.102 -0.2593  0.5402 -0.0691
 5916TIP3   OH239306   2.496   0.718   7.938 -0.4308  0.1393  0.5896
 5916TIP3    H139307   2.545   0.783   7.988 -2.8628  1.5390  1.3426
 5916TIP3    H239308   2.405   0.731   7.966 -1.4148 -1.4498 -1.6149
 5917TIP3   OH239309   6.313   1.736   2.430  0.4044  0.1303 -1.0296
 5917TIP3    H139310   6.286   1.737   2.522  0.9467  0.3765 -0.8647
 5917TIP3    H239311   6.237   1.704   2.382  0.4457 -0.9372 -0.3951
 5918TIP3   OH239312   5.510   4.682   2.725  0.6184  1.0061 -0.2388
 5918TIP3    H139313   5.593   4.696   2.770  0.6634  1.6530 -0.5137
 5918TIP3    H239314   5.482   4.595   2.753 -0.0042  1.8803  2.0770
 5919TIP3   OH239315   0.879   2.106   2.562 -0.2694 -0.4524  0.5402
 5919TIP3    H139316   0.830   2.115   2.480  1.4563 -0.1051 -0.4824
 5919TIP3    H239317   0.905   2.195   2.585 -0.5978 -0.5656  1.3979
 5920TIP3   OH239318   6.709   4.876   1.361 -0.5348 -0.0139 -0.2831
 5920TIP3    H139319   6.657   4.867   1.282 -0.0758  2.2453 -0.8998
 5920TIP3    H239320   6.651   4.845   1.431 -1.6831 -0.1312 -1.2493
 5921TIP3   OH239321   3.860   6.383   1.647  0.0453  0.0473  0.0244
 5921TIP3    H139322   3.890   6.295   1.670  3.7034  0.9020 -0.8347
 5921TIP3    H239323   3.853   6.428   1.731 -1.0242 -0.7716  0.4017
 5922TIP3   OH239324   3.478   3.800   0.417  0.0713 -0.2381  0.1214
 5922TIP3    H139325   3.494   3.779   0.509  0.1425  1.0070  0.4067
 5922TIP3    H239326   3.475   3.715   0.374  2.8642 -0.8069  0.8010
 5923TIP3   OH239327   1.272   5.763   8.681  0.4105 -0.4046 -0.1049
 5923TIP3    H139328   1.192   5.760   8.734  1.2062 -2.5781  1.1240
 5923TIP3    H239329   1.275   5.678   8.637  0.5658  0.7704 -2.5247
 5924TIP3   OH239330   6.761   3.806   0.110 -0.3518  0.3754 -0.4104
 5924TIP3    H139331   6.708   3.743   0.159  0.9059 -0.3163  0.0959
 5924TIP3    H239332   6.838   3.757   0.081  0.0438  1.3613 -1.0935
 5925TIP3   OH239333   0.144   1.947   7.931 -0.3270 -0.2788  0.2267
 5925TIP3    H139334   0.130   1.926   7.839  0.5396 -0.0351  0.0323
 5925TIP3    H239335   0.081   2.016   7.950 -0.3647 -0.1830 -0.2383
 5926TIP3   OH239336   1.203   5.921   8.089  0.2828  0.3209 -0.0539
 5926TIP3    H139337   1.163   5.857   8.148  1.5882 -0.5126 -0.0489
 5926TIP3    H239338   1.194   5.882   8.002  0.7455  0.3008 -0.0939
 5927TIP3   OH239339   1.141   6.047   2.080  0.1434 -0.2618  0.6364
 5927TIP3    H139340   1.232   6.074   2.070 -0.1407  0.0957 -1.4595
 5927TIP3    H239341   1.145   5.958   2.114  1.1865  0.5365  2.7888
 5928TIP3   OH239342   1.708   1.321   7.630 -0.0775  0.8723 -0.2179
 5928TIP3    H139343   1.712   1.417   7.624  4.2892  0.8156 -1.1894
 5928TIP3    H239344   1.748   1.290   7.549 -0.3734 -1.7784  0.5720
 5929TIP3   OH239345   1.579   1.228   8.115 -0.5652  0.3276  0.5644
 5929TIP3    H139346   1.497   1.242   8.067 -0.5961 -0.6356  0.3081
 5929TIP3    H239347   1.648   1.250   8.052 -0.6167  0.0036  0.3932
 5930TIP3   OH239348   6.624   2.137   1.354 -0.3572 -0.0261 -0.2775
 5930TIP3    H139349   6.590   2.224   1.330  0.0179  0.0887 -0.4068
 5930TIP3    H239350   6.547   2.082   1.360 -0.5311  0.1249 -1.0214
 5931TIP3   OH239351   1.394   5.981   8.482 -0.1664  0.0799 -0.1370
 5931TIP3    H139352   1.344   6.021   8.411 -1.4399  0.5173  0.9617
 5931TIP3    H239353   1.353   5.895   8.495 -1.7548  1.0564  1.8160
 5932TIP3   OH239354   3.678   1.742   8.543 -0.1676  0.0323  0.4033
 5932TIP3    H139355   3.761   1.726   8.498 -0.4168  2.3290 -1.0151
 5932TIP3    H239356   3.612   1.698   8.488  0.0522 -2.0265  1.6738
 5933TIP3   OH239357   4.494   3.985   2.532  0.8009  0.3844 -0.2923
 5933TIP3    H139358   4.495   4.069   2.577 -1.0098  1.7698 -2.5965
 5933TIP3    H239359   4.480   3.920   2.601 -0.2290  2.2103  1.2988
 5934TIP3   OH239360   3.130   6.613   7.107  0.1811  0.6866 -0.2155
 5934TIP3    H139361   3.065   6.674   7.141  1.9778  1.6442  1.7874
 5934TIP3    H239362   3.120   6.534   7.160  0.3846  0.7030 -0.1501
 5935TIP3   OH239363   3.833   5.549   0.183  0.1568  0.1592  0.2688
 5935TIP3    H139364   3.853   5.508   0.268 -0.9050 -1.3734 -0.1805
 5935TIP3    H239365   3.752   5.598   0.199 -0.2201 -0.3938  0.0697
 5936TIP3   OH239366   4.395   6.394   7.811 -0.1906 -0.2979  0.4061
 5936TIP3    H139367   4.354   6.307   7.812  0.1393 -0.5124 -1.6295
 5936TIP3    H239368   4.394   6.420   7.719  2.7935  0.3693  0.4689
 5937TIP3   OH239369   3.939   3.257   1.249  0.3911 -0.2294  0.3607
 5937TIP3    H139370   3.947   3.231   1.341 -0.7969 -1.7229  0.0874
 5937TIP3    H239371   3.965   3.180   1.199  0.1293  0.2491 -0.5422
 5938TIP3   OH239372   3.209   0.351   2.045 -0.1956 -0.1523 -0.0815
 5938TIP3    H139373   3.141   0.284   2.057 -0.9662  0.2772 -1.6935
 5938TIP3    H239374   3.183   0.422   2.104 -0.7309 -0.2930 -0.1434
 5939TIP3   OH239375   5.057   0.257   0.915  0.1224  0.7150  0.7478
 5939TIP3    H139376   5.058   0.310   0.836  0.5034  0.7823  0.7970
 5939TIP3    H239377   5.065   0.320   0.987  0.6429  0.5905  0.8036
 5940TIP3   OH239378   1.637   5.784   0.572  0.3640  0.0815  0.0055
 5940TIP3    H139379   1.576   5.836   0.520  1.5143  0.5836 -0.8943
 5940TIP3    H239380   1.650   5.835   0.653  0.4718  0.5532 -0.3056
 5941TIP3   OH239381   2.931   2.159   2.683  0.1665  0.7863 -0.0431
 5941TIP3    H139382   2.873   2.213   2.629  1.7582  1.1094 -1.5114
 5941TIP3    H239383   2.901   2.174   2.772 -2.1031  0.8021 -0.7361
 5942TIP3   OH239384   4.042   6.723   2.647 -0.3048 -0.3759 -0.0496
 5942TIP3    H139385   4.096   6.798   2.625 -1.0420 -0.4726 -2.4670
 5942TIP3    H239386   4.093   6.675   2.712  3.7743 -1.7175 -3.7939
 5943TIP3   OH239387   3.925   0.371   0.859 -0.2759 -0.2623  0.5896
 5943TIP3    H139388   3.957   0.318   0.932 -0.8910 -1.4470  0.0255
 5943TIP3    H239389   3.837   0.337   0.841 -1.0061  1.4377  0.6662
 5944TIP3   OH239390   1.896   2.515   0.343  0.0255 -0.6301 -0.1298
 5944TIP3    H139391   1.800   2.517   0.342  0.0142 -0.5083  0.7190
 5944TIP3    H239392   1.921   2.556   0.260 -0.6555 -0.7255 -0.3903
 5945TIP3   OH239393   0.783   3.268   7.989 -0.0203  0.3642  0.4843
 5945TIP3    H139394   0.710   3.299   8.042 -0.0719 -0.0630  0.6660
 5945TIP3    H239395   0.858   3.319   8.020 -0.4269  1.5829 -0.4430
 5946TIP3   OH239396   6.009   2.043   8.112  0.0897  0.3462 -0.2066
 5946TIP3    H139397   5.965   2.119   8.151 -1.0073 -0.1112 -0.5134
 5946TIP3    H239398   6.025   1.984   8.185 -1.1150 -0.1005 -0.2762
 5947TIP3   OH239399   5.749   6.321   2.302  0.3440 -0.2877  0.0456
 5947TIP3    H139400   5.685   6.317   2.373  0.4728 -0.1401  0.1727
 5947TIP3    H239401   5.725   6.250   2.243  1.1864 -1.4453  1.0414
 5948TIP3   OH239402   3.325   4.648   1.991 -0.6092 -0.3548 -0.4998
 5948TIP3    H139403   3.356   4.560   1.972  0.6042 -0.0286 -0.1257
 5948TIP3    H239404   3.398   4.690   2.036 -0.6149  1.2786 -1.8985
 5949TIP3   OH239405   5.050   1.138   1.428  0.1489  0.2177  0.0438
 5949TIP3    H139406   5.044   1.177   1.341  1.2738 -0.0133 -0.1634
 5949TIP3    H239407   5.121   1.187   1.470  0.9029 -0.9149  0.1315
 5950TIP3   OH239408   6.261   4.073   1.697 -0.2146  0.4919  0.1969
 5950TIP3    H139409   6.346   4.040   1.669 -0.6848 -2.0431  1.5230
 5950TIP3    H239410   6.209   4.075   1.618  0.6228  0.6188 -0.3678
 5951TIP3   OH239411   2.941   1.327   8.217  0.3263  0.2766 -0.0617
 5951TIP3    H139412   2.952   1.313   8.311  0.3356 -2.4716 -0.3940
 5951TIP3    H239413   3.030   1.336   8.183  0.5113 -1.4356 -0.1100
 5952TIP3   OH239414   0.821   3.402   7.180  0.2235 -0.6023  0.7173
 5952TIP3    H139415   0.823   3.448   7.096 -1.7766 -2.1487 -0.2694
 5952TIP3    H239416   0.745   3.440   7.225  0.3854 -0.8424  1.1952
 5953TIP3   OH239417   1.580   3.997   2.083  0.6884  0.2262 -0.2364
 5953TIP3    H139418   1.489   3.971   2.095  1.3176 -1.2384  1.8274
 5953TIP3    H239419   1.595   4.064   2.150  1.5507 -0.7587  0.5875
 5954TIP3   OH239420   1.236   4.521   1.137 -0.5463 -0.1046  0.5149
 5954TIP3    H139421   1.241   4.468   1.058 -1.2142 -0.2073  0.5361
 5954TIP3    H239422   1.286   4.600   1.116 -1.3273  0.2011 -0.2814
 5955TIP3   OH239423   2.178   1.943   6.751  0.0576  0.1068  0.0295
 5955TIP3    H139424   2.177   1.981   6.839  2.9311  1.6979 -0.4721
 5955TIP3    H239425   2.249   1.879   6.753  0.6916  0.7179 -1.2756
 5956TIP3   OH239426   1.214   6.486   2.796  0.0975 -0.0441  0.0008
 5956TIP3    H139427   1.301   6.519   2.816  0.5233 -1.4093  0.4754
 5956TIP3    H239428   1.188   6.437   2.874 -1.1085  0.3334 -0.1345
 5957TIP3   OH239429   0.711   4.464   3.125 -0.2763 -0.6574  0.1601
 5957TIP3    H139430   0.782   4.477   3.188 -0.2271  1.4927 -0.2779
 5957TIP3    H239431   0.650   4.406   3.170  0.4946 -0.4085  1.5899
 5958TIP3   OH239432   0.461   1.728   1.835 -0.6159  0.0094  0.1204
 5958TIP3    H139433   0.366   1.737   1.829 -0.7814 -1.4049  0.1502
 5958TIP3    H239434   0.478   1.637   1.810  0.6938  0.1046  0.5637
 5959TIP3   OH239435   6.547   0.512   1.185 -0.2202  0.2262  0.4846
 5959TIP3    H139436   6.546   0.473   1.098 -3.0949  3.1447 -0.9715
 5959TIP3    H239437   6.468   0.479   1.227 -0.3807  1.0597  0.8606
 5960TIP3   OH239438   4.939   5.289   1.005  0.6288  0.8188 -0.6297
 5960TIP3    H139439   4.851   5.311   0.974  0.5167  2.1224  0.5021
 5960TIP3    H239440   4.926   5.263   1.096  1.2655 -0.3588 -0.8528
 5961TIP3   OH239441   5.782   0.308   0.938 -0.0100 -0.1152  0.2482
 5961TIP3    H139442   5.810   0.358   1.015 -1.8494 -0.2040  1.0238
 5961TIP3    H239443   5.794   0.217   0.964 -1.6818 -0.1777  0.8971
 5962TIP3   OH239444   1.581   5.888   0.863 -0.1683 -0.2685  0.6956
 5962TIP3    H139445   1.499   5.916   0.903  0.3568  0.0639  1.5779
 5962TIP3    H239446   1.625   5.838   0.932  0.3958 -0.3900  0.2574
 5963TIP3   OH239447   0.351   3.009   0.984 -0.3079 -0.0299 -0.1565
 5963TIP3    H139448   0.324   3.024   1.074 -0.0158 -0.6750  0.0482
 5963TIP3    H239449   0.439   3.047   0.978 -0.1620 -0.3456 -0.0504
 5964TIP3   OH239450   4.724   3.758   8.461  0.3998 -0.2592  0.2426
 5964TIP3    H139451   4.790   3.705   8.506  0.4217  0.6120  1.2912
 5964TIP3    H239452   4.665   3.787   8.531  0.2022  0.8132 -0.3424
 5965TIP3   OH239453   6.206   1.406   2.475 -0.6330 -0.4198  0.8332
 5965TIP3    H139454   6.256   1.482   2.505 -3.4942  1.1256  2.1407
 5965TIP3    H239455   6.153   1.381   2.551 -0.9138 -2.7932 -0.0601
 5966TIP3   OH239456   0.689   4.084   0.383  0.4929  0.1791  0.2634
 5966TIP3    H139457   0.649   4.168   0.359  0.6761 -0.4151 -2.5128
 5966TIP3    H239458   0.669   4.027   0.308  2.1604 -1.6332  1.1346
 5967TIP3   OH239459   3.050   5.330   0.007  0.4375 -0.3937  0.1089
 5967TIP3    H139460   3.107   5.367   0.074  0.2012 -0.6378  0.4456
 5967TIP3    H239461   2.978   5.393  -0.000  1.0344  0.2127 -0.7306
 5968TIP3   OH239462   2.793   4.380   2.059 -0.3432 -0.2546  0.0836
 5968TIP3    H139463   2.863   4.360   1.996 -2.3617  0.6434 -2.6731
 5968TIP3    H239464   2.838   4.425   2.130  2.1360 -1.4842 -0.5607
 5969TIP3   OH239465   1.886   4.553   2.348 -0.1748  0.0035  0.5609
 5969TIP3    H139466   1.973   4.515   2.354 -0.5048 -0.8882 -0.1852
 5969TIP3    H239467   1.857   4.561   2.439  1.1362  1.4177  0.8943
 5970TIP3   OH239468   5.657   1.016   7.176 -0.4028  0.5295  0.2130
 5970TIP3    H139469   5.695   1.006   7.089  0.0934 -0.2877  0.5092
 5970TIP3    H239470   5.711   1.082   7.219 -2.1073  2.7407 -0.8839
 5971TIP3   OH239471   5.993   2.403   0.603 -0.3506 -0.3554 -0.3310
 5971TIP3    H139472   6.083   2.416   0.631 -1.0138 -1.2408  2.4665
 5971TIP3    H239473   5.966   2.489   0.571  1.1741  0.1541 -0.3543
 5972TIP3   OH239474   6.132   6.555   3.040  0.2127 -0.1667  0.2275
 5972TIP3    H139475   6.163   6.498   3.111  1.0771 -0.9374 -0.7305
 5972TIP3    H239476   6.138   6.644   3.076  1.5086 -0.4714  0.8210
 5973TIP3   OH239477   4.410   1.425   0.610 -0.0237  0.2367  0.2761
 5973TIP3    H139478   4.350   1.386   0.673 -1.0435  1.5437  0.1499
 5973TIP3    H239479   4.493   1.380   0.626 -0.4566 -0.0414  1.9831
 5974TIP3   OH239480   3.790   3.166   1.682  0.1255  0.4637  0.1296
 5974TIP3    H139481   3.701   3.188   1.652  0.7929  1.1365 -1.5168
 5974TIP3    H239482   3.837   3.250   1.680  0.6974  0.1889  1.3789
 5975TIP3   OH239483   0.285   6.227   0.382 -0.1342  0.2937 -0.0234
 5975TIP3    H139484   0.338   6.148   0.367  0.3458  0.7023 -0.5531
 5975TIP3    H239485   0.243   6.212   0.466 -0.0704 -0.5394 -0.1289
 5976TIP3   OH239486   6.232   5.273   1.947  0.0242  0.5146  0.0267
 5976TIP3    H139487   6.266   5.209   2.009  0.7451  2.2107  1.4593
 5976TIP3    H239488   6.159   5.315   1.993 -0.0554  1.1465 -0.6541
 5977TIP3   OH239489   5.494   5.899   1.886  0.2519 -0.5477 -0.2468
 5977TIP3    H139490   5.556   5.924   1.954 -0.3374 -0.0274  0.1118
 5977TIP3    H239491   5.433   5.839   1.929  0.6936 -1.3319 -0.6863
 5978TIP3   OH239492   5.364   1.547   1.208  0.9677  0.4317 -0.1545
 5978TIP3    H139493   5.447   1.508   1.236 -0.6190 -1.5620  2.2350
 5978TIP3    H239494   5.338   1.494   1.132  1.2491  0.1976 -0.0922
 5979TIP3   OH239495   0.303   2.173   0.324  0.3164 -0.1653  0.0207
 5979TIP3    H139496   0.245   2.247   0.344 -1.1119 -1.5515  1.3711
 5979TIP3    H239497   0.313   2.174   0.229 -0.3263  1.2710 -0.0533
 5980TIP3   OH239498   2.413   1.919   0.061 -0.3980  0.5049 -0.0110
 5980TIP3    H139499   2.459   1.993   0.021 -0.2256 -0.0199 -0.8240
 5980TIP3    H239500   2.453   1.909   0.147  0.5607  0.4776 -0.4478
 5981TIP3   OH239501   5.716   3.933   2.110  0.8325  0.3883 -0.7714
 5981TIP3    H139502   5.684   3.888   2.031  0.2691 -0.7086  0.0599
 5981TIP3    H239503   5.798   3.889   2.132  0.1526 -0.4537  0.1888
 5982TIP3   OH239504   6.061   4.376   7.558  0.1725  0.3111  0.1957
 5982TIP3    H139505   6.135   4.386   7.497 -1.0888  2.4564 -1.0969
 5982TIP3    H239506   5.986   4.356   7.501 -1.0755  2.5377  0.9320
 5983TIP3   OH239507   4.327   6.278   2.318 -0.3998  0.4238 -0.0591
 5983TIP3    H139508   4.362   6.318   2.397 -0.0321 -0.3264  0.1623
 5983TIP3    H239509   4.357   6.188   2.321 -4.0068 -0.9244  1.2281
 5984TIP3   OH239510   5.778   0.355   2.050 -0.2790  0.3980  0.1900
 5984TIP3    H139511   5.819   0.292   1.990  1.6948  1.8719 -0.1340
 5984TIP3    H239512   5.691   0.319   2.067 -0.4143 -0.7626 -2.4836
 5985TIP3   OH239513   0.983   0.354   2.396  0.0393  0.9869 -0.2920
 5985TIP3    H139514   1.024   0.373   2.480 -0.7111  1.8220 -0.0931
 5985TIP3    H239515   1.054   0.359   2.332  0.7299 -0.2430  0.3478
 5986TIP3   OH239516   4.739   5.200   2.024 -0.1939  0.0345  0.2156
 5986TIP3    H139517   4.687   5.227   2.100  0.5149 -0.0647  0.7552
 5986TIP3    H239518   4.707   5.253   1.952 -0.8610  0.1583  0.5984
 5987TIP3   OH239519   4.287   5.325   2.037 -0.3433  0.3803 -0.0325
 5987TIP3    H139520   4.273   5.246   1.984  2.1200 -0.2744  0.1577
 5987TIP3    H239521   4.340   5.295   2.110  0.8182  2.2482 -0.0670
 5988TIP3   OH239522   3.780   2.646   7.963  0.5314  0.2795  0.0389
 5988TIP3    H139523   3.729   2.598   7.898 -1.8212  0.2848  1.7272
 5988TIP3    H239524   3.765   2.738   7.943  1.0659  0.2957 -0.3049
 5989TIP3   OH239525   0.789   4.720   2.990 -0.0069  0.1114  0.1176
 5989TIP3    H139526   0.770   4.793   3.048  4.7817  0.9562  0.9920
 5989TIP3    H239527   0.792   4.643   3.047  0.1885  0.1572  0.1697
 5990TIP3   OH239528   5.098   0.898   0.382  0.2587 -0.4913 -0.1968
 5990TIP3    H139529   5.172   0.958   0.391  0.8248 -1.3329  1.0815
 5990TIP3    H239530   5.129   0.817   0.421 -1.9348 -0.3343  2.1228
 5991TIP3   OH239531   0.789   2.306   1.699 -0.4936 -0.2148  0.3069
 5991TIP3    H139532   0.833   2.313   1.784 -0.1572 -1.0793  0.2213
 5991TIP3    H239533   0.819   2.382   1.650  0.9594 -0.7985  0.2405
 5992TIP3   OH239534   4.754   2.430   1.701  0.0180 -0.7416  0.5325
 5992TIP3    H139535   4.698   2.353   1.710 -2.0633  0.7049  0.6446
 5992TIP3    H239536   4.793   2.442   1.787  0.2933 -1.5716  0.5383
 5993TIP3   OH239537   2.582   0.189   8.530 -0.2561  0.3089  0.5595
 5993TIP3    H139538   2.536   0.137   8.465 -0.2126 -0.4368  1.1109
 5993TIP3    H239539   2.605   0.127   8.599  0.4196  0.9236  0.9063
 5994TIP3   OH239540   4.836   0.874   7.396 -0.3062 -0.1390 -0.1628
 5994TIP3    H139541   4.806   0.942   7.457 -0.2155 -0.5963  0.3880
 5994TIP3    H239542   4.896   0.820   7.446 -0.3939 -0.6485 -0.5942
 5995TIP3   OH239543   4.193   1.029   2.976 -0.0183  0.1864  0.0172
 5995TIP3    H139544   4.127   1.082   3.021 -0.1932 -2.0523  2.6886
 5995TIP3    H239545   4.264   1.020   3.041 -0.6844 -4.0207  0.4216
 5996TIP3   OH239546   1.593   2.007   8.345 -0.6594 -0.2847  0.4388
 5996TIP3    H139547   1.576   1.916   8.369  0.3015 -0.3120  1.0811
 5996TIP3    H239548   1.663   2.003   8.281  0.1395  0.0488  1.2723
 5997TIP3   OH239549   3.893   4.394   2.172 -0.6136 -0.1097  0.1855
 5997TIP3    H139550   3.839   4.450   2.227  1.3975  1.8106  0.3141
 5997TIP3    H239551   3.886   4.432   2.084 -0.0313 -0.2867  0.0593
 5998TIP3   OH239552   5.023   5.388   2.697 -0.2434 -0.0014  0.0372
 5998TIP3    H139553   5.028   5.417   2.788 -1.8956  0.7113 -0.0584
 5998TIP3    H239554   4.971   5.308   2.701  0.7027 -0.6419 -0.1688
 5999TIP3   OH239555   0.559   2.747   8.289  0.0936  0.2364  0.5539
 5999TIP3    H139556   0.599   2.775   8.371  1.4138 -0.9860  0.3478
 5999TIP3    H239557   0.593   2.808   8.223  0.0355  0.4362  0.7101
 6000TIP3   OH239558   3.688   5.271   7.330 -0.4956 -0.1213  0.4105
 6000TIP3    H139559   3.660   5.200   7.272  0.3503 -1.3594  1.4527
 6000TIP3    H239560   3.724   5.337   7.272 -1.6103 -0.3791 -0.6152
 6001TIP3   OH239561   3.723   4.978   1.521  0.8224  0.2000 -0.1123
 6001TIP3    H139562   3.769   4.927   1.588 -0.2595  0.1155  0.5982
 6001TIP3    H239563   3.662   4.917   1.482 -0.3985  0.8818  0.6604
 6002TIP3   OH239564   0.407   4.381   2.062 -0.5031  0.1705 -0.6396
 6002TIP3    H139565   0.485   4.368   2.007  0.5784 -0.8298  1.0289
 6002TIP3    H239566   0.400   4.476   2.071  1.2259  0.2810  0.0423
 6003TIP3   OH239567   1.100   4.584   8.506 -0.8167 -0.2029  0.1745
 6003TIP3    H139568   1.110   4.492   8.482  0.5397  0.0177 -0.1809
 6003TIP3    H239569   1.035   4.618   8.444 -0.3347 -0.6174 -0.5765
 6004TIP3   OH239570   4.900   0.145   0.659  0.0241 -0.0109  0.0371
 6004TIP3    H139571   4.817   0.165   0.702  0.6170  0.2782  1.1010
 6004TIP3    H239572   4.949   0.228   0.663 -0.4230  0.4532 -2.4962
 6005TIP3   OH239573   1.360   3.831   2.540  0.5054 -0.3159 -0.6267
 6005TIP3    H139574   1.437   3.806   2.592 -0.5761  0.8711  1.7060
 6005TIP3    H239575   1.356   3.926   2.548  0.8852  0.0837 -3.9174
 6006TIP3   OH239576   5.858   3.818   7.359  0.0667 -0.4299 -0.2425
 6006TIP3    H139577   5.775   3.803   7.404  0.1832 -5.2751 -1.0745
 6006TIP3    H239578   5.855   3.910   7.332 -4.0598  0.1644  1.5041
 6007TIP3   OH239579   0.691   4.512   0.524 -0.3972  0.4109  0.3871
 6007TIP3    H139580   0.656   4.589   0.569 -1.5537 -0.3812  0.9111
 6007TIP3    H239581   0.631   4.442   0.548  1.1516 -0.8738  0.6747
 6008TIP3   OH239582   2.777   0.103   8.008  0.0412  0.5687 -0.1557
 6008TIP3    H139583   2.754   0.129   8.098 -1.6683 -0.2165 -0.3283
 6008TIP3    H239584   2.713   0.036   7.986  0.1795  1.0385 -2.1213
 6009TIP3   OH239585   1.665   5.145   2.961  1.0378  0.8441 -0.6207
 6009TIP3    H139586   1.639   5.087   3.033  0.2033  1.0428 -0.7487
 6009TIP3    H239587   1.760   5.144   2.962  1.1077  2.3176  1.7145
 6010TIP3   OH239588   4.120   1.581   0.131  0.0751 -0.1466 -0.2818
 6010TIP3    H139589   4.167   1.652   0.174 -0.9143 -0.5003  1.4578
 6010TIP3    H239590   4.035   1.619   0.109 -0.9471 -1.0667  1.8022
 6011TIP3   OH239591   2.895   5.709   2.245 -0.0065  0.1724 -0.1394
 6011TIP3    H139592   2.879   5.799   2.218  1.1967  1.0308  1.7864
 6011TIP3    H239593   2.808   5.672   2.259 -0.5113  1.2731 -0.2587
 6012TIP3   OH239594   0.672   5.482   0.889  0.1026  0.3613  0.2995
 6012TIP3    H139595   0.606   5.494   0.956  0.9061  0.6773  1.0531
 6012TIP3    H239596   0.752   5.462   0.937  0.3263 -1.1833 -0.6363
 6013TIP3   OH239597   4.527   4.203   2.679 -0.5266 -0.2664  0.2277
 6013TIP3    H139598   4.562   4.290   2.700  1.1044 -0.8057 -0.0706
 6013TIP3    H239599   4.493   4.170   2.762 -0.4320  0.3516  0.5171
 6014TIP3   OH239600   5.035   3.683   1.548 -0.1156 -0.5233  0.1624
 6014TIP3    H139601   4.944   3.695   1.574 -0.3562  1.7351 -1.4353
 6014TIP3    H239602   5.030   3.623   1.473 -0.7721  2.2108 -2.1315
 6015TIP3   OH239603   1.642   3.447   1.896  0.1830 -0.1181 -0.4169
 6015TIP3    H139604   1.737   3.449   1.896  0.2033  0.8744  1.2859
 6015TIP3    H239605   1.618   3.447   1.804  1.8140  2.2311 -0.9361
 6016TIP3   OH239606   6.295   1.019   2.891  0.5603 -0.0935  0.1890
 6016TIP3    H139607   6.221   0.978   2.846  2.1898 -0.5793 -2.2642
 6016TIP3    H239608   6.297   0.978   2.977 -1.1412 -1.1043 -0.2024
 6017TIP3   OH239609   1.774   2.410   1.360 -0.1012  0.1363 -0.4237
 6017TIP3    H139610   1.691   2.424   1.314 -1.7750 -0.9236  2.0707
 6017TIP3    H239611   1.777   2.315   1.375  2.1451 -0.0046 -1.4076
 6018TIP3   OH239612   4.141   1.854   8.058 -0.4789 -0.4314  0.5669
 6018TIP3    H139613   4.139   1.934   8.111  0.9214 -1.4305  2.2426
 6018TIP3    H239614   4.192   1.878   7.981  0.3065  0.1960  1.2645
 6019TIP3   OH239615   0.167   1.298   2.410  0.5630  0.5108 -0.3104
 6019TIP3    H139616   0.183   1.368   2.473  1.6048 -0.3679  0.4733
 6019TIP3    H239617   0.252   1.285   2.368  0.4338 -0.3579 -0.3275
 6020TIP3   OH239618   6.430   1.616   1.556 -0.3356 -0.1670 -0.1917
 6020TIP3    H139619   6.404   1.581   1.641 -0.3158  0.0030 -0.1143
 6020TIP3    H239620   6.497   1.555   1.523 -1.8534 -1.4428 -1.0581
 6021TIP3   OH239621   2.856   3.525   8.226  0.3158  0.4314 -0.8339
 6021TIP3    H139622   2.816   3.559   8.146  2.0388 -2.7830 -3.2745
 6021TIP3    H239623   2.938   3.573   8.234  0.2148  0.6558 -1.1155
 6022TIP3   OH239624   5.363   6.590   0.403  0.0047 -0.3356 -0.6538
 6022TIP3    H139625   5.316   6.670   0.377 -3.0993 -1.2507  1.5305
 6022TIP3    H239626   5.374   6.599   0.497  2.2288 -1.2914 -0.7664
 6023TIP3   OH239627   2.041   5.701   2.378 -0.7730  0.4928 -0.0117
 6023TIP3    H139628   2.056   5.780   2.326  0.9841 -0.9308 -1.7650
 6023TIP3    H239629   1.965   5.659   2.336  0.6955 -0.6996 -1.6063
 6024TIP3   OH239630   5.844   6.261   0.337 -0.2224  0.0001  0.4277
 6024TIP3    H139631   5.844   6.354   0.314  1.2960 -0.1210 -0.1626
 6024TIP3    H239632   5.756   6.231   0.314 -0.4439  1.0884 -0.2248
 6025TIP3   OH239633   6.637   0.009   7.980 -0.2174 -0.2534 -0.7716
 6025TIP3    H139634   6.698  -0.005   7.907  1.6657  0.8103  0.5075
 6025TIP3    H239635   6.606   0.099   7.970 -1.1566 -0.5955 -1.0788
 6026TIP3   OH239636   1.484   2.263   8.314  0.7259 -0.0622 -0.4935
 6026TIP3    H139637   1.567   2.311   8.312  0.4792  0.8077  3.1801
 6026TIP3    H239638   1.509   2.173   8.335  0.7835 -0.0929 -0.6865
 6027TIP3   OH239639   4.147   2.754   1.383  0.3799  0.2665  0.3880
 6027TIP3    H139640   4.101   2.674   1.409 -0.6589  0.3237 -1.1455
 6027TIP3    H239641   4.238   2.739   1.411 -0.1560 -0.6591  1.7575
 6028TIP3   OH239642   6.098   5.854   1.502 -0.7425  0.1727  0.0793
 6028TIP3    H139643   6.004   5.836   1.511 -0.9979  0.6548 -1.3832
 6028TIP3    H239644   6.111   5.870   1.409  0.7067  0.6612  0.3325
 6029TIP3   OH239645   3.012   6.071   8.480  0.0003 -0.0157 -0.0595
 6029TIP3    H139646   3.019   6.057   8.574  1.3929  3.2056  0.4749
 6029TIP3    H239647   2.926   6.110   8.467 -0.0338 -0.0859 -0.0425
 6030TIP3   OH239648   0.428   5.893   2.902 -0.3157 -0.4177 -0.0100
 6030TIP3    H139649   0.416   5.968   2.844 -1.7191 -0.7181 -0.1518
 6030TIP3    H239650   0.444   5.931   2.988  2.4011  0.0441 -0.6275
 6031TIP3   OH239651   2.371   5.323   2.547  0.1850 -0.0803  0.0856
 6031TIP3    H139652   2.446   5.355   2.597  0.4236  3.7955 -2.3408
 6031TIP3    H239653   2.408   5.298   2.462 -1.0940  2.1335 -1.2404
 6032TIP3   OH239654   3.071   2.864   2.306  0.1262 -0.3870 -0.3258
 6032TIP3    H139655   3.070   2.953   2.270  0.9004 -0.0882  0.3636
 6032TIP3    H239656   3.143   2.864   2.370 -0.8491 -1.0574  0.8224
 6033TIP3   OH239657   5.866   4.094   2.688  0.2025  0.6147 -0.5467
 6033TIP3    H139658   5.843   4.071   2.778  1.8595 -0.0718 -0.2661
 6033TIP3    H239659   5.784   4.087   2.640 -0.1275 -2.5570  0.2257
 6034TIP3   OH239660   1.233   0.445   1.375  0.1810  0.0245  0.2667
 6034TIP3    H139661   1.236   0.439   1.471  2.4760  1.5048  0.3647
 6034TIP3    H239662   1.198   0.533   1.358 -1.0222 -0.5454 -0.3108
 6035TIP3   OH239663   3.402   3.081   0.954  0.5400  0.2499  0.1230
 6035TIP3    H139664   3.379   2.998   0.996  2.2805  0.4095  1.4937
 6035TIP3    H239665   3.495   3.093   0.972  0.5536  2.0329 -0.8747
 6036TIP3   OH239666   6.690   2.615   0.479  1.3256 -0.2282  0.6868
 6036TIP3    H139667   6.619   2.559   0.509  2.0627 -1.0861  0.8622
 6036TIP3    H239668   6.668   2.633   0.387 -0.6952  2.0426  1.5074
 6037TIP3   OH239669   5.433   4.706   6.932 -0.5209 -0.2051  0.4053
 6037TIP3    H139670   5.465   4.688   7.020 -0.3503  1.7101  0.7831
 6037TIP3    H239671   5.346   4.666   6.929 -0.6773  0.0166  1.5797
 6038TIP3   OH239672   2.262   5.662   0.605  0.0719 -0.0393  0.2992
 6038TIP3    H139673   2.199   5.723   0.643  1.0772  0.5634  1.0850
 6038TIP3    H239674   2.209   5.592   0.569 -1.0945  1.0056 -0.1000
 6039TIP3   OH239675   3.852   6.093   1.120 -0.2408 -0.2659  0.2281
 6039TIP3    H139676   3.811   6.146   1.051  2.4053  1.5940 -0.0551
 6039TIP3    H239677   3.919   6.042   1.075 -0.6245 -1.4842  0.9929
 6040TIP3   OH239678   0.772   2.760   8.494  0.3604  0.0263  0.2278
 6040TIP3    H139679   0.817   2.689   8.540 -0.5728 -1.8670 -1.6343
 6040TIP3    H239680   0.821   2.771   8.413  0.6963  1.8237  0.6128
 6041TIP3   OH239681   0.211   5.831   1.704  0.6400  0.2182 -0.7050
 6041TIP3    H139682   0.132   5.852   1.754  0.7467  1.4614 -1.0274
 6041TIP3    H239683   0.283   5.866   1.756  1.1926 -2.2239  0.3546
 6042TIP3   OH239684   4.542   0.770   3.129 -0.2176  0.0640 -0.5826
 6042TIP3    H139685   4.469   0.711   3.110 -0.3450  0.0795 -0.1550
 6042TIP3    H239686   4.501   0.856   3.137 -0.3012 -0.0704  0.6227
 6043TIP3   OH239687   3.664   5.243   8.540  0.2915 -0.2191  0.0640
 6043TIP3    H139688   3.708   5.243   8.625 -1.0518 -0.2477  0.7838
 6043TIP3    H239689   3.674   5.332   8.508  0.2610 -0.0421  0.5359
 6044TIP3   OH239690   2.929   0.107   0.940 -0.0461 -0.1978  0.0256
 6044TIP3    H139691   2.934   0.013   0.959 -0.0152 -0.0862  0.5829
 6044TIP3    H239692   2.925   0.112   0.845 -0.4429 -0.7802  0.0094
 6045TIP3   OH239693   1.666   0.227   8.625 -0.1351  0.2694  0.4511
 6045TIP3    H139694   1.583   0.181   8.624 -0.4472  0.7548  1.8939
 6045TIP3    H239695   1.682   0.246   8.717  1.2281  0.8093  0.1290
 6046TIP3   OH239696   0.408   0.686   8.645 -0.2639 -0.6355 -0.1293
 6046TIP3    H139697   0.399   0.778   8.618  0.4458 -0.5121  0.0412
 6046TIP3    H239698   0.330   0.669   8.698 -0.6343 -0.2735 -0.5383
 6047TIP3   OH239699   3.337   1.596   8.012 -0.2688  0.3872  0.5200
 6047TIP3    H139700   3.384   1.516   7.989 -0.1453  0.4390  0.5935
 6047TIP3    H239701   3.345   1.652   7.934 -0.2726  0.3666  0.5049
 6048TIP3   OH239702   1.644   2.946   2.008  0.5641  0.5800  0.2296
 6048TIP3    H139703   1.626   2.922   1.918  2.9712  1.3257 -0.5236
 6048TIP3    H239704   1.719   2.893   2.033 -1.7412 -1.7701  2.8734
 6049TIP3   OH239705   3.656   2.498   7.763  0.0322  0.1971  0.6973
 6049TIP3    H139706   3.730   2.440   7.779  0.0300  0.3230  1.1675
 6049TIP3    H239707   3.678   2.542   7.681 -0.1027 -0.6756  0.1880
 6050TIP3   OH239708   5.457   5.963   0.689 -0.1058  0.5830  0.1883
 6050TIP3    H139709   5.446   6.055   0.714 -0.2384  0.8090 -0.6772
 6050TIP3    H239710   5.531   5.964   0.627  1.3995 -0.2007  1.8722
 6051TIP3   OH239711   0.927   5.771   2.719 -0.2008 -0.1832  0.1287
 6051TIP3    H139712   0.926   5.675   2.709  1.4549 -0.3564  1.2613
 6051TIP3    H239713   0.960   5.786   2.807 -0.2913  1.4542 -0.0840
 6052TIP3   OH239714   5.530   2.024   8.703 -0.1151  0.6588 -0.2741
 6052TIP3    H139715   5.486   1.965   8.763  1.5829 -0.5903 -0.1717
 6052TIP3    H239716   5.461   2.054   8.643 -1.1490 -0.9309  0.0612
 6053TIP3   OH239717   0.000   0.649   8.244  0.0837  0.4370  0.1882
 6053TIP3    H139718  -0.012   0.618   8.334  1.8830  0.6719  0.5626
 6053TIP3    H239719  -0.073   0.612   8.195 -1.3382  0.8835  1.8706
 6054TIP3   OH239720   2.036   5.759   0.711  0.3841 -0.0560  0.2960
 6054TIP3    H139721   1.992   5.694   0.656  0.3242 -1.0271  1.4471
 6054TIP3    H239722   1.979   5.770   0.787  0.8181  0.7029  0.5281
 6055TIP3   OH239723   4.282   2.240   8.175 -0.2012  0.7703 -0.4354
 6055TIP3    H139724   4.352   2.251   8.240 -1.3335 -0.6838  1.1081
 6055TIP3    H239725   4.328   2.212   8.096  0.9950  0.1219  0.4461
 6056TIP3   OH239726   0.964   6.057   0.474 -0.1246 -0.3569  0.2600
 6056TIP3    H139727   0.902   5.985   0.486 -2.5548  1.9313  3.4476
 6056TIP3    H239728   0.931   6.103   0.397 -1.2163 -0.3369  0.7109
 6057TIP3   OH239729   2.144   2.053   0.044 -0.2258  0.2778 -0.1588
 6057TIP3    H139730   2.169   2.016  -0.040 -0.5022  1.8102 -0.9566
 6057TIP3    H239731   2.226   2.083   0.083  0.0153 -1.1918  0.5455
 6058TIP3   OH239732   5.839   1.688   0.713 -0.5635 -0.7737 -0.1444
 6058TIP3    H139733   5.917   1.661   0.762 -0.4287 -0.1325  0.0016
 6058TIP3    H239734   5.869   1.761   0.658 -1.0804 -0.4662 -0.0223
 6059TIP3   OH239735   0.603   0.736   2.141  0.2871 -0.0277 -0.1360
 6059TIP3    H139736   0.695   0.760   2.155  0.4244  0.3957 -1.5492
 6059TIP3    H239737   0.571   0.710   2.227  1.6753  0.0243  0.4185
 6060TIP3   OH239738   5.347   5.281   1.703 -0.3538 -0.1230  0.7431
 6060TIP3    H139739   5.372   5.362   1.659 -0.3000 -0.2150  0.6036
 6060TIP3    H239740   5.258   5.263   1.671 -0.1069 -0.4839  0.2439
 6061TIP3   OH239741   1.745   0.018   1.734 -0.3826 -0.1505  0.0537
 6061TIP3    H139742   1.783  -0.046   1.794 -0.9452 -0.4619  0.0861
 6061TIP3    H239743   1.810   0.028   1.665 -0.2100 -0.6207  0.1426
 6062TIP3   OH239744   4.260   5.481   7.787  0.2075 -0.3402  0.1081
 6062TIP3    H139745   4.326   5.420   7.754 -0.9496 -1.9285  0.6170
 6062TIP3    H239746   4.202   5.496   7.712  1.9120  2.2992 -0.8260
 6063TIP3   OH239747   2.188   4.360   0.472  0.7108  0.1544 -0.3296
 6063TIP3    H139748   2.104   4.318   0.489  0.9632  0.2050  1.1725
 6063TIP3    H239749   2.198   4.425   0.541  1.2345  1.3323 -1.4679
 6064TIP3   OH239750   5.631   5.542   1.831 -0.1023  0.7169  0.2835
 6064TIP3    H139751   5.584   5.519   1.750  0.4931  0.9347 -0.1303
 6064TIP3    H239752   5.664   5.459   1.864 -1.3689  0.4658  0.9602
 6065TIP3   OH239753   1.564   0.120   3.446  0.3197 -0.2205  0.0482
 6065TIP3    H139754   1.591   0.141   3.356 -0.4038 -1.3665 -0.4532
 6065TIP3    H239755   1.513   0.196   3.473  1.3197  0.5554 -0.1486
 6066TIP3   OH239756   4.233   5.871   2.054  0.1376 -0.0432 -0.4673
 6066TIP3    H139757   4.303   5.807   2.065  0.8137  0.8366  0.5645
 6066TIP3    H239758   4.172   5.852   2.125  1.6358  2.0215  1.5220
 6067TIP3   OH239759   1.419   4.550   1.659  0.0434  0.2227  0.3020
 6067TIP3    H139760   1.480   4.609   1.703 -0.9918 -0.7436  3.2419
 6067TIP3    H239761   1.469   4.470   1.644  0.1492  0.2345  0.5853
 6068TIP3   OH239762   6.345   3.724   2.243  0.4099  0.3135  0.3098
 6068TIP3    H139763   6.348   3.780   2.165 -0.2576 -1.4856 -1.0785
 6068TIP3    H239764   6.336   3.786   2.316 -1.3757  1.9882 -1.2034
 6069TIP3   OH239765   6.148   2.339   8.732 -0.3128 -0.1721 -0.2614
 6069TIP3    H139766   6.056   2.329   8.707 -0.7953  2.2942  0.2073
 6069TIP3    H239767   6.158   2.433   8.749  2.4047 -0.2994 -0.6451
 6070TIP3   OH239768   4.891   2.737   2.288  0.0422 -0.0626  0.6187
 6070TIP3    H139769   4.925   2.807   2.231 -0.5494 -0.7356 -0.5943
 6070TIP3    H239770   4.800   2.726   2.261  0.2050 -1.4919  0.5733
 6071TIP3   OH239771   0.487   0.720   7.374  0.2305 -0.1941 -0.5213
 6071TIP3    H139772   0.427   0.775   7.424  2.1121 -0.2891  1.9906
 6071TIP3    H239773   0.548   0.781   7.333  0.0802 -0.2386 -0.8147
 6072TIP3   OH239774   0.857   1.717   1.106 -0.2797 -0.6172 -0.0977
 6072TIP3    H139775   0.802   1.727   1.028  0.0232  1.2735 -0.1241
 6072TIP3    H239776   0.938   1.678   1.073 -0.2797 -0.1376 -0.6849
 6073TIP3   OH239777   4.736   1.133   6.987 -0.6733 -0.8481 -0.2316
 6073TIP3    H139778   4.654   1.128   6.937 -0.7480 -1.9598 -0.0377
 6073TIP3    H239779   4.750   1.043   7.017 -0.8420 -0.1437  2.0981
 6074TIP3   OH239780   0.003   1.007   0.305 -0.6326  0.3448  0.1043
 6074TIP3    H139781  -0.027   0.962   0.226 -0.5379  0.0098  0.2582
 6074TIP3    H239782   0.085   0.963   0.327 -1.4756 -0.6646  1.3291
 6075TIP3   OH239783   5.176   0.864   8.384 -0.0664  0.0976 -0.0556
 6075TIP3    H139784   5.155   0.774   8.410 -1.1574 -0.0573 -1.3131
 6075TIP3    H239785   5.096   0.894   8.339  1.2127  0.7494 -2.0182
 6076TIP3   OH239786   0.386   3.597   2.197  1.1595 -0.0305 -0.1483
 6076TIP3    H139787   0.366   3.528   2.133  0.1805 -0.5533  0.6901
 6076TIP3    H239788   0.385   3.678   2.146 -1.6995 -0.1852 -0.4807
 6077TIP3   OH239789   2.929   4.828   7.375  0.4263  0.3019  0.0278
 6077TIP3    H139790   2.851   4.819   7.429  0.0193  0.1788 -0.5644
 6077TIP3    H239791   2.904   4.892   7.309  1.0420  0.7281  0.2096
 6078TIP3   OH239792   6.780   5.309   1.424  0.2824  0.0732  0.5035
 6078TIP3    H139793   6.838   5.358   1.367 -0.5023  1.6580  1.0242
 6078TIP3    H239794   6.756   5.232   1.372  0.3309  0.9921 -0.9418
 6079TIP3   OH239795   0.229   1.867   2.432 -0.8811 -0.0595 -0.2186
 6079TIP3    H139796   0.143   1.834   2.406 -1.6771  0.0383  2.0428
 6079TIP3    H239797   0.257   1.807   2.501 -1.1186  2.2665  2.0680
 6080TIP3   OH239798   0.970   3.812   2.992  0.6760  0.1175  0.6064
 6080TIP3    H139799   0.973   3.764   2.910  0.8408 -0.2790  0.8393
 6080TIP3    H239800   0.878   3.809   3.018  0.5188  0.7755  0.1285
 6081TIP3   OH239801   5.857   4.986   1.629 -0.5068 -0.0765  0.0416
 6081TIP3    H139802   5.786   5.049   1.622  0.7206  1.3831  0.1415
 6081TIP3    H239803   5.924   5.018   1.568  0.4625 -0.8418  0.6674
 6082TIP3   OH239804   1.915   3.415   1.876  0.3905 -0.5367 -0.6685
 6082TIP3    H139805   1.985   3.410   1.812 -0.4232 -0.7870 -1.5681
 6082TIP3    H239806   1.936   3.347   1.940  1.0704 -0.4656 -0.8100
 6083TIP3   OH239807   6.468   2.320   7.498  0.0540  0.2549  0.1879
 6083TIP3    H139808   6.502   2.362   7.419 -0.0366  1.9698  1.0164
 6083TIP3    H239809   6.414   2.248   7.466  1.4274 -0.1864 -1.2445
 6084TIP3   OH239810   5.423   6.366   0.042  0.5007  0.3095  0.0028
 6084TIP3    H139811   5.407   6.317   0.123  2.2618  1.6213  1.2484
 6084TIP3    H239812   5.340   6.408   0.023 -0.6575 -1.9709 -0.3278
 6085TIP3   OH239813   4.714   3.077   1.337 -0.5242 -0.3483 -0.4804
 6085TIP3    H139814   4.741   2.985   1.340  1.6350  0.2455 -0.2397
 6085TIP3    H239815   4.705   3.096   1.244 -1.1653 -0.8199 -0.5291
 6086TIP3   OH239816   3.710   2.604   6.727  0.1598 -0.2943 -0.4952
 6086TIP3    H139817   3.787   2.660   6.716  1.2921 -1.8818 -1.0886
 6086TIP3    H239818   3.651   2.654   6.783  0.8299  1.7301 -1.4965
 6087TIP3   OH239819   1.202   1.538   7.762 -0.1850  0.1006 -0.0227
 6087TIP3    H139820   1.152   1.491   7.829  1.9320  0.0211  1.6079
 6087TIP3    H239821   1.178   1.629   7.773  1.3003  0.3223  2.0545
 6088TIP3   OH239822   2.021   3.274   2.115  0.2622 -0.1529 -0.0077
 6088TIP3    H139823   1.932   3.251   2.141  0.0310  0.6009 -0.1190
 6088TIP3    H239824   2.068   3.191   2.118 -0.2207 -0.4133  0.9236
 6089TIP3   OH239825   2.242   3.651   0.841  0.0082 -0.0997  0.5205
 6089TIP3    H139826   2.300   3.625   0.913  0.8933  2.1423  0.6790
 6089TIP3    H239827   2.301   3.664   0.767 -0.5427  0.3088  0.1506
 6090TIP3   OH239828   3.407   4.885   8.334 -0.1033 -0.4665 -0.1054
 6090TIP3    H139829   3.479   4.888   8.272 -1.4727 -0.1406 -1.7542
 6090TIP3    H239830   3.447   4.903   8.419  1.8688 -1.2251 -0.8260
 6091TIP3   OH239831   0.620   0.998   0.778 -0.0934  0.1301  0.1830
 6091TIP3    H139832   0.625   0.994   0.682 -2.0298 -2.1270  0.0665
 6091TIP3    H239833   0.527   1.014   0.796 -0.2511 -2.0029  1.6264
 6092TIP3   OH239834   1.922   4.103   8.293 -0.1587  0.0028 -0.0210
 6092TIP3    H139835   1.946   4.051   8.370  0.6334  0.7225  0.2330
 6092TIP3    H239836   1.963   4.188   8.308  1.7167 -0.4383 -2.1625
 6093TIP3   OH239837   4.600   2.776   7.515 -0.9611 -0.0758 -0.0856
 6093TIP3    H139838   4.656   2.784   7.439 -0.8607 -0.4566 -0.0528
 6093TIP3    H239839   4.513   2.756   7.480 -1.2259  1.1525 -0.1705
 6094TIP3   OH239840   5.057   2.749   0.375 -0.2969 -0.2819  0.5675
 6094TIP3    H139841   5.010   2.697   0.441  0.1852 -0.3483  0.8696
 6094TIP3    H239842   5.141   2.703   0.365 -0.3781 -0.2882 -0.1174
 6095TIP3   OH239843   0.878   1.433   8.229 -0.1948 -0.0217 -0.1033
 6095TIP3    H139844   0.864   1.434   8.134  1.0518 -0.1044 -0.3002
 6095TIP3    H239845   0.929   1.513   8.246 -0.4894  0.0349  0.5104
 6096TIP3   OH239846   4.382   4.254   1.834 -0.2368 -0.1163 -0.2502
 6096TIP3    H139847   4.354   4.322   1.894 -1.0886  0.3667 -1.1623
 6096TIP3    H239848   4.477   4.268   1.823 -0.4895  1.2998 -0.8674
 6097TIP3   OH239849   5.797   4.225   0.791  0.4920  0.0057 -0.5074
 6097TIP3    H139850   5.761   4.142   0.759  2.3218 -0.6265 -1.0284
 6097TIP3    H239851   5.820   4.209   0.882 -1.2748  0.6780  0.0950
 6098TIP3   OH239852   0.681   6.500   2.087 -0.0437 -0.3816  0.2351
 6098TIP3    H139853   0.660   6.429   2.148 -0.1652  0.5609  1.3165
 6098TIP3    H239854   0.614   6.566   2.104  0.7955  0.5155  0.1102
 6099TIP3   OH239855   2.591   3.770   0.827  0.1961  0.6923  0.0494
 6099TIP3    H139856   2.535   3.743   0.755  1.0622  2.1939 -1.2573
 6099TIP3    H239857   2.617   3.688   0.870 -1.2233 -0.1476 -0.6475
 6100TIP3   OH239858   0.359   5.317   2.044 -0.0394  0.1360 -0.3434
 6100TIP3    H139859   0.341   5.293   1.953 -0.6783 -0.4015 -0.0846
 6100TIP3    H239860   0.281   5.289   2.092  0.8668 -0.8905  0.5910
 6101TIP3   OH239861   2.873   2.982   1.029 -0.1476  0.0760 -0.5395
 6101TIP3    H139862   2.880   3.035   1.109 -0.7103 -0.6967  0.0381
 6101TIP3    H239863   2.789   2.938   1.037  0.6402 -1.5144 -0.6186
 6102TIP3   OH239864   5.000   0.061   8.182  0.5005 -0.6076 -0.0938
 6102TIP3    H139865   4.923   0.042   8.237  0.4999 -0.6347 -0.1043
 6102TIP3    H239866   5.053   0.121   8.234  1.2218 -1.7783  0.5583
 6103TIP3   OH239867   1.822   0.709   1.910 -0.3138  0.1332 -0.7876
 6103TIP3    H139868   1.759   0.637   1.915  0.9952 -0.9773  0.3420
 6103TIP3    H239869   1.883   0.683   1.840 -0.7273  0.9177 -1.4627
 6104TIP3   OH239870   0.970   4.868   0.115  0.0724  0.3983  0.1501
 6104TIP3    H139871   0.893   4.900   0.163  0.5525 -0.0608  1.2762
 6104TIP3    H239872   0.994   4.787   0.160  2.1551  1.3433  0.8859
 6105TIP3   OH239873   4.951   6.345   2.139  0.0557  0.0195  0.4460
 6105TIP3    H139874   4.950   6.308   2.227 -2.1531 -2.2026 -0.3886
 6105TIP3    H239875   5.044   6.346   2.114  0.6615  0.2074  2.5754
 6106TIP3   OH239876   3.502   4.988   8.545 -0.0696  0.5351 -0.4660
 6106TIP3    H139877   3.567   5.059   8.545  1.6628 -0.9700 -0.3132
 6106TIP3    H239878   3.489   4.968   8.638 -2.1579  1.9716 -0.3805
 6107TIP3   OH239879   0.877   5.980   1.414 -0.4579 -0.3871 -0.4923
 6107TIP3    H139880   0.862   6.026   1.331 -1.8836 -2.1016 -1.2574
 6107TIP3    H239881   0.846   6.040   1.481  0.8596  1.1001 -1.1457
 6108TIP3   OH239882   1.334   2.109   0.092  0.0613 -0.1237 -0.0744
 6108TIP3    H139883   1.310   2.089   0.002 -1.5159  1.6699 -0.1047
 6108TIP3    H239884   1.330   2.025   0.138 -1.7167 -0.6433 -1.1212
 6109TIP3   OH239885   2.757   0.998   8.752  0.1426 -0.7324  0.2857
 6109TIP3    H139886   2.782   0.932   8.688  1.6619 -0.6813  0.7815
 6109TIP3    H239887   2.714   1.067   8.701  2.2748 -0.1730 -0.8950
 6110TIP3   OH239888   5.399   6.399   1.004 -0.1915  0.0358 -0.2268
 6110TIP3    H139889   5.408   6.493   1.019 -0.9449 -0.0312  0.8037
 6110TIP3    H239890   5.362   6.365   1.086 -1.1602 -0.9565 -1.0268
 6111TIP3   OH239891   5.590   5.029   1.312 -0.5132  0.1113 -1.0706
 6111TIP3    H139892   5.682   5.057   1.313 -0.8158  1.1199 -1.0038
 6111TIP3    H239893   5.590   4.951   1.256  0.3778  0.1126 -1.0897
 6112TIP3   OH239894   1.672   2.681   2.622  0.0714  0.1812 -0.0470
 6112TIP3    H139895   1.606   2.728   2.570 -0.4162 -0.6119 -0.1504
 6112TIP3    H239896   1.706   2.748   2.682 -0.2532  0.7958 -0.5261
 6113TIP3   OH239897   6.667   2.302   8.547  0.0146 -0.0771 -0.1592
 6113TIP3    H139898   6.625   2.385   8.524 -0.2155  0.0612  0.7075
 6113TIP3    H239899   6.760   2.322   8.551 -0.1137  0.3787  0.9396
 6114TIP3   OH239900   0.805   1.747   0.583 -0.3528 -0.2367 -0.0932
 6114TIP3    H139901   0.807   1.720   0.674  1.7804  1.1349  0.3332
 6114TIP3    H239902   0.813   1.665   0.533  2.8571 -0.7849  1.0838
 6115TIP3   OH239903   5.644   4.650   2.328 -0.5192  0.2493 -0.2525
 6115TIP3    H139904   5.566   4.641   2.383  0.0147  0.9712  0.6551
 6115TIP3    H239905   5.654   4.745   2.317  1.2078  0.2818  1.1361
 6116TIP3   OH239906   6.660   5.198   2.443  0.1276  0.3017 -0.3573
 6116TIP3    H139907   6.626   5.112   2.418 -0.2719  0.7958 -1.6198
 6116TIP3    H239908   6.581   5.250   2.461  0.4002  0.0412  1.7850
 6117TIP3   OH239909   5.384   2.091   0.303 -0.2625 -0.3745  0.6909
 6117TIP3    H139910   5.348   2.012   0.344 -1.6372 -0.0795  0.0986
 6117TIP3    H239911   5.479   2.083   0.315 -0.1968 -2.9174 -0.7023
 6118TIP3   OH239912   2.779   1.333   1.296 -0.7986  0.1556 -0.4956
 6118TIP3    H139913   2.708   1.358   1.355  0.7222 -0.5881  1.7841
 6118TIP3    H239914   2.765   1.240   1.279 -0.5524  0.0845 -0.3114
 6119TIP3   OH239915   6.032   1.629   1.344  0.1068 -0.4155  0.5562
 6119TIP3    H139916   6.004   1.566   1.410 -0.1642 -0.5947  0.2725
 6119TIP3    H239917   6.127   1.622   1.343  0.1388 -0.1447  1.1866
 6120TIP3   OH239918   1.232   1.702   2.182 -0.5328 -0.0369 -0.2386
 6120TIP3    H139919   1.223   1.615   2.222 -0.4823 -0.3461 -0.8794
 6120TIP3    H239920   1.264   1.684   2.093 -0.7985  0.6231 -0.4740
 6121TIP3   OH239921   1.008   6.731   2.251 -0.8540 -0.0247  0.0086
 6121TIP3    H139922   1.010   6.637   2.268  0.4297 -0.0383 -0.1596
 6121TIP3    H239923   1.014   6.771   2.338  3.3740 -0.1152 -0.0409
 6122TIP3   OH239924   3.935   4.099   2.166 -0.1088  0.2558  0.1668
 6122TIP3    H139925   3.862   4.038   2.155  0.7142 -0.7435  0.0447
 6122TIP3    H239926   3.894   4.182   2.191 -1.3478  0.0077 -0.9458
 6123TIP3   OH239927   4.035   2.303   8.023 -0.4348 -0.4497  0.3355
 6123TIP3    H139928   4.032   2.396   8.046 -0.9879 -0.1723 -0.8062
 6123TIP3    H239929   4.069   2.260   8.102 -1.0037  0.6125  1.1794
 6124TIP3   OH239930   2.224   5.284   0.129  0.0211  0.5934  0.2842
 6124TIP3    H139931   2.134   5.281   0.097 -0.3667 -1.5563  1.3623
 6124TIP3    H239932   2.273   5.229   0.068  0.4734  1.1342  0.1461
 6125TIP3   OH239933   5.696   0.035   2.722 -0.8494 -0.0879 -0.3458
 6125TIP3    H139934   5.615   0.001   2.684 -0.0552 -1.9233 -0.5388
 6125TIP3    H239935   5.718  -0.028   2.791 -1.0948  1.9680  1.7164
 6126TIP3   OH239936   1.849   3.998   7.822  0.1764 -0.0868 -0.1271
 6126TIP3    H139937   1.765   3.956   7.803  0.5151 -0.8529  0.0203
 6126TIP3    H239938   1.910   3.956   7.762  0.5047  0.2615 -0.0336
 6127TIP3   OH239939   3.789   4.731   0.011  0.2465 -0.3656  0.1414
 6127TIP3    H139940   3.871   4.759   0.051  1.7612 -2.8889 -0.9211
 6127TIP3    H239941   3.763   4.803  -0.046  1.9728  0.3261  0.1844
 6128TIP3   OH239942   5.030   6.760   0.379 -0.0761 -0.3667 -0.0764
 6128TIP3    H139943   5.056   6.676   0.342 -2.3996 -1.9057  1.5398
 6128TIP3    H239944   4.956   6.788   0.326 -0.0561  0.0847  0.1285
 6129TIP3   OH239945   5.816   0.860   2.192 -0.4132 -0.3518  0.0068
 6129TIP3    H139946   5.892   0.897   2.236 -0.6870  0.6633 -0.3513
 6129TIP3    H239947   5.851   0.786   2.143  0.2160 -0.3311  0.4137
 6130TIP3   OH239948   6.472   4.818   7.793 -0.2438 -0.3854  0.4580
 6130TIP3    H139949   6.410   4.751   7.822  0.5263 -1.3965 -0.1886
 6130TIP3    H239950   6.558   4.779   7.807  0.1952  0.1269 -0.7356
 6131TIP3   OH239951   1.124   2.887   8.580  0.3029  0.5073 -0.2203
 6131TIP3    H139952   1.088   2.888   8.492  1.2610 -2.1114 -0.7199
 6131TIP3    H239953   1.102   2.974   8.616 -4.1647  0.0725 -1.3256
 6132TIP3   OH239954   3.348   1.879   1.777 -0.4422 -0.5567 -0.0588
 6132TIP3    H139955   3.342   1.876   1.682 -0.9641  1.2916 -0.1182
 6132TIP3    H239956   3.282   1.943   1.804 -1.7484 -2.5118  1.7233
 6133TIP3   OH239957   1.816   3.201   0.147 -0.2943 -0.4119  0.0365
 6133TIP3    H139958   1.873   3.240   0.212 -1.3405  0.1654  0.6322
 6133TIP3    H239959   1.767   3.274   0.110  0.2255 -0.7330 -1.3772
 6134TIP3   OH239960   0.351   0.754   0.811  0.5503 -0.3222  0.0886
 6134TIP3    H139961   0.385   0.690   0.749 -0.0239 -1.2763  0.7254
 6134TIP3    H239962   0.285   0.706   0.861  0.2163  0.7292  0.6937
 6135TIP3   OH239963   0.459   5.042   7.869  0.0144 -0.0795 -0.0951
 6135TIP3    H139964   0.505   4.961   7.844  0.1247 -0.5484  1.5261
 6135TIP3    H239965   0.476   5.102   7.796  0.8429 -1.1565 -0.8367
 6136TIP3   OH239966   0.125   4.360   2.122 -0.2623  0.1652  0.2537
 6136TIP3    H139967   0.118   4.446   2.165  0.3031 -0.2352  1.1861
 6136TIP3    H239968   0.214   4.359   2.087 -0.4206  0.1307 -0.1517
 6137TIP3   OH239969   2.622   1.445   1.482  0.1127  0.2756  0.0696
 6137TIP3    H139970   2.585   1.518   1.432  1.7745  1.6396  0.7717
 6137TIP3    H239971   2.590   1.457   1.571 -1.5161 -1.2396 -0.2483
 6138TIP3   OH239972   5.630   4.373   0.360  0.5314 -0.6928 -0.2302
 6138TIP3    H139973   5.647   4.398   0.451 -0.0113  0.8293 -0.5049
 6138TIP3    H239974   5.580   4.447   0.324  0.8472 -1.1995 -1.8016
 6139TIP3   OH239975   2.597   3.845   8.297 -0.4377  0.3920 -0.0277
 6139TIP3    H139976   2.647   3.775   8.339  0.1784  0.9901  0.2455
 6139TIP3    H239977   2.580   3.908   8.367 -1.0903  0.4647 -0.2445
 6140TIP3   OH239978   2.255   4.387   1.721 -0.0433 -0.2722 -0.1901
 6140TIP3    H139979   2.164   4.384   1.692 -0.5518 -1.6218  1.3960
 6140TIP3    H239980   2.273   4.480   1.733 -1.3421 -0.0030 -0.1706
 6141TIP3   OH239981   4.080   3.823   8.366  0.4296  0.9056 -0.8059
 6141TIP3    H139982   4.046   3.797   8.280 -0.0885 -2.3175  0.2518
 6141TIP3    H239983   4.004   3.821   8.424  1.3990 -1.3276  0.5378
 6142TIP3   OH239984   2.661   5.582   0.811 -0.1503 -0.1522 -0.2815
 6142TIP3    H139985   2.579   5.632   0.806 -3.4219 -4.9360 -1.5924
 6142TIP3    H239986   2.692   5.595   0.901 -1.7972  2.5554 -0.0098
 6143TIP3   OH239987   4.971   4.322   1.237 -0.0268 -0.1576 -0.1757
 6143TIP3    H139988   4.967   4.376   1.159  1.6398  2.7975  1.5981
 6143TIP3    H239989   5.041   4.360   1.290  0.1926 -3.1432  1.9813
 6144TIP3   OH239990   4.406   1.710   2.016 -0.2306  0.2604 -0.0229
 6144TIP3    H139991   4.412   1.729   1.922  0.3151 -0.9784 -0.2650
 6144TIP3    H239992   4.341   1.640   2.022 -0.6568  0.7022  0.5888
 6145TIP3   OH239993   2.111   4.142   7.254 -0.1031  0.0343  0.2228
 6145TIP3    H139994   2.135   4.052   7.237 -1.2490 -0.1108 -0.7256
 6145TIP3    H239995   2.037   4.159   7.196  0.7593  1.9129 -0.4124
 6146TIP3   OH239996   6.295   4.259   0.030 -0.4108  0.7182 -0.1505
 6146TIP3    H139997   6.277   4.165   0.034 -2.8534  1.1283  4.4268
 6146TIP3    H239998   6.226   4.294  -0.027 -0.6531 -0.0361 -0.3353
 6147TIP3   OH239999   0.366   0.862   2.114 -0.1320  0.0304 -0.2760
 6147TIP3    H140000   0.388   0.905   2.196 -0.3524  0.6080 -0.5121
 6147TIP3    H240001   0.440   0.803   2.097 -1.1450 -1.8782  1.5072
 6148TIP3   OH240002   6.032   5.988   3.224 -0.3608 -0.2831  0.4689
 6148TIP3    H140003   5.985   5.906   3.236  2.5654 -1.9229  2.1651
 6148TIP3    H240004   6.026   6.032   3.309  1.0252 -0.5168  0.7153
 6149TIP3   OH240005   0.675   3.628   2.293  0.0610 -0.0984 -0.1254
 6149TIP3    H140006   0.606   3.583   2.245  0.8753 -0.2420 -1.1829
 6149TIP3    H240007   0.693   3.707   2.242  2.4311 -1.3179 -1.2929
 6150TIP3   OH240008   5.789   0.542   8.329 -0.0389 -0.7962  0.0521
 6150TIP3    H140009   5.721   0.607   8.350 -1.9786 -3.0311  1.2458
 6150TIP3    H240010   5.806   0.498   8.412  1.1752 -1.8505 -0.7175
 6151TIP3   OH240011   1.498   3.340   8.194  0.5056  0.1315  0.1105
 6151TIP3    H140012   1.563   3.374   8.134  1.3478  0.5242  1.2139
 6151TIP3    H240013   1.501   3.245   8.183 -0.6365  0.2623 -1.7346
 6152TIP3   OH240014   3.045   2.458   1.951 -0.2947 -0.1041  0.0550
 6152TIP3    H140015   3.046   2.548   1.984 -0.5432 -0.5362  1.2980
 6152TIP3    H240016   3.083   2.465   1.864  0.5734  1.0767  0.4896
 6153TIP3   OH240017   1.490   0.107   7.396  0.4111  0.2883 -0.7383
 6153TIP3    H140018   1.492   0.175   7.464 -0.1850  2.8918 -3.1510
 6153TIP3    H240019   1.403   0.068   7.404  0.5618  0.1337  0.3414
 6154TIP3   OH240020   0.417   3.125   0.382 -0.4945 -0.1155 -0.1725
 6154TIP3    H140021   0.424   3.045   0.331 -1.8402 -0.1547 -0.3377
 6154TIP3    H240022   0.401   3.095   0.472 -0.0629 -0.0336 -0.0664
 6155TIP3   OH240023   0.915   0.153   2.095  0.2609 -0.4985 -0.7407
 6155TIP3    H140024   0.885   0.096   2.024  3.6040 -0.1024 -2.6913
 6155TIP3    H240025   0.946   0.093   2.163  0.1229 -0.9557 -1.0764
 6156TIP3   OH240026   3.865   5.499   1.353 -0.2935  0.5008 -0.4425
 6156TIP3    H140027   3.869   5.455   1.269 -0.5241 -2.5279  0.9991
 6156TIP3    H240028   3.780   5.475   1.390  0.5819  0.0744  1.4531
 6157TIP3   OH240029   5.778   1.154   2.159  0.5239  0.0580  0.2243
 6157TIP3    H140030   5.697   1.105   2.177  0.0936  0.8416  0.4662
 6157TIP3    H240031   5.842   1.118   2.220 -0.3256  1.1637  1.8244
 6158TIP3   OH240032   0.690   2.373   2.952 -1.0994  0.6389  0.0220
 6158TIP3    H140033   0.712   2.409   3.038 -3.2130  0.3475  0.7557
 6158TIP3    H240034   0.714   2.281   2.958 -4.1159 -0.1971  1.5828
 6159TIP3   OH240035   1.298   3.968   2.142  0.0121  0.2866  0.1959
 6159TIP3    H140036   1.229   3.939   2.201 -0.5223  0.9057 -0.1164
 6159TIP3    H240037   1.269   4.053   2.110  1.3464  0.9922  0.7587
 6160TIP3   OH240038   2.360   2.031   0.545 -0.1234  0.1201 -0.2335
 6160TIP3    H140039   2.375   2.087   0.621  0.4535  0.0344 -0.2839
 6160TIP3    H240040   2.283   1.979   0.569  0.7943 -0.8066  0.8167
 6161TIP3   OH240041   4.745   5.248   7.437  0.4233 -0.3850 -0.2156
 6161TIP3    H140042   4.807   5.181   7.408  1.0406  0.2853 -0.5014
 6161TIP3    H240043   4.704   5.279   7.356  0.6507  0.0606 -0.1637
 6162TIP3   OH240044   4.017   6.354   0.732  0.4452 -0.5595 -0.4569
 6162TIP3    H140045   3.923   6.337   0.728  0.4938 -0.7900 -0.6525
 6162TIP3    H240046   4.025   6.449   0.722  0.3592 -0.7402 -2.8421
 6163TIP3   OH240047   0.412   1.425   8.190 -0.6613 -0.1784 -0.2052
 6163TIP3    H140048   0.495   1.473   8.192 -0.5848 -0.3235  1.6676
 6163TIP3    H240049   0.436   1.338   8.158 -0.1086 -0.1651  0.1458
 6164TIP3   OH240050   2.052   3.893   2.535 -0.0267 -0.0553 -0.0276
 6164TIP3    H140051   2.095   3.920   2.617 -2.6823  1.0826  1.0992
 6164TIP3    H240052   2.003   3.814   2.558 -0.6166  0.1433 -0.5704
 6165TIP3   OH240053   0.249   5.090   0.683  0.4258  0.0304  0.0310
 6165TIP3    H140054   0.236   5.152   0.754 -0.2514 -0.6779  0.5374
 6165TIP3    H240055   0.209   5.132   0.607 -0.1398  0.1610  0.3986
 6166TIP3   OH240056   6.245   0.228   3.115 -0.3347 -0.4128 -0.2723
 6166TIP3    H140057   6.164   0.251   3.069 -0.3493  1.1177  0.4748
 6166TIP3    H240058   6.294   0.309   3.121  0.7201 -1.0735  0.3565
 6167TIP3   OH240059   1.859   4.244   7.537  0.2003  0.5757 -0.0589
 6167TIP3    H140060   1.911   4.165   7.550  1.1494  1.2712  0.4609
 6167TIP3    H240061   1.828   4.267   7.625 -0.8828  0.2493 -0.3408
 6168TIP3   OH240062   5.401   1.362   1.693 -0.5836  0.5851  0.4263
 6168TIP3    H140063   5.324   1.413   1.716 -1.1071 -0.0773  0.1805
 6168TIP3    H240064   5.400   1.287   1.753 -2.1269 -1.3140 -1.7566
 6169TIP3   OH240065   4.336   6.802   6.679  0.3445 -0.0637  0.0432
 6169TIP3    H140066   4.403   6.763   6.623 -0.5328  2.4492 -3.0164
 6169TIP3    H240067   4.255   6.757   6.655  0.2635 -0.3995  0.8902
 6170TIP3   OH240068   6.127   5.472   8.571  0.8232  0.3061 -0.6422
 6170TIP3    H140069   6.105   5.503   8.484 -0.2425  0.0766 -0.4704
 6170TIP3    H240070   6.080   5.531   8.630 -0.0610 -0.7217 -0.2805
 6171TIP3   OH240071   6.139   1.962   3.392  0.4887 -0.1352  0.7218
 6171TIP3    H140072   6.093   1.997   3.316  1.6986 -0.8023 -0.3568
 6171TIP3    H240073   6.097   1.877   3.408  1.0386 -0.5609 -0.0078
 6172TIP3   OH240074   4.147   0.940   2.604  0.1531  0.0369 -0.0041
 6172TIP3    H140075   4.138   1.029   2.638 -0.3624  1.3208 -3.1291
 6172TIP3    H240076   4.241   0.928   2.594  0.1723  1.3505 -1.9822
 6173TIP3   OH240077   6.573   5.887   2.309  0.3150  0.0182 -0.1867
 6173TIP3    H140078   6.496   5.919   2.355  0.6540  0.0969  0.3368
 6173TIP3    H240079   6.609   5.820   2.366  0.4849 -0.2059 -0.5532
 6174TIP3   OH240080   4.469   2.246   7.720  0.2472 -0.0348  0.2958
 6174TIP3    H140081   4.487   2.159   7.686  0.4152  0.2100 -0.2615
 6174TIP3    H240082   4.469   2.302   7.642 -0.9549  0.2916  0.5149
 6175TIP3   OH240083   3.553   1.116   7.256 -0.3589  0.0189 -1.3559
 6175TIP3    H140084   3.525   1.135   7.167 -0.6284 -1.6679 -1.6602
 6175TIP3    H240085   3.622   1.050   7.246 -2.1268 -2.1226 -0.2612
 6176TIP3   OH240086   6.532   0.382   0.008  0.1819  0.0486 -0.8381
 6176TIP3    H140087   6.510   0.307   0.064  1.5051  1.0769  1.1879
 6176TIP3    H240088   6.606   0.352  -0.045  2.1423  0.4691  1.4886
 6177TIP3   OH240089   1.875   5.951   8.178 -0.3160 -0.1831  0.4948
 6177TIP3    H140090   1.970   5.941   8.170 -0.2191 -0.9972  2.2117
 6177TIP3    H240091   1.839   5.893   8.111  0.4138 -1.6891  1.3468
 6178TIP3   OH240092   2.464   2.339   8.040 -0.1882  0.2345 -0.6685
 6178TIP3    H140093   2.471   2.420   8.091 -0.1086  0.7601 -1.4923
 6178TIP3    H240094   2.396   2.358   7.976 -0.2404 -0.3969 -0.8039
 6179TIP3   OH240095   4.549   5.704   0.904  0.3557 -0.0747 -0.3501
 6179TIP3    H140096   4.466   5.695   0.858  0.9933 -3.4685 -1.0519
 6179TIP3    H240097   4.607   5.641   0.862  2.8376  1.0773  1.1550
 6180TIP3   OH240098   6.409   3.574   0.487 -0.1489 -0.0478  0.2590
 6180TIP3    H140099   6.371   3.592   0.573 -0.9359  1.5000 -0.3789
 6180TIP3    H240100   6.352   3.508   0.449 -1.1117  0.8767  0.0644
 6181TIP3   OH240101   2.611   6.229   3.079 -0.1927  0.0254 -0.0911
 6181TIP3    H140102   2.687   6.260   3.029 -0.4050  0.0120 -0.4221
 6181TIP3    H240103   2.647   6.161   3.137 -0.0326 -0.3336 -0.5984
 6182TIP3   OH240104   3.455   0.268   1.353 -0.6717  0.5110 -0.0307
 6182TIP3    H140105   3.375   0.310   1.320  0.0117  2.2146  0.4055
 6182TIP3    H240106   3.523   0.334   1.341  0.6788 -0.8999 -0.3409
 6183TIP3   OH240107   3.276   2.046   2.090 -0.0592  0.6237  0.1244
 6183TIP3    H140108   3.225   2.100   2.150  1.2315  1.6552  0.3379
 6183TIP3    H240109   3.262   1.956   2.120 -2.3339  0.7758 -0.3000
 6184TIP3   OH240110   3.399   1.681   1.988 -0.1967 -0.3177  0.6760
 6184TIP3    H140111   3.376   1.716   1.902 -2.7966  1.9101  2.1467
 6184TIP3    H240112   3.398   1.586   1.975  0.8772 -0.0668 -2.0099
 6185TIP3   OH240113   5.061   4.737   8.564  0.1915  0.3127 -0.0621
 6185TIP3    H140114   5.149   4.767   8.586  0.4810  0.5990 -1.5096
 6185TIP3    H240115   5.024   4.807   8.510 -0.2949 -0.5185 -0.8510
 6186TIP3   OH240116   4.791   0.031   0.255 -0.5862  0.8437  0.3280
 6186TIP3    H140117   4.740   0.024   0.175 -0.4235  0.8682  0.2211
 6186TIP3    H240118   4.764   0.114   0.293  0.6000  1.6878 -0.5932
 6187TIP3   OH240119   5.280   5.492   1.110 -0.0275  0.5820  0.0296
 6187TIP3    H140120   5.351   5.535   1.159  0.6700  0.2600 -0.6703
 6187TIP3    H240121   5.226   5.563   1.078  0.5127  0.8877 -0.2188
 6188TIP3   OH240122   1.627   5.759   1.163  0.3173 -0.2896  0.1348
 6188TIP3    H140123   1.680   5.680   1.151  2.0519  0.6738  1.0452
 6188TIP3    H240124   1.569   5.739   1.236  1.5682 -0.3489  1.1415
 6189TIP3   OH240125   0.636   2.997   7.824  0.4090 -0.4489 -0.1589
 6189TIP3    H140126   0.638   2.924   7.762  0.9334  2.1449 -3.4412
 6189TIP3    H240127   0.718   3.044   7.810 -0.9631  2.1837 -0.0699
 6190TIP3   OH240128   2.494   2.235   2.155 -0.0135  0.1241  0.7355
 6190TIP3    H140129   2.584   2.202   2.161  0.2105  0.8271  1.5939
 6190TIP3    H240130   2.439   2.158   2.158  0.5462 -0.2792  0.7601
 6191TIP3   OH240131   5.300   6.252   2.922  0.1366 -0.2671  0.2084
 6191TIP3    H140132   5.284   6.191   2.994  1.2178 -0.6619  0.1270
 6191TIP3    H240133   5.215   6.294   2.908 -0.5573 -1.5337  0.4543
 6192TIP3   OH240134   3.509   4.050   8.690  0.4064 -0.3934  0.1165
 6192TIP3    H140135   3.415   4.038   8.681  0.6489 -1.3608 -1.5702
 6192TIP3    H240136   3.519   4.141   8.716 -0.9913 -0.3075  0.4299
 6193TIP3   OH240137   3.447   1.192   7.024  0.4443  0.1879  0.5910
 6193TIP3    H140138   3.512   1.178   6.955 -0.7377  0.7281 -0.6761
 6193TIP3    H240139   3.434   1.287   7.026  1.5703  0.3585  2.6537
 6194TIP3   OH240140   1.924   0.912   8.719 -0.7867  0.5877  0.3407
 6194TIP3    H140141   1.914   0.844   8.785 -2.0520  0.0827 -0.3441
 6194TIP3    H240142   1.836   0.943   8.701 -0.7837 -0.6958 -2.5143
 6195TIP3   OH240143   6.486   6.649   7.583 -0.0851  0.7893  0.0232
 6195TIP3    H140144   6.526   6.639   7.497 -0.7224  0.5269 -0.2524
 6195TIP3    H240145   6.392   6.652   7.565 -0.4091 -1.7071  0.8727
 6196TIP3   OH240146   1.308   5.357   8.276 -0.5182  0.4710  0.1085
 6196TIP3    H140147   1.246   5.333   8.208 -1.2404  0.2400  0.8355
 6196TIP3    H240148   1.326   5.449   8.260  0.8923 -0.0398 -1.6144
 6197TIP3   OH240149   6.640   5.431   0.583  0.2289 -0.6273  0.5208
 6197TIP3    H140150   6.654   5.525   0.576 -0.1415 -0.5808  0.4160
 6197TIP3    H240151   6.556   5.415   0.539  0.8942 -1.1864 -0.5898
 6198TIP3   OH240152   5.832   1.884   1.939  0.0674 -0.3447  0.0905
 6198TIP3    H140153   5.861   1.967   1.979  0.3587 -0.4702  0.1423
 6198TIP3    H240154   5.743   1.902   1.908  0.6656  0.4683 -1.2699
 6199TIP3   OH240155   5.811   5.247   1.413 -0.1268 -0.9778 -0.8796
 6199TIP3    H140156   5.843   5.276   1.498 -2.1347 -0.5887 -0.2182
 6199TIP3    H240157   5.834   5.318   1.353  2.0460 -1.6114 -0.9039
 6200TIP3   OH240158   2.541   2.627   2.543  0.1504  0.4384 -0.7029
 6200TIP3    H140159   2.558   2.637   2.637 -0.6813  1.4399 -0.6452
 6200TIP3    H240160   2.492   2.545   2.536 -1.0874  1.0982 -0.0732
 6201TIP3   OH240161   1.700   5.523   0.514  0.2830 -0.1062  0.4333
 6201TIP3    H140162   1.658   5.470   0.583  0.0904  0.4341  0.7373
 6201TIP3    H240163   1.692   5.613   0.545  0.9706  0.0688  0.1091
 6202TIP3   OH240164   4.269   0.065   8.454  0.6983 -0.4393  0.2856
 6202TIP3    H140165   4.363   0.053   8.471  0.6574  0.1020  0.9523
 6202TIP3    H240166   4.256   0.159   8.463  0.1412 -0.4768 -0.1074
 6203TIP3   OH240167   3.829   0.031   0.622 -0.4170  0.4697  0.6578
 6203TIP3    H140168   3.785  -0.045   0.586 -2.0165  1.3413  0.6978
 6203TIP3    H240169   3.774   0.060   0.695 -0.5343  2.3633 -0.1091
 6204TIP3   OH240170   1.226   4.069   0.196  0.6452 -0.6372  0.2243
 6204TIP3    H140171   1.317   4.041   0.209  0.0462 -1.3110  4.7568
 6204TIP3    H240172   1.231   4.165   0.198  1.4254 -0.4929 -2.8981
 6205TIP3   OH240173   6.473   1.810   1.077  0.1852  0.2031 -0.4119
 6205TIP3    H140174   6.379   1.804   1.061 -0.0351  1.4150  0.2704
 6205TIP3    H240175   6.512   1.752   1.013 -1.0355 -0.4048 -0.6432
 6206TIP3   OH240176   3.948   2.905   0.426  0.0598 -0.1613  0.1686
 6206TIP3    H140177   3.946   2.810   0.428 -0.3838 -0.1551  0.2231
 6206TIP3    H240178   3.901   2.932   0.505 -1.6770  0.0908 -0.8814
 6207TIP3   OH240179   6.513   0.828   0.881 -0.1092  0.3454 -0.5369
 6207TIP3    H140180   6.572   0.865   0.815 -0.1904  2.2143  0.3764
 6207TIP3    H240181   6.571   0.788   0.946  0.0527  0.2531 -0.7368
 6208TIP3   OH240182   3.035   3.850   1.067  0.3924  0.0107 -0.1392
 6208TIP3    H140183   2.964   3.788   1.082 -0.5555  0.8617 -1.0338
 6208TIP3    H240184   3.000   3.914   1.006  0.9063  2.1586  1.6752
 6209TIP3   OH240185   5.530   3.775   2.251 -0.0880 -0.0483 -0.5477
 6209TIP3    H140186   5.535   3.722   2.171  1.4150 -1.7015  0.5725
 6209TIP3    H240187   5.600   3.840   2.241  0.0468 -0.2033 -0.6280
 6210TIP3   OH240188   0.780   3.146   1.596  0.2707  0.2125 -0.3318
 6210TIP3    H140189   0.687   3.151   1.576 -0.3458  1.2511  2.4054
 6210TIP3    H240190   0.814   3.233   1.576  0.6909 -0.1600 -1.3149
 6211TIP3   OH240191   2.280   2.652   8.514  0.1367  0.7129 -0.1180
 6211TIP3    H140192   2.360   2.599   8.520 -0.0471  0.5413  1.4640
 6211TIP3    H240193   2.285   2.711   8.589 -1.2209  0.6879  0.0198
 6212TIP3   OH240194   5.500   5.477   3.119 -0.6656  0.6101 -0.2617
 6212TIP3    H140195   5.405   5.489   3.117 -0.9323 -0.3848  2.3064
 6212TIP3    H240196   5.520   5.421   3.045 -2.5736 -1.7420  0.8898
 6213TIP3   OH240197   3.751   3.507   0.270  0.3428 -0.0715  0.0294
 6213TIP3    H140198   3.741   3.414   0.291  0.4460 -0.4685 -1.5495
 6213TIP3    H240199   3.826   3.535   0.322  1.0256 -1.1688 -0.3134
 6214TIP3   OH240200   1.100   2.752   8.219  0.1748 -0.0830 -0.4558
 6214TIP3    H140201   1.061   2.737   8.133 -2.4159  1.7110  0.3163
 6214TIP3    H240202   1.084   2.671   8.267 -0.8204 -0.1059 -0.8084
 6215TIP3   OH240203   6.422   4.807   0.056  0.2764 -0.0774  0.6179
 6215TIP3    H140204   6.389   4.740  -0.004 -2.3923  1.0398  0.6936
 6215TIP3    H240205   6.404   4.890   0.011  0.7920  0.6833  1.7767
 6216TIP3   OH240206   3.192   1.375   1.462  0.3379 -0.0652 -0.4216
 6216TIP3    H140207   3.202   1.281   1.478 -1.8139 -0.7006 -2.2080
 6216TIP3    H240208   3.098   1.391   1.471  0.4661  1.6043 -1.5176
 6217TIP3   OH240209   1.346   1.910   0.637  0.0361  1.2077 -0.4867
 6217TIP3    H140210   1.379   1.971   0.703  1.4809 -0.7743  0.7185
 6217TIP3    H240211   1.262   1.881   0.672  0.5115  0.6299  0.1821
 6218TIP3   OH240212   3.059   4.756   8.549 -0.0018 -0.4023 -0.0290
 6218TIP3    H140213   2.996   4.684   8.547  0.5173 -0.8521 -0.8378
 6218TIP3    H240214   3.061   4.787   8.458  0.1898  0.2681  0.2075
 6219TIP3   OH240215   2.079   4.046   2.222  0.0051 -0.0824  0.0551
 6219TIP3    H140216   2.120   4.071   2.305  0.8151 -1.4420  0.1009
 6219TIP3    H240217   2.151   4.043   2.159  0.0233 -2.2912  0.0835
 6220TIP3   OH240218   3.016   4.955   2.929  0.1969 -0.9521  0.1389
 6220TIP3    H140219   3.050   4.881   2.879 -0.6350 -0.1980 -1.6020
 6220TIP3    H240220   2.929   4.926   2.958  0.4583 -1.1860  0.6988
 6221TIP3   OH240221   0.821   3.077   0.632 -0.1510  0.1775 -0.0513
 6221TIP3    H140222   0.839   3.171   0.637 -0.7053  0.3301 -0.8041
 6221TIP3    H240223   0.795   3.062   0.541  1.7820 -1.0381 -0.4732
 6222TIP3   OH240224   5.776   5.749   1.978  0.1316 -0.0878 -0.4448
 6222TIP3    H140225   5.841   5.790   1.921  1.3752 -0.6231  0.5594
 6222TIP3    H240226   5.719   5.701   1.918  0.1702  1.0293 -1.4064
 6223TIP3   OH240227   2.408   1.170   1.301  0.0207  0.2155  0.3009
 6223TIP3    H140228   2.449   1.203   1.222 -1.6960  1.9454  0.0561
 6223TIP3    H240229   2.315   1.167   1.280 -0.2354 -1.6002  1.4893
 6224TIP3   OH240230   1.017   4.646   2.011  0.4460 -0.2227  0.2502
 6224TIP3    H140231   0.959   4.631   1.937  1.6243  0.9976 -0.9847
 6224TIP3    H240232   0.981   4.592   2.082 -2.4310  0.8045 -0.3026
 6225TIP3   OH240233   4.950   4.321   1.638 -0.0576 -0.4478  0.0378
 6225TIP3    H140234   4.926   4.228   1.643  0.2708 -0.4867  1.2718
 6225TIP3    H240235   4.993   4.330   1.553 -1.3495 -1.1132 -0.7143
 6226TIP3   OH240236   5.311   2.281   0.561 -0.3974 -0.0353  0.5137
 6226TIP3    H140237   5.361   2.329   0.496 -0.1580  0.8578  1.3341
 6226TIP3    H240238   5.305   2.192   0.526 -0.2446  0.4193 -0.6916
 6227TIP3   OH240239   6.583   4.205   8.590 -0.1101 -0.3452 -0.0269
 6227TIP3    H140240   6.568   4.194   8.684  0.7377 -2.2385 -0.0703
 6227TIP3    H240241   6.542   4.289   8.569 -1.1505 -0.3301  1.8391
 6228TIP3   OH240242   0.423   4.172   7.179  0.5479 -0.1248 -0.2658
 6228TIP3    H140243   0.402   4.241   7.242 -0.6629 -0.7054 -0.0044
 6228TIP3    H240244   0.413   4.215   7.093 -1.8214 -0.3267 -0.1703
 6229TIP3   OH240245   4.808   3.290   1.502 -0.4095  0.3809  0.2131
 6229TIP3    H140246   4.753   3.242   1.440 -0.2365 -1.6522  1.5321
 6229TIP3    H240247   4.876   3.227   1.527  0.7407  1.8459  0.8773
 6230TIP3   OH240248   1.740   4.973   2.128  0.1510 -0.5473  0.0506
 6230TIP3    H140249   1.652   4.995   2.157 -0.4042 -3.4261  0.8997
 6230TIP3    H240250   1.740   4.877   2.122  3.1812 -0.6416 -0.0633
 6231TIP3   OH240251   3.335   0.353   2.990  0.2306  0.0768  0.8320
 6231TIP3    H140252   3.409   0.349   2.930 -1.0021 -0.0365 -0.7163
 6231TIP3    H240253   3.373   0.330   3.075  1.8891 -0.3998  0.0061
 6232TIP3   OH240254   3.511   0.865   6.928 -0.6295  0.4058 -0.2332
 6232TIP3    H140255   3.562   0.830   7.000 -0.8294 -1.5651 -0.9896
 6232TIP3    H240256   3.576   0.897   6.865 -0.1123 -3.2138 -1.7584
 6233TIP3   OH240257   2.012   3.307   0.284 -0.0721 -0.9961 -0.2697
 6233TIP3    H140258   2.062   3.251   0.343  1.2815  0.6317  0.2051
 6233TIP3    H240259   2.078   3.351   0.230 -1.0588  0.2548 -0.5218
 6234TIP3   OH240260   5.212   3.577   2.519 -0.1323  0.2756  0.7683
 6234TIP3    H140261   5.142   3.641   2.524  0.5056  0.9135  2.2643
 6234TIP3    H240262   5.167   3.492   2.518 -0.9325  0.6807  1.4121
 6235TIP3   OH240263   2.154   5.425   0.484  0.1665  0.4555  0.1231
 6235TIP3    H140264   2.146   5.440   0.390 -2.5977  2.1244  0.5046
 6235TIP3    H240265   2.242   5.390   0.495  1.1244  1.5403 -2.9119
 6236TIP3   OH240266   3.843   1.619   2.081 -0.0809 -0.3050 -0.2739
 6236TIP3    H140267   3.774   1.553   2.085  1.2468 -1.6874  1.9613
 6236TIP3    H240268   3.838   1.665   2.165  0.3643  1.0533 -0.9506
 6237TIP3   OH240269   4.128   1.544   1.574  0.2028  0.0441  0.0491
 6237TIP3    H140270   4.116   1.606   1.646 -0.3312 -0.3026  0.2692
 6237TIP3    H240271   4.063   1.476   1.591  0.7052 -0.5166 -0.2501
 6238TIP3   OH240272   2.144   2.260   2.026  0.0057  0.0861  0.9397
 6238TIP3    H140273   2.054   2.240   1.999 -0.7577  2.7061  1.2269
 6238TIP3    H240274   2.198   2.228   1.954 -1.5851  2.5325 -1.5433
 6239TIP3   OH240275   5.596   4.383   1.294 -0.2367 -0.3021 -0.4016
 6239TIP3    H140276   5.676   4.423   1.327 -0.6464 -0.8163  1.2945
 6239TIP3    H240277   5.536   4.382   1.369 -1.2801 -1.3488 -1.2031
 6240TIP3   OH240278   0.888   1.208   2.060 -0.8623 -0.0089 -0.2353
 6240TIP3    H140279   0.936   1.222   2.141 -2.2488  0.5562  0.5168
 6240TIP3    H240280   0.930   1.131   2.020  0.7086  0.5246  0.3165
 6241TIP3   OH240281   3.756   5.759   1.298 -0.0757 -0.4806  0.4662
 6241TIP3    H140282   3.820   5.687   1.298  0.7773  0.2253  2.0946
 6241TIP3    H240283   3.713   5.753   1.212 -1.4262 -4.1331  1.1978
 6242TIP3   OH240284   2.692   3.577   2.053 -0.0953  0.0239 -0.4665
 6242TIP3    H140285   2.785   3.562   2.070 -0.2835  0.5723  1.2557
 6242TIP3    H240286   2.690   3.630   1.974  1.1735  1.3515  0.3413
 6243TIP3   OH240287   3.582   2.382   8.145 -0.1803 -0.5593 -0.0735
 6243TIP3    H140288   3.640   2.337   8.084  0.8656  0.7363 -0.0756
 6243TIP3    H240289   3.595   2.337   8.228  0.1743 -0.8386 -0.2763
 6244TIP3   OH240290   3.564   5.701   2.935 -0.1655  0.6137 -0.8138
 6244TIP3    H140291   3.503   5.628   2.924  1.4467 -0.9230 -0.1031
 6244TIP3    H240292   3.513   5.768   2.980 -0.8931 -1.3498  1.5170
 6245TIP3   OH240293   5.122   0.657   8.124  0.0657 -0.1400 -0.0257
 6245TIP3    H140294   5.143   0.571   8.087 -0.7000  0.9501 -3.2469
 6245TIP3    H240295   5.192   0.714   8.093 -0.8699  0.9479 -0.1733
 6246TIP3   OH240296   6.403   4.059   2.126 -0.1641  0.6213 -0.7924
 6246TIP3    H140297   6.379   3.979   2.079  0.4604  0.1940 -0.3944
 6246TIP3    H240298   6.389   4.129   2.063 -0.8560  0.2168 -1.1000
 6247TIP3   OH240299   3.073   5.122   2.527  0.2867 -0.1848  0.2173
 6247TIP3    H140300   3.129   5.143   2.452  1.8219  0.8200  1.5799
 6247TIP3    H240301   2.986   5.108   2.489  1.5416 -2.6583 -2.1026
 6248TIP3   OH240302   4.376   1.880   2.693  0.4401 -0.0322  0.2722
 6248TIP3    H140303   4.419   1.837   2.766 -1.3021  1.4578  2.2844
 6248TIP3    H240304   4.299   1.826   2.675 -0.0800  0.5457  0.7348
 6249TIP3   OH240305   0.797   5.254   7.665 -0.0999  0.3165  0.3708
 6249TIP3    H140306   0.873   5.242   7.722 -0.6001  1.0715  1.2173
 6249TIP3    H240307   0.798   5.347   7.643 -0.3760  0.1873 -0.2236
 6250TIP3   OH240308   3.771   2.430   1.329  0.2743 -0.3266  0.1658
 6250TIP3    H140309   3.684   2.457   1.298  1.0098  0.4102 -1.4040
 6250TIP3    H240310   3.754   2.361   1.393 -1.4612 -0.2019 -0.1208
 6251TIP3   OH240311   5.189   1.802   8.545  0.2670  0.3304 -0.3771
 6251TIP3    H140312   5.105   1.847   8.552  0.7093  1.2095 -0.5652
 6251TIP3    H240313   5.202   1.790   8.451 -0.4137 -1.3363 -0.3058
 6252TIP3   OH240314   4.102   6.318   7.209  0.1929 -0.1562  0.2337
 6252TIP3    H140315   4.100   6.237   7.157 -0.3264 -0.4163  0.6333
 6252TIP3    H240316   4.069   6.386   7.150  2.4152  0.1641 -0.7140
 6253TIP3   OH240317   0.014   3.697   8.591  0.4554  0.4729  0.1328
 6253TIP3    H140318  -0.068   3.737   8.621 -0.3605  0.7521 -2.2251
 6253TIP3    H240319   0.034   3.630   8.656 -1.6438  0.4119  0.7763
 6254TIP3   OH240320   0.538   1.211   0.365 -0.1221  0.2233  0.5004
 6254TIP3    H140321   0.486   1.182   0.441  1.0553  1.5930  1.8926
 6254TIP3    H240322   0.626   1.181   0.385  0.1688  0.4488 -0.4361
 6255TIP3   OH240323   1.335   4.532   0.734  0.3069 -0.1568 -1.0216
 6255TIP3    H140324   1.371   4.577   0.810 -2.0609  0.7672 -0.3506
 6255TIP3    H240325   1.387   4.452   0.727  1.4063  0.3330  0.7955
 6256TIP3   OH240326   1.267   0.051   0.858 -0.0557 -0.3390 -0.0132
 6256TIP3    H140327   1.300  -0.021   0.803  0.7385 -0.4401  0.5765
 6256TIP3    H240328   1.312   0.129   0.825 -0.6228 -0.1745 -0.4001
 6257TIP3   OH240329   3.603   6.140   1.728 -0.2505  0.0936  0.1314
 6257TIP3    H140330   3.556   6.215   1.691  1.2026  1.1822  0.4195
 6257TIP3    H240331   3.593   6.149   1.823 -1.9487 -1.3705  0.1554
 6258TIP3   OH240332   4.152   4.934   7.930 -0.3946  0.5261  0.3044
 6258TIP3    H140333   4.090   4.882   7.981 -0.0497  0.8809  1.1019
 6258TIP3    H240334   4.203   4.982   7.996  0.4247  0.5789 -0.3504
 6259TIP3   OH240335   0.179   5.480   1.804 -0.2534  0.1126  0.0092
 6259TIP3    H140336   0.200   5.478   1.711  0.7110 -1.2539  0.2239
 6259TIP3    H240337   0.200   5.569   1.832 -0.1973  0.4213 -0.9877
 6260TIP3   OH240338   6.251   4.360   8.483 -0.0595 -0.4795 -0.3161
 6260TIP3    H140339   6.264   4.269   8.508  2.2214 -0.1561 -0.0472
 6260TIP3    H240340   6.239   4.357   8.388  0.5079 -1.0455 -0.3798
 6261TIP3   OH240341   4.296   6.121   7.833 -0.2740 -0.4624 -0.0321
 6261TIP3    H140342   4.387   6.105   7.806  0.5661  1.3274  1.4728
 6261TIP3    H240343   4.243   6.073   7.770  1.6379  0.7200 -2.7271
 6262TIP3   OH240344   2.660   1.500   0.069 -0.1467  0.1452 -0.6142
 6262TIP3    H140345   2.684   1.592   0.055  1.0519 -0.3181 -1.7638
 6262TIP3    H240346   2.673   1.487   0.163  0.6137  0.9142 -0.5916
 6263TIP3   OH240347   3.397   2.541   1.565 -0.1219 -0.8554 -0.2177
 6263TIP3    H140348   3.348   2.623   1.555 -0.0024 -0.8094 -0.4349
 6263TIP3    H240349   3.381   2.515   1.655 -0.4299 -0.7667 -0.2461
 6264TIP3   OH240350   2.512   4.185   1.608  0.3156  0.1763 -0.1379
 6264TIP3    H140351   2.443   4.235   1.652  1.2464  1.9304 -0.5712
 6264TIP3    H240352   2.525   4.230   1.525  1.8232 -0.2399 -0.1559
 6265TIP3   OH240353   5.036   2.257   7.417 -0.0233 -0.4755  0.1662
 6265TIP3    H140354   5.123   2.297   7.422 -0.7887  1.2708  0.1447
 6265TIP3    H240355   5.043   2.193   7.347  0.7935  0.8721 -1.0299
 6266TIP3   OH240356   6.587   3.298   2.694  0.0645 -0.2339  0.3412
 6266TIP3    H140357   6.631   3.348   2.762 -2.2096  0.4710  1.4232
 6266TIP3    H240358   6.534   3.234   2.742 -0.6866 -0.5084 -0.8137
 6267TIP3   OH240359   0.128   3.407   8.601 -0.1355 -0.0087 -0.7421
 6267TIP3    H140360   0.035   3.426   8.611 -0.3860 -1.6792  0.4958
 6267TIP3    H240361   0.139   3.394   8.506 -1.0815  0.5617 -0.9452
 6268TIP3   OH240362   3.111   6.763   1.548 -0.6737 -0.2789 -0.0568
 6268TIP3    H140363   3.095   6.710   1.470 -1.0883  0.2293 -0.3226
 6268TIP3    H240364   3.089   6.852   1.521 -1.4510 -0.1870  0.8241
 6269TIP3   OH240365   1.177   4.863   1.952 -0.6462 -0.4268  0.5561
 6269TIP3    H140366   1.103   4.917   1.924 -0.8019 -1.0691 -0.3122
 6269TIP3    H240367   1.142   4.774   1.957 -0.9515 -0.2498  4.0297
 6270TIP3   OH240368   4.617   4.482   7.837  0.2940 -0.1606  0.5538
 6270TIP3    H140369   4.545   4.470   7.899  1.2533 -2.8321  1.3151
 6270TIP3    H240370   4.574   4.495   7.753 -1.0572  0.4243  1.2952
 6271TIP3   OH240371   1.941   1.422   8.610 -0.4666  0.1090 -0.1308
 6271TIP3    H140372   1.987   1.504   8.589 -0.1669 -0.1856 -0.6420
 6271TIP3    H240373   2.011   1.360   8.632 -0.7643  0.4753  2.1087
 6272TIP3   OH240374   5.780   0.030   7.657 -0.0343  0.3804  0.6176
 6272TIP3    H140375   5.855  -0.015   7.618 -0.1395  0.4535  0.3259
 6272TIP3    H240376   5.709   0.015   7.595 -0.2046  0.4992  0.7847
 6273TIP3   OH240377   1.900   4.843   7.905  0.0060  0.4585  0.3839
 6273TIP3    H140378   1.851   4.834   7.987  0.6484 -0.4000  0.6916
 6273TIP3    H240379   1.861   4.777   7.848  0.0762  0.5197  0.2664
 6274TIP3   OH240380   0.397   1.191   2.294 -0.7351  0.4773 -0.7565
 6274TIP3    H140381   0.440   1.209   2.210  1.4295  1.3478  0.4595
 6274TIP3    H240382   0.421   1.101   2.315  1.2204  1.1887  0.2599
 6275TIP3   OH240383   1.322   6.366   0.913  0.1714 -0.1890 -0.3570
 6275TIP3    H140384   1.291   6.335   0.998 -0.2751  1.3277  0.0701
 6275TIP3    H240385   1.243   6.367   0.858  0.5076 -1.4328 -0.9063
 6276TIP3   OH240386   0.924   3.486   7.639  0.2603  0.3047 -0.4719
 6276TIP3    H140387   0.916   3.545   7.714  1.6410  0.6722 -0.5825
 6276TIP3    H240388   1.009   3.509   7.600 -0.1213 -0.3565 -1.7306
 6277TIP3   OH240389   4.525   3.319   8.666 -0.3023 -0.3125 -0.1423
 6277TIP3    H140390   4.568   3.312   8.752  0.9028  0.8834 -0.6066
 6277TIP3    H240391   4.432   3.310   8.685 -0.0533 -0.1251  1.2886
 6278TIP3   OH240392   0.949   0.170   7.602 -0.4500  0.9845  0.0417
 6278TIP3    H140393   0.875   0.193   7.545 -0.7230  0.6435  0.2533
 6278TIP3    H240394   0.914   0.101   7.659  0.1234  0.6077 -0.0643
 6279TIP3   OH240395   0.112   6.409   7.818 -0.2785  0.0986  0.1179
 6279TIP3    H140396   0.084   6.334   7.871 -2.3391  0.2094 -0.7236
 6279TIP3    H240397   0.121   6.481   7.880 -0.9824 -0.1901  0.5687
 6280TIP3   OH240398   6.155   0.404   1.728 -0.1071  0.2228  0.6048
 6280TIP3    H140399   6.059   0.400   1.732 -0.0431 -1.1352  1.1096
 6280TIP3    H240400   6.178   0.346   1.655  0.3369  0.4670  0.5497
 6281TIP3   OH240401   0.137   1.178   1.713  0.0834  0.2872  0.1357
 6281TIP3    H140402   0.196   1.182   1.638 -1.1936  2.3775 -0.8354
 6281TIP3    H240403   0.134   1.085   1.736  1.5931 -0.2219 -1.4960
 6282TIP3   OH240404   0.406   2.363   7.986  0.4724  0.6083  0.1359
 6282TIP3    H140405   0.464   2.436   7.967 -0.3417  1.0301 -0.8202
 6282TIP3    H240406   0.393   2.320   7.901  1.0114 -0.7225  0.6864
 6283TIP3   OH240407   6.351   4.411   7.486  0.2183 -0.4516  0.1933
 6283TIP3    H140408   6.338   4.500   7.453  1.6084 -0.1458  0.3986
 6283TIP3    H240409   6.438   4.413   7.527 -0.3622 -1.5110  1.5648
 6284TIP3   OH240410   6.555   1.462   1.989 -0.1337  0.1504  0.4860
 6284TIP3    H140411   6.498   1.497   1.921 -0.3857  1.2675  1.2465
 6284TIP3    H240412   6.616   1.405   1.942 -0.2820  0.9142 -0.6783
 6285TIP3   OH240413   4.103   2.065   8.322 -0.2073 -0.0193  0.4627
 6285TIP3    H140414   4.147   2.029   8.399  2.3483 -1.4606 -1.4796
 6285TIP3    H240415   4.136   2.155   8.315 -0.3853  0.0869  0.9935
 6286TIP3   OH240416   0.772   4.793   0.329  0.0676 -0.4707 -0.4511
 6286TIP3    H140417   0.808   4.746   0.404  0.5836  0.2336 -0.2462
 6286TIP3    H240418   0.684   4.817   0.356  0.2387 -0.2508 -0.0884
 6287TIP3   OH240419   4.341   5.689   0.196 -0.4869 -0.3615 -0.6837
 6287TIP3    H140420   4.307   5.765   0.148  1.9272 -0.7574 -3.2094
 6287TIP3    H240421   4.406   5.726   0.255 -0.3573 -0.3154 -0.8549
 6288TIP3   OH240422   4.584   2.613   8.566  0.1289  0.2344 -0.1523
 6288TIP3    H140423   4.512   2.552   8.552 -1.8165  2.0907  1.2754
 6288TIP3    H240424   4.550   2.678   8.626  2.8001  1.6025  0.0366
 6289TIP3   OH240425   1.735   0.143   8.154 -0.2367  0.2545  0.1928
 6289TIP3    H140426   1.647   0.116   8.178  0.0546 -1.3940 -0.4550
 6289TIP3    H240427   1.791   0.109   8.225  0.0757 -0.3831 -0.3477
 6290TIP3   OH240428   0.645   5.883   1.968  0.2258 -0.1007 -0.0251
 6290TIP3    H140429   0.723   5.933   1.945 -1.3823  3.9638  2.1973
 6290TIP3    H240430   0.669   5.833   2.045  1.3263 -1.1536 -1.0223
 6291TIP3   OH240431   2.488   4.964   7.969  0.3666 -0.3947 -0.0573
 6291TIP3    H140432   2.581   4.970   7.945  0.6244  2.1104  1.2658
 6291TIP3    H240433   2.489   4.946   8.063 -0.4286  0.8525  0.2133
 6292TIP3   OH240434   5.847   4.887   2.530  0.6653 -0.1573 -0.7964
 6292TIP3    H140435   5.773   4.904   2.472  1.6103 -1.9273 -2.6839
 6292TIP3    H240436   5.919   4.938   2.491  0.9380 -0.0721 -0.1914
 6293TIP3   OH240437   2.270   0.001   1.354  0.5330  0.0930  0.3411
 6293TIP3    H140438   2.304  -0.061   1.418 -0.1609 -0.5694  0.0770
 6293TIP3    H240439   2.261   0.083   1.403 -2.4091 -1.0036  1.8691
 6294TIP3   OH240440   3.724   3.063   1.392 -0.0263 -0.3052  0.0720
 6294TIP3    H140441   3.793   3.009   1.430  0.8146  2.2770  2.5607
 6294TIP3    H240442   3.653   3.061   1.456 -0.0201  1.3489  0.1801
 6295TIP3   OH240443   0.882   4.097   0.129 -0.0874 -0.0945  0.2807
 6295TIP3    H140444   0.902   4.169   0.189 -2.5940  0.1594  0.9238
 6295TIP3    H240445   0.880   4.020   0.185  0.9708 -0.4420 -0.1302
 6296TIP3   OH240446   4.124   4.444   2.303 -0.2622 -0.3593  0.2787
 6296TIP3    H140447   4.051   4.408   2.252 -0.1172  1.0860 -1.0236
 6296TIP3    H240448   4.133   4.384   2.377 -0.9916 -2.1037 -0.9759
 6297TIP3   OH240449   0.143   4.503   7.822 -0.7135  0.6223 -1.3690
 6297TIP3    H140450   0.199   4.461   7.757 -2.3915 -0.4609 -2.2033
 6297TIP3    H240451   0.091   4.431   7.859 -1.8204  1.6164 -0.9257
 6298TIP3   OH240452   1.840   2.364   0.601  0.2434 -0.1481  0.1930
 6298TIP3    H140453   1.883   2.409   0.528  0.9304 -0.2906  0.5012
 6298TIP3    H240454   1.879   2.276   0.601 -1.6487 -1.0658 -0.9135
 6299TIP3   OH240455   5.530   6.068   0.048 -0.2310  0.5420  0.5027
 6299TIP3    H140456   5.562   5.980   0.028 -1.1121  0.3710 -0.2207
 6299TIP3    H240457   5.437   6.065   0.025  0.3013  2.4865 -2.4220
 6300TIP3   OH240458   6.485   3.376   2.200 -0.6095 -0.1090 -0.1225
 6300TIP3    H140459   6.567   3.337   2.171 -0.0717  1.0645 -0.2508
 6300TIP3    H240460   6.506   3.417   2.284 -0.5736  1.7223 -0.9742
 6301TIP3   OH240461   4.290   2.054   2.143 -0.0930  0.1337 -0.3985
 6301TIP3    H140462   4.278   1.966   2.179  0.7458  0.6208  1.1994
 6301TIP3    H240463   4.383   2.060   2.123 -0.3007  0.3674 -1.3262
 6302TIP3   OH240464   2.798   0.295   0.060  0.3545  0.2241 -0.0539
 6302TIP3    H140465   2.893   0.306   0.053  0.3450 -0.4545 -1.8927
 6302TIP3    H240466   2.787   0.221   0.118  1.0756 -1.0321 -1.4476
 6303TIP3   OH240467   0.204   0.739   2.365 -0.3619 -0.2741 -0.6087
 6303TIP3    H140468   0.169   0.745   2.454 -0.3550  0.0682 -0.6286
 6303TIP3    H240469   0.188   0.825   2.327  1.5827  0.3118 -0.2159
 6304TIP3   OH240470   3.940   4.181   0.779 -0.0822  0.7334 -0.6462
 6304TIP3    H140471   4.030   4.199   0.751  0.7253 -0.0011  1.3283
 6304TIP3    H240472   3.889   4.252   0.740  1.1805  0.6503 -2.5869
 6305TIP3   OH240473   0.371   3.571   1.643  0.3481  0.4156 -0.6812
 6305TIP3    H140474   0.395   3.542   1.555 -1.4579 -1.9682 -0.4950
 6305TIP3    H240475   0.275   3.575   1.642  0.2374 -0.3496  1.3346
 6306TIP3   OH240476   6.081   3.731   0.262 -0.3244  0.0530  0.1135
 6306TIP3    H140477   6.000   3.724   0.312  0.3771  0.9334  1.4294
 6306TIP3    H240478   6.131   3.800   0.306  0.5507  0.5135 -1.5118
 6307TIP3   OH240479   5.735   3.202   7.861 -0.4051 -0.5122 -0.1572
 6307TIP3    H140480   5.782   3.267   7.912 -2.1209  0.8398 -0.1988
 6307TIP3    H240481   5.656   3.247   7.831 -1.2514 -2.3694 -0.9129
 6308TIP3   OH240482   6.793   4.723   2.419 -0.0077  0.3083 -0.9198
 6308TIP3    H140483   6.726   4.656   2.437 -0.1142  0.4779 -0.6761
 6308TIP3    H240484   6.850   4.721   2.496  1.3522 -1.0966 -1.8897
 6309TIP3   OH240485   1.329   4.953   8.511 -0.1297  0.2175 -0.5488
 6309TIP3    H140486   1.353   4.871   8.468  0.9525  0.0697  0.2935
 6309TIP3    H240487   1.379   5.020   8.463  0.5804  0.1278  0.0485
 6310TIP3   OH240488   1.230   0.224   7.918 -0.2592 -0.4869  0.2404
 6310TIP3    H140489   1.239   0.298   7.857  1.5447  0.2890  1.3729
 6310TIP3    H240490   1.316   0.216   7.958 -1.1926 -1.4349  2.1690
 6311TIP3   OH240491   2.949   0.931   2.756 -0.2888  0.3908 -0.8457
 6311TIP3    H140492   2.898   0.942   2.836  0.5607 -0.3199 -0.1912
 6311TIP3    H240493   3.031   0.891   2.785  0.5202  1.1998 -1.9118
 6312TIP3   OH240494   3.624   0.893   1.289  0.7465 -0.5483  0.0083
 6312TIP3    H140495   3.634   0.827   1.220  0.7726 -0.9334  0.3707
 6312TIP3    H240496   3.601   0.842   1.367  0.0383 -0.0605  0.1306
 6313TIP3   OH240497   3.380   1.491   8.579 -0.0973  0.1459 -0.0667
 6313TIP3    H140498   3.429   1.503   8.498 -2.2325  1.0977 -1.3256
 6313TIP3    H240499   3.367   1.396   8.586 -1.8107  0.1556 -2.1460
 6314TIP3   OH240500   2.331   3.796   2.647  0.2492 -0.3760 -0.0055
 6314TIP3    H140501   2.400   3.855   2.676  0.7048 -1.2148  0.6453
 6314TIP3    H240502   2.376   3.732   2.591 -0.6657  1.5022 -3.1494
 6315TIP3   OH240503   2.305   6.306   7.105 -0.0789 -0.0765  0.3620
 6315TIP3    H140504   2.283   6.228   7.155  1.4301 -0.0385  1.1371
 6315TIP3    H240505   2.397   6.323   7.126 -0.0020  1.1390 -0.8271
 6316TIP3   OH240506   3.147   0.129   2.345  0.3389 -0.2906  0.2768
 6316TIP3    H140507   3.089   0.083   2.284 -0.5689  1.9637 -0.6965
 6316TIP3    H240508   3.091   0.152   2.419  0.6362 -0.2874  0.5008
 6317TIP3   OH240509   2.000   5.330   1.912  0.1728  0.4719  0.1292
 6317TIP3    H140510   2.020   5.322   2.006  0.8103 -0.7355 -0.0891
 6317TIP3    H240511   1.918   5.281   1.901  0.1420  0.5426  0.0418
 6318TIP3   OH240512   3.415   4.208   7.764 -0.3698 -0.1956 -0.3263
 6318TIP3    H140513   3.418   4.235   7.672 -1.4411  1.5870  0.1031
 6318TIP3    H240514   3.372   4.123   7.762 -0.1891 -0.2768 -1.4950
 6319TIP3   OH240515   6.398   1.521   0.203  0.6069 -0.1516  0.0356
 6319TIP3    H140516   6.467   1.562   0.151  0.0568 -0.2668 -0.8231
 6319TIP3    H240517   6.356   1.594   0.248  0.0246  0.1867 -1.0093
 6320TIP3   OH240518   1.136   4.135   2.748 -0.7133  0.2716  0.1120
 6320TIP3    H140519   1.070   4.203   2.735 -0.0265  1.6371  2.9425
 6320TIP3    H240520   1.089   4.053   2.739 -1.9239  1.1185 -1.7714
 6321TIP3   OH240521   5.406   0.263   8.747 -0.0542 -0.1191 -0.1612
 6321TIP3    H140522   5.430   0.353   8.728  0.7462 -0.5787 -1.4191
 6321TIP3    H240523   5.488   0.219   8.768 -0.4162 -0.5934  0.3135
 6322TIP3   OH240524   4.558   0.824   8.454  0.4046 -0.3668  0.1887
 6322TIP3    H140525   4.566   0.817   8.359  0.0109 -0.1596  0.1367
 6322TIP3    H240526   4.471   0.788   8.473 -0.0345  0.7366  0.3309
 6323TIP3   OH240527   4.833   0.797   7.981  1.0749 -0.3429  0.2807
 6323TIP3    H140528   4.894   0.832   7.916  1.1106 -2.3597 -0.8683
 6323TIP3    H240529   4.832   0.703   7.964  0.9946 -0.9552  3.1530
 6324TIP3   OH240530   0.351   3.597   7.635  0.1677  0.6313 -0.4496
 6324TIP3    H140531   0.355   3.502   7.630  0.3873  0.6822 -1.7991
 6324TIP3    H240532   0.286   3.621   7.568 -1.9922  1.3037  1.7418
 6325TIP3   OH240533   2.301   4.665   1.722 -0.3224 -0.3446  0.3278
 6325TIP3    H140534   2.234   4.733   1.734  0.8206  0.6537  1.4434
 6325TIP3    H240535   2.383   4.714   1.709  0.1066 -1.5313 -1.8005
 6326TIP3   OH240536   4.831   0.310   7.427 -0.4288  0.5615  0.6480
 6326TIP3    H140537   4.739   0.286   7.412  0.0779 -1.1763  0.0255
 6326TIP3    H240538   4.857   0.256   7.502  0.5058 -0.2235 -0.2056
 6327TIP3   OH240539   2.416   4.400   3.227  0.3919  0.1224 -0.2385
 6327TIP3    H140540   2.424   4.305   3.237 -0.2149  0.1971  1.2783
 6327TIP3    H240541   2.322   4.414   3.215  0.3662  0.5785  0.4431
 6328TIP3   OH240542   0.688   0.006   0.189 -0.2159 -0.3730  0.3648
 6328TIP3    H140543   0.731   0.041   0.267 -1.8023  1.2774  0.5679
 6328TIP3    H240544   0.739   0.040   0.115  1.0999 -1.6791  0.6291
 6329TIP3   OH240545   0.844   5.102   8.062  0.4123 -0.5891  0.5256
 6329TIP3    H140546   0.791   5.023   8.074  0.8575 -0.9329  0.2466
 6329TIP3    H240547   0.930   5.070   8.038  0.4116 -0.0000 -0.3112
 6330TIP3   OH240548   6.675   3.613   1.426  0.0848 -0.2160 -0.1239
 6330TIP3    H140549   6.593   3.584   1.466 -0.2471  0.6178 -0.1715
 6330TIP3    H240550   6.720   3.532   1.400 -2.6707 -0.7112 -4.1022
 6331TIP3   OH240551   4.500   2.732   0.043  0.3869 -0.1558 -0.1942
 6331TIP3    H140552   4.487   2.809  -0.012 -1.1555 -1.3938 -1.6742
 6331TIP3    H240553   4.443   2.747   0.119  2.8165  1.7357  1.4338
 6332TIP3   OH240554   0.832   4.274   2.923  0.1780  0.3401  0.0004
 6332TIP3    H140555   0.847   4.196   2.977 -1.8100  0.0064  0.1312
 6332TIP3    H240556   0.767   4.325   2.971  1.3324  2.0463 -0.1560
 6333TIP3   OH240557   6.645   6.273   2.100 -0.0155 -0.2460 -0.0318
 6333TIP3    H140558   6.709   6.208   2.129 -0.9758 -2.4991 -2.6244
 6333TIP3    H240559   6.690   6.323   2.032 -0.7050 -1.4113 -1.4019
 6334TIP3   OH240560   3.834   3.619   7.532  0.3853  0.2502  0.3797
 6334TIP3    H140561   3.926   3.621   7.505 -0.6462  2.5829 -3.7893
 6334TIP3    H240562   3.807   3.711   7.536 -1.7102 -0.3321  2.0876
 6335TIP3   OH240563   5.361   1.126   7.733 -0.6421  0.4801 -0.9583
 6335TIP3    H140564   5.269   1.108   7.755 -0.5891  1.2737 -0.0333
 6335TIP3    H240565   5.355   1.184   7.656 -0.8083 -3.1330 -3.9225
 6336TIP3   OH240566   0.027   6.664   8.426 -0.2222  0.6397 -0.0631
 6336TIP3    H140567   0.037   6.713   8.345  0.2773  1.4400  0.4670
 6336TIP3    H240568  -0.065   6.676   8.451  0.0786  2.0363  0.4907
 6337TIP3   OH240569   2.463   1.642   1.817 -0.3669  0.2665  0.5132
 6337TIP3    H140570   2.536   1.579   1.819  0.5019  1.2497  0.4209
 6337TIP3    H240571   2.391   1.592   1.780  0.8392 -0.1667 -1.4092
 6338TIP3   OH240572   1.049   2.730   7.965  0.0841  0.0834 -0.3647
 6338TIP3    H140573   1.013   2.690   7.886 -1.2184  0.9991 -0.2606
 6338TIP3    H240574   1.109   2.797   7.932 -0.1735  0.2137 -0.5695
 6339TIP3   OH240575   3.480   4.144   1.353  0.0495 -0.5519  0.0661
 6339TIP3    H140576   3.478   4.235   1.322 -0.6583 -0.3773  0.5869
 6339TIP3    H240577   3.426   4.096   1.290 -0.0569 -0.5003  0.1173
 6340TIP3   OH240578   3.551   2.155   8.378  0.0578  0.2840  0.3082
 6340TIP3    H140579   3.613   2.100   8.425  1.7799  1.0096 -1.0183
 6340TIP3    H240580   3.520   2.101   8.305 -0.5814  0.0695  0.7262
 6341TIP3   OH240581   2.611   4.513   3.059 -0.5505 -0.7819  0.2626
 6341TIP3    H140582   2.559   4.468   3.126  1.2519 -1.1982  1.4439
 6341TIP3    H240583   2.678   4.560   3.108  1.7722 -2.3128 -1.2975
 6342TIP3   OH240584   4.641   3.981   1.053  0.2871  0.0697  0.1538
 6342TIP3    H140585   4.687   4.059   1.084  1.3763  0.5935 -2.5201
 6342TIP3    H240586   4.561   4.014   1.013 -0.2049 -0.4096  0.7153
 6343TIP3   OH240587   0.259   0.088   1.781  0.1219 -0.1861 -0.2697
 6343TIP3    H140588   0.328   0.022   1.779  0.6509  0.3603 -0.3525
 6343TIP3    H240589   0.306   0.172   1.779 -0.5043  0.2004  0.7659
 6344TIP3   OH240590   4.266   1.298   0.791  0.0980 -0.1516  0.0584
 6344TIP3    H140591   4.245   1.232   0.724  2.3094  0.6763 -1.5740
 6344TIP3    H240592   4.190   1.356   0.791 -0.6276 -1.0688 -0.5979
 6345TIP3   OH240593   2.472   1.164   1.800 -0.0971 -0.3275  0.0617
 6345TIP3    H140594   2.394   1.113   1.821 -0.7203  0.1281 -1.0413
 6345TIP3    H240595   2.489   1.145   1.707  0.5124  0.3445  0.0252
 6346TIP3   OH240596   5.691   4.503   1.839  0.0011 -0.3781  0.4923
 6346TIP3    H140597   5.622   4.517   1.773 -0.2608 -1.8805  0.4254
 6346TIP3    H240598   5.772   4.524   1.793 -0.2913  0.0301  0.1438
 6347TIP3   OH240599   0.141   3.963   7.340 -0.2983 -0.2476  0.2753
 6347TIP3    H140600   0.171   3.876   7.365 -0.6915 -0.5475 -0.2642
 6347TIP3    H240601   0.130   3.958   7.245 -2.8111 -0.4143  0.4995
 6348TIP3   OH240602   6.000   1.248   7.892  0.3242 -0.4587 -0.0923
 6348TIP3    H140603   5.923   1.276   7.941  0.3751 -0.1609 -0.1783
 6348TIP3    H240604   5.970   1.241   7.802  0.1879 -1.1718 -0.0010
 6349TIP3   OH240605   1.266   4.479   2.135  0.6646 -0.4447 -0.6549
 6349TIP3    H140606   1.357   4.509   2.130  0.2378  1.1232  0.3260
 6349TIP3    H240607   1.223   4.542   2.192 -0.6863 -2.0830  0.2101
 6350TIP3   OH240608   1.320   0.060   2.790  0.3674 -0.4789 -0.2158
 6350TIP3    H140609   1.289  -0.008   2.850  0.0290 -0.7637 -0.7114
 6350TIP3    H240610   1.299   0.142   2.835 -0.1443 -0.6855 -0.0715
 6351TIP3   OH240611   3.655   4.733   1.806  0.5155 -0.0976  0.3885
 6351TIP3    H140612   3.623   4.817   1.840  0.7131  0.0745  0.1540
 6351TIP3    H240613   3.584   4.671   1.825  0.1213  0.2409  0.0468
 6352TIP3   OH240614   0.712   2.258   2.359 -0.4254 -0.1519  0.6077
 6352TIP3    H140615   0.765   2.308   2.297 -0.1907 -0.9799  0.1319
 6352TIP3    H240616   0.722   2.305   2.442 -0.4199  0.7422  0.1213
 6353TIP3   OH240617   4.689   3.869   2.384 -0.3412  0.2400  0.3992
 6353TIP3    H140618   4.619   3.910   2.435 -0.3859  1.3146 -0.4909
 6353TIP3    H240619   4.644   3.805   2.329 -0.5338  0.4232  0.3434
 6354TIP3   OH240620   5.808   5.845   0.089  0.4081 -0.1807 -0.4358
 6354TIP3    H140621   5.811   5.932   0.048 -2.0155  0.6008  0.8299
 6354TIP3    H240622   5.754   5.793   0.029 -0.4145  0.0086  0.1286
 6355TIP3   OH240623   3.617   0.896   8.732  0.4369 -0.1147  0.3264
 6355TIP3    H140624   3.544   0.895   8.669  0.6177  0.6662  0.1011
 6355TIP3    H240625   3.628   0.804   8.757  1.2119 -0.6464 -1.7730
 6356TIP3   OH240626   5.381   4.925   1.446 -0.4265  0.7698 -0.2048
 6356TIP3    H140627   5.464   4.946   1.404  0.2951 -0.2546  0.6389
 6356TIP3    H240628   5.399   4.933   1.540 -1.0208 -0.3044  0.0248
 6357TIP3   OH240629   1.381   3.152   1.643  0.5801  0.1052  0.4165
 6357TIP3    H140630   1.412   3.143   1.734  0.6255  0.7474  0.4673
 6357TIP3    H240631   1.320   3.079   1.632  0.7746 -0.1358  0.8796
 6358TIP3   OH240632   5.923   1.039   7.381 -0.4501  0.5421 -0.0214
 6358TIP3    H140633   6.008   0.997   7.373 -0.8145  0.0021 -1.3892
 6358TIP3    H240634   5.870   0.977   7.432 -0.4735  0.1297 -0.5355
 6359TIP3   OH240635   3.323   1.612   1.087 -0.2275 -0.1170 -0.1181
 6359TIP3    H140636   3.307   1.633   1.179 -0.7642  0.6494 -0.3706
 6359TIP3    H240637   3.379   1.535   1.089 -0.8134 -0.5391  0.8502
 6360TIP3   OH240638   2.342   2.937   1.529  0.3714  0.5917 -0.5548
 6360TIP3    H140639   2.274   2.986   1.575 -0.5408  0.7184 -1.9891
 6360TIP3    H240640   2.309   2.848   1.524  1.3123  0.1450  0.6298
 6361TIP3   OH240641   5.525   1.671   8.719  0.3559  0.4479 -0.7221
 6361TIP3    H140642   5.453   1.689   8.659 -2.1507 -0.4078  1.7513
 6361TIP3    H240643   5.530   1.749   8.775 -0.6934 -0.5802  0.9044
 6362TIP3   OH240644   1.516   3.326   0.397 -0.4571  0.0766  0.4803
 6362TIP3    H140645   1.500   3.383   0.323 -1.3067  0.1660  0.7269
 6362TIP3    H240646   1.611   3.331   0.411 -0.5354  1.5248  0.5857
 6363TIP3   OH240647   3.886   0.674   0.823  0.2366  0.3782 -0.2563
 6363TIP3    H140648   3.953   0.606   0.832 -0.2226  0.0522  1.0974
 6363TIP3    H240649   3.912   0.741   0.886 -0.9116  0.0368  0.6297
 6364TIP3   OH240650   1.142   3.670   0.229  0.0625 -0.0681  0.6594
 6364TIP3    H140651   1.083   3.742   0.252  0.0788 -0.3032  1.4883
 6364TIP3    H240652   1.097   3.591   0.262  1.8698 -0.0451  3.5052
 6365TIP3   OH240653   5.300   6.343   8.046 -0.2129  0.2202 -0.1795
 6365TIP3    H140654   5.378   6.331   8.101 -0.2613  1.6258  0.2268
 6365TIP3    H240655   5.281   6.255   8.012 -1.9971 -1.4452  4.3795
 6366TIP3   OH240656   1.532   4.992   3.144 -0.2600  0.1346 -0.0863
 6366TIP3    H140657   1.552   4.905   3.109 -0.3279 -0.0479  0.3119
 6366TIP3    H240658   1.437   5.000   3.135 -0.0714  0.9039 -1.7610
 6367TIP3   OH240659   6.736   3.030   7.070  0.5624 -0.1255  0.3324
 6367TIP3    H140660   6.645   2.998   7.069  0.3510  0.4364  0.6943
 6367TIP3    H240661   6.732   3.110   7.123  0.9253  0.9402 -1.1985
 6368TIP3   OH240662   0.969   1.102   0.653  0.4130 -0.1596 -0.1999
 6368TIP3    H140663   1.011   1.077   0.735  0.6443 -0.1965 -0.3301
 6368TIP3    H240664   0.980   1.197   0.648 -1.7334  0.2286  1.0168
 6369TIP3   OH240665   5.084   6.591   8.358  0.3181  0.5246 -1.3912
 6369TIP3    H140666   5.086   6.619   8.267 -0.1840  1.0825 -1.2332
 6369TIP3    H240667   5.165   6.541   8.369  0.9691  1.4435 -1.8339
 6370TIP3   OH240668   0.466   4.148   1.430  0.7463  0.0674  0.4353
 6370TIP3    H140669   0.536   4.126   1.369 -0.2604 -0.2964 -0.6345
 6370TIP3    H240670   0.413   4.068   1.436  0.1122  0.4991  0.7903
 6371TIP3   OH240671   0.408   0.388   1.046  0.0586 -0.1091  0.0541
 6371TIP3    H140672   0.358   0.385   1.128  0.9011  1.4349  0.6697
 6371TIP3    H240673   0.342   0.401   0.978 -0.6959 -1.8608  0.3987
 6372TIP3   OH240674   2.898   0.227   8.492  0.0016  0.1042  0.0438
 6372TIP3    H140675   2.951   0.281   8.550 -1.2309  0.7245  0.6515
 6372TIP3    H240676   2.808   0.242   8.522 -0.6154 -0.0730 -1.6088
 6373TIP3   OH240677   0.459   3.927   1.713 -0.2064  0.5710  0.1630
 6373TIP3    H140678   0.408   3.925   1.633  1.7129  0.1438 -1.1175
 6373TIP3    H240679   0.481   3.835   1.730  1.2630  0.8373 -0.1261
 6374TIP3   OH240680   1.556   4.225   2.641 -0.6755  0.1214  0.4852
 6374TIP3    H140681   1.476   4.212   2.590 -1.4840 -0.5321  1.8721
 6374TIP3    H240682   1.603   4.142   2.634  0.6370  0.9601 -1.5087
 6375TIP3   OH240683   4.893   5.478   8.133 -0.4223 -0.4379 -0.3717
 6375TIP3    H140684   4.806   5.486   8.096 -0.8007  0.9990  0.7411
 6375TIP3    H240685   4.896   5.544   8.202  1.0130 -1.5013  0.6431
 6376TIP3   OH240686   2.779   4.877   8.315 -0.0974  0.2062 -0.2083
 6376TIP3    H140687   2.834   4.948   8.350  0.1915  0.6331 -1.4697
 6376TIP3    H240688   2.814   4.861   8.227 -0.6774 -0.9584 -0.2386
 6377TIP3   OH240689   6.365   4.387   2.285  0.7627  0.0580  0.3278
 6377TIP3    H140690   6.379   4.329   2.211 -1.5188  0.7009 -0.7144
 6377TIP3    H240691   6.382   4.333   2.362  3.6556 -0.4888 -0.5752
 6378TIP3   OH240692   3.166   1.114   1.164  0.1141  0.1591  0.0600
 6378TIP3    H140693   3.155   1.134   1.257  0.7449  2.6631 -0.3148
 6378TIP3    H240694   3.249   1.067   1.158 -0.9920 -2.0408  0.9304
 6379TIP3   OH240695   1.503   4.768   1.360 -0.4096  0.0913  0.0527
 6379TIP3    H140696   1.456   4.839   1.404 -1.1805 -1.2677  1.5329
 6379TIP3    H240697   1.464   4.688   1.395  2.2969 -1.1320  0.5676
 6380TIP3   OH240698   3.778   1.258   8.044 -0.2538 -0.4155  0.3564
 6380TIP3    H140699   3.869   1.238   8.067  0.6091  1.7350 -0.9063
 6380TIP3    H240700   3.751   1.184   7.989  1.4291 -0.1665 -0.8996
 6381TIP3   OH240701   5.977   5.561   7.371  0.1793  0.0522  0.6010
 6381TIP3    H140702   5.962   5.467   7.383 -0.8581 -0.1629 -1.8397
 6381TIP3    H240703   6.061   5.565   7.324 -1.0896  0.0590 -1.8635
 6382TIP3   OH240704   1.900   6.538   8.296 -0.2209 -0.3501 -0.5484
 6382TIP3    H140705   1.808   6.541   8.270 -0.2890  1.2170 -0.2535
 6382TIP3    H240706   1.899   6.559   8.390  0.3567 -1.4355 -0.2884
 6383TIP3   OH240707   4.337   3.458   1.007  0.4064  0.6784 -0.2708
 6383TIP3    H140708   4.364   3.517   1.078  0.4105 -0.6692  0.9037
 6383TIP3    H240709   4.361   3.371   1.039 -0.7039 -0.0734 -1.4195
 6384TIP3   OH240710   5.087   4.780   8.194  0.1091  0.5818 -0.0670
 6384TIP3    H140711   5.028   4.708   8.171 -0.4464  1.2400 -0.7962
 6384TIP3    H240712   5.159   4.739   8.241 -0.8534 -0.2705  0.7154
 6385TIP3   OH240713   5.155   3.992   1.185 -0.2680 -0.0611  0.2122
 6385TIP3    H140714   5.225   4.040   1.139  0.0567 -2.1130 -1.5829
 6385TIP3    H240715   5.094   3.967   1.115  0.1497 -3.1704  0.8300
 6386TIP3   OH240716   5.756   0.957   2.912 -0.1003 -0.0733  0.0792
 6386TIP3    H140717   5.716   0.878   2.876 -1.0000  0.3525  0.1200
 6386TIP3    H240718   5.688   0.995   2.968  0.2758  0.8046 -0.0512
 6387TIP3   OH240719   4.924   1.913   8.530  0.0326 -0.7004 -0.2379
 6387TIP3    H140720   4.901   1.955   8.612 -0.7476  1.5460 -1.5127
 6387TIP3    H240721   4.860   1.947   8.467  1.1218 -1.6618 -1.9356
 6388TIP3   OH240722   1.648   4.394   2.014 -0.7354  0.0493 -0.0155
 6388TIP3    H140723   1.681   4.472   1.969 -4.1466  0.7487 -1.5850
 6388TIP3    H240724   1.695   4.321   1.972  2.6875  1.0733  1.6394
 6389TIP3   OH240725   6.358   4.076   3.054  0.2783  0.0188  0.2896
 6389TIP3    H140726   6.390   4.159   3.088 -1.3779  2.4072 -3.3686
 6389TIP3    H240727   6.421   4.051   2.986 -1.2654  0.5060 -1.3976
 6390TIP3   OH240728   1.405   1.568   1.987  0.8198  0.3025 -0.6508
 6390TIP3    H140729   1.465   1.505   2.026  0.4074  0.7229  0.7310
 6390TIP3    H240730   1.457   1.648   1.979  0.6613  0.4592 -0.1420
 6391TIP3   OH240731   4.005   3.689   1.361 -1.1317  0.2406  0.3405
 6391TIP3    H140732   3.912   3.706   1.378 -1.3063  0.0752 -0.3917
 6391TIP3    H240733   4.004   3.614   1.302 -0.6609  1.9937 -2.0358
 6392TIP3   OH240734   3.933   4.896   7.001  0.3765  0.5187 -0.3836
 6392TIP3    H140735   4.005   4.948   7.035 -0.4485  0.6248  1.3069
 6392TIP3    H240736   3.869   4.961   6.972  0.2375  0.4451 -0.2450
 6393TIP3   OH240737   1.806   0.156   2.418 -0.1109  0.0328  0.4695
 6393TIP3    H140738   1.738   0.212   2.455 -0.2190 -0.6698  1.3643
 6393TIP3    H240739   1.825   0.195   2.333 -1.6236  0.2771  0.2012
 6394TIP3   OH240740   6.159   1.888   0.832  0.2297 -0.4868 -0.3324
 6394TIP3    H140741   6.108   1.964   0.862  1.1076  0.0318 -0.1062
 6394TIP3    H240742   6.166   1.832   0.909  2.2375  0.7081  0.4457
 6395TIP3   OH240743   4.734   5.768   2.481 -0.1602 -0.3826 -0.0363
 6395TIP3    H140744   4.726   5.672   2.476  0.3506 -0.5126  1.2239
 6395TIP3    H240745   4.673   5.793   2.551 -3.0250  0.6651 -2.6633
 6396TIP3   OH240746   5.670   2.723   8.610  0.2711 -0.1129 -0.2507
 6396TIP3    H140747   5.688   2.711   8.703 -0.1702 -2.2122 -0.3844
 6396TIP3    H240748   5.607   2.795   8.606 -0.0537 -0.3008  1.1346
 6397TIP3   OH240749   2.700   1.445   0.938  0.4278  0.1679  0.7512
 6397TIP3    H140750   2.760   1.498   0.990 -0.9955  1.4378  1.1749
 6397TIP3    H240751   2.723   1.355   0.958  3.3431  0.5398 -0.4547
 6398TIP3   OH240752   4.703   0.884   2.299  0.1791  0.1463 -0.0506
 6398TIP3    H140753   4.756   0.930   2.234  0.7544 -1.2665 -0.6244
 6398TIP3    H240754   4.613   0.897   2.269  0.3193  1.0203 -0.1091
 6399TIP3   OH240755   2.103   5.930   1.444  0.0078 -0.3638 -0.0556
 6399TIP3    H140756   2.081   5.890   1.527 -0.4590  0.6438  0.3263
 6399TIP3    H240757   2.029   5.989   1.425  0.8515  0.6277 -0.3705
 6400TIP3   OH240758   3.544   2.262   0.149  0.5434  0.3529  0.1095
 6400TIP3    H140759   3.517   2.200   0.217  1.7534  1.0789  1.3222
 6400TIP3    H240760   3.546   2.347   0.194 -2.4533  1.6172 -1.8497
 6401TIP3   OH240761   5.397   5.640   0.747  0.6213 -0.1928 -0.4898
 6401TIP3    H140762   5.343   5.708   0.706  0.4472 -0.5891 -0.9267
 6401TIP3    H240763   5.483   5.680   0.757  0.1001  0.6892  0.8327
 6402TIP3   OH240764   0.222   6.777   0.110  0.1429 -0.3542 -0.0945
 6402TIP3    H140765   0.198   6.763   0.019  0.7708 -2.3361  0.0070
 6402TIP3    H240766   0.317   6.779   0.111  0.1995 -1.8336  0.6681
 6403TIP3   OH240767   4.088   2.158   0.403 -0.0884 -0.0747  0.1117
 6403TIP3    H140768   4.076   2.064   0.389  0.5701 -0.1354 -0.0835
 6403TIP3    H240769   4.123   2.166   0.491  0.2614 -0.0439 -0.0297
 6404TIP3   OH240770   2.483   1.082   1.545  1.1098 -0.3147 -0.2688
 6404TIP3    H140771   2.442   1.123   1.469  4.1849 -1.1693 -2.6159
 6404TIP3    H240772   2.490   0.989   1.521  2.4618 -0.5492  0.8810
 6405TIP3   OH240773   6.691   2.428   1.507  0.5329 -0.9511 -0.0847
 6405TIP3    H140774   6.765   2.382   1.469 -0.6310 -2.5739 -0.5069
 6405TIP3    H240775   6.628   2.359   1.528 -0.8722  0.3669  0.2331
 6406TIP3   OH240776   0.722   3.833   0.904  0.6860  0.0576 -0.3285
 6406TIP3    H140777   0.799   3.858   0.954 -0.5519  1.4940  0.9853
 6406TIP3    H240778   0.665   3.790   0.968  0.0280 -0.1974 -1.0688
 6407TIP3   OH240779   6.212   3.970   0.284  0.0245 -0.4652 -0.2169
 6407TIP3    H140780   6.130   3.994   0.242  0.2359 -1.4712 -1.2666
 6407TIP3    H240781   6.241   4.049   0.329 -1.1015  0.1309 -0.5153
 6408TIP3   OH240782   4.961   5.654   7.602 -0.0972  0.3047 -0.2390
 6408TIP3    H140783   5.017   5.577   7.599  0.3481  0.6548 -1.4746
 6408TIP3    H240784   4.981   5.702   7.522 -2.3137  0.3341 -0.8618
 6409TIP3   OH240785   3.396   0.891   2.376  0.3445  0.1393  0.1417
 6409TIP3    H140786   3.443   0.853   2.302 -2.7268 -1.9325 -0.9315
 6409TIP3    H240787   3.410   0.828   2.447  1.9189  1.2878  0.9102
 6410TIP3   OH240788   6.800   6.527   7.594 -0.2760 -0.1942  0.5790
 6410TIP3    H140789   6.814   6.601   7.653  0.5033 -1.1545  1.6286
 6410TIP3    H240790   6.731   6.476   7.636 -1.0020  0.0548 -0.2781
 6411TIP3   OH240791   0.030   5.576   0.328  0.2002 -0.2820 -0.0879
 6411TIP3    H140792  -0.013   5.601   0.410 -0.4913  0.1507 -0.5655
 6411TIP3    H240793   0.113   5.538   0.355  0.8632  1.6346  0.7401
 6412TIP3   OH240794   1.827   2.241   2.023 -0.1844 -0.2677 -0.6267
 6412TIP3    H140795   1.816   2.312   1.961  1.4484 -0.4833 -1.2243
 6412TIP3    H240796   1.867   2.171   1.972  3.2449  0.2809  1.0032
 6413TIP3   OH240797   5.246   1.832   2.627  0.4839 -0.3205 -0.0812
 6413TIP3    H140798   5.320   1.844   2.686  0.1800  0.4897  0.1578
 6413TIP3    H240799   5.193   1.911   2.640 -0.3612 -0.8346 -0.3256
 6414TIP3   OH240800   1.380   4.660   8.472  0.5403 -0.1764  0.1106
 6414TIP3    H140801   1.441   4.587   8.483  1.2261  0.5242  1.1107
 6414TIP3    H240802   1.295   4.625   8.499  0.7886 -0.7195  0.1925
 6415TIP3   OH240803   0.794   5.827   8.525 -0.7437  0.3376  0.2043
 6415TIP3    H140804   0.859   5.890   8.557  0.6719 -0.8282 -0.2906
 6415TIP3    H240805   0.744   5.876   8.459  0.4514  0.9192 -0.3021
 6416TIP3   OH240806   4.052   1.259   8.043  0.1936  0.2161 -0.1140
 6416TIP3    H140807   4.115   1.202   8.087  0.1724  0.0908 -0.2447
 6416TIP3    H240808   4.050   1.226   7.953  0.7034  0.8565 -0.3680
 6417TIP3   OH240809   5.280   4.406   2.197  0.0149 -0.0856  0.5257
 6417TIP3    H140810   5.290   4.342   2.268 -0.1534 -0.0657  0.5691
 6417TIP3    H240811   5.367   4.444   2.186  0.6629 -1.8501 -0.9477
 6418TIP3   OH240812   5.718   5.018   1.917  0.0492 -0.3525  0.1853
 6418TIP3    H140813   5.809   4.991   1.901  0.3674  0.5466  0.4292
 6418TIP3    H240814   5.694   4.974   1.998  0.8428  0.6956  1.0275
 6419TIP3   OH240815   1.270   2.961   8.120  0.0585  0.5520 -0.1728
 6419TIP3    H140816   1.292   3.007   8.201 -0.2221  0.7664 -0.2189
 6419TIP3    H240817   1.210   2.892   8.147  1.7603 -0.8822  0.1619
 6420TIP3   OH240818   5.572   1.630   2.478 -0.2646  0.3029  0.1172
 6420TIP3    H140819   5.556   1.709   2.426  1.3994  1.1062  0.7344
 6420TIP3    H240820   5.485   1.595   2.497 -0.9667  0.9945 -1.6518
 6421TIP3   OH240821   3.240   6.070   2.473 -0.1002  0.0707  0.0236
 6421TIP3    H140822   3.282   6.110   2.397 -0.5522 -0.6939 -0.6415
 6421TIP3    H240823   3.203   6.144   2.521  1.6061  0.7313  0.4134
 6422TIP3   OH240824   0.315   3.077   7.698 -0.9811  0.4452 -0.2120
 6422TIP3    H140825   0.228   3.068   7.660  0.0961  0.0485 -2.7510
 6422TIP3    H240826   0.346   3.162   7.667 -0.9050  1.1922  1.7595
 6423TIP3   OH240827   0.346   3.913   1.463  0.4984  0.1776 -0.9621
 6423TIP3    H140828   0.342   3.847   1.394 -2.0036 -1.5059  0.6304
 6423TIP3    H240829   0.257   3.918   1.497  1.2485  2.2510  0.9958
 6424TIP3   OH240830   1.086   0.123   0.536 -0.0953 -0.1249  0.3207
 6424TIP3    H140831   1.080   0.133   0.631 -0.2957 -1.1678  0.4226
 6424TIP3    H240832   1.175   0.091   0.521  0.5404  1.6636 -0.0065
 6425TIP3   OH240833   6.644   6.811   8.753 -0.3727 -1.1133 -0.4686
 6425TIP3    H140834   6.615   6.720   8.752  1.1331 -1.6370  0.0456
 6425TIP3    H240835   6.591   6.853   8.821 -0.2025 -1.9499  0.2079
 6426TIP3   OH240836   3.624   2.313   2.440 -0.0657  0.0738 -0.2381
 6426TIP3    H140837   3.584   2.363   2.511  1.3573 -1.8741  2.0624
 6426TIP3    H240838   3.569   2.235   2.432  1.2404 -0.9753  0.6034
 6427TIP3   OH240839   4.719   1.433   7.917 -0.0298  0.5948  0.0416
 6427TIP3    H140840   4.732   1.375   7.842  0.2326  1.2071 -0.3991
 6427TIP3    H240841   4.806   1.444   7.955  0.0904  1.4705 -0.4659
 6428TIP3   OH240842   5.120   0.268   8.354 -0.5705  0.3138  0.4284
 6428TIP3    H140843   5.204   0.256   8.398 -0.7279  1.9560  1.2573
 6428TIP3    H240844   5.063   0.307   8.420 -1.5666  0.5477 -0.5336
 6429TIP3   OH240845   3.890   5.464   2.720  0.1151  0.1360 -0.2119
 6429TIP3    H140846   3.804   5.437   2.753  0.7358 -0.7742  0.6881
 6429TIP3    H240847   3.930   5.384   2.688  0.8908  0.4460 -0.0337
 6430TIP3   OH240848   3.631   1.439   2.093 -0.1459  0.4388 -0.3787
 6430TIP3    H140849   3.643   1.350   2.059 -0.0356  0.4172 -0.2856
 6430TIP3    H240850   3.550   1.434   2.144  0.1365  0.2563  0.0659
 6431TIP3   OH240851   0.716   6.695   8.035 -0.0078 -0.1627  1.0339
 6431TIP3    H140852   0.664   6.743   8.099  0.3979  1.4537  0.2162
 6431TIP3    H240853   0.795   6.748   8.025  1.7334 -2.4042  2.0560
 6432TIP3   OH240854   1.905   5.614   0.093  0.2891 -0.5612 -0.1271
 6432TIP3    H140855   1.909   5.699   0.049 -0.6642  0.3694  1.4676
 6432TIP3    H240856   1.915   5.635   0.186  1.4028 -2.3564  0.2034
 6433TIP3   OH240857   0.782   0.841   0.947  0.3423  0.4273 -0.4342
 6433TIP3    H140858   0.739   0.902   0.888  0.4197  0.6302 -0.2830
 6433TIP3    H240859   0.714   0.815   1.010  0.3939  0.6214 -0.2945
 6434TIP3   OH240860   0.568   0.450   7.442 -0.3471  0.3148 -0.2800
 6434TIP3    H140861   0.615   0.487   7.367 -1.2219 -1.0922 -1.5742
 6434TIP3    H240862   0.496   0.511   7.457  0.4477  1.1766  0.1425
 6435TIP3   OH240863   5.113   6.498   1.471  0.3519 -0.1400  0.0798
 6435TIP3    H140864   5.021   6.474   1.472  0.1134  0.7384 -0.0919
 6435TIP3    H240865   5.116   6.584   1.515  1.3312 -0.9958  1.8098
 6436TIP3   OH240866   5.474   3.444   7.963 -0.2808  0.9417 -0.4445
 6436TIP3    H140867   5.448   3.402   7.881  1.8669  2.0884 -1.8078
 6436TIP3    H240868   5.457   3.537   7.948  3.4117  1.6466 -1.0848
 6437TIP3   OH240869   5.041   6.099   7.334 -0.5160  0.6615  0.2981
 6437TIP3    H140870   5.026   6.068   7.424 -1.3371 -0.5371 -0.2232
 6437TIP3    H240871   5.123   6.057   7.307 -1.8705 -1.5753 -0.5754
 6438TIP3   OH240872   3.770   2.989   2.346 -0.4709 -0.0037 -0.6579
 6438TIP3    H140873   3.713   3.045   2.398  1.7750  0.1954  1.8346
 6438TIP3    H240874   3.765   2.903   2.388  1.0531  0.0476 -0.2802
 6439TIP3   OH240875   3.980   2.706   8.644  0.0805  0.0790  0.2412
 6439TIP3    H140876   3.999   2.775   8.581 -3.0441  0.1205 -0.8052
 6439TIP3    H240877   4.012   2.740   8.728  3.5158  0.4002 -1.0468
 6440TIP3   OH240878   4.717   4.791   7.003 -0.5261 -0.1121 -0.1785
 6440TIP3    H140879   4.698   4.828   6.917  3.1539  1.7880 -0.4006
 6440TIP3    H240880   4.670   4.848   7.065  0.3301  1.3431 -0.8081
 6441TIP3   OH240881   3.782   3.381   8.024 -0.3815  0.0834  0.3296
 6441TIP3    H140882   3.869   3.405   8.057 -0.6611  1.6517  0.0380
 6441TIP3    H240883   3.765   3.445   7.954 -1.3387 -0.8514 -0.3217
 6442TIP3   OH240884   3.752   3.356   8.528  0.2541 -0.0722 -0.1850
 6442TIP3    H140885   3.663   3.385   8.509 -0.0604 -0.8097  0.1031
 6442TIP3    H240886   3.741   3.286   8.592  1.1341  0.7515  0.8991
 6443TIP3   OH240887   6.658   4.610   0.310 -0.2062 -0.2300 -0.4168
 6443TIP3    H140888   6.666   4.516   0.327  0.5748  0.0181  0.7570
 6443TIP3    H240889   6.740   4.647   0.345 -0.4433  0.8682 -0.9869
 6444TIP3   OH240890   0.056   4.379   2.555 -0.3768  0.0956  0.1426
 6444TIP3    H140891   0.127   4.436   2.588  0.2040  0.5708 -1.7830
 6444TIP3    H240892   0.090   4.290   2.564 -0.3799  0.1849  1.1154
 6445TIP3   OH240893   4.568   6.278   1.035 -0.1172  0.1499 -0.3262
 6445TIP3    H140894   4.545   6.194   0.994 -0.9165  0.8684 -1.4138
 6445TIP3    H240895   4.484   6.312   1.067 -0.0218  1.1133 -1.0495
 6446TIP3   OH240896   0.400   1.145   8.163  0.1161  0.3390 -0.0746
 6446TIP3    H140897   0.459   1.069   8.166  0.7878  0.8552 -0.1042
 6446TIP3    H240898   0.330   1.118   8.104  1.0347  0.2102 -1.1433
 6447TIP3   OH240899   2.158   3.055   0.546 -0.8029  0.8101  0.6447
 6447TIP3    H140900   2.092   3.106   0.593 -1.2519 -0.7275  1.7813
 6447TIP3    H240901   2.167   2.975   0.597 -0.8330 -0.6936 -1.5710
 6448TIP3   OH240902   5.145   5.105   0.311 -0.0529  0.0403 -0.2104
 6448TIP3    H140903   5.057   5.098   0.274  1.2042  0.7915 -3.7342
 6448TIP3    H240904   5.174   5.193   0.288  2.0540 -0.5942 -0.1872
 6449TIP3   OH240905   6.499   0.525   0.466  0.6686 -0.2218 -0.4340
 6449TIP3    H140906   6.581   0.527   0.417  0.1543 -0.7258 -1.3561
 6449TIP3    H240907   6.432   0.545   0.400 -0.1177 -1.5508 -0.0812
 6450TIP3   OH240908   4.831   4.503   1.979  0.4362 -0.1348  0.1088
 6450TIP3    H140909   4.874   4.553   1.910  1.1692  0.7684  1.1903
 6450TIP3    H240910   4.883   4.521   2.058 -0.9180 -0.3939  1.0959
 6451TIP3   OH240911   3.690   3.299   2.763  0.6727  0.2953  0.4543
 6451TIP3    H140912   3.694   3.291   2.858  0.0539 -2.0461  0.3640
 6451TIP3    H240913   3.604   3.337   2.745 -0.7166 -2.4030  0.8207
 6452TIP3   OH240914   0.081   3.181   1.192  0.3356  0.4269 -0.5549
 6452TIP3    H140915   0.027   3.129   1.133  2.9667 -2.5766 -0.5383
 6452TIP3    H240916   0.018   3.223   1.251 -2.0952 -0.2594 -2.4908
 6453TIP3   OH240917   4.891   6.669   1.718 -0.1965 -0.0746  0.0318
 6453TIP3    H140918   4.981   6.669   1.687 -0.2343 -1.2940 -0.1597
 6453TIP3    H240919   4.841   6.631   1.646 -0.8014  0.2195  0.2894
 6454TIP3   OH240920   0.589   2.369   0.653  0.4057 -0.9301  0.3802
 6454TIP3    H140921   0.668   2.326   0.619 -0.4253 -2.5707  0.4292
 6454TIP3    H240922   0.519   2.305   0.640 -0.7803  0.1682  1.0846
 6455TIP3   OH240923   4.214   6.079   2.578 -0.2042  0.6468  0.1123
 6455TIP3    H140924   4.186   5.992   2.608 -0.3690  0.7691  0.3193
 6455TIP3    H240925   4.262   6.062   2.497  0.9948  0.2121  0.8763
 6456TIP3   OH240926   0.081   5.586   2.647 -0.2567  0.3945  0.4569
 6456TIP3    H140927   0.136   5.640   2.704  0.6665  0.1567 -0.1814
 6456TIP3    H240928   0.002   5.569   2.698  0.0723  1.1232  1.2241
 6457TIP3   OH240929   5.852   3.437   1.371  0.6878 -0.2721 -0.5454
 6457TIP3    H140930   5.940   3.464   1.344  0.9007  0.0092  0.4120
 6457TIP3    H240931   5.846   3.463   1.463 -0.7061  0.5154 -0.8298
 6458TIP3   OH240932   0.176   3.092   8.012  0.5722  0.7870  0.7588
 6458TIP3    H140933   0.140   3.180   8.012  1.5883  1.2444  2.1572
 6458TIP3    H240934   0.120   3.043   8.073 -0.9738 -0.0215 -1.2059
 6459TIP3   OH240935   5.375   2.172   2.393 -0.2578  0.1507  0.0210
 6459TIP3    H140936   5.463   2.151   2.426  0.2987 -0.2688 -1.6426
 6459TIP3    H240937   5.383   2.261   2.360 -1.3109  1.2799  2.6021
 6460TIP3   OH240938   4.776   1.897   1.399 -0.0347  0.2234 -0.1235
 6460TIP3    H140939   4.684   1.895   1.425 -0.1809  2.3641 -0.3162
 6460TIP3    H240940   4.774   1.922   1.307  0.7507  0.6070 -0.0393
 6461TIP3   OH240941   0.890   0.695   3.112  0.1591  0.4671 -0.1593
 6461TIP3    H140942   0.985   0.702   3.126 -0.1037  0.5618  1.7288
 6461TIP3    H240943   0.882   0.670   3.019  1.9742  1.4767 -0.6385
 6462TIP3   OH240944   2.397   6.717   1.737 -0.1658  0.4081  0.1644
 6462TIP3    H140945   2.416   6.671   1.655  0.1603 -0.7829  0.8736
 6462TIP3    H240946   2.481   6.757   1.762  0.6711 -1.9021  1.4879
 6463TIP3   OH240947   5.138   6.444   7.168  0.6263 -0.6497  0.0420
 6463TIP3    H140948   5.080   6.371   7.148  2.1542 -1.6386 -0.9339
 6463TIP3    H240949   5.225   6.405   7.174  1.9140  1.4168 -3.0832
 6464TIP3   OH240950   5.839   0.056   0.432  0.6545  0.3205 -0.0397
 6464TIP3    H140951   5.823   0.002   0.510  0.9049  0.4921  0.1299
 6464TIP3    H240952   5.875   0.138   0.466  0.8332  0.3677 -0.3391
 6465TIP3   OH240953   5.490   6.727   8.595 -0.3207  0.3689  0.3125
 6465TIP3    H140954   5.517   6.684   8.676  0.8927  0.7915  0.1516
 6465TIP3    H240955   5.445   6.659   8.545  1.7618 -0.8347 -0.0493
 6466TIP3   OH240956   0.948   2.995   8.384  0.1440 -0.2553 -0.2013
 6466TIP3    H140957   0.910   2.974   8.299  0.8640 -0.6698 -0.4332
 6466TIP3    H240958   0.902   3.074   8.412 -0.5139 -0.4515 -0.7014
 6467TIP3   OH240959   0.807   5.847   7.659  0.1336  0.0027 -0.1186
 6467TIP3    H140960   0.751   5.924   7.663  0.3098  0.0856  1.6964
 6467TIP3    H240961   0.775   5.798   7.584 -0.9020  1.1419 -0.4580
 6468TIP3   OH240962   0.915   4.497   2.227 -0.2437  0.0537  0.2042
 6468TIP3    H140963   0.821   4.483   2.218 -0.1192 -0.0989 -1.0060
 6468TIP3    H240964   0.947   4.415   2.267 -0.4820 -0.3018 -0.3290
 6469TIP3   OH240965   3.561   4.153   0.501  0.6379 -0.3224  0.4169
 6469TIP3    H140966   3.595   4.236   0.535  1.7284  0.4349 -2.3158
 6469TIP3    H240967   3.629   4.088   0.521  0.1625 -0.4373  1.7869
 6470TIP3   OH240968   4.398   0.222   0.700  0.4215 -0.0900 -0.5954
 6470TIP3    H140969   4.339   0.258   0.634 -0.2144  0.4209  0.2258
 6470TIP3    H240970   4.389   0.127   0.692  1.4784 -0.0920 -2.2265
 6471TIP3   OH240971   6.200   1.737   1.059  0.2055 -0.0291 -0.7101
 6471TIP3    H140972   6.191   1.677   1.133 -0.4256 -1.4060 -1.8552
 6471TIP3    H240973   6.172   1.821   1.093  0.0674 -0.6018  0.6596
 6472TIP3   OH240974   6.091   0.304   8.483  0.2136 -0.3544  0.0638
 6472TIP3    H140975   6.051   0.293   8.396  0.2345  0.9860 -0.1364
 6472TIP3    H240976   6.162   0.240   8.485  0.6519  0.0644 -1.1908
 6473TIP3   OH240977   3.358   3.098   1.675  0.0452  0.1963  0.0581
 6473TIP3    H140978   3.320   3.186   1.674  0.7956  0.5388 -1.0486
 6473TIP3    H240979   3.391   3.085   1.586 -0.6006 -1.4688  0.0191
 6474TIP3   OH240980   4.002   3.200   0.126 -0.0002  0.0002 -0.0117
 6474TIP3    H140981   3.910   3.195   0.099  0.3276  1.2608 -1.5421
 6474TIP3    H240982   4.042   3.121   0.089 -0.0018  0.6506 -1.4666
 6475TIP3   OH240983   6.450   4.024   7.687 -0.2546 -0.0553  0.9804
 6475TIP3    H140984   6.482   4.114   7.695  1.0889 -0.4560  0.4267
 6475TIP3    H240985   6.475   3.998   7.598  1.9675 -1.8980  2.0295
 6476TIP3   OH240986   0.381   4.445   8.677  0.3496  0.0345  0.3225
 6476TIP3    H140987   0.307   4.475   8.731  0.4335  1.6874 -0.4221
 6476TIP3    H240988   0.408   4.522   8.629  0.0668 -1.4287 -2.3742
 6477TIP3   OH240989   4.340   0.753   0.670 -0.5571  0.1406  0.9681
 6477TIP3    H140990   4.254   0.715   0.654 -0.8762  1.8584 -2.2497
 6477TIP3    H240991   4.322   0.843   0.698  0.0745  1.0357 -1.2713
 6478TIP3   OH240992   1.487   0.478   1.321  0.5188  0.9819  0.3555
 6478TIP3    H140993   1.525   0.392   1.338 -0.7142  0.6477  1.4976
 6478TIP3    H240994   1.393   0.465   1.327  0.2939  2.3202  0.0702
 6479TIP3   OH240995   0.533   5.708   3.166  0.1356 -0.4790  0.7936
 6479TIP3    H140996   0.614   5.702   3.116 -0.9615 -1.0982 -0.9637
 6479TIP3    H240997   0.536   5.795   3.206  1.5865 -0.4403  0.6414
 6480TIP3   OH240998   2.474   6.636   1.500  0.0023  0.2822  0.0290
 6480TIP3    H140999   2.566   6.615   1.489  0.2606  1.1733  0.3867
 6480TIP3    H241000   2.429   6.584   1.433  0.9082  0.8692 -1.0795
 6481TIP3   OH241001   5.816   1.746   7.925  0.6646  0.0159  0.7137
 6481TIP3    H141002   5.841   1.807   7.995 -1.3465 -1.6712  3.0970
 6481TIP3    H241003   5.750   1.794   7.875  0.9174  0.6756  0.9897
 6482TIP3   OH241004   1.918   5.625   8.207  0.2719  0.1573  0.6540
 6482TIP3    H141005   2.003   5.643   8.168  0.3380  0.4456  0.9199
 6482TIP3    H241006   1.881   5.712   8.222 -0.6770  0.0383 -0.7599
 6483TIP3   OH241007   2.962   3.521   2.112  0.7538 -0.7260 -0.0007
 6483TIP3    H141008   3.045   3.504   2.066  1.5460  0.1053  1.0786
 6483TIP3    H241009   2.973   3.478   2.197  0.3023 -0.1245  0.3663
 6484TIP3   OH241010   4.767   0.385   2.924  0.1395 -0.1259  0.1213
 6484TIP3    H141011   4.809   0.471   2.917 -2.3062  1.1775  0.3194
 6484TIP3    H241012   4.796   0.352   3.009  0.5059  0.8772  0.4054
 6485TIP3   OH241013   5.140   2.070   0.962 -0.2281 -0.6978 -0.3214
 6485TIP3    H141014   5.125   1.992   0.909  0.9184 -1.5249  0.5224
 6485TIP3    H241015   5.140   2.039   1.053  0.6328  0.1903  0.0124
 6486TIP3   OH241016   3.032   5.251   2.927 -0.2228 -0.1471  0.1023
 6486TIP3    H141017   2.939   5.253   2.951 -0.6626 -3.4196 -0.8000
 6486TIP3    H241018   3.055   5.158   2.927  2.8512  0.4875 -0.6023
 6487TIP3   OH241019   4.190   4.025   0.709  0.5153  0.2191  0.3734
 6487TIP3    H141020   4.206   3.982   0.625 -0.6251 -1.9836  1.2137
 6487TIP3    H241021   4.223   4.114   0.696  1.2307 -0.3107 -2.0858
 6488TIP3   OH241022   6.675   1.041   2.985  0.5349 -0.5076  0.0990
 6488TIP3    H141023   6.707   1.049   3.074 -2.0621 -1.3765  1.1948
 6488TIP3    H241024   6.687   0.949   2.962  2.9089  0.0497 -1.2358
 6489TIP3   OH241025   4.404   5.745   7.772  0.6425 -0.1044  0.5007
 6489TIP3    H141026   4.499   5.737   7.781  0.6187 -0.6562  0.3348
 6489TIP3    H241027   4.374   5.654   7.768  0.1667  0.0744 -0.0669
 6490TIP3   OH241028   1.587   2.036   7.871  0.5365 -0.3757 -0.4023
 6490TIP3    H141029   1.640   2.060   7.947 -1.4870 -0.8783  1.2534
 6490TIP3    H241030   1.564   2.120   7.830  0.5597 -0.0131  0.3178
 6491TIP3   OH241031   2.587   5.845   1.769 -0.4976 -0.2380 -0.1794
 6491TIP3    H141032   2.670   5.823   1.727 -0.2824  0.9575 -0.4096
 6491TIP3    H241033   2.606   5.843   1.863 -0.2892 -0.2188 -0.2227
 6492TIP3   OH241034   5.867   3.920   8.700  0.2127  0.1045 -0.3739
 6492TIP3    H141035   5.795   3.966   8.656  0.7853  0.8220 -0.5790
 6492TIP3    H241036   5.916   3.878   8.630  0.7380  0.6928 -0.3706
 6493TIP3   OH241037   2.586   0.875   0.688  0.6016  0.0906 -0.2746
 6493TIP3    H141038   2.611   0.873   0.596  0.1277  1.2924 -0.4553
 6493TIP3    H241039   2.617   0.960   0.720  1.5852 -0.6936  0.9339
 6494TIP3   OH241040   6.371   5.657   0.808  0.0940 -0.8164 -0.1414
 6494TIP3    H141041   6.370   5.563   0.824 -1.0445 -1.0436 -1.4301
 6494TIP3    H241042   6.432   5.669   0.735 -1.3297 -0.8310 -1.3766
 6495TIP3   OH241043   5.050   6.191   2.606 -0.0498 -0.2519 -0.0336
 6495TIP3    H141044   4.994   6.114   2.611 -2.6152  1.3659 -1.3128
 6495TIP3    H241045   5.033   6.239   2.687  0.4228 -0.3122  0.1056
 6496TIP3   OH241046   6.664   0.431   3.280  0.3715 -0.2007  0.0651
 6496TIP3    H141047   6.668   0.512   3.331  0.5884 -0.5104  0.5432
 6496TIP3    H241048   6.691   0.457   3.192  0.1766  0.3003  0.1508
 6497TIP3   OH241049   3.357   1.894   0.251  0.1954  0.3719  0.0098
 6497TIP3    H141050   3.414   1.879   0.176 -2.5743  0.8197 -2.3326
 6497TIP3    H241051   3.389   1.976   0.289  1.0512  0.6617 -1.2862
 6498TIP3   OH241052   2.518   2.343   7.640  0.4633 -0.0264 -0.3384
 6498TIP3    H141053   2.580   2.309   7.705 -1.0407 -1.0173  0.6524
 6498TIP3    H241054   2.573   2.375   7.569  2.2491  1.6583  1.6319
 6499TIP3   OH241055   5.063   1.117   7.720 -0.0802  0.3446 -0.0346
 6499TIP3    H141056   5.081   1.109   7.626 -0.7076  0.1716 -0.1479
 6499TIP3    H241057   5.055   1.211   7.735 -1.3036  0.3277 -0.4327
 6500TIP3   OH241058   3.773   2.875   7.777 -0.1267 -0.1722  0.7917
 6500TIP3    H141059   3.740   2.923   7.701 -1.9001  0.6186  2.0098
 6500TIP3    H241060   3.825   2.804   7.739 -0.7825  0.3132 -1.1407
 6501TIP3   OH241061   2.804   5.093   1.229 -0.4739  0.1670 -0.1256
 6501TIP3    H141062   2.891   5.052   1.229  0.7904  2.6366  0.2252
 6501TIP3    H241063   2.774   5.083   1.138  0.7446  0.3746 -0.5710
 6502TIP3   OH241064   5.445   4.370   2.775  0.8569  0.1090  0.1905
 6502TIP3    H141065   5.403   4.294   2.735  1.0559 -0.1121  0.3987
 6502TIP3    H241066   5.488   4.335   2.853  0.2119  0.5903  0.7676
 6503TIP3   OH241067   0.149   0.772   2.007  0.1806 -0.1992 -0.4044
 6503TIP3    H141068   0.174   0.710   1.939  0.5989 -0.4619 -0.0220
 6503TIP3    H241069   0.231   0.817   2.029 -0.1590  0.6593 -0.8384
 6504TIP3   OH241070   3.977   0.998   0.229 -0.6404  0.1290  0.1535
 6504TIP3    H141071   3.992   0.938   0.156  1.9085 -1.7990  2.0390
 6504TIP3    H241072   4.044   1.066   0.218 -1.1978  0.6446 -0.0694
 6505TIP3   OH241073   1.781   5.581   8.465  0.3314  0.0937  0.3372
 6505TIP3    H141074   1.717   5.593   8.394 -2.2314  1.0365  2.6468
 6505TIP3    H241075   1.866   5.577   8.420 -0.8599  3.1922 -2.6181
 6506TIP3   OH241076   5.578   0.745   1.402  0.4737  0.4714  0.1469
 6506TIP3    H141077   5.513   0.797   1.450  0.8537 -0.0398  1.2478
 6506TIP3    H241078   5.545   0.655   1.406  1.4257  0.1453  1.0516
 6507TIP3   OH241079   6.053   4.943   8.434  0.1148 -0.5480 -0.8289
 6507TIP3    H141080   6.083   4.877   8.497 -1.5464 -2.0674 -1.5386
 6507TIP3    H241081   6.078   4.907   8.348 -1.4755 -0.6636 -1.2684
 6508TIP3   OH241082   6.392   5.032   8.672  0.0987  0.6182 -0.6238
 6508TIP3    H141083   6.463   5.084   8.635 -0.0034  0.7711 -0.6032
 6508TIP3    H241084   6.312   5.073   8.639  0.0207 -0.8847 -2.5073
 6509TIP3   OH241085   3.795   4.275   2.508  0.3873 -0.7184  0.2276
 6509TIP3    H141086   3.828   4.355   2.549 -2.2272  1.3908 -1.4635
 6509TIP3    H241087   3.775   4.217   2.582  3.0058 -0.1948  1.4739
 6510TIP3   OH241088   4.643   6.777   6.772 -0.2039 -0.0821 -0.0398
 6510TIP3    H141089   4.635   6.871   6.760  0.6919 -0.0498 -0.4521
 6510TIP3    H241090   4.647   6.765   6.867  0.4551  0.3730 -0.0009
 6511TIP3   OH241091   4.411   3.665   0.737 -0.1590  0.4458  0.1931
 6511TIP3    H141092   4.326   3.683   0.778 -0.9723  0.9776 -1.6263
 6511TIP3    H241093   4.472   3.656   0.811 -1.6612  0.7077  1.5170
 6512TIP3   OH241094   5.354   2.153   8.103  0.2619  0.5460 -0.8596
 6512TIP3    H141095   5.360   2.245   8.126 -1.3236  0.3694  0.4290
 6512TIP3    H241096   5.323   2.153   8.012 -1.3282  1.3200 -0.3545
 6513TIP3   OH241097   2.915   5.729   8.352 -0.5267 -0.0755 -0.7689
 6513TIP3    H141098   2.834   5.766   8.319 -0.7071  1.4670  1.2425
 6513TIP3    H241099   2.889   5.673   8.425  0.2698  1.7701  1.0082
 6514TIP3   OH241100   0.675   4.320   2.000 -0.0685  0.3147 -0.1379
 6514TIP3    H141101   0.741   4.371   1.954  2.3082 -2.2350  0.2004
 6514TIP3    H241102   0.683   4.231   1.964 -0.8871 -0.8618  2.3487
 6515TIP3   OH241103   4.303   4.368   8.736 -0.1442 -0.2118 -0.8374
 6515TIP3    H141104   4.314   4.399   8.646  1.1193 -1.1596 -1.0345
 6515TIP3    H241105   4.232   4.304   8.730 -0.6191  0.3180 -0.9978
 6516TIP3   OH241106   4.675   0.734   2.890 -0.1596 -0.5270  0.3084
 6516TIP3    H141107   4.602   0.740   2.951 -1.4183 -2.0604 -0.9637
 6516TIP3    H241108   4.635   0.749   2.804  1.6208  2.0637 -0.1899
 6517TIP3   OH241109   2.005   6.113   8.683  0.1918 -0.2205  0.7055
 6517TIP3    H141110   2.011   6.024   8.716  0.1923 -0.5242 -0.0915
 6517TIP3    H241111   2.072   6.118   8.615 -0.6171  0.0026 -0.1041
 6518TIP3   OH241112   2.901   3.480   7.610 -0.5677 -0.0038 -0.1754
 6518TIP3    H141113   2.822   3.472   7.557 -1.1961 -1.0024  0.8739
 6518TIP3    H241114   2.969   3.434   7.560 -0.3520  1.7117 -1.5654
 6519TIP3   OH241115   5.050   5.310   8.544 -0.2204 -0.5340  0.0275
 6519TIP3    H141116   5.031   5.355   8.626 -0.2127 -0.6050  0.0691
 6519TIP3    H241117   5.141   5.281   8.553 -0.2377 -0.5916  0.0169
 6520TIP3   OH241118   4.324   0.844   1.375 -0.0845  0.1378 -0.5743
 6520TIP3    H141119   4.340   0.814   1.285 -3.0786  3.6595 -2.5312
 6520TIP3    H241120   4.363   0.932   1.378 -1.0739  0.5579  1.1940
 6521TIP3   OH241121   3.518   1.511   1.584 -0.7182  0.2681  0.7110
 6521TIP3    H141122   3.448   1.455   1.617  0.0768 -0.0676  1.8930
 6521TIP3    H241123   3.557   1.550   1.663  1.2964 -0.6186  0.2385
 6522TIP3   OH241124   1.394   5.425   2.587 -0.2316 -0.1762  0.2408
 6522TIP3    H141125   1.480   5.440   2.549 -0.6111  1.6191  0.0288
 6522TIP3    H241126   1.408   5.354   2.650  1.6214  0.8224  1.0134
 6523TIP3   OH241127   3.778   0.959   7.511 -0.3857  0.3590  0.1979
 6523TIP3    H141128   3.754   0.973   7.419 -0.4510  0.5021  0.2374
 6523TIP3    H241129   3.845   0.890   7.507  0.3084  1.0356 -0.0387
 6524TIP3   OH241130   4.815   2.693   1.962 -0.1478  0.3913  0.4106
 6524TIP3    H141131   4.766   2.674   1.882 -0.0914  0.9019  0.2519
 6524TIP3    H241132   4.752   2.674   2.033  0.0769 -0.8926  0.2971
 6525TIP3   OH241133   1.812   1.263   2.928 -0.0232 -0.4205  0.1972
 6525TIP3    H141134   1.890   1.220   2.963  0.4395  0.4312  0.2481
 6525TIP3    H241135   1.822   1.355   2.953 -2.3411 -0.6869  2.5347
 6526TIP3   OH241136   2.804   3.734   7.380 -0.5777 -0.1554 -0.3054
 6526TIP3    H141137   2.872   3.673   7.352 -0.0819  0.8630 -1.4038
 6526TIP3    H241138   2.736   3.678   7.417 -0.8177 -1.5634 -2.6162
 6527TIP3   OH241139   0.531   1.391   0.625 -0.2642  0.8942  0.8581
 6527TIP3    H141140   0.493   1.397   0.537 -0.5801  0.7233  0.9801
 6527TIP3    H241141   0.455   1.378   0.683 -0.0695  1.1058  1.1673
 6528TIP3   OH241142   6.442   0.128   7.494 -0.1954 -0.4601  0.3986
 6528TIP3    H141143   6.366   0.121   7.437 -0.2529 -2.1670  0.6342
 6528TIP3    H241144   6.463   0.037   7.517  3.0099 -0.2076 -1.0597
 6529TIP3   OH241145   1.599   3.643   7.708  0.2125 -0.3548 -0.1130
 6529TIP3    H141146   1.577   3.733   7.730 -0.4197 -1.0955  2.6804
 6529TIP3    H241147   1.521   3.608   7.666 -0.2596 -0.1149  0.5455
 6530TIP3   OH241148   5.810   4.488   2.484  0.3322  0.1457  0.1531
 6530TIP3    H141149   5.781   4.502   2.394  1.4461  0.5435 -0.1594
 6530TIP3    H241150   5.730   4.467   2.532 -0.4000  0.7948 -0.7534
 6531TIP3   OH241151   2.995   1.326   6.767 -0.2649  0.0722  0.4437
 6531TIP3    H141152   3.070   1.386   6.767 -1.6671  1.9588  1.7070
 6531TIP3    H241153   2.926   1.375   6.722 -0.8176 -1.5548 -0.5450
 6532TIP3   OH241154   1.168   1.823   7.786  0.6388  0.1621  1.1812
 6532TIP3    H141155   1.084   1.868   7.773  0.5722 -0.3988 -0.5863
 6532TIP3    H241156   1.234   1.889   7.764  0.5900 -0.0182  0.4683
 6533TIP3   OH241157   0.858   0.160   1.273 -0.1660  0.9010  0.0835
 6533TIP3    H141158   0.895   0.246   1.256  1.3616  0.5728  1.4463
 6533TIP3    H241159   0.910   0.100   1.219  0.3342  0.6031  0.8721
 6534TIP3   OH241160   5.075   4.826   1.739  0.3402  0.5238 -0.1577
 6534TIP3    H141161   4.980   4.834   1.755  0.5235  1.3180  0.6366
 6534TIP3    H241162   5.091   4.886   1.666 -0.0523 -1.0126 -1.5462
 6535TIP3   OH241163   1.050   0.067   1.715  0.1411  0.1188 -0.0943
 6535TIP3    H141164   1.050   0.135   1.782 -1.8815  0.9111 -0.8248
 6535TIP3    H241165   1.134   0.079   1.670  0.7790  0.6793  1.1759
 6536TIP3   OH241166   1.839   2.449   7.731  0.1141  0.4821  0.3344
 6536TIP3    H141167   1.860   2.438   7.823  0.1232  1.1032  0.4073
 6536TIP3    H241168   1.924   2.460   7.688  0.2062 -1.0047  0.0731
 6537TIP3   OH241169   4.856   1.874   0.902 -0.2360  0.2762 -0.5728
 6537TIP3    H141170   4.862   1.787   0.941 -0.2412  0.2949 -0.5302
 6537TIP3    H241171   4.933   1.879   0.844 -0.4337  0.1075 -0.8511
 6538TIP3   OH241172   2.038   4.610   7.613  0.4878 -0.3008  0.2637
 6538TIP3    H141173   2.106   4.571   7.668  0.0826 -2.6647 -0.7507
 6538TIP3    H241174   2.022   4.544   7.545 -1.8121  0.7768 -0.3559
 6539TIP3   OH241175   2.413   3.138   2.038 -0.0206 -0.3782 -0.5562
 6539TIP3    H141176   2.371   3.053   2.049  0.6758 -0.6733 -0.1025
 6539TIP3    H241177   2.483   3.122   1.974 -0.2038 -0.0383 -0.8397
 6540TIP3   OH241178   0.230   5.611   8.377 -0.3667  0.5264  0.4325
 6540TIP3    H141179   0.224   5.662   8.458 -0.0877  1.3958 -0.0725
 6540TIP3    H241180   0.158   5.643   8.322 -0.5394 -0.0358  0.3259
 6541TIP3   OH241181   3.498   5.270   0.585 -0.3049  0.1150 -0.1557
 6541TIP3    H141182   3.449   5.346   0.552  1.0962 -0.4184 -4.0174
 6541TIP3    H241183   3.462   5.196   0.536  1.9852 -0.8076 -0.5311
 6542TIP3   OH241184   0.181   3.043   2.072 -0.0358  0.2337  0.2875
 6542TIP3    H141185   0.243   3.021   2.141  0.3582  0.5987  0.0547
 6542TIP3    H241186   0.101   3.068   2.119  0.6456  1.7847  0.6785
 6543TIP3   OH241187   4.799   1.036   0.887  0.2235 -0.0632  0.9346
 6543TIP3    H141188   4.784   0.962   0.945  1.6206 -0.1641  1.2157
 6543TIP3    H241189   4.895   1.040   0.878  0.0682 -0.4578 -1.8853
 6544TIP3   OH241190   0.154   1.580   2.249 -0.3114  0.1864  0.3148
 6544TIP3    H141191   0.218   1.572   2.319 -1.0690  0.9370  1.1220
 6544TIP3    H241192   0.143   1.491   2.215  0.9232  0.0040  0.3511
 6545TIP3   OH241193   1.671   4.638   0.372 -0.0739  0.5005 -0.6136
 6545TIP3    H141194   1.660   4.668   0.462 -0.7615  1.0722 -0.8798
 6545TIP3    H241195   1.653   4.544   0.376  1.9233  0.1050  0.2006
 6546TIP3   OH241196   5.397   5.225   3.029 -0.1223  0.2960 -0.0391
 6546TIP3    H141197   5.327   5.193   3.085  0.1432  0.6857  0.5298
 6546TIP3    H241198   5.450   5.147   3.010 -0.3064  0.1312  0.1209
 6547TIP3   OH241199   1.199   2.908   2.407 -0.1311 -0.0376 -0.7031
 6547TIP3    H141200   1.194   2.983   2.348 -1.1782  0.5840  0.1349
 6547TIP3    H241201   1.167   2.941   2.490  2.9917 -0.3898  0.7871
 6548TIP3   OH241202   0.816   5.464   0.336 -0.2818 -0.2904 -0.8484
 6548TIP3    H141203   0.858   5.385   0.371 -0.9654 -0.1522  0.3501
 6548TIP3    H241204   0.726   5.437   0.318 -0.3074  0.0143 -1.1967
 6549TIP3   OH241205   6.690   3.155   8.194 -0.2474  0.3942 -0.4461
 6549TIP3    H141206   6.617   3.094   8.180  1.0886 -1.3462 -0.1974
 6549TIP3    H241207   6.660   3.212   8.264 -0.7130 -1.4709  0.9515
 6550TIP3   OH241208   4.505   3.144   8.456 -0.3362 -0.3004  0.0016
 6550TIP3    H141209   4.521   3.207   8.527 -2.6620  0.3554  0.0449
 6550TIP3    H241210   4.448   3.191   8.395 -0.7165 -1.8014 -0.8470
 6551TIP3   OH241211   2.923   6.048   1.884 -0.1277  0.3458 -0.0574
 6551TIP3    H141212   2.920   5.978   1.819  0.2591  2.1002 -2.0757
 6551TIP3    H241213   3.016   6.069   1.891 -0.3519  1.5639 -0.5459
 6552TIP3   OH241214   4.028   2.209   1.243  0.1971 -0.4658 -0.5489
 6552TIP3    H141215   3.960   2.207   1.310  0.5836 -1.2676 -0.1690
 6552TIP3    H241216   3.985   2.250   1.168 -0.4678 -0.2429 -0.0648
 6553TIP3   OH241217   4.289   0.467   8.209  0.2880 -0.2943 -0.0130
 6553TIP3    H141218   4.250   0.503   8.129  0.1858 -2.2416 -0.8760
 6553TIP3    H241219   4.339   0.391   8.180 -0.9045 -1.9071  1.8986
 6554TIP3   OH241220   0.101   3.540   0.084 -0.3096 -0.1378  0.0966
 6554TIP3    H141221   0.095   3.466   0.144 -1.1547 -1.0634 -1.0868
 6554TIP3    H241222   0.117   3.501  -0.002 -1.6982  0.9669 -0.7156
 6555TIP3   OH241223   2.689   2.911   3.017  0.2945  0.2275 -0.4714
 6555TIP3    H141224   2.724   2.984   3.069  1.0389 -0.9763  0.7899
 6555TIP3    H241225   2.763   2.851   3.009 -1.0447 -1.7587  1.0799
 6556TIP3   OH241226   1.854   3.824   8.136 -0.0413  0.3458  0.0067
 6556TIP3    H141227   1.777   3.788   8.091 -0.3299  1.6264 -0.5740
 6556TIP3    H241228   1.869   3.909   8.094  1.9669 -0.0539 -0.1860
 6557TIP3   OH241229   5.358   2.422   8.094 -0.7713 -0.3832 -0.2933
 6557TIP3    H141230   5.409   2.502   8.097 -1.2551 -0.0984  0.5317
 6557TIP3    H241231   5.322   2.419   8.005  2.0632 -1.4950 -1.5385
 6558TIP3   OH241232   3.908   6.420   8.755 -0.0094 -1.0249 -0.4046
 6558TIP3    H141233   3.880   6.486   8.817  2.6969 -2.5997  2.7995
 6558TIP3    H241234   4.001   6.438   8.740  0.2601 -2.8066 -1.1550
 6559TIP3   OH241235   4.580   3.912   1.354 -0.7538  0.0448 -0.3567
 6559TIP3    H141236   4.561   3.834   1.405 -0.6254 -0.2854 -0.8132
 6559TIP3    H241237   4.499   3.931   1.307 -0.7713  0.1592 -0.2805
 6560TIP3   OH241238   3.955   3.926   2.753 -0.2674  0.4670 -0.6138
 6560TIP3    H141239   4.049   3.916   2.735 -0.3391  0.9187 -1.2739
 6560TIP3    H241240   3.920   3.837   2.745 -0.0251  0.4137 -1.1724
 6561TIP3   OH241241   3.444   0.062   1.544  0.1492 -0.1320 -0.3605
 6561TIP3    H141242   3.378  -0.003   1.522  1.6349 -1.7298 -0.3375
 6561TIP3    H241243   3.452   0.116   1.465 -0.9735 -0.0695 -0.4465
 6562TIP3   OH241244   5.047   4.098   2.273  0.4963  0.4342 -0.0235
 6562TIP3    H141245   4.988   4.133   2.206  2.2233 -0.4552 -2.1156
 6562TIP3    H241246   5.131   4.088   2.228  1.1112 -2.5843  1.5691
 6563TIP3   OH241247   2.046   3.317   0.617  0.1872 -0.4056 -0.0815
 6563TIP3    H141248   2.093   3.292   0.697  0.9742 -0.6408 -0.6014
 6563TIP3    H241249   2.110   3.366   0.566 -1.2149  2.4747  0.7409
 6564TIP3   OH241250   0.464   1.201   7.794 -0.0459 -0.3762  0.3082
 6564TIP3    H141251   0.378   1.240   7.779 -1.0427 -1.4617  2.6968
 6564TIP3    H241252   0.451   1.107   7.780  1.4916 -0.3210 -2.0501
 6565TIP3   OH241253   0.128   3.602   7.807  0.3956 -0.3870  0.1070
 6565TIP3    H141254   0.098   3.678   7.757 -0.5724 -1.8186 -1.6107
 6565TIP3    H241255   0.222   3.598   7.789 -0.1385 -1.8719 -3.3204
 6566TIP3   OH241256   1.164   0.944   1.750  0.0220  0.0219 -0.4286
 6566TIP3    H141257   1.219   0.866   1.746 -1.5914 -1.3647  1.8784
 6566TIP3    H241258   1.225   1.016   1.761  1.4648 -1.3617  1.3253
 6567TIP3   OH241259   1.148   5.268   8.475 -0.3164  0.6956 -0.2384
 6567TIP3    H141260   1.166   5.292   8.384  0.5062 -0.1540 -0.3138
 6567TIP3    H241261   1.057   5.292   8.489 -0.7855 -0.1558 -1.6350
 6568TIP3   OH241262   3.815   5.814   2.807 -0.6041  0.2053  0.3906
 6568TIP3    H141263   3.873   5.753   2.851  0.0992  1.6137  1.5208
 6568TIP3    H241264   3.738   5.821   2.864 -0.1570  1.2386  0.8933
 6569TIP3   OH241265   5.713   0.929   8.624  0.1838 -0.3896 -0.3463
 6569TIP3    H141266   5.805   0.953   8.638 -0.1178  0.3103  0.4567
 6569TIP3    H241267   5.707   0.839   8.655  0.0889  0.3163  1.7928
 6570TIP3   OH241268   5.522   3.405   1.630 -0.3022  0.4362 -0.4012
 6570TIP3    H141269   5.536   3.335   1.694  0.9025  1.1590  0.1656
 6570TIP3    H241270   5.540   3.365   1.546  0.7966  0.1528 -0.0466
 6571TIP3   OH241271   1.336   2.724   3.058 -0.1109 -0.4646  0.1184
 6571TIP3    H141272   1.416   2.764   3.023 -0.8187  0.2308 -0.7923
 6571TIP3    H241273   1.266   2.763   3.005 -1.0705 -0.8771  1.0543
 6572TIP3   OH241274   4.733   1.221   7.677  0.1306 -0.0305 -0.7158
 6572TIP3    H141275   4.667   1.279   7.638  0.0325 -0.6972 -1.5782
 6572TIP3    H241276   4.698   1.133   7.663  0.6211 -0.3358 -0.0697
 6573TIP3   OH241277   3.248   4.800   2.307  0.5525  0.0194  0.3530
 6573TIP3    H141278   3.272   4.830   2.394 -0.7974  2.3500  0.0069
 6573TIP3    H241279   3.255   4.705   2.311  2.6352  0.1871  2.3198
 6574TIP3   OH241280   2.988   1.013   2.225 -0.5644  0.3161 -0.2262
 6574TIP3    H141281   3.054   0.968   2.278 -0.4037  0.2733 -0.4652
 6574TIP3    H241282   3.006   1.106   2.240 -0.4767  0.3044 -0.2575
 6575TIP3   OH241283   2.486   1.342   8.726  0.5793  0.3263 -0.4009
 6575TIP3    H141284   2.442   1.308   8.804  1.2575 -1.6928 -0.8596
 6575TIP3    H241285   2.555   1.399   8.761  0.1479  0.3644  0.4204
 6576TIP3   OH241286   3.692   5.155   2.592 -0.2990 -0.1955 -0.0912
 6576TIP3    H141287   3.762   5.114   2.643  0.7324  0.4332 -0.9592
 6576TIP3    H241288   3.675   5.238   2.637 -1.1495 -0.7593  0.6501
 6577TIP3   OH241289   6.266   0.084   7.989 -0.6942  0.1191 -0.0736
 6577TIP3    H141290   6.265   0.002   7.941  0.1176 -0.0276  0.1549
 6577TIP3    H241291   6.356   0.116   7.981 -1.1819  1.3778 -0.8202
 6578TIP3   OH241292   4.924   6.332   0.736 -0.0857  0.2841  0.0481
 6578TIP3    H141293   4.842   6.324   0.785 -1.1271  1.2127 -1.4582
 6578TIP3    H241294   4.926   6.424   0.709  1.3413  0.2083 -0.1731
 6579TIP3   OH241295   2.671   4.993   7.688  0.4516 -0.0267 -0.1614
 6579TIP3    H141296   2.694   5.085   7.694  0.0130  0.2402 -1.9829
 6579TIP3    H241297   2.712   4.953   7.764 -2.1688  2.2035  2.6874
 6580TIP3   OH241298   4.632   6.368   7.460 -0.5116  0.4295  0.1272
 6580TIP3    H141299   4.706   6.396   7.514  0.1948 -1.6327  0.2852
 6580TIP3    H241300   4.661   6.286   7.420 -2.2475  0.2437 -0.8253
 6581TIP3   OH241301   6.419   2.909   0.766 -0.3272 -0.3472 -0.1704
 6581TIP3    H141302   6.503   2.863   0.774 -0.3224 -0.4903 -1.0328
 6581TIP3    H241303   6.358   2.843   0.734 -0.8239 -0.2864  0.6061
 6582TIP3   OH241304   5.441   1.184   0.002 -0.7236 -0.0727 -0.1980
 6582TIP3    H141305   5.442   1.267   0.050 -1.6775 -0.2667  0.1623
 6582TIP3    H241306   5.497   1.126   0.053  1.7513  0.9292 -1.5733
 6583TIP3   OH241307   0.357   0.083   7.078  0.0395 -0.5945  0.0080
 6583TIP3    H141308   0.362   0.087   7.173  1.1976 -1.7684  0.0377
 6583TIP3    H241309   0.381  -0.008   7.057 -0.9181 -0.5609 -1.3668
 6584TIP3   OH241310   2.207   6.563   7.078  0.6571  0.1256 -0.6391
 6584TIP3    H141311   2.236   6.472   7.082 -0.5400 -0.2415  0.2565
 6584TIP3    H241312   2.166   6.578   7.163  2.0527  1.9417 -0.2278
 6585TIP3   OH241313   1.178   6.764   7.852  0.5242 -1.3497 -0.1943
 6585TIP3    H141314   1.115   6.744   7.783 -1.8916 -0.6540  1.6465
 6585TIP3    H241315   1.198   6.857   7.841  0.4724 -1.3398 -0.2026
 6586TIP3   OH241316   4.408   3.125   2.798  0.8441 -0.3880  0.2476
 6586TIP3    H141317   4.385   3.201   2.852 -1.7283  0.2866 -1.6064
 6586TIP3    H241318   4.373   3.050   2.847 -0.4702  0.0984  0.1005
 6587TIP3   OH241319   4.682   4.581   0.404 -0.0760  0.3443  0.2309
 6587TIP3    H141320   4.764   4.532   0.394 -0.3054 -0.2067  0.9780
 6587TIP3    H241321   4.613   4.515   0.400 -0.7655  1.0698 -3.2924
 6588TIP3   OH241322   6.445   0.050   7.123  0.3676 -0.0186  0.0493
 6588TIP3    H141323   6.380   0.115   7.147 -2.3547 -1.7606 -1.9257
 6588TIP3    H241324   6.514   0.099   7.078 -0.5791  1.6968  0.4149
 6589TIP3   OH241325   3.493   0.901   0.869  0.3289 -0.0939  0.3097
 6589TIP3    H141326   3.513   0.901   0.963  0.0522 -0.3857  0.3729
 6589TIP3    H241327   3.421   0.838   0.860 -0.2633  0.6012  0.0341
 6590TIP3   OH241328   2.759   3.519   0.460 -0.0104  0.4128 -0.7521
 6590TIP3    H141329   2.832   3.457   0.463  0.0715  0.5316 -0.3183
 6590TIP3    H241330   2.790   3.595   0.509 -0.9627 -0.0929  0.6670
 6591TIP3   OH241331   0.277   1.134   2.890 -0.3005  0.0168 -0.1624
 6591TIP3    H141332   0.348   1.197   2.897  1.3691 -1.6719 -1.1668
 6591TIP3    H241333   0.314   1.060   2.841 -2.5848 -1.1570 -0.2647
 6592TIP3   OH241334   5.131   6.739   1.595  0.0529  0.4112  0.3260
 6592TIP3    H141335   5.150   6.807   1.531  0.0512  1.6925  1.6193
 6592TIP3    H241336   5.217   6.716   1.631  0.2869 -1.6512 -1.3692
 6593TIP3   OH241337   4.785   2.529   2.518 -0.3075 -0.9837  0.2184
 6593TIP3    H141338   4.713   2.580   2.481 -0.3125 -0.5025  0.8616
 6593TIP3    H241339   4.749   2.492   2.598  0.1521 -0.7380  0.5475
 6594TIP3   OH241340   6.185   3.618   2.012 -0.1433  0.3006  0.3035
 6594TIP3    H141341   6.158   3.531   2.042 -0.8212 -0.1792 -1.5817
 6594TIP3    H241342   6.275   3.606   1.983 -0.8014 -0.2481 -1.6300
 6595TIP3   OH241343   6.767   3.958   0.361 -0.3242  0.5977 -0.9772
 6595TIP3    H141344   6.680   3.959   0.321 -0.4694  0.1201 -0.6790
 6595TIP3    H241345   6.827   3.954   0.287 -0.5538  1.0598 -1.1872
 6596TIP3   OH241346   6.323   5.119   2.900 -0.1125 -0.4807  0.0044
 6596TIP3    H141347   6.315   5.120   2.804 -0.6250  0.3062  0.0469
 6596TIP3    H241348   6.234   5.130   2.931  0.3705  4.1033  0.5234
 6597TIP3   OH241349   3.445   0.363   1.911  0.5043 -0.4732 -0.1337
 6597TIP3    H141350   3.431   0.341   1.819  2.6346 -0.8534 -0.3929
 6597TIP3    H241351   3.357   0.357   1.950 -0.6462  0.7848 -2.3320
 6598TIP3   OH241352   4.024   2.466   0.595 -0.2799 -0.0571  0.5806
 6598TIP3    H141353   4.060   2.468   0.683  0.7035 -0.5699  0.2053
 6598TIP3    H241354   3.944   2.414   0.603  0.3368 -0.9584  0.9899
 6599TIP3   OH241355   2.171   4.133   2.459  0.0809  0.1666  0.4064
 6599TIP3    H141356   2.262   4.136   2.490 -0.0375 -0.6802  0.8598
 6599TIP3    H241357   2.128   4.070   2.516 -0.7231  0.3238 -0.0073
 6600TIP3   OH241358   3.129   4.583   0.527  0.6946  0.5470  0.4500
 6600TIP3    H141359   3.169   4.505   0.488  0.5236 -0.5484  2.3499
 6600TIP3    H241360   3.117   4.642   0.453  1.8474 -0.7745 -0.8845
 6601TIP3   OH241361   4.344   4.849   1.549  0.3382 -0.0688 -0.4269
 6601TIP3    H141362   4.391   4.932   1.560 -1.4581  0.7860  1.3878
 6601TIP3    H241363   4.366   4.799   1.628  0.7206 -0.9956 -1.1016
 6602TIP3   OH241364   2.507   3.970   2.747  0.3598 -0.0182  0.6891
 6602TIP3    H141365   2.538   3.962   2.837  1.0232  0.0587  0.4721
 6602TIP3    H241366   2.585   3.954   2.693  0.3439  1.5509  0.1516
 6603TIP3   OH241367   3.266   5.838   2.675  0.0321  0.2494  0.7179
 6603TIP3    H141368   3.207   5.817   2.747 -0.0887 -0.2214  0.4881
 6603TIP3    H241369   3.271   5.933   2.674 -0.1368  0.2633  1.2091
 6604TIP3   OH241370   5.960   3.011   7.816 -0.5508  0.6653 -0.2359
 6604TIP3    H141371   5.914   2.927   7.805 -0.7620  0.9256 -1.5144
 6604TIP3    H241372   5.890   3.076   7.820 -0.3347  0.9847 -1.3889
 6605TIP3   OH241373   3.919   3.065   7.943  0.5621 -0.3450  0.0462
 6605TIP3    H141374   3.903   3.141   7.887  1.4827 -0.4406 -0.3564
 6605TIP3    H241375   3.892   2.990   7.890 -0.4452 -0.3060  0.4820
 6606TIP3   OH241376   2.180   5.669   1.329  0.3734  0.0222 -0.3182
 6606TIP3    H141377   2.191   5.677   1.234 -1.6043 -0.5742 -0.6449
 6606TIP3    H241378   2.150   5.756   1.356  0.2657 -0.0070 -0.3446
 6607TIP3   OH241379   1.041   6.129   0.031 -0.2558 -0.3594  0.1440
 6607TIP3    H141380   0.953   6.106  -0.000 -0.0901 -0.1457 -0.4940
 6607TIP3    H241381   1.044   6.225   0.025  0.3055 -0.4184 -0.6377
 6608TIP3   OH241382   2.701   5.471   2.088  0.3321 -0.6199 -0.2897
 6608TIP3    H141383   2.622   5.423   2.064  0.0756 -0.0602 -0.5868
 6608TIP3    H241384   2.669   5.541   2.145  0.8686 -1.6234  1.3050
 6609TIP3   OH241385   1.015   2.150   0.144  0.1904 -0.3178 -0.4893
 6609TIP3    H141386   1.054   2.067   0.116 -0.6439 -0.5747 -0.9245
 6609TIP3    H241387   1.075   2.217   0.110  0.1759 -0.6950 -1.3027
 6610TIP3   OH241388   0.279   5.063   8.274 -0.5942 -0.3403 -0.0111
 6610TIP3    H141389   0.338   5.065   8.199  0.3839  1.1449  0.7486
 6610TIP3    H241390   0.203   5.014   8.244 -0.0828 -0.0684 -1.8490
 6611TIP3   OH241391   2.009   2.658   8.465  0.4732 -0.0706  0.4341
 6611TIP3    H141392   2.101   2.662   8.491  0.6717  1.0782 -0.3563
 6611TIP3    H241393   1.979   2.749   8.467 -0.6505 -0.4223  0.6664
 6612TIP3   OH241394   5.442   3.726   7.930  0.1706  0.5306 -0.5101
 6612TIP3    H141395   5.401   3.764   7.852 -0.8136 -2.3493 -1.5153
 6612TIP3    H241396   5.408   3.778   8.002 -1.1811  1.4744 -1.7604
 6613TIP3   OH241397   4.701   1.699   0.728 -0.1327 -0.1895 -0.2055
 6613TIP3    H141398   4.730   1.770   0.785 -0.5051  0.5623 -0.9261
 6613TIP3    H241399   4.732   1.724   0.641  0.1243 -1.1418 -0.3941
 6614TIP3   OH241400   2.562   4.773   0.433  0.6953  0.1910 -0.1216
 6614TIP3    H141401   2.544   4.682   0.456 -0.9595  0.4931 -0.0407
 6614TIP3    H241402   2.656   4.776   0.417  0.6035 -1.8687 -1.5924
 6615TIP3   OH241403   5.264   3.196   0.605  0.4390  0.1293 -0.4939
 6615TIP3    H141404   5.286   3.112   0.565 -2.1789 -0.9327  0.0648
 6615TIP3    H241405   5.340   3.252   0.588  2.2038 -2.2802 -1.0223
 6616TIP3   OH241406   1.061   4.255   0.434  0.3284 -0.1185 -0.1630
 6616TIP3    H141407   1.078   4.297   0.350  1.0071  2.0578  1.0000
 6616TIP3    H241408   0.966   4.244   0.437  0.3431 -0.7282 -1.4177
 6617TIP3   OH241409   5.052   6.138   0.903 -0.3419 -0.0881  0.6033
 6617TIP3    H141410   4.972   6.117   0.953 -0.6022  0.0009  0.2269
 6617TIP3    H241411   5.021   6.156   0.815  0.2025 -1.0149  0.2121
 6618TIP3   OH241412   0.864   2.557   0.736 -0.2850  0.1987  0.7533
 6618TIP3    H141413   0.858   2.643   0.695  0.4801  0.4024  1.0571
 6618TIP3    H241414   0.884   2.498   0.664 -2.2134  0.0250  0.2917
 6619TIP3   OH241415   1.812   4.262   1.844 -0.2066 -0.4165 -0.0656
 6619TIP3    H141416   1.899   4.278   1.882  1.3029 -2.3577 -2.4525
 6619TIP3    H241417   1.802   4.167   1.844 -1.6669 -0.3050 -1.2485
 6620TIP3   OH241418   3.429   4.150   8.137  0.3213  0.2279 -0.2549
 6620TIP3    H141419   3.472   4.081   8.085  1.5823  0.0596  0.9684
 6620TIP3    H241420   3.434   4.119   8.227  0.0462  1.4954  0.2106
 6621TIP3   OH241421   1.908   5.312   0.842 -0.0367 -0.1653 -0.6320
 6621TIP3    H141422   1.888   5.379   0.776 -1.3129 -0.4490 -0.5637
 6621TIP3    H241423   1.976   5.351   0.897  0.0799  0.6005 -1.3107
 6622TIP3   OH241424   0.076   6.039   8.274 -0.5829  0.3034 -0.5167
 6622TIP3    H141425   0.001   6.014   8.328 -0.4820 -1.8787 -1.2874
 6622TIP3    H241426   0.068   6.134   8.265 -0.0508  1.0415  4.0915
 6623TIP3   OH241427   6.570   1.376   7.248 -0.2779  0.0721  0.3084
 6623TIP3    H141428   6.529   1.417   7.325  0.3787 -0.6073  1.0466
 6623TIP3    H241429   6.497   1.339   7.199 -0.6463 -0.2799  1.0972
 6624TIP3   OH241430   5.901   1.261   2.999  0.2920  0.3796  0.7625
 6624TIP3    H141431   5.982   1.312   3.001  1.2225 -1.0065  0.3575
 6624TIP3    H241432   5.930   1.170   3.009 -1.3959 -0.0199  2.7642
 6625TIP3   OH241433   2.728   1.926   1.232  0.8841 -0.2401 -0.7126
 6625TIP3    H141434   2.789   1.950   1.163  0.4424  1.0310 -0.6873
 6625TIP3    H241435   2.723   2.003   1.289  1.1558 -1.2096  0.6927
 6626TIP3   OH241436   5.236   2.919   2.916  0.2181  0.1793  0.4781
 6626TIP3    H141437   5.156   2.961   2.945  0.3394 -0.5693  1.9952
 6626TIP3    H241438   5.227   2.828   2.944  1.9188  0.2548  1.4107
 6627TIP3   OH241439   2.538   5.827   2.138  0.5540  0.2394  0.5867
 6627TIP3    H141440   2.546   5.813   2.232  3.4121  2.9126  0.9103
 6627TIP3    H241441   2.626   5.850   2.110 -0.3317  0.1360 -2.6722
 6628TIP3   OH241442   2.538   2.312   1.011  0.5869 -0.0175  0.1023
 6628TIP3    H141443   2.500   2.399   1.020  2.6136  0.7416  1.9096
 6628TIP3    H241444   2.464   2.253   1.026 -0.6111  1.3729 -0.1007
 6629TIP3   OH241445   3.106   1.247   7.925 -0.0123 -0.3161  0.4256
 6629TIP3    H141446   3.137   1.287   7.843 -1.3304 -0.6667 -0.2622
 6629TIP3    H241447   3.017   1.279   7.936  0.5019  0.5681  2.3123
 6630TIP3   OH241448   0.983   2.761   1.882 -0.1526  0.3567  0.7214
 6630TIP3    H141449   0.968   2.722   1.968 -3.5880  1.2557  0.6727
 6630TIP3    H241450   0.912   2.726   1.827  1.0245  1.0146 -1.3526
 6631TIP3   OH241451   5.363   6.518   8.338  0.4065  0.4408 -0.6624
 6631TIP3    H141452   5.431   6.574   8.299  0.1859 -0.5443 -2.5636
 6631TIP3    H241453   5.380   6.431   8.302 -3.1311  0.5373 -3.0874
 6632TIP3   OH241454   4.792   5.668   6.941 -0.1708  0.1420  0.4406
 6632TIP3    H141455   4.741   5.704   6.869  1.0311  0.0040 -0.5143
 6632TIP3    H241456   4.820   5.744   6.992 -0.7810  0.2604  0.6004
 6633TIP3   OH241457   5.933   1.098   8.774 -0.2918 -0.0370 -0.3643
 6633TIP3    H141458   5.984   1.025   8.809  1.8876  0.5320 -2.1393
 6633TIP3    H241459   5.977   1.177   8.806 -0.2845  0.4772 -1.5644
 6634TIP3   OH241460   5.770   0.499   0.489 -1.2398 -0.2017  0.4540
 6634TIP3    H141461   5.740   0.427   0.434 -0.0861 -0.6810  0.4118
 6634TIP3    H241462   5.824   0.553   0.430 -0.7470 -0.2207  0.8776
 6635TIP3   OH241463   2.738   3.961   1.274 -0.0971  0.3126  0.1648
 6635TIP3    H141464   2.800   3.895   1.306 -0.5369 -0.6707 -0.9268
 6635TIP3    H241465   2.783   4.044   1.287 -0.0676 -0.0419  2.8465
 6636TIP3   OH241466   6.208   6.101   1.658 -0.3559 -0.1122  0.6505
 6636TIP3    H141467   6.212   6.061   1.745 -0.8857  0.6734  1.0586
 6636TIP3    H241468   6.149   6.044   1.608  0.6707 -1.0720  0.5131
 6637TIP3   OH241469   2.054   0.068   2.434  0.5251 -0.2342  0.1780
 6637TIP3    H141470   2.117   0.139   2.423  1.8752 -0.7472  3.5490
 6637TIP3    H241471   1.969   0.111   2.436  1.2810  1.2894  1.8566
 6638TIP3   OH241472   1.465   2.592   2.404  0.3149  0.2768 -0.3280
 6638TIP3    H141473   1.465   2.685   2.427  1.1341  0.1099  0.4144
 6638TIP3    H241474   1.393   2.555   2.454  0.3574  0.4118 -0.1657
 6639TIP3   OH241475   2.255   4.296   7.453  0.1840 -0.4119  0.4512
 6639TIP3    H141476   2.247   4.259   7.540 -0.2149  0.0274  0.6097
 6639TIP3    H241477   2.233   4.224   7.394  1.3279 -0.9607  0.6638
 6640TIP3   OH241478   6.489   0.549   0.748 -0.7267  0.0683  0.3321
 6640TIP3    H141479   6.451   0.536   0.661  0.2017  0.0094 -0.0816
 6640TIP3    H241480   6.488   0.462   0.788  0.2873 -0.2270 -0.2431
 6641TIP3   OH241481   2.460   1.279   7.710 -0.1238 -0.2048 -0.3762
 6641TIP3    H141482   2.429   1.369   7.722 -2.0337 -0.8153 -0.4618
 6641TIP3    H241483   2.443   1.260   7.618  3.8349  0.5749 -1.4431
 6642TIP3   OH241484   1.030   6.571   8.607 -0.3578  0.1806 -0.0985
 6642TIP3    H141485   0.983   6.500   8.651  0.9850 -0.3505  0.5478
 6642TIP3    H241486   0.972   6.598   8.536 -1.1093 -1.2622 -0.0710
 6643TIP3   OH241487   2.182   3.939   0.848 -0.0026 -0.0552 -0.1871
 6643TIP3    H141488   2.248   3.964   0.913 -0.5697 -1.4979  1.0132
 6643TIP3    H241489   2.206   3.850   0.822  1.6101  1.2746 -3.8766
 6644TIP3   OH241490   0.507   1.656   0.398  0.6508  0.6628 -0.2033
 6644TIP3    H141491   0.435   1.595   0.383  1.2437  0.3448 -1.9386
 6644TIP3    H241492   0.464   1.738   0.423 -0.2268  0.0354  0.3936
 6645TIP3   OH241493   2.068   6.410   1.850  0.0136 -0.4437  0.4239
 6645TIP3    H141494   2.161   6.427   1.840 -0.0553 -0.9029 -1.3200
 6645TIP3    H241495   2.061   6.356   1.929  1.5096 -2.4799 -0.7557
 6646TIP3   OH241496   6.737   2.149   0.683  0.1820 -0.0743  0.3178
 6646TIP3    H141497   6.708   2.211   0.750 -0.7575  2.7906 -2.4668
 6646TIP3    H241498   6.667   2.150   0.617  1.9616 -1.0432 -1.7292
 6647TIP3   OH241499   5.464   5.853   7.875  0.1619 -0.1251  0.1306
 6647TIP3    H141500   5.418   5.779   7.913 -1.1833  0.0572 -1.0539
 6647TIP3    H241501   5.455   5.842   7.780 -1.4263  2.2772 -0.1100
 6648TIP3   OH241502   3.435   2.494   0.005  0.2549  0.3694  0.5756
 6648TIP3    H141503   3.428   2.401  -0.016  0.9331  0.4212  0.0982
 6648TIP3    H241504   3.453   2.537  -0.079 -2.1100  1.1975  0.4138
 6649TIP3   OH241505   4.561   4.179   1.555 -0.4125 -0.1829 -0.1038
 6649TIP3    H141506   4.593   4.172   1.645 -0.6494 -1.2556 -0.0926
 6649TIP3    H241507   4.639   4.200   1.504  0.1651 -1.7288  0.0737
 6650TIP3   OH241508   6.708   5.702   0.570 -0.1360  0.0922  0.2350
 6650TIP3    H141509   6.749   5.754   0.639 -0.2018 -0.2645  0.5486
 6650TIP3    H241510   6.634   5.755   0.540 -1.0117 -0.3920  1.4741
 6651TIP3   OH241511   6.493   2.098   3.638  0.0256  0.7684  0.1083
 6651TIP3    H141512   6.548   2.074   3.713 -0.6554 -0.5368  0.2204
 6651TIP3    H241513   6.540   2.061   3.563  0.3431  1.4483 -0.0279
 6652TIP3   OH241514   5.670   5.028   0.907 -0.0758  0.2277  0.6399
 6652TIP3    H141515   5.633   5.032   0.819  0.2635 -1.1046  0.4055
 6652TIP3    H241516   5.643   5.109   0.949  1.6787  2.0028 -1.4270
 6653TIP3   OH241517   1.714   1.215   7.123 -0.0853 -0.3720 -0.2293
 6653TIP3    H141518   1.687   1.123   7.126  1.3348 -0.8150 -0.7741
 6653TIP3    H241519   1.636   1.263   7.153 -1.1671 -1.6670 -0.8756
 6654TIP3   OH241520   6.028   1.704   1.866 -0.0421 -0.5647 -0.5558
 6654TIP3    H141521   5.963   1.774   1.870 -0.9823 -1.4522  0.4492
 6654TIP3    H241522   6.106   1.746   1.829 -0.3320  1.1953  0.6739
 6655TIP3   OH241523   1.919   0.995   0.479 -0.2671  0.0526 -0.5853
 6655TIP3    H141524   1.981   0.929   0.507 -0.2946 -0.6127 -1.9997
 6655TIP3    H241525   1.867   1.015   0.557  0.9041 -0.2776  0.2942
 6656TIP3   OH241526   1.663   1.392   1.203  0.2911 -0.0940 -0.5052
 6656TIP3    H141527   1.607   1.426   1.133  0.5833 -1.6247 -1.5563
 6656TIP3    H241528   1.701   1.312   1.165  2.2567  0.2675  0.6023
 6657TIP3   OH241529   1.476   5.079   0.421 -0.2546  0.3030  0.2344
 6657TIP3    H141530   1.434   5.147   0.473  0.1664 -0.7019  1.9801
 6657TIP3    H241531   1.411   5.055   0.355 -1.4553  0.5362  1.2903
 6658TIP3   OH241532   2.959   3.146   8.513 -0.3728  0.0997  0.3413
 6658TIP3    H141533   2.864   3.139   8.517 -0.2982 -0.6611  1.2108
 6658TIP3    H241534   2.975   3.229   8.469 -1.4410  0.4336  0.5482
 6659TIP3   OH241535   0.447   1.944   2.740 -0.3716  0.3407  0.0109
 6659TIP3    H141536   0.422   1.872   2.682  0.2123  2.5616 -3.2316
 6659TIP3    H241537   0.366   1.965   2.787 -2.2683  1.2826 -3.3467
 6660TIP3   OH241538   4.664   4.484   2.739 -0.8127  0.1043 -0.4192
 6660TIP3    H141539   4.637   4.490   2.831  1.2832 -1.1666  0.3451
 6660TIP3    H241540   4.750   4.525   2.737 -1.2976  1.1419 -2.0988
 6661TIP3   OH241541   2.570   2.814   8.682  0.2925 -0.0580  0.0740
 6661TIP3    H141542   2.570   2.773   8.769 -2.2448 -0.0298  0.1782
 6661TIP3    H241543   2.478   2.836   8.667  0.0462 -2.6679 -3.8373
 6662TIP3   OH241544   3.879   5.010   1.297  0.1178  0.3209 -0.6611
 6662TIP3    H141545   3.963   5.052   1.318 -0.3535  1.5049 -1.0346
 6662TIP3    H241546   3.827   5.019   1.376  0.5612 -1.0462 -0.1869
 6663TIP3   OH241547   1.468   6.783   3.051 -0.6630  0.0786  0.1635
 6663TIP3    H141548   1.477   6.792   2.956 -1.0667  0.6352  0.1735
 6663TIP3    H241549   1.543   6.831   3.086  0.0414 -0.9410  0.1223
 6664TIP3   OH241550   1.336   6.410   0.077 -0.0320 -0.1082 -0.0460
 6664TIP3    H141551   1.348   6.487   0.022 -0.0105 -0.4908 -0.5791
 6664TIP3    H241552   1.259   6.431   0.131 -0.6954 -0.1446 -0.9512
 6665TIP3   OH241553   3.568   0.013   8.403 -0.3560 -0.6944 -0.1529
 6665TIP3    H141554   3.478   0.020   8.436  0.5853 -0.4366  2.5509
 6665TIP3    H241555   3.583  -0.082   8.397 -0.7961 -0.7389 -0.6233
 6666TIP3   OH241556   1.966   3.740   1.133 -0.0235  0.0657  0.0400
 6666TIP3    H141557   1.921   3.762   1.215  0.3725  0.5562  0.1326
 6666TIP3    H241558   1.967   3.822   1.083  0.5165 -0.0006 -0.0702
 6667TIP3   OH241559   0.544   3.713   0.633 -0.1581  0.1165 -0.2186
 6667TIP3    H141560   0.625   3.755   0.604  0.2678 -0.5598 -0.0323
 6667TIP3    H241561   0.529   3.643   0.569 -0.8026  0.4741 -0.4680
 6668TIP3   OH241562   5.956   5.557   8.096  0.1307 -0.1416 -0.1308
 6668TIP3    H141563   5.912   5.642   8.105  3.8729  1.7867  2.7432
 6668TIP3    H241564   6.021   5.571   8.028  0.0985 -1.0753 -0.3577
 6669TIP3   OH241565   6.228   3.486   2.383  0.4295 -0.1024 -0.0056
 6669TIP3    H141566   6.300   3.428   2.407  0.3461  0.4357  1.6727
 6669TIP3    H241567   6.266   3.545   2.318  1.7828  0.7009  1.4448
 6670TIP3   OH241568   5.778   1.160   2.444  0.4935  0.1684 -0.1528
 6670TIP3    H141569   5.812   1.094   2.504  1.0494 -0.3403 -1.0171
 6670TIP3    H241570   5.834   1.236   2.458  0.6512  0.0354 -0.0693
 6671TIP3   OH241571   4.409   2.973   0.166 -0.1405 -0.1607 -0.2516
 6671TIP3    H141572   4.364   3.019   0.237 -0.7883 -0.8961 -0.1800
 6671TIP3    H241573   4.496   3.012   0.164 -0.7445  1.2448 -0.3559
 6672TIP3   OH241574   4.686   2.704   1.699  0.2342 -0.4395  0.3286
 6672TIP3    H141575   4.699   2.610   1.688 -0.0367 -0.3614 -0.8149
 6672TIP3    H241576   4.754   2.743   1.644 -0.7565  0.0078 -0.6199
 6673TIP3   OH241577   6.541   0.592   1.875  0.4547 -0.0540 -0.1104
 6673TIP3    H141578   6.517   0.670   1.825 -0.6064 -0.1817  0.1719
 6673TIP3    H241579   6.489   0.598   1.955  0.8823 -0.6974  0.2210
 6674TIP3   OH241580   5.532   0.414   6.645 -0.0065 -0.3379 -0.4906
 6674TIP3    H141581   5.498   0.327   6.665 -1.3401 -0.0392 -1.3630
 6674TIP3    H241582   5.521   0.464   6.726 -0.6862 -0.5459 -0.4516
 6675TIP3   OH241583   5.151   3.822   0.941 -0.2800  0.6701  0.2290
 6675TIP3    H141584   5.169   3.886   0.872 -2.8374 -0.5719 -1.7658
 6675TIP3    H241585   5.062   3.842   0.970 -0.5421 -0.9736  0.6890
 6676TIP3   OH241586   4.799   0.862   3.233 -0.0839  0.4143  0.1922
 6676TIP3    H141587   4.815   0.956   3.220 -1.2706  0.7918  1.2470
 6676TIP3    H241588   4.716   0.845   3.188  1.4406 -0.8104 -2.4462
 6677TIP3   OH241589   1.729   5.918   1.974 -0.3016  0.2236 -0.0513
 6677TIP3    H141590   1.783   5.971   1.915 -0.7223  0.2995 -0.3797
 6677TIP3    H241591   1.709   5.840   1.923  0.5175 -0.3785  0.5181
 6678TIP3   OH241592   5.761   5.832   2.845  0.9350  0.4091  0.3317
 6678TIP3    H141593   5.765   5.889   2.769 -1.5265 -0.4713 -0.5637
 6678TIP3    H241594   5.735   5.746   2.810 -0.3864 -0.0064  2.1161
 6679TIP3   OH241595   1.516   2.249   0.224 -0.2088  0.3366 -0.3487
 6679TIP3    H141596   1.537   2.321   0.164  1.8065 -0.0521 -0.1869
 6679TIP3    H241597   1.444   2.203   0.181 -0.0929  1.1803 -1.5247
 6680TIP3   OH241598   5.751   2.624   2.292 -0.0011  0.0554  0.9510
 6680TIP3    H141599   5.695   2.685   2.340 -0.7986  0.7494 -0.7910
 6680TIP3    H241600   5.822   2.678   2.258 -1.6329  0.5005 -2.1006
 6681TIP3   OH241601   2.766   4.415   7.928 -0.3632 -0.8262  0.5428
 6681TIP3    H141602   2.759   4.450   7.839 -2.8345 -1.4593  0.4148
 6681TIP3    H241603   2.852   4.445   7.959 -0.5789  1.7793 -1.0425
 6682TIP3   OH241604   1.440   5.386   0.059  0.2452 -0.2672  0.5896
 6682TIP3    H141605   1.510   5.406  -0.003 -0.4572  0.5125  0.0294
 6682TIP3    H241606   1.457   5.442   0.134  0.0297  0.1901  0.3028
 6683TIP3   OH241607   5.626   2.369   8.610  0.6959 -0.3051  0.1322
 6683TIP3    H141608   5.607   2.445   8.554 -0.8037  0.7438  1.9473
 6683TIP3    H241609   5.590   2.294   8.562  1.1733  0.2570 -1.1674
 6684TIP3   OH241610   0.219   5.615   2.172 -0.1037  0.3730 -0.0436
 6684TIP3    H141611   0.313   5.617   2.157 -0.2607  0.1628 -1.1485
 6684TIP3    H241612   0.209   5.590   2.263  0.9135  0.5829  0.1315
 6685TIP3   OH241613   4.950   3.511   1.863 -0.7551  0.0015  0.3987
 6685TIP3    H141614   5.024   3.563   1.831 -1.4833  1.1079  0.4514
 6685TIP3    H241615   4.891   3.505   1.787 -0.4597 -1.2021  0.2408
 6686TIP3   OH241616   0.652   0.873   2.814  0.0657 -0.1024  0.2214
 6686TIP3    H141617   0.589   0.935   2.777  1.0732  0.2137 -1.0246
 6686TIP3    H241618   0.607   0.837   2.890 -1.3350  0.6527 -0.2026
 6687TIP3   OH241619   0.227   1.665   1.468  0.0679  0.3868  0.6894
 6687TIP3    H141620   0.247   1.604   1.539  0.6937  0.4455  0.5679
 6687TIP3    H241621   0.310   1.708   1.450 -0.2771  0.9694  0.4821
 6688TIP3   OH241622   0.910   4.498   8.264 -0.3809  0.5281  0.3782
 6688TIP3    H141623   0.994   4.483   8.220 -1.0439 -1.2614 -0.3695
 6688TIP3    H241624   0.884   4.411   8.295 -1.3270  1.2863  1.8072
 6689TIP3   OH241625   1.464   3.219   1.892 -0.0888  0.0811 -0.2673
 6689TIP3    H141626   1.473   3.310   1.917  3.3365 -0.1279 -0.2815
 6689TIP3    H241627   1.450   3.172   1.974  0.3829  0.4117  0.0033
 6690TIP3   OH241628   3.156   2.677   7.141 -0.4661  0.7844  0.4439
 6690TIP3    H141629   3.093   2.660   7.071 -0.1757 -0.6555  0.5012
 6690TIP3    H241630   3.143   2.605   7.203  1.2640  0.3977  0.4133
 6691TIP3   OH241631   2.866   2.326   2.139 -0.1132  0.0007 -0.0142
 6691TIP3    H141632   2.846   2.413   2.174  1.6400  0.9228 -1.1731
 6691TIP3    H241633   2.917   2.343   2.059 -1.7242 -2.0642 -1.5846
 6692TIP3   OH241634   6.162   3.990   2.807  0.1378 -0.5782  0.2173
 6692TIP3    H141635   6.138   3.948   2.724  1.4408  1.4859 -1.3163
 6692TIP3    H241636   6.258   3.987   2.808  0.1869  0.5673  1.0207
 6693TIP3   OH241637   4.018   3.660   0.554 -0.4936  0.4094 -0.2973
 6693TIP3    H141638   4.089   3.598   0.570 -1.7282 -1.2012 -0.8585
 6693TIP3    H241639   4.029   3.726   0.624 -0.4335 -1.5985  1.7167
 6694TIP3   OH241640   0.645   1.589   8.228  0.2497 -0.5486  0.1836
 6694TIP3    H141641   0.725   1.545   8.257  0.4067 -0.4368 -0.0784
 6694TIP3    H241642   0.672   1.678   8.208 -0.1596 -0.1910  1.1545
 6695TIP3   OH241643   3.022   3.925   1.349  0.4545 -0.1222 -0.0742
 6695TIP3    H141644   3.089   3.858   1.366  1.9352  0.4794 -2.9304
 6695TIP3    H241645   3.060   3.979   1.280 -1.9045  1.9385  0.1227
 6696TIP3   OH241646   4.804   5.140   2.428 -0.0220 -0.7663  0.1276
 6696TIP3    H141647   4.851   5.132   2.344  0.9947  0.4386  0.5456
 6696TIP3    H241648   4.715   5.166   2.403  0.6891  1.1987 -0.5621
 6697TIP3   OH241649   3.439   4.328   2.458  0.4471  0.4171 -0.2305
 6697TIP3    H141650   3.388   4.326   2.540 -0.1339  0.4546 -0.5842
 6697TIP3    H241651   3.518   4.378   2.480  0.7839 -0.4443  0.5749
 6698TIP3   OH241652   2.866   6.418   3.245  0.0831 -0.4486 -0.4713
 6698TIP3    H141653   2.783   6.429   3.292  0.6542 -0.3303  0.5211
 6698TIP3    H241654   2.861   6.482   3.174 -0.2757  0.2461  0.1636
 6699TIP3   OH241655   5.770   4.728   1.659  0.0380 -0.6230 -0.3627
 6699TIP3    H141656   5.742   4.724   1.568 -0.2906  0.8108 -0.3437
 6699TIP3    H241657   5.786   4.821   1.676  0.4197 -0.8990  0.9463
 6700TIP3   OH241658   5.162   1.176   8.509  0.0113  0.2925  0.3879
 6700TIP3    H141659   5.246   1.142   8.479  0.3642 -0.1299  1.7891
 6700TIP3    H241660   5.108   1.180   8.430  0.2586 -2.5762 -0.0420
 6701TIP3   OH241661   0.790   5.211   1.775 -0.2181  0.0245  0.2769
 6701TIP3    H141662   0.831   5.128   1.799 -1.1904 -0.4149  0.4759
 6701TIP3    H241663   0.858   5.277   1.791  0.5698 -0.7243  0.1013
 6702TIP3   OH241664   6.056   1.663   8.171 -0.1670  0.1540  0.1026
 6702TIP3    H141665   6.115   1.678   8.245  0.2218  1.9262 -0.5035
 6702TIP3    H241666   6.093   1.589   8.124  0.8944  0.4730  0.4161
 6703TIP3   OH241667   4.478   5.097   8.641 -1.2317 -0.0742  0.0287
 6703TIP3    H141668   4.519   5.098   8.728 -2.3289 -0.3093  0.5644
 6703TIP3    H241669   4.460   5.189   8.622 -1.6961 -0.0807  0.4080
 6704TIP3   OH241670   6.293   0.117   8.502  0.2461 -0.3145 -0.2299
 6704TIP3    H141671   6.387   0.125   8.486  0.1474 -0.8039 -1.1430
 6704TIP3    H241672   6.258   0.079   8.421 -0.4937 -1.7325  0.7051
 6705TIP3   OH241673   4.289   4.432   2.042 -0.2901  0.4099  0.1742
 6705TIP3    H141674   4.339   4.387   2.110  0.1153  1.3120  0.4839
 6705TIP3    H241675   4.210   4.463   2.086 -1.4469 -1.4752 -0.4318
 6706TIP3   OH241676   5.355   1.383   0.734 -0.1456  0.6381  0.0289
 6706TIP3    H141677   5.278   1.326   0.732  0.6157 -0.4109 -0.1382
 6706TIP3    H241678   5.396   1.371   0.649  1.9631 -1.3524  1.2067
 6707TIP3   OH241679   4.851   6.712   3.012  0.0199  0.3983  0.0982
 6707TIP3    H141680   4.831   6.619   2.996 -2.2709 -0.0226  4.0723
 6707TIP3    H241681   4.944   6.712   3.035  0.0538 -0.9485  0.0603
 6708TIP3   OH241682   0.181   3.560   1.116 -0.2209 -0.2151 -0.1326
 6708TIP3    H141683   0.249   3.499   1.088  0.4024  0.5815 -0.4252
 6708TIP3    H241684   0.157   3.607   1.036 -0.2352  0.3454  0.1906
 6709TIP3   OH241685   4.490   0.754   7.785  0.4585  0.0500  0.3922
 6709TIP3    H141686   4.461   0.710   7.705  0.3575  1.1870 -0.2203
 6709TIP3    H241687   4.554   0.694   7.823  1.1711 -0.1169 -1.0122
 6710TIP3   OH241688   0.939   4.218   8.676  0.4204  0.1267  0.0539
 6710TIP3    H141689   0.913   4.161   8.748  0.4790  1.5840  1.2953
 6710TIP3    H241690   0.937   4.306   8.714 -2.0154  1.2805 -2.3868
 6711TIP3   OH241691   1.006   0.084   8.488  0.0653  0.5467 -0.6081
 6711TIP3    H141692   0.973  -0.001   8.459 -0.2114  1.0417 -1.8101
 6711TIP3    H241693   0.928   0.139   8.497  0.4058  1.3239 -2.1100
 6712TIP3   OH241694   3.563   4.518   0.273 -0.0297  0.0538  0.2687
 6712TIP3    H141695   3.528   4.456   0.209  0.4848 -2.2641  2.0781
 6712TIP3    H241696   3.605   4.586   0.221  1.3057 -2.2564 -1.8963
 6713TIP3   OH241697   0.722   0.601   0.513 -0.1343  0.0361 -0.9314
 6713TIP3    H141698   0.760   0.522   0.475 -0.4547 -0.6702  0.1758
 6713TIP3    H241699   0.777   0.672   0.481  1.9139 -0.9002  0.3013
 6714TIP3   OH241700   1.733   3.070   8.313 -0.1807 -0.6434  0.5653
 6714TIP3    H141701   1.787   3.146   8.332 -0.2599 -0.4163 -0.0704
 6714TIP3    H241702   1.671   3.066   8.385 -1.8978  1.4962 -0.6350
 6715TIP3   OH241703   0.791   5.868   7.252  0.4000 -0.2705  0.1781
 6715TIP3    H141704   0.768   5.791   7.305 -1.4402 -0.8903 -1.3798
 6715TIP3    H241705   0.838   5.832   7.177 -1.5731 -0.1294 -1.2128
 6716TIP3   OH241706   2.384   6.662   8.599  0.2129  0.2346 -0.1908
 6716TIP3    H141707   2.338   6.741   8.627  0.0730  0.8053 -1.9242
 6716TIP3    H241708   2.435   6.635   8.676 -0.6982  1.2858  0.8141
 6717TIP3   OH241709   1.605   3.250   3.269 -0.1925 -0.2171 -0.0632
 6717TIP3    H141710   1.524   3.300   3.262 -0.3802 -0.6866 -1.6087
 6717TIP3    H241711   1.670   3.302   3.221  0.2291 -0.2453  0.4674
 6718TIP3   OH241712   5.677   2.269   0.127  0.1954  0.1464  0.3955
 6718TIP3    H141713   5.644   2.348   0.084  0.8955 -0.0143 -0.4450
 6718TIP3    H241714   5.769   2.265   0.104 -0.0311 -1.4443 -0.3910
 6719TIP3   OH241715   5.478   2.795   0.085  0.1940 -0.1441 -0.5376
 6719TIP3    H141716   5.517   2.852   0.151 -0.4440 -0.4752  0.1536
 6719TIP3    H241717   5.400   2.842   0.055  0.1226 -0.2768 -0.5645
 6720TIP3   OH241718   3.682   5.985   2.328 -0.4132 -0.5999 -0.6032
 6720TIP3    H141719   3.590   5.971   2.352 -0.3381 -0.2864 -0.1216
 6720TIP3    H241720   3.731   5.945   2.400 -0.1821  0.2117 -0.2978
 6721TIP3   OH241721   2.672   3.394   2.727 -0.2581  0.0094 -0.0732
 6721TIP3    H141722   2.623   3.355   2.654 -1.2996  0.1842  0.5117
 6721TIP3    H241723   2.760   3.358   2.718 -0.5410 -0.4962 -1.0247
 6722TIP3   OH241724   2.919   3.504   1.399  0.3641  0.0315 -0.1002
 6722TIP3    H141725   2.833   3.468   1.378  1.0291 -0.9768 -1.1994
 6722TIP3    H241726   2.926   3.496   1.494 -0.6835 -0.0027 -0.0128
 6723TIP3   OH241727   4.971   3.101   1.615  0.4594  0.9003  0.1734
 6723TIP3    H141728   4.955   3.105   1.709 -0.0182 -0.3366  0.1557
 6723TIP3    H241729   5.059   3.139   1.604 -0.4680  3.4076  0.8017
 6724TIP3   OH241730   4.078   0.351   1.444 -0.1811 -0.0087  0.2432
 6724TIP3    H141731   4.139   0.279   1.427 -0.6375 -0.5756  0.9371
 6724TIP3    H241732   4.054   0.383   1.358  0.9352  0.0886 -0.0469
 6725TIP3   OH241733   2.484   5.911   0.021 -0.6488 -0.4522 -0.0716
 6725TIP3    H141734   2.511   5.912  -0.071 -1.7329 -1.1202 -0.4111
 6725TIP3    H241735   2.465   6.003   0.042  0.3047 -0.1952 -0.2847
 6726TIP3   OH241736   5.190   4.690   2.372  0.6049  0.4635  0.2112
 6726TIP3    H141737   5.187   4.607   2.324 -0.4873  0.4231  0.3179
 6726TIP3    H241738   5.181   4.664   2.464  0.1954  0.6948  0.2399
 6727TIP3   OH241739   3.095   2.177   2.224 -0.0161 -0.5156  0.1946
 6727TIP3    H141740   3.011   2.218   2.206  0.0822 -0.3872  0.0290
 6727TIP3    H241741   3.105   2.184   2.319 -0.3765 -0.8931  0.2651
 6728TIP3   OH241742   5.122   3.750   2.293 -0.1299  0.1796 -0.1593
 6728TIP3    H141743   5.147   3.658   2.306  0.0205 -0.2613 -2.9902
 6728TIP3    H241744   5.058   3.747   2.223 -0.0746  2.2786 -0.3440
 6729TIP3   OH241745   2.661   6.295   0.966  0.3643  0.1472 -0.0230
 6729TIP3    H141746   2.703   6.251   0.892  0.5357 -0.5259  0.4632
 6729TIP3    H241747   2.577   6.325   0.931  1.4493  2.0407 -1.1767
 6730TIP3   OH241748   1.320   6.236   6.951 -0.2494  0.0494  0.0355
 6730TIP3    H141749   1.293   6.214   7.040 -1.0927 -1.8791 -0.6320
 6730TIP3    H241750   1.378   6.164   6.926 -1.3053 -0.3050 -1.5170
 6731TIP3   OH241751   3.772   0.044   0.196  0.6516 -0.1303  0.3548
 6731TIP3    H141752   3.715   0.121   0.202  0.3188 -0.4447  1.6986
 6731TIP3    H241753   3.851   0.070   0.244  1.5405  0.1897 -1.2250
 6732TIP3   OH241754   1.248   6.563   2.341  0.4280 -0.6751  0.0717
 6732TIP3    H141755   1.226   6.506   2.414  0.1134 -0.4348  0.1677
 6732TIP3    H241756   1.212   6.648   2.365 -0.1469 -0.7183 -0.5869
 6733TIP3   OH241757   1.519   4.625   7.405  0.2130 -0.6863 -0.1945
 6733TIP3    H141758   1.467   4.705   7.413 -0.9015 -1.3636 -0.4682
 6733TIP3    H241759   1.455   4.556   7.391  1.1984 -1.5454 -0.5979
 6734TIP3   OH241760   2.628   4.033   3.007 -0.3636  0.0993 -0.2381
 6734TIP3    H141761   2.681   4.072   2.937  1.0296 -1.7188 -0.2506
 6734TIP3    H241762   2.677   4.050   3.087 -0.0969 -0.9609 -0.1605
 6735TIP3   OH241763   4.800   2.035   0.330 -0.3890 -0.2965 -0.0738
 6735TIP3    H141764   4.808   2.046   0.235  0.7876 -0.6282 -0.0200
 6735TIP3    H241765   4.870   1.974   0.353  0.5738  1.2656  1.2766
 6736TIP3   OH241766   2.972   1.708   1.101 -0.4714  0.0330  0.2260
 6736TIP3    H141767   2.942   1.778   1.042  0.2022 -0.3957 -0.6524
 6736TIP3    H241768   3.037   1.660   1.050 -1.0479 -1.3625  0.7473
 6737TIP3   OH241769   3.460   2.186   1.944  0.0492  0.1548  0.6233
 6737TIP3    H141770   3.395   2.140   1.998 -0.1347 -1.0753 -0.6020
 6737TIP3    H241771   3.540   2.181   1.996  0.3657 -2.7420  0.0449
 6738TIP3   OH241772   1.805   0.337   1.583  0.2011  0.1857 -0.0021
 6738TIP3    H141773   1.732   0.398   1.584 -0.5983 -0.7464  0.1096
 6738TIP3    H241774   1.790   0.282   1.506  1.7248  1.0566 -0.9665
 6739TIP3   OH241775   4.064   2.294   8.532  0.4058  0.5732  0.4309
 6739TIP3    H141776   4.140   2.236   8.536  0.1510  0.1239 -0.7463
 6739TIP3    H241777   4.015   2.276   8.612  0.3542 -0.8328  0.1016
 6740TIP3   OH241778   2.107   1.089   1.638 -0.1804  0.3405  0.4791
 6740TIP3    H141779   2.173   1.027   1.671  1.2580  1.5701  0.0234
 6740TIP3    H241780   2.113   1.164   1.697 -0.4448  0.8918 -0.1803
 6741TIP3   OH241781   1.747   6.155   8.761 -0.3688  0.0549  0.4324
 6741TIP3    H141782   1.754   6.219   8.831  0.0068  1.6057 -0.9650
 6741TIP3    H241783   1.837   6.131   8.741 -0.3827  0.7374 -0.4917
 6742TIP3   OH241784   1.777   5.047   1.213 -0.0996  0.2577  0.2719
 6742TIP3    H141785   1.700   5.037   1.270  0.8516  3.1531  2.3224
 6742TIP3    H241786   1.844   4.991   1.253 -0.3364 -0.1354  0.1206
 6743TIP3   OH241787   0.227   4.067   1.838 -0.2634  0.2915 -0.1072
 6743TIP3    H141788   0.288   4.108   1.900 -1.2879 -0.1332  1.2387
 6743TIP3    H241789   0.243   3.973   1.848  0.7440  0.2445 -1.7797
 6744TIP3   OH241790   3.129   0.850   1.346 -0.3867 -0.3444  0.3148
 6744TIP3    H141791   3.051   0.813   1.305  0.1355 -1.6676  0.4797
 6744TIP3    H241792   3.202   0.806   1.304  0.4992  2.8148 -1.8316
 6745TIP3   OH241793   2.502   0.690   0.224 -0.5025 -0.0471 -0.8164
 6745TIP3    H141794   2.579   0.651   0.182  0.3054  0.9841 -0.3320
 6745TIP3    H241795   2.428   0.655   0.175  0.3048 -0.5786 -1.6940
 6746TIP3   OH241796   3.374   2.824   1.392  0.0988 -0.1403 -0.2462
 6746TIP3    H141797   3.284   2.855   1.400 -0.4777 -1.0383 -2.6293
 6746TIP3    H241798   3.420   2.867   1.464 -2.1842  0.4310  0.9662
 6747TIP3   OH241799   2.092   5.357   1.025  0.2218 -0.0866 -0.0065
 6747TIP3    H141800   2.176   5.313   1.009  0.1479 -1.5120  2.8497
 6747TIP3    H241801   2.115   5.441   1.064  0.3265 -0.4372  0.6882
 6748TIP3   OH241802   0.640   1.016   8.426 -0.3417  0.1031  0.5782
 6748TIP3    H141803   0.589   0.969   8.359 -1.2932 -1.0749  2.0626
 6748TIP3    H241804   0.663   1.099   8.385  1.4930 -1.5848 -2.2459
 6749TIP3   OH241805   4.437   2.319   0.567  0.2617  0.2476 -0.0771
 6749TIP3    H141806   4.474   2.277   0.490 -0.1993 -0.3906  0.0429
 6749TIP3    H241807   4.358   2.269   0.586  0.0408  0.7813  0.4451
 6750TIP3   OH241808   5.898   5.596   1.308 -0.1842 -0.1925  0.2679
 6750TIP3    H141809   5.911   5.643   1.226  0.4829 -1.5457 -0.4429
 6750TIP3    H241810   5.808   5.564   1.304 -0.3448  0.2509  0.3397
 6751TIP3   OH241811   3.394   6.307   7.907 -0.2850 -0.6966  0.2703
 6751TIP3    H141812   3.373   6.352   7.989  0.1882  0.5871 -0.2750
 6751TIP3    H241813   3.311   6.303   7.860 -0.0696  1.1135 -0.3522
 6752TIP3   OH241814   3.929   0.270   8.691 -0.0259 -0.3198  0.4229
 6752TIP3    H141815   3.943   0.339   8.756  0.0149  0.5322 -0.4680
 6752TIP3    H241816   4.014   0.259   8.649 -0.1210 -0.6615  0.3157
 6753TIP3   OH241817   4.259   3.482   0.566 -0.7447  0.5674 -0.1827
 6753TIP3    H141818   4.330   3.525   0.616  0.5344  0.0689 -1.4921
 6753TIP3    H241819   4.268   3.518   0.478 -1.1600 -0.6527 -0.7326
 6754TIP3   OH241820   2.685   3.695   1.821 -0.3924  0.1265 -0.2557
 6754TIP3    H141821   2.642   3.701   1.736 -0.6516 -1.1034 -0.2314
 6754TIP3    H241822   2.734   3.777   1.829  1.1435 -0.4936 -2.4069
 6755TIP3   OH241823   5.299   2.289   1.798  0.8211  0.3288 -0.5258
 6755TIP3    H141824   5.392   2.315   1.801  0.4107  2.8084 -3.7509
 6755TIP3    H241825   5.252   2.364   1.834 -0.0181 -0.4735  0.0888
 6756TIP3   OH241826   5.295   6.296   2.481  0.3486  0.1814  0.3925
 6756TIP3    H141827   5.336   6.220   2.439 -0.7293 -0.2780  0.1312
 6756TIP3    H241828   5.223   6.260   2.533  0.9541  0.8631  1.7462
 6757TIP3   OH241829   2.288   3.267   1.400 -0.2471 -0.3988  0.0778
 6757TIP3    H141830   2.257   3.181   1.371 -0.8803 -0.5224  1.0984
 6757TIP3    H241831   2.275   3.323   1.323 -0.0062 -1.1655 -0.5350
 6758TIP3   OH241832   1.810   1.499   1.947 -0.6173 -0.7669  0.0815
 6758TIP3    H141833   1.821   1.569   2.012  0.5247 -0.2701 -0.6254
 6758TIP3    H241834   1.716   1.500   1.927 -0.9196 -0.6483  1.4015
 6759TIP3   OH241835   4.055   5.750   8.352  0.1679  0.4150  0.1580
 6759TIP3    H141836   4.101   5.694   8.289  1.1980  3.3987 -1.9659
 6759TIP3    H241837   3.968   5.763   8.314  0.4089  1.3187 -0.1134
 6760TIP3   OH241838   4.350   2.981   7.206  0.2044 -0.1111  0.6223
 6760TIP3    H141839   4.387   3.046   7.266  0.2286  1.3525 -0.8774
 6760TIP3    H241840   4.269   3.022   7.174  0.3010 -0.7525 -0.4741
 6761TIP3   OH241841   6.268   5.973   1.910  0.1586 -0.2651 -0.2096
 6761TIP3    H141842   6.284   6.028   1.987  1.1632  0.4610 -0.9169
 6761TIP3    H241843   6.289   5.884   1.939 -1.4053 -0.3239  0.9276
 6762TIP3   OH241844   5.522   2.736   2.862 -0.1492 -0.1949  0.5561
 6762TIP3    H141845   5.600   2.708   2.910 -0.6196 -1.5833  0.5545
 6762TIP3    H241846   5.472   2.787   2.926  0.3051 -0.1116  0.8494
 6763TIP3   OH241847   3.850   5.281   1.855 -0.2411 -0.1320 -0.1345
 6763TIP3    H141848   3.817   5.274   1.944  1.4836 -0.7648  0.4966
 6763TIP3    H241849   3.926   5.223   1.853  1.5912  2.1406 -1.1054
 6764TIP3   OH241850   6.311   6.041   0.397 -1.0566 -0.0695 -0.2230
 6764TIP3    H141851   6.316   5.968   0.335  1.2806  0.0510 -0.2645
 6764TIP3    H241852   6.244   6.099   0.361  0.3890  0.1272 -2.8115
 6765TIP3   OH241853   1.193   5.041   1.159  0.6221  0.5060  0.6504
 6765TIP3    H141854   1.211   5.021   1.067  3.2859  1.3991  0.8847
 6765TIP3    H241855   1.109   4.998   1.177 -1.2096  2.2474 -2.7749
 6766TIP3   OH241856   6.225   6.780   3.241 -0.5433  0.2563 -0.4120
 6766TIP3    H141857   6.183   6.853   3.195 -1.8960 -0.0937  0.2130
 6766TIP3    H241858   6.307   6.816   3.274 -1.4945  1.7160  0.4650
 6767TIP3   OH241859   0.397   0.677   0.267 -0.3663  0.1244 -0.1100
 6767TIP3    H141860   0.367   0.599   0.314  0.7005  0.5528  1.3423
 6767TIP3    H241861   0.365   0.750   0.320  0.0375  0.6427 -0.5735
 6768TIP3   OH241862   1.799   3.837   2.238  0.4769  0.4620  0.6799
 6768TIP3    H141863   1.733   3.892   2.280  1.1577  1.4690  0.4637
 6768TIP3    H241864   1.749   3.773   2.187 -0.3302  0.3888  1.5443
 6769TIP3   OH241865   3.434   6.474   8.754 -0.2231  0.1352 -0.6014
 6769TIP3    H141866   3.422   6.538   8.825 -2.4826  0.0763 -0.8864
 6769TIP3    H241867   3.525   6.446   8.763  0.1256  1.6218  1.0182
 6770TIP3   OH241868   5.226   4.278   1.681  1.0332 -0.3949  0.9120
 6770TIP3    H141869   5.242   4.187   1.706 -1.7817 -1.5138 -0.8207
 6770TIP3    H241870   5.148   4.304   1.731  1.3525  0.7988  0.8280
 6771TIP3   OH241871   3.385   4.029   1.886 -0.0064 -0.2804 -0.3856
 6771TIP3    H141872   3.389   4.119   1.920  0.0028 -0.6920  0.7613
 6771TIP3    H241873   3.395   4.038   1.791  1.1104  0.8420 -0.1827
 6772TIP3   OH241874   4.933   1.644   8.556 -0.0320 -0.0770  0.0568
 6772TIP3    H141875   4.866   1.703   8.522  0.1649 -1.3109 -2.7400
 6772TIP3    H241876   5.015   1.680   8.524  0.1763 -1.2293 -0.7524
 6773TIP3   OH241877   2.057   4.806   8.619 -0.0216  0.9191  0.1357
 6773TIP3    H141878   2.038   4.818   8.712  1.6526  0.7081  0.5218
 6773TIP3    H241879   2.151   4.793   8.614 -0.1156  0.5940 -1.5693
 6774TIP3   OH241880   6.607   3.053   0.595 -0.1092  0.0220 -0.2405
 6774TIP3    H141881   6.664   3.072   0.521  0.7078  2.3333  0.8976
 6774TIP3    H241882   6.637   2.968   0.628  2.6266  1.0689  0.2160
 6775TIP3   OH241883   3.445   6.179   2.323  0.1184  0.4430 -0.1055
 6775TIP3    H141884   3.508   6.109   2.309 -1.8186 -1.3720 -0.2165
 6775TIP3    H241885   3.486   6.237   2.387  2.1716 -0.2414 -0.7341
 6776TIP3   OH241886   2.058   0.744   0.532  0.0044 -0.0146  0.0563
 6776TIP3    H141887   2.084   0.674   0.592  0.3604 -0.1578 -0.2612
 6776TIP3    H241888   2.137   0.761   0.480 -0.9638 -1.5505 -2.0316
 6777TIP3   OH241889   6.247   2.367   2.508  0.2772  0.0373  0.0240
 6777TIP3    H141890   6.342   2.351   2.505  0.3856  0.7583 -0.4310
 6777TIP3    H241891   6.238   2.461   2.497 -0.5403 -0.1143 -0.6736
 6778TIP3   OH241892   6.015   1.666   0.153  0.1801  0.2450  0.3033
 6778TIP3    H141893   6.073   1.624   0.217  0.0943  0.1706  0.3319
 6778TIP3    H241894   6.000   1.753   0.188  0.3449  0.2936  0.2526
 6779TIP3   OH241895   3.577   0.260   2.863 -0.0393  0.0270 -0.0528
 6779TIP3    H141896   3.616   0.184   2.906 -0.7143 -0.0037  0.5220
 6779TIP3    H241897   3.650   0.302   2.817  0.3724 -0.8637 -0.2357
 6780TIP3   OH241898   3.612   4.147   0.239 -0.0797 -0.1632  0.1737
 6780TIP3    H141899   3.655   4.228   0.211  1.1966 -0.9056 -0.1375
 6780TIP3    H241900   3.600   4.158   0.334  1.2582 -0.1022  0.3635
 6781TIP3   OH241901   5.856   1.964   0.634  0.2522  0.2773 -0.6937
 6781TIP3    H141902   5.797   1.993   0.703 -1.1184  0.9461 -2.0870
 6781TIP3    H241903   5.929   2.025   0.638  0.3833  0.0600  0.4068
 6782TIP3   OH241904   2.811   0.703   2.688 -0.5119  0.1596 -0.4058
 6782TIP3    H141905   2.861   0.780   2.715  1.1503 -1.1587  0.4532
 6782TIP3    H241906   2.867   0.660   2.623  0.8952 -2.7611  2.4378
 6783TIP3   OH241907   2.891   5.826   1.713  0.5691 -0.1220 -0.4948
 6783TIP3    H141908   2.969   5.808   1.766 -0.5714 -0.7097  1.0387
 6783TIP3    H241909   2.915   5.797   1.625  2.1633 -0.0494 -0.1264
 6784TIP3   OH241910   2.404   0.107   7.290 -0.2111  0.2135  0.5414
 6784TIP3    H141911   2.407   0.082   7.197 -0.7222 -0.3135  0.6619
 6784TIP3    H241912   2.312   0.098   7.314  0.0978 -0.8250  1.4111
 6785TIP3   OH241913   6.407   3.165   2.907  0.6181 -0.1061 -0.0230
 6785TIP3    H141914   6.387   3.075   2.881  2.2237 -0.0791 -1.5410
 6785TIP3    H241915   6.351   3.181   2.983 -3.7246 -0.5542 -2.7676
 6786TIP3   OH241916   6.361   6.746   0.349 -0.0587 -0.2806  0.0351
 6786TIP3    H141917   6.292   6.812   0.342  0.4688  0.1598 -1.2513
 6786TIP3    H241918   6.327   6.670   0.301  0.3556 -0.0527 -0.6259
 6787TIP3   OH241919   5.427   2.665   0.527 -0.2696 -0.8361 -0.1477
 6787TIP3    H141920   5.468   2.587   0.565  0.6414 -0.7666 -0.9580
 6787TIP3    H241921   5.334   2.656   0.548  0.0622 -1.2990  1.2092
 6788TIP3   OH241922   3.879   5.256   8.252  0.0621  0.0966  0.1904
 6788TIP3    H141923   3.793   5.272   8.214  0.1565 -0.5802 -0.3350
 6788TIP3    H241924   3.941   5.273   8.180  0.5200  2.2401  1.0133
 6789TIP3   OH241925   0.376   6.536   0.562  0.2598  0.1999 -0.0092
 6789TIP3    H141926   0.386   6.588   0.482 -1.1986 -1.0913 -1.0895
 6789TIP3    H241927   0.410   6.450   0.540 -0.8436 -0.3868  0.4838
 6790TIP3   OH241928   0.454   4.853   1.691 -0.5440  0.0159 -0.0559
 6790TIP3    H141929   0.387   4.885   1.630  0.1270  1.6111  0.0019
 6790TIP3    H241930   0.486   4.932   1.736  1.4439 -0.6687 -0.1560
 6791TIP3   OH241931   3.868   1.673   0.613  0.0974 -0.1625 -0.2925
 6791TIP3    H141932   3.793   1.635   0.569 -0.7739  0.1357  0.8828
 6791TIP3    H241933   3.941   1.616   0.589 -0.7733 -1.3152 -0.2974
 6792TIP3   OH241934   6.033   3.855   1.333  0.9872  0.0392 -0.2669
 6792TIP3    H141935   6.007   3.772   1.372  3.0873  0.2498  1.7935
 6792TIP3    H241936   5.960   3.915   1.351  0.4805 -0.7450  0.3170
 6793TIP3   OH241937   3.165   0.718   2.869  0.4953  0.1611  0.2611
 6793TIP3    H141938   3.083   0.669   2.865 -0.7140  2.0893 -0.5757
 6793TIP3    H241939   3.192   0.713   2.960  0.6769 -2.3542  0.1226
 6794TIP3   OH241940   1.564   3.551   8.478 -0.1312  0.4492  0.7759
 6794TIP3    H141941   1.576   3.580   8.388  2.1223  0.9475  1.1686
 6794TIP3    H241942   1.509   3.618   8.518  1.2226  1.8021  0.4792
 6795TIP3   OH241943   4.849   6.314   0.426 -0.3367 -0.0720  0.4961
 6795TIP3    H141944   4.773   6.268   0.463  0.3615 -0.8972  0.9309
 6795TIP3    H241945   4.894   6.351   0.502 -0.7151  1.0936  0.1768
 6796TIP3   OH241946   1.453   6.065   8.092 -0.1899 -0.5541  0.0310
 6796TIP3    H141947   1.505   6.011   8.152 -1.5212 -0.0493  1.7151
 6796TIP3    H241948   1.367   6.022   8.091 -0.8577  0.7371  0.3127
 6797TIP3   OH241949   0.049   4.611   1.523 -0.3793 -0.5177  0.0641
 6797TIP3    H141950   0.109   4.573   1.458 -0.0377  0.8372 -0.4372
 6797TIP3    H241951  -0.004   4.537   1.552  1.8103 -1.8643  0.8513
 6798TIP3   OH241952   6.372   1.018   1.607 -0.1365  0.1328 -0.4967
 6798TIP3    H141953   6.394   1.085   1.673 -0.7114  0.3227 -0.4929
 6798TIP3    H241954   6.285   1.043   1.576  0.4419  0.5135 -1.9149
 6799TIP3   OH241955   3.425   4.050   1.605  0.0200  0.1038 -0.0279
 6799TIP3    H141956   3.503   4.000   1.628 -0.5602 -0.6978  0.2742
 6799TIP3    H241957   3.439   4.078   1.514  0.9562  0.5826  0.2555
 6800TIP3   OH241958   0.321   0.711   1.808  0.1237  0.0053  0.0309
 6800TIP3    H141959   0.367   0.771   1.750  1.7895  0.2589  1.5045
 6800TIP3    H241960   0.340   0.624   1.773 -2.7403  0.2297 -2.4254
 6801TIP3   OH241961   0.529   4.297   0.263  0.2971  0.8909  0.4145
 6801TIP3    H141962   0.533   4.392   0.256 -0.6476  0.8856 -0.3998
 6801TIP3    H241963   0.437   4.275   0.248  0.4720 -0.1461  0.7298
 6802TIP3   OH241964   1.619   4.678   1.799  0.2787 -0.1449  0.0159
 6802TIP3    H141965   1.714   4.674   1.805  0.1885 -0.1420  2.2791
 6802TIP3    H241966   1.599   4.771   1.789  0.4818 -0.0403  0.5574
 6803TIP3   OH241967   2.511   0.854   1.775  0.1696  0.1805  0.2704
 6803TIP3    H141968   2.545   0.766   1.791 -0.8243 -0.0418  1.2524
 6803TIP3    H241969   2.545   0.906   1.848  2.1998  1.0694 -1.2012
 6804TIP3   OH241970   4.330   4.101   1.430 -0.1722  0.8700 -0.0193
 6804TIP3    H141971   4.390   4.116   1.503 -0.1421 -0.0960  0.1742
 6804TIP3    H241972   4.373   4.140   1.354  0.5840  0.4062  0.1644
 6805TIP3   OH241973   3.273   5.040   2.723  0.8612 -0.0061  0.2620
 6805TIP3    H141974   3.322   5.121   2.725  1.0945 -0.1516  0.4890
 6805TIP3    H241975   3.203   5.055   2.659  0.7827  0.4396  0.4507
 6806TIP3   OH241976   3.437   0.567   3.212  0.4427 -0.5931 -0.1293
 6806TIP3    H141977   3.464   0.476   3.200  1.7201 -0.3173  0.4797
 6806TIP3    H241978   3.519   0.615   3.220 -0.1657  0.1199  3.1208
 6807TIP3   OH241979   6.256   4.939   0.493 -0.6356  0.4735  0.6414
 6807TIP3    H141980   6.311   4.864   0.467  0.5964  0.9443  1.8051
 6807TIP3    H241981   6.237   4.984   0.411 -0.2830 -0.3718  0.0810
 6808TIP3   OH241982   1.966   4.601   7.148  0.3127 -0.0044 -0.1294
 6808TIP3    H141983   2.022   4.552   7.087  0.9705 -0.9353  1.1809
 6808TIP3    H241984   1.916   4.534   7.194 -1.4370  0.7785 -0.7959
 6809TIP3   OH241985   5.911   3.482   8.037  0.1331 -0.2548 -0.1580
 6809TIP3    H141986   5.860   3.546   7.987  0.0591 -1.3724 -1.6037
 6809TIP3    H241987   5.956   3.431   7.970  1.1646 -0.9202  1.0053
 6810TIP3   OH241988   0.337   1.857   0.185 -0.1882 -0.1632  0.1501
 6810TIP3    H141989   0.408   1.919   0.205 -0.3643  1.4918 -3.4415
 6810TIP3    H241990   0.259   1.896   0.225  0.3338 -0.1759  1.2099
 6811TIP3   OH241991   6.587   6.369   7.050 -0.1532 -0.6437  0.1021
 6811TIP3    H141992   6.676   6.404   7.052 -0.2027 -0.5554  2.0162
 6811TIP3    H241993   6.531   6.446   7.062 -0.4242 -0.8754  0.3274
 6812TIP3   OH241994   5.333   2.709   2.294 -0.1042 -0.0420 -0.8052
 6812TIP3    H141995   5.257   2.767   2.295 -0.7425 -0.8834 -0.3498
 6812TIP3    H241996   5.405   2.765   2.324 -0.9890  0.1423  1.1073
 6813TIP3   OH241997   0.836   5.665   1.698  0.0121  0.5429 -0.5006
 6813TIP3    H141998   0.791   5.731   1.646 -0.0883  0.9096  0.0412
 6813TIP3    H241999   0.795   5.670   1.785  0.0700 -0.1630 -0.4252
 6814TIP3   OH242000   6.357   1.989   7.668 -0.5641  0.1618  0.3414
 6814TIP3    H142001   6.280   2.021   7.621 -0.8349  0.0668  0.7227
 6814TIP3    H242002   6.346   1.894   7.671  0.3064 -0.0112 -0.9116
 6815TIP3   OH242003   5.025   2.986   7.933 -0.3750 -0.0785  0.3383
 6815TIP3    H142004   5.000   2.931   7.859 -1.3245  0.4140  0.2716
 6815TIP3    H242005   4.966   2.960   8.004  0.9465 -0.9987  1.1519
 6816TIP3   OH242006   4.076   0.568   1.110 -0.0377  0.5948 -0.1561
 6816TIP3    H142007   4.084   0.480   1.074 -0.2853  0.5336 -0.0601
 6816TIP3    H242008   4.167   0.596   1.122  0.2616 -1.4062  4.0835
 6817TIP3   OH242009   0.479   0.107   1.980 -0.3383 -0.2393  0.2704
 6817TIP3    H142010   0.563   0.110   1.935  0.0722  0.6030  1.0615
 6817TIP3    H242011   0.451   0.198   1.984 -1.1385 -0.4829  0.3015
 6818TIP3   OH242012   4.531   5.947   0.261 -0.3526 -0.0702 -0.4696
 6818TIP3    H142013   4.599   5.920   0.199 -0.2029  1.0750 -0.8238
 6818TIP3    H242014   4.488   6.022   0.219 -0.7534  0.2431  0.4711
 6819TIP3   OH242015   3.538   5.545   1.905  0.4330  0.0197  0.1258
 6819TIP3    H142016   3.593   5.524   1.981  2.2047 -0.4432 -1.2012
 6819TIP3    H242017   3.558   5.637   1.886 -1.4110  0.6946  1.2873
 6820TIP3   OH242018   0.569   5.691   2.522  0.1321  0.2432 -0.0905
 6820TIP3    H142019   0.583   5.697   2.617 -2.0999 -3.5137  0.6892
 6820TIP3    H242020   0.600   5.604   2.498  0.2279  0.9259 -2.7962
 6821TIP3   OH242021   3.632   5.424   2.133  0.5192 -0.0330 -0.0112
 6821TIP3    H142022   3.557   5.419   2.192  0.9667  0.1818  0.5837
 6821TIP3    H242023   3.678   5.341   2.145  0.3194 -0.2106 -0.4566
 6822TIP3   OH242024   4.665   6.107   0.462 -0.3916  0.0431 -0.0982
 6822TIP3    H142025   4.758   6.096   0.439 -0.2592  1.0212 -0.0694
 6822TIP3    H242026   4.618   6.059   0.394  0.0362  1.8628 -1.7661
 6823TIP3   OH242027   5.338   1.843   0.011  0.3364 -0.0505 -0.2799
 6823TIP3    H142028   5.285   1.833  -0.068  1.0012  1.0148 -0.8925
 6823TIP3    H242029   5.302   1.780   0.073 -1.5397  0.5274 -0.7329
 6824TIP3   OH242030   4.380   2.443   8.518 -0.8153  0.1550  0.3346
 6824TIP3    H142031   4.395   2.356   8.482 -0.9513  0.5037 -0.5847
 6824TIP3    H242032   4.374   2.429   8.613 -0.5176 -0.7835  0.2226
 6825TIP3   OH242033   3.632   5.543   1.179  0.0452 -0.1347  0.1290
 6825TIP3    H142034   3.553   5.494   1.201  0.1942  0.2582  1.7077
 6825TIP3    H242035   3.691   5.479   1.140 -0.4171 -0.8063  0.5210
 6826TIP3   OH242036   2.164   2.394   8.239  0.0739  0.1742 -0.0558
 6826TIP3    H142037   2.258   2.394   8.258  0.3987  0.2733 -1.4963
 6826TIP3    H242038   2.122   2.382   8.324  1.4254 -1.9072  0.3873
 6827TIP3   OH242039   1.022   5.372   2.444  0.2917  0.5627  0.5542
 6827TIP3    H142040   0.961   5.299   2.439  1.5738 -0.7533  2.5836
 6827TIP3    H242041   1.003   5.415   2.528  0.8503  1.3459  0.3029
 6828TIP3   OH242042   5.685   3.613   7.070  0.3468  0.3080  0.1889
 6828TIP3    H142043   5.649   3.592   6.984  0.0694 -2.1293  0.8174
 6828TIP3    H242044   5.712   3.705   7.063  0.0442  0.2855 -2.3721
 6829TIP3   OH242045   1.366   0.278   0.360 -0.5147 -0.1466 -0.1187
 6829TIP3    H142046   1.347   0.217   0.289 -0.0019 -0.4520 -0.0046
 6829TIP3    H242047   1.439   0.331   0.328  0.7638 -1.3156  0.7368
 6830TIP3   OH242048   2.064   2.811   0.250  0.1600 -0.0287  0.0953
 6830TIP3    H142049   1.971   2.800   0.273  0.0990 -0.3178 -0.2664
 6830TIP3    H242050   2.088   2.727   0.211  0.7433 -0.1687  0.7428
 6831TIP3   OH242051   5.215   3.865   7.839  0.6473 -0.7879  0.3334
 6831TIP3    H142052   5.212   3.842   7.932 -0.9350 -1.1182  0.2352
 6831TIP3    H242053   5.125   3.888   7.818  1.1133 -0.0863 -0.9766
 6832TIP3   OH242054   3.632   2.017   1.275 -0.9372 -0.3394  0.0516
 6832TIP3    H142055   3.591   2.061   1.200 -0.7364 -0.8432 -0.3690
 6832TIP3    H242056   3.663   1.933   1.239  2.3657  0.8354 -0.2122
 6833TIP3   OH242057   3.285   0.034   7.642  0.1526 -0.6003  0.3500
 6833TIP3    H142058   3.320  -0.038   7.696 -1.0710  0.2981  2.4875
 6833TIP3    H242059   3.215   0.071   7.696  0.9485  2.4218 -0.5247
 6834TIP3   OH242060   2.958   0.763   1.651 -0.2667  0.1891 -0.3764
 6834TIP3    H142061   3.051   0.766   1.675  0.2320 -2.0217 -1.7916
 6834TIP3    H242062   2.914   0.731   1.730  0.5650 -1.3292 -0.4892
 6835TIP3   OH242063   1.524   3.160   7.570  0.5141 -0.0093 -0.6471
 6835TIP3    H142064   1.499   3.068   7.561  1.6041 -0.3454 -0.4236
 6835TIP3    H242065   1.503   3.199   7.485  4.0186 -1.4755 -2.3848
 6836TIP3   OH242066   4.905   0.616   2.788 -0.3721  0.7056 -0.0035
 6836TIP3    H142067   4.909   0.650   2.698 -1.3695 -0.0556 -0.3577
 6836TIP3    H242068   4.845   0.674   2.834 -0.4597  0.6503 -0.0463
 6837TIP3   OH242069   0.426   0.400   8.407  0.2935  0.2445  0.1888
 6837TIP3    H142070   0.489   0.451   8.357 -0.5671  0.8087 -0.3575
 6837TIP3    H242071   0.345   0.407   8.357  0.2323 -1.9825 -0.0979
 6838TIP3   OH242072   4.527   6.110   1.871  0.4457 -0.3666 -0.0990
 6838TIP3    H142073   4.574   6.037   1.911  0.5316 -1.2092 -1.6408
 6838TIP3    H242074   4.443   6.071   1.845 -0.1724  0.5222  0.5095
 6839TIP3   OH242075   4.323   6.393   2.071 -0.0295 -0.0416  0.0979
 6839TIP3    H142076   4.322   6.340   2.150 -1.5249  0.6150  0.5654
 6839TIP3    H242077   4.236   6.380   2.032  0.1487  0.8079 -0.6262
 6840TIP3   OH242078   6.541   6.744   2.059  0.1690 -0.2906 -0.3389
 6840TIP3    H142079   6.521   6.821   2.113  1.6258 -0.6645  0.8024
 6840TIP3    H242080   6.548   6.779   1.970 -1.2849  0.5234 -0.1595
 6841TIP3   OH242081   3.231   5.905   8.389 -1.0331 -0.7078 -0.1511
 6841TIP3    H142082   3.154   5.946   8.428 -1.1320 -0.7352 -0.3147
 6841TIP3    H242083   3.269   5.972   8.332  0.1542 -0.0390  1.3546
 6842TIP3   OH242084   4.007   1.139   3.129  0.2757 -0.0292  0.2625
 6842TIP3    H142085   3.944   1.135   3.057 -1.6589 -0.7081  1.9012
 6842TIP3    H242086   3.988   1.221   3.174  1.8322  0.6521 -0.2516
 6843TIP3   OH242087   6.554   6.542   1.347 -0.0048  0.0665 -0.4530
 6843TIP3    H142088   6.603   6.565   1.426 -0.4309  0.4702 -0.3012
 6843TIP3    H242089   6.464   6.569   1.366 -0.5275 -1.6664 -0.2968
 6844TIP3   OH242090   0.828   0.600   2.866  0.3436 -0.5924 -0.0091
 6844TIP3    H142091   0.905   0.642   2.827  1.1352 -0.7698  1.2992
 6844TIP3    H242092   0.758   0.664   2.855  0.8094 -0.1813 -0.6964
 6845TIP3   OH242093   5.591   1.802   0.642 -0.0967 -0.8461 -0.8393
 6845TIP3    H142094   5.641   1.883   0.641  1.0330 -1.5252 -1.6539
 6845TIP3    H242095   5.657   1.733   0.654 -0.8509 -1.7396 -1.6161
 6846TIP3   OH242096   5.604   6.036   8.470 -0.1172 -0.5052  0.1027
 6846TIP3    H142097   5.517   6.063   8.438  0.4472 -0.0994 -1.1707
 6846TIP3    H242098   5.586   5.960   8.525 -1.2869 -0.4486 -0.1592
 6847TIP3   OH242099   4.775   5.102   7.141  0.4028 -0.3822  0.2950
 6847TIP3    H142100   4.837   5.110   7.214  0.0608 -0.0589  0.5518
 6847TIP3    H242101   4.810   5.161   7.074 -0.1902  0.6138  0.8419
 6848TIP3   OH242102   3.322   5.388   7.851  0.3842  0.2558  0.0934
 6848TIP3    H142103   3.287   5.372   7.938  1.8930 -1.5663  0.4304
 6848TIP3    H242104   3.248   5.375   7.792 -0.6750  1.5889  1.0673
 6849TIP3   OH242105   6.054   0.492   1.435 -0.1338  0.7528  0.2986
 6849TIP3    H142106   5.962   0.507   1.414  0.0942 -0.6109 -2.1256
 6849TIP3    H242107   6.055   0.408   1.479  0.0201  0.1768 -0.7688
 6850TIP3   OH242108   5.986   2.213   2.895  0.2529 -0.6189  0.1497
 6850TIP3    H142109   5.950   2.296   2.924  0.3654 -1.2384  2.2402
 6850TIP3    H242110   5.955   2.203   2.805  0.5484  1.8222 -0.2963
 6851TIP3   OH242111   3.119   2.193   2.492  0.6076  0.6840  0.0928
 6851TIP3    H142112   3.205   2.167   2.525 -0.2635 -0.5274  1.5354
 6851TIP3    H242113   3.059   2.174   2.564 -0.8349  1.8406 -0.7470
 6852TIP3   OH242114   6.367   3.697   7.919 -0.1869  0.2616 -0.6585
 6852TIP3    H142115   6.288   3.744   7.889 -0.3778  0.7236  0.5314
 6852TIP3    H242116   6.400   3.655   7.840 -0.9819  1.0074 -1.4198
 6853TIP3   OH242117   4.548   3.065   3.058 -0.2638  0.2367  0.1450
 6853TIP3    H142118   4.553   2.992   2.996 -1.8117  0.3481 -0.1534
 6853TIP3    H242119   4.481   3.038   3.121 -3.4256  2.6621 -1.8448
 6854TIP3   OH242120   6.178   2.495   7.007  0.7935 -0.2696  0.7160
 6854TIP3    H142121   6.192   2.561   6.939  1.8814 -1.2389 -0.0399
 6854TIP3    H242122   6.097   2.451   6.981 -0.1939  1.0209  1.4742
 6855TIP3   OH242123   4.761   5.886   1.445 -0.0118 -0.6135  0.3369
 6855TIP3    H142124   4.848   5.867   1.410  0.3444 -0.5001  1.1509
 6855TIP3    H242125   4.777   5.914   1.535 -0.8926 -0.5813  0.4870
 6856TIP3   OH242126   3.402   5.697   8.297  0.0949 -0.0642 -0.0686
 6856TIP3    H142127   3.440   5.745   8.224  0.9244 -0.2793  0.2148
 6856TIP3    H242128   3.333   5.755   8.330 -1.6970 -0.8012 -2.2636
 6857TIP3   OH242129   3.413   0.281   8.738  0.1333  0.6147  0.4564
 6857TIP3    H142130   3.399   0.220   8.810 -0.8921 -0.1411 -0.3596
 6857TIP3    H242131   3.500   0.257   8.704 -0.1042 -0.1601  0.3680
 6858TIP3   OH242132   4.712   4.224   1.203 -0.2768  0.2638  0.0385
 6858TIP3    H142133   4.667   4.270   1.274 -1.2084  1.7469 -1.4328
 6858TIP3    H242134   4.803   4.252   1.211 -0.3899  0.4855  0.6045
 6859TIP3   OH242135   3.505   4.593   8.013 -0.2404 -0.8107  0.0932
 6859TIP3    H142136   3.423   4.641   7.998 -0.1690 -0.4835  0.7317
 6859TIP3    H242137   3.560   4.655   8.061  0.5729 -0.8460 -0.7651
 6860TIP3   OH242138   2.015   4.030   1.829 -0.2547  0.1450 -0.0269
 6860TIP3    H142139   2.093   3.986   1.795  0.9957  1.6983  0.6767
 6860TIP3    H242140   2.048   4.083   1.902 -1.6672  2.0838 -0.7177
 6861TIP3   OH242141   3.260   6.472   1.129 -0.0137  0.1097 -0.1195
 6861TIP3    H142142   3.264   6.427   1.045 -0.8518  0.8698 -0.5858
 6861TIP3    H242143   3.321   6.424   1.185 -1.5070 -2.1934 -0.3077
 6862TIP3   OH242144   2.303   2.197   1.558 -0.5860  0.2062  0.2739
 6862TIP3    H142145   2.227   2.174   1.504 -0.3553 -1.0191  0.4468
 6862TIP3    H242146   2.328   2.285   1.528 -1.3066  0.1138 -0.6440
 6863TIP3   OH242147   1.390   0.332   2.681  0.4202 -0.2631 -0.0265
 6863TIP3    H142148   1.370   0.425   2.679  0.2948 -0.2891 -0.0307
 6863TIP3    H242149   1.379   0.306   2.772  0.4642 -0.2704 -0.0235
 6864TIP3   OH242150   2.571   3.052   1.394 -0.6054  0.0558  1.0311
 6864TIP3    H142151   2.505   3.020   1.455 -0.4226 -0.4452  0.9781
 6864TIP3    H242152   2.635   2.981   1.389  0.2846  0.7956  1.5956
 6865TIP3   OH242153   5.286   0.641   0.968  0.3690 -0.0435 -0.3564
 6865TIP3    H142154   5.235   0.680   0.897 -0.9995  2.2798  1.7408
 6865TIP3    H242155   5.376   0.671   0.951  0.0704  0.4567 -1.1309
 6866TIP3   OH242156   1.764   4.514   2.588  0.8056 -0.1134  0.1998
 6866TIP3    H142157   1.776   4.420   2.597  2.3212  0.1917  2.0977
 6866TIP3    H242158   1.669   4.526   2.583  0.6053 -1.7467 -0.4442
 6867TIP3   OH242159   3.760   3.555   7.185 -0.5991 -0.0715 -0.3402
 6867TIP3    H142160   3.786   3.620   7.251  0.4844 -1.2187  0.4024
 6867TIP3    H242161   3.823   3.566   7.114  0.4347 -1.1472  0.3611
 6868TIP3   OH242162   4.990   4.958   8.433 -0.1801 -0.0382 -0.0628
 6868TIP3    H142163   4.936   5.036   8.447 -0.4973 -0.4599  1.1966
 6868TIP3    H242164   5.032   4.973   8.348 -0.6482  1.2569 -0.0913
 6869TIP3   OH242165   6.803   2.308   2.794 -0.5540  0.3302 -0.0268
 6869TIP3    H142166   6.743   2.344   2.858 -0.1692 -0.6542  0.9170
 6869TIP3    H242167   6.877   2.276   2.845  0.1835  0.3531 -1.0469
 6870TIP3   OH242168   3.692   6.283   2.726 -0.6121 -0.4212  0.0329
 6870TIP3    H142169   3.680   6.298   2.632 -2.5473  2.4870  0.6378
 6870TIP3    H242170   3.676   6.189   2.737  1.0713 -1.1501 -2.6596
 6871TIP3   OH242171   4.242   4.515   0.548  0.3017  0.4078  0.1818
 6871TIP3    H142172   4.235   4.536   0.455 -0.7767  0.0656  0.1679
 6871TIP3    H242173   4.336   4.509   0.565  0.5215  1.1021 -0.7379
 6872TIP3   OH242174   4.421   5.554   8.724  0.0681  0.3300 -0.4946
 6872TIP3    H142175   4.357   5.553   8.795  1.4150  0.6972  0.7734
 6872TIP3    H242176   4.418   5.643   8.690 -0.4834  0.1900 -0.8264
 6873TIP3   OH242177   3.583   4.677   2.106  0.4993 -0.3685 -0.2665
 6873TIP3    H142178   3.591   4.659   2.200 -1.1321 -1.9781 -0.3910
 6873TIP3    H242179   3.620   4.765   2.096  0.0131  0.1718  2.0070
 6874TIP3   OH242180   3.574   0.608   8.162 -0.3560 -0.5245 -0.0507
 6874TIP3    H142181   3.569   0.632   8.254  0.9667  1.8414 -0.5011
 6874TIP3    H242182   3.532   0.681   8.116  0.0500 -1.0913 -1.3584
 6875TIP3   OH242183   0.727   5.346   8.017  0.1358 -0.0117 -0.2737
 6875TIP3    H142184   0.733   5.254   7.988 -0.6251  0.5709 -2.5105
 6875TIP3    H242185   0.807   5.361   8.067  1.0409 -1.4720 -1.2063
 6876TIP3   OH242186   1.858   1.537   0.544  0.1920  0.0883  0.1503
 6876TIP3    H142187   1.820   1.610   0.495  2.2752  1.3527  0.2940
 6876TIP3    H242188   1.952   1.543   0.526  0.4612 -2.3238  0.5244
 6877TIP3   OH242189   2.273   1.502   0.137 -0.6515 -0.1394 -0.4590
 6877TIP3    H142190   2.211   1.467   0.201 -1.0858 -2.3379 -1.9596
 6877TIP3    H242191   2.356   1.459   0.158 -0.7553 -0.7354 -1.2227
 6878TIP3   OH242192   0.815   3.486   2.524  0.1383 -0.3490 -0.5463
 6878TIP3    H142193   0.735   3.438   2.545 -0.2950  0.3858 -0.4790
 6878TIP3    H242194   0.793   3.535   2.445  0.3753  0.2081 -0.2702
 6879TIP3   OH242195   3.160   1.049   8.504  0.1968 -0.1282  0.7128
 6879TIP3    H142196   3.254   1.039   8.521  0.5964  1.3443 -0.4041
 6879TIP3    H242197   3.149   1.143   8.486 -1.0214 -0.6499 -1.6574
 6880TIP3   OH242198   2.344   1.339   0.805 -0.1607  0.1072 -0.2473
 6880TIP3    H142199   2.286   1.291   0.746  1.1563  1.2852 -2.6283
 6880TIP3    H242200   2.293   1.416   0.831 -0.2306  0.3564 -1.0957
 6881TIP3   OH242201   4.222   6.175   0.692  0.4655 -0.3277  0.1754
 6881TIP3    H142202   4.181   6.089   0.701 -0.5382 -0.0971 -1.7425
 6881TIP3    H242203   4.149   6.236   0.684  1.1731  0.7065  1.2398
 6882TIP3   OH242204   2.801   2.521   8.475  0.4931  0.3293 -0.4367
 6882TIP3    H142205   2.862   2.594   8.465  1.8981 -0.8969 -1.2394
 6882TIP3    H242206   2.826   2.460   8.405  0.5377 -1.6982  1.2760
 6883TIP3   OH242207   4.506   3.904   8.585 -0.1532  0.1094  0.1337
 6883TIP3    H142208   4.438   3.949   8.537 -1.5717 -0.8462  1.1715
 6883TIP3    H242209   4.466   3.822   8.613  0.0329  1.2152  4.2122
 6884TIP3   OH242210   1.935   2.498   0.044 -0.5651 -0.3680  0.0830
 6884TIP3    H142211   2.021   2.518   0.079 -0.8222  1.0412 -0.0408
 6884TIP3    H242212   1.943   2.408   0.011  0.6202 -0.5263  0.7459
 6885TIP3   OH242213   1.882   1.283   2.153  0.5814 -0.3767 -0.0586
 6885TIP3    H142214   1.900   1.315   2.241  2.7289 -0.7187 -0.3276
 6885TIP3    H242215   1.885   1.361   2.098  1.6327 -0.4487 -0.1293
 6886TIP3   OH242216   2.422   0.371   8.239 -0.3318  0.0308 -0.2336
 6886TIP3    H142217   2.439   0.408   8.325 -0.8312 -1.7932  0.7014
 6886TIP3    H242218   2.369   0.437   8.194 -1.1850  0.4675  1.3422
 6887TIP3   OH242219   5.992   5.988   0.843 -0.2583 -0.5113  0.2207
 6887TIP3    H142220   6.055   6.008   0.774 -0.8782  1.0478  0.0565
 6887TIP3    H242221   6.009   5.897   0.866  0.2337 -0.9436 -1.7066
 6888TIP3   OH242222   3.624   4.563   8.429  0.0872  0.0381 -0.0310
 6888TIP3    H142223   3.612   4.485   8.375  0.0716  0.1915 -0.2494
 6888TIP3    H242224   3.543   4.613   8.418  0.2447  0.2637 -0.1866
 6889TIP3   OH242225   1.880   2.118   0.235  0.8090  0.0265  0.4087
 6889TIP3    H142226   1.892   2.132   0.141  0.8314 -0.7847  0.2873
 6889TIP3    H242227   1.963   2.147   0.274  0.7351  0.5270  0.1992
 6890TIP3   OH242228   3.868   6.357   7.811 -0.2158 -1.1246  0.0064
 6890TIP3    H142229   3.865   6.408   7.892  0.2921 -0.0421 -0.6382
 6890TIP3    H242230   3.829   6.272   7.835  1.4931 -1.4726  1.8249
 6891TIP3   OH242231   4.523   1.234   8.023  0.4595 -0.0400  0.3344
 6891TIP3    H142232   4.535   1.158   7.966 -0.4063 -0.2145  0.3650
 6891TIP3    H242233   4.562   1.307   7.975 -0.3716 -0.1607 -0.5581
 6892TIP3   OH242234   1.117   3.223   0.456 -0.0256  0.2198  0.8947
 6892TIP3    H142235   1.025   3.197   0.458 -0.7045  2.1046 -1.1862
 6892TIP3    H242236   1.119   3.307   0.502  0.1852  1.2246 -0.8653
 6893TIP3   OH242237   6.629   1.898   7.542  0.6588  0.1897 -0.2916
 6893TIP3    H142238   6.641   1.991   7.524 -0.2584  0.4170  0.2208
 6893TIP3    H242239   6.566   1.868   7.477 -1.1749  0.5754  1.2247
 6894TIP3   OH242240   0.836   0.537   2.043 -0.0445 -0.1680  0.3092
 6894TIP3    H142241   0.813   0.590   2.119 -0.6808  0.1540 -0.0972
 6894TIP3    H242242   0.930   0.548   2.034 -0.1822  1.0303  0.1461
 6895TIP3   OH242243   5.321   3.326   2.141  0.2519 -0.2963 -0.1938
 6895TIP3    H142244   5.244   3.340   2.196  0.2567  1.0428 -0.5011
 6895TIP3    H242245   5.289   3.338   2.052  0.6237 -0.6722 -0.3798
 6896TIP3   OH242246   4.939   2.403   0.154 -0.0194  0.6389 -0.1225
 6896TIP3    H142247   4.980   2.471   0.101 -0.6650  1.0992 -0.0395
 6896TIP3    H242248   4.874   2.449   0.207  0.8315  0.2283  1.3107
 6897TIP3   OH242249   6.175   0.096   2.203 -0.4302 -0.6047 -0.1415
 6897TIP3    H142250   6.160   0.079   2.110 -0.7255 -0.7619 -0.0652
 6897TIP3    H242251   6.254   0.045   2.223  1.1889  1.4584 -0.9102
 6898TIP3   OH242252   4.656   0.591   0.420 -0.8643  0.1901 -0.2739
 6898TIP3    H142253   4.644   0.632   0.505  0.1549 -2.0387  1.0252
 6898TIP3    H242254   4.741   0.624   0.390 -0.9017  0.4443 -0.1022
 6899TIP3   OH242255   6.170   4.280   7.820  0.2123  0.4761  0.2400
 6899TIP3    H142256   6.140   4.311   7.734  1.5738 -0.6624 -0.6961
 6899TIP3    H242257   6.265   4.277   7.813  0.2818 -0.9631  1.2913
 6900TIP3   OH242258   3.726   2.651   2.252 -0.3651  0.6581 -0.0072
 6900TIP3    H142259   3.771   2.584   2.303 -1.1170  0.4883  0.4507
 6900TIP3    H242260   3.795   2.713   2.227  0.8479 -1.4820 -2.4852
 6901TIP3   OH242261   2.037   2.579   1.209 -0.5552 -0.0364  0.0743
 6901TIP3    H142262   2.022   2.630   1.288 -2.6881 -0.9322  0.3056
 6901TIP3    H242263   2.102   2.513   1.236 -0.2705  0.4756  0.6795
 6902TIP3   OH242264   3.371   6.210   1.072  0.3587  0.3886 -0.0419
 6902TIP3    H142265   3.277   6.207   1.054  0.3341  0.2043  0.1279
 6902TIP3    H242266   3.399   6.119   1.074  0.7563  0.4524 -1.2320
 6903TIP3   OH242267   1.582   1.046   1.155 -0.3764 -0.8045 -0.3656
 6903TIP3    H142268   1.628   0.967   1.128 -3.5346 -2.1464 -2.4224
 6903TIP3    H242269   1.592   1.106   1.082  0.3622  0.0020  0.3692
 6904TIP3   OH242270   1.783   4.633   7.749  0.3752 -0.0811  0.2712
 6904TIP3    H142271   1.864   4.619   7.700  1.1368  1.6471  0.9579
 6904TIP3    H242272   1.723   4.671   7.685  1.0800  1.3426  0.4067
 6905TIP3   OH242273   0.708   2.492   7.736 -0.1603  0.0564  0.9141
 6905TIP3    H142274   0.737   2.427   7.799 -1.9553 -0.9674  0.7466
 6905TIP3    H242275   0.693   2.442   7.655 -1.4202  0.6736  0.7394
 6906TIP3   OH242276   3.290   2.249   7.912 -0.2862  0.3613  0.3517
 6906TIP3    H142277   3.204   2.236   7.953  0.2762 -0.4207  1.3575
 6906TIP3    H242278   3.315   2.338   7.937 -0.3725  0.2316  0.9223
 6907TIP3   OH242279   3.001   5.702   1.390 -0.0014  0.2405  0.1514
 6907TIP3    H142280   2.931   5.670   1.446  0.1528 -0.9244 -0.2846
 6907TIP3    H242281   2.965   5.779   1.346 -1.1118 -0.5065 -0.2777
 6908TIP3   OH242282   0.489   5.488   1.430 -0.1801  0.1209 -0.3494
 6908TIP3    H142283   0.415   5.504   1.490 -0.1711  0.5225 -0.4419
 6908TIP3    H242284   0.489   5.394   1.417 -0.5071  0.0867 -0.1251
 6909TIP3   OH242285   0.142   2.326   8.721  0.5413 -0.6538  0.1108
 6909TIP3    H142286   0.157   2.247   8.773  0.9431 -0.1937  0.7078
 6909TIP3    H242287   0.193   2.312   8.642  4.1530  0.7697  1.9885
 6910TIP3   OH242288   1.396   6.091   0.039 -0.1468 -0.0449 -0.1502
 6910TIP3    H142289   1.393   6.181   0.073  0.4559  0.0196 -0.2519
 6910TIP3    H242290   1.315   6.082  -0.012  0.6158  1.0617 -1.6536
 6911TIP3   OH242291   5.861   5.952   8.404  0.2347  0.2079 -0.1091
 6911TIP3    H142292   5.773   5.971   8.437 -0.4194 -0.4861 -1.3890
 6911TIP3    H242293   5.888   6.033   8.361 -0.1660  0.1305 -0.5174
 6912TIP3   OH242294   1.024   1.022   0.920 -0.2363  0.0377 -1.0268
 6912TIP3    H142295   1.060   1.010   1.008  1.8787 -0.7810 -1.9523
 6912TIP3    H242296   0.945   1.075   0.934 -0.2272 -0.4600  1.3956
 6913TIP3   OH242297   1.802   0.718   1.261  0.3007  0.2245  0.1881
 6913TIP3    H142298   1.721   0.705   1.308  0.5521  1.1401  0.8931
 6913TIP3    H242299   1.775   0.737   1.171 -0.3289  1.6437  0.6537
 6914TIP3   OH242300   5.867   5.018   1.268 -0.1812 -0.3390 -0.1178
 6914TIP3    H142301   5.927   4.980   1.332  0.0090  0.2495  0.0651
 6914TIP3    H242302   5.857   5.109   1.296  1.2658  0.4315 -1.8812
 6915TIP3   OH242303   2.940   1.913   0.002 -0.3975 -0.1762  0.4775
 6915TIP3    H142304   2.982   1.890  -0.081 -0.8166 -0.1394  0.2529
 6915TIP3    H242305   3.012   1.945   0.057  0.0559 -1.2372  0.5160
 6916TIP3   OH242306   6.797   1.535   1.361  0.1351 -0.5817  0.1202
 6916TIP3    H142307   6.763   1.612   1.316 -0.6434 -1.4186 -0.7467
 6916TIP3    H242308   6.889   1.557   1.378  0.3023 -0.0007 -1.3428
 6917TIP3   OH242309   6.492   3.771   0.712  0.1805  0.1838  0.8351
 6917TIP3    H142310   6.451   3.812   0.636  1.7811  1.3674  0.5603
 6917TIP3    H242311   6.421   3.758   0.774 -0.9085  0.4925 -0.3206
 6918TIP3   OH242312   2.680   5.298   7.745 -0.3267  0.1682 -0.4521
 6918TIP3    H142313   2.658   5.272   7.834 -0.4871 -0.0269 -0.5457
 6918TIP3    H242314   2.595   5.320   7.705 -0.3455 -0.4608 -0.7762
 6919TIP3   OH242315   2.778   1.744   8.532  0.9334 -0.0873  0.2005
 6919TIP3    H142316   2.825   1.676   8.580 -0.5524 -0.6287  0.9539
 6919TIP3    H242317   2.733   1.697   8.461  1.6730  0.4564 -0.6609
 6920TIP3   OH242318   5.925   0.111   8.621  0.2512  0.4987  0.1862
 6920TIP3    H142319   5.973   0.030   8.605 -0.7571 -0.1815  0.4861
 6920TIP3    H242320   5.979   0.179   8.581  1.3956 -0.2424  0.4065
 6921TIP3   OH242321   1.144   3.498   8.576  0.0906 -0.6670 -0.5315
 6921TIP3    H142322   1.208   3.563   8.545  0.2999  0.5824  2.1907
 6921TIP3    H242323   1.062   3.523   8.534  0.5547  0.2443 -0.9285
 6922TIP3   OH242324   1.023   3.021   1.643 -0.1943 -0.3480 -0.5414
 6922TIP3    H142325   0.933   3.032   1.612  0.1020  0.3089 -1.1986
 6922TIP3    H242326   1.074   3.082   1.591  0.8830 -1.7989 -1.2732
 6923TIP3   OH242327   6.460   0.681   3.108  0.0683 -0.4914  0.6985
 6923TIP3    H142328   6.536   0.702   3.054 -2.2959 -1.3964 -3.4393
 6923TIP3    H242329   6.411   0.764   3.112 -0.6880 -0.8796 -0.2634
 6924TIP3   OH242330   5.167   1.489   1.783 -0.0919 -0.3576 -0.3366
 6924TIP3    H142331   5.110   1.544   1.729 -0.2603 -1.4279 -1.2954
 6924TIP3    H242332   5.130   1.493   1.871 -0.5900  0.3723 -0.5748
 6925TIP3   OH242333   6.690   6.241   1.405 -0.1216  0.0514 -0.3149
 6925TIP3    H142334   6.602   6.273   1.385 -0.9796 -2.4949 -1.0593
 6925TIP3    H242335   6.676   6.154   1.444  2.0219  0.3228  1.2251
 6926TIP3   OH242336   1.392   2.487   7.698  0.8786  0.0868 -0.4333
 6926TIP3    H142337   1.410   2.527   7.613 -0.4173  1.3690 -0.1286
 6926TIP3    H242338   1.424   2.551   7.762 -2.8023  1.6304  0.0948
 6927TIP3   OH242339   6.479   1.721   7.719  0.1335 -0.4569 -0.5505
 6927TIP3    H142340   6.511   1.633   7.700 -2.1454 -0.9903 -2.3302
 6927TIP3    H242341   6.527   1.778   7.659 -1.5581 -1.1491 -2.6783
 6928TIP3   OH242342   0.499   2.475   2.645  0.3600 -0.3507  0.1131
 6928TIP3    H142343   0.454   2.391   2.645  0.1475 -0.2390 -0.1224
 6928TIP3    H242344   0.433   2.538   2.617  0.6274 -0.1686 -0.1190
 6929TIP3   OH242345   6.396   5.046   7.654  0.1135  0.0248  0.3400
 6929TIP3    H142346   6.412   4.963   7.698 -0.0134  0.9282  2.2224
 6929TIP3    H242347   6.305   5.041   7.624  0.9051 -1.5505 -2.1424
 6930TIP3   OH242348   1.419   0.620   0.108 -0.0344 -0.0648 -0.1450
 6930TIP3    H142349   1.379   0.684   0.167 -0.1970 -1.4750  1.3021
 6930TIP3    H242350   1.494   0.667   0.071  1.0908  0.3644  2.4465
 6931TIP3   OH242351   3.090   6.603   8.144  0.3117 -0.2572  0.3872
 6931TIP3    H142352   3.137   6.635   8.067 -1.8395  0.7643 -0.5905
 6931TIP3    H242353   3.066   6.682   8.193 -1.3623 -0.6224  0.2287
 6932TIP3   OH242354   0.907   3.673   1.086  0.5471 -0.2632 -0.0922
 6932TIP3    H142355   0.846   3.600   1.093  1.4660 -0.9172  2.0472
 6932TIP3    H242356   0.987   3.634   1.049  0.2638  0.2139 -1.2482
 6933TIP3   OH242357   2.315   4.293   7.135 -0.0299  0.0147 -0.0009
 6933TIP3    H142358   2.402   4.261   7.161 -0.1073 -1.4204 -1.4006
 6933TIP3    H242359   2.257   4.219   7.150 -0.8745  0.6735  0.0588
 6934TIP3   OH242360   4.657   1.929   8.008 -0.2863 -0.5214 -0.0069
 6934TIP3    H142361   4.717   1.854   7.997  0.4595  0.0732 -0.1006
 6934TIP3    H242362   4.601   1.904   8.081 -0.8942 -1.7077 -0.8453
 6935TIP3   OH242363   0.758   6.139   8.725  0.1237  0.7039  0.2851
 6935TIP3    H142364   0.724   6.183   8.647  1.2004  0.7896 -0.1524
 6935TIP3    H242365   0.702   6.169   8.796 -0.2885  1.3614 -0.3009
 6936TIP3   OH242366   4.188   6.466   6.896 -0.3029 -0.2220 -0.1814
 6936TIP3    H142367   4.140   6.521   6.958 -0.3631  0.6730 -1.0109
 6936TIP3    H242368   4.278   6.498   6.900 -0.2480 -0.3573 -0.3440
 6937TIP3   OH242369   4.687   3.534   0.448  0.0847 -0.0691 -0.1889
 6937TIP3    H142370   4.618   3.476   0.479  0.8282 -0.5030  0.7162
 6937TIP3    H242371   4.736   3.557   0.527  0.8188  0.4335 -0.7770
 6938TIP3   OH242372   0.539   4.780   2.474 -0.4390  0.1035  0.2065
 6938TIP3    H142373   0.562   4.852   2.533 -0.8333 -0.1834  0.7148
 6938TIP3    H242374   0.525   4.705   2.531  1.7494 -0.8732 -0.4389
 6939TIP3   OH242375   0.897   1.590   0.799 -0.6362  0.4552  0.2773
 6939TIP3    H142376   0.936   1.505   0.822  0.8104  1.3320  1.2325
 6939TIP3    H242377   0.803   1.577   0.813 -0.5495 -1.2364 -0.4582
 6940TIP3   OH242378   1.777   6.679   3.332  0.1091 -0.0283  0.2164
 6940TIP3    H142379   1.727   6.760   3.334  1.8798  1.1149  2.3644
 6940TIP3    H242380   1.711   6.609   3.336 -1.4400  1.2312 -1.5859
 6941TIP3   OH242381   2.973   3.548   1.667 -0.1218  0.0847  0.3893
 6941TIP3    H142382   2.905   3.484   1.685  2.2461 -2.7204  0.1357
 6941TIP3    H242383   3.012   3.568   1.752  0.5462 -0.5582  0.2482
 6942TIP3   OH242384   4.715   5.470   3.186 -1.0666 -0.1066  0.2338
 6942TIP3    H142385   4.703   5.473   3.091 -1.9502 -0.4853  0.3264
 6942TIP3    H242386   4.810   5.477   3.198 -0.9936  0.6143 -0.6428
 6943TIP3   OH242387   4.916   0.320   3.159  0.1500 -0.3118 -0.0446
 6943TIP3    H142388   4.989   0.375   3.188 -0.6841 -0.6023  2.9196
 6943TIP3    H242389   4.839   0.375   3.171 -0.3405 -0.8146 -0.8518
 6944TIP3   OH242390   5.232   4.587   2.627  0.0663  0.1721 -0.1100
 6944TIP3    H142391   5.328   4.593   2.634  0.1981 -1.6266  0.2199
 6944TIP3    H242392   5.200   4.621   2.710  0.4635  0.1078  0.0743
 6945TIP3   OH242393   5.767   5.682   8.443  0.0047 -0.4111 -0.5522
 6945TIP3    H142394   5.691   5.704   8.389  0.2795  2.3541  0.0513
 6945TIP3    H242395   5.830   5.753   8.427  2.0067 -1.9706 -0.1042
 6946TIP3   OH242396   0.197   5.383   3.370  0.4281  0.3651  0.0264
 6946TIP3    H142397   0.241   5.455   3.325 -1.3261  0.8644 -0.9687
 6946TIP3    H242398   0.153   5.334   3.301 -0.4096 -0.2321  0.9542
 6947TIP3   OH242399   1.055   5.812   2.445  0.2047 -0.3398 -0.4508
 6947TIP3    H142400   1.033   5.772   2.529 -0.4967 -1.7454 -1.2648
 6947TIP3    H242401   1.149   5.797   2.436  0.1946 -0.6097 -0.1312
 6948TIP3   OH242402   2.319   4.827   7.814  0.0375 -0.0311 -0.1852
 6948TIP3    H142403   2.359   4.805   7.730 -0.1988  2.1710 -0.9262
 6948TIP3    H242404   2.385   4.881   7.858 -1.2375  1.9792 -0.6018
 6949TIP3   OH242405   0.627   4.128   0.666  0.0289  0.2714 -0.3975
 6949TIP3    H142406   0.637   4.122   0.571  0.9527  1.0045 -0.3645
 6949TIP3    H242407   0.584   4.212   0.680  0.1191  0.2787 -0.1626
 6950TIP3   OH242408   6.766   6.681   0.574  0.7570  0.4708  0.0908
 6950TIP3    H142409   6.807   6.694   0.488 -0.0817 -0.3560 -0.4672
 6950TIP3    H242410   6.839   6.682   0.636  1.5520 -0.3095 -0.7879
 6951TIP3   OH242411   1.221   1.106   1.408  0.1921  0.1911 -0.1177
 6951TIP3    H142412   1.305   1.065   1.426  0.5751  0.0363 -2.0440
 6951TIP3    H242413   1.243   1.195   1.383 -0.3187  0.4479  0.3300
 6952TIP3   OH242414   5.110   5.031   8.100  0.3526  0.4178  0.7267
 6952TIP3    H142415   5.088   4.939   8.108 -0.1214  0.4649  0.0342
 6952TIP3    H242416   5.026   5.076   8.093  0.5831  0.8799  0.8273
 6953TIP3   OH242417   3.383   1.867   0.948 -0.1043 -0.8134  0.2572
 6953TIP3    H142418   3.390   1.828   0.862 -1.9661  0.0042 -0.3344
 6953TIP3    H242419   3.361   1.794   1.007  0.1520 -1.2151 -0.1471
 6954TIP3   OH242420   3.912   5.490   0.472 -0.0011 -0.2514  0.2732
 6954TIP3    H142421   3.991   5.527   0.511  1.1166 -1.1385 -1.0613
 6954TIP3    H242422   3.848   5.561   0.476  2.0658  1.9487 -2.2066
 6955TIP3   OH242423   6.500   2.419   7.919  1.0929  0.2708  0.1986
 6955TIP3    H142424   6.442   2.467   7.861 -0.4053  0.9982  2.1721
 6955TIP3    H242425   6.463   2.331   7.925  0.4691  0.5768  1.0318
 6956TIP3   OH242426   6.057   2.963   8.092  0.1514 -0.0636  0.3445
 6956TIP3    H142427   6.023   2.967   8.003 -0.3828 -0.0593  0.5411
 6956TIP3    H242428   6.015   3.036   8.137  0.2344 -0.2089  0.6602
 6957TIP3   OH242429   3.675   6.560   8.435  0.4191  0.1360  0.1047
 6957TIP3    H142430   3.704   6.612   8.510  1.2145  0.4249 -0.3909
 6957TIP3    H242431   3.687   6.469   8.463  3.3344  0.1979 -0.5891
 6958TIP3   OH242432   5.817   6.598   0.273 -0.4196  0.0228  0.2265
 6958TIP3    H142433   5.795   6.687   0.244 -1.6603 -0.3076  0.0892
 6958TIP3    H242434   5.866   6.561   0.200 -1.6748 -0.0802 -0.5902
 6959TIP3   OH242435   0.505   2.004   1.895 -0.6181 -0.5790  0.5101
 6959TIP3    H142436   0.444   2.011   1.821 -0.6482  0.8514  0.6390
 6959TIP3    H242437   0.485   1.919   1.935  0.2818 -2.0356 -1.8852
 6960TIP3   OH242438   1.317   6.621   8.663 -0.2350  0.1388  0.5950
 6960TIP3    H142439   1.371   6.670   8.602  0.0294  0.8671  1.3869
 6960TIP3    H242440   1.229   6.625   8.626  0.2457 -1.1773 -0.7792
 6961TIP3   OH242441   1.893   6.797   0.341  0.2910 -0.0276  0.4667
 6961TIP3    H142442   1.839   6.752   0.276  2.5408 -0.5591 -1.1469
 6961TIP3    H242443   1.952   6.728   0.374  0.5636  0.6999  1.5398
 6962TIP3   OH242444   2.640   5.046   2.588 -0.0847  0.3505 -0.1812
 6962TIP3    H142445   2.702   5.100   2.637  0.3905 -0.8518  0.5710
 6962TIP3    H242446   2.572   5.024   2.652 -0.1632 -0.1152 -0.4257
 6963TIP3   OH242447   0.396   3.407   2.515 -0.7166 -0.0066  0.0664
 6963TIP3    H142448   0.359   3.373   2.434 -1.4219  0.3627  0.2253
 6963TIP3    H242449   0.476   3.356   2.529  0.3911  1.1131 -1.7962
 6964TIP3   OH242450   2.943   6.769   8.773  0.3152 -0.8449 -0.1635
 6964TIP3    H142451   2.953   6.708   8.847  0.5014 -0.1082  0.4290
 6964TIP3    H242452   3.029   6.772   8.732  1.6158  2.2113  2.3560
 6965TIP3   OH242453   1.579   0.330   2.486  0.1402  0.7557 -0.3668
 6965TIP3    H142454   1.529   0.349   2.565 -0.5372 -2.1659  0.0242
 6965TIP3    H242455   1.517   0.287   2.428  1.3168  0.2918 -1.3367
 6966TIP3   OH242456   1.882   5.555   7.674  0.3355 -0.3632  0.9226
 6966TIP3    H142457   1.920   5.472   7.648  0.0323  0.0834 -1.1091
 6966TIP3    H242458   1.805   5.565   7.618  0.4399  1.3376  1.0198
 6967TIP3   OH242459   2.401   5.776   1.471  0.1243 -0.3959  0.0664
 6967TIP3    H142460   2.313   5.753   1.442 -0.2450 -0.0428  0.8723
 6967TIP3    H242461   2.457   5.711   1.430 -0.4173 -0.1570 -1.0831
 6968TIP3   OH242462   3.029   0.948   0.414  0.1748 -0.1828 -0.3647
 6968TIP3    H142463   3.085   0.894   0.359  2.0977  1.4509 -0.1452
 6968TIP3    H242464   3.048   0.920   0.503 -0.8416 -0.9277 -0.3668
 6969TIP3   OH242465   6.531   4.101   6.996  0.4961  0.1045  0.0375
 6969TIP3    H142466   6.559   4.082   7.085  1.0919  2.7428  0.4908
 6969TIP3    H242467   6.457   4.162   7.006  0.8386  0.7880 -1.2389
 6970TIP3   OH242468   3.656   1.617   0.423 -0.4805  0.8257 -0.1847
 6970TIP3    H142469   3.567   1.581   0.421 -0.4110  0.5163  1.3322
 6970TIP3    H242470   3.646   1.706   0.391 -1.5326  1.1429  0.9525
 6971TIP3   OH242471   6.680   6.271   8.616  0.4981 -0.0755  0.9122
 6971TIP3    H142472   6.703   6.312   8.699 -1.3503 -1.0450  1.9690
 6971TIP3    H242473   6.745   6.202   8.603 -0.0298 -0.8629  2.3137
 6972TIP3   OH242474   4.030   6.116   3.258 -0.3492  0.1362 -0.5331
 6972TIP3    H142475   3.952   6.113   3.314 -0.3774  0.4025 -0.5576
 6972TIP3    H242476   4.072   6.199   3.280 -0.7955  0.6298 -1.4801
 6973TIP3   OH242477   1.701   6.613   2.102 -0.3819 -0.0271 -0.1695
 6973TIP3    H142478   1.709   6.639   2.194  0.5946  2.2180 -0.8289
 6973TIP3    H242479   1.610   6.584   2.093 -0.5499 -0.0763  1.4550
 6974TIP3   OH242480   1.152   2.683   3.244 -0.1179 -0.4623 -0.3523
 6974TIP3    H142481   1.224   2.679   3.181 -1.7970 -0.0382 -2.4235
 6974TIP3    H242482   1.099   2.606   3.225 -0.9373 -0.0452  0.1818
 6975TIP3   OH242483   5.338   4.514   7.292  0.0610  0.0699 -0.3451
 6975TIP3    H142484   5.329   4.529   7.386  0.3027 -0.1341 -0.2866
 6975TIP3    H242485   5.391   4.587   7.261 -0.2542  0.2891 -0.3734
 6976TIP3   OH242486   5.387   1.628   2.182  0.5432 -0.4873 -0.0801
 6976TIP3    H142487   5.354   1.694   2.120 -0.9063  0.6688  1.7808
 6976TIP3    H242488   5.479   1.618   2.161  0.0577 -0.3565 -2.5579
 6977TIP3   OH242489   1.830   0.050   0.789  0.3896 -0.6301 -0.7524
 6977TIP3    H142490   1.761  -0.013   0.811 -1.4692  0.8273 -2.0300
 6977TIP3    H242491   1.794   0.099   0.715  1.7868  1.8499  0.1148
 6978TIP3   OH242492   2.316   0.352   1.111 -0.3135  0.2704 -0.2006
 6978TIP3    H142493   2.265   0.416   1.160  1.0122  0.1753  1.3848
 6978TIP3    H242494   2.396   0.341   1.162  1.5235  0.7301 -2.7868
 6979TIP3   OH242495   5.784   1.686   0.375 -0.4953 -0.0921 -0.2294
 6979TIP3    H142496   5.825   1.622   0.434  1.2429  2.2310  1.2770
 6979TIP3    H242497   5.785   1.644   0.289  1.7014 -1.6177  0.4622
 6980TIP3   OH242498   2.501   5.159   1.432  0.7122  0.7557 -0.0943
 6980TIP3    H142499   2.553   5.191   1.358  0.7752  1.7308  0.3587
 6980TIP3    H242500   2.542   5.198   1.509  2.2063 -2.1867  0.7789
 6981TIP3   OH242501   3.745   6.343   0.777  0.4851 -0.4208 -0.4828
 6981TIP3    H142502   3.718   6.311   0.863 -3.1162  1.2563 -0.8168
 6981TIP3    H242503   3.694   6.291   0.715  2.4129 -1.0341 -1.6406
 6982TIP3   OH242504   2.304   0.672   0.922  0.1679 -0.0622  0.2544
 6982TIP3    H142505   2.230   0.672   0.982 -0.3998  1.4851 -0.3655
 6982TIP3    H242506   2.316   0.581   0.898 -2.6237 -0.2514 -0.8670
 6983TIP3   OH242507   3.906   1.432   2.702 -0.1536  0.5188 -0.5045
 6983TIP3    H142508   3.860   1.400   2.624 -0.9929  1.4806 -0.4220
 6983TIP3    H242509   3.919   1.525   2.686 -0.7916  0.8379  0.7198
 6984TIP3   OH242510   4.634   4.667   1.299 -0.1860 -0.2145  0.1247
 6984TIP3    H142511   4.617   4.577   1.326 -0.5111 -1.7667 -4.3973
 6984TIP3    H242512   4.559   4.690   1.244  1.7856  1.1823 -2.1575
 6985TIP3   OH242513   5.615   4.418   0.642 -0.2709 -0.0136 -0.9209
 6985TIP3    H142514   5.678   4.378   0.702 -0.2160 -0.1697 -1.0840
 6985TIP3    H242515   5.531   4.382   0.668 -0.2897  0.1601 -0.7328
 6986TIP3   OH242516   0.142   5.173   1.582 -0.1250  0.2301  0.2083
 6986TIP3    H142517   0.078   5.238   1.552  1.3184  2.1462  1.1136
 6986TIP3    H242518   0.149   5.112   1.509 -2.4520  0.3249 -0.1908
 6987TIP3   OH242519   0.712   1.606   2.162  0.1822  0.1771 -0.3110
 6987TIP3    H142520   0.789   1.612   2.218  1.0454 -2.7302 -0.9733
 6987TIP3    H242521   0.745   1.625   2.074  0.2265 -1.1836 -0.6120
 6988TIP3   OH242522   2.288   2.153   1.832  0.5333  0.0454  0.0823
 6988TIP3    H142523   2.313   2.163   1.740 -1.5258  0.9337 -0.4236
 6988TIP3    H242524   2.323   2.067   1.856 -0.0197 -0.8095 -1.9405
 6989TIP3   OH242525   1.338   0.744   7.931 -0.1633  0.1579 -0.0350
 6989TIP3    H142526   1.319   0.738   8.024  4.4970 -0.0376  1.1705
 6989TIP3    H242527   1.297   0.826   7.902 -2.4478 -0.2121  1.8562
 6990TIP3   OH242528   0.376   6.703   3.503 -0.3993 -0.0561  0.1869
 6990TIP3    H142529   0.380   6.650   3.582  2.5890  1.0123  0.8611
 6990TIP3    H242530   0.436   6.660   3.442 -0.8411  0.4686 -0.6435
 6991TIP3   OH242531   0.472   0.681   2.383  0.4048 -0.1847  0.1805
 6991TIP3    H142532   0.490   0.603   2.434 -0.4906 -1.2617 -1.0692
 6991TIP3    H242533   0.376   0.688   2.383  0.3439 -0.4565 -1.6159
 6992TIP3   OH242534   4.108   6.001   1.010 -0.3050  0.1177 -1.0091
 6992TIP3    H142535   4.133   5.951   1.087 -0.4226 -0.7102 -1.4946
 6992TIP3    H242536   4.152   6.085   1.020  1.2665 -0.6723 -0.9767
 6993TIP3   OH242537   1.229   5.767   1.936 -0.2583 -0.0753 -0.5312
 6993TIP3    H142538   1.272   5.683   1.926  2.3521  1.0406  0.3957
 6993TIP3    H242539   1.199   5.767   2.027  0.7799  0.3999 -0.1737
 6994TIP3   OH242540   6.469   3.453   1.565 -0.2455 -0.2403 -0.5718
 6994TIP3    H142541   6.411   3.526   1.587 -0.6690  0.0517 -2.4789
 6994TIP3    H242542   6.410   3.382   1.539  0.1610 -1.3162  1.1962
 6995TIP3   OH242543   3.024   1.894   8.487  0.1927  0.4261 -0.0266
 6995TIP3    H142544   2.932   1.871   8.482  0.4440 -0.6583  0.1999
 6995TIP3    H242545   3.046   1.926   8.400  0.0837 -1.1921 -0.6710
 6996TIP3   OH242546   5.986   3.942   1.655  0.1029  0.0307  0.1143
 6996TIP3    H142547   5.995   4.016   1.714  0.7752  0.9135 -1.0606
 6996TIP3    H242548   6.024   3.971   1.573  0.2665 -1.5744 -0.4234
 6997TIP3   OH242549   4.473   5.211   0.738 -0.0344  0.0221 -0.4119
 6997TIP3    H142550   4.500   5.141   0.796 -0.3620  1.2544  1.3036
 6997TIP3    H242551   4.537   5.210   0.667 -0.8906 -2.9395 -1.2841
 6998TIP3   OH242552   4.700   6.323   8.709  0.5727  0.5105 -0.6009
 6998TIP3    H142553   4.763   6.370   8.764 -1.0707  0.8186  1.1403
 6998TIP3    H242554   4.727   6.232   8.714 -0.4681  0.2384  2.2727
 6999TIP3   OH242555   2.120   0.803   1.993  0.3972 -0.1560 -0.4721
 6999TIP3    H142556   2.086   0.742   1.928 -0.3594 -0.3816  0.1186
 6999TIP3    H242557   2.055   0.803   2.063  0.1215  1.7008 -0.6656
 7000TIP3   OH242558   5.173   6.182   6.646 -0.0917 -0.7376 -0.3906
 7000TIP3    H142559   5.228   6.103   6.650  1.4164  0.1512 -2.2978
 7000TIP3    H242560   5.235   6.255   6.648 -1.3869  0.3867  0.0378
 7001TIP3   OH242561   0.379   3.639   7.235 -0.5301 -0.1011 -1.2415
 7001TIP3    H142562   0.297   3.631   7.284 -0.7587 -0.7773 -1.7207
 7001TIP3    H242563   0.359   3.699   7.163 -0.2370  0.7678 -0.6159
 7002TIP3   OH242564   2.170   1.824   1.178 -0.3268 -0.1214 -0.2914
 7002TIP3    H142565   2.098   1.816   1.117  0.3842  0.2796 -1.2024
 7002TIP3    H242566   2.156   1.908   1.221  1.6145  1.8864 -3.2302
 7003TIP3   OH242567   2.712   3.760   2.707 -1.2578  0.2416 -0.3642
 7003TIP3    H142568   2.705   3.762   2.802  1.6967  0.9646 -0.0607
 7003TIP3    H242569   2.760   3.679   2.688 -1.6724  0.1895 -1.2388
 7004TIP3   OH242570   0.272   3.665   8.482  0.2949 -0.5992  0.5309
 7004TIP3    H142571   0.278   3.735   8.547 -0.5712  0.6251 -0.6527
 7004TIP3    H242572   0.182   3.635   8.487  0.6906 -1.7367  1.1037
 7005TIP3   OH242573   1.693   1.670   0.029 -0.1495  0.9802  0.0047
 7005TIP3    H142574   1.634   1.692  -0.042  0.8649  2.1256 -0.5316
 7005TIP3    H242575   1.780   1.671  -0.011  0.4307  1.4835  1.2070
 7006TIP3   OH242576   2.718   6.158   8.210 -0.1495  0.0250  0.2329
 7006TIP3    H142577   2.736   6.222   8.141  3.1256  1.0249  1.8100
 7006TIP3    H242578   2.702   6.076   8.163  0.4419  0.9600 -1.7262
 7007TIP3   OH242579   2.207   6.099   8.471  0.4863  0.0766 -0.2241
 7007TIP3    H142580   2.292   6.143   8.470  0.4660  0.1272  0.1089
 7007TIP3    H242581   2.221   6.021   8.525  0.8703 -1.0513 -1.8711
 7008TIP3   OH242582   3.069   6.093   1.607 -0.1039  0.0415 -0.2240
 7008TIP3    H142583   3.088   6.178   1.568 -1.2682  0.4328  0.0361
 7008TIP3    H242584   3.155   6.053   1.620  0.4799  1.3449  0.0314
 7009TIP3   OH242585   2.836   5.905   0.382  0.0775  0.7876  0.3061
 7009TIP3    H142586   2.764   5.941   0.434  0.8078  2.6856  0.0919
 7009TIP3    H242587   2.813   5.928   0.292 -0.4719 -1.2265 -0.1111
 7010TIP3   OH242588   2.723   3.292   8.306 -0.1026  0.2015 -0.7887
 7010TIP3    H142589   2.772   3.375   8.312 -2.0883  1.3485  0.5523
 7010TIP3    H242590   2.745   3.258   8.219  1.3843  1.7314 -1.0672
 7011TIP3   OH242591   1.077   6.465   0.192 -0.4777 -0.4320 -0.7258
 7011TIP3    H142592   1.004   6.459   0.130 -0.4901 -1.3320 -0.6365
 7011TIP3    H242593   1.066   6.551   0.234 -1.6516 -0.6645 -0.5208
 7012TIP3   OH242594   4.558   2.174   0.341  0.0983 -0.1166  0.1188
 7012TIP3    H142595   4.647   2.138   0.347 -0.1127 -0.8508 -0.8192
 7012TIP3    H242596   4.550   2.203   0.250 -0.4572  0.4161  0.3293
 7013TIP3   OH242597   1.518   1.121   0.495 -0.0563  0.1762  0.2054
 7013TIP3    H142598   1.602   1.142   0.536 -0.7542  1.8256  0.8391
 7013TIP3    H242599   1.516   1.176   0.417  0.0746 -0.9718 -0.6407
 7014TIP3   OH242600   3.002   3.873   7.909 -0.4760 -0.0243  0.0642
 7014TIP3    H142601   3.091   3.852   7.882 -0.4978  0.0812 -0.0908
 7014TIP3    H242602   2.946   3.828   7.845 -0.5601 -0.9632  0.7702
 7015TIP3   OH242603   0.361   1.033   0.845  0.2830 -0.2962 -0.0698
 7015TIP3    H142604   0.354   1.050   0.939  0.1982  0.8590 -0.2672
 7015TIP3    H242605   0.329   0.944   0.834  0.7820 -0.6394  1.0596
 7016TIP3   OH242606   3.535   1.071   1.560 -0.7307 -0.3021  0.3019
 7016TIP3    H142607   3.479   1.037   1.629 -0.4052 -2.1627 -0.2913
 7016TIP3    H242608   3.476   1.117   1.500 -1.0892  0.8126  1.4784
 7017TIP3   OH242609   4.667   4.255   8.757  0.0403  0.2204  0.3666
 7017TIP3    H142610   4.625   4.249   8.671  0.4644  1.8349 -0.0018
 7017TIP3    H242611   4.758   4.275   8.737  0.1228  0.6968  1.1855
 7018TIP3   OH242612   1.817   4.371   1.492 -0.5836  0.4082  0.2877
 7018TIP3    H142613   1.743   4.359   1.551 -2.1230 -1.0470 -1.7881
 7018TIP3    H242614   1.788   4.438   1.430  0.3437  0.7115  0.1557
 7019TIP3   OH242615   5.189   6.526   8.723  0.2542  0.2805 -0.4645
 7019TIP3    H142616   5.208   6.619   8.712 -0.9342  0.6661  0.5856
 7019TIP3    H242617   5.094   6.519   8.715 -0.0060 -0.3896  2.2070
 7020TIP3   OH242618   1.202   3.988   0.477 -0.4692 -0.2480  0.6003
 7020TIP3    H142619   1.162   4.074   0.486 -0.6562 -0.1871 -0.6623
 7020TIP3    H242620   1.242   3.989   0.390  0.5362 -1.0267  1.0268
 7021TIP3   OH242621   0.128   0.439   0.950  0.7100 -0.0853 -0.2866
 7021TIP3    H142622   0.102   0.347   0.957  1.5930 -0.3288 -0.0753
 7021TIP3    H242623   0.052   0.482   0.911 -0.9682 -0.3406  2.4316
 7022TIP3   OH242624   6.061   5.887   1.236  0.0958  0.1895  0.0599
 7022TIP3    H142625   6.128   5.833   1.194  0.9686 -0.6496  2.3708
 7022TIP3    H242626   5.985   5.881   1.178  1.0164 -1.4114 -1.0425
 7023TIP3   OH242627   6.232   2.462   0.700  0.3522  0.8601  0.0183
 7023TIP3    H142628   6.314   2.465   0.652  0.9814 -2.5943  0.6378
 7023TIP3    H242629   6.257   2.466   0.792  0.0163 -1.3444  0.2573
 7024TIP3   OH242630   6.130   4.492   8.006  0.2134 -0.2987 -0.1264
 7024TIP3    H142631   6.071   4.483   8.081  0.8839  0.5905  0.5259
 7024TIP3    H242632   6.120   4.409   7.958 -0.2221 -0.8839  0.9406
 7025TIP3   OH242633   5.009   5.771   1.343 -0.8330  0.0966  0.7120
 7025TIP3    H142634   5.046   5.696   1.391 -2.3327 -0.1070  1.6148
 7025TIP3    H242635   4.999   5.739   1.253 -2.1946 -1.1146  1.2414
 7026TIP3   OH242636   3.424   5.205   2.007 -0.1819  0.0620 -0.1374
 7026TIP3    H142637   3.425   5.124   2.058  0.7819 -0.8060 -1.4435
 7026TIP3    H242638   3.384   5.270   2.065  2.1390 -0.4812  2.2629
 7027TIP3   OH242639   6.027   4.321   1.634 -0.5153 -0.0638  0.0284
 7027TIP3    H142640   6.106   4.301   1.585 -0.5255 -0.4961  0.1901
 7027TIP3    H242641   6.027   4.260   1.708 -0.8250  0.1572  0.2170
 7028TIP3   OH242642   1.742   5.777   3.372  0.1724 -0.8658 -0.4855
 7028TIP3    H142643   1.808   5.714   3.402 -0.6855 -1.7108 -0.3466
 7028TIP3    H242644   1.785   5.822   3.299  0.8824 -1.4563 -0.4517
 7029TIP3   OH242645   4.815   2.441   1.189 -0.0013  0.1032  0.4961
 7029TIP3    H142646   4.852   2.356   1.164 -1.4290 -0.2891 -0.4128
 7029TIP3    H242647   4.821   2.494   1.109  1.1750  0.9835  1.1505
 7030TIP3   OH242648   3.533   5.280   1.750 -0.5982 -0.4669  0.3960
 7030TIP3    H142649   3.471   5.223   1.797  0.9252 -2.0865  0.5674
 7030TIP3    H242650   3.578   5.328   1.820 -1.0377  0.0544  0.3257
 7031TIP3   OH242651   5.902   6.547   1.577  0.2581  0.0243  0.5140
 7031TIP3    H142652   5.812   6.516   1.582  0.4156 -1.4072 -2.7322
 7031TIP3    H242653   5.955   6.475   1.610  0.2918  0.6675  1.9365
 7032TIP3   OH242654   1.472   1.411   0.753  0.8182 -0.6023 -1.0741
 7032TIP3    H142655   1.379   1.430   0.748  0.8604  0.8904  1.6947
 7032TIP3    H242656   1.489   1.351   0.680 -2.1239 -0.3644 -2.0710
 7033TIP3   OH242657   2.045   3.729   7.846 -0.5142 -0.3212 -0.2618
 7033TIP3    H142658   2.120   3.671   7.837 -0.6373 -0.1463 -3.7400
 7033TIP3    H242659   2.083   3.817   7.845 -0.6378 -0.2561  0.3664
 7034TIP3   OH242660   2.852   5.194   0.183  0.8369  0.0168 -0.4695
 7034TIP3    H142661   2.885   5.182   0.094 -0.7104 -0.2967 -1.0275
 7034TIP3    H242662   2.765   5.155   0.182  1.1582 -0.8742  1.4652
 7035TIP3   OH242663   3.880   1.675   0.068  0.1966  0.2404  0.0721
 7035TIP3    H142664   3.805   1.682   0.127  0.5783  1.6894  0.4237
 7035TIP3    H242665   3.874   1.752   0.011  0.5547 -0.4584 -0.9467
 7036TIP3   OH242666   1.465   5.415   2.142 -0.5109 -0.4835  0.1872
 7036TIP3    H142667   1.506   5.443   2.224  2.1061 -0.4487 -1.0130
 7036TIP3    H242668   1.390   5.362   2.169  0.0957 -0.2453  2.5782
 7037TIP3   OH242669   3.485   1.734   7.570  0.2984 -0.2971 -0.1951
 7037TIP3    H142670   3.565   1.704   7.614  1.6591 -0.0929 -2.4100
 7037TIP3    H242671   3.501   1.719   7.477 -1.8855  0.6178 -0.7816
 7038TIP3   OH242672   0.270   0.809   2.784 -0.0388  1.2223 -0.0091
 7038TIP3    H142673   0.254   0.766   2.868  1.3545 -2.4838 -1.4223
 7038TIP3    H242674   0.200   0.779   2.727  1.8438 -0.7400 -1.4724
 7039TIP3   OH242675   1.450   0.958   1.443  0.0118  0.6997  0.0889
 7039TIP3    H142676   1.504   0.888   1.407  0.6523  0.9674  0.5223
 7039TIP3    H242677   1.481   0.970   1.532 -1.3487  0.2658  0.6546
 7040TIP3   OH242678   2.525   3.127   8.001  0.3538  0.0630 -0.5097
 7040TIP3    H142679   2.563   3.212   7.979 -0.4217  0.7021  0.5537
 7040TIP3    H242680   2.582   3.092   8.069 -1.1868  1.2787  1.5040
 7041TIP3   OH242681   4.705   5.418   8.519  0.4876 -0.2110 -0.1994
 7041TIP3    H142682   4.629   5.417   8.460 -0.8740 -0.7847  1.4919
 7041TIP3    H242683   4.771   5.469   8.472 -1.9182  2.8328 -0.5668
 7042TIP3   OH242684   1.423   2.821   7.783 -0.0525  0.5277  0.7822
 7042TIP3    H142685   1.332   2.846   7.797 -0.0066  1.2202 -0.0361
 7042TIP3    H242686   1.435   2.827   7.688  0.5216 -0.7161  0.7575
 7043TIP3   OH242687   3.665   1.253   0.481 -0.2095  0.4911 -0.3865
 7043TIP3    H142688   3.730   1.182   0.482 -1.0344 -0.2767  0.2753
 7043TIP3    H242689   3.707   1.322   0.430  1.3430  0.2167  0.4197
 7044TIP3   OH242690   4.848   4.255   0.319  0.0064 -0.1060  0.2100
 7044TIP3    H142691   4.892   4.171   0.304 -0.8645 -0.6208  0.4428
 7044TIP3    H242692   4.897   4.317   0.266  1.4946 -0.4939  1.0709
 7045TIP3   OH242693   0.506   1.076   1.877  0.1314 -0.1179  0.1676
 7045TIP3    H142694   0.464   0.991   1.864 -0.1735  0.0214  0.2335
 7045TIP3    H242695   0.530   1.104   1.788  1.2314 -0.7691  0.2387
 7046TIP3   OH242696   3.124   6.500   3.074  0.4983  0.2033  0.2224
 7046TIP3    H142697   3.108   6.572   3.013  2.5226  0.1664 -0.4152
 7046TIP3    H242698   3.080   6.425   3.034 -2.2892  1.1487  1.2713
 7047TIP3   OH242699   5.857   5.725   1.068 -0.2485 -0.5511  0.2906
 7047TIP3    H142700   5.792   5.771   1.015 -1.4033 -0.7108  1.5108
 7047TIP3    H242701   5.856   5.635   1.034 -3.0586 -1.4051  2.2780
 7048TIP3   OH242702   5.705   5.379   2.182 -0.5833 -0.2020  0.1485
 7048TIP3    H142703   5.801   5.387   2.181 -0.6887  1.3426 -0.1473
 7048TIP3    H242704   5.685   5.344   2.269  0.2078  0.1490  0.4846
 7049TIP3   OH242705   6.494   5.789   0.460 -0.0733 -0.2744  0.5291
 7049TIP3    H142706   6.491   5.755   0.371 -1.2708  0.2856  0.3370
 7049TIP3    H242707   6.448   5.873   0.455  3.1946  1.7417  0.8504
 7050TIP3   OH242708   6.586   1.593   3.031 -0.1488  0.4475  0.7066
 7050TIP3    H142709   6.547   1.546   3.104 -0.6624  0.0108  0.1614
 7050TIP3    H242710   6.676   1.559   3.026  0.5240  1.8444  2.2993
 7051TIP3   OH242711   6.016   2.693   8.193  0.1974  0.2505  1.0298
 7051TIP3    H142712   5.945   2.728   8.246 -0.6496  2.0020 -1.1258
 7051TIP3    H242713   6.035   2.762   8.129  1.4273 -1.5917 -0.7129
 7052TIP3   OH242714   0.522   5.940   1.402  0.1768  0.1583  0.0851
 7052TIP3    H142715   0.499   5.966   1.313 -3.7383 -0.1596  0.8174
 7052TIP3    H242716   0.474   6.002   1.458  2.1794  0.0824  2.0203
 7053TIP3   OH242717   1.145   3.120   7.899  0.4336  0.4272 -0.4080
 7053TIP3    H142718   1.193   3.203   7.894 -0.2804  0.7886 -1.7848
 7053TIP3    H242719   1.157   3.091   7.989  0.6113  2.0816  0.1445
 7054TIP3   OH242720   4.189   4.192   1.650  0.1716 -0.1653 -0.0277
 7054TIP3    H142721   4.261   4.198   1.713 -0.7188  0.2750  0.9687
 7054TIP3    H242722   4.232   4.198   1.564  1.4990 -1.6901  0.4907
 7055TIP3   OH242723   1.136   3.803   1.034  0.9739  0.1622  0.0476
 7055TIP3    H142724   1.202   3.790   0.966  0.3441 -0.3292 -0.4925
 7055TIP3    H242725   1.069   3.856   0.992 -0.0185 -1.1911 -0.1436
 7056TIP3   OH242726   6.737   2.496   8.044  0.2577  0.4128  0.3463
 7056TIP3    H142727   6.654   2.479   8.000  0.0321 -0.3397  1.0330
 7056TIP3    H242728   6.803   2.487   7.974 -0.3601  3.2710 -0.7152
 7057TIP3   OH242729   3.833   5.219   0.116 -0.6614  0.1590  0.5699
 7057TIP3    H142730   3.790   5.216   0.202  2.0403  0.1285  2.0403
 7057TIP3    H242731   3.899   5.288   0.126  0.3151 -0.4866 -1.1923
 7058TIP3   OH242732   6.445   1.455   1.205  0.3403 -0.6158 -0.0669
 7058TIP3    H142733   6.505   1.485   1.136 -1.6662  1.5012 -1.0369
 7058TIP3    H242734   6.502   1.438   1.280  2.1419  1.9894 -0.6845
 7059TIP3   OH242735   6.685   1.782   1.267 -0.5630  0.0751  0.1806
 7059TIP3    H142736   6.736   1.847   1.221  2.1958 -3.0478 -1.5863
 7059TIP3    H242737   6.600   1.781   1.223  0.0036  1.1483 -0.9643
 7060TIP3   OH242738   3.962   4.358   1.720  0.0102 -0.7565 -0.3303
 7060TIP3    H142739   4.042   4.324   1.679  0.0805 -2.3450  1.0090
 7060TIP3    H242740   3.891   4.317   1.670  0.0866 -1.5339  0.1724
 7061TIP3   OH242741   0.165   3.043   0.577 -0.1342  0.0055 -0.0816
 7061TIP3    H142742   0.242   3.006   0.620 -0.3046  0.7236  0.8686
 7061TIP3    H242743   0.172   3.137   0.592 -0.8326  0.1481 -0.6033
 7062TIP3   OH242744   0.246   2.288   8.484 -0.1587  0.6254  0.4907
 7062TIP3    H142745   0.342   2.285   8.488 -0.1541 -1.6915  0.5054
 7062TIP3    H242746   0.225   2.277   8.392 -0.4244  1.3173  0.4642
 7063TIP3   OH242747   5.365   5.675   1.432 -0.1115 -0.4895 -0.0054
 7063TIP3    H142748   5.340   5.738   1.364 -0.7049 -0.1435  0.5219
 7063TIP3    H242749   5.332   5.713   1.513  1.8529 -0.1725  0.7104
 7064LIG     O142750   5.522   0.355   6.067 -0.4801 -0.2355  0.0479
 7064LIG     O242751   5.578  -0.043   6.303  0.2447 -0.6021 -0.0204
 7064LIG     N142752   5.535  -0.057   6.082  0.0157 -0.0145 -0.2976
 7064LIG     N242753   5.498   0.176   5.807  0.4876 -0.9607  0.1120
 7064LIG     N342754   5.543   0.157   6.180  0.3098  0.1696 -0.0892
 7064LIG     N442755   5.505  -0.049   5.835 -1.2110 -0.1793  0.1237
 7064LIG     C142756   5.516   0.148   5.944 -0.0467  0.1353  0.3298
 7064LIG     C242757   5.517   0.011   5.959 -0.3265 -0.3724 -0.0123
 7064LIG     C342758   5.530   0.232   6.059  0.0015  0.4805  1.0726
 7064LIG     C442759   5.559   0.015   6.194  0.5393 -0.7391  0.4637
 7064LIG     C542760   5.504   0.049   5.747  0.3570 -0.4752  0.9501
 7064LIG     C642761   5.535  -0.202   6.095  0.5258 -0.8962  0.5170
 7064LIG     C742762   5.496   0.309   5.747 -0.3576  0.6698 -0.8107
 7064LIG     C842763   5.565   0.227   6.310  0.2786  0.4780 -0.0077
 7064LIG     H142764   5.496   0.028   5.641  0.6540 -0.6259  0.9559
 7064LIG     H242765   5.475  -0.239   6.181  0.8189  0.9971  1.5944
 7064LIG     H342766   5.643  -0.228   6.094  0.4207 -1.6511  2.8860
 7064LIG     H442767   5.481  -0.241   6.006 -1.0884  0.3455  0.8959
 7064LIG     H542768   5.591   0.359   5.776  0.0145 -2.0020  3.3939
 7064LIG     H642769   5.412   0.365   5.796  0.9158  2.8229 -0.9450
 7064LIG     H742770   5.461   0.300   5.642 -2.5975 -1.1080  0.0128
 7064LIG     H842771   5.513   0.170   6.390  1.3509 -0.1695  0.2428
 7064LIG     H942772   5.532   0.333   6.307 -0.1791  0.4275  1.9295
 7064LIG    H1042773   5.673   0.224   6.334  0.2903  0.9145 -0.0000
   6.81383   6.81383   8.77527
